<event>
 5    1  0.3273105E-002  0.1250009E+03  0.7818608E-02  0.1235068E+00
         -4   -1    0    0    0  501 -0.00000000000E+00  0.00000000000E+00  0.89213477625E+02  0.89222516720E+02  0.12700000000E+01 0.  1.
          4   -1    0    0  501    0  0.00000000000E+00 -0.00000000000E+00 -0.43765580450E+02  0.43784003153E+02  0.12700000000E+01 0.  1.
         25    2    1    2    0    0  0.00000000000E+00  0.00000000000E+00  0.45447897175E+02  0.13300651987E+03  0.12500089188E+03 0.  0.
    9000005    1    3    3    0    0 -0.15364701444E+02  0.57314728296E+02  0.43581762966E+02  0.73630307574E+02  0.10000000000E+01 0.  0.
    9000005    1    3    3    0    0  0.15364701444E+02 -0.57314728296E+02  0.18661342090E+01  0.59376212300E+02  0.10000000000E+01 0.  0.
<mgrwt>
<rscale>  0 0.12500089E+03</rscale>
<asrwt>0</asrwt>
<pdfrwt beam="2">  1        4 0.67352787E-02 0.12500089E+03</pdfrwt>
<pdfrwt beam="1">  1       -4 0.13727263E-01 0.12500089E+03</pdfrwt>
<totfact> 0.10280055E+04</totfact>
</mgrwt>
</event>
<event>
 5    1  0.3273105E-002  0.1249976E+03  0.7818608E-02  0.1235073E+00
         -4   -1    0    0    0  501 -0.00000000000E+00  0.00000000000E+00  0.43056873559E+02  0.43075599365E+02  0.12700000000E+01 0. -1.
          4   -1    0    0  501    0  0.00000000000E+00 -0.00000000000E+00 -0.90676678408E+02  0.90685571659E+02  0.12700000000E+01 0. -1.
         25    2    1    2    0    0  0.00000000000E+00  0.00000000000E+00 -0.47619804849E+02  0.13376117102E+03  0.12499762022E+03 0.  0.
    9000005    1    3    3    0    0  0.47384253229E+02  0.29880950415E+02 -0.53445617758E+02  0.77431083612E+02  0.10000000000E+01 0.  0.
    9000005    1    3    3    0    0 -0.47384253229E+02 -0.29880950415E+02  0.58258129094E+01  0.56330087412E+02  0.10000000000E+01 0.  0.
<mgrwt>
<rscale>  0 0.12499762E+03</rscale>
<asrwt>0</asrwt>
<pdfrwt beam="2">  1        4 0.13952383E-01 0.12499762E+03</pdfrwt>
<pdfrwt beam="1">  1       -4 0.66262589E-02 0.12499762E+03</pdfrwt>
<totfact> 0.10264800E+04</totfact>
</mgrwt>
</event>
<event>
 5    1  0.3273105E-002  0.1249986E+03  0.7818608E-02  0.1235071E+00
          4   -1    0    0  501    0  0.00000000000E+00  0.00000000000E+00  0.10351347698E+04  0.10351355489E+04  0.12700000000E+01 0. -1.
         -4   -1    0    0    0  501 -0.00000000000E+00 -0.00000000000E+00 -0.36659223397E+01  0.38796760949E+01  0.12700000000E+01 0. -1.
         25    2    1    2    0    0  0.00000000000E+00  0.00000000000E+00  0.10314688475E+04  0.10390152250E+04  0.12499861776E+03 0.  0.
    9000005    1    3    3    0    0  0.21908970217E+02 -0.40864200304E+02  0.16748562505E+03  0.17378814816E+03  0.10000000000E+01 0.  0.
    9000005    1    3    3    0    0 -0.21908970217E+02  0.40864200304E+02  0.86398322244E+03  0.86522707684E+03  0.10000000000E+01 0.  0.
<mgrwt>
<rscale>  0 0.12499862E+03</rscale>
<asrwt>0</asrwt>
<pdfrwt beam="1">  1        4 0.15926790E+00 0.12499862E+03</pdfrwt>
<pdfrwt beam="2">  1       -4 0.58049095E-03 0.12499862E+03</pdfrwt>
<totfact> 0.29341154E+03</totfact>
</mgrwt>
</event>
<event>
 5    1  0.3273105E-002  0.1249997E+03  0.7818608E-02  0.1235070E+00
         -4   -1    0    0    0  501 -0.00000000000E+00  0.00000000000E+00  0.90849928669E+02  0.90858804963E+02  0.12700000000E+01 0. -1.
          4   -1    0    0  501    0  0.00000000000E+00 -0.00000000000E+00 -0.42976152034E+02  0.42994912997E+02  0.12700000000E+01 0. -1.
         25    2    1    2    0    0  0.00000000000E+00  0.00000000000E+00  0.47873776636E+02  0.13385371796E+03  0.12499967729E+03 0.  0.
    9000005    1    3    3    0    0 -0.27750129166E+01 -0.53584608577E+01 -0.42668687370E+02  0.43104880018E+02  0.10000000000E+01 0.  0.
    9000005    1    3    3    0    0  0.27750129166E+01  0.53584608577E+01  0.90542464006E+02  0.90748837942E+02  0.10000000000E+01 0.  0.
<mgrwt>
<rscale>  0 0.12499968E+03</rscale>
<asrwt>0</asrwt>
<pdfrwt beam="2">  1        4 0.66138417E-02 0.12499968E+03</pdfrwt>
<pdfrwt beam="1">  1       -4 0.13979038E-01 0.12499968E+03</pdfrwt>
<totfact> 0.10262363E+04</totfact>
</mgrwt>
</event>
<event>
 5    1  0.3273105E-002  0.1250073E+03  0.7818608E-02  0.1235058E+00
          4   -1    0    0  501    0  0.00000000000E+00  0.00000000000E+00  0.28018818093E+03  0.28019105916E+03  0.12700000000E+01 0.  1.
         -4   -1    0    0    0  501 -0.00000000000E+00 -0.00000000000E+00 -0.13911275453E+02  0.13969126126E+02  0.12700000000E+01 0.  1.
         25    2    1    2    0    0  0.00000000000E+00  0.00000000000E+00  0.26627690547E+03  0.29416018528E+03  0.12500729665E+03 0.  0.
    9000005    1    3    3    0    0 -0.33965462822E+02 -0.51491297805E+02  0.15675206813E+03  0.16845538661E+03  0.10000000000E+01 0.  0.
    9000005    1    3    3    0    0  0.33965462822E+02  0.51491297805E+02  0.10952483734E+03  0.12570479867E+03  0.10000000000E+01 0.  0.
<mgrwt>
<rscale>  0 0.12500730E+03</rscale>
<asrwt>0</asrwt>
<pdfrwt beam="1">  1        4 0.43110541E-01 0.12500730E+03</pdfrwt>
<pdfrwt beam="2">  1       -4 0.21448679E-02 0.12500730E+03</pdfrwt>
<totfact> 0.76324896E+03</totfact>
</mgrwt>
</event>
<event>
 5    1  0.3273105E-002  0.1249885E+03  0.7818608E-02  0.1235087E+00
         -4   -1    0    0    0  501 -0.00000000000E+00  0.00000000000E+00  0.14965859539E+03  0.14966398389E+03  0.12700000000E+01 0.  1.
          4   -1    0    0  501    0  0.00000000000E+00 -0.00000000000E+00 -0.26074958446E+02  0.26105868267E+02  0.12700000000E+01 0.  1.
         25    2    1    2    0    0  0.00000000000E+00  0.00000000000E+00  0.12358363695E+03  0.17576985216E+03  0.12498850190E+03 0.  0.
    9000005    1    3    3    0    0 -0.40318394573E+01 -0.52127073896E+01  0.14917543972E+03  0.14932427754E+03  0.10000000000E+01 0.  0.
    9000005    1    3    3    0    0  0.40318394573E+01  0.52127073896E+01 -0.25591802773E+02  0.26445574619E+02  0.10000000000E+01 0.  0.
<mgrwt>
<rscale>  0 0.12498850E+03</rscale>
<asrwt>0</asrwt>
<pdfrwt beam="2">  1        4 0.40143244E-02 0.12498850E+03</pdfrwt>
<pdfrwt beam="1">  1       -4 0.23027191E-01 0.12498850E+03</pdfrwt>
<totfact> 0.94408381E+03</totfact>
</mgrwt>
</event>
<event>
 5    1  0.3273105E-002  0.1250015E+03  0.7818608E-02  0.1235067E+00
          4   -1    0    0  501    0  0.00000000000E+00  0.00000000000E+00  0.20748432773E+02  0.20787264431E+02  0.12700000000E+01 0.  1.
         -4   -1    0    0    0  501 -0.00000000000E+00 -0.00000000000E+00 -0.18805471621E+03  0.18805900454E+03  0.12700000000E+01 0.  1.
         25    2    1    2    0    0  0.00000000000E+00  0.00000000000E+00 -0.16730628344E+03  0.20884626897E+03  0.12500148633E+03 0.  0.
    9000005    1    3    3    0    0  0.41970617482E+02  0.35802857732E+02 -0.34601166905E+02  0.65127706122E+02  0.10000000000E+01 0.  0.
    9000005    1    3    3    0    0 -0.41970617482E+02 -0.35802857732E+02 -0.13270511653E+03  0.14371856285E+03  0.10000000000E+01 0.  0.
<mgrwt>
<rscale>  0 0.12500149E+03</rscale>
<asrwt>0</asrwt>
<pdfrwt beam="1">  1        4 0.31953836E-02 0.12500149E+03</pdfrwt>
<pdfrwt beam="2">  1       -4 0.28934811E-01 0.12500149E+03</pdfrwt>
<totfact> 0.88661701E+03</totfact>
</mgrwt>
</event>
<event>
 5    1  0.3273105E-002  0.1250009E+03  0.7818608E-02  0.1235068E+00
         -4   -1    0    0    0  501 -0.00000000000E+00  0.00000000000E+00  0.55456816497E+01  0.56892429162E+01  0.12700000000E+01 0. -1.
          4   -1    0    0  501    0  0.00000000000E+00 -0.00000000000E+00 -0.69524163090E+03  0.69524279085E+03  0.12700000000E+01 0. -1.
         25    2    1    2    0    0  0.00000000000E+00  0.00000000000E+00 -0.68969594925E+03  0.70093203377E+03  0.12500085422E+03 0.  0.
    9000005    1    3    3    0    0  0.36278635582E+02  0.46755339694E+02 -0.23226557236E+03  0.23968833366E+03  0.10000000000E+01 0.  0.
    9000005    1    3    3    0    0 -0.36278635582E+02 -0.46755339694E+02 -0.45743037689E+03  0.46124370011E+03  0.10000000000E+01 0.  0.
<mgrwt>
<rscale>  0 0.12500085E+03</rscale>
<asrwt>0</asrwt>
<pdfrwt beam="2">  1        4 0.10697132E+00 0.12500085E+03</pdfrwt>
<pdfrwt beam="1">  1       -4 0.86431475E-03 0.12500085E+03</pdfrwt>
<totfact> 0.43036753E+03</totfact>
</mgrwt>
</event>
<event>
 5    1  0.3273105E-002  0.1250009E+03  0.7818608E-02  0.1235068E+00
         -4   -1    0    0    0  501 -0.00000000000E+00  0.00000000000E+00  0.56820990382E+02  0.56835181428E+02  0.12700000000E+01 0. -1.
          4   -1    0    0  501    0  0.00000000000E+00 -0.00000000000E+00 -0.68718975957E+02  0.68730710433E+02  0.12700000000E+01 0. -1.
         25    2    1    2    0    0  0.00000000000E+00  0.00000000000E+00 -0.11897985575E+02  0.12556589186E+03  0.12500092455E+03 0.  0.
    9000005    1    3    3    0    0 -0.42857710067E+02  0.38683727581E+02  0.18077591840E+02  0.60506308915E+02  0.10000000000E+01 0.  0.
    9000005    1    3    3    0    0  0.42857710067E+02 -0.38683727581E+02 -0.29975577416E+02  0.65059582946E+02  0.10000000000E+01 0.  0.
<mgrwt>
<rscale>  0 0.12500092E+03</rscale>
<asrwt>0</asrwt>
<pdfrwt beam="2">  1        4 0.10574144E-01 0.12500092E+03</pdfrwt>
<pdfrwt beam="1">  1       -4 0.87436851E-02 0.12500092E+03</pdfrwt>
<totfact> 0.10440282E+04</totfact>
</mgrwt>
</event>
<event>
 5    1  0.3273105E-002  0.1250065E+03  0.7818608E-02  0.1235059E+00
         -4   -1    0    0    0  501 -0.00000000000E+00  0.00000000000E+00  0.27695154702E+03  0.27695445889E+03  0.12700000000E+01 0. -1.
          4   -1    0    0  501    0  0.00000000000E+00 -0.00000000000E+00 -0.14074339138E+02  0.14131522288E+02  0.12700000000E+01 0. -1.
         25    2    1    2    0    0  0.00000000000E+00  0.00000000000E+00  0.26287720788E+03  0.29108598118E+03  0.12500648788E+03 0.  0.
    9000005    1    3    3    0    0 -0.60841161898E+02 -0.19460041916E+01  0.98489455936E+02  0.11578690273E+03  0.10000000000E+01 0.  0.
    9000005    1    3    3    0    0  0.60841161898E+02  0.19460041916E+01  0.16438775195E+03  0.17529907844E+03  0.10000000000E+01 0.  0.
<mgrwt>
<rscale>  0 0.12500649E+03</rscale>
<asrwt>0</asrwt>
<pdfrwt beam="2">  1        4 0.21699055E-02 0.12500649E+03</pdfrwt>
<pdfrwt beam="1">  1       -4 0.42612555E-01 0.12500649E+03</pdfrwt>
<totfact> 0.76719717E+03</totfact>
</mgrwt>
</event>
<event>
 5    1  0.3273105E-002  0.1249987E+03  0.7818608E-02  0.1235071E+00
         -4   -1    0    0    0  501 -0.00000000000E+00  0.00000000000E+00  0.15942098134E+03  0.15942603988E+03  0.12700000000E+01 0. -1.
          4   -1    0    0  501    0  0.00000000000E+00 -0.00000000000E+00 -0.24480334707E+02  0.24513255340E+02  0.12700000000E+01 0. -1.
         25    2    1    2    0    0  0.00000000000E+00  0.00000000000E+00  0.13494064663E+03  0.18393929521E+03  0.12499874484E+03 0.  0.
    9000005    1    3    3    0    0 -0.51630766381E+02 -0.35181668969E+02  0.65559779574E+02  0.90568043847E+02  0.10000000000E+01 0.  0.
    9000005    1    3    3    0    0  0.51630766381E+02  0.35181668969E+02  0.69380867056E+02  0.93371251367E+02  0.10000000000E+01 0.  0.
<mgrwt>
<rscale>  0 0.12499874E+03</rscale>
<asrwt>0</asrwt>
<pdfrwt beam="2">  1        4 0.37691270E-02 0.12499874E+03</pdfrwt>
<pdfrwt beam="1">  1       -4 0.24529225E-01 0.12499874E+03</pdfrwt>
<totfact> 0.92915299E+03</totfact>
</mgrwt>
</event>
<event>
 5    1  0.3273105E-002  0.1249900E+03  0.7818608E-02  0.1235085E+00
          4   -1    0    0  501    0  0.00000000000E+00  0.00000000000E+00  0.17010210237E+02  0.17057554113E+02  0.12700000000E+01 0.  1.
         -4   -1    0    0    0  501 -0.00000000000E+00 -0.00000000000E+00 -0.22923665981E+03  0.22924017776E+03  0.12700000000E+01 0.  1.
         25    2    1    2    0    0  0.00000000000E+00  0.00000000000E+00 -0.21222644957E+03  0.24629773187E+03  0.12499002692E+03 0.  0.
    9000005    1    3    3    0    0  0.41030241620E+02 -0.15658546468E+00 -0.19898231800E+03  0.20317103171E+03  0.10000000000E+01 0.  0.
    9000005    1    3    3    0    0 -0.41030241620E+02  0.15658546468E+00 -0.13244131567E+02  0.43126700168E+02  0.10000000000E+01 0.  0.
<mgrwt>
<rscale>  0 0.12499003E+03</rscale>
<asrwt>0</asrwt>
<pdfrwt beam="1">  1        4 0.26208680E-02 0.12499003E+03</pdfrwt>
<pdfrwt beam="2">  1       -4 0.35271089E-01 0.12499003E+03</pdfrwt>
<totfact> 0.82886702E+03</totfact>
</mgrwt>
</event>
<event>
 5    1  0.3273105E-002  0.1250081E+03  0.7818608E-02  0.1235057E+00
         -4   -1    0    0    0  501 -0.00000000000E+00  0.00000000000E+00  0.68145766789E+02  0.68157599953E+02  0.12700000000E+01 0.  1.
          4   -1    0    0  501    0  0.00000000000E+00 -0.00000000000E+00 -0.57305543576E+02  0.57319614658E+02  0.12700000000E+01 0.  1.
         25    2    1    2    0    0  0.00000000000E+00  0.00000000000E+00  0.10840223213E+02  0.12547721461E+03  0.12500808353E+03 0.  0.
    9000005    1    3    3    0    0  0.40565870493E+02 -0.45140946652E+02 -0.95509657506E+01  0.61445226505E+02  0.10000000000E+01 0.  0.
    9000005    1    3    3    0    0 -0.40565870493E+02  0.45140946652E+02  0.20391188963E+02  0.64031988106E+02  0.10000000000E+01 0.  0.
<mgrwt>
<rscale>  0 0.12500808E+03</rscale>
<asrwt>0</asrwt>
<pdfrwt beam="2">  1        4 0.88182301E-02 0.12500808E+03</pdfrwt>
<pdfrwt beam="1">  1       -4 0.10485957E-01 0.12500808E+03</pdfrwt>
<totfact> 0.10440554E+04</totfact>
</mgrwt>
</event>
<event>
 5    1  0.3273105E-002  0.1250016E+03  0.7818608E-02  0.1235067E+00
          4   -1    0    0  501    0  0.00000000000E+00  0.00000000000E+00  0.33013486166E+02  0.33037905031E+02  0.12700000000E+01 0.  1.
         -4   -1    0    0    0  501 -0.00000000000E+00 -0.00000000000E+00 -0.11825427861E+03  0.11826109804E+03  0.12700000000E+01 0.  1.
         25    2    1    2    0    0  0.00000000000E+00  0.00000000000E+00 -0.85240792445E+02  0.15129900307E+03  0.12500158252E+03 0.  0.
    9000005    1    3    3    0    0 -0.24550346199E+01 -0.61314021976E+01 -0.11783659375E+03  0.11802577734E+03  0.10000000000E+01 0.  0.
    9000005    1    3    3    0    0  0.24550346199E+01  0.61314021976E+01  0.32595801309E+02  0.33273225736E+02  0.10000000000E+01 0.  0.
<mgrwt>
<rscale>  0 0.12500158E+03</rscale>
<asrwt>0</asrwt>
<pdfrwt beam="1">  1        4 0.50814009E-02 0.12500158E+03</pdfrwt>
<pdfrwt beam="2">  1       -4 0.18195369E-01 0.12500158E+03</pdfrwt>
<totfact> 0.99041862E+03</totfact>
</mgrwt>
</event>
<event>
 5    1  0.3273105E-002  0.1250215E+03  0.7818608E-02  0.1235036E+00
         -4   -1    0    0    0  501 -0.00000000000E+00  0.00000000000E+00  0.92198299552E+01  0.93068880085E+01  0.12700000000E+01 0.  1.
          4   -1    0    0  501    0  0.00000000000E+00 -0.00000000000E+00 -0.42174552301E+03  0.42174743517E+03  0.12700000000E+01 0.  1.
         25    2    1    2    0    0  0.00000000000E+00  0.00000000000E+00 -0.41252569305E+03  0.43105432318E+03  0.12502152657E+03 0.  0.
    9000005    1    3    3    0    0  0.47110762383E+02 -0.34624335975E+01 -0.34737952811E+03  0.35057802117E+03  0.10000000000E+01 0.  0.
    9000005    1    3    3    0    0 -0.47110762383E+02  0.34624335975E+01 -0.65146164939E+02  0.80476302009E+02  0.10000000000E+01 0.  0.
<mgrwt>
<rscale>  0 0.12502153E+03</rscale>
<asrwt>0</asrwt>
<pdfrwt beam="2">  1        4 0.64890756E-01 0.12502153E+03</pdfrwt>
<pdfrwt beam="1">  1       -4 0.14252796E-02 0.12502153E+03</pdfrwt>
<totfact> 0.61611301E+03</totfact>
</mgrwt>
</event>
<event>
 5    1  0.3273105E-002  0.1250006E+03  0.7818608E-02  0.1235068E+00
          4   -1    0    0  501    0  0.00000000000E+00  0.00000000000E+00  0.12989309789E+03  0.12989930631E+03  0.12700000000E+01 0.  1.
         -4   -1    0    0    0  501 -0.00000000000E+00 -0.00000000000E+00 -0.30052763917E+02  0.30079586418E+02  0.12700000000E+01 0.  1.
         25    2    1    2    0    0  0.00000000000E+00  0.00000000000E+00  0.99840333970E+02  0.15997889272E+03  0.12500061532E+03 0.  0.
    9000005    1    3    3    0    0 -0.55227109495E+02  0.17702187271E+02  0.20127796349E+02  0.61396492108E+02  0.10000000000E+01 0.  0.
    9000005    1    3    3    0    0  0.55227109495E+02 -0.17702187271E+02  0.79712537621E+02  0.98582400616E+02  0.10000000000E+01 0.  0.
<mgrwt>
<rscale>  0 0.12500062E+03</rscale>
<asrwt>0</asrwt>
<pdfrwt beam="1">  1        4 0.19986095E-01 0.12500062E+03</pdfrwt>
<pdfrwt beam="2">  1       -4 0.46260429E-02 0.12500062E+03</pdfrwt>
<totfact> 0.97345507E+03</totfact>
</mgrwt>
</event>
<event>
 5    1  0.3273105E-002  0.1249955E+03  0.7818608E-02  0.1235076E+00
          4   -1    0    0  501    0  0.00000000000E+00  0.00000000000E+00  0.18115458477E+03  0.18115903644E+03  0.12700000000E+01 0.  1.
         -4   -1    0    0    0  501 -0.00000000000E+00 -0.00000000000E+00 -0.21538105283E+02  0.21575515734E+02  0.12700000000E+01 0.  1.
         25    2    1    2    0    0  0.00000000000E+00  0.00000000000E+00  0.15961647949E+03  0.20273455217E+03  0.12499551240E+03 0.  0.
    9000005    1    3    3    0    0 -0.10414182002E+02  0.52255221884E+02  0.13276151542E+03  0.14305832159E+03  0.10000000000E+01 0.  0.
    9000005    1    3    3    0    0  0.10414182002E+02 -0.52255221884E+02  0.26854964068E+02  0.59676230578E+02  0.10000000000E+01 0.  0.
<mgrwt>
<rscale>  0 0.12499551E+03</rscale>
<asrwt>0</asrwt>
<pdfrwt beam="1">  1        4 0.27873156E-01 0.12499551E+03</pdfrwt>
<pdfrwt beam="2">  1       -4 0.33167749E-02 0.12499551E+03</pdfrwt>
<totfact> 0.89685347E+03</totfact>
</mgrwt>
</event>
<event>
 5    1  0.3273105E-002  0.1249786E+03  0.7818608E-02  0.1235103E+00
         -4   -1    0    0    0  501 -0.00000000000E+00  0.00000000000E+00  0.29727252552E+02  0.29754368491E+02  0.12700000000E+01 0. -1.
          4   -1    0    0  501    0  0.00000000000E+00 -0.00000000000E+00 -0.13126803716E+03  0.13127418055E+03  0.12700000000E+01 0. -1.
         25    2    1    2    0    0  0.00000000000E+00  0.00000000000E+00 -0.10154078460E+03  0.16102854904E+03  0.12497864885E+03 0.  0.
    9000005    1    3    3    0    0 -0.53426552299E+02 -0.31686210394E+02 -0.59461762527E+02  0.85994846488E+02  0.10000000000E+01 0.  0.
    9000005    1    3    3    0    0  0.53426552299E+02  0.31686210394E+02 -0.42079022076E+02  0.75033702552E+02  0.10000000000E+01 0.  0.
<mgrwt>
<rscale>  0 0.12497865E+03</rscale>
<asrwt>0</asrwt>
<pdfrwt beam="2">  1        4 0.20197641E-01 0.12497865E+03</pdfrwt>
<pdfrwt beam="1">  1       -4 0.45759820E-02 0.12497865E+03</pdfrwt>
<totfact> 0.97191486E+03</totfact>
</mgrwt>
</event>
<event>
 5    1  0.3273105E-002  0.1250040E+03  0.7818608E-02  0.1235063E+00
         -4   -1    0    0    0  501 -0.00000000000E+00  0.00000000000E+00  0.11107549899E+02  0.11179917923E+02  0.12700000000E+01 0.  1.
          4   -1    0    0  501    0  0.00000000000E+00 -0.00000000000E+00 -0.35048243159E+03  0.35048473255E+03  0.12700000000E+01 0.  1.
         25    2    1    2    0    0  0.00000000000E+00  0.00000000000E+00 -0.33937488169E+03  0.36166465047E+03  0.12500403626E+03 0.  0.
    9000005    1    3    3    0    0 -0.30716337258E+02 -0.40615517468E+02 -0.27449998355E+03  0.27918516186E+03  0.10000000000E+01 0.  0.
    9000005    1    3    3    0    0  0.30716337258E+02  0.40615517468E+02 -0.64874898142E+02  0.82479488618E+02  0.10000000000E+01 0.  0.
<mgrwt>
<rscale>  0 0.12500404E+03</rscale>
<asrwt>0</asrwt>
<pdfrwt beam="2">  1        4 0.53926109E-01 0.12500404E+03</pdfrwt>
<pdfrwt beam="1">  1       -4 0.17145979E-02 0.12500404E+03</pdfrwt>
<totfact> 0.68453974E+03</totfact>
</mgrwt>
</event>
<event>
 5    1  0.3273105E-002  0.1249990E+03  0.7818608E-02  0.1235071E+00
         -4   -1    0    0    0  501 -0.00000000000E+00  0.00000000000E+00  0.22949681157E+02  0.22984794217E+02  0.12700000000E+01 0.  1.
          4   -1    0    0  501    0  0.00000000000E+00 -0.00000000000E+00 -0.17003889169E+03  0.17004363436E+03  0.12700000000E+01 0.  1.
         25    2    1    2    0    0  0.00000000000E+00  0.00000000000E+00 -0.14708921053E+03  0.19302842858E+03  0.12499895353E+03 0.  0.
    9000005    1    3    3    0    0 -0.50496425126E+02  0.26788559518E+02 -0.34549288155E+02  0.66799469935E+02  0.10000000000E+01 0.  0.
    9000005    1    3    3    0    0  0.50496425126E+02 -0.26788559518E+02 -0.11253992238E+03  0.12622895864E+03  0.10000000000E+01 0.  0.
<mgrwt>
<rscale>  0 0.12499895E+03</rscale>
<asrwt>0</asrwt>
<pdfrwt beam="2">  1        4 0.26162894E-01 0.12499895E+03</pdfrwt>
<pdfrwt beam="1">  1       -4 0.35337861E-02 0.12499895E+03</pdfrwt>
<totfact> 0.91325173E+03</totfact>
</mgrwt>
</event>
<event>
 5    1  0.3273105E-002  0.1250003E+03  0.7818608E-02  0.1235069E+00
          4   -1    0    0  501    0  0.00000000000E+00  0.00000000000E+00  0.46991695236E+02  0.47008853646E+02  0.12700000000E+01 0. -1.
         -4   -1    0    0    0  501 -0.00000000000E+00 -0.00000000000E+00 -0.83089649323E+02  0.83099354538E+02  0.12700000000E+01 0. -1.
         25    2    1    2    0    0  0.00000000000E+00  0.00000000000E+00 -0.36097954088E+02  0.13010820818E+03  0.12500033419E+03 0.  0.
    9000005    1    3    3    0    0 -0.35440308424E+02 -0.19774175593E+02 -0.67511734089E+02  0.78777329996E+02  0.10000000000E+01 0.  0.
    9000005    1    3    3    0    0  0.35440308424E+02  0.19774175593E+02  0.31413780002E+02  0.51330878188E+02  0.10000000000E+01 0.  0.
<mgrwt>
<rscale>  0 0.12500033E+03</rscale>
<asrwt>0</asrwt>
<pdfrwt beam="1">  1        4 0.72315580E-02 0.12500033E+03</pdfrwt>
<pdfrwt beam="2">  1       -4 0.12785089E-01 0.12500033E+03</pdfrwt>
<totfact> 0.10342115E+04</totfact>
</mgrwt>
</event>
<event>
 5    1  0.3273105E-002  0.1249998E+03  0.7818608E-02  0.1235070E+00
         -4   -1    0    0    0  501 -0.00000000000E+00  0.00000000000E+00  0.13294799594E+02  0.13355320896E+02  0.12700000000E+01 0. -1.
          4   -1    0    0  501    0  0.00000000000E+00 -0.00000000000E+00 -0.29308789547E+03  0.29309064702E+03  0.12700000000E+01 0. -1.
         25    2    1    2    0    0  0.00000000000E+00  0.00000000000E+00 -0.27979309588E+03  0.30644596792E+03  0.12499981901E+03 0.  0.
    9000005    1    3    3    0    0 -0.40180164630E+02  0.62496425105E+01 -0.25622961255E+03  0.25943808127E+03  0.10000000000E+01 0.  0.
    9000005    1    3    3    0    0  0.40180164630E+02 -0.62496425105E+01 -0.23563483325E+02  0.47007886653E+02  0.10000000000E+01 0.  0.
<mgrwt>
<rscale>  0 0.12499982E+03</rscale>
<asrwt>0</asrwt>
<pdfrwt beam="2">  1        4 0.45095308E-01 0.12499982E+03</pdfrwt>
<pdfrwt beam="1">  1       -4 0.20502212E-02 0.12499982E+03</pdfrwt>
<totfact> 0.74797620E+03</totfact>
</mgrwt>
</event>
<event>
 5    1  0.3273105E-002  0.1249954E+03  0.7818608E-02  0.1235077E+00
         -4   -1    0    0    0  501 -0.00000000000E+00  0.00000000000E+00  0.33315997554E+02  0.33340194856E+02  0.12700000000E+01 0.  1.
          4   -1    0    0  501    0  0.00000000000E+00 -0.00000000000E+00 -0.11716957790E+03  0.11717646046E+03  0.12700000000E+01 0.  1.
         25    2    1    2    0    0  0.00000000000E+00  0.00000000000E+00 -0.83853580349E+02  0.15051665532E+03  0.12499536228E+03 0.  0.
    9000005    1    3    3    0    0  0.11173802149E+02 -0.29891807865E+02 -0.10662360781E+03  0.11130124785E+03  0.10000000000E+01 0.  0.
    9000005    1    3    3    0    0 -0.11173802149E+02  0.29891807865E+02  0.22770027460E+02  0.39215407462E+02  0.10000000000E+01 0.  0.
<mgrwt>
<rscale>  0 0.12499536E+03</rscale>
<asrwt>0</asrwt>
<pdfrwt beam="2">  1        4 0.18028479E-01 0.12499536E+03</pdfrwt>
<pdfrwt beam="1">  1       -4 0.51279289E-02 0.12499536E+03</pdfrwt>
<totfact> 0.99211165E+03</totfact>
</mgrwt>
</event>
<event>
 5    1  0.3273105E-002  0.1250011E+03  0.7818608E-02  0.1235068E+00
          4   -1    0    0  501    0  0.00000000000E+00  0.00000000000E+00  0.62208004882E+03  0.62208134519E+03  0.12700000000E+01 0.  1.
         -4   -1    0    0    0  501 -0.00000000000E+00 -0.00000000000E+00 -0.62139123342E+01  0.63423660016E+01  0.12700000000E+01 0.  1.
         25    2    1    2    0    0  0.00000000000E+00  0.00000000000E+00  0.61586613648E+03  0.62842371119E+03  0.12500105089E+03 0.  0.
    9000005    1    3    3    0    0 -0.34302428619E+02  0.52123513658E+02  0.32520139984E+03  0.33113512007E+03  0.10000000000E+01 0.  0.
    9000005    1    3    3    0    0  0.34302428619E+02 -0.52123513658E+02  0.29066473664E+03  0.29728859112E+03  0.10000000000E+01 0.  0.
<mgrwt>
<rscale>  0 0.12500105E+03</rscale>
<asrwt>0</asrwt>
<pdfrwt beam="1">  1        4 0.95714613E-01 0.12500105E+03</pdfrwt>
<pdfrwt beam="2">  1       -4 0.96596719E-03 0.12500105E+03</pdfrwt>
<totfact> 0.47120121E+03</totfact>
</mgrwt>
</event>
<event>
 5    1  0.3273105E-002  0.1249997E+03  0.7818608E-02  0.1235070E+00
         -4   -1    0    0    0  501 -0.00000000000E+00  0.00000000000E+00  0.17644405954E+02  0.17690052614E+02  0.12700000000E+01 0.  1.
          4   -1    0    0  501    0  0.00000000000E+00 -0.00000000000E+00 -0.22105277293E+03  0.22105642113E+03  0.12700000000E+01 0.  1.
         25    2    1    2    0    0  0.00000000000E+00  0.00000000000E+00 -0.20340836698E+03  0.23874647374E+03  0.12499965987E+03 0.  0.
    9000005    1    3    3    0    0 -0.29222715285E+02 -0.12891548276E+02  0.88611291554E+00  0.31967863578E+02  0.10000000000E+01 0.  0.
    9000005    1    3    3    0    0  0.29222715285E+02  0.12891548276E+02 -0.20429447989E+03  0.20677861016E+03  0.10000000000E+01 0.  0.
<mgrwt>
<rscale>  0 0.12499966E+03</rscale>
<asrwt>0</asrwt>
<pdfrwt beam="2">  1        4 0.34011909E-01 0.12499966E+03</pdfrwt>
<pdfrwt beam="1">  1       -4 0.27183161E-02 0.12499966E+03</pdfrwt>
<totfact> 0.83985050E+03</totfact>
</mgrwt>
</event>
<event>
 5    1  0.3273105E-002  0.1250008E+03  0.7818608E-02  0.1235068E+00
          4   -1    0    0  501    0  0.00000000000E+00  0.00000000000E+00  0.32939667005E+02  0.32964140553E+02  0.12700000000E+01 0.  1.
         -4   -1    0    0    0  501 -0.00000000000E+00 -0.00000000000E+00 -0.11851763280E+03  0.11852443708E+03  0.12700000000E+01 0.  1.
         25    2    1    2    0    0  0.00000000000E+00  0.00000000000E+00 -0.85577965794E+02  0.15148857763E+03  0.12500080369E+03 0.  0.
    9000005    1    3    3    0    0  0.36906593260E+02 -0.45299245381E+02 -0.15930078585E+02  0.60571327060E+02  0.10000000000E+01 0.  0.
    9000005    1    3    3    0    0 -0.36906593260E+02  0.45299245381E+02 -0.69647887209E+02  0.90917250568E+02  0.10000000000E+01 0.  0.
<mgrwt>
<rscale>  0 0.12500080E+03</rscale>
<asrwt>0</asrwt>
<pdfrwt beam="1">  1        4 0.50700471E-02 0.12500080E+03</pdfrwt>
<pdfrwt beam="2">  1       -4 0.18235888E-01 0.12500080E+03</pdfrwt>
<totfact> 0.99006006E+03</totfact>
</mgrwt>
</event>
<event>
 5    1  0.3273105E-002  0.1249990E+03  0.7818608E-02  0.1235071E+00
          4   -1    0    0  501    0  0.00000000000E+00  0.00000000000E+00  0.42692639872E+02  0.42711525367E+02  0.12700000000E+01 0.  1.
         -4   -1    0    0    0  501 -0.00000000000E+00 -0.00000000000E+00 -0.91452009611E+02  0.91460827473E+02  0.12700000000E+01 0.  1.
         25    2    1    2    0    0  0.00000000000E+00  0.00000000000E+00 -0.48759369740E+02  0.13417235284E+03  0.12499897651E+03 0.  0.
    9000005    1    3    3    0    0 -0.18322379317E+02 -0.53443865776E+02 -0.53045960740E+02  0.77503743934E+02  0.10000000000E+01 0.  0.
    9000005    1    3    3    0    0  0.18322379317E+02  0.53443865776E+02  0.42865910003E+01  0.56668608906E+02  0.10000000000E+01 0.  0.
<mgrwt>
<rscale>  0 0.12499898E+03</rscale>
<asrwt>0</asrwt>
<pdfrwt beam="1">  1        4 0.65702295E-02 0.12499898E+03</pdfrwt>
<pdfrwt beam="2">  1       -4 0.14071671E-01 0.12499898E+03</pdfrwt>
<totfact> 0.10255782E+04</totfact>
</mgrwt>
</event>
<event>
 5    1  0.3273105E-002  0.1249990E+03  0.7818608E-02  0.1235071E+00
         -4   -1    0    0    0  501 -0.00000000000E+00  0.00000000000E+00  0.11049354660E+03  0.11050084497E+03  0.12700000000E+01 0. -1.
          4   -1    0    0  501    0  0.00000000000E+00 -0.00000000000E+00 -0.35332278804E+02  0.35355096174E+02  0.12700000000E+01 0. -1.
         25    2    1    2    0    0  0.00000000000E+00  0.00000000000E+00  0.75161267796E+02  0.14585594115E+03  0.12499895756E+03 0.  0.
    9000005    1    3    3    0    0 -0.51141313798E+02 -0.26328977397E+02  0.66080052225E+02  0.87614053267E+02  0.10000000000E+01 0.  0.
    9000005    1    3    3    0    0  0.51141313798E+02  0.26328977397E+02  0.90812155707E+01  0.58241887882E+02  0.10000000000E+01 0.  0.
<mgrwt>
<rscale>  0 0.12499896E+03</rscale>
<asrwt>0</asrwt>
<pdfrwt beam="2">  1        4 0.54380518E-02 0.12499896E+03</pdfrwt>
<pdfrwt beam="1">  1       -4 0.17001324E-01 0.12499896E+03</pdfrwt>
<totfact> 0.10013862E+04</totfact>
</mgrwt>
</event>
<event>
 5    1  0.3273105E-002  0.1249681E+03  0.7818608E-02  0.1235119E+00
         -4   -1    0    0    0  501 -0.00000000000E+00  0.00000000000E+00  0.69029203180E+02  0.69040884928E+02  0.12700000000E+01 0.  1.
          4   -1    0    0  501    0  0.00000000000E+00 -0.00000000000E+00 -0.56535846218E+02  0.56550108820E+02  0.12700000000E+01 0.  1.
         25    2    1    2    0    0  0.00000000000E+00  0.00000000000E+00  0.12493356962E+02  0.12559099375E+03  0.12496805089E+03 0.  0.
    9000005    1    3    3    0    0  0.23047413055E+02  0.14211900569E+02  0.62830912138E+02  0.68424300408E+02  0.10000000000E+01 0.  0.
    9000005    1    3    3    0    0 -0.23047413055E+02 -0.14211900569E+02 -0.50337555176E+02  0.57166693340E+02  0.10000000000E+01 0.  0.
<mgrwt>
<rscale>  0 0.12496805E+03</rscale>
<asrwt>0</asrwt>
<pdfrwt beam="2">  1        4 0.86998182E-02 0.12496805E+03</pdfrwt>
<pdfrwt beam="1">  1       -4 0.10621873E-01 0.12496805E+03</pdfrwt>
<totfact> 0.10447473E+04</totfact>
</mgrwt>
</event>
<event>
 4    1  0.3273105E-002  0.1250631E+03  0.7818608E-02  0.1234971E+00
          4   -1    0    0  501    0  0.00000000000E+00  0.00000000000E+00  0.21997852478E+02  0.22034482378E+02  0.12700000000E+01 0.  1.
         -4   -1    0    0    0  501 -0.00000000000E+00 -0.00000000000E+00 -0.17756679402E+03  0.17757133563E+03  0.12700000000E+01 0.  1.
    9000005    1    1    2    0    0  0.44347846077E+02  0.97421192807E+01 -0.91815274905E+01  0.46335092390E+02  0.10000000000E+01 0.  0.
    9000005    1    1    2    0    0 -0.44347846077E+02 -0.97421192807E+01 -0.14638741405E+03  0.15327072562E+03  0.10000000000E+01 0.  0.
<mgrwt>
<rscale>  0 0.12506313E+03</rscale>
<asrwt>0</asrwt>
<pdfrwt beam="1">  1        4 0.33874522E-02 0.12506313E+03</pdfrwt>
<pdfrwt beam="2">  1       -4 0.27321134E-01 0.12506313E+03</pdfrwt>
<totfact> 0.90074715E+03</totfact>
</mgrwt>
</event>
<event>
 5    1  0.3273105E-002  0.1250146E+03  0.7818608E-02  0.1235046E+00
          4   -1    0    0  501    0  0.00000000000E+00  0.00000000000E+00  0.26832215437E+02  0.26862253913E+02  0.12700000000E+01 0.  1.
         -4   -1    0    0    0  501 -0.00000000000E+00 -0.00000000000E+00 -0.14550036794E+03  0.14550591044E+03  0.12700000000E+01 0.  1.
         25    2    1    2    0    0  0.00000000000E+00  0.00000000000E+00 -0.11866815251E+03  0.17236816435E+03  0.12501461379E+03 0.  0.
    9000005    1    3    3    0    0  0.57282145250E+02  0.15357740124E+02 -0.86530014400E+02  0.10490732929E+03  0.10000000000E+01 0.  0.
    9000005    1    3    3    0    0 -0.57282145250E+02 -0.15357740124E+02 -0.32138138106E+02  0.67460835060E+02  0.10000000000E+01 0.  0.
<mgrwt>
<rscale>  0 0.12501461E+03</rscale>
<asrwt>0</asrwt>
<pdfrwt beam="1">  1        4 0.41307702E-02 0.12501461E+03</pdfrwt>
<pdfrwt beam="2">  1       -4 0.22387408E-01 0.12501461E+03</pdfrwt>
<totfact> 0.94977928E+03</totfact>
</mgrwt>
</event>
<event>
 5    1  0.3273105E-002  0.1250002E+03  0.7818608E-02  0.1235069E+00
          4   -1    0    0  501    0  0.00000000000E+00  0.00000000000E+00  0.22257228562E+01  0.25625655568E+01  0.12700000000E+01 0.  1.
         -4   -1    0    0    0  501 -0.00000000000E+00 -0.00000000000E+00 -0.16312532391E+04  0.16312537334E+04  0.12700000000E+01 0.  1.
         25    2    1    2    0    0  0.00000000000E+00  0.00000000000E+00 -0.16290275162E+04  0.16338162990E+04  0.12500020120E+03 0.  0.
    9000005    1    3    3    0    0  0.15862001780E+01 -0.85069792635E+01 -0.16234481889E+04  0.16234715602E+04  0.10000000000E+01 0.  0.
    9000005    1    3    3    0    0 -0.15862001780E+01  0.85069792635E+01 -0.55793272666E+01  0.10344738757E+02  0.10000000000E+01 0.  0.
<mgrwt>
<rscale>  0 0.12500020E+03</rscale>
<asrwt>0</asrwt>
<pdfrwt beam="1">  1        4 0.36836921E-03 0.12500020E+03</pdfrwt>
<pdfrwt beam="2">  1       -4 0.25098710E+00 0.12500020E+03</pdfrwt>
<totfact> 0.15442602E+03</totfact>
</mgrwt>
</event>
<event>
 5    1  0.3273105E-002  0.1250015E+03  0.7818608E-02  0.1235067E+00
         -4   -1    0    0    0  501 -0.00000000000E+00  0.00000000000E+00  0.13809890552E+02  0.13868164156E+02  0.12700000000E+01 0. -1.
          4   -1    0    0  501    0  0.00000000000E+00 -0.00000000000E+00 -0.28221034952E+03  0.28221320712E+03  0.12700000000E+01 0. -1.
         25    2    1    2    0    0  0.00000000000E+00  0.00000000000E+00 -0.26840045897E+03  0.29608137128E+03  0.12500148817E+03 0.  0.
    9000005    1    3    3    0    0 -0.14659130699E+02  0.10358860218E+02 -0.27598455046E+03  0.27656946359E+03  0.10000000000E+01 0.  0.
    9000005    1    3    3    0    0  0.14659130699E+02 -0.10358860218E+02  0.75840914945E+01  0.19511907689E+02  0.10000000000E+01 0.  0.
<mgrwt>
<rscale>  0 0.12500149E+03</rscale>
<asrwt>0</asrwt>
<pdfrwt beam="2">  1        4 0.43421675E-01 0.12500149E+03</pdfrwt>
<pdfrwt beam="1">  1       -4 0.21293012E-02 0.12500149E+03</pdfrwt>
<totfact> 0.76090515E+03</totfact>
</mgrwt>
</event>
<event>
 5    1  0.3273105E-002  0.1249986E+03  0.7818608E-02  0.1235072E+00
         -4   -1    0    0    0  501 -0.00000000000E+00  0.00000000000E+00  0.40846393043E+02  0.40866131755E+02  0.12700000000E+01 0.  1.
          4   -1    0    0  501    0  0.00000000000E+00 -0.00000000000E+00 -0.95583416413E+02  0.95591853174E+02  0.12700000000E+01 0.  1.
         25    2    1    2    0    0  0.00000000000E+00  0.00000000000E+00 -0.54737023370E+02  0.13645798493E+03  0.12499855969E+03 0.  0.
    9000005    1    3    3    0    0  0.56522967464E+02 -0.15191449268E+01  0.16792394297E+01  0.56577146423E+02  0.10000000000E+01 0.  0.
    9000005    1    3    3    0    0 -0.56522967464E+02  0.15191449268E+01 -0.56416262800E+02  0.79880838507E+02  0.10000000000E+01 0.  0.
<mgrwt>
<rscale>  0 0.12499856E+03</rscale>
<asrwt>0</asrwt>
<pdfrwt beam="2">  1        4 0.14707308E-01 0.12499856E+03</pdfrwt>
<pdfrwt beam="1">  1       -4 0.62862279E-02 0.12499856E+03</pdfrwt>
<totfact> 0.10207762E+04</totfact>
</mgrwt>
</event>
<event>
 5    1  0.3273105E-002  0.1249998E+03  0.7818608E-02  0.1235070E+00
          4   -1    0    0  501    0  0.00000000000E+00  0.00000000000E+00  0.16633875729E+02  0.16682287666E+02  0.12700000000E+01 0.  1.
         -4   -1    0    0    0  501 -0.00000000000E+00 -0.00000000000E+00 -0.23444492832E+03  0.23444836812E+03  0.12700000000E+01 0.  1.
         25    2    1    2    0    0  0.00000000000E+00  0.00000000000E+00 -0.21781105259E+03  0.25113065579E+03  0.12499980658E+03 0.  0.
    9000005    1    3    3    0    0  0.12956178626E+02  0.59473556585E+02 -0.13733703276E+03  0.15022458875E+03  0.10000000000E+01 0.  0.
    9000005    1    3    3    0    0 -0.12956178626E+02 -0.59473556585E+02 -0.80474019833E+02  0.10090606704E+03  0.10000000000E+01 0.  0.
<mgrwt>
<rscale>  0 0.12499981E+03</rscale>
<asrwt>0</asrwt>
<pdfrwt beam="1">  1        4 0.25630466E-02 0.12499981E+03</pdfrwt>
<pdfrwt beam="2">  1       -4 0.36072437E-01 0.12499981E+03</pdfrwt>
<totfact> 0.82167442E+03</totfact>
</mgrwt>
</event>
<event>
 5    1  0.3273105E-002  0.1250061E+03  0.7818608E-02  0.1235060E+00
         -4   -1    0    0    0  501 -0.00000000000E+00  0.00000000000E+00  0.99863844281E+01  0.10066815482E+02  0.12700000000E+01 0.  1.
          4   -1    0    0  501    0  0.00000000000E+00 -0.00000000000E+00 -0.38954528551E+03  0.38954735574E+03  0.12700000000E+01 0.  1.
         25    2    1    2    0    0  0.00000000000E+00  0.00000000000E+00 -0.37955890108E+03  0.39961417122E+03  0.12500610565E+03 0.  0.
    9000005    1    3    3    0    0  0.33119160513E+02  0.51932658480E+01 -0.21174134080E+02  0.39663494013E+02  0.10000000000E+01 0.  0.
    9000005    1    3    3    0    0 -0.33119160513E+02 -0.51932658480E+01 -0.35838476700E+03  0.35995067721E+03  0.10000000000E+01 0.  0.
<mgrwt>
<rscale>  0 0.12500611E+03</rscale>
<asrwt>0</asrwt>
<pdfrwt beam="2">  1        4 0.59936378E-01 0.12500611E+03</pdfrwt>
<pdfrwt beam="1">  1       -4 0.15427134E-02 0.12500611E+03</pdfrwt>
<totfact> 0.64581631E+03</totfact>
</mgrwt>
</event>
<event>
 5    1  0.3273105E-002  0.1249975E+03  0.7818608E-02  0.1235073E+00
         -4   -1    0    0    0  501 -0.00000000000E+00  0.00000000000E+00  0.10837411670E+03  0.10838155780E+03  0.12700000000E+01 0. -1.
          4   -1    0    0  501    0  0.00000000000E+00 -0.00000000000E+00 -0.36022820642E+02  0.36045200887E+02  0.12700000000E+01 0. -1.
         25    2    1    2    0    0  0.00000000000E+00  0.00000000000E+00  0.72351296058E+02  0.14442675868E+03  0.12499751431E+03 0.  0.
    9000005    1    3    3    0    0  0.30962148811E+02 -0.23646521136E+02  0.92630094288E+02  0.10049451223E+03  0.10000000000E+01 0.  0.
    9000005    1    3    3    0    0 -0.30962148811E+02  0.23646521136E+02 -0.20278798229E+02  0.43932246453E+02  0.10000000000E+01 0.  0.
<mgrwt>
<rscale>  0 0.12499751E+03</rscale>
<asrwt>0</asrwt>
<pdfrwt beam="2">  1        4 0.55442665E-02 0.12499751E+03</pdfrwt>
<pdfrwt beam="1">  1       -4 0.16675235E-01 0.12499751E+03</pdfrwt>
<totfact> 0.10043211E+04</totfact>
</mgrwt>
</event>
<event>
 5    1  0.3273105E-002  0.1250002E+03  0.7818608E-02  0.1235069E+00
         -4   -1    0    0    0  501 -0.00000000000E+00  0.00000000000E+00  0.41414999078E+02  0.41434466916E+02  0.12700000000E+01 0. -1.
          4   -1    0    0  501    0  0.00000000000E+00 -0.00000000000E+00 -0.94274073434E+02  0.94282627360E+02  0.12700000000E+01 0. -1.
         25    2    1    2    0    0  0.00000000000E+00  0.00000000000E+00 -0.52859074356E+02  0.13571709428E+03  0.12500019175E+03 0.  0.
    9000005    1    3    3    0    0 -0.34083604983E+02 -0.46558431358E+02 -0.37455693018E+00  0.57710657179E+02  0.10000000000E+01 0.  0.
    9000005    1    3    3    0    0  0.34083604983E+02  0.46558431358E+02 -0.52484517426E+02  0.78006437097E+02  0.10000000000E+01 0.  0.
<mgrwt>
<rscale>  0 0.12500019E+03</rscale>
<asrwt>0</asrwt>
<pdfrwt beam="2">  1        4 0.14505859E-01 0.12500019E+03</pdfrwt>
<pdfrwt beam="1">  1       -4 0.63736938E-02 0.12500019E+03</pdfrwt>
<totfact> 0.10222934E+04</totfact>
</mgrwt>
</event>
<event>
 5    1  0.3273105E-002  0.1250019E+03  0.7818608E-02  0.1235066E+00
          4   -1    0    0  501    0  0.00000000000E+00  0.00000000000E+00  0.59781056873E+01  0.61115176191E+01  0.12700000000E+01 0.  1.
         -4   -1    0    0    0  501 -0.00000000000E+00 -0.00000000000E+00 -0.64610086823E+03  0.64610211641E+03  0.12700000000E+01 0.  1.
         25    2    1    2    0    0  0.00000000000E+00  0.00000000000E+00 -0.64012276254E+03  0.65221363403E+03  0.12500189313E+03 0.  0.
    9000005    1    3    3    0    0  0.37256235655E+02 -0.32797838496E+02 -0.12195331948E+03  0.13167132352E+03  0.10000000000E+01 0.  0.
    9000005    1    3    3    0    0 -0.37256235655E+02  0.32797838496E+02 -0.51816944306E+03  0.52054231051E+03  0.10000000000E+01 0.  0.
<mgrwt>
<rscale>  0 0.12500189E+03</rscale>
<asrwt>0</asrwt>
<pdfrwt beam="1">  1        4 0.93006755E-03 0.12500189E+03</pdfrwt>
<pdfrwt beam="2">  1       -4 0.99410438E-01 0.12500189E+03</pdfrwt>
<totfact> 0.45727238E+03</totfact>
</mgrwt>
</event>
<event>
 5    1  0.3273105E-002  0.1249952E+03  0.7818608E-02  0.1235077E+00
          4   -1    0    0  501    0  0.00000000000E+00  0.00000000000E+00  0.26734472970E+02  0.26764621144E+02  0.12700000000E+01 0.  1.
         -4   -1    0    0    0  501 -0.00000000000E+00 -0.00000000000E+00 -0.14598642795E+03  0.14599195199E+03  0.12700000000E+01 0.  1.
         25    2    1    2    0    0  0.00000000000E+00  0.00000000000E+00 -0.11925195498E+03  0.17275657313E+03  0.12499521909E+03 0.  0.
    9000005    1    3    3    0    0 -0.30404314872E+02 -0.25483996610E+01 -0.13499869596E+03  0.13840724191E+03  0.10000000000E+01 0.  0.
    9000005    1    3    3    0    0  0.30404314872E+02  0.25483996610E+01  0.15746740980E+02  0.34349331218E+02  0.10000000000E+01 0.  0.
<mgrwt>
<rscale>  0 0.12499522E+03</rscale>
<asrwt>0</asrwt>
<pdfrwt beam="1">  1        4 0.41157399E-02 0.12499522E+03</pdfrwt>
<pdfrwt beam="2">  1       -4 0.22462194E-01 0.12499522E+03</pdfrwt>
<totfact> 0.94947518E+03</totfact>
</mgrwt>
</event>
<event>
 5    1  0.3273105E-002  0.1249982E+03  0.7818608E-02  0.1235072E+00
          4   -1    0    0  501    0  0.00000000000E+00  0.00000000000E+00  0.28608989473E+02  0.28637164291E+02  0.12700000000E+01 0. -1.
         -4   -1    0    0    0  501 -0.00000000000E+00 -0.00000000000E+00 -0.13643698193E+03  0.13644289259E+03  0.12700000000E+01 0. -1.
         25    2    1    2    0    0  0.00000000000E+00  0.00000000000E+00 -0.10782799245E+03  0.16508005688E+03  0.12499819687E+03 0.  0.
    9000005    1    3    3    0    0 -0.41899835699E+02 -0.37830735175E+02 -0.18516957160E+02  0.59419175844E+02  0.10000000000E+01 0.  0.
    9000005    1    3    3    0    0  0.41899835699E+02  0.37830735175E+02 -0.89311035294E+02  0.10566088103E+03  0.10000000000E+01 0.  0.
<mgrwt>
<rscale>  0 0.12499820E+03</rscale>
<asrwt>0</asrwt>
<pdfrwt beam="1">  1        4 0.44040050E-02 0.12499820E+03</pdfrwt>
<pdfrwt beam="2">  1       -4 0.20992927E-01 0.12499820E+03</pdfrwt>
<totfact> 0.96376137E+03</totfact>
</mgrwt>
</event>
<event>
 5    1  0.3273105E-002  0.1249903E+03  0.7818608E-02  0.1235084E+00
         -4   -1    0    0    0  501 -0.00000000000E+00  0.00000000000E+00  0.29396371109E+01  0.32022439545E+01  0.12700000000E+01 0. -1.
          4   -1    0    0  501    0  0.00000000000E+00 -0.00000000000E+00 -0.12715437643E+04  0.12715443986E+04  0.12700000000E+01 0. -1.
         25    2    1    2    0    0  0.00000000000E+00  0.00000000000E+00 -0.12686041272E+04  0.12747466425E+04  0.12499028363E+03 0.  0.
    9000005    1    3    3    0    0 -0.34092538473E+02 -0.49864639987E+02 -0.47116667404E+03  0.47502401858E+03  0.10000000000E+01 0.  0.
    9000005    1    3    3    0    0  0.34092538473E+02  0.49864639987E+02 -0.79743745318E+03  0.79972262393E+03  0.10000000000E+01 0.  0.
<mgrwt>
<rscale>  0 0.12499028E+03</rscale>
<asrwt>0</asrwt>
<pdfrwt beam="2">  1        4 0.19564195E+00 0.12499028E+03</pdfrwt>
<pdfrwt beam="1">  1       -4 0.47250219E-03 0.12499028E+03</pdfrwt>
<totfact> 0.22837406E+03</totfact>
</mgrwt>
</event>
<event>
 5    1  0.3273105E-002  0.1250015E+03  0.7818608E-02  0.1235067E+00
          4   -1    0    0  501    0  0.00000000000E+00  0.00000000000E+00  0.36138139855E+03  0.36138363012E+03  0.12700000000E+01 0.  1.
         -4   -1    0    0    0  501 -0.00000000000E+00 -0.00000000000E+00 -0.10769897155E+02  0.10844518649E+02  0.12700000000E+01 0.  1.
         25    2    1    2    0    0  0.00000000000E+00  0.00000000000E+00  0.35061150140E+03  0.37222814877E+03  0.12500147929E+03 0.  0.
    9000005    1    3    3    0    0  0.44983290417E+02 -0.17446717025E+02  0.57036191897E+02  0.74712860592E+02  0.10000000000E+01 0.  0.
    9000005    1    3    3    0    0 -0.44983290417E+02  0.17446717025E+02  0.29357530950E+03  0.29751528818E+03  0.10000000000E+01 0.  0.
<mgrwt>
<rscale>  0 0.12500148E+03</rscale>
<asrwt>0</asrwt>
<pdfrwt beam="1">  1        4 0.55603050E-01 0.12500148E+03</pdfrwt>
<pdfrwt beam="2">  1       -4 0.16628190E-02 0.12500148E+03</pdfrwt>
<totfact> 0.67344270E+03</totfact>
</mgrwt>
</event>
<event>
 5    1  0.3273105E-002  0.1250000E+03  0.7818608E-02  0.1235069E+00
         -4   -1    0    0    0  501 -0.00000000000E+00  0.00000000000E+00  0.50169158704E+01  0.51751661664E+01  0.12700000000E+01 0.  1.
          4   -1    0    0  501    0  0.00000000000E+00 -0.00000000000E+00 -0.76636716969E+03  0.76636822199E+03  0.12700000000E+01 0.  1.
         25    2    1    2    0    0  0.00000000000E+00  0.00000000000E+00 -0.76135025382E+03  0.77154338815E+03  0.12499996328E+03 0.  0.
    9000005    1    3    3    0    0  0.35369408757E+02 -0.45703057459E+02 -0.52745290516E+03  0.53061033886E+03  0.10000000000E+01 0.  0.
    9000005    1    3    3    0    0 -0.35369408757E+02  0.45703057459E+02 -0.23389734865E+03  0.24093304930E+03  0.10000000000E+01 0.  0.
<mgrwt>
<rscale>  0 0.12499996E+03</rscale>
<asrwt>0</asrwt>
<pdfrwt beam="2">  1        4 0.11791480E+00 0.12499996E+03</pdfrwt>
<pdfrwt beam="1">  1       -4 0.78408787E-03 0.12499996E+03</pdfrwt>
<totfact> 0.39564345E+03</totfact>
</mgrwt>
</event>
<event>
 5    1  0.3273105E-002  0.1249979E+03  0.7818608E-02  0.1235073E+00
          4   -1    0    0  501    0  0.00000000000E+00  0.00000000000E+00  0.13081529552E+02  0.13143032962E+02  0.12700000000E+01 0. -1.
         -4   -1    0    0    0  501 -0.00000000000E+00 -0.00000000000E+00 -0.29783469762E+03  0.29783740532E+03  0.12700000000E+01 0. -1.
         25    2    1    2    0    0  0.00000000000E+00  0.00000000000E+00 -0.28475316807E+03  0.31098043828E+03  0.12499786505E+03 0.  0.
    9000005    1    3    3    0    0  0.28738560925E+02 -0.53270966025E+02 -0.18103226928E+03  0.19088578582E+03  0.10000000000E+01 0.  0.
    9000005    1    3    3    0    0 -0.28738560925E+02  0.53270966025E+02 -0.10372089878E+03  0.12009465246E+03  0.10000000000E+01 0.  0.
<mgrwt>
<rscale>  0 0.12499787E+03</rscale>
<asrwt>0</asrwt>
<pdfrwt beam="1">  1        4 0.20174825E-02 0.12499787E+03</pdfrwt>
<pdfrwt beam="2">  1       -4 0.45825657E-01 0.12499787E+03</pdfrwt>
<totfact> 0.74245316E+03</totfact>
</mgrwt>
</event>
<event>
 5    1  0.3273105E-002  0.1250002E+03  0.7818608E-02  0.1235069E+00
         -4   -1    0    0    0  501 -0.00000000000E+00  0.00000000000E+00  0.43339714617E+03  0.43339900693E+03  0.12700000000E+01 0.  1.
          4   -1    0    0  501    0  0.00000000000E+00 -0.00000000000E+00 -0.89664992752E+01  0.90559930020E+01  0.12700000000E+01 0.  1.
         25    2    1    2    0    0  0.00000000000E+00  0.00000000000E+00  0.42443064690E+03  0.44245499993E+03  0.12500021177E+03 0.  0.
    9000005    1    3    3    0    0  0.68161064746E+01  0.60300639368E+02  0.26503027105E+03  0.27189091745E+03  0.10000000000E+01 0.  0.
    9000005    1    3    3    0    0 -0.68161064746E+01 -0.60300639368E+02  0.15940037584E+03  0.17056408249E+03  0.10000000000E+01 0.  0.
<mgrwt>
<rscale>  0 0.12500021E+03</rscale>
<asrwt>0</asrwt>
<pdfrwt beam="2">  1        4 0.13864888E-02 0.12500021E+03</pdfrwt>
<pdfrwt beam="1">  1       -4 0.66683505E-01 0.12500021E+03</pdfrwt>
<totfact> 0.60622740E+03</totfact>
</mgrwt>
</event>
<event>
 5    1  0.3273105E-002  0.1250026E+03  0.7818608E-02  0.1235065E+00
          4   -1    0    0  501    0  0.00000000000E+00  0.00000000000E+00  0.10794079812E+04  0.10794087284E+04  0.12700000000E+01 0. -1.
         -4   -1    0    0    0  501 -0.00000000000E+00 -0.00000000000E+00 -0.35068448890E+01  0.37297266757E+01  0.12700000000E+01 0. -1.
         25    2    1    2    0    0  0.00000000000E+00  0.00000000000E+00  0.10759011364E+04  0.10831384550E+04  0.12500263029E+03 0.  0.
    9000005    1    3    3    0    0 -0.67430493979E+01  0.51365001998E+02  0.84079959351E+03  0.84239467507E+03  0.10000000000E+01 0.  0.
    9000005    1    3    3    0    0  0.67430493979E+01 -0.51365001998E+02  0.23510154285E+03  0.24074377997E+03  0.10000000000E+01 0.  0.
<mgrwt>
<rscale>  0 0.12500263E+03</rscale>
<asrwt>0</asrwt>
<pdfrwt beam="1">  1        4 0.16608001E+00 0.12500263E+03</pdfrwt>
<pdfrwt beam="2">  1       -4 0.55671668E-03 0.12500263E+03</pdfrwt>
<totfact> 0.27980577E+03</totfact>
</mgrwt>
</event>
<event>
 5    1  0.3273105E-002  0.1249993E+03  0.7818608E-02  0.1235070E+00
          4   -1    0    0  501    0  0.00000000000E+00  0.00000000000E+00  0.34055372408E+02  0.34079044732E+02  0.12700000000E+01 0.  1.
         -4   -1    0    0    0  501 -0.00000000000E+00 -0.00000000000E+00 -0.11463453303E+03  0.11464156778E+03  0.12700000000E+01 0.  1.
         25    2    1    2    0    0  0.00000000000E+00  0.00000000000E+00 -0.80579160623E+02  0.14872061251E+03  0.12499927784E+03 0.  0.
    9000005    1    3    3    0    0  0.10755087310E+02 -0.16964273108E+01  0.32923981614E+02  0.34692050011E+02  0.10000000000E+01 0.  0.
    9000005    1    3    3    0    0 -0.10755087310E+02  0.16964273108E+01 -0.11350314224E+03  0.11402856250E+03  0.10000000000E+01 0.  0.
<mgrwt>
<rscale>  0 0.12499928E+03</rscale>
<asrwt>0</asrwt>
<pdfrwt beam="1">  1        4 0.52416502E-02 0.12499928E+03</pdfrwt>
<pdfrwt beam="2">  1       -4 0.17638444E-01 0.12499928E+03</pdfrwt>
<totfact> 0.99560957E+03</totfact>
</mgrwt>
</event>
<event>
 4    1  0.3273105E-002  0.1251233E+03  0.7818608E-02  0.1234877E+00
         -4   -1    0    0    0  501 -0.00000000000E+00  0.00000000000E+00  0.14513323519E+03  0.14513879171E+03  0.12700000000E+01 0. -1.
          4   -1    0    0  501    0  0.00000000000E+00 -0.00000000000E+00 -0.26947019570E+02  0.26976930213E+02  0.12700000000E+01 0. -1.
    9000005    1    1    2    0    0  0.60703530296E+02 -0.14410181787E+02  0.65304241312E+02  0.90322842420E+02  0.10000000000E+01 0.  0.
    9000005    1    1    2    0    0 -0.60703530296E+02  0.14410181787E+02  0.52881974312E+02  0.81792879499E+02  0.10000000000E+01 0.  0.
<mgrwt>
<rscale>  0 0.12512330E+03</rscale>
<asrwt>0</asrwt>
<pdfrwt beam="2">  1        4 0.41484235E-02 0.12512330E+03</pdfrwt>
<pdfrwt beam="1">  1       -4 0.22330919E-01 0.12512330E+03</pdfrwt>
<totfact> 0.94793231E+03</totfact>
</mgrwt>
</event>
<event>
 5    1  0.3273105E-002  0.1249982E+03  0.7818608E-02  0.1235072E+00
         -4   -1    0    0    0  501 -0.00000000000E+00  0.00000000000E+00  0.10584488560E+03  0.10585250450E+03  0.12700000000E+01 0. -1.
          4   -1    0    0  501    0  0.00000000000E+00 -0.00000000000E+00 -0.36884485716E+02  0.36906343446E+02  0.12700000000E+01 0. -1.
         25    2    1    2    0    0  0.00000000000E+00  0.00000000000E+00  0.68960399889E+02  0.14275884794E+03  0.12499820764E+03 0.  0.
    9000005    1    3    3    0    0 -0.39987168594E+02  0.30101918715E+02  0.77213780918E+02  0.92022101292E+02  0.10000000000E+01 0.  0.
    9000005    1    3    3    0    0  0.39987168594E+02 -0.30101918715E+02 -0.82533810297E+01  0.50736746653E+02  0.10000000000E+01 0.  0.
<mgrwt>
<rscale>  0 0.12499821E+03</rscale>
<asrwt>0</asrwt>
<pdfrwt beam="2">  1        4 0.56768038E-02 0.12499821E+03</pdfrwt>
<pdfrwt beam="1">  1       -4 0.16286096E-01 0.12499821E+03</pdfrwt>
<totfact> 0.10077131E+04</totfact>
</mgrwt>
</event>
<event>
 5    1  0.3273105E-002  0.1250005E+03  0.7818608E-02  0.1235068E+00
          4   -1    0    0  501    0  0.00000000000E+00  0.00000000000E+00  0.32431345984E+03  0.32431594647E+03  0.12700000000E+01 0. -1.
         -4   -1    0    0    0  501 -0.00000000000E+00 -0.00000000000E+00 -0.12008754931E+02  0.12075723373E+02  0.12700000000E+01 0. -1.
         25    2    1    2    0    0  0.00000000000E+00  0.00000000000E+00  0.31230470491E+03  0.33639166984E+03  0.12500050732E+03 0.  0.
    9000005    1    3    3    0    0  0.30703081177E+02 -0.54267280295E+02  0.14484169477E+03  0.15769506475E+03  0.10000000000E+01 0.  0.
    9000005    1    3    3    0    0 -0.30703081177E+02  0.54267280295E+02  0.16746301014E+03  0.17869660509E+03  0.10000000000E+01 0.  0.
<mgrwt>
<rscale>  0 0.12500051E+03</rscale>
<asrwt>0</asrwt>
<pdfrwt beam="1">  1        4 0.49899719E-01 0.12500051E+03</pdfrwt>
<pdfrwt beam="2">  1       -4 0.18528435E-02 0.12500051E+03</pdfrwt>
<totfact> 0.71247248E+03</totfact>
</mgrwt>
</event>
<event>
 5    1  0.3273105E-002  0.1250027E+03  0.7818608E-02  0.1235065E+00
         -4   -1    0    0    0  501 -0.00000000000E+00  0.00000000000E+00  0.17879420685E+03  0.17879871729E+03  0.12700000000E+01 0.  1.
          4   -1    0    0  501    0  0.00000000000E+00 -0.00000000000E+00 -0.21825457609E+02  0.21862376354E+02  0.12700000000E+01 0.  1.
         25    2    1    2    0    0  0.00000000000E+00  0.00000000000E+00  0.15696874925E+03  0.20066109364E+03  0.12500274502E+03 0.  0.
    9000005    1    3    3    0    0 -0.25336113535E+02  0.11512141851E+02 -0.11337749525E+02  0.30066470085E+02  0.10000000000E+01 0.  0.
    9000005    1    3    3    0    0  0.25336113535E+02 -0.11512141851E+02  0.16830649877E+03  0.17059462356E+03  0.10000000000E+01 0.  0.
<mgrwt>
<rscale>  0 0.12500275E+03</rscale>
<asrwt>0</asrwt>
<pdfrwt beam="2">  1        4 0.33609494E-02 0.12500275E+03</pdfrwt>
<pdfrwt beam="1">  1       -4 0.27509990E-01 0.12500275E+03</pdfrwt>
<totfact> 0.90018596E+03</totfact>
</mgrwt>
</event>
<event>
 5    1  0.3273105E-002  0.1249907E+03  0.7818608E-02  0.1235084E+00
          4   -1    0    0  501    0  0.00000000000E+00  0.00000000000E+00  0.24651573307E+03  0.24651900444E+03  0.12700000000E+01 0.  1.
         -4   -1    0    0    0  501 -0.00000000000E+00 -0.00000000000E+00 -0.15814655817E+02  0.15865567705E+02  0.12700000000E+01 0.  1.
         25    2    1    2    0    0  0.00000000000E+00  0.00000000000E+00  0.23070107725E+03  0.26238457214E+03  0.12499070627E+03 0.  0.
    9000005    1    3    3    0    0 -0.32733102547E+02 -0.37879230240E+02  0.19385109261E+03  0.20021373128E+03  0.10000000000E+01 0.  0.
    9000005    1    3    3    0    0  0.32733102547E+02  0.37879230240E+02  0.36849984637E+02  0.62170840864E+02  0.10000000000E+01 0.  0.
<mgrwt>
<rscale>  0 0.12499071E+03</rscale>
<asrwt>0</asrwt>
<pdfrwt beam="1">  1        4 0.37929664E-01 0.12499071E+03</pdfrwt>
<pdfrwt beam="2">  1       -4 0.24371920E-02 0.12499071E+03</pdfrwt>
<totfact> 0.80589248E+03</totfact>
</mgrwt>
</event>
<event>
 5    1  0.3273105E-002  0.1250096E+03  0.7818608E-02  0.1235054E+00
          4   -1    0    0  501    0  0.00000000000E+00  0.00000000000E+00  0.21068397825E+03  0.21068780598E+03  0.12700000000E+01 0.  1.
         -4   -1    0    0    0  501 -0.00000000000E+00 -0.00000000000E+00 -0.18517906485E+02  0.18561405135E+02  0.12700000000E+01 0.  1.
         25    2    1    2    0    0  0.00000000000E+00  0.00000000000E+00  0.19216607176E+03  0.22924921112E+03  0.12500960628E+03 0.  0.
    9000005    1    3    3    0    0 -0.24896997640E+02 -0.44360237712E+02  0.29502329153E+02  0.58813932080E+02  0.10000000000E+01 0.  0.
    9000005    1    3    3    0    0  0.24896997640E+02  0.44360237712E+02  0.16266374261E+03  0.17043527904E+03  0.10000000000E+01 0.  0.
<mgrwt>
<rscale>  0 0.12500961E+03</rscale>
<asrwt>0</asrwt>
<pdfrwt beam="1">  1        4 0.32416560E-01 0.12500961E+03</pdfrwt>
<pdfrwt beam="2">  1       -4 0.28525492E-02 0.12500961E+03</pdfrwt>
<totfact> 0.85406706E+03</totfact>
</mgrwt>
</event>
<event>
 5    1  0.3273105E-002  0.1250011E+03  0.7818608E-02  0.1235068E+00
          4   -1    0    0  501    0  0.00000000000E+00  0.00000000000E+00  0.77641350781E+02  0.77651736949E+02  0.12700000000E+01 0.  1.
         -4   -1    0    0    0  501 -0.00000000000E+00 -0.00000000000E+00 -0.50290595795E+02  0.50306629040E+02  0.12700000000E+01 0.  1.
         25    2    1    2    0    0  0.00000000000E+00  0.00000000000E+00  0.27350754986E+02  0.12795836599E+03  0.12500111851E+03 0.  0.
    9000005    1    3    3    0    0 -0.21161781269E+02 -0.58091608090E+02  0.43570556283E+01  0.61987416874E+02  0.10000000000E+01 0.  0.
    9000005    1    3    3    0    0  0.21161781269E+02  0.58091608090E+02  0.22993699358E+02  0.65970949115E+02  0.10000000000E+01 0.  0.
<mgrwt>
<rscale>  0 0.12500112E+03</rscale>
<asrwt>0</asrwt>
<pdfrwt beam="1">  1        4 0.11946855E-01 0.12500112E+03</pdfrwt>
<pdfrwt beam="2">  1       -4 0.77390470E-02 0.12500112E+03</pdfrwt>
<totfact> 0.10388124E+04</totfact>
</mgrwt>
</event>
<event>
 5    1  0.3273105E-002  0.1249986E+03  0.7818608E-02  0.1235071E+00
          4   -1    0    0  501    0  0.00000000000E+00  0.00000000000E+00  0.16292994094E+03  0.16293489053E+03  0.12700000000E+01 0.  1.
         -4   -1    0    0    0  501 -0.00000000000E+00 -0.00000000000E+00 -0.23952365246E+02  0.23986010524E+02  0.12700000000E+01 0.  1.
         25    2    1    2    0    0  0.00000000000E+00  0.00000000000E+00  0.13897757569E+03  0.18692090106E+03  0.12499862682E+03 0.  0.
    9000005    1    3    3    0    0  0.24948924546E+02 -0.23416787987E+02 -0.87066138452E+01  0.35321380498E+02  0.10000000000E+01 0.  0.
    9000005    1    3    3    0    0 -0.24948924546E+02  0.23416787987E+02  0.14768418954E+03  0.15159952056E+03  0.10000000000E+01 0.  0.
<mgrwt>
<rscale>  0 0.12499863E+03</rscale>
<asrwt>0</asrwt>
<pdfrwt beam="1">  1        4 0.25069114E-01 0.12499863E+03</pdfrwt>
<pdfrwt beam="2">  1       -4 0.36879480E-02 0.12499863E+03</pdfrwt>
<totfact> 0.92388686E+03</totfact>
</mgrwt>
</event>
<event>
 5    1  0.3273105E-002  0.1250011E+03  0.7818608E-02  0.1235068E+00
         -4   -1    0    0    0  501 -0.00000000000E+00  0.00000000000E+00  0.18777421592E+02  0.18820320445E+02  0.12700000000E+01 0. -1.
          4   -1    0    0  501    0  0.00000000000E+00 -0.00000000000E+00 -0.20775046148E+03  0.20775434326E+03  0.12700000000E+01 0. -1.
         25    2    1    2    0    0  0.00000000000E+00  0.00000000000E+00 -0.18897303989E+03  0.22657466371E+03  0.12500107372E+03 0.  0.
    9000005    1    3    3    0    0 -0.38627621333E+01 -0.58729814924E+01  0.18067425143E+02  0.19412488100E+02  0.10000000000E+01 0.  0.
    9000005    1    3    3    0    0  0.38627621333E+01  0.58729814924E+01 -0.20704046503E+03  0.20716217561E+03  0.10000000000E+01 0.  0.
<mgrwt>
<rscale>  0 0.12500107E+03</rscale>
<asrwt>0</asrwt>
<pdfrwt beam="2">  1        4 0.31965207E-01 0.12500107E+03</pdfrwt>
<pdfrwt beam="1">  1       -4 0.28924327E-02 0.12500107E+03</pdfrwt>
<totfact> 0.85836294E+03</totfact>
</mgrwt>
</event>
<event>
 5    1  0.3273105E-002  0.1250015E+03  0.7818608E-02  0.1235067E+00
         -4   -1    0    0    0  501 -0.00000000000E+00  0.00000000000E+00  0.26639658102E+02  0.26669913457E+02  0.12700000000E+01 0.  1.
          4   -1    0    0  501    0  0.00000000000E+00 -0.00000000000E+00 -0.14652010816E+03  0.14652561208E+03  0.12700000000E+01 0.  1.
         25    2    1    2    0    0  0.00000000000E+00  0.00000000000E+00 -0.11988045006E+03  0.17319552554E+03  0.12500147103E+03 0.  0.
    9000005    1    3    3    0    0  0.11663823945E+02  0.39696878117E+02 -0.12483144072E+03  0.13151340432E+03  0.10000000000E+01 0.  0.
    9000005    1    3    3    0    0 -0.11663823945E+02 -0.39696878117E+02  0.49509906629E+01  0.41682121225E+02  0.10000000000E+01 0.  0.
<mgrwt>
<rscale>  0 0.12500147E+03</rscale>
<asrwt>0</asrwt>
<pdfrwt beam="2">  1        4 0.22544305E-01 0.12500147E+03</pdfrwt>
<pdfrwt beam="1">  1       -4 0.41011597E-02 0.12500147E+03</pdfrwt>
<totfact> 0.94853238E+03</totfact>
</mgrwt>
</event>
<event>
 5    1  0.3273105E-002  0.1249972E+03  0.7818608E-02  0.1235074E+00
         -4   -1    0    0    0  501 -0.00000000000E+00  0.00000000000E+00  0.26309113439E+02  0.26339748480E+02  0.12700000000E+01 0.  1.
          4   -1    0    0  501    0  0.00000000000E+00 -0.00000000000E+00 -0.14834888291E+03  0.14835431898E+03  0.12700000000E+01 0.  1.
         25    2    1    2    0    0  0.00000000000E+00  0.00000000000E+00 -0.12203976947E+03  0.17469406746E+03  0.12499724746E+03 0.  0.
    9000005    1    3    3    0    0  0.47509483124E+02 -0.34002900244E+02 -0.92011267375E+02  0.10899734646E+03  0.10000000000E+01 0.  0.
    9000005    1    3    3    0    0 -0.47509483124E+02  0.34002900244E+02 -0.30028502091E+02  0.65696720995E+02  0.10000000000E+01 0.  0.
<mgrwt>
<rscale>  0 0.12499725E+03</rscale>
<asrwt>0</asrwt>
<pdfrwt beam="2">  1        4 0.22825679E-01 0.12499725E+03</pdfrwt>
<pdfrwt beam="1">  1       -4 0.40503307E-02 0.12499725E+03</pdfrwt>
<totfact> 0.94586742E+03</totfact>
</mgrwt>
</event>
<event>
 4    1  0.3273105E-002  0.1250961E+03  0.7818608E-02  0.1234919E+00
          4   -1    0    0  501    0  0.00000000000E+00  0.00000000000E+00  0.34749537598E+02  0.34772737356E+02  0.12700000000E+01 0. -1.
         -4   -1    0    0    0  501 -0.00000000000E+00 -0.00000000000E+00 -0.11252017701E+03  0.11252734394E+03  0.12700000000E+01 0. -1.
    9000005    1    1    2    0    0  0.14436282296E+01 -0.32802948415E+02  0.23789537784E+02  0.40559334255E+02  0.10000000000E+01 0.  0.
    9000005    1    1    2    0    0 -0.14436282296E+01  0.32802948415E+02 -0.10156017720E+03  0.10674074705E+03  0.10000000000E+01 0.  0.
<mgrwt>
<rscale>  0 0.12509613E+03</rscale>
<asrwt>0</asrwt>
<pdfrwt beam="1">  1        4 0.53484187E-02 0.12509613E+03</pdfrwt>
<pdfrwt beam="2">  1       -4 0.17313132E-01 0.12509613E+03</pdfrwt>
<totfact> 0.99628869E+03</totfact>
</mgrwt>
</event>
<event>
 5    1  0.3273105E-002  0.1249979E+03  0.7818608E-02  0.1235073E+00
          4   -1    0    0  501    0  0.00000000000E+00  0.00000000000E+00  0.74551145128E+03  0.74551253302E+03  0.12700000000E+01 0. -1.
         -4   -1    0    0    0  501 -0.00000000000E+00 -0.00000000000E+00 -0.51614526139E+01  0.53154014981E+01  0.12700000000E+01 0. -1.
         25    2    1    2    0    0  0.00000000000E+00  0.00000000000E+00  0.74034999867E+03  0.75082793452E+03  0.12499786689E+03 0.  0.
    9000005    1    3    3    0    0 -0.20622056123E+02 -0.91946199723E+01  0.20167532493E+02  0.30290916164E+02  0.10000000000E+01 0.  0.
    9000005    1    3    3    0    0  0.20622056123E+02  0.91946199723E+01  0.72018246618E+03  0.72053701836E+03  0.10000000000E+01 0.  0.
<mgrwt>
<rscale>  0 0.12499787E+03</rscale>
<asrwt>0</asrwt>
<pdfrwt beam="1">  1        4 0.11470604E+00 0.12499787E+03</pdfrwt>
<pdfrwt beam="2">  1       -4 0.80599475E-03 0.12499787E+03</pdfrwt>
<totfact> 0.40536442E+03</totfact>
</mgrwt>
</event>
<event>
 5    1  0.3273105E-002  0.1250011E+03  0.7818608E-02  0.1235067E+00
          4   -1    0    0  501    0  0.00000000000E+00  0.00000000000E+00  0.25236114778E+02  0.25268050758E+02  0.12700000000E+01 0. -1.
         -4   -1    0    0    0  501 -0.00000000000E+00 -0.00000000000E+00 -0.15465850116E+03  0.15466371546E+03  0.12700000000E+01 0. -1.
         25    2    1    2    0    0  0.00000000000E+00  0.00000000000E+00 -0.12942238638E+03  0.17993176622E+03  0.12500114559E+03 0.  0.
    9000005    1    3    3    0    0  0.57117188898E+02  0.20192699350E+02 -0.42635442232E+02  0.74087106226E+02  0.10000000000E+01 0.  0.
    9000005    1    3    3    0    0 -0.57117188898E+02 -0.20192699350E+02 -0.86786944149E+02  0.10584465999E+03  0.10000000000E+01 0.  0.
<mgrwt>
<rscale>  0 0.12500115E+03</rscale>
<asrwt>0</asrwt>
<pdfrwt beam="1">  1        4 0.38853370E-02 0.12500115E+03</pdfrwt>
<pdfrwt beam="2">  1       -4 0.23796473E-01 0.12500115E+03</pdfrwt>
<totfact> 0.93626882E+03</totfact>
</mgrwt>
</event>
<event>
 5    1  0.3273105E-002  0.1249965E+03  0.7818608E-02  0.1235075E+00
          4   -1    0    0  501    0  0.00000000000E+00  0.00000000000E+00  0.10404017120E+03  0.10404792224E+03  0.12700000000E+01 0. -1.
         -4   -1    0    0    0  501 -0.00000000000E+00 -0.00000000000E+00 -0.37523619915E+02  0.37545105560E+02  0.12700000000E+01 0. -1.
         25    2    1    2    0    0  0.00000000000E+00  0.00000000000E+00  0.66516551284E+02  0.14159302780E+03  0.12499653566E+03 0.  0.
    9000005    1    3    3    0    0 -0.53274647308E+02  0.31315969414E+02  0.43772697203E+02  0.75735903022E+02  0.10000000000E+01 0.  0.
    9000005    1    3    3    0    0  0.53274647308E+02 -0.31315969414E+02  0.22743854081E+02  0.65857124782E+02  0.10000000000E+01 0.  0.
<mgrwt>
<rscale>  0 0.12499654E+03</rscale>
<asrwt>0</asrwt>
<pdfrwt beam="1">  1        4 0.16008429E-01 0.12499654E+03</pdfrwt>
<pdfrwt beam="2">  1       -4 0.57751136E-02 0.12499654E+03</pdfrwt>
<totfact> 0.10101464E+04</totfact>
</mgrwt>
</event>
<event>
 5    1  0.3273105E-002  0.1250037E+03  0.7818608E-02  0.1235064E+00
          4   -1    0    0  501    0  0.00000000000E+00  0.00000000000E+00  0.78534408640E+02  0.78544676716E+02  0.12700000000E+01 0. -1.
         -4   -1    0    0    0  501 -0.00000000000E+00 -0.00000000000E+00 -0.49720622198E+02  0.49736839181E+02  0.12700000000E+01 0. -1.
         25    2    1    2    0    0  0.00000000000E+00  0.00000000000E+00  0.28813786442E+02  0.12828151590E+03  0.12500365207E+03 0.  0.
    9000005    1    3    3    0    0 -0.31631051156E+02 -0.29998300503E+02  0.60358925668E+02  0.74462214164E+02  0.10000000000E+01 0.  0.
    9000005    1    3    3    0    0  0.31631051156E+02  0.29998300503E+02 -0.31545139226E+02  0.53819301734E+02  0.10000000000E+01 0.  0.
<mgrwt>
<rscale>  0 0.12500365E+03</rscale>
<asrwt>0</asrwt>
<pdfrwt beam="1">  1        4 0.12084254E-01 0.12500365E+03</pdfrwt>
<pdfrwt beam="2">  1       -4 0.76513638E-02 0.12500365E+03</pdfrwt>
<totfact> 0.10380557E+04</totfact>
</mgrwt>
</event>
<event>
 5    1  0.3273105E-002  0.1250136E+03  0.7818608E-02  0.1235048E+00
         -4   -1    0    0    0  501 -0.00000000000E+00  0.00000000000E+00  0.11601180526E+03  0.11601875650E+03  0.12700000000E+01 0. -1.
          4   -1    0    0  501    0  0.00000000000E+00 -0.00000000000E+00 -0.33658510718E+02  0.33682461961E+02  0.12700000000E+01 0. -1.
         25    2    1    2    0    0  0.00000000000E+00  0.00000000000E+00  0.82353294540E+02  0.14970121846E+03  0.12501355801E+03 0.  0.
    9000005    1    3    3    0    0 -0.55393468841E+02  0.13939981666E+02  0.10803639428E+02  0.58141879089E+02  0.10000000000E+01 0.  0.
    9000005    1    3    3    0    0  0.55393468841E+02 -0.13939981666E+02  0.71549655112E+02  0.91559339369E+02  0.10000000000E+01 0.  0.
<mgrwt>
<rscale>  0 0.12501356E+03</rscale>
<asrwt>0</asrwt>
<pdfrwt beam="2">  1        4 0.51806096E-02 0.12501356E+03</pdfrwt>
<pdfrwt beam="1">  1       -4 0.17850347E-01 0.12501356E+03</pdfrwt>
<totfact> 0.99332975E+03</totfact>
</mgrwt>
</event>
<event>
 5    1  0.3273105E-002  0.1250021E+03  0.7818608E-02  0.1235066E+00
         -4   -1    0    0    0  501 -0.00000000000E+00  0.00000000000E+00  0.96748738481E+02  0.96757073631E+02  0.12700000000E+01 0.  1.
          4   -1    0    0  501    0  0.00000000000E+00 -0.00000000000E+00 -0.40356464023E+02  0.40376442246E+02  0.12700000000E+01 0.  1.
         25    2    1    2    0    0  0.00000000000E+00  0.00000000000E+00  0.56392274458E+02  0.13713351588E+03  0.12500205022E+03 0.  0.
    9000005    1    3    3    0    0 -0.39642862400E+02  0.18423473781E+02 -0.20796667667E+02  0.48419854517E+02  0.10000000000E+01 0.  0.
    9000005    1    3    3    0    0  0.39642862400E+02 -0.18423473781E+02  0.77188942124E+02  0.88713661359E+02  0.10000000000E+01 0.  0.
<mgrwt>
<rscale>  0 0.12500205E+03</rscale>
<asrwt>0</asrwt>
<pdfrwt beam="2">  1        4 0.62108647E-02 0.12500205E+03</pdfrwt>
<pdfrwt beam="1">  1       -4 0.14886599E-01 0.12500205E+03</pdfrwt>
<totfact> 0.10192824E+04</totfact>
</mgrwt>
</event>
<event>
 5    1  0.3273105E-002  0.1250037E+03  0.7818608E-02  0.1235063E+00
          4   -1    0    0  501    0  0.00000000000E+00  0.00000000000E+00  0.69775529240E+03  0.69775644818E+03  0.12700000000E+01 0. -1.
         -4   -1    0    0    0  501 -0.00000000000E+00 -0.00000000000E+00 -0.55254473125E+01  0.56695209677E+01  0.12700000000E+01 0. -1.
         25    2    1    2    0    0  0.00000000000E+00  0.00000000000E+00  0.69222984509E+03  0.70342596915E+03  0.12500374249E+03 0.  0.
    9000005    1    3    3    0    0  0.27759551031E+02  0.46128368627E+02  0.52469133735E+03  0.52744707655E+03  0.10000000000E+01 0.  0.
    9000005    1    3    3    0    0 -0.27759551031E+02 -0.46128368627E+02  0.16753850774E+03  0.17597889260E+03  0.10000000000E+01 0.  0.
<mgrwt>
<rscale>  0 0.12500374E+03</rscale>
<asrwt>0</asrwt>
<pdfrwt beam="1">  1        4 0.10735813E+00 0.12500374E+03</pdfrwt>
<pdfrwt beam="2">  1       -4 0.86124040E-03 0.12500374E+03</pdfrwt>
<totfact> 0.42902947E+03</totfact>
</mgrwt>
</event>
<event>
 5    1  0.3273105E-002  0.1250003E+03  0.7818608E-02  0.1235069E+00
          4   -1    0    0  501    0  0.00000000000E+00  0.00000000000E+00  0.14355953530E+02  0.14412019350E+02  0.12700000000E+01 0.  1.
         -4   -1    0    0    0  501 -0.00000000000E+00 -0.00000000000E+00 -0.27151294921E+03  0.27151591940E+03  0.12700000000E+01 0.  1.
         25    2    1    2    0    0  0.00000000000E+00  0.00000000000E+00 -0.25715699568E+03  0.28592793875E+03  0.12500026293E+03 0.  0.
    9000005    1    3    3    0    0 -0.21268387723E+02  0.52708707823E+02 -0.69162197827E+02  0.89526319063E+02  0.10000000000E+01 0.  0.
    9000005    1    3    3    0    0  0.21268387723E+02 -0.52708707823E+02 -0.18799479785E+03  0.19640161969E+03  0.10000000000E+01 0.  0.
<mgrwt>
<rscale>  0 0.12500026E+03</rscale>
<asrwt>0</asrwt>
<pdfrwt beam="1">  1        4 0.22131497E-02 0.12500026E+03</pdfrwt>
<pdfrwt beam="2">  1       -4 0.41775760E-01 0.12500026E+03</pdfrwt>
<totfact> 0.77398162E+03</totfact>
</mgrwt>
</event>
<event>
 5    1  0.3273105E-002  0.1249978E+03  0.7818608E-02  0.1235073E+00
          4   -1    0    0  501    0  0.00000000000E+00  0.00000000000E+00  0.87322635061E+02  0.87331869864E+02  0.12700000000E+01 0. -1.
         -4   -1    0    0    0  501 -0.00000000000E+00 -0.00000000000E+00 -0.44711375007E+02  0.44729408167E+02  0.12700000000E+01 0. -1.
         25    2    1    2    0    0  0.00000000000E+00  0.00000000000E+00  0.42611260055E+02  0.13206127803E+03  0.12499784667E+03 0.  0.
    9000005    1    3    3    0    0  0.17376886741E+01 -0.62128013519E+02  0.28169341085E+02  0.68245303156E+02  0.10000000000E+01 0.  0.
    9000005    1    3    3    0    0 -0.17376886741E+01  0.62128013519E+02  0.14441918970E+02  0.63815974875E+02  0.10000000000E+01 0.  0.
<mgrwt>
<rscale>  0 0.12499785E+03</rscale>
<asrwt>0</asrwt>
<pdfrwt beam="1">  1        4 0.13436349E-01 0.12499785E+03</pdfrwt>
<pdfrwt beam="2">  1       -4 0.68807706E-02 0.12499785E+03</pdfrwt>
<totfact> 0.10300891E+04</totfact>
</mgrwt>
</event>
<event>
 5    1  0.3273105E-002  0.1250041E+03  0.7818608E-02  0.1235063E+00
          4   -1    0    0  501    0  0.00000000000E+00  0.00000000000E+00  0.81182001558E+02  0.81191934802E+02  0.12700000000E+01 0.  1.
         -4   -1    0    0    0  501 -0.00000000000E+00 -0.00000000000E+00 -0.48099067570E+02  0.48115831086E+02  0.12700000000E+01 0.  1.
         25    2    1    2    0    0  0.00000000000E+00  0.00000000000E+00  0.33082933988E+02  0.12930776589E+03  0.12500407112E+03 0.  0.
    9000005    1    3    3    0    0  0.24596001340E+02 -0.33401315261E+02 -0.31810658298E+02  0.52283162916E+02  0.10000000000E+01 0.  0.
    9000005    1    3    3    0    0 -0.24596001340E+02  0.33401315261E+02  0.64893592287E+02  0.77024602972E+02  0.10000000000E+01 0.  0.
<mgrwt>
<rscale>  0 0.12500407E+03</rscale>
<asrwt>0</asrwt>
<pdfrwt beam="1">  1        4 0.12491592E-01 0.12500407E+03</pdfrwt>
<pdfrwt beam="2">  1       -4 0.74019102E-02 0.12500407E+03</pdfrwt>
<totfact> 0.10358386E+04</totfact>
</mgrwt>
</event>
<event>
 5    1  0.3273105E-002  0.1249878E+03  0.7818608E-02  0.1235088E+00
         -4   -1    0    0    0  501 -0.00000000000E+00  0.00000000000E+00  0.34323253405E+02  0.34346741102E+02  0.12700000000E+01 0. -1.
          4   -1    0    0  501    0  0.00000000000E+00 -0.00000000000E+00 -0.11371955320E+03  0.11372664454E+03  0.12700000000E+01 0. -1.
         25    2    1    2    0    0  0.00000000000E+00  0.00000000000E+00 -0.79396299792E+02  0.14807338565E+03  0.12498781987E+03 0.  0.
    9000005    1    3    3    0    0  0.60250626320E+02  0.16054546854E+02 -0.34870965767E+02  0.71448377869E+02  0.10000000000E+01 0.  0.
    9000005    1    3    3    0    0 -0.60250626320E+02 -0.16054546854E+02 -0.44525334025E+02  0.76625007776E+02  0.10000000000E+01 0.  0.
<mgrwt>
<rscale>  0 0.12498782E+03</rscale>
<asrwt>0</asrwt>
<pdfrwt beam="2">  1        4 0.17497668E-01 0.12498782E+03</pdfrwt>
<pdfrwt beam="1">  1       -4 0.52828528E-02 0.12498782E+03</pdfrwt>
<totfact> 0.99716472E+03</totfact>
</mgrwt>
</event>
<event>
 5    1  0.3273105E-002  0.1249979E+03  0.7818608E-02  0.1235073E+00
         -4   -1    0    0    0  501 -0.00000000000E+00  0.00000000000E+00  0.10276256920E+02  0.10354436551E+02  0.12700000000E+01 0.  1.
          4   -1    0    0  501    0  0.00000000000E+00 -0.00000000000E+00 -0.37859123715E+03  0.37859336728E+03  0.12700000000E+01 0.  1.
         25    2    1    2    0    0  0.00000000000E+00  0.00000000000E+00 -0.36831498023E+03  0.38894780383E+03  0.12499787775E+03 0.  0.
    9000005    1    3    3    0    0  0.13132906725E+02 -0.13478755297E+02 -0.36957981377E+03  0.37005998005E+03  0.10000000000E+01 0.  0.
    9000005    1    3    3    0    0 -0.13132906725E+02  0.13478755297E+02  0.12648335406E+01  0.18887823784E+02  0.10000000000E+01 0.  0.
<mgrwt>
<rscale>  0 0.12499788E+03</rscale>
<asrwt>0</asrwt>
<pdfrwt beam="2">  1        4 0.58250973E-01 0.12499788E+03</pdfrwt>
<pdfrwt beam="1">  1       -4 0.15871406E-02 0.12499788E+03</pdfrwt>
<totfact> 0.65645178E+03</totfact>
</mgrwt>
</event>
<event>
 5    1  0.3273105E-002  0.1250016E+03  0.7818608E-02  0.1235067E+00
         -4   -1    0    0    0  501 -0.00000000000E+00  0.00000000000E+00  0.38055750385E+02  0.38076935767E+02  0.12700000000E+01 0.  1.
          4   -1    0    0  501    0  0.00000000000E+00 -0.00000000000E+00 -0.10259433443E+03  0.10260219470E+03  0.12700000000E+01 0.  1.
         25    2    1    2    0    0  0.00000000000E+00  0.00000000000E+00 -0.64538584047E+02  0.14067913047E+03  0.12500155566E+03 0.  0.
    9000005    1    3    3    0    0  0.39898883495E+02  0.34005389312E+02 -0.70551075653E+02  0.87901886682E+02  0.10000000000E+01 0.  0.
    9000005    1    3    3    0    0 -0.39898883495E+02 -0.34005389312E+02  0.60124916065E+01  0.52777243787E+02  0.10000000000E+01 0.  0.
<mgrwt>
<rscale>  0 0.12500156E+03</rscale>
<asrwt>0</asrwt>
<pdfrwt beam="2">  1        4 0.15785978E-01 0.12500156E+03</pdfrwt>
<pdfrwt beam="1">  1       -4 0.58569651E-02 0.12500156E+03</pdfrwt>
<totfact> 0.10119175E+04</totfact>
</mgrwt>
</event>
<event>
 5    1  0.3273105E-002  0.1250135E+03  0.7818608E-02  0.1235048E+00
         -4   -1    0    0    0  501 -0.00000000000E+00  0.00000000000E+00  0.14017323845E+02  0.14074738640E+02  0.12700000000E+01 0.  1.
          4   -1    0    0  501    0  0.00000000000E+00 -0.00000000000E+00 -0.27810488561E+03  0.27810778540E+03  0.12700000000E+01 0.  1.
         25    2    1    2    0    0  0.00000000000E+00  0.00000000000E+00 -0.26408756177E+03  0.29218252404E+03  0.12501354757E+03 0.  0.
    9000005    1    3    3    0    0  0.14485005809E+02  0.67750816258E+00 -0.27413024315E+03  0.27451532675E+03  0.10000000000E+01 0.  0.
    9000005    1    3    3    0    0 -0.14485005809E+02 -0.67750816258E+00  0.10042681387E+02  0.17667197289E+02  0.10000000000E+01 0.  0.
<mgrwt>
<rscale>  0 0.12501355E+03</rscale>
<asrwt>0</asrwt>
<pdfrwt beam="2">  1        4 0.42790002E-01 0.12501355E+03</pdfrwt>
<pdfrwt beam="1">  1       -4 0.21611512E-02 0.12501355E+03</pdfrwt>
<totfact> 0.76566991E+03</totfact>
</mgrwt>
</event>
<event>
 5    1  0.3273105E-002  0.1250016E+03  0.7818608E-02  0.1235067E+00
          4   -1    0    0  501    0  0.00000000000E+00  0.00000000000E+00  0.18984096475E+02  0.19026529346E+02  0.12700000000E+01 0.  1.
         -4   -1    0    0    0  501 -0.00000000000E+00 -0.00000000000E+00 -0.20549548738E+03  0.20549941176E+03  0.12700000000E+01 0.  1.
         25    2    1    2    0    0  0.00000000000E+00  0.00000000000E+00 -0.18651139091E+03  0.22452594111E+03  0.12500159716E+03 0.  0.
    9000005    1    3    3    0    0 -0.16851328367E+02 -0.51648945654E+02 -0.37783857273E+02  0.66183084888E+02  0.10000000000E+01 0.  0.
    9000005    1    3    3    0    0  0.16851328367E+02  0.51648945654E+02 -0.14872753363E+03  0.15834285622E+03  0.10000000000E+01 0.  0.
<mgrwt>
<rscale>  0 0.12500160E+03</rscale>
<asrwt>0</asrwt>
<pdfrwt beam="1">  1        4 0.29241963E-02 0.12500160E+03</pdfrwt>
<pdfrwt beam="2">  1       -4 0.31618255E-01 0.12500160E+03</pdfrwt>
<totfact> 0.86154135E+03</totfact>
</mgrwt>
</event>
<event>
 5    1  0.3273105E-002  0.1250145E+03  0.7818608E-02  0.1235047E+00
          4   -1    0    0  501    0  0.00000000000E+00  0.00000000000E+00  0.43443158273E+03  0.43443343906E+03  0.12700000000E+01 0.  1.
         -4   -1    0    0    0  501 -0.00000000000E+00 -0.00000000000E+00 -0.89470088413E+01  0.90366955911E+01  0.12700000000E+01 0.  1.
         25    2    1    2    0    0  0.00000000000E+00  0.00000000000E+00  0.42548457389E+03  0.44347013466E+03  0.12501454999E+03 0.  0.
    9000005    1    3    3    0    0  0.22113560813E+02 -0.58045927727E+02  0.18821162926E+03  0.19819928529E+03  0.10000000000E+01 0.  0.
    9000005    1    3    3    0    0 -0.22113560813E+02  0.58045927727E+02  0.23727294463E+03  0.24527084937E+03  0.10000000000E+01 0.  0.
<mgrwt>
<rscale>  0 0.12501455E+03</rscale>
<asrwt>0</asrwt>
<pdfrwt beam="1">  1        4 0.66842682E-01 0.12501455E+03</pdfrwt>
<pdfrwt beam="2">  1       -4 0.13835044E-02 0.12501455E+03</pdfrwt>
<totfact> 0.60514271E+03</totfact>
</mgrwt>
</event>
<event>
 5    1  0.3273105E-002  0.1250059E+03  0.7818608E-02  0.1235060E+00
          4   -1    0    0  501    0  0.00000000000E+00  0.00000000000E+00  0.10201300412E+03  0.10202090918E+03  0.12700000000E+01 0.  1.
         -4   -1    0    0    0  501 -0.00000000000E+00 -0.00000000000E+00 -0.38275381225E+02  0.38296445108E+02  0.12700000000E+01 0.  1.
         25    2    1    2    0    0  0.00000000000E+00  0.00000000000E+00  0.63737622896E+02  0.14031735429E+03  0.12500590123E+03 0.  0.
    9000005    1    3    3    0    0 -0.59505729046E+02  0.16365047200E+02  0.42916734080E+02  0.75177075118E+02  0.10000000000E+01 0.  0.
    9000005    1    3    3    0    0  0.59505729046E+02 -0.16365047200E+02  0.20820888815E+02  0.65140279169E+02  0.10000000000E+01 0.  0.
<mgrwt>
<rscale>  0 0.12500590E+03</rscale>
<asrwt>0</asrwt>
<pdfrwt beam="1">  1        4 0.15696537E-01 0.12500590E+03</pdfrwt>
<pdfrwt beam="2">  1       -4 0.58907486E-02 0.12500590E+03</pdfrwt>
<totfact> 0.10125666E+04</totfact>
</mgrwt>
</event>
<event>
 5    1  0.3273105E-002  0.1250000E+03  0.7818608E-02  0.1235069E+00
         -4   -1    0    0    0  501 -0.00000000000E+00  0.00000000000E+00  0.22311985305E+03  0.22312346745E+03  0.12700000000E+01 0.  1.
          4   -1    0    0  501    0  0.00000000000E+00 -0.00000000000E+00 -0.17480611493E+02  0.17526684745E+02  0.12700000000E+01 0.  1.
         25    2    1    2    0    0  0.00000000000E+00  0.00000000000E+00  0.20563924156E+03  0.24065015220E+03  0.12499999233E+03 0.  0.
    9000005    1    3    3    0    0  0.40535737591E+02  0.31505527257E+02  0.34224471583E+02  0.61709470301E+02  0.10000000000E+01 0.  0.
    9000005    1    3    3    0    0 -0.40535737591E+02 -0.31505527257E+02  0.17141476998E+03  0.17894068189E+03  0.10000000000E+01 0.  0.
<mgrwt>
<rscale>  0 0.12499999E+03</rscale>
<asrwt>0</asrwt>
<pdfrwt beam="2">  1        4 0.26931472E-02 0.12499999E+03</pdfrwt>
<pdfrwt beam="1">  1       -4 0.34329950E-01 0.12499999E+03</pdfrwt>
<totfact> 0.83700650E+03</totfact>
</mgrwt>
</event>
<event>
 5    1  0.3273105E-002  0.1250001E+03  0.7818608E-02  0.1235069E+00
         -4   -1    0    0    0  501 -0.00000000000E+00  0.00000000000E+00  0.46556507412E+02  0.46573826152E+02  0.12700000000E+01 0.  1.
          4   -1    0    0  501    0  0.00000000000E+00 -0.00000000000E+00 -0.83865847641E+02  0.83875463042E+02  0.12700000000E+01 0.  1.
         25    2    1    2    0    0  0.00000000000E+00  0.00000000000E+00 -0.37309340228E+02  0.13044928919E+03  0.12500012073E+03 0.  0.
    9000005    1    3    3    0    0  0.87124521507E+01  0.46610718508E+02  0.23823444484E+02  0.53075629147E+02  0.10000000000E+01 0.  0.
    9000005    1    3    3    0    0 -0.87124521507E+01 -0.46610718508E+02 -0.61132784712E+02  0.77373660046E+02  0.10000000000E+01 0.  0.
<mgrwt>
<rscale>  0 0.12500012E+03</rscale>
<asrwt>0</asrwt>
<pdfrwt beam="2">  1        4 0.12904510E-01 0.12500012E+03</pdfrwt>
<pdfrwt beam="1">  1       -4 0.71646115E-02 0.12500012E+03</pdfrwt>
<totfact> 0.10334877E+04</totfact>
</mgrwt>
</event>
<event>
 5    1  0.3273105E-002  0.1249973E+03  0.7818608E-02  0.1235074E+00
         -4   -1    0    0    0  501 -0.00000000000E+00  0.00000000000E+00  0.11548971612E+03  0.11549669878E+03  0.12700000000E+01 0. -1.
          4   -1    0    0  501    0  0.00000000000E+00 -0.00000000000E+00 -0.33801957473E+02  0.33825807145E+02  0.12700000000E+01 0. -1.
         25    2    1    2    0    0  0.00000000000E+00  0.00000000000E+00  0.81687758646E+02  0.14932250593E+03  0.12499728342E+03 0.  0.
    9000005    1    3    3    0    0 -0.17423770891E+02 -0.37296356827E+02 -0.15321334859E+02  0.43935740878E+02  0.10000000000E+01 0.  0.
    9000005    1    3    3    0    0  0.17423770891E+02  0.37296356827E+02  0.97009093505E+02  0.10538676505E+03  0.10000000000E+01 0.  0.
<mgrwt>
<rscale>  0 0.12499728E+03</rscale>
<asrwt>0</asrwt>
<pdfrwt beam="2">  1        4 0.52026729E-02 0.12499728E+03</pdfrwt>
<pdfrwt beam="1">  1       -4 0.17770020E-01 0.12499728E+03</pdfrwt>
<totfact> 0.99444998E+03</totfact>
</mgrwt>
</event>
<event>
 5    1  0.3273105E-002  0.1250175E+03  0.7818608E-02  0.1235042E+00
          4   -1    0    0  501    0  0.00000000000E+00  0.00000000000E+00  0.12447695185E+03  0.12448343039E+03  0.12700000000E+01 0. -1.
         -4   -1    0    0    0  501 -0.00000000000E+00 -0.00000000000E+00 -0.31369942840E+02  0.31395640044E+02  0.12700000000E+01 0. -1.
         25    2    1    2    0    0  0.00000000000E+00  0.00000000000E+00  0.93107009012E+02  0.15587907044E+03  0.12501747667E+03 0.  0.
    9000005    1    3    3    0    0 -0.51664760402E+02 -0.34982043943E+02  0.51109488068E+02  0.80660837067E+02  0.10000000000E+01 0.  0.
    9000005    1    3    3    0    0  0.51664760402E+02  0.34982043943E+02  0.41997520944E+02  0.75218233370E+02  0.10000000000E+01 0.  0.
<mgrwt>
<rscale>  0 0.12501748E+03</rscale>
<asrwt>0</asrwt>
<pdfrwt beam="1">  1        4 0.19152775E-01 0.12501748E+03</pdfrwt>
<pdfrwt beam="2">  1       -4 0.48286202E-02 0.12501748E+03</pdfrwt>
<totfact> 0.98104641E+03</totfact>
</mgrwt>
</event>
<event>
 5    1  0.3273105E-002  0.1249986E+03  0.7818608E-02  0.1235071E+00
          4   -1    0    0  501    0  0.00000000000E+00  0.00000000000E+00  0.11299824191E+04  0.11299831328E+04  0.12700000000E+01 0.  1.
         -4   -1    0    0    0  501 -0.00000000000E+00 -0.00000000000E+00 -0.33394493396E+01  0.35727890914E+01  0.12700000000E+01 0.  1.
         25    2    1    2    0    0  0.00000000000E+00  0.00000000000E+00  0.11266429698E+04  0.11335559219E+04  0.12499858682E+03 0.  0.
    9000005    1    3    3    0    0  0.49589913698E+02  0.22869463430E+00  0.90815896281E+03  0.90951245927E+03  0.10000000000E+01 0.  0.
    9000005    1    3    3    0    0 -0.49589913698E+02 -0.22869463430E+00  0.21848400700E+03  0.22404346265E+03  0.10000000000E+01 0.  0.
<mgrwt>
<rscale>  0 0.12499859E+03</rscale>
<asrwt>0</asrwt>
<pdfrwt beam="1">  1        4 0.17386138E+00 0.12499859E+03</pdfrwt>
<pdfrwt beam="2">  1       -4 0.53176577E-03 0.12499859E+03</pdfrwt>
<totfact> 0.26521765E+03</totfact>
</mgrwt>
</event>
<event>
 5    1  0.3273105E-002  0.1250001E+03  0.7818608E-02  0.1235069E+00
          4   -1    0    0  501    0  0.00000000000E+00  0.00000000000E+00  0.16884013050E+03  0.16884490684E+03  0.12700000000E+01 0.  1.
         -4   -1    0    0    0  501 -0.00000000000E+00 -0.00000000000E+00 -0.23113294942E+02  0.23148159821E+02  0.12700000000E+01 0.  1.
         25    2    1    2    0    0  0.00000000000E+00  0.00000000000E+00  0.14572683555E+03  0.19199306666E+03  0.12500010818E+03 0.  0.
    9000005    1    3    3    0    0  0.53789026385E+02 -0.22402613708E+02  0.10755398973E+03  0.12232741789E+03  0.10000000000E+01 0.  0.
    9000005    1    3    3    0    0 -0.53789026385E+02  0.22402613708E+02  0.38172845820E+02  0.69665648769E+02  0.10000000000E+01 0.  0.
<mgrwt>
<rscale>  0 0.12500011E+03</rscale>
<asrwt>0</asrwt>
<pdfrwt beam="1">  1        4 0.25978456E-01 0.12500011E+03</pdfrwt>
<pdfrwt beam="2">  1       -4 0.35589407E-02 0.12500011E+03</pdfrwt>
<totfact> 0.91501456E+03</totfact>
</mgrwt>
</event>
<event>
 5    1  0.3273105E-002  0.1250052E+03  0.7818608E-02  0.1235061E+00
         -4   -1    0    0    0  501 -0.00000000000E+00  0.00000000000E+00  0.31541276884E+02  0.31566834613E+02  0.12700000000E+01 0. -1.
          4   -1    0    0  501    0  0.00000000000E+00 -0.00000000000E+00 -0.12377693273E+03  0.12378344791E+03  0.12700000000E+01 0. -1.
         25    2    1    2    0    0  0.00000000000E+00  0.00000000000E+00 -0.92235655845E+02  0.15535028252E+03  0.12500517617E+03 0.  0.
    9000005    1    3    3    0    0 -0.22268524056E+01 -0.62133306107E+02 -0.38251409920E+02  0.73004636566E+02  0.10000000000E+01 0.  0.
    9000005    1    3    3    0    0  0.22268524056E+01  0.62133306107E+02 -0.53984245925E+02  0.82345645953E+02  0.10000000000E+01 0.  0.
<mgrwt>
<rscale>  0 0.12500518E+03</rscale>
<asrwt>0</asrwt>
<pdfrwt beam="2">  1        4 0.19045072E-01 0.12500518E+03</pdfrwt>
<pdfrwt beam="1">  1       -4 0.48549713E-02 0.12500518E+03</pdfrwt>
<totfact> 0.98235342E+03</totfact>
</mgrwt>
</event>
<event>
 5    1  0.3273105E-002  0.1249915E+03  0.7818608E-02  0.1235083E+00
         -4   -1    0    0    0  501 -0.00000000000E+00  0.00000000000E+00  0.40696640505E+02  0.40716451814E+02  0.12700000000E+01 0. -1.
          4   -1    0    0  501    0  0.00000000000E+00 -0.00000000000E+00 -0.95924092876E+02  0.95932499676E+02  0.12700000000E+01 0. -1.
         25    2    1    2    0    0  0.00000000000E+00  0.00000000000E+00 -0.55227452371E+02  0.13664895149E+03  0.12499145750E+03 0.  0.
    9000005    1    3    3    0    0  0.24993041316E+02  0.57231220180E+02 -0.29971593833E+02  0.69277421390E+02  0.10000000000E+01 0.  0.
    9000005    1    3    3    0    0 -0.24993041316E+02 -0.57231220180E+02 -0.25255858538E+02  0.67371530100E+02  0.10000000000E+01 0.  0.
<mgrwt>
<rscale>  0 0.12499146E+03</rscale>
<asrwt>0</asrwt>
<pdfrwt beam="2">  1        4 0.14759723E-01 0.12499146E+03</pdfrwt>
<pdfrwt beam="1">  1       -4 0.62631923E-02 0.12499146E+03</pdfrwt>
<totfact> 0.10205397E+04</totfact>
</mgrwt>
</event>
<event>
 5    1  0.3273105E-002  0.1250014E+03  0.7818608E-02  0.1235067E+00
          4   -1    0    0  501    0  0.00000000000E+00  0.00000000000E+00  0.67025387566E+03  0.67025507886E+03  0.12700000000E+01 0. -1.
         -4   -1    0    0    0  501 -0.00000000000E+00 -0.00000000000E+00 -0.57577345363E+01  0.58961349196E+01  0.12700000000E+01 0. -1.
         25    2    1    2    0    0  0.00000000000E+00  0.00000000000E+00  0.66449614112E+03  0.67615121378E+03  0.12500136930E+03 0.  0.
    9000005    1    3    3    0    0  0.60361125251E+02 -0.25476847938E+01  0.41868951766E+03  0.42302703027E+03  0.10000000000E+01 0.  0.
    9000005    1    3    3    0    0 -0.60361125251E+02  0.25476847938E+01  0.24580662346E+03  0.25312418351E+03  0.10000000000E+01 0.  0.
<mgrwt>
<rscale>  0 0.12500137E+03</rscale>
<asrwt>0</asrwt>
<pdfrwt beam="1">  1        4 0.10312671E+00 0.12500137E+03</pdfrwt>
<pdfrwt beam="2">  1       -4 0.89654417E-03 0.12500137E+03</pdfrwt>
<totfact> 0.44374571E+03</totfact>
</mgrwt>
</event>
<event>
 5    1  0.3273105E-002  0.1249966E+03  0.7818608E-02  0.1235075E+00
          4   -1    0    0  501    0  0.00000000000E+00  0.00000000000E+00  0.90098594397E+02  0.90107544703E+02  0.12700000000E+01 0.  1.
         -4   -1    0    0    0  501 -0.00000000000E+00 -0.00000000000E+00 -0.43332487587E+02  0.43351094340E+02  0.12700000000E+01 0.  1.
         25    2    1    2    0    0  0.00000000000E+00  0.00000000000E+00  0.46766106810E+02  0.13345863904E+03  0.12499655831E+03 0.  0.
    9000005    1    3    3    0    0 -0.43211351127E+02  0.27561137244E+02 -0.14789187859E+02  0.53353137020E+02  0.10000000000E+01 0.  0.
    9000005    1    3    3    0    0  0.43211351127E+02 -0.27561137244E+02  0.61555294669E+02  0.80105502022E+02  0.10000000000E+01 0.  0.
<mgrwt>
<rscale>  0 0.12499656E+03</rscale>
<asrwt>0</asrwt>
<pdfrwt beam="1">  1        4 0.13863442E-01 0.12499656E+03</pdfrwt>
<pdfrwt beam="2">  1       -4 0.66686564E-02 0.12499656E+03</pdfrwt>
<totfact> 0.10271459E+04</totfact>
</mgrwt>
</event>
<event>
 5    1  0.3273105E-002  0.1250009E+03  0.7818608E-02  0.1235068E+00
          4   -1    0    0  501    0  0.00000000000E+00  0.00000000000E+00  0.13661579960E+03  0.13662170253E+03  0.12700000000E+01 0.  1.
         -4   -1    0    0    0  501 -0.00000000000E+00 -0.00000000000E+00 -0.28572753223E+02  0.28600963738E+02  0.12700000000E+01 0.  1.
         25    2    1    2    0    0  0.00000000000E+00  0.00000000000E+00  0.10804304638E+03  0.16522266626E+03  0.12500091830E+03 0.  0.
    9000005    1    3    3    0    0  0.17126381064E+02 -0.59799560948E+02  0.61952921276E+02  0.87797863713E+02  0.10000000000E+01 0.  0.
    9000005    1    3    3    0    0 -0.17126381064E+02  0.59799560948E+02  0.46090125103E+02  0.77424802551E+02  0.10000000000E+01 0.  0.
<mgrwt>
<rscale>  0 0.12500092E+03</rscale>
<asrwt>0</asrwt>
<pdfrwt beam="1">  1        4 0.21020440E-01 0.12500092E+03</pdfrwt>
<pdfrwt beam="2">  1       -4 0.43984322E-02 0.12500092E+03</pdfrwt>
<totfact> 0.96343251E+03</totfact>
</mgrwt>
</event>
<event>
 5    1  0.3273105E-002  0.1249848E+03  0.7818608E-02  0.1235093E+00
         -4   -1    0    0    0  501 -0.00000000000E+00  0.00000000000E+00  0.24397781380E+03  0.24398111920E+03  0.12700000000E+01 0. -1.
          4   -1    0    0  501    0  0.00000000000E+00 -0.00000000000E+00 -0.15978183644E+02  0.16028576124E+02  0.12700000000E+01 0. -1.
         25    2    1    2    0    0  0.00000000000E+00  0.00000000000E+00  0.22799963015E+03  0.26000969532E+03  0.12498484033E+03 0.  0.
    9000005    1    3    3    0    0 -0.60149766831E+02  0.98109295796E+01  0.85320388173E+02  0.10485617496E+03  0.10000000000E+01 0.  0.
    9000005    1    3    3    0    0  0.60149766831E+02 -0.98109295796E+01  0.14267924198E+03  0.15515352036E+03  0.10000000000E+01 0.  0.
<mgrwt>
<rscale>  0 0.12498484E+03</rscale>
<asrwt>0</asrwt>
<pdfrwt beam="2">  1        4 0.24623129E-02 0.12498484E+03</pdfrwt>
<pdfrwt beam="1">  1       -4 0.37539176E-01 0.12498484E+03</pdfrwt>
<totfact> 0.80932009E+03</totfact>
</mgrwt>
</event>
<event>
 5    1  0.3273105E-002  0.1250000E+03  0.7818608E-02  0.1235069E+00
         -4   -1    0    0    0  501 -0.00000000000E+00  0.00000000000E+00  0.78959946717E+02  0.78970159463E+02  0.12700000000E+01 0. -1.
          4   -1    0    0  501    0  0.00000000000E+00 -0.00000000000E+00 -0.49449712140E+02  0.49466017939E+02  0.12700000000E+01 0. -1.
         25    2    1    2    0    0  0.00000000000E+00  0.00000000000E+00  0.29510234577E+02  0.12843617740E+03  0.12499999088E+03 0.  0.
    9000005    1    3    3    0    0  0.54612222923E+02  0.19095769137E+02  0.39028806644E+02  0.69795351131E+02  0.10000000000E+01 0.  0.
    9000005    1    3    3    0    0 -0.54612222923E+02 -0.19095769137E+02 -0.95185720671E+01  0.58640826270E+02  0.10000000000E+01 0.  0.
<mgrwt>
<rscale>  0 0.12499999E+03</rscale>
<asrwt>0</asrwt>
<pdfrwt beam="2">  1        4 0.76096880E-02 0.12499999E+03</pdfrwt>
<pdfrwt beam="1">  1       -4 0.12149724E-01 0.12499999E+03</pdfrwt>
<totfact> 0.10378081E+04</totfact>
</mgrwt>
</event>
<event>
 5    1  0.3273105E-002  0.1249816E+03  0.7818608E-02  0.1235098E+00
         -4   -1    0    0    0  501 -0.00000000000E+00  0.00000000000E+00  0.83696734161E+01  0.84654789050E+01  0.12700000000E+01 0. -1.
          4   -1    0    0  501    0  0.00000000000E+00 -0.00000000000E+00 -0.46382573767E+03  0.46382747635E+03  0.12700000000E+01 0. -1.
         25    2    1    2    0    0  0.00000000000E+00  0.00000000000E+00 -0.45545606425E+03  0.47229295526E+03  0.12498163515E+03 0.  0.
    9000005    1    3    3    0    0 -0.26401335978E+02 -0.40098659355E+02 -0.37884473923E+03  0.38187598702E+03  0.10000000000E+01 0.  0.
    9000005    1    3    3    0    0  0.26401335978E+02  0.40098659355E+02 -0.76611325018E+02  0.90416968234E+02  0.10000000000E+01 0.  0.
<mgrwt>
<rscale>  0 0.12498164E+03</rscale>
<asrwt>0</asrwt>
<pdfrwt beam="2">  1        4 0.71365289E-01 0.12498164E+03</pdfrwt>
<pdfrwt beam="1">  1       -4 0.12951458E-02 0.12498164E+03</pdfrwt>
<totfact> 0.58103547E+03</totfact>
</mgrwt>
</event>
<event>
 5    1  0.3273105E-002  0.1249995E+03  0.7818608E-02  0.1235070E+00
          4   -1    0    0  501    0  0.00000000000E+00  0.00000000000E+00  0.11518068333E+02  0.11587872890E+02  0.12700000000E+01 0. -1.
         -4   -1    0    0    0  501 -0.00000000000E+00 -0.00000000000E+00 -0.33804271512E+03  0.33804510076E+03  0.12700000000E+01 0. -1.
         25    2    1    2    0    0  0.00000000000E+00  0.00000000000E+00 -0.32652464679E+03  0.34963297365E+03  0.12499948521E+03 0.  0.
    9000005    1    3    3    0    0 -0.14742527379E+02 -0.26543118815E+01 -0.33296045453E+03  0.33329874252E+03  0.10000000000E+01 0.  0.
    9000005    1    3    3    0    0  0.14742527379E+02  0.26543118815E+01  0.64358077449E+01  0.16334231124E+02  0.10000000000E+01 0.  0.
<mgrwt>
<rscale>  0 0.12499949E+03</rscale>
<asrwt>0</asrwt>
<pdfrwt beam="1">  1        4 0.17775639E-02 0.12499949E+03</pdfrwt>
<pdfrwt beam="2">  1       -4 0.52012117E-01 0.12499949E+03</pdfrwt>
<totfact> 0.69765750E+03</totfact>
</mgrwt>
</event>
<event>
 5    1  0.3273105E-002  0.1249974E+03  0.7818608E-02  0.1235073E+00
          4   -1    0    0  501    0  0.00000000000E+00  0.00000000000E+00  0.66671460834E+03  0.66671581792E+03  0.12700000000E+01 0. -1.
         -4   -1    0    0    0  501 -0.00000000000E+00 -0.00000000000E+00 -0.57886596104E+01  0.59263378308E+01  0.12700000000E+01 0. -1.
         25    2    1    2    0    0  0.00000000000E+00  0.00000000000E+00  0.66092594873E+03  0.67264215576E+03  0.12499743997E+03 0.  0.
    9000005    1    3    3    0    0 -0.12590977556E+02 -0.18389837436E+02  0.16298983967E+02  0.27629254696E+02  0.10000000000E+01 0.  0.
    9000005    1    3    3    0    0  0.12590977556E+02  0.18389837436E+02  0.64462696476E+03  0.64501290106E+03  0.10000000000E+01 0.  0.
<mgrwt>
<rscale>  0 0.12499744E+03</rscale>
<asrwt>0</asrwt>
<pdfrwt beam="1">  1        4 0.10258209E+00 0.12499744E+03</pdfrwt>
<pdfrwt beam="2">  1       -4 0.90124735E-03 0.12499744E+03</pdfrwt>
<totfact> 0.44573276E+03</totfact>
</mgrwt>
</event>
<event>
 5    1  0.3273105E-002  0.1249457E+03  0.7818608E-02  0.1235154E+00
          4   -1    0    0  501    0  0.00000000000E+00  0.00000000000E+00  0.25071549776E+02  0.25103695110E+02  0.12700000000E+01 0. -1.
         -4   -1    0    0    0  501 -0.00000000000E+00 -0.00000000000E+00 -0.15553438580E+03  0.15553957074E+03  0.12700000000E+01 0. -1.
         25    2    1    2    0    0  0.00000000000E+00  0.00000000000E+00 -0.13046283602E+03  0.18064326585E+03  0.12494573988E+03 0.  0.
    9000005    1    3    3    0    0  0.19179147825E+02  0.29294909272E+01  0.20611970960E+02  0.28324458957E+02  0.10000000000E+01 0.  0.
    9000005    1    3    3    0    0 -0.19179147825E+02 -0.29294909272E+01 -0.15107480698E+03  0.15231880689E+03  0.10000000000E+01 0.  0.
<mgrwt>
<rscale>  0 0.12494574E+03</rscale>
<asrwt>0</asrwt>
<pdfrwt beam="1">  1        4 0.38600332E-02 0.12494574E+03</pdfrwt>
<pdfrwt beam="2">  1       -4 0.23931238E-01 0.12494574E+03</pdfrwt>
<totfact> 0.93615180E+03</totfact>
</mgrwt>
</event>
<event>
 5    1  0.3273105E-002  0.1249999E+03  0.7818608E-02  0.1235069E+00
          4   -1    0    0  501    0  0.00000000000E+00  0.00000000000E+00  0.72386470371E+03  0.72386581779E+03  0.12700000000E+01 0. -1.
         -4   -1    0    0    0  501 -0.00000000000E+00 -0.00000000000E+00 -0.53205153695E+01  0.54699893782E+01  0.12700000000E+01 0. -1.
         25    2    1    2    0    0  0.00000000000E+00  0.00000000000E+00  0.71854418834E+03  0.72933580717E+03  0.12499987613E+03 0.  0.
    9000005    1    3    3    0    0 -0.55865516205E+02 -0.25581032513E+02  0.29277269280E+03  0.29915246075E+03  0.10000000000E+01 0.  0.
    9000005    1    3    3    0    0  0.55865516205E+02  0.25581032513E+02  0.42577149554E+03  0.43018334642E+03  0.10000000000E+01 0.  0.
<mgrwt>
<rscale>  0 0.12499988E+03</rscale>
<asrwt>0</asrwt>
<pdfrwt beam="1">  1        4 0.11137532E+00 0.12499988E+03</pdfrwt>
<pdfrwt beam="2">  1       -4 0.83012498E-03 0.12499988E+03</pdfrwt>
<totfact> 0.41582671E+03</totfact>
</mgrwt>
</event>
<event>
 5    1  0.3273105E-002  0.1249973E+03  0.7818608E-02  0.1235073E+00
          4   -1    0    0  501    0  0.00000000000E+00  0.00000000000E+00  0.23993903804E+02  0.24027490916E+02  0.12700000000E+01 0.  1.
         -4   -1    0    0    0  501 -0.00000000000E+00 -0.00000000000E+00 -0.16264485659E+03  0.16264981487E+03  0.12700000000E+01 0.  1.
         25    2    1    2    0    0  0.00000000000E+00  0.00000000000E+00 -0.13865095279E+03  0.18667730578E+03  0.12499731911E+03 0.  0.
    9000005    1    3    3    0    0 -0.22350222586E+02  0.43892171931E+02 -0.11890173983E+02  0.50679694590E+02  0.10000000000E+01 0.  0.
    9000005    1    3    3    0    0  0.22350222586E+02 -0.43892171931E+02 -0.12676077881E+03  0.13599761119E+03  0.10000000000E+01 0.  0.
<mgrwt>
<rscale>  0 0.12499732E+03</rscale>
<asrwt>0</asrwt>
<pdfrwt beam="1">  1        4 0.36943350E-02 0.12499732E+03</pdfrwt>
<pdfrwt beam="2">  1       -4 0.25025250E-01 0.12499732E+03</pdfrwt>
<totfact> 0.92434241E+03</totfact>
</mgrwt>
</event>
<event>
 5    1  0.3273105E-002  0.1250001E+03  0.7818608E-02  0.1235069E+00
          4   -1    0    0  501    0  0.00000000000E+00  0.00000000000E+00  0.11588097729E+03  0.11588793637E+03  0.12700000000E+01 0. -1.
         -4   -1    0    0    0  501 -0.00000000000E+00 -0.00000000000E+00 -0.33689273526E+02  0.33713202914E+02  0.12700000000E+01 0. -1.
         25    2    1    2    0    0  0.00000000000E+00  0.00000000000E+00  0.82191703759E+02  0.14960113929E+03  0.12500009884E+03 0.  0.
    9000005    1    3    3    0    0 -0.22252891483E+02  0.20866447428E+01 -0.28748040569E+02  0.36427943974E+02  0.10000000000E+01 0.  0.
    9000005    1    3    3    0    0  0.22252891483E+02 -0.20866447428E+01  0.11093974433E+03  0.11317319531E+03  0.10000000000E+01 0.  0.
<mgrwt>
<rscale>  0 0.12500010E+03</rscale>
<asrwt>0</asrwt>
<pdfrwt beam="1">  1        4 0.17830219E-01 0.12500010E+03</pdfrwt>
<pdfrwt beam="2">  1       -4 0.51853412E-02 0.12500010E+03</pdfrwt>
<totfact> 0.99383043E+03</totfact>
</mgrwt>
</event>
<event>
 5    1  0.3273105E-002  0.1250046E+03  0.7818608E-02  0.1235062E+00
          4   -1    0    0  501    0  0.00000000000E+00  0.00000000000E+00  0.14323670917E+03  0.14324233925E+03  0.12700000000E+01 0.  1.
         -4   -1    0    0    0  501 -0.00000000000E+00 -0.00000000000E+00 -0.27252324749E+02  0.27281900671E+02  0.12700000000E+01 0.  1.
         25    2    1    2    0    0  0.00000000000E+00  0.00000000000E+00  0.11598438442E+03  0.17052423992E+03  0.12500455580E+03 0.  0.
    9000005    1    3    3    0    0 -0.39301388456E+02  0.44523000075E+02  0.31447822256E+02  0.67207605186E+02  0.10000000000E+01 0.  0.
    9000005    1    3    3    0    0  0.39301388456E+02 -0.44523000075E+02  0.84536562165E+02  0.10331663473E+03  0.10000000000E+01 0.  0.
<mgrwt>
<rscale>  0 0.12500456E+03</rscale>
<asrwt>0</asrwt>
<pdfrwt beam="1">  1        4 0.22039125E-01 0.12500456E+03</pdfrwt>
<pdfrwt beam="2">  1       -4 0.41953735E-02 0.12500456E+03</pdfrwt>
<totfact> 0.95341266E+03</totfact>
</mgrwt>
</event>
<event>
 5    1  0.3273105E-002  0.1250021E+03  0.7818608E-02  0.1235066E+00
         -4   -1    0    0    0  501 -0.00000000000E+00  0.00000000000E+00  0.14322323003E+02  0.14378519958E+02  0.12700000000E+01 0. -1.
          4   -1    0    0  501    0  0.00000000000E+00 -0.00000000000E+00 -0.27215610439E+03  0.27215906757E+03  0.12700000000E+01 0. -1.
         25    2    1    2    0    0  0.00000000000E+00  0.00000000000E+00 -0.25783378139E+03  0.28653758752E+03  0.12500212093E+03 0.  0.
    9000005    1    3    3    0    0  0.58669548991E+02  0.16702061900E+02 -0.16003663132E+03  0.17127112487E+03  0.10000000000E+01 0.  0.
    9000005    1    3    3    0    0 -0.58669548991E+02 -0.16702061900E+02 -0.97797150068E+02  0.11526646265E+03  0.10000000000E+01 0.  0.
<mgrwt>
<rscale>  0 0.12500212E+03</rscale>
<asrwt>0</asrwt>
<pdfrwt beam="2">  1        4 0.41874717E-01 0.12500212E+03</pdfrwt>
<pdfrwt beam="1">  1       -4 0.22079853E-02 0.12500212E+03</pdfrwt>
<totfact> 0.77315536E+03</totfact>
</mgrwt>
</event>
<event>
 5    1  0.3273105E-002  0.1250009E+03  0.7818608E-02  0.1235068E+00
         -4   -1    0    0    0  501 -0.00000000000E+00  0.00000000000E+00  0.29839536612E+02  0.29866550608E+02  0.12700000000E+01 0.  1.
          4   -1    0    0  501    0  0.00000000000E+00 -0.00000000000E+00 -0.13082110928E+03  0.13082727366E+03  0.12700000000E+01 0.  1.
         25    2    1    2    0    0  0.00000000000E+00  0.00000000000E+00 -0.10098157267E+03  0.16069382427E+03  0.12500090856E+03 0.  0.
    9000005    1    3    3    0    0 -0.53281470899E+02 -0.21216162622E+02 -0.82403971465E+02  0.10040147016E+03  0.10000000000E+01 0.  0.
    9000005    1    3    3    0    0  0.53281470899E+02  0.21216162622E+02 -0.18577601208E+02  0.60292354110E+02  0.10000000000E+01 0.  0.
<mgrwt>
<rscale>  0 0.12500091E+03</rscale>
<asrwt>0</asrwt>
<pdfrwt beam="2">  1        4 0.20128876E-01 0.12500091E+03</pdfrwt>
<pdfrwt beam="1">  1       -4 0.45932502E-02 0.12500091E+03</pdfrwt>
<totfact> 0.97207203E+03</totfact>
</mgrwt>
</event>
<event>
 5    1  0.3273105E-002  0.1250025E+03  0.7818608E-02  0.1235065E+00
         -4   -1    0    0    0  501 -0.00000000000E+00  0.00000000000E+00  0.66122261556E+03  0.66122383519E+03  0.12700000000E+01 0. -1.
          4   -1    0    0  501    0  0.00000000000E+00 -0.00000000000E+00 -0.58383605046E+01  0.59748935875E+01  0.12700000000E+01 0. -1.
         25    2    1    2    0    0  0.00000000000E+00  0.00000000000E+00  0.65538425506E+03  0.66719872878E+03  0.12500248763E+03 0.  0.
    9000005    1    3    3    0    0  0.52384184926E+02  0.10042619465E+02  0.15387949652E+03  0.16286453415E+03  0.10000000000E+01 0.  0.
    9000005    1    3    3    0    0 -0.52384184926E+02 -0.10042619465E+02  0.50150475854E+03  0.50433419463E+03  0.10000000000E+01 0.  0.
<mgrwt>
<rscale>  0 0.12500249E+03</rscale>
<asrwt>0</asrwt>
<pdfrwt beam="2">  1        4 0.90880585E-03 0.12500249E+03</pdfrwt>
<pdfrwt beam="1">  1       -4 0.10173713E+00 0.12500249E+03</pdfrwt>
<totfact> 0.44873230E+03</totfact>
</mgrwt>
</event>
<event>
 5    1  0.3273105E-002  0.1250106E+03  0.7818608E-02  0.1235053E+00
         -4   -1    0    0    0  501 -0.00000000000E+00  0.00000000000E+00  0.13698648160E+02  0.13757392973E+02  0.12700000000E+01 0.  1.
          4   -1    0    0  501    0  0.00000000000E+00 -0.00000000000E+00 -0.28453394629E+03  0.28453678056E+03  0.12700000000E+01 0.  1.
         25    2    1    2    0    0  0.00000000000E+00  0.00000000000E+00 -0.27083529813E+03  0.29829417353E+03  0.12501062055E+03 0.  0.
    9000005    1    3    3    0    0  0.36417070363E+02 -0.20434411480E+02 -0.24464321829E+02  0.48407346849E+02  0.10000000000E+01 0.  0.
    9000005    1    3    3    0    0 -0.36417070363E+02  0.20434411480E+02 -0.24637097630E+03  0.24988682668E+03  0.10000000000E+01 0.  0.
<mgrwt>
<rscale>  0 0.12501062E+03</rscale>
<asrwt>0</asrwt>
<pdfrwt beam="2">  1        4 0.43779186E-01 0.12501062E+03</pdfrwt>
<pdfrwt beam="1">  1       -4 0.21122214E-02 0.12501062E+03</pdfrwt>
<totfact> 0.75795442E+03</totfact>
</mgrwt>
</event>
<event>
 5    1  0.3273105E-002  0.1250018E+03  0.7818608E-02  0.1235066E+00
         -4   -1    0    0    0  501 -0.00000000000E+00  0.00000000000E+00  0.50062541556E+03  0.50062702645E+03  0.12700000000E+01 0.  1.
          4   -1    0    0  501    0  0.00000000000E+00 -0.00000000000E+00 -0.77496526406E+01  0.78530259168E+01  0.12700000000E+01 0.  1.
         25    2    1    2    0    0  0.00000000000E+00  0.00000000000E+00  0.49287576292E+03  0.50848005236E+03  0.12500178388E+03 0.  0.
    9000005    1    3    3    0    0  0.10647111270E+02  0.87922265336E+01  0.49436236809E+03  0.49455618003E+03  0.10000000000E+01 0.  0.
    9000005    1    3    3    0    0 -0.10647111270E+02 -0.87922265336E+01 -0.14866051637E+01  0.13923872333E+02  0.10000000000E+01 0.  0.
<mgrwt>
<rscale>  0 0.12500178E+03</rscale>
<asrwt>0</asrwt>
<pdfrwt beam="2">  1        4 0.12003297E-02 0.12500178E+03</pdfrwt>
<pdfrwt beam="1">  1       -4 0.77027387E-01 0.12500178E+03</pdfrwt>
<totfact> 0.55210195E+03</totfact>
</mgrwt>
</event>
<event>
 5    1  0.3273105E-002  0.1250002E+03  0.7818608E-02  0.1235069E+00
          4   -1    0    0  501    0  0.00000000000E+00  0.00000000000E+00  0.31220625535E+02  0.31246445538E+02  0.12700000000E+01 0. -1.
         -4   -1    0    0    0  501 -0.00000000000E+00 -0.00000000000E+00 -0.12503716998E+03  0.12504361950E+03  0.12700000000E+01 0. -1.
         25    2    1    2    0    0  0.00000000000E+00  0.00000000000E+00 -0.93816544449E+02  0.15629006504E+03  0.12500016167E+03 0.  0.
    9000005    1    3    3    0    0 -0.18544986649E+02 -0.86562475436E+01 -0.12073442047E+03  0.12246079959E+03  0.10000000000E+01 0.  0.
    9000005    1    3    3    0    0  0.18544986649E+02  0.86562475436E+01  0.26917876017E+02  0.33829265446E+02  0.10000000000E+01 0.  0.
<mgrwt>
<rscale>  0 0.12500016E+03</rscale>
<asrwt>0</asrwt>
<pdfrwt beam="1">  1        4 0.48056555E-02 0.12500016E+03</pdfrwt>
<pdfrwt beam="2">  1       -4 0.19238970E-01 0.12500016E+03</pdfrwt>
<totfact> 0.98062480E+03</totfact>
</mgrwt>
</event>
<event>
 5    1  0.3273105E-002  0.1249921E+03  0.7818608E-02  0.1235082E+00
          4   -1    0    0  501    0  0.00000000000E+00  0.00000000000E+00  0.22588890075E+03  0.22589247084E+03  0.12700000000E+01 0.  1.
         -4   -1    0    0    0  501 -0.00000000000E+00 -0.00000000000E+00 -0.17263566997E+02  0.17310217950E+02  0.12700000000E+01 0.  1.
         25    2    1    2    0    0  0.00000000000E+00  0.00000000000E+00  0.20862533375E+03  0.24320268879E+03  0.12499207155E+03 0.  0.
    9000005    1    3    3    0    0 -0.31785013731E+02 -0.38892817020E+02  0.17664143061E+03  0.18364676235E+03  0.10000000000E+01 0.  0.
    9000005    1    3    3    0    0  0.31785013731E+02  0.38892817020E+02  0.31983903138E+02  0.59555926435E+02  0.10000000000E+01 0.  0.
<mgrwt>
<rscale>  0 0.12499207E+03</rscale>
<asrwt>0</asrwt>
<pdfrwt beam="1">  1        4 0.34756004E-01 0.12499207E+03</pdfrwt>
<pdfrwt beam="2">  1       -4 0.26597964E-02 0.12499207E+03</pdfrwt>
<totfact> 0.83337407E+03</totfact>
</mgrwt>
</event>
<event>
 5    1  0.3273105E-002  0.1249701E+03  0.7818608E-02  0.1235116E+00
          4   -1    0    0  501    0  0.00000000000E+00  0.00000000000E+00  0.21831993568E+02  0.21868901279E+02  0.12700000000E+01 0.  1.
         -4   -1    0    0    0  501 -0.00000000000E+00 -0.00000000000E+00 -0.17864738912E+03  0.17865190326E+03  0.12700000000E+01 0.  1.
         25    2    1    2    0    0  0.00000000000E+00  0.00000000000E+00 -0.15681539555E+03  0.20052080454E+03  0.12497009551E+03 0.  0.
    9000005    1    3    3    0    0  0.21578590501E+01  0.15781168707E+02 -0.17534271769E+03  0.17606751628E+03  0.10000000000E+01 0.  0.
    9000005    1    3    3    0    0 -0.21578590501E+01 -0.15781168707E+02  0.18527322137E+02  0.24453288265E+02  0.10000000000E+01 0.  0.
<mgrwt>
<rscale>  0 0.12497010E+03</rscale>
<asrwt>0</asrwt>
<pdfrwt beam="1">  1        4 0.33619547E-02 0.12497010E+03</pdfrwt>
<pdfrwt beam="2">  1       -4 0.27487399E-01 0.12497010E+03</pdfrwt>
<totfact> 0.90108025E+03</totfact>
</mgrwt>
</event>
<event>
 5    1  0.3273105E-002  0.1249907E+03  0.7818608E-02  0.1235084E+00
         -4   -1    0    0    0  501 -0.00000000000E+00  0.00000000000E+00  0.30943019271E+02  0.30969070726E+02  0.12700000000E+01 0. -1.
          4   -1    0    0  501    0  0.00000000000E+00 -0.00000000000E+00 -0.12613891810E+03  0.12614531128E+03  0.12700000000E+01 0. -1.
         25    2    1    2    0    0  0.00000000000E+00  0.00000000000E+00 -0.95195898826E+02  0.15711438201E+03  0.12499067918E+03 0.  0.
    9000005    1    3    3    0    0  0.50293014915E+02  0.29607652429E+02 -0.19527869765E+02  0.61549477083E+02  0.10000000000E+01 0.  0.
    9000005    1    3    3    0    0 -0.50293014915E+02 -0.29607652429E+02 -0.75668029061E+02  0.95564904926E+02  0.10000000000E+01 0.  0.
<mgrwt>
<rscale>  0 0.12499068E+03</rscale>
<asrwt>0</asrwt>
<pdfrwt beam="2">  1        4 0.19408483E-01 0.12499068E+03</pdfrwt>
<pdfrwt beam="1">  1       -4 0.47629603E-02 0.12499068E+03</pdfrwt>
<totfact> 0.97922532E+03</totfact>
</mgrwt>
</event>
<event>
 5    1  0.3273105E-002  0.1249979E+03  0.7818608E-02  0.1235072E+00
         -4   -1    0    0    0  501 -0.00000000000E+00  0.00000000000E+00  0.32394863227E+03  0.32395112170E+03  0.12700000000E+01 0.  1.
          4   -1    0    0  501    0  0.00000000000E+00 -0.00000000000E+00 -0.12021858648E+02  0.12088754500E+02  0.12700000000E+01 0.  1.
         25    2    1    2    0    0  0.00000000000E+00  0.00000000000E+00  0.31192677362E+03  0.33603987620E+03  0.12499794516E+03 0.  0.
    9000005    1    3    3    0    0  0.28612193567E+01 -0.61097586577E+02  0.12153344973E+03  0.13606057866E+03  0.10000000000E+01 0.  0.
    9000005    1    3    3    0    0 -0.28612193567E+01  0.61097586577E+02  0.19039332390E+03  0.19997929755E+03  0.10000000000E+01 0.  0.
<mgrwt>
<rscale>  0 0.12499795E+03</rscale>
<asrwt>0</asrwt>
<pdfrwt beam="2">  1        4 0.18548541E-02 0.12499795E+03</pdfrwt>
<pdfrwt beam="1">  1       -4 0.49843587E-01 0.12499795E+03</pdfrwt>
<totfact> 0.71291391E+03</totfact>
</mgrwt>
</event>
<event>
 5    1  0.3273105E-002  0.1250013E+03  0.7818608E-02  0.1235067E+00
         -4   -1    0    0    0  501 -0.00000000000E+00  0.00000000000E+00  0.35483940917E+02  0.35506660826E+02  0.12700000000E+01 0.  1.
          4   -1    0    0  501    0  0.00000000000E+00 -0.00000000000E+00 -0.11002564856E+03  0.11003297797E+03  0.12700000000E+01 0.  1.
         25    2    1    2    0    0  0.00000000000E+00  0.00000000000E+00 -0.74541707641E+02  0.14553963879E+03  0.12500128112E+03 0.  0.
    9000005    1    3    3    0    0  0.53986988312E+02  0.26410221902E+02 -0.57208550528E+02  0.82981401419E+02  0.10000000000E+01 0.  0.
    9000005    1    3    3    0    0 -0.53986988312E+02 -0.26410221902E+02 -0.17333157114E+02  0.62558237375E+02  0.10000000000E+01 0.  0.
<mgrwt>
<rscale>  0 0.12500128E+03</rscale>
<asrwt>0</asrwt>
<pdfrwt beam="2">  1        4 0.16929334E-01 0.12500128E+03</pdfrwt>
<pdfrwt beam="1">  1       -4 0.54613794E-02 0.12500128E+03</pdfrwt>
<totfact> 0.10019747E+04</totfact>
</mgrwt>
</event>
<event>
 5    1  0.3273105E-002  0.1250004E+03  0.7818608E-02  0.1235069E+00
         -4   -1    0    0    0  501 -0.00000000000E+00  0.00000000000E+00  0.39618590694E+03  0.39618794247E+03  0.12700000000E+01 0.  1.
          4   -1    0    0  501    0  0.00000000000E+00 -0.00000000000E+00 -0.98167366745E+01  0.98985463042E+01  0.12700000000E+01 0.  1.
         25    2    1    2    0    0  0.00000000000E+00  0.00000000000E+00  0.38636917027E+03  0.40608648877E+03  0.12500040253E+03 0.  0.
    9000005    1    3    3    0    0  0.36852869606E+02 -0.19528603509E+02  0.41997819218E+02  0.59197273352E+02  0.10000000000E+01 0.  0.
    9000005    1    3    3    0    0 -0.36852869606E+02  0.19528603509E+02  0.34437135105E+03  0.34688921542E+03  0.10000000000E+01 0.  0.
<mgrwt>
<rscale>  0 0.12500040E+03</rscale>
<asrwt>0</asrwt>
<pdfrwt beam="2">  1        4 0.15167173E-02 0.12500040E+03</pdfrwt>
<pdfrwt beam="1">  1       -4 0.60958108E-01 0.12500040E+03</pdfrwt>
<totfact> 0.63964540E+03</totfact>
</mgrwt>
</event>
<event>
 5    1  0.3273105E-002  0.1249956E+03  0.7818608E-02  0.1235076E+00
          4   -1    0    0  501    0  0.00000000000E+00  0.00000000000E+00  0.18087087693E+01  0.22100514501E+01  0.12700000000E+01 0.  1.
         -4   -1    0    0    0  501 -0.00000000000E+00 -0.00000000000E+00 -0.19434702702E+04  0.19434706852E+04  0.12700000000E+01 0.  1.
         25    2    1    2    0    0  0.00000000000E+00  0.00000000000E+00 -0.19416615615E+04  0.19456807366E+04  0.12499563854E+03 0.  0.
    9000005    1    3    3    0    0  0.39854689327E+02 -0.23263321278E+02 -0.16267112662E+04  0.16273660074E+04  0.10000000000E+01 0.  0.
    9000005    1    3    3    0    0 -0.39854689327E+02  0.23263321278E+02 -0.31495029528E+03  0.31831472928E+03  0.10000000000E+01 0.  0.
<mgrwt>
<rscale>  0 0.12499564E+03</rscale>
<asrwt>0</asrwt>
<pdfrwt beam="1">  1        4 0.30916887E-03 0.12499564E+03</pdfrwt>
<pdfrwt beam="2">  1       -4 0.29902483E+00 0.12499564E+03</pdfrwt>
<totfact> 0.10588104E+03</totfact>
</mgrwt>
</event>
<event>
 5    1  0.3273105E-002  0.1249992E+03  0.7818608E-02  0.1235070E+00
         -4   -1    0    0    0  501 -0.00000000000E+00  0.00000000000E+00  0.27502812361E+03  0.27503105584E+03  0.12700000000E+01 0. -1.
          4   -1    0    0  501    0  0.00000000000E+00 -0.00000000000E+00 -0.14171512704E+02  0.14228305322E+02  0.12700000000E+01 0. -1.
         25    2    1    2    0    0  0.00000000000E+00  0.00000000000E+00  0.26085661091E+03  0.28925936117E+03  0.12499922626E+03 0.  0.
    9000005    1    3    3    0    0 -0.53647885622E+01  0.42071104378E+02  0.23663574514E+03  0.24040847460E+03  0.10000000000E+01 0.  0.
    9000005    1    3    3    0    0  0.53647885622E+01 -0.42071104378E+02  0.24220865770E+02  0.48850886569E+02  0.10000000000E+01 0.  0.
<mgrwt>
<rscale>  0 0.12499923E+03</rscale>
<asrwt>0</asrwt>
<pdfrwt beam="2">  1        4 0.21848269E-02 0.12499923E+03</pdfrwt>
<pdfrwt beam="1">  1       -4 0.42316615E-01 0.12499923E+03</pdfrwt>
<totfact> 0.76967504E+03</totfact>
</mgrwt>
</event>
<event>
 5    1  0.3273105E-002  0.1250001E+03  0.7818608E-02  0.1235069E+00
         -4   -1    0    0    0  501 -0.00000000000E+00  0.00000000000E+00  0.31715171189E+03  0.31715425467E+03  0.12700000000E+01 0.  1.
          4   -1    0    0  501    0  0.00000000000E+00 -0.00000000000E+00 -0.12281349917E+02  0.12346839911E+02  0.12700000000E+01 0.  1.
         25    2    1    2    0    0  0.00000000000E+00  0.00000000000E+00  0.30487036197E+03  0.32950109458E+03  0.12500013488E+03 0.  0.
    9000005    1    3    3    0    0  0.53228299319E+02 -0.96214453009E+01  0.69938960808E+02  0.88421051209E+02  0.10000000000E+01 0.  0.
    9000005    1    3    3    0    0 -0.53228299319E+02  0.96214453009E+01  0.23493140116E+03  0.24108004337E+03  0.10000000000E+01 0.  0.
<mgrwt>
<rscale>  0 0.12500013E+03</rscale>
<asrwt>0</asrwt>
<pdfrwt beam="2">  1        4 0.18946717E-02 0.12500013E+03</pdfrwt>
<pdfrwt beam="1">  1       -4 0.48797806E-01 0.12500013E+03</pdfrwt>
<totfact> 0.72039948E+03</totfact>
</mgrwt>
</event>
<event>
 5    1  0.3273105E-002  0.1250001E+03  0.7818608E-02  0.1235069E+00
         -4   -1    0    0    0  501 -0.00000000000E+00  0.00000000000E+00  0.34398792095E+03  0.34399026536E+03  0.12700000000E+01 0. -1.
          4   -1    0    0  501    0  0.00000000000E+00 -0.00000000000E+00 -0.11317888198E+02  0.11388919759E+02  0.12700000000E+01 0. -1.
         25    2    1    2    0    0  0.00000000000E+00  0.00000000000E+00  0.33267003275E+03  0.35537918511E+03  0.12500005809E+03 0.  0.
    9000005    1    3    3    0    0  0.13762989437E+02 -0.58274688649E+02  0.11548570203E+03  0.13008960984E+03  0.10000000000E+01 0.  0.
    9000005    1    3    3    0    0 -0.13762989437E+02  0.58274688649E+02  0.21718433073E+03  0.22528957528E+03  0.10000000000E+01 0.  0.
<mgrwt>
<rscale>  0 0.12500006E+03</rscale>
<asrwt>0</asrwt>
<pdfrwt beam="2">  1        4 0.17468583E-02 0.12500006E+03</pdfrwt>
<pdfrwt beam="1">  1       -4 0.52926850E-01 0.12500006E+03</pdfrwt>
<totfact> 0.69136724E+03</totfact>
</mgrwt>
</event>
<event>
 5    1  0.3273105E-002  0.1250011E+03  0.7818608E-02  0.1235068E+00
          4   -1    0    0  501    0  0.00000000000E+00  0.00000000000E+00  0.44753967755E+01  0.46521045021E+01  0.12700000000E+01 0. -1.
         -4   -1    0    0    0  501 -0.00000000000E+00 -0.00000000000E+00 -0.85576775826E+03  0.85576870063E+03  0.12700000000E+01 0. -1.
         25    2    1    2    0    0  0.00000000000E+00  0.00000000000E+00 -0.85129236149E+03  0.86042080513E+03  0.12500110872E+03 0.  0.
    9000005    1    3    3    0    0 -0.35080076892E+02 -0.40755268459E+02 -0.20648930448E+03  0.21337862256E+03  0.10000000000E+01 0.  0.
    9000005    1    3    3    0    0  0.35080076892E+02  0.40755268459E+02 -0.64480305700E+03  0.64704218257E+03  0.10000000000E+01 0.  0.
<mgrwt>
<rscale>  0 0.12500111E+03</rscale>
<asrwt>0</asrwt>
<pdfrwt beam="1">  1        4 0.70218865E-03 0.12500111E+03</pdfrwt>
<pdfrwt beam="2">  1       -4 0.13167012E+00 0.12500111E+03</pdfrwt>
<totfact> 0.35703817E+03</totfact>
</mgrwt>
</event>
<event>
 5    1  0.3273105E-002  0.1250000E+03  0.7818608E-02  0.1235069E+00
         -4   -1    0    0    0  501 -0.00000000000E+00  0.00000000000E+00  0.15643982468E+03  0.15644497961E+03  0.12700000000E+01 0.  1.
          4   -1    0    0  501    0  0.00000000000E+00 -0.00000000000E+00 -0.24947963551E+02  0.24980267920E+02  0.12700000000E+01 0.  1.
         25    2    1    2    0    0  0.00000000000E+00  0.00000000000E+00  0.13149186113E+03  0.18142524753E+03  0.12500004359E+03 0.  0.
    9000005    1    3    3    0    0  0.11367593152E+02  0.60126501854E+02  0.47339188324E+02  0.77371940330E+02  0.10000000000E+01 0.  0.
    9000005    1    3    3    0    0 -0.11367593152E+02 -0.60126501854E+02  0.84152672803E+02  0.10405330720E+03  0.10000000000E+01 0.  0.
<mgrwt>
<rscale>  0 0.12500004E+03</rscale>
<asrwt>0</asrwt>
<pdfrwt beam="2">  1        4 0.38410298E-02 0.12500004E+03</pdfrwt>
<pdfrwt beam="1">  1       -4 0.24070546E-01 0.12500004E+03</pdfrwt>
<totfact> 0.93360990E+03</totfact>
</mgrwt>
</event>
<event>
 5    1  0.3273105E-002  0.1250007E+03  0.7818608E-02  0.1235068E+00
         -4   -1    0    0    0  501 -0.00000000000E+00  0.00000000000E+00  0.30518568922E+03  0.30518833170E+03  0.12700000000E+01 0.  1.
          4   -1    0    0  501    0  0.00000000000E+00 -0.00000000000E+00 -0.12765525653E+02  0.12828544157E+02  0.12700000000E+01 0.  1.
         25    2    1    2    0    0  0.00000000000E+00  0.00000000000E+00  0.29242016357E+03  0.31801687586E+03  0.12500072507E+03 0.  0.
    9000005    1    3    3    0    0 -0.37940796506E+02 -0.11173940663E+01  0.19909366855E+02  0.42873482452E+02  0.10000000000E+01 0.  0.
    9000005    1    3    3    0    0  0.37940796506E+02  0.11173940663E+01  0.27251079671E+03  0.27514339341E+03  0.10000000000E+01 0.  0.
<mgrwt>
<rscale>  0 0.12500073E+03</rscale>
<asrwt>0</asrwt>
<pdfrwt beam="2">  1        4 0.19689780E-02 0.12500073E+03</pdfrwt>
<pdfrwt beam="1">  1       -4 0.46956693E-01 0.12500073E+03</pdfrwt>
<totfact> 0.73391434E+03</totfact>
</mgrwt>
</event>
<event>
 5    1  0.3273105E-002  0.1249998E+03  0.7818608E-02  0.1235070E+00
         -4   -1    0    0    0  501 -0.00000000000E+00  0.00000000000E+00  0.47913117968E+02  0.47929946520E+02  0.12700000000E+01 0. -1.
          4   -1    0    0  501    0  0.00000000000E+00 -0.00000000000E+00 -0.81491363348E+02  0.81501258888E+02  0.12700000000E+01 0. -1.
         25    2    1    2    0    0  0.00000000000E+00  0.00000000000E+00 -0.33578245381E+02  0.12943120541E+03  0.12499975348E+03 0.  0.
    9000005    1    3    3    0    0 -0.58192351294E+02  0.21672523618E+02 -0.24051069768E+02  0.66599564459E+02  0.10000000000E+01 0.  0.
    9000005    1    3    3    0    0  0.58192351294E+02 -0.21672523618E+02 -0.95271756122E+01  0.62831640949E+02  0.10000000000E+01 0.  0.
<mgrwt>
<rscale>  0 0.12499975E+03</rscale>
<asrwt>0</asrwt>
<pdfrwt beam="2">  1        4 0.12539189E-01 0.12499975E+03</pdfrwt>
<pdfrwt beam="1">  1       -4 0.73733046E-02 0.12499975E+03</pdfrwt>
<totfact> 0.10356748E+04</totfact>
</mgrwt>
</event>
<event>
 5    1  0.3273105E-002  0.1249929E+03  0.7818608E-02  0.1235080E+00
         -4   -1    0    0    0  501 -0.00000000000E+00  0.00000000000E+00  0.10396374105E+04  0.10396381862E+04  0.12700000000E+01 0.  1.
          4   -1    0    0  501    0  0.00000000000E+00 -0.00000000000E+00 -0.36487614693E+01  0.38634647999E+01  0.12700000000E+01 0.  1.
         25    2    1    2    0    0  0.00000000000E+00  0.00000000000E+00  0.10359886490E+04  0.10435016510E+04  0.12499285869E+03 0.  0.
    9000005    1    3    3    0    0  0.37037473899E+02 -0.50327293209E+02  0.51432890400E+03  0.51811179528E+03  0.10000000000E+01 0.  0.
    9000005    1    3    3    0    0 -0.37037473899E+02  0.50327293209E+02  0.52165974498E+03  0.52538985568E+03  0.10000000000E+01 0.  0.
<mgrwt>
<rscale>  0 0.12499286E+03</rscale>
<asrwt>0</asrwt>
<pdfrwt beam="2">  1        4 0.57792328E-03 0.12499286E+03</pdfrwt>
<pdfrwt beam="1">  1       -4 0.15996078E+00 0.12499286E+03</pdfrwt>
<totfact> 0.29203092E+03</totfact>
</mgrwt>
</event>
<event>
 5    1  0.3273105E-002  0.1250000E+03  0.7818608E-02  0.1235069E+00
          4   -1    0    0  501    0  0.00000000000E+00  0.00000000000E+00  0.35422560768E+03  0.35422788433E+03  0.12700000000E+01 0.  1.
         -4   -1    0    0    0  501 -0.00000000000E+00 -0.00000000000E+00 -0.10988699400E+02  0.11061844986E+02  0.12700000000E+01 0.  1.
         25    2    1    2    0    0  0.00000000000E+00  0.00000000000E+00  0.34323690828E+03  0.36528972931E+03  0.12500004455E+03 0.  0.
    9000005    1    3    3    0    0 -0.53509088046E+02  0.29603401820E+02  0.20923230202E+03  0.21798793570E+03  0.10000000000E+01 0.  0.
    9000005    1    3    3    0    0  0.53509088046E+02 -0.29603401820E+02  0.13400460626E+03  0.14730179361E+03  0.10000000000E+01 0.  0.
<mgrwt>
<rscale>  0 0.12500004E+03</rscale>
<asrwt>0</asrwt>
<pdfrwt beam="1">  1        4 0.54502042E-01 0.12500004E+03</pdfrwt>
<pdfrwt beam="2">  1       -4 0.16963711E-02 0.12500004E+03</pdfrwt>
<totfact> 0.68074551E+03</totfact>
</mgrwt>
</event>
<event>
 5    1  0.3273105E-002  0.1250013E+03  0.7818608E-02  0.1235067E+00
          4   -1    0    0  501    0  0.00000000000E+00  0.00000000000E+00  0.47905936373E+03  0.47906104713E+03  0.12700000000E+01 0.  1.
         -4   -1    0    0    0  501 -0.00000000000E+00 -0.00000000000E+00 -0.81030063974E+01  0.82019273757E+01  0.12700000000E+01 0.  1.
         25    2    1    2    0    0  0.00000000000E+00  0.00000000000E+00  0.47095635734E+03  0.48726297451E+03  0.12500126324E+03 0.  0.
    9000005    1    3    3    0    0 -0.60109940836E+02 -0.15969505196E+02  0.25922083730E+03  0.26657958019E+03  0.10000000000E+01 0.  0.
    9000005    1    3    3    0    0  0.60109940836E+02  0.15969505196E+02  0.21173552004E+03  0.22068339432E+03  0.10000000000E+01 0.  0.
<mgrwt>
<rscale>  0 0.12500126E+03</rscale>
<asrwt>0</asrwt>
<pdfrwt beam="1">  1        4 0.73709187E-01 0.12500126E+03</pdfrwt>
<pdfrwt beam="2">  1       -4 0.12543550E-02 0.12500126E+03</pdfrwt>
<totfact> 0.56864739E+03</totfact>
</mgrwt>
</event>
<event>
 5    1  0.3273105E-002  0.1250015E+03  0.7818608E-02  0.1235067E+00
          4   -1    0    0  501    0  0.00000000000E+00  0.00000000000E+00  0.21812689103E+02  0.21849629423E+02  0.12700000000E+01 0. -1.
         -4   -1    0    0    0  501 -0.00000000000E+00 -0.00000000000E+00 -0.17889513131E+03  0.17889963920E+03  0.12700000000E+01 0. -1.
         25    2    1    2    0    0  0.00000000000E+00  0.00000000000E+00 -0.15708244220E+03  0.20074926862E+03  0.12500150081E+03 0.  0.
    9000005    1    3    3    0    0  0.61464961745E+02 -0.11190437615E+02 -0.80910447480E+02  0.10222850839E+03  0.10000000000E+01 0.  0.
    9000005    1    3    3    0    0 -0.61464961745E+02  0.11190437615E+02 -0.76171994724E+02  0.98520760232E+02  0.10000000000E+01 0.  0.
<mgrwt>
<rscale>  0 0.12500150E+03</rscale>
<asrwt>0</asrwt>
<pdfrwt beam="1">  1        4 0.33589868E-02 0.12500150E+03</pdfrwt>
<pdfrwt beam="2">  1       -4 0.27525515E-01 0.12500150E+03</pdfrwt>
<totfact> 0.90006268E+03</totfact>
</mgrwt>
</event>
<event>
 5    1  0.3273105E-002  0.1249997E+03  0.7818608E-02  0.1235070E+00
          4   -1    0    0  501    0  0.00000000000E+00  0.00000000000E+00  0.43104392546E+01  0.44936384554E+01  0.12700000000E+01 0.  1.
         -4   -1    0    0    0  501 -0.00000000000E+00 -0.00000000000E+00 -0.88718467324E+03  0.88718558224E+03  0.12700000000E+01 0.  1.
         25    2    1    2    0    0  0.00000000000E+00  0.00000000000E+00 -0.88287423399E+03  0.89167922070E+03  0.12499967833E+03 0.  0.
    9000005    1    3    3    0    0  0.42224489258E+02  0.30529253951E+02 -0.68754504613E+03  0.68951731907E+03  0.10000000000E+01 0.  0.
    9000005    1    3    3    0    0 -0.42224489258E+02 -0.30529253951E+02 -0.19532918786E+03  0.20216190162E+03  0.10000000000E+01 0.  0.
<mgrwt>
<rscale>  0 0.12499968E+03</rscale>
<asrwt>0</asrwt>
<pdfrwt beam="1">  1        4 0.67730738E-03 0.12499968E+03</pdfrwt>
<pdfrwt beam="2">  1       -4 0.13650397E+00 0.12499968E+03</pdfrwt>
<totfact> 0.34479977E+03</totfact>
</mgrwt>
</event>
<event>
 5    1  0.3273105E-002  0.1249941E+03  0.7818608E-02  0.1235078E+00
          4   -1    0    0  501    0  0.00000000000E+00  0.00000000000E+00  0.27241091548E+02  0.27270679653E+02  0.12700000000E+01 0.  1.
         -4   -1    0    0    0  501 -0.00000000000E+00 -0.00000000000E+00 -0.14327175777E+03  0.14327738647E+03  0.12700000000E+01 0.  1.
         25    2    1    2    0    0  0.00000000000E+00  0.00000000000E+00 -0.11603066622E+03  0.17054806612E+03  0.12499410928E+03 0.  0.
    9000005    1    3    3    0    0  0.52945367730E+02 -0.32709081393E+02 -0.65707953439E+02  0.90507630147E+02  0.10000000000E+01 0.  0.
    9000005    1    3    3    0    0 -0.52945367730E+02  0.32709081393E+02 -0.50322712779E+02  0.80040435975E+02  0.10000000000E+01 0.  0.
<mgrwt>
<rscale>  0 0.12499411E+03</rscale>
<asrwt>0</asrwt>
<pdfrwt beam="1">  1        4 0.41936462E-02 0.12499411E+03</pdfrwt>
<pdfrwt beam="2">  1       -4 0.22044517E-01 0.12499411E+03</pdfrwt>
<totfact> 0.95359190E+03</totfact>
</mgrwt>
</event>
<event>
 5    1  0.3273105E-002  0.1250024E+03  0.7818608E-02  0.1235066E+00
         -4   -1    0    0    0  501 -0.00000000000E+00  0.00000000000E+00  0.43995558919E+02  0.44013885361E+02  0.12700000000E+01 0. -1.
          4   -1    0    0  501    0  0.00000000000E+00 -0.00000000000E+00 -0.88749400383E+02  0.88758486740E+02  0.12700000000E+01 0. -1.
         25    2    1    2    0    0  0.00000000000E+00  0.00000000000E+00 -0.44753841464E+02  0.13277237210E+03  0.12500238585E+03 0.  0.
    9000005    1    3    3    0    0 -0.20786643630E+02  0.45505204159E+02 -0.62156018588E+02  0.79794603863E+02  0.10000000000E+01 0.  0.
    9000005    1    3    3    0    0  0.20786643630E+02 -0.45505204159E+02  0.17402177123E+02  0.52977768239E+02  0.10000000000E+01 0.  0.
<mgrwt>
<rscale>  0 0.12500239E+03</rscale>
<asrwt>0</asrwt>
<pdfrwt beam="2">  1        4 0.13655863E-01 0.12500239E+03</pdfrwt>
<pdfrwt beam="1">  1       -4 0.67706562E-02 0.12500239E+03</pdfrwt>
<totfact> 0.10284687E+04</totfact>
</mgrwt>
</event>
<event>
 5    1  0.3273105E-002  0.1250003E+03  0.7818608E-02  0.1235069E+00
          4   -1    0    0  501    0  0.00000000000E+00  0.00000000000E+00  0.13064600094E+03  0.13065217358E+03  0.12700000000E+01 0.  1.
         -4   -1    0    0    0  501 -0.00000000000E+00 -0.00000000000E+00 -0.29879253142E+02  0.29906231262E+02  0.12700000000E+01 0.  1.
         25    2    1    2    0    0  0.00000000000E+00  0.00000000000E+00  0.10076674780E+03  0.16055840485E+03  0.12500025562E+03 0.  0.
    9000005    1    3    3    0    0 -0.43511961759E+02 -0.18015915966E+02 -0.23798610586E+01  0.47164899903E+02  0.10000000000E+01 0.  0.
    9000005    1    3    3    0    0  0.43511961759E+02  0.18015915966E+02  0.10314660886E+03  0.11339350494E+03  0.10000000000E+01 0.  0.
<mgrwt>
<rscale>  0 0.12500026E+03</rscale>
<asrwt>0</asrwt>
<pdfrwt beam="1">  1        4 0.20101935E-01 0.12500026E+03</pdfrwt>
<pdfrwt beam="2">  1       -4 0.45993582E-02 0.12500026E+03</pdfrwt>
<totfact> 0.97234678E+03</totfact>
</mgrwt>
</event>
<event>
 5    1  0.3273105E-002  0.1249982E+03  0.7818608E-02  0.1235072E+00
         -4   -1    0    0    0  501 -0.00000000000E+00  0.00000000000E+00  0.44799732419E+01  0.46565073014E+01  0.12700000000E+01 0. -1.
          4   -1    0    0  501    0  0.00000000000E+00 -0.00000000000E+00 -0.85488668475E+03  0.85488762810E+03  0.12700000000E+01 0. -1.
         25    2    1    2    0    0  0.00000000000E+00  0.00000000000E+00 -0.85040671151E+03  0.85954413540E+03  0.12499818282E+03 0.  0.
    9000005    1    3    3    0    0  0.41962038940E+02 -0.20756602738E+02 -0.70984924025E+03  0.71139201089E+03  0.10000000000E+01 0.  0.
    9000005    1    3    3    0    0 -0.41962038940E+02  0.20756602738E+02 -0.14055747126E+03  0.14815212451E+03  0.10000000000E+01 0.  0.
<mgrwt>
<rscale>  0 0.12499818E+03</rscale>
<asrwt>0</asrwt>
<pdfrwt beam="2">  1        4 0.13153455E+00 0.12499818E+03</pdfrwt>
<pdfrwt beam="1">  1       -4 0.70287944E-03 0.12499818E+03</pdfrwt>
<totfact> 0.35741371E+03</totfact>
</mgrwt>
</event>
<event>
 5    1  0.3273105E-002  0.1250048E+03  0.7818608E-02  0.1235062E+00
          4   -1    0    0  501    0  0.00000000000E+00  0.00000000000E+00  0.39456082921E+03  0.39456287312E+03  0.12700000000E+01 0. -1.
         -4   -1    0    0    0  501 -0.00000000000E+00 -0.00000000000E+00 -0.98582023677E+01  0.99396707150E+01  0.12700000000E+01 0. -1.
         25    2    1    2    0    0  0.00000000000E+00  0.00000000000E+00  0.38470262684E+03  0.40450254384E+03  0.12500478740E+03 0.  0.
    9000005    1    3    3    0    0 -0.93719479846E+01  0.44028812862E+02  0.52076810552E+02  0.68843038634E+02  0.10000000000E+01 0.  0.
    9000005    1    3    3    0    0  0.93719479846E+01 -0.44028812862E+02  0.33262581629E+03  0.33565950521E+03  0.10000000000E+01 0.  0.
<mgrwt>
<rscale>  0 0.12500479E+03</rscale>
<asrwt>0</asrwt>
<pdfrwt beam="1">  1        4 0.60708083E-01 0.12500479E+03</pdfrwt>
<pdfrwt beam="2">  1       -4 0.15230707E-02 0.12500479E+03</pdfrwt>
<totfact> 0.64110448E+03</totfact>
</mgrwt>
</event>
<event>
 5    1  0.3273105E-002  0.1250069E+03  0.7818608E-02  0.1235059E+00
          4   -1    0    0  501    0  0.00000000000E+00  0.00000000000E+00  0.31316896023E+02  0.31342636720E+02  0.12700000000E+01 0.  1.
         -4   -1    0    0    0  501 -0.00000000000E+00 -0.00000000000E+00 -0.12466647610E+03  0.12467294479E+03  0.12700000000E+01 0.  1.
         25    2    1    2    0    0  0.00000000000E+00  0.00000000000E+00 -0.93349580076E+02  0.15601558151E+03  0.12500687011E+03 0.  0.
    9000005    1    3    3    0    0 -0.29014573747E+02 -0.38043858928E+02  0.35041834476E+01  0.47983955584E+02  0.10000000000E+01 0.  0.
    9000005    1    3    3    0    0  0.29014573747E+02  0.38043858928E+02 -0.96853763523E+02  0.10803162593E+03  0.10000000000E+01 0.  0.
<mgrwt>
<rscale>  0 0.12500687E+03</rscale>
<asrwt>0</asrwt>
<pdfrwt beam="1">  1        4 0.48204617E-02 0.12500687E+03</pdfrwt>
<pdfrwt beam="2">  1       -4 0.19181935E-01 0.12500687E+03</pdfrwt>
<totfact> 0.98101339E+03</totfact>
</mgrwt>
</event>
<event>
 5    1  0.3273105E-002  0.1250048E+03  0.7818608E-02  0.1235062E+00
          4   -1    0    0  501    0  0.00000000000E+00  0.00000000000E+00  0.28386271356E+01  0.31097755570E+01  0.12700000000E+01 0. -1.
         -4   -1    0    0    0  501 -0.00000000000E+00 -0.00000000000E+00 -0.13132072092E+04  0.13132078233E+04  0.12700000000E+01 0. -1.
         25    2    1    2    0    0  0.00000000000E+00  0.00000000000E+00 -0.13103685820E+04  0.13163175988E+04  0.12500480078E+03 0.  0.
    9000005    1    3    3    0    0  0.54432837121E+02 -0.30592950342E+02 -0.62795276660E+03  0.63105034621E+03  0.10000000000E+01 0.  0.
    9000005    1    3    3    0    0 -0.54432837121E+02  0.30592950342E+02 -0.68241581543E+03  0.68526725262E+03  0.10000000000E+01 0.  0.
<mgrwt>
<rscale>  0 0.12500480E+03</rscale>
<asrwt>0</asrwt>
<pdfrwt beam="1">  1        4 0.45761773E-03 0.12500480E+03</pdfrwt>
<pdfrwt beam="2">  1       -4 0.20205232E+00 0.12500480E+03</pdfrwt>
<totfact> 0.21844422E+03</totfact>
</mgrwt>
</event>
<event>
 5    1  0.3273105E-002  0.1249981E+03  0.7818608E-02  0.1235072E+00
          4   -1    0    0  501    0  0.00000000000E+00  0.00000000000E+00  0.78045670188E+01  0.79072224169E+01  0.12700000000E+01 0. -1.
         -4   -1    0    0    0  501 -0.00000000000E+00 -0.00000000000E+00 -0.49711986251E+03  0.49712148475E+03  0.12700000000E+01 0. -1.
         25    2    1    2    0    0  0.00000000000E+00  0.00000000000E+00 -0.48931529549E+03  0.50502870716E+03  0.12499814664E+03 0.  0.
    9000005    1    3    3    0    0  0.18138292881E+02  0.59038388338E+02 -0.20619943903E+03  0.21525272965E+03  0.10000000000E+01 0.  0.
    9000005    1    3    3    0    0 -0.18138292881E+02 -0.59038388338E+02 -0.28311585645E+03  0.28977597751E+03  0.10000000000E+01 0.  0.
<mgrwt>
<rscale>  0 0.12499815E+03</rscale>
<asrwt>0</asrwt>
<pdfrwt beam="1">  1        4 0.12087244E-02 0.12499815E+03</pdfrwt>
<pdfrwt beam="2">  1       -4 0.76487976E-01 0.12499815E+03</pdfrwt>
<totfact> 0.55478572E+03</totfact>
</mgrwt>
</event>
<event>
 5    1  0.3273105E-002  0.1249984E+03  0.7818608E-02  0.1235072E+00
         -4   -1    0    0    0  501 -0.00000000000E+00  0.00000000000E+00  0.59731935467E+01  0.61067127938E+01  0.12700000000E+01 0. -1.
          4   -1    0    0  501    0  0.00000000000E+00 -0.00000000000E+00 -0.64658429443E+03  0.64658554168E+03  0.12700000000E+01 0. -1.
         25    2    1    2    0    0  0.00000000000E+00  0.00000000000E+00 -0.64061110088E+03  0.65269225447E+03  0.12499838587E+03 0.  0.
    9000005    1    3    3    0    0 -0.33220374912E+02 -0.43235493704E+02 -0.47973544508E+03  0.48282501850E+03  0.10000000000E+01 0.  0.
    9000005    1    3    3    0    0  0.33220374912E+02  0.43235493704E+02 -0.16087565580E+03  0.16986723597E+03  0.10000000000E+01 0.  0.
<mgrwt>
<rscale>  0 0.12499839E+03</rscale>
<asrwt>0</asrwt>
<pdfrwt beam="2">  1        4 0.99484819E-01 0.12499839E+03</pdfrwt>
<pdfrwt beam="1">  1       -4 0.92932002E-03 0.12499839E+03</pdfrwt>
<totfact> 0.45703361E+03</totfact>
</mgrwt>
</event>
<event>
 5    1  0.3273105E-002  0.1250272E+03  0.7818608E-02  0.1235027E+00
         -4   -1    0    0    0  501 -0.00000000000E+00  0.00000000000E+00  0.67504322367E+02  0.67516267953E+02  0.12700000000E+01 0.  1.
          4   -1    0    0  501    0  0.00000000000E+00 -0.00000000000E+00 -0.57867819756E+02  0.57881754149E+02  0.12700000000E+01 0.  1.
         25    2    1    2    0    0  0.00000000000E+00  0.00000000000E+00  0.96365026113E+01  0.12539802210E+03  0.12502720410E+03 0.  0.
    9000005    1    3    3    0    0 -0.26763133288E+02 -0.20499643711E+02 -0.47972920889E+02  0.58642150662E+02  0.10000000000E+01 0.  0.
    9000005    1    3    3    0    0  0.26763133288E+02  0.20499643711E+02  0.57609423500E+02  0.66755871440E+02  0.10000000000E+01 0.  0.
<mgrwt>
<rscale>  0 0.12502720E+03</rscale>
<asrwt>0</asrwt>
<pdfrwt beam="2">  1        4 0.89047323E-02 0.12502720E+03</pdfrwt>
<pdfrwt beam="1">  1       -4 0.10387271E-01 0.12502720E+03</pdfrwt>
<totfact> 0.10437805E+04</totfact>
</mgrwt>
</event>
<event>
 5    1  0.3273105E-002  0.1249626E+03  0.7818608E-02  0.1235128E+00
          4   -1    0    0  501    0  0.00000000000E+00  0.00000000000E+00  0.20406717878E+02  0.20446198535E+02  0.12700000000E+01 0.  1.
         -4   -1    0    0    0  501 -0.00000000000E+00 -0.00000000000E+00 -0.19107894628E+03  0.19108316674E+03  0.12700000000E+01 0.  1.
         25    2    1    2    0    0  0.00000000000E+00  0.00000000000E+00 -0.17067222841E+03  0.21152936528E+03  0.12496264572E+03 0.  0.
    9000005    1    3    3    0    0 -0.15817525201E+02  0.59250617458E+02 -0.10551355110E+03  0.12204482471E+03  0.10000000000E+01 0.  0.
    9000005    1    3    3    0    0  0.15817525201E+02 -0.59250617458E+02 -0.65158677305E+02  0.89484540569E+02  0.10000000000E+01 0.  0.
<mgrwt>
<rscale>  0 0.12496265E+03</rscale>
<asrwt>0</asrwt>
<pdfrwt beam="1">  1        4 0.31428568E-02 0.12496265E+03</pdfrwt>
<pdfrwt beam="2">  1       -4 0.29400121E-01 0.12496265E+03</pdfrwt>
<totfact> 0.88300433E+03</totfact>
</mgrwt>
</event>
<event>
 5    1  0.3273105E-002  0.1250010E+03  0.7818608E-02  0.1235068E+00
          4   -1    0    0  501    0  0.00000000000E+00  0.00000000000E+00  0.11285930819E+02  0.11357162254E+02  0.12700000000E+01 0. -1.
         -4   -1    0    0    0  501 -0.00000000000E+00 -0.00000000000E+00 -0.34496112234E+03  0.34496346013E+03  0.12700000000E+01 0. -1.
         25    2    1    2    0    0  0.00000000000E+00  0.00000000000E+00 -0.33367519152E+03  0.35632062239E+03  0.12500101000E+03 0.  0.
    9000005    1    3    3    0    0 -0.21149102927E+02  0.58610178274E+02 -0.15320390531E+03  0.16539308980E+03  0.10000000000E+01 0.  0.
    9000005    1    3    3    0    0  0.21149102927E+02 -0.58610178274E+02 -0.18047128622E+03  0.19092753259E+03  0.10000000000E+01 0.  0.
<mgrwt>
<rscale>  0 0.12500101E+03</rscale>
<asrwt>0</asrwt>
<pdfrwt beam="1">  1        4 0.17419565E-02 0.12500101E+03</pdfrwt>
<pdfrwt beam="2">  1       -4 0.53076593E-01 0.12500101E+03</pdfrwt>
<totfact> 0.69033223E+03</totfact>
</mgrwt>
</event>
<event>
 5    1  0.3273105E-002  0.1249994E+03  0.7818608E-02  0.1235070E+00
         -4   -1    0    0    0  501 -0.00000000000E+00  0.00000000000E+00  0.65050603092E+03  0.65050727064E+03  0.12700000000E+01 0. -1.
          4   -1    0    0  501    0  0.00000000000E+00 -0.00000000000E+00 -0.59364759267E+01  0.60708027828E+01  0.12700000000E+01 0. -1.
         25    2    1    2    0    0  0.00000000000E+00  0.00000000000E+00  0.64456955499E+03  0.65657807343E+03  0.12499942113E+03 0.  0.
    9000005    1    3    3    0    0  0.12133341414E+02 -0.32526739553E+02  0.59522077809E+03  0.59623316029E+03  0.10000000000E+01 0.  0.
    9000005    1    3    3    0    0 -0.12133341414E+02  0.32526739553E+02  0.49348776904E+02  0.60344913139E+02  0.10000000000E+01 0.  0.
<mgrwt>
<rscale>  0 0.12499942E+03</rscale>
<asrwt>0</asrwt>
<pdfrwt beam="2">  1        4 0.92373185E-03 0.12499942E+03</pdfrwt>
<pdfrwt beam="1">  1       -4 0.10008832E+00 0.12499942E+03</pdfrwt>
<totfact> 0.45480426E+03</totfact>
</mgrwt>
</event>
<event>
 5    1  0.3273105E-002  0.1249920E+03  0.7818608E-02  0.1235082E+00
         -4   -1    0    0    0  501 -0.00000000000E+00  0.00000000000E+00  0.38741170202E+01  0.40769697922E+01  0.12700000000E+01 0.  1.
          4   -1    0    0  501    0  0.00000000000E+00 -0.00000000000E+00 -0.98224040528E+03  0.98224122632E+03  0.12700000000E+01 0.  1.
         25    2    1    2    0    0  0.00000000000E+00  0.00000000000E+00 -0.97836628826E+03  0.98631819611E+03  0.12499195958E+03 0.  0.
    9000005    1    3    3    0    0 -0.10117856468E+02 -0.60100427558E+02 -0.38032233270E+03  0.38517594572E+03  0.10000000000E+01 0.  0.
    9000005    1    3    3    0    0  0.10117856468E+02  0.60100427558E+02 -0.59804395556E+03  0.60114225039E+03  0.10000000000E+01 0.  0.
<mgrwt>
<rscale>  0 0.12499196E+03</rscale>
<asrwt>0</asrwt>
<pdfrwt beam="2">  1        4 0.15112938E+00 0.12499196E+03</pdfrwt>
<pdfrwt beam="1">  1       -4 0.61168600E-03 0.12499196E+03</pdfrwt>
<totfact> 0.31066074E+03</totfact>
</mgrwt>
</event>
<event>
 5    1  0.3273105E-002  0.1249984E+03  0.7818608E-02  0.1235072E+00
         -4   -1    0    0    0  501 -0.00000000000E+00  0.00000000000E+00  0.12257668710E+03  0.12258326607E+03  0.12700000000E+01 0. -1.
          4   -1    0    0  501    0  0.00000000000E+00 -0.00000000000E+00 -0.31846918062E+02  0.31872230704E+02  0.12700000000E+01 0. -1.
         25    2    1    2    0    0  0.00000000000E+00  0.00000000000E+00  0.90729769038E+02  0.15445549677E+03  0.12499843797E+03 0.  0.
    9000005    1    3    3    0    0 -0.35165887033E+02  0.43356473716E+02  0.80067537185E+02  0.97612673023E+02  0.10000000000E+01 0.  0.
    9000005    1    3    3    0    0  0.35165887033E+02 -0.43356473716E+02  0.10662231853E+02  0.56842823751E+02  0.10000000000E+01 0.  0.
<mgrwt>
<rscale>  0 0.12499844E+03</rscale>
<asrwt>0</asrwt>
<pdfrwt beam="2">  1        4 0.49019790E-02 0.12499844E+03</pdfrwt>
<pdfrwt beam="1">  1       -4 0.18860405E-01 0.12499844E+03</pdfrwt>
<totfact> 0.98425955E+03</totfact>
</mgrwt>
</event>
<event>
 4    1  0.3273105E-002  0.1248537E+03  0.7818608E-02  0.1235298E+00
         -4   -1    0    0    0  501 -0.00000000000E+00  0.00000000000E+00  0.19872171226E+02  0.19912711750E+02  0.12700000000E+01 0.  1.
          4   -1    0    0  501    0  0.00000000000E+00 -0.00000000000E+00 -0.19586644244E+03  0.19587055974E+03  0.12700000000E+01 0.  1.
    9000005    1    1    2    0    0  0.37247618363E+01 -0.39048815707E+02 -0.17191133652E+03  0.17633261605E+03  0.10000000000E+01 0.  0.
    9000005    1    1    2    0    0 -0.37247618363E+01  0.39048815707E+02 -0.40829346893E+01  0.39450655438E+02  0.10000000000E+01 0.  0.
<mgrwt>
<rscale>  0 0.12485366E+03</rscale>
<asrwt>0</asrwt>
<pdfrwt beam="2">  1        4 0.30136733E-01 0.12485366E+03</pdfrwt>
<pdfrwt beam="1">  1       -4 0.30606925E-02 0.12485366E+03</pdfrwt>
<totfact> 0.87826888E+03</totfact>
</mgrwt>
</event>
<event>
 5    1  0.3273105E-002  0.1250043E+03  0.7818608E-02  0.1235063E+00
          4   -1    0    0  501    0  0.00000000000E+00  0.00000000000E+00  0.15728438987E+02  0.15779629051E+02  0.12700000000E+01 0.  1.
         -4   -1    0    0    0  501 -0.00000000000E+00 -0.00000000000E+00 -0.24791649197E+03  0.24791974486E+03  0.12700000000E+01 0.  1.
         25    2    1    2    0    0  0.00000000000E+00  0.00000000000E+00 -0.23218805299E+03  0.26369937391E+03  0.12500427134E+03 0.  0.
    9000005    1    3    3    0    0 -0.38051023549E+02 -0.33367578750E+02 -0.38750698339E+02  0.63748665292E+02  0.10000000000E+01 0.  0.
    9000005    1    3    3    0    0  0.38051023549E+02  0.33367578750E+02 -0.19343735465E+03  0.19995070862E+03  0.10000000000E+01 0.  0.
<mgrwt>
<rscale>  0 0.12500427E+03</rscale>
<asrwt>0</asrwt>
<pdfrwt beam="1">  1        4 0.24239479E-02 0.12500427E+03</pdfrwt>
<pdfrwt beam="2">  1       -4 0.38145184E-01 0.12500427E+03</pdfrwt>
<totfact> 0.80382054E+03</totfact>
</mgrwt>
</event>
<event>
 5    1  0.3273105E-002  0.1249887E+03  0.7818608E-02  0.1235087E+00
          4   -1    0    0  501    0  0.00000000000E+00  0.00000000000E+00  0.27977561683E+02  0.28006371735E+02  0.12700000000E+01 0. -1.
         -4   -1    0    0    0  501 -0.00000000000E+00 -0.00000000000E+00 -0.13949212783E+03  0.13949790904E+03  0.12700000000E+01 0. -1.
         25    2    1    2    0    0  0.00000000000E+00  0.00000000000E+00 -0.11151456615E+03  0.16750428077E+03  0.12498874195E+03 0.  0.
    9000005    1    3    3    0    0 -0.37207424941E+02 -0.17802963627E+02 -0.11866194098E+03  0.12563038734E+03  0.10000000000E+01 0.  0.
    9000005    1    3    3    0    0  0.37207424941E+02  0.17802963627E+02  0.71473748356E+01  0.41873893438E+02  0.10000000000E+01 0.  0.
<mgrwt>
<rscale>  0 0.12498874E+03</rscale>
<asrwt>0</asrwt>
<pdfrwt beam="1">  1        4 0.43069012E-02 0.12498874E+03</pdfrwt>
<pdfrwt beam="2">  1       -4 0.21462988E-01 0.12498874E+03</pdfrwt>
<totfact> 0.95939468E+03</totfact>
</mgrwt>
</event>
<event>
 5    1  0.3273105E-002  0.1249989E+03  0.7818608E-02  0.1235071E+00
          4   -1    0    0  501    0  0.00000000000E+00  0.00000000000E+00  0.11123192874E+02  0.11195459781E+02  0.12700000000E+01 0. -1.
         -4   -1    0    0    0  501 -0.00000000000E+00 -0.00000000000E+00 -0.34996388676E+03  0.34996619113E+03  0.12700000000E+01 0. -1.
         25    2    1    2    0    0  0.00000000000E+00  0.00000000000E+00 -0.33884069388E+03  0.36116165091E+03  0.12499888902E+03 0.  0.
    9000005    1    3    3    0    0  0.48893417920E+02  0.28121069117E+02 -0.91686406718E+02  0.10765109391E+03  0.10000000000E+01 0.  0.
    9000005    1    3    3    0    0 -0.48893417920E+02 -0.28121069117E+02 -0.24715428716E+03  0.25351055699E+03  0.10000000000E+01 0.  0.
<mgrwt>
<rscale>  0 0.12499889E+03</rscale>
<asrwt>0</asrwt>
<pdfrwt beam="1">  1        4 0.17169970E-02 0.12499889E+03</pdfrwt>
<pdfrwt beam="2">  1       -4 0.53846326E-01 0.12499889E+03</pdfrwt>
<totfact> 0.68515531E+03</totfact>
</mgrwt>
</event>
<event>
 5    1  0.3273105E-002  0.1250018E+03  0.7818608E-02  0.1235067E+00
          4   -1    0    0  501    0  0.00000000000E+00  0.00000000000E+00  0.33745318278E+03  0.33745557259E+03  0.12700000000E+01 0. -1.
         -4   -1    0    0    0  501 -0.00000000000E+00 -0.00000000000E+00 -0.11538733593E+02  0.11608413885E+02  0.12700000000E+01 0. -1.
         25    2    1    2    0    0  0.00000000000E+00  0.00000000000E+00  0.32591444919E+03  0.34906398647E+03  0.12500175383E+03 0.  0.
    9000005    1    3    3    0    0 -0.60277151718E+01  0.47004476764E+02  0.27671769030E+03  0.28074799075E+03  0.10000000000E+01 0.  0.
    9000005    1    3    3    0    0  0.60277151718E+01 -0.47004476764E+02  0.49196758891E+02  0.68315995721E+02  0.10000000000E+01 0.  0.
<mgrwt>
<rscale>  0 0.12500175E+03</rscale>
<asrwt>0</asrwt>
<pdfrwt beam="1">  1        4 0.51921421E-01 0.12500175E+03</pdfrwt>
<pdfrwt beam="2">  1       -4 0.17807336E-02 0.12500175E+03</pdfrwt>
<totfact> 0.69824938E+03</totfact>
</mgrwt>
</event>
<event>
 5    1  0.3273105E-002  0.1250012E+03  0.7818608E-02  0.1235067E+00
          4   -1    0    0  501    0  0.00000000000E+00  0.00000000000E+00  0.27480183167E+03  0.27480476631E+03  0.12700000000E+01 0. -1.
         -4   -1    0    0    0  501 -0.00000000000E+00 -0.00000000000E+00 -0.14183682767E+02  0.14240426848E+02  0.12700000000E+01 0. -1.
         25    2    1    2    0    0  0.00000000000E+00  0.00000000000E+00  0.26061814890E+03  0.28904519316E+03  0.12500121660E+03 0.  0.
    9000005    1    3    3    0    0  0.14657451037E+02 -0.31474202362E+02  0.10159534026E+02  0.36189534631E+02  0.10000000000E+01 0.  0.
    9000005    1    3    3    0    0 -0.14657451037E+02  0.31474202362E+02  0.25045861487E+03  0.25285565853E+03  0.10000000000E+01 0.  0.
<mgrwt>
<rscale>  0 0.12500122E+03</rscale>
<asrwt>0</asrwt>
<pdfrwt beam="1">  1        4 0.42281797E-01 0.12500122E+03</pdfrwt>
<pdfrwt beam="2">  1       -4 0.21866956E-02 0.12500122E+03</pdfrwt>
<totfact> 0.76991779E+03</totfact>
</mgrwt>
</event>
<event>
 5    1  0.3273105E-002  0.1250120E+03  0.7818608E-02  0.1235050E+00
         -4   -1    0    0    0  501 -0.00000000000E+00  0.00000000000E+00  0.44781787994E+02  0.44799792811E+02  0.12700000000E+01 0. -1.
          4   -1    0    0  501    0  0.00000000000E+00 -0.00000000000E+00 -0.87205190346E+02  0.87214437585E+02  0.12700000000E+01 0. -1.
         25    2    1    2    0    0  0.00000000000E+00  0.00000000000E+00 -0.42423402352E+02  0.13201423040E+03  0.12501204726E+03 0.  0.
    9000005    1    3    3    0    0  0.51690946429E+01 -0.53756877624E+02 -0.54429643985E+02  0.76681859495E+02  0.10000000000E+01 0.  0.
    9000005    1    3    3    0    0 -0.51690946429E+01  0.53756877624E+02  0.12006241632E+02  0.55332370901E+02  0.10000000000E+01 0.  0.
<mgrwt>
<rscale>  0 0.12501205E+03</rscale>
<asrwt>0</asrwt>
<pdfrwt beam="2">  1        4 0.13418279E-01 0.12501205E+03</pdfrwt>
<pdfrwt beam="1">  1       -4 0.68916022E-02 0.12501205E+03</pdfrwt>
<totfact> 0.10298596E+04</totfact>
</mgrwt>
</event>
<event>
 5    1  0.3273105E-002  0.1249983E+03  0.7818608E-02  0.1235072E+00
          4   -1    0    0  501    0  0.00000000000E+00  0.00000000000E+00  0.52370821338E+02  0.52386217917E+02  0.12700000000E+01 0.  1.
         -4   -1    0    0    0  501 -0.00000000000E+00 -0.00000000000E+00 -0.74554484298E+02  0.74565300435E+02  0.12700000000E+01 0.  1.
         25    2    1    2    0    0  0.00000000000E+00  0.00000000000E+00 -0.22183662960E+02  0.12695151835E+03  0.12499829243E+03 0.  0.
    9000005    1    3    3    0    0  0.12476483041E+02 -0.60479708808E+02 -0.20816707622E+02  0.65175095879E+02  0.10000000000E+01 0.  0.
    9000005    1    3    3    0    0 -0.12476483041E+02  0.60479708808E+02 -0.13669553372E+01  0.61776422473E+02  0.10000000000E+01 0.  0.
<mgrwt>
<rscale>  0 0.12499829E+03</rscale>
<asrwt>0</asrwt>
<pdfrwt beam="1">  1        4 0.80590658E-02 0.12499829E+03</pdfrwt>
<pdfrwt beam="2">  1       -4 0.11471937E-01 0.12499829E+03</pdfrwt>
<totfact> 0.10410600E+04</totfact>
</mgrwt>
</event>
<event>
 5    1  0.3273105E-002  0.1250031E+03  0.7818608E-02  0.1235064E+00
         -4   -1    0    0    0  501 -0.00000000000E+00  0.00000000000E+00  0.62140392549E+03  0.62140522327E+03  0.12700000000E+01 0.  1.
          4   -1    0    0  501    0  0.00000000000E+00 -0.00000000000E+00 -0.62210190841E+01  0.63493289759E+01  0.12700000000E+01 0.  1.
         25    2    1    2    0    0  0.00000000000E+00  0.00000000000E+00  0.61518290640E+03  0.62775455225E+03  0.12500307812E+03 0.  0.
    9000005    1    3    3    0    0  0.44083237502E+02  0.19842986161E+02  0.10871061761E+03  0.11897930202E+03  0.10000000000E+01 0.  0.
    9000005    1    3    3    0    0 -0.44083237502E+02 -0.19842986161E+02  0.50647228879E+03  0.50877525022E+03  0.10000000000E+01 0.  0.
<mgrwt>
<rscale>  0 0.12500308E+03</rscale>
<asrwt>0</asrwt>
<pdfrwt beam="2">  1        4 0.96704932E-03 0.12500308E+03</pdfrwt>
<pdfrwt beam="1">  1       -4 0.95610610E-01 0.12500308E+03</pdfrwt>
<totfact> 0.47158061E+03</totfact>
</mgrwt>
</event>
<event>
 5    1  0.3273105E-002  0.1249935E+03  0.7818608E-02  0.1235079E+00
          4   -1    0    0  501    0  0.00000000000E+00  0.00000000000E+00  0.12738917468E+02  0.12802066953E+02  0.12700000000E+01 0.  1.
         -4   -1    0    0    0  501 -0.00000000000E+00 -0.00000000000E+00 -0.30578464745E+03  0.30578728475E+03  0.12700000000E+01 0.  1.
         25    2    1    2    0    0  0.00000000000E+00  0.00000000000E+00 -0.29304572998E+03  0.31858935171E+03  0.12499350047E+03 0.  0.
    9000005    1    3    3    0    0  0.33748300884E+02 -0.61233881011E+01 -0.27965958503E+03  0.28175685829E+03  0.10000000000E+01 0.  0.
    9000005    1    3    3    0    0 -0.33748300884E+02  0.61233881011E+01 -0.13386144950E+02  0.36832493412E+02  0.10000000000E+01 0.  0.
<mgrwt>
<rscale>  0 0.12499350E+03</rscale>
<asrwt>0</asrwt>
<pdfrwt beam="1">  1        4 0.19648942E-02 0.12499350E+03</pdfrwt>
<pdfrwt beam="2">  1       -4 0.47048847E-01 0.12499350E+03</pdfrwt>
<totfact> 0.73334786E+03</totfact>
</mgrwt>
</event>
<event>
 5    1  0.3273105E-002  0.1249978E+03  0.7818608E-02  0.1235073E+00
          4   -1    0    0  501    0  0.00000000000E+00  0.00000000000E+00  0.26297316831E+02  0.26327965598E+02  0.12700000000E+01 0.  1.
         -4   -1    0    0    0  501 -0.00000000000E+00 -0.00000000000E+00 -0.14841669812E+03  0.14842213171E+03  0.12700000000E+01 0.  1.
         25    2    1    2    0    0  0.00000000000E+00  0.00000000000E+00 -0.12211938129E+03  0.17475009731E+03  0.12499781287E+03 0.  0.
    9000005    1    3    3    0    0 -0.55859245921E+02  0.25554256092E+02 -0.77111915206E+02  0.98592711830E+02  0.10000000000E+01 0.  0.
    9000005    1    3    3    0    0  0.55859245921E+02 -0.25554256092E+02 -0.45007466083E+02  0.76157385476E+02  0.10000000000E+01 0.  0.
<mgrwt>
<rscale>  0 0.12499781E+03</rscale>
<asrwt>0</asrwt>
<pdfrwt beam="1">  1        4 0.40485167E-02 0.12499781E+03</pdfrwt>
<pdfrwt beam="2">  1       -4 0.22836113E-01 0.12499781E+03</pdfrwt>
<totfact> 0.94575270E+03</totfact>
</mgrwt>
</event>
<event>
 5    1  0.3273105E-002  0.1250075E+03  0.7818608E-02  0.1235058E+00
          4   -1    0    0  501    0  0.00000000000E+00  0.00000000000E+00  0.11478807095E+03  0.11479509629E+03  0.12700000000E+01 0.  1.
         -4   -1    0    0    0  501 -0.00000000000E+00 -0.00000000000E+00 -0.34014253523E+02  0.34037954443E+02  0.12700000000E+01 0.  1.
         25    2    1    2    0    0  0.00000000000E+00  0.00000000000E+00  0.80773817431E+02  0.14883305074E+03  0.12500746942E+03 0.  0.
    9000005    1    3    3    0    0  0.57587233366E+02 -0.23823574204E+02  0.45954089933E+02  0.77437913945E+02  0.10000000000E+01 0.  0.
    9000005    1    3    3    0    0 -0.57587233366E+02  0.23823574204E+02  0.34819727498E+02  0.71395136793E+02  0.10000000000E+01 0.  0.
<mgrwt>
<rscale>  0 0.12500747E+03</rscale>
<asrwt>0</asrwt>
<pdfrwt beam="1">  1        4 0.17662067E-01 0.12500747E+03</pdfrwt>
<pdfrwt beam="2">  1       -4 0.52353255E-02 0.12500747E+03</pdfrwt>
<totfact> 0.99520089E+03</totfact>
</mgrwt>
</event>
<event>
 5    1  0.3273105E-002  0.1249997E+03  0.7818608E-02  0.1235070E+00
          4   -1    0    0  501    0  0.00000000000E+00  0.00000000000E+00  0.13008472766E+02  0.13070319954E+02  0.12700000000E+01 0. -1.
         -4   -1    0    0    0  501 -0.00000000000E+00 -0.00000000000E+00 -0.29950837170E+03  0.29951106427E+03  0.12700000000E+01 0. -1.
         25    2    1    2    0    0  0.00000000000E+00  0.00000000000E+00 -0.28649989893E+03  0.31258138422E+03  0.12499971869E+03 0.  0.
    9000005    1    3    3    0    0 -0.14338122351E+02 -0.60818205752E+02 -0.14548172712E+03  0.15833625242E+03  0.10000000000E+01 0.  0.
    9000005    1    3    3    0    0  0.14338122351E+02  0.60818205752E+02 -0.14101817181E+03  0.15424513180E+03  0.10000000000E+01 0.  0.
<mgrwt>
<rscale>  0 0.12499972E+03</rscale>
<asrwt>0</asrwt>
<pdfrwt beam="1">  1        4 0.20062683E-02 0.12499972E+03</pdfrwt>
<pdfrwt beam="2">  1       -4 0.46083170E-01 0.12499972E+03</pdfrwt>
<totfact> 0.74047711E+03</totfact>
</mgrwt>
</event>
<event>
 5    1  0.3273105E-002  0.1249999E+03  0.7818608E-02  0.1235069E+00
          4   -1    0    0  501    0  0.00000000000E+00  0.00000000000E+00  0.19417846669E+03  0.19418261978E+03  0.12700000000E+01 0. -1.
         -4   -1    0    0    0  501 -0.00000000000E+00 -0.00000000000E+00 -0.20092350424E+02  0.20132447580E+02  0.12700000000E+01 0. -1.
         25    2    1    2    0    0  0.00000000000E+00  0.00000000000E+00  0.17408611626E+03  0.21431506736E+03  0.12499988889E+03 0.  0.
    9000005    1    3    3    0    0  0.31395302471E+02  0.87112664469E+01  0.17847213749E+03  0.18142451610E+03  0.10000000000E+01 0.  0.
    9000005    1    3    3    0    0 -0.31395302471E+02 -0.87112664469E+01 -0.43860212264E+01  0.32890551266E+02  0.10000000000E+01 0.  0.
<mgrwt>
<rscale>  0 0.12499989E+03</rscale>
<asrwt>0</asrwt>
<pdfrwt beam="1">  1        4 0.29877014E-01 0.12499989E+03</pdfrwt>
<pdfrwt beam="2">  1       -4 0.30945347E-02 0.12499989E+03</pdfrwt>
<totfact> 0.87776205E+03</totfact>
</mgrwt>
</event>
<event>
 5    1  0.3273105E-002  0.1249963E+03  0.7818608E-02  0.1235075E+00
         -4   -1    0    0    0  501 -0.00000000000E+00  0.00000000000E+00  0.17806973762E+03  0.17807426640E+03  0.12700000000E+01 0.  1.
          4   -1    0    0  501    0  0.00000000000E+00 -0.00000000000E+00 -0.21912132310E+02  0.21948905266E+02  0.12700000000E+01 0.  1.
         25    2    1    2    0    0  0.00000000000E+00  0.00000000000E+00  0.15615760531E+03  0.20002317167E+03  0.12499628598E+03 0.  0.
    9000005    1    3    3    0    0  0.58267873282E+02 -0.19043047226E+02  0.58661496167E+02  0.84852541724E+02  0.10000000000E+01 0.  0.
    9000005    1    3    3    0    0 -0.58267873282E+02  0.19043047226E+02  0.97496109139E+02  0.11517062994E+03  0.10000000000E+01 0.  0.
<mgrwt>
<rscale>  0 0.12499629E+03</rscale>
<asrwt>0</asrwt>
<pdfrwt beam="2">  1        4 0.33742745E-02 0.12499629E+03</pdfrwt>
<pdfrwt beam="1">  1       -4 0.27398520E-01 0.12499629E+03</pdfrwt>
<totfact> 0.90139090E+03</totfact>
</mgrwt>
</event>
<event>
 5    1  0.3273105E-002  0.1249985E+03  0.7818608E-02  0.1235072E+00
         -4   -1    0    0    0  501 -0.00000000000E+00  0.00000000000E+00  0.10690616887E+02  0.10765787915E+02  0.12700000000E+01 0. -1.
          4   -1    0    0  501    0  0.00000000000E+00 -0.00000000000E+00 -0.36402524125E+03  0.36402745661E+03  0.12700000000E+01 0. -1.
         25    2    1    2    0    0  0.00000000000E+00  0.00000000000E+00 -0.35333462437E+03  0.37479324453E+03  0.12499847747E+03 0.  0.
    9000005    1    3    3    0    0 -0.40820483197E+02  0.12576379522E+02 -0.39897756976E+02  0.58457746980E+02  0.10000000000E+01 0.  0.
    9000005    1    3    3    0    0  0.40820483197E+02 -0.12576379522E+02 -0.31343686739E+03  0.31633549755E+03  0.10000000000E+01 0.  0.
<mgrwt>
<rscale>  0 0.12499848E+03</rscale>
<asrwt>0</asrwt>
<pdfrwt beam="2">  1        4 0.56009827E-01 0.12499848E+03</pdfrwt>
<pdfrwt beam="1">  1       -4 0.16506634E-02 0.12499848E+03</pdfrwt>
<totfact> 0.67082699E+03</totfact>
</mgrwt>
</event>
<event>
 5    1  0.3273105E-002  0.1249750E+03  0.7818608E-02  0.1235108E+00
         -4   -1    0    0    0  501 -0.00000000000E+00  0.00000000000E+00  0.27362097071E+03  0.27362391802E+03  0.12700000000E+01 0.  1.
          4   -1    0    0  501    0  0.00000000000E+00 -0.00000000000E+00 -0.14239138316E+02  0.14295662279E+02  0.12700000000E+01 0.  1.
         25    2    1    2    0    0  0.00000000000E+00  0.00000000000E+00  0.25938183239E+03  0.28791958030E+03  0.12497499647E+03 0.  0.
    9000005    1    3    3    0    0 -0.31698639569E+02  0.65202746863E+01  0.65633552928E+01  0.33036273477E+02  0.10000000000E+01 0.  0.
    9000005    1    3    3    0    0  0.31698639569E+02 -0.65202746863E+01  0.25281847710E+03  0.25488330682E+03  0.10000000000E+01 0.  0.
<mgrwt>
<rscale>  0 0.12497500E+03</rscale>
<asrwt>0</asrwt>
<pdfrwt beam="2">  1        4 0.21952113E-02 0.12497500E+03</pdfrwt>
<pdfrwt beam="1">  1       -4 0.42100111E-01 0.12497500E+03</pdfrwt>
<totfact> 0.77182473E+03</totfact>
</mgrwt>
</event>
<event>
 5    1  0.3273105E-002  0.1249983E+03  0.7818608E-02  0.1235072E+00
         -4   -1    0    0    0  501 -0.00000000000E+00  0.00000000000E+00  0.11160248070E+02  0.11232276572E+02  0.12700000000E+01 0. -1.
          4   -1    0    0  501    0  0.00000000000E+00 -0.00000000000E+00 -0.34880583044E+03  0.34880814247E+03  0.12700000000E+01 0. -1.
         25    2    1    2    0    0  0.00000000000E+00  0.00000000000E+00 -0.33764558237E+03  0.36004041904E+03  0.12499825617E+03 0.  0.
    9000005    1    3    3    0    0  0.53170133963E+02  0.31354135230E+02 -0.14074906092E+03  0.15369269043E+03  0.10000000000E+01 0.  0.
    9000005    1    3    3    0    0 -0.53170133963E+02 -0.31354135230E+02 -0.19689652145E+03  0.20634772861E+03  0.10000000000E+01 0.  0.
<mgrwt>
<rscale>  0 0.12499826E+03</rscale>
<asrwt>0</asrwt>
<pdfrwt beam="2">  1        4 0.53668146E-01 0.12499826E+03</pdfrwt>
<pdfrwt beam="1">  1       -4 0.17226800E-02 0.12499826E+03</pdfrwt>
<totfact> 0.68636581E+03</totfact>
</mgrwt>
</event>
<event>
 5    1  0.3273105E-002  0.1249938E+03  0.7818608E-02  0.1235079E+00
         -4   -1    0    0    0  501 -0.00000000000E+00  0.00000000000E+00  0.93249415871E+01  0.94110273404E+01  0.12700000000E+01 0.  1.
          4   -1    0    0  501    0  0.00000000000E+00 -0.00000000000E+00 -0.41685040906E+03  0.41685234368E+03  0.12700000000E+01 0.  1.
         25    2    1    2    0    0  0.00000000000E+00  0.00000000000E+00 -0.40752546747E+03  0.42626337102E+03  0.12499381919E+03 0.  0.
    9000005    1    3    3    0    0  0.32299007260E+02 -0.19892756478E+02 -0.37311016880E+03  0.37503485930E+03  0.10000000000E+01 0.  0.
    9000005    1    3    3    0    0 -0.32299007260E+02  0.19892756478E+02 -0.34415298671E+02  0.51228511719E+02  0.10000000000E+01 0.  0.
<mgrwt>
<rscale>  0 0.12499382E+03</rscale>
<asrwt>0</asrwt>
<pdfrwt beam="2">  1        4 0.64137589E-01 0.12499382E+03</pdfrwt>
<pdfrwt beam="1">  1       -4 0.14413775E-02 0.12499382E+03</pdfrwt>
<totfact> 0.62084628E+03</totfact>
</mgrwt>
</event>
<event>
 5    1  0.3273105E-002  0.1250059E+03  0.7818608E-02  0.1235060E+00
          4   -1    0    0  501    0  0.00000000000E+00  0.00000000000E+00  0.19761488816E+02  0.19802255937E+02  0.12700000000E+01 0. -1.
         -4   -1    0    0    0  501 -0.00000000000E+00 -0.00000000000E+00 -0.19744201646E+03  0.19744610091E+03  0.12700000000E+01 0. -1.
         25    2    1    2    0    0  0.00000000000E+00  0.00000000000E+00 -0.17768052764E+03  0.21724835684E+03  0.12500591445E+03 0.  0.
    9000005    1    3    3    0    0 -0.28425125739E+01 -0.62225702647E+02 -0.80063980650E+02  0.10144633530E+03  0.10000000000E+01 0.  0.
    9000005    1    3    3    0    0  0.28425125739E+01  0.62225702647E+02 -0.97616546993E+02  0.11580202155E+03  0.10000000000E+01 0.  0.
<mgrwt>
<rscale>  0 0.12500591E+03</rscale>
<asrwt>0</asrwt>
<pdfrwt beam="1">  1        4 0.30436793E-02 0.12500591E+03</pdfrwt>
<pdfrwt beam="2">  1       -4 0.30379144E-01 0.12500591E+03</pdfrwt>
<totfact> 0.87294107E+03</totfact>
</mgrwt>
</event>
<event>
 5    1  0.3273105E-002  0.1249997E+03  0.7818608E-02  0.1235070E+00
         -4   -1    0    0    0  501 -0.00000000000E+00  0.00000000000E+00  0.13722187818E+03  0.13722775503E+03  0.12700000000E+01 0.  1.
          4   -1    0    0  501    0  0.00000000000E+00 -0.00000000000E+00 -0.28445897266E+02  0.28474233463E+02  0.12700000000E+01 0.  1.
         25    2    1    2    0    0  0.00000000000E+00  0.00000000000E+00  0.10877598092E+03  0.16570198850E+03  0.12499973987E+03 0.  0.
    9000005    1    3    3    0    0 -0.10626248927E+01 -0.30804187755E+02 -0.17675042075E+02  0.35544820541E+02  0.10000000000E+01 0.  0.
    9000005    1    3    3    0    0  0.10626248927E+01  0.30804187755E+02  0.12645102299E+03  0.13015716796E+03  0.10000000000E+01 0.  0.
<mgrwt>
<rscale>  0 0.12499974E+03</rscale>
<asrwt>0</asrwt>
<pdfrwt beam="2">  1        4 0.43789237E-02 0.12499974E+03</pdfrwt>
<pdfrwt beam="1">  1       -4 0.21113690E-01 0.12499974E+03</pdfrwt>
<totfact> 0.96255174E+03</totfact>
</mgrwt>
</event>
<event>
 5    1  0.3273105E-002  0.1250071E+03  0.7818608E-02  0.1235058E+00
          4   -1    0    0  501    0  0.00000000000E+00  0.00000000000E+00  0.10584007929E+02  0.10659930762E+02  0.12700000000E+01 0.  1.
         -4   -1    0    0    0  501 -0.00000000000E+00 -0.00000000000E+00 -0.36771673397E+03  0.36771892709E+03  0.12700000000E+01 0.  1.
         25    2    1    2    0    0  0.00000000000E+00  0.00000000000E+00 -0.35713272604E+03  0.37837885785E+03  0.12500710404E+03 0.  0.
    9000005    1    3    3    0    0 -0.90216361588E+01 -0.49014516381E+02 -0.64430050881E+02  0.81461918659E+02  0.10000000000E+01 0.  0.
    9000005    1    3    3    0    0  0.90216361588E+01  0.49014516381E+02 -0.29270267516E+03  0.29691693919E+03  0.10000000000E+01 0.  0.
<mgrwt>
<rscale>  0 0.12500710E+03</rscale>
<asrwt>0</asrwt>
<pdfrwt beam="1">  1        4 0.16343181E-02 0.12500710E+03</pdfrwt>
<pdfrwt beam="2">  1       -4 0.56577804E-01 0.12500710E+03</pdfrwt>
<totfact> 0.66700900E+03</totfact>
</mgrwt>
</event>
<event>
 5    1  0.3273105E-002  0.1250004E+03  0.7818608E-02  0.1235069E+00
         -4   -1    0    0    0  501 -0.00000000000E+00  0.00000000000E+00  0.10968448584E+03  0.10969183805E+03  0.12700000000E+01 0. -1.
          4   -1    0    0  501    0  0.00000000000E+00 -0.00000000000E+00 -0.35593863026E+02  0.35616512815E+02  0.12700000000E+01 0. -1.
         25    2    1    2    0    0  0.00000000000E+00  0.00000000000E+00  0.74090622814E+02  0.14530835086E+03  0.12500038576E+03 0.  0.
    9000005    1    3    3    0    0 -0.40905892793E+01 -0.32740088120E+02  0.98739456830E+02  0.10411112633E+03  0.10000000000E+01 0.  0.
    9000005    1    3    3    0    0  0.40905892793E+01  0.32740088120E+02 -0.24648834016E+02  0.41197224531E+02  0.10000000000E+01 0.  0.
<mgrwt>
<rscale>  0 0.12500039E+03</rscale>
<asrwt>0</asrwt>
<pdfrwt beam="2">  1        4 0.54782868E-02 0.12500039E+03</pdfrwt>
<pdfrwt beam="1">  1       -4 0.16876844E-01 0.12500039E+03</pdfrwt>
<totfact> 0.10024640E+04</totfact>
</mgrwt>
</event>
<event>
 5    1  0.3273105E-002  0.1250012E+03  0.7818608E-02  0.1235067E+00
         -4   -1    0    0    0  501 -0.00000000000E+00  0.00000000000E+00  0.60189607897E+02  0.60203004898E+02  0.12700000000E+01 0.  1.
          4   -1    0    0  501    0  0.00000000000E+00 -0.00000000000E+00 -0.64873515885E+02  0.64885945807E+02  0.12700000000E+01 0.  1.
         25    2    1    2    0    0  0.00000000000E+00  0.00000000000E+00 -0.46839079877E+01  0.12508895071E+03  0.12500122637E+03 0.  0.
    9000005    1    3    3    0    0  0.41238174126E+01 -0.72768427748E+01 -0.64315766657E+02  0.64865061100E+02  0.10000000000E+01 0.  0.
    9000005    1    3    3    0    0 -0.41238174126E+01  0.72768427748E+01  0.59631858669E+02  0.60223889605E+02  0.10000000000E+01 0.  0.
<mgrwt>
<rscale>  0 0.12500123E+03</rscale>
<asrwt>0</asrwt>
<pdfrwt beam="2">  1        4 0.99825276E-02 0.12500123E+03</pdfrwt>
<pdfrwt beam="1">  1       -4 0.92619264E-02 0.12500123E+03</pdfrwt>
<totfact> 0.10450641E+04</totfact>
</mgrwt>
</event>
<event>
 5    1  0.3273105E-002  0.1250171E+03  0.7818608E-02  0.1235043E+00
          4   -1    0    0  501    0  0.00000000000E+00  0.00000000000E+00  0.20861190064E+02  0.20899812221E+02  0.12700000000E+01 0. -1.
         -4   -1    0    0    0  501 -0.00000000000E+00 -0.00000000000E+00 -0.18708691760E+03  0.18709122811E+03  0.12700000000E+01 0. -1.
         25    2    1    2    0    0  0.00000000000E+00  0.00000000000E+00 -0.16622572754E+03  0.20799104034E+03  0.12501712029E+03 0.  0.
    9000005    1    3    3    0    0  0.46716152185E+02 -0.36129034521E+02 -0.11715227601E+03  0.13119970193E+03  0.10000000000E+01 0.  0.
    9000005    1    3    3    0    0 -0.46716152185E+02  0.36129034521E+02 -0.49073451522E+02  0.76791338409E+02  0.10000000000E+01 0.  0.
<mgrwt>
<rscale>  0 0.12501712E+03</rscale>
<asrwt>0</asrwt>
<pdfrwt beam="1">  1        4 0.32127165E-02 0.12501712E+03</pdfrwt>
<pdfrwt beam="2">  1       -4 0.28785904E-01 0.12501712E+03</pdfrwt>
<totfact> 0.88771037E+03</totfact>
</mgrwt>
</event>
<event>
 4    1  0.3273105E-002  0.1249261E+03  0.7818608E-02  0.1235185E+00
          4   -1    0    0  501    0  0.00000000000E+00  0.00000000000E+00  0.30173944119E+02  0.30200658994E+02  0.12700000000E+01 0. -1.
         -4   -1    0    0    0  501 -0.00000000000E+00 -0.00000000000E+00 -0.12921762926E+03  0.12922387013E+03  0.12700000000E+01 0. -1.
    9000005    1    1    2    0    0 -0.32038782405E+02  0.17498017355E+01 -0.11790122071E+03  0.12219346639E+03  0.10000000000E+01 0.  0.
    9000005    1    1    2    0    0  0.32038782405E+02 -0.17498017355E+01  0.18857535572E+02  0.37231062730E+02  0.10000000000E+01 0.  0.
<mgrwt>
<rscale>  0 0.12492609E+03</rscale>
<asrwt>0</asrwt>
<pdfrwt beam="1">  1        4 0.46446804E-02 0.12492609E+03</pdfrwt>
<pdfrwt beam="2">  1       -4 0.19882170E-01 0.12492609E+03</pdfrwt>
<totfact> 0.97615925E+03</totfact>
</mgrwt>
</event>
<event>
 5    1  0.3273105E-002  0.1249982E+03  0.7818608E-02  0.1235072E+00
         -4   -1    0    0    0  501 -0.00000000000E+00  0.00000000000E+00  0.68995959905E+01  0.70155060282E+01  0.12700000000E+01 0.  1.
          4   -1    0    0  501    0  0.00000000000E+00 -0.00000000000E+00 -0.56130726549E+03  0.56130870223E+03  0.12700000000E+01 0.  1.
         25    2    1    2    0    0  0.00000000000E+00  0.00000000000E+00 -0.55440766950E+03  0.56832420825E+03  0.12499816673E+03 0.  0.
    9000005    1    3    3    0    0 -0.32101207613E+02  0.45418463541E+02 -0.40674863752E+03  0.41053474698E+03  0.10000000000E+01 0.  0.
    9000005    1    3    3    0    0  0.32101207613E+02 -0.45418463541E+02 -0.14765903199E+03  0.15778946127E+03  0.10000000000E+01 0.  0.
<mgrwt>
<rscale>  0 0.12499817E+03</rscale>
<asrwt>0</asrwt>
<pdfrwt beam="2">  1        4 0.86363955E-01 0.12499817E+03</pdfrwt>
<pdfrwt beam="1">  1       -4 0.10705034E-02 0.12499817E+03</pdfrwt>
<totfact> 0.50932198E+03</totfact>
</mgrwt>
</event>
<event>
 5    1  0.3273105E-002  0.1250008E+03  0.7818608E-02  0.1235068E+00
         -4   -1    0    0    0  501 -0.00000000000E+00  0.00000000000E+00  0.28205526905E+03  0.28205812823E+03  0.12700000000E+01 0. -1.
          4   -1    0    0  501    0  0.00000000000E+00 -0.00000000000E+00 -0.13817368607E+02  0.13875610805E+02  0.12700000000E+01 0. -1.
         25    2    1    2    0    0  0.00000000000E+00  0.00000000000E+00  0.26823790044E+03  0.29593373903E+03  0.12500082665E+03 0.  0.
    9000005    1    3    3    0    0  0.42089797100E+02  0.45765811878E+02  0.11928857180E+03  0.13452443614E+03  0.10000000000E+01 0.  0.
    9000005    1    3    3    0    0 -0.42089797100E+02 -0.45765811878E+02  0.14894932864E+03  0.16140930289E+03  0.10000000000E+01 0.  0.
<mgrwt>
<rscale>  0 0.12500083E+03</rscale>
<asrwt>0</asrwt>
<pdfrwt beam="2">  1        4 0.21304493E-02 0.12500083E+03</pdfrwt>
<pdfrwt beam="1">  1       -4 0.43397814E-01 0.12500083E+03</pdfrwt>
<totfact> 0.76110355E+03</totfact>
</mgrwt>
</event>
<event>
 5    1  0.3273105E-002  0.1250044E+03  0.7818608E-02  0.1235062E+00
         -4   -1    0    0    0  501 -0.00000000000E+00  0.00000000000E+00  0.56702934810E+01  0.58107768982E+01  0.12700000000E+01 0.  1.
          4   -1    0    0  501    0  0.00000000000E+00 -0.00000000000E+00 -0.68037492203E+03  0.68037610734E+03  0.12700000000E+01 0.  1.
         25    2    1    2    0    0  0.00000000000E+00  0.00000000000E+00 -0.67470462855E+03  0.68618688423E+03  0.12500441714E+03 0.  0.
    9000005    1    3    3    0    0 -0.21768518048E+02 -0.37539013813E+01 -0.65825658990E+03  0.65862789062E+03  0.10000000000E+01 0.  0.
    9000005    1    3    3    0    0  0.21768518048E+02  0.37539013813E+01 -0.16448038654E+02  0.27558993616E+02  0.10000000000E+01 0.  0.
<mgrwt>
<rscale>  0 0.12500442E+03</rscale>
<asrwt>0</asrwt>
<pdfrwt beam="2">  1        4 0.10468390E+00 0.12500442E+03</pdfrwt>
<pdfrwt beam="1">  1       -4 0.88325097E-03 0.12500442E+03</pdfrwt>
<totfact> 0.43821754E+03</totfact>
</mgrwt>
</event>
<event>
 5    1  0.3273105E-002  0.1249980E+03  0.7818608E-02  0.1235072E+00
          4   -1    0    0  501    0  0.00000000000E+00  0.00000000000E+00  0.10672988614E+02  0.10748282930E+02  0.12700000000E+01 0.  1.
         -4   -1    0    0    0  501 -0.00000000000E+00 -0.00000000000E+00 -0.36461937079E+03  0.36462158254E+03  0.12700000000E+01 0.  1.
         25    2    1    2    0    0  0.00000000000E+00  0.00000000000E+00 -0.35394638218E+03  0.37536986547E+03  0.12499797778E+03 0.  0.
    9000005    1    3    3    0    0 -0.49768828151E+02  0.37625068509E+02 -0.16633831382E+03  0.17765701979E+03  0.10000000000E+01 0.  0.
    9000005    1    3    3    0    0  0.49768828151E+02 -0.37625068509E+02 -0.18760806835E+03  0.19771284568E+03  0.10000000000E+01 0.  0.
<mgrwt>
<rscale>  0 0.12499798E+03</rscale>
<asrwt>0</asrwt>
<pdfrwt beam="1">  1        4 0.16479605E-02 0.12499798E+03</pdfrwt>
<pdfrwt beam="2">  1       -4 0.56101240E-01 0.12499798E+03</pdfrwt>
<totfact> 0.67023866E+03</totfact>
</mgrwt>
</event>
<event>
 5    1  0.3273105E-002  0.1249990E+03  0.7818608E-02  0.1235071E+00
          4   -1    0    0  501    0  0.00000000000E+00  0.00000000000E+00  0.22318228316E+02  0.22354333252E+02  0.12700000000E+01 0. -1.
         -4   -1    0    0    0  501 -0.00000000000E+00 -0.00000000000E+00 -0.17484249862E+03  0.17484711099E+03  0.12700000000E+01 0. -1.
         25    2    1    2    0    0  0.00000000000E+00  0.00000000000E+00 -0.15252427030E+03  0.19720144424E+03  0.12499902632E+03 0.  0.
    9000005    1    3    3    0    0  0.33360573257E+02  0.37381429861E+02 -0.17340683043E+02  0.53028279577E+02  0.10000000000E+01 0.  0.
    9000005    1    3    3    0    0 -0.33360573257E+02 -0.37381429861E+02 -0.13518358726E+03  0.14417316467E+03  0.10000000000E+01 0.  0.
<mgrwt>
<rscale>  0 0.12499903E+03</rscale>
<asrwt>0</asrwt>
<pdfrwt beam="1">  1        4 0.34367058E-02 0.12499903E+03</pdfrwt>
<pdfrwt beam="2">  1       -4 0.26901977E-01 0.12499903E+03</pdfrwt>
<totfact> 0.90611140E+03</totfact>
</mgrwt>
</event>
<event>
 5    1  0.3273105E-002  0.1250563E+03  0.7818608E-02  0.1234981E+00
         -4   -1    0    0    0  501 -0.00000000000E+00  0.00000000000E+00  0.26224727713E+02  0.26255461215E+02  0.12700000000E+01 0.  1.
          4   -1    0    0  501    0  0.00000000000E+00 -0.00000000000E+00 -0.14896641925E+03  0.14897183279E+03  0.12700000000E+01 0.  1.
         25    2    1    2    0    0  0.00000000000E+00  0.00000000000E+00 -0.12274169154E+03  0.17522729400E+03  0.12505631420E+03 0.  0.
    9000005    1    3    3    0    0 -0.37518232104E+02  0.10109113990E+02 -0.12999981842E+03  0.13568627313E+03  0.10000000000E+01 0.  0.
    9000005    1    3    3    0    0  0.37518232104E+02 -0.10109113990E+02  0.72581268849E+01  0.39541020874E+02  0.10000000000E+01 0.  0.
<mgrwt>
<rscale>  0 0.12505631E+03</rscale>
<asrwt>0</asrwt>
<pdfrwt beam="2">  1        4 0.22920691E-01 0.12505631E+03</pdfrwt>
<pdfrwt beam="1">  1       -4 0.40373541E-02 0.12505631E+03</pdfrwt>
<totfact> 0.94363968E+03</totfact>
</mgrwt>
</event>
<event>
 5    1  0.3273105E-002  0.1250066E+03  0.7818608E-02  0.1235059E+00
         -4   -1    0    0    0  501 -0.00000000000E+00  0.00000000000E+00  0.73578861142E+02  0.73589820674E+02  0.12700000000E+01 0. -1.
          4   -1    0    0  501    0  0.00000000000E+00 -0.00000000000E+00 -0.53072373846E+02  0.53087566960E+02  0.12700000000E+01 0. -1.
         25    2    1    2    0    0  0.00000000000E+00  0.00000000000E+00  0.20506487295E+02  0.12667738763E+03  0.12500657789E+03 0.  0.
    9000005    1    3    3    0    0 -0.39256256440E+02  0.27744450417E+02 -0.30216136516E+02  0.56787525959E+02  0.10000000000E+01 0.  0.
    9000005    1    3    3    0    0  0.39256256440E+02 -0.27744450417E+02  0.50722623811E+02  0.69889861675E+02  0.10000000000E+01 0.  0.
<mgrwt>
<rscale>  0 0.12500658E+03</rscale>
<asrwt>0</asrwt>
<pdfrwt beam="2">  1        4 0.81669924E-02 0.12500658E+03</pdfrwt>
<pdfrwt beam="1">  1       -4 0.11321836E-01 0.12500658E+03</pdfrwt>
<totfact> 0.10414616E+04</totfact>
</mgrwt>
</event>
<event>
 5    1  0.3273105E-002  0.1249997E+03  0.7818608E-02  0.1235070E+00
         -4   -1    0    0    0  501 -0.00000000000E+00  0.00000000000E+00  0.75161552038E+02  0.75172280827E+02  0.12700000000E+01 0.  1.
          4   -1    0    0  501    0  0.00000000000E+00 -0.00000000000E+00 -0.51948976186E+02  0.51964497754E+02  0.12700000000E+01 0.  1.
         25    2    1    2    0    0  0.00000000000E+00  0.00000000000E+00  0.23212575852E+02  0.12713677858E+03  0.12499974716E+03 0.  0.
    9000005    1    3    3    0    0 -0.26459857417E+02 -0.44665233830E+02 -0.23775318665E+02  0.57108431473E+02  0.10000000000E+01 0.  0.
    9000005    1    3    3    0    0  0.26459857417E+02  0.44665233830E+02  0.46987894517E+02  0.70028347109E+02  0.10000000000E+01 0.  0.
<mgrwt>
<rscale>  0 0.12499975E+03</rscale>
<asrwt>0</asrwt>
<pdfrwt beam="2">  1        4 0.79941695E-02 0.12499975E+03</pdfrwt>
<pdfrwt beam="1">  1       -4 0.11565335E-01 0.12499975E+03</pdfrwt>
<totfact> 0.10406235E+04</totfact>
</mgrwt>
</event>
<event>
 5    1  0.3273105E-002  0.1249955E+03  0.7818608E-02  0.1235076E+00
          4   -1    0    0  501    0  0.00000000000E+00  0.00000000000E+00  0.39963390507E+02  0.39983565134E+02  0.12700000000E+01 0.  1.
         -4   -1    0    0    0  501 -0.00000000000E+00 -0.00000000000E+00 -0.97689765017E+02  0.97698019883E+02  0.12700000000E+01 0.  1.
         25    2    1    2    0    0  0.00000000000E+00  0.00000000000E+00 -0.57726374510E+02  0.13768158502E+03  0.12499553807E+03 0.  0.
    9000005    1    3    3    0    0  0.38193574951E+00  0.58831760758E+02 -0.56624817716E+01  0.59113328857E+02  0.10000000000E+01 0.  0.
    9000005    1    3    3    0    0 -0.38193574951E+00 -0.58831760758E+02 -0.52063892739E+02  0.78568256159E+02  0.10000000000E+01 0.  0.
<mgrwt>
<rscale>  0 0.12499554E+03</rscale>
<asrwt>0</asrwt>
<pdfrwt beam="1">  1        4 0.61504009E-02 0.12499554E+03</pdfrwt>
<pdfrwt beam="2">  1       -4 0.15031381E-01 0.12499554E+03</pdfrwt>
<totfact> 0.10182878E+04</totfact>
</mgrwt>
</event>
<event>
 5    1  0.3273105E-002  0.1249989E+03  0.7818608E-02  0.1235071E+00
         -4   -1    0    0    0  501 -0.00000000000E+00  0.00000000000E+00  0.14170676604E+03  0.14171245690E+03  0.12700000000E+01 0. -1.
          4   -1    0    0  501    0  0.00000000000E+00 -0.00000000000E+00 -0.27544364643E+02  0.27573627320E+02  0.12700000000E+01 0. -1.
         25    2    1    2    0    0  0.00000000000E+00  0.00000000000E+00  0.11416240139E+03  0.16928608422E+03  0.12499889767E+03 0.  0.
    9000005    1    3    3    0    0 -0.42978529658E+02  0.44480992100E+02  0.69154123006E+02  0.92784726106E+02  0.10000000000E+01 0.  0.
    9000005    1    3    3    0    0  0.42978529658E+02 -0.44480992100E+02  0.45008278387E+02  0.76501358113E+02  0.10000000000E+01 0.  0.
<mgrwt>
<rscale>  0 0.12499890E+03</rscale>
<asrwt>0</asrwt>
<pdfrwt beam="2">  1        4 0.42402832E-02 0.12499890E+03</pdfrwt>
<pdfrwt beam="1">  1       -4 0.21803730E-01 0.12499890E+03</pdfrwt>
<totfact> 0.95584142E+03</totfact>
</mgrwt>
</event>
<event>
 5    1  0.3273105E-002  0.1249992E+03  0.7818608E-02  0.1235070E+00
          4   -1    0    0  501    0  0.00000000000E+00  0.00000000000E+00  0.84050734327E+02  0.84060328580E+02  0.12700000000E+01 0. -1.
         -4   -1    0    0    0  501 -0.00000000000E+00 -0.00000000000E+00 -0.46453410784E+02  0.46470767945E+02  0.12700000000E+01 0. -1.
         25    2    1    2    0    0  0.00000000000E+00  0.00000000000E+00  0.37597323544E+02  0.13053109653E+03  0.12499923369E+03 0.  0.
    9000005    1    3    3    0    0 -0.22074781751E+02 -0.23175085341E+02  0.74847267465E+02  0.81409422163E+02  0.10000000000E+01 0.  0.
    9000005    1    3    3    0    0  0.22074781751E+02  0.23175085341E+02 -0.37249943922E+02  0.49121674362E+02  0.10000000000E+01 0.  0.
<mgrwt>
<rscale>  0 0.12499923E+03</rscale>
<asrwt>0</asrwt>
<pdfrwt beam="1">  1        4 0.12932955E-01 0.12499923E+03</pdfrwt>
<pdfrwt beam="2">  1       -4 0.71487518E-02 0.12499923E+03</pdfrwt>
<totfact> 0.10333331E+04</totfact>
</mgrwt>
</event>
<event>
 5    1  0.3273105E-002  0.1250012E+03  0.7818608E-02  0.1235067E+00
          4   -1    0    0  501    0  0.00000000000E+00  0.00000000000E+00  0.32928858698E+03  0.32929103604E+03  0.12700000000E+01 0.  1.
         -4   -1    0    0    0  501 -0.00000000000E+00 -0.00000000000E+00 -0.11826422605E+02  0.11894417667E+02  0.12700000000E+01 0.  1.
         25    2    1    2    0    0  0.00000000000E+00  0.00000000000E+00  0.31746216438E+03  0.34118545371E+03  0.12500115204E+03 0.  0.
    9000005    1    3    3    0    0 -0.16634013071E+00 -0.51292838588E+02  0.25616697881E+03  0.26125371575E+03  0.10000000000E+01 0.  0.
    9000005    1    3    3    0    0  0.16634013071E+00  0.51292838588E+02  0.61295185564E+02  0.79931737957E+02  0.10000000000E+01 0.  0.
<mgrwt>
<rscale>  0 0.12500115E+03</rscale>
<asrwt>0</asrwt>
<pdfrwt beam="1">  1        4 0.50665199E-01 0.12500115E+03</pdfrwt>
<pdfrwt beam="2">  1       -4 0.18248685E-02 0.12500115E+03</pdfrwt>
<totfact> 0.70703471E+03</totfact>
</mgrwt>
</event>
<event>
 4    1  0.3273105E-002  0.1250756E+03  0.7818608E-02  0.1234951E+00
         -4   -1    0    0    0  501 -0.00000000000E+00  0.00000000000E+00  0.23935077862E+03  0.23935414792E+03  0.12700000000E+01 0. -1.
          4   -1    0    0  501    0  0.00000000000E+00 -0.00000000000E+00 -0.16311759481E+02  0.16361124575E+02  0.12700000000E+01 0. -1.
    9000005    1    1    2    0    0  0.35963575582E+02 -0.66028018740E+00  0.69472963532E+01  0.36648051315E+02  0.10000000000E+01 0.  0.
    9000005    1    1    2    0    0 -0.35963575582E+02  0.66028018740E+00  0.21609172279E+03  0.21906722118E+03  0.10000000000E+01 0.  0.
<mgrwt>
<rscale>  0 0.12507556E+03</rscale>
<asrwt>0</asrwt>
<pdfrwt beam="2">  1        4 0.25135581E-02 0.12507556E+03</pdfrwt>
<pdfrwt beam="1">  1       -4 0.36827251E-01 0.12507556E+03</pdfrwt>
<totfact> 0.81374152E+03</totfact>
</mgrwt>
</event>
<event>
 5    1  0.3273105E-002  0.1250035E+03  0.7818608E-02  0.1235064E+00
          4   -1    0    0  501    0  0.00000000000E+00  0.00000000000E+00  0.21117786667E+02  0.21155940388E+02  0.12700000000E+01 0. -1.
         -4   -1    0    0    0  501 -0.00000000000E+00 -0.00000000000E+00 -0.18477748309E+03  0.18478184748E+03  0.12700000000E+01 0. -1.
         25    2    1    2    0    0  0.00000000000E+00  0.00000000000E+00 -0.16365969642E+03  0.20593778787E+03  0.12500350490E+03 0.  0.
    9000005    1    3    3    0    0 -0.15962034440E+02  0.59907164218E+02 -0.94782477896E+02  0.11326240764E+03  0.10000000000E+01 0.  0.
    9000005    1    3    3    0    0  0.15962034440E+02 -0.59907164218E+02 -0.68877218529E+02  0.92675380228E+02  0.10000000000E+01 0.  0.
<mgrwt>
<rscale>  0 0.12500350E+03</rscale>
<asrwt>0</asrwt>
<pdfrwt beam="1">  1        4 0.32521610E-02 0.12500350E+03</pdfrwt>
<pdfrwt beam="2">  1       -4 0.28430575E-01 0.12500350E+03</pdfrwt>
<totfact> 0.89136634E+03</totfact>
</mgrwt>
</event>
<event>
 5    1  0.3273105E-002  0.1250009E+03  0.7818608E-02  0.1235068E+00
          4   -1    0    0  501    0  0.00000000000E+00  0.00000000000E+00  0.10624821780E+02  0.10700455030E+02  0.12700000000E+01 0.  1.
         -4   -1    0    0    0  501 -0.00000000000E+00 -0.00000000000E+00 -0.36627760287E+03  0.36627980460E+03  0.12700000000E+01 0.  1.
         25    2    1    2    0    0  0.00000000000E+00  0.00000000000E+00 -0.35565278109E+03  0.37698025963E+03  0.12500086184E+03 0.  0.
    9000005    1    3    3    0    0  0.60136050273E+02 -0.14765483959E+02 -0.15242540309E+03  0.16452619112E+03  0.10000000000E+01 0.  0.
    9000005    1    3    3    0    0 -0.60136050273E+02  0.14765483959E+02 -0.20322737800E+03  0.21245406851E+03  0.10000000000E+01 0.  0.
<mgrwt>
<rscale>  0 0.12500086E+03</rscale>
<asrwt>0</asrwt>
<pdfrwt beam="1">  1        4 0.16405756E-02 0.12500086E+03</pdfrwt>
<pdfrwt beam="2">  1       -4 0.56356378E-01 0.12500086E+03</pdfrwt>
<totfact> 0.66853670E+03</totfact>
</mgrwt>
</event>
<event>
 5    1  0.3273105E-002  0.1250002E+03  0.7818608E-02  0.1235069E+00
         -4   -1    0    0    0  501 -0.00000000000E+00  0.00000000000E+00  0.32734637397E+02  0.32759264117E+02  0.12700000000E+01 0. -1.
          4   -1    0    0  501    0  0.00000000000E+00 -0.00000000000E+00 -0.11925824547E+03  0.11926500750E+03  0.12700000000E+01 0. -1.
         25    2    1    2    0    0  0.00000000000E+00  0.00000000000E+00 -0.86523608078E+02  0.15202427162E+03  0.12500017762E+03 0.  0.
    9000005    1    3    3    0    0 -0.43726912063E+02  0.30796528612E+02 -0.82573088909E+02  0.98385893426E+02  0.10000000000E+01 0.  0.
    9000005    1    3    3    0    0  0.43726912063E+02 -0.30796528612E+02 -0.39505191683E+01  0.53638378190E+02  0.10000000000E+01 0.  0.
<mgrwt>
<rscale>  0 0.12500018E+03</rscale>
<asrwt>0</asrwt>
<pdfrwt beam="2">  1        4 0.18349837E-01 0.12500018E+03</pdfrwt>
<pdfrwt beam="1">  1       -4 0.50385126E-02 0.12500018E+03</pdfrwt>
<totfact> 0.98901315E+03</totfact>
</mgrwt>
</event>
<event>
 5    1  0.3273105E-002  0.1249989E+03  0.7818608E-02  0.1235071E+00
          4   -1    0    0  501    0  0.00000000000E+00  0.00000000000E+00  0.63911120471E+02  0.63923737530E+02  0.12700000000E+01 0. -1.
         -4   -1    0    0    0  501 -0.00000000000E+00 -0.00000000000E+00 -0.61093753882E+02  0.61106952660E+02  0.12700000000E+01 0. -1.
         25    2    1    2    0    0  0.00000000000E+00  0.00000000000E+00  0.28173665889E+01  0.12503069019E+03  0.12499894374E+03 0.  0.
    9000005    1    3    3    0    0  0.37336554499E+02  0.41384446506E+02 -0.26856116607E+02  0.61878443045E+02  0.10000000000E+01 0.  0.
    9000005    1    3    3    0    0 -0.37336554499E+02 -0.41384446506E+02  0.29673483196E+02  0.63152247145E+02  0.10000000000E+01 0.  0.
<mgrwt>
<rscale>  0 0.12499894E+03</rscale>
<asrwt>0</asrwt>
<pdfrwt beam="1">  1        4 0.98344660E-02 0.12499894E+03</pdfrwt>
<pdfrwt beam="2">  1       -4 0.94010248E-02 0.12499894E+03</pdfrwt>
<totfact> 0.10452446E+04</totfact>
</mgrwt>
</event>
<event>
 5    1  0.3273105E-002  0.1250038E+03  0.7818608E-02  0.1235063E+00
          4   -1    0    0  501    0  0.00000000000E+00  0.00000000000E+00  0.16265492816E+03  0.16265988613E+03  0.12700000000E+01 0.  1.
         -4   -1    0    0    0  501 -0.00000000000E+00 -0.00000000000E+00 -0.23994926691E+02  0.24028512374E+02  0.12700000000E+01 0.  1.
         25    2    1    2    0    0  0.00000000000E+00  0.00000000000E+00  0.13866000147E+03  0.18668839850E+03  0.12500384845E+03 0.  0.
    9000005    1    3    3    0    0 -0.44292704831E+02 -0.10136257571E+02  0.13340806926E+03  0.14093722135E+03  0.10000000000E+01 0.  0.
    9000005    1    3    3    0    0  0.44292704831E+02  0.10136257571E+02  0.52519322120E+01  0.45751177151E+02  0.10000000000E+01 0.  0.
<mgrwt>
<rscale>  0 0.12500385E+03</rscale>
<asrwt>0</asrwt>
<pdfrwt beam="1">  1        4 0.25026799E-01 0.12500385E+03</pdfrwt>
<pdfrwt beam="2">  1       -4 0.36944922E-02 0.12500385E+03</pdfrwt>
<totfact> 0.92418767E+03</totfact>
</mgrwt>
</event>
<event>
 5    1  0.3273105E-002  0.1249934E+03  0.7818608E-02  0.1235080E+00
         -4   -1    0    0    0  501 -0.00000000000E+00  0.00000000000E+00  0.45722467839E+02  0.45740102375E+02  0.12700000000E+01 0.  1.
          4   -1    0    0  501    0  0.00000000000E+00 -0.00000000000E+00 -0.85386056349E+02  0.85395500577E+02  0.12700000000E+01 0.  1.
         25    2    1    2    0    0  0.00000000000E+00  0.00000000000E+00 -0.39663588510E+02  0.13113560295E+03  0.12499338426E+03 0.  0.
    9000005    1    3    3    0    0 -0.55968931521E+02  0.19006152765E+02 -0.41103263975E+02  0.72001621148E+02  0.10000000000E+01 0.  0.
    9000005    1    3    3    0    0  0.55968931521E+02 -0.19006152765E+02  0.14396754650E+01  0.59133981804E+02  0.10000000000E+01 0.  0.
<mgrwt>
<rscale>  0 0.12499338E+03</rscale>
<asrwt>0</asrwt>
<pdfrwt beam="2">  1        4 0.13138399E-01 0.12499338E+03</pdfrwt>
<pdfrwt beam="1">  1       -4 0.70363088E-02 0.12499338E+03</pdfrwt>
<totfact> 0.10321724E+04</totfact>
</mgrwt>
</event>
<event>
 5    1  0.3273105E-002  0.1250067E+03  0.7818608E-02  0.1235059E+00
         -4   -1    0    0    0  501 -0.00000000000E+00  0.00000000000E+00  0.71863140821E+02  0.71874361970E+02  0.12700000000E+01 0.  1.
          4   -1    0    0  501    0  0.00000000000E+00 -0.00000000000E+00 -0.54339763158E+02  0.54354602013E+02  0.12700000000E+01 0.  1.
         25    2    1    2    0    0  0.00000000000E+00  0.00000000000E+00  0.17523377663E+02  0.12622896398E+03  0.12500673015E+03 0.  0.
    9000005    1    3    3    0    0 -0.13361816088E+02 -0.55914739179E+02  0.33509979350E+02  0.66550093183E+02  0.10000000000E+01 0.  0.
    9000005    1    3    3    0    0  0.13361816088E+02  0.55914739179E+02 -0.15986601687E+02  0.59678870801E+02  0.10000000000E+01 0.  0.
<mgrwt>
<rscale>  0 0.12500673E+03</rscale>
<asrwt>0</asrwt>
<pdfrwt beam="2">  1        4 0.83619682E-02 0.12500673E+03</pdfrwt>
<pdfrwt beam="1">  1       -4 0.11057872E-01 0.12500673E+03</pdfrwt>
<totfact> 0.10424362E+04</totfact>
</mgrwt>
</event>
<event>
 4    1  0.3273105E-002  0.1250674E+03  0.7818608E-02  0.1234964E+00
         -4   -1    0    0    0  501 -0.00000000000E+00  0.00000000000E+00  0.40529745409E+03  0.40529944386E+03  0.12700000000E+01 0. -1.
          4   -1    0    0  501    0  0.00000000000E+00 -0.00000000000E+00 -0.96045600194E+01  0.96881614957E+01  0.12700000000E+01 0. -1.
    9000005    1    1    2    0    0  0.58750185190E+02 -0.20779022754E+02  0.18089173628E+03  0.19132739559E+03  0.10000000000E+01 0.  0.
    9000005    1    1    2    0    0 -0.58750185190E+02  0.20779022754E+02  0.21480115779E+03  0.22366020977E+03  0.10000000000E+01 0.  0.
<mgrwt>
<rscale>  0 0.12506737E+03</rscale>
<asrwt>0</asrwt>
<pdfrwt beam="2">  1        4 0.14842085E-02 0.12506737E+03</pdfrwt>
<pdfrwt beam="1">  1       -4 0.62360040E-01 0.12506737E+03</pdfrwt>
<totfact> 0.63027031E+03</totfact>
</mgrwt>
</event>
<event>
 5    1  0.3273105E-002  0.1250187E+03  0.7818608E-02  0.1235040E+00
          4   -1    0    0  501    0  0.00000000000E+00  0.00000000000E+00  0.25493673699E+03  0.25493990031E+03  0.12700000000E+01 0. -1.
         -4   -1    0    0    0  501 -0.00000000000E+00 -0.00000000000E+00 -0.15297441000E+02  0.15350068442E+02  0.12700000000E+01 0. -1.
         25    2    1    2    0    0  0.00000000000E+00  0.00000000000E+00  0.23963929599E+03  0.27028996875E+03  0.12501869869E+03 0.  0.
    9000005    1    3    3    0    0  0.38647354529E+02  0.48319494648E+02  0.13891720922E+03  0.15207689697E+03  0.10000000000E+01 0.  0.
    9000005    1    3    3    0    0 -0.38647354529E+02 -0.48319494648E+02  0.10072208677E+03  0.11821307178E+03  0.10000000000E+01 0.  0.
<mgrwt>
<rscale>  0 0.12501870E+03</rscale>
<asrwt>0</asrwt>
<pdfrwt beam="1">  1        4 0.39225329E-01 0.12501870E+03</pdfrwt>
<pdfrwt beam="2">  1       -4 0.23577440E-02 0.12501870E+03</pdfrwt>
<totfact> 0.79450299E+03</totfact>
</mgrwt>
</event>
<event>
 5    1  0.3273105E-002  0.1249863E+03  0.7818608E-02  0.1235091E+00
          4   -1    0    0  501    0  0.00000000000E+00  0.00000000000E+00  0.43635339412E+02  0.43653817080E+02  0.12700000000E+01 0.  1.
         -4   -1    0    0    0  501 -0.00000000000E+00 -0.00000000000E+00 -0.89458786176E+02  0.89467800488E+02  0.12700000000E+01 0.  1.
         25    2    1    2    0    0  0.00000000000E+00  0.00000000000E+00 -0.45823446764E+02  0.13312161757E+03  0.12498630641E+03 0.  0.
    9000005    1    3    3    0    0 -0.10742912229E+02 -0.60951339082E+02 -0.32068911431E+02  0.69712918311E+02  0.10000000000E+01 0.  0.
    9000005    1    3    3    0    0  0.10742912229E+02  0.60951339082E+02 -0.13754535333E+02  0.63408699256E+02  0.10000000000E+01 0.  0.
<mgrwt>
<rscale>  0 0.12498631E+03</rscale>
<asrwt>0</asrwt>
<pdfrwt beam="1">  1        4 0.67152439E-02 0.12498631E+03</pdfrwt>
<pdfrwt beam="2">  1       -4 0.13765005E-01 0.12498631E+03</pdfrwt>
<totfact> 0.10280991E+04</totfact>
</mgrwt>
</event>
<event>
 5    1  0.3273105E-002  0.1250001E+03  0.7818608E-02  0.1235069E+00
          4   -1    0    0  501    0  0.00000000000E+00  0.00000000000E+00  0.92081548133E+01  0.92953222142E+01  0.12700000000E+01 0.  1.
         -4   -1    0    0    0  501 -0.00000000000E+00 -0.00000000000E+00 -0.42213036733E+03  0.42213227776E+03  0.12700000000E+01 0.  1.
         25    2    1    2    0    0  0.00000000000E+00  0.00000000000E+00 -0.41292221252E+03  0.43142759997E+03  0.12500008170E+03 0.  0.
    9000005    1    3    3    0    0 -0.29179480189E+02 -0.54550870779E+02 -0.17597596680E+03  0.18653627116E+03  0.10000000000E+01 0.  0.
    9000005    1    3    3    0    0  0.29179480189E+02  0.54550870779E+02 -0.23694624572E+03  0.24489132882E+03  0.10000000000E+01 0.  0.
<mgrwt>
<rscale>  0 0.12500008E+03</rscale>
<asrwt>0</asrwt>
<pdfrwt beam="1">  1        4 0.14234917E-02 0.12500008E+03</pdfrwt>
<pdfrwt beam="2">  1       -4 0.64949971E-01 0.12500008E+03</pdfrwt>
<totfact> 0.61606697E+03</totfact>
</mgrwt>
</event>
<event>
 5    1  0.3273105E-002  0.1249997E+03  0.7818608E-02  0.1235070E+00
         -4   -1    0    0    0  501 -0.00000000000E+00  0.00000000000E+00  0.33166459767E+01  0.35514842721E+01  0.12700000000E+01 0.  1.
          4   -1    0    0  501    0  0.00000000000E+00 -0.00000000000E+00 -0.11372595935E+04  0.11372603026E+04  0.12700000000E+01 0.  1.
         25    2    1    2    0    0  0.00000000000E+00  0.00000000000E+00 -0.11339429475E+04  0.11408117869E+04  0.12499969947E+03 0.  0.
    9000005    1    3    3    0    0 -0.32398035202E+02  0.68323451286E+01 -0.83273208498E+02  0.89619980353E+02  0.10000000000E+01 0.  0.
    9000005    1    3    3    0    0  0.32398035202E+02 -0.68323451286E+01 -0.10506697390E+04  0.10511918065E+04  0.10000000000E+01 0.  0.
<mgrwt>
<rscale>  0 0.12499970E+03</rscale>
<asrwt>0</asrwt>
<pdfrwt beam="2">  1        4 0.17498083E+00 0.12499970E+03</pdfrwt>
<pdfrwt beam="1">  1       -4 0.52837317E-03 0.12499970E+03</pdfrwt>
<totfact> 0.26316779E+03</totfact>
</mgrwt>
</event>
<event>
 5    1  0.3273105E-002  0.1249959E+03  0.7818608E-02  0.1235076E+00
         -4   -1    0    0    0  501 -0.00000000000E+00  0.00000000000E+00  0.22117143709E+02  0.22153576367E+02  0.12700000000E+01 0.  1.
          4   -1    0    0  501    0  0.00000000000E+00 -0.00000000000E+00 -0.17642087685E+03  0.17642544797E+03  0.12700000000E+01 0.  1.
         25    2    1    2    0    0  0.00000000000E+00  0.00000000000E+00 -0.15430373314E+03  0.19857902433E+03  0.12499594730E+03 0.  0.
    9000005    1    3    3    0    0 -0.11198570632E+02  0.48213591894E+02 -0.16551583846E+02  0.52200702632E+02  0.10000000000E+01 0.  0.
    9000005    1    3    3    0    0  0.11198570632E+02 -0.48213591894E+02 -0.13775214930E+03  0.14637832170E+03  0.10000000000E+01 0.  0.
<mgrwt>
<rscale>  0 0.12499595E+03</rscale>
<asrwt>0</asrwt>
<pdfrwt beam="2">  1        4 0.27144827E-01 0.12499595E+03</pdfrwt>
<pdfrwt beam="1">  1       -4 0.34057917E-02 0.12499595E+03</pdfrwt>
<totfact> 0.90383846E+03</totfact>
</mgrwt>
</event>
<event>
 5    1  0.3273105E-002  0.1250017E+03  0.7818608E-02  0.1235067E+00
         -4   -1    0    0    0  501 -0.00000000000E+00  0.00000000000E+00  0.12216878849E+03  0.12217538942E+03  0.12700000000E+01 0. -1.
          4   -1    0    0  501    0  0.00000000000E+00 -0.00000000000E+00 -0.31955004810E+02  0.31980231900E+02  0.12700000000E+01 0. -1.
         25    2    1    2    0    0  0.00000000000E+00  0.00000000000E+00  0.90213783680E+02  0.15415562132E+03  0.12500171527E+03 0.  0.
    9000005    1    3    3    0    0  0.42646490119E+02 -0.30145267888E+02  0.27818852158E+01  0.52308691255E+02  0.10000000000E+01 0.  0.
    9000005    1    3    3    0    0 -0.42646490119E+02  0.30145267888E+02  0.87431898465E+02  0.10184693007E+03  0.10000000000E+01 0.  0.
<mgrwt>
<rscale>  0 0.12500172E+03</rscale>
<asrwt>0</asrwt>
<pdfrwt beam="2">  1        4 0.49186029E-02 0.12500172E+03</pdfrwt>
<pdfrwt beam="1">  1       -4 0.18797647E-01 0.12500172E+03</pdfrwt>
<totfact> 0.98477717E+03</totfact>
</mgrwt>
</event>
<event>
 5    1  0.3273105E-002  0.1249886E+03  0.7818608E-02  0.1235087E+00
         -4   -1    0    0    0  501 -0.00000000000E+00  0.00000000000E+00  0.11866835905E+03  0.11867515469E+03  0.12700000000E+01 0.  1.
          4   -1    0    0  501    0  0.00000000000E+00 -0.00000000000E+00 -0.32891369068E+02  0.32915878526E+02  0.12700000000E+01 0.  1.
         25    2    1    2    0    0  0.00000000000E+00  0.00000000000E+00  0.85776989984E+02  0.15159103321E+03  0.12498859684E+03 0.  0.
    9000005    1    3    3    0    0  0.75116753228E+01  0.62026403130E+02  0.41778642275E+02  0.75167512276E+02  0.10000000000E+01 0.  0.
    9000005    1    3    3    0    0 -0.75116753228E+01 -0.62026403130E+02  0.43998347708E+02  0.76423520937E+02  0.10000000000E+01 0.  0.
<mgrwt>
<rscale>  0 0.12498860E+03</rscale>
<asrwt>0</asrwt>
<pdfrwt beam="2">  1        4 0.50626186E-02 0.12498860E+03</pdfrwt>
<pdfrwt beam="1">  1       -4 0.18259079E-01 0.12498860E+03</pdfrwt>
<totfact> 0.99012893E+03</totfact>
</mgrwt>
</event>
<event>
 5    1  0.3273105E-002  0.1249995E+03  0.7818608E-02  0.1235070E+00
          4   -1    0    0  501    0  0.00000000000E+00  0.00000000000E+00  0.75010254986E+01  0.76077778313E+01  0.12700000000E+01 0. -1.
         -4   -1    0    0    0  501 -0.00000000000E+00 -0.00000000000E+00 -0.51697127167E+03  0.51697283162E+03  0.12700000000E+01 0. -1.
         25    2    1    2    0    0  0.00000000000E+00  0.00000000000E+00 -0.50947024617E+03  0.52458060945E+03  0.12499953631E+03 0.  0.
    9000005    1    3    3    0    0  0.49171895658E+02 -0.38518961353E+02 -0.26273668435E+03  0.27006138378E+03  0.10000000000E+01 0.  0.
    9000005    1    3    3    0    0 -0.49171895658E+02  0.38518961353E+02 -0.24673356182E+03  0.25451922566E+03  0.10000000000E+01 0.  0.
<mgrwt>
<rscale>  0 0.12499954E+03</rscale>
<asrwt>0</asrwt>
<pdfrwt beam="1">  1        4 0.11623360E-02 0.12499954E+03</pdfrwt>
<pdfrwt beam="2">  1       -4 0.79542346E-01 0.12499954E+03</pdfrwt>
<totfact> 0.54006969E+03</totfact>
</mgrwt>
</event>
<event>
 5    1  0.3273105E-002  0.1250016E+03  0.7818608E-02  0.1235067E+00
         -4   -1    0    0    0  501 -0.00000000000E+00  0.00000000000E+00  0.15221281223E+02  0.15274171077E+02  0.12700000000E+01 0.  1.
          4   -1    0    0  501    0  0.00000000000E+00 -0.00000000000E+00 -0.25613793439E+03  0.25614108287E+03  0.12700000000E+01 0.  1.
         25    2    1    2    0    0  0.00000000000E+00  0.00000000000E+00 -0.24091665317E+03  0.27141525395E+03  0.12500162520E+03 0.  0.
    9000005    1    3    3    0    0 -0.17603777896E+02 -0.48276743824E+02 -0.43237930483E+02  0.67164392523E+02  0.10000000000E+01 0.  0.
    9000005    1    3    3    0    0  0.17603777896E+02  0.48276743824E+02 -0.19767872269E+03  0.20425086143E+03  0.10000000000E+01 0.  0.
<mgrwt>
<rscale>  0 0.12500163E+03</rscale>
<asrwt>0</asrwt>
<pdfrwt beam="2">  1        4 0.39410144E-01 0.12500163E+03</pdfrwt>
<pdfrwt beam="1">  1       -4 0.23460464E-02 0.12500163E+03</pdfrwt>
<totfact> 0.79327444E+03</totfact>
</mgrwt>
</event>
<event>
 5    1  0.3273105E-002  0.1250024E+03  0.7818608E-02  0.1235066E+00
         -4   -1    0    0    0  501 -0.00000000000E+00  0.00000000000E+00  0.73359098130E+02  0.73370090490E+02  0.12700000000E+01 0.  1.
          4   -1    0    0  501    0  0.00000000000E+00 -0.00000000000E+00 -0.53227820697E+02  0.53242969453E+02  0.12700000000E+01 0.  1.
         25    2    1    2    0    0  0.00000000000E+00  0.00000000000E+00  0.20131277433E+02  0.12661305994E+03  0.12500239444E+03 0.  0.
    9000005    1    3    3    0    0 -0.12010908183E+02  0.26640109823E+02 -0.45885992560E+02  0.54410308582E+02  0.10000000000E+01 0.  0.
    9000005    1    3    3    0    0  0.12010908183E+02 -0.26640109823E+02  0.66017269993E+02  0.72202751361E+02  0.10000000000E+01 0.  0.
<mgrwt>
<rscale>  0 0.12500239E+03</rscale>
<asrwt>0</asrwt>
<pdfrwt beam="2">  1        4 0.81909063E-02 0.12500239E+03</pdfrwt>
<pdfrwt beam="1">  1       -4 0.11288026E-01 0.12500239E+03</pdfrwt>
<totfact> 0.10417001E+04</totfact>
</mgrwt>
</event>
<event>
 5    1  0.3273105E-002  0.1250009E+03  0.7818608E-02  0.1235068E+00
         -4   -1    0    0    0  501 -0.00000000000E+00  0.00000000000E+00  0.12626533833E+03  0.12627172512E+03  0.12700000000E+01 0. -1.
          4   -1    0    0  501    0  0.00000000000E+00 -0.00000000000E+00 -0.30917081199E+02  0.30943154492E+02  0.12700000000E+01 0. -1.
         25    2    1    2    0    0  0.00000000000E+00  0.00000000000E+00  0.95348257135E+02  0.15721487961E+03  0.12500091293E+03 0.  0.
    9000005    1    3    3    0    0 -0.60288870199E+02 -0.80620118054E+01  0.65706510565E+02  0.89543785015E+02  0.10000000000E+01 0.  0.
    9000005    1    3    3    0    0  0.60288870199E+02  0.80620118054E+01  0.29641746570E+02  0.67671094596E+02  0.10000000000E+01 0.  0.
<mgrwt>
<rscale>  0 0.12500091E+03</rscale>
<asrwt>0</asrwt>
<pdfrwt beam="2">  1        4 0.47589710E-02 0.12500091E+03</pdfrwt>
<pdfrwt beam="1">  1       -4 0.19427933E-01 0.12500091E+03</pdfrwt>
<totfact> 0.97880428E+03</totfact>
</mgrwt>
</event>
<event>
 5    1  0.3273105E-002  0.1249989E+03  0.7818608E-02  0.1235071E+00
         -4   -1    0    0    0  501 -0.00000000000E+00  0.00000000000E+00  0.52938985042E+01  0.54441033580E+01  0.12700000000E+01 0.  1.
          4   -1    0    0  501    0  0.00000000000E+00 -0.00000000000E+00 -0.72739223309E+03  0.72739334178E+03  0.12700000000E+01 0.  1.
         25    2    1    2    0    0  0.00000000000E+00  0.00000000000E+00 -0.72209833459E+03  0.73283744514E+03  0.12499886471E+03 0.  0.
    9000005    1    3    3    0    0  0.16557817213E+02  0.43478250770E+02 -0.60565031401E+03  0.60743544716E+03  0.10000000000E+01 0.  0.
    9000005    1    3    3    0    0 -0.16557817213E+02 -0.43478250770E+02 -0.11644802057E+03  0.12540199798E+03  0.10000000000E+01 0.  0.
<mgrwt>
<rscale>  0 0.12499886E+03</rscale>
<asrwt>0</asrwt>
<pdfrwt beam="2">  1        4 0.11191806E+00 0.12499886E+03</pdfrwt>
<pdfrwt beam="1">  1       -4 0.82608600E-03 0.12499886E+03</pdfrwt>
<totfact> 0.41409834E+03</totfact>
</mgrwt>
</event>
<event>
 5    1  0.3273105E-002  0.1249996E+03  0.7818608E-02  0.1235070E+00
         -4   -1    0    0    0  501 -0.00000000000E+00  0.00000000000E+00  0.10796488304E+02  0.10870927269E+02  0.12700000000E+01 0. -1.
          4   -1    0    0  501    0  0.00000000000E+00 -0.00000000000E+00 -0.36048667220E+03  0.36048890931E+03  0.12700000000E+01 0. -1.
         25    2    1    2    0    0  0.00000000000E+00  0.00000000000E+00 -0.34969018390E+03  0.37135983658E+03  0.12499961404E+03 0.  0.
    9000005    1    3    3    0    0  0.49604491586E+02 -0.33894659998E+02 -0.12375166643E+03  0.13756790508E+03  0.10000000000E+01 0.  0.
    9000005    1    3    3    0    0 -0.49604491586E+02  0.33894659998E+02 -0.22593851747E+03  0.23379193151E+03  0.10000000000E+01 0.  0.
<mgrwt>
<rscale>  0 0.12499961E+03</rscale>
<asrwt>0</asrwt>
<pdfrwt beam="2">  1        4 0.55465377E-01 0.12499961E+03</pdfrwt>
<pdfrwt beam="1">  1       -4 0.16668966E-02 0.12499961E+03</pdfrwt>
<totfact> 0.67437492E+03</totfact>
</mgrwt>
</event>
<event>
 5    1  0.3273105E-002  0.1250003E+03  0.7818608E-02  0.1235069E+00
          4   -1    0    0  501    0  0.00000000000E+00  0.00000000000E+00  0.42210428299E+01  0.44079590029E+01  0.12700000000E+01 0.  1.
         -4   -1    0    0    0  501 -0.00000000000E+00 -0.00000000000E+00 -0.90519411707E+03  0.90519500798E+03  0.12700000000E+01 0.  1.
         25    2    1    2    0    0  0.00000000000E+00  0.00000000000E+00 -0.90097307424E+03  0.90960296699E+03  0.12500030818E+03 0.  0.
    9000005    1    3    3    0    0 -0.47829502493E+02  0.22747071015E+02 -0.20912258783E+03  0.21572748385E+03  0.10000000000E+01 0.  0.
    9000005    1    3    3    0    0  0.47829502493E+02 -0.22747071015E+02 -0.69185048642E+03  0.69387548314E+03  0.10000000000E+01 0.  0.
<mgrwt>
<rscale>  0 0.12500031E+03</rscale>
<asrwt>0</asrwt>
<pdfrwt beam="1">  1        4 0.66383862E-03 0.12500031E+03</pdfrwt>
<pdfrwt beam="2">  1       -4 0.13927493E+00 0.12500031E+03</pdfrwt>
<totfact> 0.33794679E+03</totfact>
</mgrwt>
</event>
<event>
 5    1  0.3273105E-002  0.1249997E+03  0.7818608E-02  0.1235070E+00
          4   -1    0    0  501    0  0.00000000000E+00  0.00000000000E+00  0.74722122493E+02  0.74732914368E+02  0.12700000000E+01 0. -1.
         -4   -1    0    0    0  501 -0.00000000000E+00 -0.00000000000E+00 -0.52254456339E+02  0.52269887194E+02  0.12700000000E+01 0. -1.
         25    2    1    2    0    0  0.00000000000E+00  0.00000000000E+00  0.22467666154E+02  0.12700280156E+03  0.12499966233E+03 0.  0.
    9000005    1    3    3    0    0 -0.48014028906E+02  0.31920644353E+01  0.51743721247E+02  0.70667877679E+02  0.10000000000E+01 0.  0.
    9000005    1    3    3    0    0  0.48014028906E+02 -0.31920644353E+01 -0.29276055093E+02  0.56334923883E+02  0.10000000000E+01 0.  0.
<mgrwt>
<rscale>  0 0.12499966E+03</rscale>
<asrwt>0</asrwt>
<pdfrwt beam="1">  1        4 0.11497728E-01 0.12499966E+03</pdfrwt>
<pdfrwt beam="2">  1       -4 0.80411643E-02 0.12499966E+03</pdfrwt>
<totfact> 0.10409164E+04</totfact>
</mgrwt>
</event>
<event>
 5    1  0.3273105E-002  0.1250000E+03  0.7818608E-02  0.1235069E+00
         -4   -1    0    0    0  501 -0.00000000000E+00  0.00000000000E+00  0.92830786532E+02  0.92839473438E+02  0.12700000000E+01 0. -1.
          4   -1    0    0  501    0  0.00000000000E+00 -0.00000000000E+00 -0.42059017304E+02  0.42078187183E+02  0.12700000000E+01 0. -1.
         25    2    1    2    0    0  0.00000000000E+00  0.00000000000E+00  0.50771769228E+02  0.13491766062E+03  0.12500001039E+03 0.  0.
    9000005    1    3    3    0    0  0.14650456930E+02 -0.20773987425E+02 -0.36231701175E+02  0.44271103576E+02  0.10000000000E+01 0.  0.
    9000005    1    3    3    0    0 -0.14650456930E+02  0.20773987425E+02  0.87003470403E+02  0.90646557044E+02  0.10000000000E+01 0.  0.
<mgrwt>
<rscale>  0 0.12500001E+03</rscale>
<asrwt>0</asrwt>
<pdfrwt beam="2">  1        4 0.64727609E-02 0.12500001E+03</pdfrwt>
<pdfrwt beam="1">  1       -4 0.14283802E-01 0.12500001E+03</pdfrwt>
<totfact> 0.10239804E+04</totfact>
</mgrwt>
</event>
<event>
 5    1  0.3273105E-002  0.1250073E+03  0.7818608E-02  0.1235058E+00
          4   -1    0    0  501    0  0.00000000000E+00  0.00000000000E+00  0.26064082129E+02  0.26095004833E+02  0.12700000000E+01 0. -1.
         -4   -1    0    0    0  501 -0.00000000000E+00 -0.00000000000E+00 -0.14976598745E+03  0.14977137209E+03  0.12700000000E+01 0. -1.
         25    2    1    2    0    0  0.00000000000E+00  0.00000000000E+00 -0.12370190532E+03  0.17586637692E+03  0.12500728439E+03 0.  0.
    9000005    1    3    3    0    0 -0.34380512531E+02  0.31969294613E+02 -0.38169406328E+01  0.47112890760E+02  0.10000000000E+01 0.  0.
    9000005    1    3    3    0    0  0.34380512531E+02 -0.31969294613E+02 -0.11988496469E+03  0.12875348616E+03  0.10000000000E+01 0.  0.
<mgrwt>
<rscale>  0 0.12500728E+03</rscale>
<asrwt>0</asrwt>
<pdfrwt beam="1">  1        4 0.40126518E-02 0.12500728E+03</pdfrwt>
<pdfrwt beam="2">  1       -4 0.23043714E-01 0.12500728E+03</pdfrwt>
<totfact> 0.94350987E+03</totfact>
</mgrwt>
</event>
<event>
 5    1  0.3273105E-002  0.1250013E+03  0.7818608E-02  0.1235067E+00
         -4   -1    0    0    0  501 -0.00000000000E+00  0.00000000000E+00  0.34992484461E+03  0.34992714924E+03  0.12700000000E+01 0.  1.
          4   -1    0    0  501    0  0.00000000000E+00 -0.00000000000E+00 -0.11124878118E+02  0.11197134149E+02  0.12700000000E+01 0.  1.
         25    2    1    2    0    0  0.00000000000E+00  0.00000000000E+00  0.33879996649E+03  0.36112428338E+03  0.12500132303E+03 0.  0.
    9000005    1    3    3    0    0 -0.46402128687E+02 -0.17904010040E+02  0.60090913180E+02  0.78010441410E+02  0.10000000000E+01 0.  0.
    9000005    1    3    3    0    0  0.46402128687E+02  0.17904010040E+02  0.27870905331E+03  0.28311384197E+03  0.10000000000E+01 0.  0.
<mgrwt>
<rscale>  0 0.12500132E+03</rscale>
<asrwt>0</asrwt>
<pdfrwt beam="2">  1        4 0.17172551E-02 0.12500132E+03</pdfrwt>
<pdfrwt beam="1">  1       -4 0.53840327E-01 0.12500132E+03</pdfrwt>
<totfact> 0.68515833E+03</totfact>
</mgrwt>
</event>
<event>
 5    1  0.3273105E-002  0.1250002E+03  0.7818608E-02  0.1235069E+00
         -4   -1    0    0    0  501 -0.00000000000E+00  0.00000000000E+00  0.47159215422E+03  0.47159386428E+03  0.12700000000E+01 0.  1.
          4   -1    0    0  501    0  0.00000000000E+00 -0.00000000000E+00 -0.82327220849E+01  0.83301028161E+01  0.12700000000E+01 0.  1.
         25    2    1    2    0    0  0.00000000000E+00  0.00000000000E+00  0.46335943214E+03  0.47992396709E+03  0.12500020336E+03 0.  0.
    9000005    1    3    3    0    0  0.49409505068E+02 -0.24806771162E+02  0.11983639205E+03  0.13197892235E+03  0.10000000000E+01 0.  0.
    9000005    1    3    3    0    0 -0.49409505068E+02  0.24806771162E+02  0.34352304009E+03  0.34794504474E+03  0.10000000000E+01 0.  0.
<mgrwt>
<rscale>  0 0.12500020E+03</rscale>
<asrwt>0</asrwt>
<pdfrwt beam="2">  1        4 0.12741948E-02 0.12500020E+03</pdfrwt>
<pdfrwt beam="1">  1       -4 0.72560271E-01 0.12500020E+03</pdfrwt>
<totfact> 0.57456109E+03</totfact>
</mgrwt>
</event>
<event>
 5    1  0.3273105E-002  0.1250019E+03  0.7818608E-02  0.1235066E+00
         -4   -1    0    0    0  501 -0.00000000000E+00  0.00000000000E+00  0.20005593762E+03  0.20005996871E+03  0.12700000000E+01 0. -1.
          4   -1    0    0  501    0  0.00000000000E+00 -0.00000000000E+00 -0.19501497608E+02  0.19542807090E+02  0.12700000000E+01 0. -1.
         25    2    1    2    0    0  0.00000000000E+00  0.00000000000E+00  0.18055444002E+03  0.21960277580E+03  0.12500189330E+03 0.  0.
    9000005    1    3    3    0    0  0.11696170054E+02  0.59438372729E+02  0.63308960690E+02  0.87628448863E+02  0.10000000000E+01 0.  0.
    9000005    1    3    3    0    0 -0.11696170054E+02 -0.59438372729E+02  0.11724547933E+03  0.13197432693E+03  0.10000000000E+01 0.  0.
<mgrwt>
<rscale>  0 0.12500189E+03</rscale>
<asrwt>0</asrwt>
<pdfrwt beam="2">  1        4 0.30037182E-02 0.12500189E+03</pdfrwt>
<pdfrwt beam="1">  1       -4 0.30781324E-01 0.12500189E+03</pdfrwt>
<totfact> 0.86927567E+03</totfact>
</mgrwt>
</event>
<event>
 5    1  0.3273105E-002  0.1250006E+03  0.7818608E-02  0.1235068E+00
          4   -1    0    0  501    0  0.00000000000E+00  0.00000000000E+00  0.12002213334E+03  0.12002885232E+03  0.12700000000E+01 0.  1.
         -4   -1    0    0    0  501 -0.00000000000E+00 -0.00000000000E+00 -0.32526368950E+02  0.32551153237E+02  0.12700000000E+01 0.  1.
         25    2    1    2    0    0  0.00000000000E+00  0.00000000000E+00  0.87495764385E+02  0.15258000556E+03  0.12500059725E+03 0.  0.
    9000005    1    3    3    0    0 -0.60366750554E+02  0.53995928486E+01  0.62339513812E+02  0.86951222865E+02  0.10000000000E+01 0.  0.
    9000005    1    3    3    0    0  0.60366750554E+02 -0.53995928486E+01  0.25156250573E+02  0.65628782697E+02  0.10000000000E+01 0.  0.
<mgrwt>
<rscale>  0 0.12500060E+03</rscale>
<asrwt>0</asrwt>
<pdfrwt beam="1">  1        4 0.18467367E-01 0.12500060E+03</pdfrwt>
<pdfrwt beam="2">  1       -4 0.50064801E-02 0.12500060E+03</pdfrwt>
<totfact> 0.98790549E+03</totfact>
</mgrwt>
</event>
<event>
 5    1  0.3273105E-002  0.1249847E+03  0.7818608E-02  0.1235093E+00
         -4   -1    0    0    0  501 -0.00000000000E+00  0.00000000000E+00  0.19980345468E+02  0.20020666948E+02  0.12700000000E+01 0.  1.
          4   -1    0    0  501    0  0.00000000000E+00 -0.00000000000E+00 -0.19521734654E+03  0.19522147753E+03  0.12700000000E+01 0.  1.
         25    2    1    2    0    0  0.00000000000E+00  0.00000000000E+00 -0.17523700107E+03  0.21524214448E+03  0.12498469593E+03 0.  0.
    9000005    1    3    3    0    0 -0.47798779907E+02  0.17364487026E+02 -0.25096112757E+02  0.56719164713E+02  0.10000000000E+01 0.  0.
    9000005    1    3    3    0    0  0.47798779907E+02 -0.17364487026E+02 -0.15014088832E+03  0.15852297977E+03  0.10000000000E+01 0.  0.
<mgrwt>
<rscale>  0 0.12498470E+03</rscale>
<asrwt>0</asrwt>
<pdfrwt beam="2">  1        4 0.30036856E-01 0.12498470E+03</pdfrwt>
<pdfrwt beam="1">  1       -4 0.30773189E-02 0.12498470E+03</pdfrwt>
<totfact> 0.87656837E+03</totfact>
</mgrwt>
</event>
<event>
 5    1  0.3273105E-002  0.1249997E+03  0.7818608E-02  0.1235070E+00
         -4   -1    0    0    0  501 -0.00000000000E+00  0.00000000000E+00  0.23224523599E+03  0.23224870837E+03  0.12700000000E+01 0. -1.
          4   -1    0    0  501    0  0.00000000000E+00 -0.00000000000E+00 -0.16791855028E+02  0.16839812805E+02  0.12700000000E+01 0. -1.
         25    2    1    2    0    0  0.00000000000E+00  0.00000000000E+00  0.21545338096E+03  0.24908852118E+03  0.12499972805E+03 0.  0.
    9000005    1    3    3    0    0 -0.14101571255E+02  0.37936778255E+02  0.20260951481E+03  0.20661478395E+03  0.10000000000E+01 0.  0.
    9000005    1    3    3    0    0  0.14101571255E+02 -0.37936778255E+02  0.12843866155E+02  0.42473737227E+02  0.10000000000E+01 0.  0.
<mgrwt>
<rscale>  0 0.12499973E+03</rscale>
<asrwt>0</asrwt>
<pdfrwt beam="2">  1        4 0.25873186E-02 0.12499973E+03</pdfrwt>
<pdfrwt beam="1">  1       -4 0.35733991E-01 0.12499973E+03</pdfrwt>
<totfact> 0.82462643E+03</totfact>
</mgrwt>
</event>
<event>
 5    1  0.3273105E-002  0.1249996E+03  0.7818608E-02  0.1235070E+00
          4   -1    0    0  501    0  0.00000000000E+00  0.00000000000E+00  0.60459415236E+03  0.60459548623E+03  0.12700000000E+01 0. -1.
         -4   -1    0    0    0  501 -0.00000000000E+00 -0.00000000000E+00 -0.63971438335E+01  0.65219896678E+01  0.12700000000E+01 0. -1.
         25    2    1    2    0    0  0.00000000000E+00  0.00000000000E+00  0.59819700852E+03  0.61111747589E+03  0.12499963334E+03 0.  0.
    9000005    1    3    3    0    0 -0.36461141125E+02 -0.10343884304E+02  0.56180136244E+02  0.67776238189E+02  0.10000000000E+01 0.  0.
    9000005    1    3    3    0    0  0.36461141125E+02  0.10343884304E+02  0.54201687228E+03  0.54334123771E+03  0.10000000000E+01 0.  0.
<mgrwt>
<rscale>  0 0.12499963E+03</rscale>
<asrwt>0</asrwt>
<pdfrwt beam="1">  1        4 0.93024189E-01 0.12499963E+03</pdfrwt>
<pdfrwt beam="2">  1       -4 0.99388213E-03 0.12499963E+03</pdfrwt>
<totfact> 0.48173667E+03</totfact>
</mgrwt>
</event>
<event>
 5    1  0.3273105E-002  0.1250014E+03  0.7818608E-02  0.1235067E+00
          4   -1    0    0  501    0  0.00000000000E+00  0.00000000000E+00  0.72462783568E+03  0.72462894860E+03  0.12700000000E+01 0. -1.
         -4   -1    0    0    0  501 -0.00000000000E+00 -0.00000000000E+00 -0.53148839276E+01  0.54645119786E+01  0.12700000000E+01 0. -1.
         25    2    1    2    0    0  0.00000000000E+00  0.00000000000E+00  0.71931295175E+03  0.73009346058E+03  0.12500135445E+03 0.  0.
    9000005    1    3    3    0    0 -0.49924748337E+02 -0.36788577548E+02  0.40469217457E+03  0.40941743502E+03  0.10000000000E+01 0.  0.
    9000005    1    3    3    0    0  0.49924748337E+02  0.36788577548E+02  0.31462077718E+03  0.32067602556E+03  0.10000000000E+01 0.  0.
<mgrwt>
<rscale>  0 0.12500135E+03</rscale>
<asrwt>0</asrwt>
<pdfrwt beam="1">  1        4 0.11149283E+00 0.12500135E+03</pdfrwt>
<pdfrwt beam="2">  1       -4 0.82926969E-03 0.12500135E+03</pdfrwt>
<totfact> 0.41543601E+03</totfact>
</mgrwt>
</event>
<event>
 5    1  0.3273105E-002  0.1250058E+03  0.7818608E-02  0.1235060E+00
         -4   -1    0    0    0  501 -0.00000000000E+00  0.00000000000E+00  0.12963436012E+03  0.12964058093E+03  0.12700000000E+01 0. -1.
          4   -1    0    0  501    0  0.00000000000E+00 -0.00000000000E+00 -0.30115304024E+02  0.30142070872E+02  0.12700000000E+01 0. -1.
         25    2    1    2    0    0  0.00000000000E+00  0.00000000000E+00  0.99519056095E+02  0.15978265180E+03  0.12500581303E+03 0.  0.
    9000005    1    3    3    0    0 -0.30414856699E+02 -0.54565500648E+02  0.52030254029E+02  0.81305625286E+02  0.10000000000E+01 0.  0.
    9000005    1    3    3    0    0  0.30414856699E+02  0.54565500648E+02  0.47488802066E+02  0.78477026515E+02  0.10000000000E+01 0.  0.
<mgrwt>
<rscale>  0 0.12500581E+03</rscale>
<asrwt>0</asrwt>
<pdfrwt beam="2">  1        4 0.46356613E-02 0.12500581E+03</pdfrwt>
<pdfrwt beam="1">  1       -4 0.19946285E-01 0.12500581E+03</pdfrwt>
<totfact> 0.97371981E+03</totfact>
</mgrwt>
</event>
<event>
 5    1  0.3273105E-002  0.1249975E+03  0.7818608E-02  0.1235073E+00
         -4   -1    0    0    0  501 -0.00000000000E+00  0.00000000000E+00  0.34493586233E+02  0.34516958024E+02  0.12700000000E+01 0.  1.
          4   -1    0    0  501    0  0.00000000000E+00 -0.00000000000E+00 -0.11317590510E+03  0.11318303051E+03  0.12700000000E+01 0.  1.
         25    2    1    2    0    0  0.00000000000E+00  0.00000000000E+00 -0.78682318866E+02  0.14769998853E+03  0.12499751722E+03 0.  0.
    9000005    1    3    3    0    0  0.45741708882E+02 -0.41894289774E+02 -0.48313671702E+02  0.78629805547E+02  0.10000000000E+01 0.  0.
    9000005    1    3    3    0    0 -0.45741708882E+02  0.41894289774E+02 -0.30368647164E+02  0.69070182986E+02  0.10000000000E+01 0.  0.
<mgrwt>
<rscale>  0 0.12499752E+03</rscale>
<asrwt>0</asrwt>
<pdfrwt beam="2">  1        4 0.17414023E-01 0.12499752E+03</pdfrwt>
<pdfrwt beam="1">  1       -4 0.53090516E-02 0.12499752E+03</pdfrwt>
<totfact> 0.99769738E+03</totfact>
</mgrwt>
</event>
<event>
 5    1  0.3273105E-002  0.1249994E+03  0.7818608E-02  0.1235070E+00
         -4   -1    0    0    0  501 -0.00000000000E+00  0.00000000000E+00  0.73646108594E+02  0.73657058121E+02  0.12700000000E+01 0.  1.
          4   -1    0    0  501    0  0.00000000000E+00 -0.00000000000E+00 -0.53017800168E+02  0.53033008916E+02  0.12700000000E+01 0.  1.
         25    2    1    2    0    0  0.00000000000E+00  0.00000000000E+00  0.20628308426E+02  0.12669006704E+03  0.12499938391E+03 0.  0.
    9000005    1    3    3    0    0 -0.11209865207E+02 -0.35728761357E+02  0.61020888509E+02  0.71601356834E+02  0.10000000000E+01 0.  0.
    9000005    1    3    3    0    0  0.11209865207E+02  0.35728761357E+02 -0.40392580083E+02  0.55088710203E+02  0.10000000000E+01 0.  0.
<mgrwt>
<rscale>  0 0.12499938E+03</rscale>
<asrwt>0</asrwt>
<pdfrwt beam="2">  1        4 0.81585969E-02 0.12499938E+03</pdfrwt>
<pdfrwt beam="1">  1       -4 0.11332183E-01 0.12499938E+03</pdfrwt>
<totfact> 0.10416031E+04</totfact>
</mgrwt>
</event>
<event>
 5    1  0.3273105E-002  0.1250004E+03  0.7818608E-02  0.1235069E+00
          4   -1    0    0  501    0  0.00000000000E+00  0.00000000000E+00  0.14599786346E+03  0.14600338707E+03  0.12700000000E+01 0.  1.
         -4   -1    0    0    0  501 -0.00000000000E+00 -0.00000000000E+00 -0.26734616338E+02  0.26764764351E+02  0.12700000000E+01 0.  1.
         25    2    1    2    0    0  0.00000000000E+00  0.00000000000E+00  0.11926324713E+03  0.17276815142E+03  0.12500044812E+03 0.  0.
    9000005    1    3    3    0    0  0.34443925114E+02  0.11450745413E+02  0.12994133696E+03  0.13491943744E+03  0.10000000000E+01 0.  0.
    9000005    1    3    3    0    0 -0.34443925114E+02 -0.11450745413E+02 -0.10678089833E+02  0.37848713984E+02  0.10000000000E+01 0.  0.
<mgrwt>
<rscale>  0 0.12500045E+03</rscale>
<asrwt>0</asrwt>
<pdfrwt beam="1">  1        4 0.22463954E-01 0.12500045E+03</pdfrwt>
<pdfrwt beam="2">  1       -4 0.41157619E-02 0.12500045E+03</pdfrwt>
<totfact> 0.94934240E+03</totfact>
</mgrwt>
</event>
<event>
 5    1  0.3273105E-002  0.1250001E+03  0.7818608E-02  0.1235069E+00
         -4   -1    0    0    0  501 -0.00000000000E+00  0.00000000000E+00  0.19660904359E+02  0.19701879611E+02  0.12700000000E+01 0. -1.
          4   -1    0    0  501    0  0.00000000000E+00 -0.00000000000E+00 -0.19843145650E+03  0.19843552058E+03  0.12700000000E+01 0. -1.
         25    2    1    2    0    0  0.00000000000E+00  0.00000000000E+00 -0.17877055214E+03  0.21813740019E+03  0.12500006020E+03 0.  0.
    9000005    1    3    3    0    0 -0.25751369620E+02 -0.43440886974E+02 -0.25147400311E+02  0.56423713461E+02  0.10000000000E+01 0.  0.
    9000005    1    3    3    0    0  0.25751369620E+02  0.43440886974E+02 -0.15362315183E+03  0.16171368673E+03  0.10000000000E+01 0.  0.
<mgrwt>
<rscale>  0 0.12500006E+03</rscale>
<asrwt>0</asrwt>
<pdfrwt beam="2">  1        4 0.30531380E-01 0.12500006E+03</pdfrwt>
<pdfrwt beam="1">  1       -4 0.30282192E-02 0.12500006E+03</pdfrwt>
<totfact> 0.87163826E+03</totfact>
</mgrwt>
</event>
<event>
 5    1  0.3273105E-002  0.1249977E+03  0.7818608E-02  0.1235073E+00
          4   -1    0    0  501    0  0.00000000000E+00  0.00000000000E+00  0.35618691677E+02  0.35641325688E+02  0.12700000000E+01 0. -1.
         -4   -1    0    0    0  501 -0.00000000000E+00 -0.00000000000E+00 -0.10960342860E+03  0.10961078624E+03  0.12700000000E+01 0. -1.
         25    2    1    2    0    0  0.00000000000E+00  0.00000000000E+00 -0.73984736921E+02  0.14525211193E+03  0.12499773887E+03 0.  0.
    9000005    1    3    3    0    0  0.43494871220E+02  0.65881456386E+01  0.14583021521E+02  0.46355927367E+02  0.10000000000E+01 0.  0.
    9000005    1    3    3    0    0 -0.43494871220E+02 -0.65881456386E+01 -0.88567758442E+02  0.98896184562E+02  0.10000000000E+01 0.  0.
<mgrwt>
<rscale>  0 0.12499774E+03</rscale>
<asrwt>0</asrwt>
<pdfrwt beam="1">  1        4 0.54821058E-02 0.12499774E+03</pdfrwt>
<pdfrwt beam="2">  1       -4 0.16864373E-01 0.12499774E+03</pdfrwt>
<totfact> 0.10026379E+04</totfact>
</mgrwt>
</event>
<event>
 5    1  0.3273105E-002  0.1250001E+03  0.7818608E-02  0.1235069E+00
          4   -1    0    0  501    0  0.00000000000E+00  0.00000000000E+00  0.29808988735E+01  0.32401632820E+01  0.12700000000E+01 0. -1.
         -4   -1    0    0    0  501 -0.00000000000E+00 -0.00000000000E+00 -0.12555561270E+04  0.12555567694E+04  0.12700000000E+01 0. -1.
         25    2    1    2    0    0  0.00000000000E+00  0.00000000000E+00 -0.12525752282E+04  0.12587969326E+04  0.12500006150E+03 0.  0.
    9000005    1    3    3    0    0 -0.46853908364E+02 -0.38926835233E+02 -0.48578280603E+03  0.48958811450E+03  0.10000000000E+01 0.  0.
    9000005    1    3    3    0    0  0.46853908364E+02  0.38926835233E+02 -0.76679242215E+03  0.76920881813E+03  0.10000000000E+01 0.  0.
<mgrwt>
<rscale>  0 0.12500006E+03</rscale>
<asrwt>0</asrwt>
<pdfrwt beam="1">  1        4 0.47859365E-03 0.12500006E+03</pdfrwt>
<pdfrwt beam="2">  1       -4 0.19318207E+00 0.12500006E+03</pdfrwt>
<totfact> 0.23222377E+03</totfact>
</mgrwt>
</event>
<event>
 5    1  0.3273105E-002  0.1250029E+03  0.7818608E-02  0.1235065E+00
         -4   -1    0    0    0  501 -0.00000000000E+00  0.00000000000E+00  0.10754239328E+03  0.10754989193E+03  0.12700000000E+01 0.  1.
          4   -1    0    0  501    0  0.00000000000E+00 -0.00000000000E+00 -0.36304691248E+02  0.36326897839E+02  0.12700000000E+01 0.  1.
         25    2    1    2    0    0  0.00000000000E+00  0.00000000000E+00  0.71237702036E+02  0.14387678976E+03  0.12500288173E+03 0.  0.
    9000005    1    3    3    0    0  0.14642861757E+02  0.33656395296E+02  0.93834986670E+02  0.10076294492E+03  0.10000000000E+01 0.  0.
    9000005    1    3    3    0    0 -0.14642861757E+02 -0.33656395296E+02 -0.22597284635E+02  0.43113844849E+02  0.10000000000E+01 0.  0.
<mgrwt>
<rscale>  0 0.12500288E+03</rscale>
<asrwt>0</asrwt>
<pdfrwt beam="2">  1        4 0.55876222E-02 0.12500288E+03</pdfrwt>
<pdfrwt beam="1">  1       -4 0.16547268E-01 0.12500288E+03</pdfrwt>
<totfact> 0.10053207E+04</totfact>
</mgrwt>
</event>
<event>
 5    1  0.3273105E-002  0.1249976E+03  0.7818608E-02  0.1235073E+00
         -4   -1    0    0    0  501 -0.00000000000E+00  0.00000000000E+00  0.47261432476E+02  0.47278492993E+02  0.12700000000E+01 0.  1.
          4   -1    0    0  501    0  0.00000000000E+00 -0.00000000000E+00 -0.82611945534E+02  0.82621706862E+02  0.12700000000E+01 0.  1.
         25    2    1    2    0    0  0.00000000000E+00  0.00000000000E+00 -0.35350513057E+02  0.12990019986E+03  0.12499761257E+03 0.  0.
    9000005    1    3    3    0    0  0.38343996004E+02  0.47079195414E+02 -0.33032830042E+02  0.69129447640E+02  0.10000000000E+01 0.  0.
    9000005    1    3    3    0    0 -0.38343996004E+02 -0.47079195414E+02 -0.23176830150E+01  0.60770752216E+02  0.10000000000E+01 0.  0.
<mgrwt>
<rscale>  0 0.12499761E+03</rscale>
<asrwt>0</asrwt>
<pdfrwt beam="2">  1        4 0.12711593E-01 0.12499761E+03</pdfrwt>
<pdfrwt beam="1">  1       -4 0.72730528E-02 0.12499761E+03</pdfrwt>
<totfact> 0.10347200E+04</totfact>
</mgrwt>
</event>
<event>
 5    1  0.3273105E-002  0.1249884E+03  0.7818608E-02  0.1235087E+00
          4   -1    0    0  501    0  0.00000000000E+00  0.00000000000E+00  0.70229090156E+02  0.70240572350E+02  0.12700000000E+01 0. -1.
         -4   -1    0    0    0  501 -0.00000000000E+00 -0.00000000000E+00 -0.55587976442E+02  0.55602482183E+02  0.12700000000E+01 0. -1.
         25    2    1    2    0    0  0.00000000000E+00  0.00000000000E+00  0.14641113713E+02  0.12584305453E+03  0.12498844812E+03 0.  0.
    9000005    1    3    3    0    0  0.41413362943E+02  0.38491137631E+02 -0.19467635549E+02  0.59804875556E+02  0.10000000000E+01 0.  0.
    9000005    1    3    3    0    0 -0.41413362943E+02 -0.38491137631E+02  0.34108749262E+02  0.66038178977E+02  0.10000000000E+01 0.  0.
<mgrwt>
<rscale>  0 0.12498845E+03</rscale>
<asrwt>0</asrwt>
<pdfrwt beam="1">  1        4 0.10806475E-01 0.12498845E+03</pdfrwt>
<pdfrwt beam="2">  1       -4 0.85539954E-02 0.12498845E+03</pdfrwt>
<totfact> 0.10437120E+04</totfact>
</mgrwt>
</event>
<event>
 5    1  0.3273105E-002  0.1250007E+03  0.7818608E-02  0.1235068E+00
         -4   -1    0    0    0  501 -0.00000000000E+00  0.00000000000E+00  0.17725546447E+02  0.17770984690E+02  0.12700000000E+01 0.  1.
          4   -1    0    0  501    0  0.00000000000E+00 -0.00000000000E+00 -0.22004716074E+03  0.22005082561E+03  0.12700000000E+01 0.  1.
         25    2    1    2    0    0  0.00000000000E+00  0.00000000000E+00 -0.20232161429E+03  0.23782181030E+03  0.12500071137E+03 0.  0.
    9000005    1    3    3    0    0  0.35368838461E+02  0.22074952403E+02 -0.12593736736E+02  0.43564440346E+02  0.10000000000E+01 0.  0.
    9000005    1    3    3    0    0 -0.35368838461E+02 -0.22074952403E+02 -0.18972787756E+03  0.19425736995E+03  0.10000000000E+01 0.  0.
<mgrwt>
<rscale>  0 0.12500071E+03</rscale>
<asrwt>0</asrwt>
<pdfrwt beam="2">  1        4 0.33857184E-01 0.12500071E+03</pdfrwt>
<pdfrwt beam="1">  1       -4 0.27307845E-02 0.12500071E+03</pdfrwt>
<totfact> 0.84121510E+03</totfact>
</mgrwt>
</event>
<event>
 5    1  0.3273105E-002  0.1250006E+03  0.7818608E-02  0.1235068E+00
         -4   -1    0    0    0  501 -0.00000000000E+00  0.00000000000E+00  0.81876976096E+03  0.81877074591E+03  0.12700000000E+01 0. -1.
          4   -1    0    0  501    0  0.00000000000E+00 -0.00000000000E+00 -0.46853968701E+01  0.48544663795E+01  0.12700000000E+01 0. -1.
         25    2    1    2    0    0  0.00000000000E+00  0.00000000000E+00  0.81408436409E+03  0.82362521229E+03  0.12500055387E+03 0.  0.
    9000005    1    3    3    0    0 -0.25776421946E+02  0.27571674402E+02  0.73521425463E+03  0.73618314391E+03  0.10000000000E+01 0.  0.
    9000005    1    3    3    0    0  0.25776421946E+02 -0.27571674402E+02  0.78870109455E+02  0.87442068384E+02  0.10000000000E+01 0.  0.
<mgrwt>
<rscale>  0 0.12500055E+03</rscale>
<asrwt>0</asrwt>
<pdfrwt beam="2">  1        4 0.73391148E-03 0.12500055E+03</pdfrwt>
<pdfrwt beam="1">  1       -4 0.12597765E+00 0.12500055E+03</pdfrwt>
<totfact> 0.37231097E+03</totfact>
</mgrwt>
</event>
<event>
 5    1  0.3273105E-002  0.1250069E+03  0.7818608E-02  0.1235059E+00
         -4   -1    0    0    0  501 -0.00000000000E+00  0.00000000000E+00  0.30706900966E+03  0.30707163593E+03  0.12700000000E+01 0. -1.
          4   -1    0    0  501    0  0.00000000000E+00 -0.00000000000E+00 -0.12688100287E+02  0.12751501437E+02  0.12700000000E+01 0. -1.
         25    2    1    2    0    0  0.00000000000E+00  0.00000000000E+00  0.29438090937E+03  0.31982313737E+03  0.12500687738E+03 0.  0.
    9000005    1    3    3    0    0 -0.31810080317E+02  0.28937988618E+02  0.26320938781E+03  0.26670108779E+03  0.10000000000E+01 0.  0.
    9000005    1    3    3    0    0  0.31810080317E+02 -0.28937988618E+02  0.31171521560E+02  0.53122049578E+02  0.10000000000E+01 0.  0.
<mgrwt>
<rscale>  0 0.12500688E+03</rscale>
<asrwt>0</asrwt>
<pdfrwt beam="2">  1        4 0.19570947E-02 0.12500688E+03</pdfrwt>
<pdfrwt beam="1">  1       -4 0.47246460E-01 0.12500688E+03</pdfrwt>
<totfact> 0.73166012E+03</totfact>
</mgrwt>
</event>
<event>
 5    1  0.3273105E-002  0.1249994E+03  0.7818608E-02  0.1235070E+00
          4   -1    0    0  501    0  0.00000000000E+00  0.00000000000E+00  0.66543447616E+03  0.66543568808E+03  0.12700000000E+01 0. -1.
         -4   -1    0    0    0  501 -0.00000000000E+00 -0.00000000000E+00 -0.58002509036E+01  0.59376603595E+01  0.12700000000E+01 0. -1.
         25    2    1    2    0    0  0.00000000000E+00  0.00000000000E+00  0.65963422526E+03  0.67137334844E+03  0.12499944743E+03 0.  0.
    9000005    1    3    3    0    0  0.50111298322E+02 -0.31907046859E+02  0.22566747011E+03  0.23335811305E+03  0.10000000000E+01 0.  0.
    9000005    1    3    3    0    0 -0.50111298322E+02  0.31907046859E+02  0.43396675515E+03  0.43801523539E+03  0.10000000000E+01 0.  0.
<mgrwt>
<rscale>  0 0.12499945E+03</rscale>
<asrwt>0</asrwt>
<pdfrwt beam="1">  1        4 0.10238513E+00 0.12499945E+03</pdfrwt>
<pdfrwt beam="2">  1       -4 0.90301011E-03 0.12499945E+03</pdfrwt>
<totfact> 0.44642102E+03</totfact>
</mgrwt>
</event>
<event>
 5    1  0.3273105E-002  0.1250109E+03  0.7818608E-02  0.1235052E+00
          4   -1    0    0  501    0  0.00000000000E+00  0.00000000000E+00  0.27413480486E+02  0.27442882726E+02  0.12700000000E+01 0.  1.
         -4   -1    0    0    0  501 -0.00000000000E+00 -0.00000000000E+00 -0.14241003927E+03  0.14241570203E+03  0.12700000000E+01 0.  1.
         25    2    1    2    0    0  0.00000000000E+00  0.00000000000E+00 -0.11499655879E+03  0.16985858476E+03  0.12501092066E+03 0.  0.
    9000005    1    3    3    0    0 -0.25018239635E+01  0.94427644359E+01  0.26376418029E+02  0.28144988033E+02  0.10000000000E+01 0.  0.
    9000005    1    3    3    0    0  0.25018239635E+01 -0.94427644359E+01 -0.14137297682E+03  0.14171359673E+03  0.10000000000E+01 0.  0.
<mgrwt>
<rscale>  0 0.12501092E+03</rscale>
<asrwt>0</asrwt>
<pdfrwt beam="1">  1        4 0.42201559E-02 0.12501092E+03</pdfrwt>
<pdfrwt beam="2">  1       -4 0.21911934E-01 0.12501092E+03</pdfrwt>
<totfact> 0.95451602E+03</totfact>
</mgrwt>
</event>
<event>
 5    1  0.3273105E-002  0.1249984E+03  0.7818608E-02  0.1235072E+00
         -4   -1    0    0    0  501 -0.00000000000E+00  0.00000000000E+00  0.63340074626E+01  0.64600735705E+01  0.12700000000E+01 0. -1.
          4   -1    0    0  501    0  0.00000000000E+00 -0.00000000000E+00 -0.61049127507E+03  0.61049259606E+03  0.12700000000E+01 0. -1.
         25    2    1    2    0    0  0.00000000000E+00  0.00000000000E+00 -0.60415726761E+03  0.61695266963E+03  0.12499837021E+03 0.  0.
    9000005    1    3    3    0    0 -0.26703711219E+02  0.26196666775E+02 -0.55008510807E+02  0.66530367534E+02  0.10000000000E+01 0.  0.
    9000005    1    3    3    0    0  0.26703711219E+02 -0.26196666775E+02 -0.54914875680E+03  0.55042230209E+03  0.10000000000E+01 0.  0.
<mgrwt>
<rscale>  0 0.12499837E+03</rscale>
<asrwt>0</asrwt>
<pdfrwt beam="2">  1        4 0.93931487E-01 0.12499837E+03</pdfrwt>
<pdfrwt beam="1">  1       -4 0.98426218E-03 0.12499837E+03</pdfrwt>
<totfact> 0.47816426E+03</totfact>
</mgrwt>
</event>
<event>
 5    1  0.3273105E-002  0.1249931E+03  0.7818608E-02  0.1235080E+00
         -4   -1    0    0    0  501 -0.00000000000E+00  0.00000000000E+00  0.75624106794E+02  0.75634769969E+02  0.12700000000E+01 0.  1.
          4   -1    0    0  501    0  0.00000000000E+00 -0.00000000000E+00 -0.51625688611E+02  0.51641307348E+02  0.12700000000E+01 0.  1.
         25    2    1    2    0    0  0.00000000000E+00  0.00000000000E+00  0.23998418182E+02  0.12727607732E+03  0.12499310294E+03 0.  0.
    9000005    1    3    3    0    0 -0.42365286814E+02 -0.37037412468E+02  0.39665887207E+02  0.68854702506E+02  0.10000000000E+01 0.  0.
    9000005    1    3    3    0    0  0.42365286814E+02  0.37037412468E+02 -0.15667469025E+02  0.58421374811E+02  0.10000000000E+01 0.  0.
<mgrwt>
<rscale>  0 0.12499310E+03</rscale>
<asrwt>0</asrwt>
<pdfrwt beam="2">  1        4 0.79444353E-02 0.12499310E+03</pdfrwt>
<pdfrwt beam="1">  1       -4 0.11636500E-01 0.12499310E+03</pdfrwt>
<totfact> 0.10404773E+04</totfact>
</mgrwt>
</event>
<event>
 5    1  0.3273105E-002  0.1249854E+03  0.7818608E-02  0.1235092E+00
         -4   -1    0    0    0  501 -0.00000000000E+00  0.00000000000E+00  0.31744747881E+03  0.31745001922E+03  0.12700000000E+01 0.  1.
          4   -1    0    0  501    0  0.00000000000E+00 -0.00000000000E+00 -0.12266937472E+02  0.12332504001E+02  0.12700000000E+01 0.  1.
         25    2    1    2    0    0  0.00000000000E+00  0.00000000000E+00  0.30518054134E+03  0.32978252323E+03  0.12498539839E+03 0.  0.
    9000005    1    3    3    0    0 -0.35578410572E+02 -0.49358070651E+02  0.11506179292E+03  0.13016243171E+03  0.10000000000E+01 0.  0.
    9000005    1    3    3    0    0  0.35578410572E+02  0.49358070651E+02  0.19011874842E+03  0.19962009152E+03  0.10000000000E+01 0.  0.
<mgrwt>
<rscale>  0 0.12498540E+03</rscale>
<asrwt>0</asrwt>
<pdfrwt beam="2">  1        4 0.18924603E-02 0.12498540E+03</pdfrwt>
<pdfrwt beam="1">  1       -4 0.48843308E-01 0.12498540E+03</pdfrwt>
<totfact> 0.72030834E+03</totfact>
</mgrwt>
</event>
<event>
 5    1  0.3273105E-002  0.1249971E+03  0.7818608E-02  0.1235074E+00
          4   -1    0    0  501    0  0.00000000000E+00  0.00000000000E+00  0.88494982639E+03  0.88495073769E+03  0.12700000000E+01 0. -1.
         -4   -1    0    0    0  501 -0.00000000000E+00 -0.00000000000E+00 -0.43216025277E+01  0.45043477228E+01  0.12700000000E+01 0. -1.
         25    2    1    2    0    0  0.00000000000E+00  0.00000000000E+00  0.88062822386E+03  0.88945508541E+03  0.12499712114E+03 0.  0.
    9000005    1    3    3    0    0 -0.35114001889E+02 -0.29436222768E+02  0.13794803224E+03  0.14536211315E+03  0.10000000000E+01 0.  0.
    9000005    1    3    3    0    0  0.35114001889E+02  0.29436222768E+02  0.74268019162E+03  0.74409297226E+03  0.10000000000E+01 0.  0.
<mgrwt>
<rscale>  0 0.12499712E+03</rscale>
<asrwt>0</asrwt>
<pdfrwt beam="1">  1        4 0.13616026E+00 0.12499712E+03</pdfrwt>
<pdfrwt beam="2">  1       -4 0.67898931E-03 0.12499712E+03</pdfrwt>
<totfact> 0.34567012E+03</totfact>
</mgrwt>
</event>
<event>
 5    1  0.3273105E-002  0.1250024E+03  0.7818608E-02  0.1235066E+00
          4   -1    0    0  501    0  0.00000000000E+00  0.00000000000E+00  0.19536863428E+03  0.19537276207E+03  0.12700000000E+01 0.  1.
         -4   -1    0    0    0  501 -0.00000000000E+00 -0.00000000000E+00 -0.19970517117E+02  0.20010858400E+02  0.12700000000E+01 0.  1.
         25    2    1    2    0    0  0.00000000000E+00  0.00000000000E+00  0.17539811716E+03  0.21538362047E+03  0.12500241783E+03 0.  0.
    9000005    1    3    3    0    0 -0.56741969518E+02  0.31181687333E+01  0.42899236252E+02  0.71208978030E+02  0.10000000000E+01 0.  0.
    9000005    1    3    3    0    0  0.56741969518E+02 -0.31181687333E+01  0.13249888091E+03  0.14417464244E+03  0.10000000000E+01 0.  0.
<mgrwt>
<rscale>  0 0.12500242E+03</rscale>
<asrwt>0</asrwt>
<pdfrwt beam="1">  1        4 0.30060133E-01 0.12500242E+03</pdfrwt>
<pdfrwt beam="2">  1       -4 0.30758080E-02 0.12500242E+03</pdfrwt>
<totfact> 0.87599410E+03</totfact>
</mgrwt>
</event>
<event>
 5    1  0.3273105E-002  0.1249987E+03  0.7818608E-02  0.1235071E+00
          4   -1    0    0  501    0  0.00000000000E+00  0.00000000000E+00  0.93092651066E+01  0.93954944960E+01  0.12700000000E+01 0. -1.
         -4   -1    0    0    0  501 -0.00000000000E+00 -0.00000000000E+00 -0.41757841914E+03  0.41758035039E+03  0.12700000000E+01 0. -1.
         25    2    1    2    0    0  0.00000000000E+00  0.00000000000E+00 -0.40826915403E+03  0.42697584489E+03  0.12499867992E+03 0.  0.
    9000005    1    3    3    0    0 -0.22746791911E+02 -0.49440804527E+02 -0.99219935138E+02  0.11316980703E+03  0.10000000000E+01 0.  0.
    9000005    1    3    3    0    0  0.22746791911E+02  0.49440804527E+02 -0.30904921890E+03  0.31380603786E+03  0.10000000000E+01 0.  0.
<mgrwt>
<rscale>  0 0.12499868E+03</rscale>
<asrwt>0</asrwt>
<pdfrwt beam="1">  1        4 0.14389765E-02 0.12499868E+03</pdfrwt>
<pdfrwt beam="2">  1       -4 0.64249601E-01 0.12499868E+03</pdfrwt>
<totfact> 0.62012884E+03</totfact>
</mgrwt>
</event>
<event>
 5    1  0.3273105E-002  0.1250021E+03  0.7818608E-02  0.1235066E+00
         -4   -1    0    0    0  501 -0.00000000000E+00  0.00000000000E+00  0.24403941958E+02  0.24436965505E+02  0.12700000000E+01 0. -1.
          4   -1    0    0  501    0  0.00000000000E+00 -0.00000000000E+00 -0.15992796067E+03  0.15993300318E+03  0.12700000000E+01 0. -1.
         25    2    1    2    0    0  0.00000000000E+00  0.00000000000E+00 -0.13552401871E+03  0.18436996868E+03  0.12500210279E+03 0.  0.
    9000005    1    3    3    0    0  0.52155342589E+00 -0.62487089548E+02 -0.68776446793E+02  0.92930662387E+02  0.10000000000E+01 0.  0.
    9000005    1    3    3    0    0 -0.52155342589E+00  0.62487089548E+02 -0.66747571921E+02  0.91439306294E+02  0.10000000000E+01 0.  0.
<mgrwt>
<rscale>  0 0.12500210E+03</rscale>
<asrwt>0</asrwt>
<pdfrwt beam="2">  1        4 0.24607229E-01 0.12500210E+03</pdfrwt>
<pdfrwt beam="1">  1       -4 0.37573809E-02 0.12500210E+03</pdfrwt>
<totfact> 0.92831882E+03</totfact>
</mgrwt>
</event>
<event>
 5    1  0.3273105E-002  0.1250026E+03  0.7818608E-02  0.1235065E+00
         -4   -1    0    0    0  501 -0.00000000000E+00  0.00000000000E+00  0.75920178655E+02  0.75930800253E+02  0.12700000000E+01 0.  1.
          4   -1    0    0  501    0  0.00000000000E+00 -0.00000000000E+00 -0.51432180227E+02  0.51447857710E+02  0.12700000000E+01 0.  1.
         25    2    1    2    0    0  0.00000000000E+00  0.00000000000E+00  0.24487998428E+02  0.12737865796E+03  0.12500264172E+03 0.  0.
    9000005    1    3    3    0    0  0.23963654600E+02  0.47413451869E+02  0.45780392704E+02  0.70136556203E+02  0.10000000000E+01 0.  0.
    9000005    1    3    3    0    0 -0.23963654600E+02 -0.47413451869E+02 -0.21292394276E+02  0.57242101760E+02  0.10000000000E+01 0.  0.
<mgrwt>
<rscale>  0 0.12500264E+03</rscale>
<asrwt>0</asrwt>
<pdfrwt beam="2">  1        4 0.79146661E-02 0.12500264E+03</pdfrwt>
<pdfrwt beam="1">  1       -4 0.11682051E-01 0.12500264E+03</pdfrwt>
<totfact> 0.10400309E+04</totfact>
</mgrwt>
</event>
<event>
 5    1  0.3273105E-002  0.1250008E+03  0.7818608E-02  0.1235068E+00
          4   -1    0    0  501    0  0.00000000000E+00  0.00000000000E+00  0.42836233460E+02  0.42855055677E+02  0.12700000000E+01 0.  1.
         -4   -1    0    0    0  501 -0.00000000000E+00 -0.00000000000E+00 -0.91148180955E+02  0.91157028207E+02  0.12700000000E+01 0.  1.
         25    2    1    2    0    0  0.00000000000E+00  0.00000000000E+00 -0.48311947495E+02  0.13401208388E+03  0.12500077742E+03 0.  0.
    9000005    1    3    3    0    0  0.51259317082E+02  0.27608142721E+02  0.18711483102E+00  0.58230251109E+02  0.10000000000E+01 0.  0.
    9000005    1    3    3    0    0 -0.51259317082E+02 -0.27608142721E+02 -0.48499062326E+02  0.75781832775E+02  0.10000000000E+01 0.  0.
<mgrwt>
<rscale>  0 0.12500078E+03</rscale>
<asrwt>0</asrwt>
<pdfrwt beam="1">  1        4 0.65923182E-02 0.12500078E+03</pdfrwt>
<pdfrwt beam="2">  1       -4 0.14024925E-01 0.12500078E+03</pdfrwt>
<totfact> 0.10258756E+04</totfact>
</mgrwt>
</event>
<event>
 5    1  0.3273105E-002  0.1250007E+03  0.7818608E-02  0.1235068E+00
          4   -1    0    0  501    0  0.00000000000E+00  0.00000000000E+00  0.10296565102E+03  0.10297348295E+03  0.12700000000E+01 0. -1.
         -4   -1    0    0    0  501 -0.00000000000E+00 -0.00000000000E+00 -0.37917914259E+02  0.37939176609E+02  0.12700000000E+01 0. -1.
         25    2    1    2    0    0  0.00000000000E+00  0.00000000000E+00  0.65047736766E+02  0.14091265956E+03  0.12500067826E+03 0.  0.
    9000005    1    3    3    0    0 -0.27590003227E+02 -0.50613261573E+02  0.59728419489E+02  0.83014424167E+02  0.10000000000E+01 0.  0.
    9000005    1    3    3    0    0  0.27590003227E+02  0.50613261573E+02  0.53193172767E+01  0.57898235392E+02  0.10000000000E+01 0.  0.
<mgrwt>
<rscale>  0 0.12500068E+03</rscale>
<asrwt>0</asrwt>
<pdfrwt beam="1">  1        4 0.15843107E-01 0.12500068E+03</pdfrwt>
<pdfrwt beam="2">  1       -4 0.58357633E-02 0.12500068E+03</pdfrwt>
<totfact> 0.10114551E+04</totfact>
</mgrwt>
</event>
<event>
 5    1  0.3273105E-002  0.1250003E+03  0.7818608E-02  0.1235069E+00
         -4   -1    0    0    0  501 -0.00000000000E+00  0.00000000000E+00  0.49425307581E+03  0.49425470747E+03  0.12700000000E+01 0. -1.
          4   -1    0    0  501    0  0.00000000000E+00 -0.00000000000E+00 -0.78507031115E+01  0.79527630007E+01  0.12700000000E+01 0. -1.
         25    2    1    2    0    0  0.00000000000E+00  0.00000000000E+00  0.48640237270E+03  0.50220747047E+03  0.12500030088E+03 0.  0.
    9000005    1    3    3    0    0 -0.99945166251E+01  0.31408013850E+02  0.45651211625E+03  0.45770150314E+03  0.10000000000E+01 0.  0.
    9000005    1    3    3    0    0  0.99945166251E+01 -0.31408013850E+02  0.29890256454E+02  0.44505967325E+02  0.10000000000E+01 0.  0.
<mgrwt>
<rscale>  0 0.12500030E+03</rscale>
<asrwt>0</asrwt>
<pdfrwt beam="2">  1        4 0.12157768E-02 0.12500030E+03</pdfrwt>
<pdfrwt beam="1">  1       -4 0.76046910E-01 0.12500030E+03</pdfrwt>
<totfact> 0.55693130E+03</totfact>
</mgrwt>
</event>
<event>
 5    1  0.3273105E-002  0.1250025E+03  0.7818608E-02  0.1235065E+00
          4   -1    0    0  501    0  0.00000000000E+00  0.00000000000E+00  0.31635046119E+02  0.31660528153E+02  0.12700000000E+01 0.  1.
         -4   -1    0    0    0  501 -0.00000000000E+00 -0.00000000000E+00 -0.12340512157E+03  0.12341165638E+03  0.12700000000E+01 0.  1.
         25    2    1    2    0    0  0.00000000000E+00  0.00000000000E+00 -0.91770075455E+02  0.15507218453E+03  0.12500254264E+03 0.  0.
    9000005    1    3    3    0    0 -0.33422726438E+02  0.30150647783E+02 -0.99663638650E+02  0.10936169838E+03  0.10000000000E+01 0.  0.
    9000005    1    3    3    0    0  0.33422726438E+02 -0.30150647783E+02  0.78935631945E+01  0.45710486151E+02  0.10000000000E+01 0.  0.
<mgrwt>
<rscale>  0 0.12500254E+03</rscale>
<asrwt>0</asrwt>
<pdfrwt beam="1">  1        4 0.48693931E-02 0.12500254E+03</pdfrwt>
<pdfrwt beam="2">  1       -4 0.18987866E-01 0.12500254E+03</pdfrwt>
<totfact> 0.98295709E+03</totfact>
</mgrwt>
</event>
<event>
 5    1  0.3273105E-002  0.1250000E+03  0.7818608E-02  0.1235069E+00
          4   -1    0    0  501    0  0.00000000000E+00  0.00000000000E+00  0.11497498372E+02  0.11567427061E+02  0.12700000000E+01 0. -1.
         -4   -1    0    0    0  501 -0.00000000000E+00 -0.00000000000E+00 -0.33864669635E+03  0.33864907773E+03  0.12700000000E+01 0. -1.
         25    2    1    2    0    0  0.00000000000E+00  0.00000000000E+00 -0.32714919798E+03  0.35021650480E+03  0.12500000997E+03 0.  0.
    9000005    1    3    3    0    0  0.27332385687E+02  0.10402042334E+02 -0.88441854550E+01  0.30569288648E+02  0.10000000000E+01 0.  0.
    9000005    1    3    3    0    0 -0.27332385687E+02 -0.10402042334E+02 -0.31830501253E+03  0.31964721615E+03  0.10000000000E+01 0.  0.
<mgrwt>
<rscale>  0 0.12500001E+03</rscale>
<asrwt>0</asrwt>
<pdfrwt beam="1">  1        4 0.17744085E-02 0.12500001E+03</pdfrwt>
<pdfrwt beam="2">  1       -4 0.52105047E-01 0.12500001E+03</pdfrwt>
<totfact> 0.69700732E+03</totfact>
</mgrwt>
</event>
<event>
 5    1  0.3273105E-002  0.1250023E+03  0.7818608E-02  0.1235066E+00
          4   -1    0    0  501    0  0.00000000000E+00  0.00000000000E+00  0.28046294713E+02  0.28075034232E+02  0.12700000000E+01 0.  1.
         -4   -1    0    0    0  501 -0.00000000000E+00 -0.00000000000E+00 -0.13918069892E+03  0.13918649306E+03  0.12700000000E+01 0.  1.
         25    2    1    2    0    0  0.00000000000E+00  0.00000000000E+00 -0.11113440420E+03  0.16726152729E+03  0.12500225084E+03 0.  0.
    9000005    1    3    3    0    0 -0.51280263686E+01  0.38449833220E+02 -0.12112850332E+03  0.12719198342E+03  0.10000000000E+01 0.  0.
    9000005    1    3    3    0    0  0.51280263686E+01 -0.38449833220E+02  0.99940991189E+01  0.40069543874E+02  0.10000000000E+01 0.  0.
<mgrwt>
<rscale>  0 0.12500225E+03</rscale>
<asrwt>0</asrwt>
<pdfrwt beam="1">  1        4 0.43174711E-02 0.12500225E+03</pdfrwt>
<pdfrwt beam="2">  1       -4 0.21415071E-01 0.12500225E+03</pdfrwt>
<totfact> 0.95955951E+03</totfact>
</mgrwt>
</event>
<event>
 5    1  0.3273105E-002  0.1249992E+03  0.7818608E-02  0.1235071E+00
         -4   -1    0    0    0  501 -0.00000000000E+00  0.00000000000E+00  0.38520678822E+03  0.38520888177E+03  0.12700000000E+01 0. -1.
          4   -1    0    0  501    0  0.00000000000E+00 -0.00000000000E+00 -0.10098635463E+02  0.10178179514E+02  0.12700000000E+01 0. -1.
         25    2    1    2    0    0  0.00000000000E+00  0.00000000000E+00  0.37510815276E+03  0.39538706128E+03  0.12499920785E+03 0.  0.
    9000005    1    3    3    0    0  0.47839611677E+01 -0.13724905114E+02 -0.46931933399E+01  0.15306383262E+02  0.10000000000E+01 0.  0.
    9000005    1    3    3    0    0 -0.47839611677E+01  0.13724905114E+02  0.37980134610E+03  0.38008067802E+03  0.10000000000E+01 0.  0.
<mgrwt>
<rscale>  0 0.12499921E+03</rscale>
<asrwt>0</asrwt>
<pdfrwt beam="2">  1        4 0.15599160E-02 0.12499921E+03</pdfrwt>
<pdfrwt beam="1">  1       -4 0.59268864E-01 0.12499921E+03</pdfrwt>
<totfact> 0.65005059E+03</totfact>
</mgrwt>
</event>
<event>
 5    1  0.3273105E-002  0.1249993E+03  0.7818608E-02  0.1235070E+00
          4   -1    0    0  501    0  0.00000000000E+00  0.00000000000E+00  0.15168765325E+03  0.15169296967E+03  0.12700000000E+01 0.  1.
         -4   -1    0    0    0  501 -0.00000000000E+00 -0.00000000000E+00 -0.25730227820E+02  0.25761551267E+02  0.12700000000E+01 0.  1.
         25    2    1    2    0    0  0.00000000000E+00  0.00000000000E+00  0.12595742543E+03  0.17745452094E+03  0.12499933592E+03 0.  0.
    9000005    1    3    3    0    0  0.32083688287E+02  0.29737241828E+02  0.12633271928E+03  0.13369600804E+03  0.10000000000E+01 0.  0.
    9000005    1    3    3    0    0 -0.32083688287E+02 -0.29737241828E+02 -0.37529385100E+00  0.43758512898E+02  0.10000000000E+01 0.  0.
<mgrwt>
<rscale>  0 0.12499934E+03</rscale>
<asrwt>0</asrwt>
<pdfrwt beam="1">  1        4 0.23339380E-01 0.12499934E+03</pdfrwt>
<pdfrwt beam="2">  1       -4 0.39613150E-02 0.12499934E+03</pdfrwt>
<totfact> 0.94078615E+03</totfact>
</mgrwt>
</event>
<event>
 5    1  0.3273105E-002  0.1249971E+03  0.7818608E-02  0.1235074E+00
         -4   -1    0    0    0  501 -0.00000000000E+00  0.00000000000E+00  0.10612198956E+03  0.10612958856E+03  0.12700000000E+01 0. -1.
          4   -1    0    0  501    0  0.00000000000E+00 -0.00000000000E+00 -0.36787477525E+02  0.36809392859E+02  0.12700000000E+01 0. -1.
         25    2    1    2    0    0  0.00000000000E+00  0.00000000000E+00  0.69334512032E+02  0.14293898142E+03  0.12499711137E+03 0.  0.
    9000005    1    3    3    0    0  0.34521360627E+02 -0.22309013539E+02  0.88494430413E+02  0.97579099395E+02  0.10000000000E+01 0.  0.
    9000005    1    3    3    0    0 -0.34521360627E+02  0.22309013539E+02 -0.19159918381E+02  0.45359882021E+02  0.10000000000E+01 0.  0.
<mgrwt>
<rscale>  0 0.12499711E+03</rscale>
<asrwt>0</asrwt>
<pdfrwt beam="2">  1        4 0.56618823E-02 0.12499711E+03</pdfrwt>
<pdfrwt beam="1">  1       -4 0.16328730E-01 0.12499711E+03</pdfrwt>
<totfact> 0.10073688E+04</totfact>
</mgrwt>
</event>
<event>
 5    1  0.3273105E-002  0.1250036E+03  0.7818608E-02  0.1235064E+00
          4   -1    0    0  501    0  0.00000000000E+00  0.00000000000E+00  0.26520062131E+03  0.26520366219E+03  0.12700000000E+01 0.  1.
         -4   -1    0    0    0  501 -0.00000000000E+00 -0.00000000000E+00 -0.14699769073E+02  0.14754528484E+02  0.12700000000E+01 0.  1.
         25    2    1    2    0    0  0.00000000000E+00  0.00000000000E+00  0.25050085223E+03  0.27995819068E+03  0.12500364618E+03 0.  0.
    9000005    1    3    3    0    0  0.35395459845E+02  0.26450907511E+02  0.26276596716E+02  0.51419340921E+02  0.10000000000E+01 0.  0.
    9000005    1    3    3    0    0 -0.35395459845E+02 -0.26450907511E+02  0.22422425552E+03  0.22853884976E+03  0.10000000000E+01 0.  0.
<mgrwt>
<rscale>  0 0.12500365E+03</rscale>
<asrwt>0</asrwt>
<pdfrwt beam="1">  1        4 0.40804539E-01 0.12500365E+03</pdfrwt>
<pdfrwt beam="2">  1       -4 0.22659492E-02 0.12500365E+03</pdfrwt>
<totfact> 0.78177313E+03</totfact>
</mgrwt>
</event>
<event>
 5    1  0.3273105E-002  0.1250003E+03  0.7818608E-02  0.1235069E+00
          4   -1    0    0  501    0  0.00000000000E+00  0.00000000000E+00  0.23395266412E+02  0.23429711703E+02  0.12700000000E+01 0. -1.
         -4   -1    0    0    0  501 -0.00000000000E+00 -0.00000000000E+00 -0.16680873984E+03  0.16681357435E+03  0.12700000000E+01 0. -1.
         25    2    1    2    0    0  0.00000000000E+00  0.00000000000E+00 -0.14341347343E+03  0.19024328605E+03  0.12500033411E+03 0.  0.
    9000005    1    3    3    0    0 -0.49328612293E+02 -0.38362078259E+02 -0.70859570053E+02  0.94483012797E+02  0.10000000000E+01 0.  0.
    9000005    1    3    3    0    0  0.49328612293E+02  0.38362078259E+02 -0.72553903378E+02  0.95760273258E+02  0.10000000000E+01 0.  0.
<mgrwt>
<rscale>  0 0.12500033E+03</rscale>
<asrwt>0</asrwt>
<pdfrwt beam="1">  1        4 0.36022934E-02 0.12500033E+03</pdfrwt>
<pdfrwt beam="2">  1       -4 0.25665904E-01 0.12500033E+03</pdfrwt>
<totfact> 0.91804314E+03</totfact>
</mgrwt>
</event>
<event>
 5    1  0.3273105E-002  0.1249998E+03  0.7818608E-02  0.1235070E+00
         -4   -1    0    0    0  501 -0.00000000000E+00  0.00000000000E+00  0.32166608273E+01  0.34582953717E+01  0.12700000000E+01 0. -1.
          4   -1    0    0  501    0  0.00000000000E+00 -0.00000000000E+00 -0.11701747940E+04  0.11701754831E+04  0.12700000000E+01 0. -1.
         25    2    1    2    0    0  0.00000000000E+00  0.00000000000E+00 -0.11669581331E+04  0.11736337785E+04  0.12499984622E+03 0.  0.
    9000005    1    3    3    0    0 -0.40858179166E+02  0.44727235290E+02 -0.43944797910E+03  0.44360505263E+03  0.10000000000E+01 0.  0.
    9000005    1    3    3    0    0  0.40858179166E+02 -0.44727235290E+02 -0.72751015403E+03  0.73002872587E+03  0.10000000000E+01 0.  0.
<mgrwt>
<rscale>  0 0.12499985E+03</rscale>
<asrwt>0</asrwt>
<pdfrwt beam="2">  1        4 0.18004520E+00 0.12499985E+03</pdfrwt>
<pdfrwt beam="1">  1       -4 0.51351211E-03 0.12499985E+03</pdfrwt>
<totfact> 0.25413644E+03</totfact>
</mgrwt>
</event>
<event>
 5    1  0.3273105E-002  0.1250007E+03  0.7818608E-02  0.1235068E+00
          4   -1    0    0  501    0  0.00000000000E+00  0.00000000000E+00  0.26573859089E+02  0.26604189273E+02  0.12700000000E+01 0. -1.
         -4   -1    0    0    0  501 -0.00000000000E+00 -0.00000000000E+00 -0.14688076266E+03  0.14688625306E+03  0.12700000000E+01 0. -1.
         25    2    1    2    0    0  0.00000000000E+00  0.00000000000E+00 -0.12030690357E+03  0.17349044233E+03  0.12500073014E+03 0.  0.
    9000005    1    3    3    0    0  0.25809968778E+02  0.68980032684E+00  0.18831806026E+02  0.31972914021E+02  0.10000000000E+01 0.  0.
    9000005    1    3    3    0    0 -0.25809968778E+02 -0.68980032684E+00 -0.13913870959E+03  0.14151752831E+03  0.10000000000E+01 0.  0.
<mgrwt>
<rscale>  0 0.12500073E+03</rscale>
<asrwt>0</asrwt>
<pdfrwt beam="1">  1        4 0.40910415E-02 0.12500073E+03</pdfrwt>
<pdfrwt beam="2">  1       -4 0.22599795E-01 0.12500073E+03</pdfrwt>
<totfact> 0.94800489E+03</totfact>
</mgrwt>
</event>
<event>
 5    1  0.3273105E-002  0.1249993E+03  0.7818608E-02  0.1235070E+00
          4   -1    0    0  501    0  0.00000000000E+00  0.00000000000E+00  0.48273603184E+02  0.48290306112E+02  0.12700000000E+01 0.  1.
         -4   -1    0    0    0  501 -0.00000000000E+00 -0.00000000000E+00 -0.80882317270E+02  0.80892287314E+02  0.12700000000E+01 0.  1.
         25    2    1    2    0    0  0.00000000000E+00  0.00000000000E+00 -0.32608714086E+02  0.12918259343E+03  0.12499925684E+03 0.  0.
    9000005    1    3    3    0    0  0.12160055385E+02 -0.50546504152E+02  0.19531582780E+02  0.55545465656E+02  0.10000000000E+01 0.  0.
    9000005    1    3    3    0    0 -0.12160055385E+02  0.50546504152E+02 -0.52140296866E+02  0.73637127771E+02  0.10000000000E+01 0.  0.
<mgrwt>
<rscale>  0 0.12499926E+03</rscale>
<asrwt>0</asrwt>
<pdfrwt beam="1">  1        4 0.74287599E-02 0.12499926E+03</pdfrwt>
<pdfrwt beam="2">  1       -4 0.12445485E-01 0.12499926E+03</pdfrwt>
<totfact> 0.10362199E+04</totfact>
</mgrwt>
</event>
<event>
 5    1  0.3273105E-002  0.1249973E+03  0.7818608E-02  0.1235074E+00
         -4   -1    0    0    0  501 -0.00000000000E+00  0.00000000000E+00  0.77805722373E+02  0.77816086602E+02  0.12700000000E+01 0. -1.
          4   -1    0    0  501    0  0.00000000000E+00 -0.00000000000E+00 -0.50181249699E+02  0.50197317870E+02  0.12700000000E+01 0. -1.
         25    2    1    2    0    0  0.00000000000E+00  0.00000000000E+00  0.27624472675E+02  0.12801340447E+03  0.12499728091E+03 0.  0.
    9000005    1    3    3    0    0 -0.18033871272E+02 -0.24938683302E+01 -0.47410155445E+02  0.50795302259E+02  0.10000000000E+01 0.  0.
    9000005    1    3    3    0    0  0.18033871272E+02  0.24938683302E+01  0.75034628119E+02  0.77218102212E+02  0.10000000000E+01 0.  0.
<mgrwt>
<rscale>  0 0.12499728E+03</rscale>
<asrwt>0</asrwt>
<pdfrwt beam="2">  1        4 0.77222255E-02 0.12499728E+03</pdfrwt>
<pdfrwt beam="1">  1       -4 0.11972144E-01 0.12499728E+03</pdfrwt>
<totfact> 0.10387836E+04</totfact>
</mgrwt>
</event>
<event>
 5    1  0.3273105E-002  0.1249989E+03  0.7818608E-02  0.1235071E+00
          4   -1    0    0  501    0  0.00000000000E+00  0.00000000000E+00  0.19210654550E+03  0.19211074338E+03  0.12700000000E+01 0.  1.
         -4   -1    0    0    0  501 -0.00000000000E+00 -0.00000000000E+00 -0.20309157369E+02  0.20348827313E+02  0.12700000000E+01 0.  1.
         25    2    1    2    0    0  0.00000000000E+00  0.00000000000E+00  0.17179738813E+03  0.21245957070E+03  0.12499890645E+03 0.  0.
    9000005    1    3    3    0    0  0.14152490592E+02 -0.52290657516E+02  0.32946395693E+02  0.63411914043E+02  0.10000000000E+01 0.  0.
    9000005    1    3    3    0    0 -0.14152490592E+02  0.52290657516E+02  0.13885099244E+03  0.14904765666E+03  0.10000000000E+01 0.  0.
<mgrwt>
<rscale>  0 0.12499891E+03</rscale>
<asrwt>0</asrwt>
<pdfrwt beam="1">  1        4 0.29558227E-01 0.12499891E+03</pdfrwt>
<pdfrwt beam="2">  1       -4 0.31278603E-02 0.12499891E+03</pdfrwt>
<totfact> 0.88077923E+03</totfact>
</mgrwt>
</event>
<event>
 5    1  0.3273105E-002  0.1249994E+03  0.7818608E-02  0.1235070E+00
         -4   -1    0    0    0  501 -0.00000000000E+00  0.00000000000E+00  0.32982476064E+02  0.33006917871E+02  0.12700000000E+01 0.  1.
          4   -1    0    0  501    0  0.00000000000E+00 -0.00000000000E+00 -0.11836121399E+03  0.11836802725E+03  0.12700000000E+01 0.  1.
         25    2    1    2    0    0  0.00000000000E+00  0.00000000000E+00 -0.85378737921E+02  0.15137494513E+03  0.12499938049E+03 0.  0.
    9000005    1    3    3    0    0 -0.54645859627E+02  0.99880079549E+01 -0.80266536201E+01  0.56136952586E+02  0.10000000000E+01 0.  0.
    9000005    1    3    3    0    0  0.54645859627E+02 -0.99880079549E+01 -0.77352084301E+02  0.95237992540E+02  0.10000000000E+01 0.  0.
<mgrwt>
<rscale>  0 0.12499938E+03</rscale>
<asrwt>0</asrwt>
<pdfrwt beam="2">  1        4 0.18211822E-01 0.12499938E+03</pdfrwt>
<pdfrwt beam="1">  1       -4 0.50766314E-02 0.12499938E+03</pdfrwt>
<totfact> 0.99031707E+03</totfact>
</mgrwt>
</event>
<event>
 5    1  0.3273105E-002  0.1249975E+03  0.7818608E-02  0.1235073E+00
         -4   -1    0    0    0  501 -0.00000000000E+00  0.00000000000E+00  0.43523680158E+02  0.43542205210E+02  0.12700000000E+01 0.  1.
          4   -1    0    0  501    0  0.00000000000E+00 -0.00000000000E+00 -0.89704347002E+02  0.89713336640E+02  0.12700000000E+01 0.  1.
         25    2    1    2    0    0  0.00000000000E+00  0.00000000000E+00 -0.46180666843E+02  0.13325554185E+03  0.12499754175E+03 0.  0.
    9000005    1    3    3    0    0  0.43603242172E+02 -0.42835149083E+02 -0.36949331407E+02  0.71430706396E+02  0.10000000000E+01 0.  0.
    9000005    1    3    3    0    0 -0.43603242172E+02  0.42835149083E+02 -0.92313354369E+01  0.61824835453E+02  0.10000000000E+01 0.  0.
<mgrwt>
<rscale>  0 0.12499754E+03</rscale>
<asrwt>0</asrwt>
<pdfrwt beam="2">  1        4 0.13802785E-01 0.12499754E+03</pdfrwt>
<pdfrwt beam="1">  1       -4 0.66980673E-02 0.12499754E+03</pdfrwt>
<totfact> 0.10275542E+04</totfact>
</mgrwt>
</event>
<event>
 5    1  0.3273105E-002  0.1250191E+03  0.7818608E-02  0.1235039E+00
         -4   -1    0    0    0  501 -0.00000000000E+00  0.00000000000E+00  0.11088668160E+03  0.11089395410E+03  0.12700000000E+01 0. -1.
          4   -1    0    0  501    0  0.00000000000E+00 -0.00000000000E+00 -0.35218293515E+02  0.35241184686E+02  0.12700000000E+01 0. -1.
         25    2    1    2    0    0  0.00000000000E+00  0.00000000000E+00  0.75668388085E+02  0.14613513879E+03  0.12501909387E+03 0.  0.
    9000005    1    3    3    0    0 -0.55997602669E+02 -0.27760728062E+02  0.37562739127E+02  0.72927010757E+02  0.10000000000E+01 0.  0.
    9000005    1    3    3    0    0  0.55997602669E+02  0.27760728062E+02  0.38105648958E+02  0.73208128031E+02  0.10000000000E+01 0.  0.
<mgrwt>
<rscale>  0 0.12501909E+03</rscale>
<asrwt>0</asrwt>
<pdfrwt beam="2">  1        4 0.54205193E-02 0.12501909E+03</pdfrwt>
<pdfrwt beam="1">  1       -4 0.17061810E-01 0.12501909E+03</pdfrwt>
<totfact> 0.10003675E+04</totfact>
</mgrwt>
</event>
<event>
 5    1  0.3273105E-002  0.1250033E+03  0.7818608E-02  0.1235064E+00
         -4   -1    0    0    0  501 -0.00000000000E+00  0.00000000000E+00  0.23022837511E+03  0.23023187791E+03  0.12700000000E+01 0.  1.
          4   -1    0    0  501    0  0.00000000000E+00 -0.00000000000E+00 -0.16940335831E+02  0.16987874442E+02  0.12700000000E+01 0.  1.
         25    2    1    2    0    0  0.00000000000E+00  0.00000000000E+00  0.21328803928E+03  0.24721975235E+03  0.12500327297E+03 0.  0.
    9000005    1    3    3    0    0  0.35061521348E+02 -0.37772523459E+02  0.36738866926E+02  0.63299432467E+02  0.10000000000E+01 0.  0.
    9000005    1    3    3    0    0 -0.35061521348E+02  0.37772523459E+02  0.17654917235E+03  0.18392031988E+03  0.10000000000E+01 0.  0.
<mgrwt>
<rscale>  0 0.12500327E+03</rscale>
<asrwt>0</asrwt>
<pdfrwt beam="2">  1        4 0.26101318E-02 0.12500327E+03</pdfrwt>
<pdfrwt beam="1">  1       -4 0.35423676E-01 0.12500327E+03</pdfrwt>
<totfact> 0.82727694E+03</totfact>
</mgrwt>
</event>
<event>
 5    1  0.3273105E-002  0.1250013E+03  0.7818608E-02  0.1235067E+00
         -4   -1    0    0    0  501 -0.00000000000E+00  0.00000000000E+00  0.30843172469E+02  0.30869308187E+02  0.12700000000E+01 0. -1.
          4   -1    0    0  501    0  0.00000000000E+00 -0.00000000000E+00 -0.12656851465E+03  0.12657488613E+03  0.12700000000E+01 0. -1.
         25    2    1    2    0    0  0.00000000000E+00  0.00000000000E+00 -0.95725342178E+02  0.15744419432E+03  0.12500133275E+03 0.  0.
    9000005    1    3    3    0    0  0.55056863772E+02 -0.23225102675E+02 -0.70904671252E+02  0.92731526721E+02  0.10000000000E+01 0.  0.
    9000005    1    3    3    0    0 -0.55056863772E+02  0.23225102675E+02 -0.24820670926E+02  0.64712667600E+02  0.10000000000E+01 0.  0.
<mgrwt>
<rscale>  0 0.12500133E+03</rscale>
<asrwt>0</asrwt>
<pdfrwt beam="2">  1        4 0.19474579E-01 0.12500133E+03</pdfrwt>
<pdfrwt beam="1">  1       -4 0.47476041E-02 0.12500133E+03</pdfrwt>
<totfact> 0.97834867E+03</totfact>
</mgrwt>
</event>
<event>
 5    1  0.3273105E-002  0.1249990E+03  0.7818608E-02  0.1235071E+00
         -4   -1    0    0    0  501 -0.00000000000E+00  0.00000000000E+00  0.46514181346E+03  0.46514354723E+03  0.12700000000E+01 0. -1.
          4   -1    0    0  501    0  0.00000000000E+00 -0.00000000000E+00 -0.83480612351E+01  0.84441119359E+01  0.12700000000E+01 0. -1.
         25    2    1    2    0    0  0.00000000000E+00  0.00000000000E+00  0.45679375222E+03  0.47358765916E+03  0.12499895536E+03 0.  0.
    9000005    1    3    3    0    0  0.57603682059E+02  0.81592592148E+01  0.14196500624E+03  0.15342692298E+03  0.10000000000E+01 0.  0.
    9000005    1    3    3    0    0 -0.57603682059E+02 -0.81592592148E+01  0.31482874598E+03  0.32016073618E+03  0.10000000000E+01 0.  0.
<mgrwt>
<rscale>  0 0.12499896E+03</rscale>
<asrwt>0</asrwt>
<pdfrwt beam="2">  1        4 0.12918391E-02 0.12499896E+03</pdfrwt>
<pdfrwt beam="1">  1       -4 0.71567794E-01 0.12499896E+03</pdfrwt>
<totfact> 0.57974835E+03</totfact>
</mgrwt>
</event>
<event>
 5    1  0.3273105E-002  0.1250025E+03  0.7818608E-02  0.1235065E+00
         -4   -1    0    0    0  501 -0.00000000000E+00  0.00000000000E+00  0.34620781626E+02  0.34644067607E+02  0.12700000000E+01 0. -1.
          4   -1    0    0  501    0  0.00000000000E+00 -0.00000000000E+00 -0.11276929642E+03  0.11277644752E+03  0.12700000000E+01 0. -1.
         25    2    1    2    0    0  0.00000000000E+00  0.00000000000E+00 -0.78148514793E+02  0.14742051513E+03  0.12500247164E+03 0.  0.
    9000005    1    3    3    0    0  0.58045740688E+02 -0.16902579461E+02 -0.57736157363E+02  0.83603044631E+02  0.10000000000E+01 0.  0.
    9000005    1    3    3    0    0 -0.58045740688E+02  0.16902579461E+02 -0.20412357430E+02  0.63817470494E+02  0.10000000000E+01 0.  0.
<mgrwt>
<rscale>  0 0.12500247E+03</rscale>
<asrwt>0</asrwt>
<pdfrwt beam="2">  1        4 0.17351464E-01 0.12500247E+03</pdfrwt>
<pdfrwt beam="1">  1       -4 0.53286155E-02 0.12500247E+03</pdfrwt>
<totfact> 0.99814833E+03</totfact>
</mgrwt>
</event>
<event>
 5    1  0.3273105E-002  0.1249983E+03  0.7818608E-02  0.1235072E+00
          4   -1    0    0  501    0  0.00000000000E+00  0.00000000000E+00  0.42586604678E+03  0.42586794045E+03  0.12700000000E+01 0.  1.
         -4   -1    0    0    0  501 -0.00000000000E+00 -0.00000000000E+00 -0.91263575192E+01  0.92142987562E+01  0.12700000000E+01 0.  1.
         25    2    1    2    0    0  0.00000000000E+00  0.00000000000E+00  0.41673968926E+03  0.43508223920E+03  0.12499834505E+03 0.  0.
    9000005    1    3    3    0    0  0.58074837047E+02 -0.21392945796E+02  0.23847375672E+03  0.24637588654E+03  0.10000000000E+01 0.  0.
    9000005    1    3    3    0    0 -0.58074837047E+02  0.21392945796E+02  0.17826593255E+03  0.18870635266E+03  0.10000000000E+01 0.  0.
<mgrwt>
<rscale>  0 0.12499835E+03</rscale>
<asrwt>0</asrwt>
<pdfrwt beam="1">  1        4 0.65524746E-01 0.12499835E+03</pdfrwt>
<pdfrwt beam="2">  1       -4 0.14109658E-02 0.12499835E+03</pdfrwt>
<totfact> 0.61280248E+03</totfact>
</mgrwt>
</event>
<event>
 5    1  0.3273105E-002  0.1249991E+03  0.7818608E-02  0.1235071E+00
          4   -1    0    0  501    0  0.00000000000E+00  0.00000000000E+00  0.16167162325E+02  0.16216967585E+02  0.12700000000E+01 0.  1.
         -4   -1    0    0    0  501 -0.00000000000E+00 -0.00000000000E+00 -0.24118978622E+03  0.24119312983E+03  0.12700000000E+01 0.  1.
         25    2    1    2    0    0  0.00000000000E+00  0.00000000000E+00 -0.22502262389E+03  0.25741009741E+03  0.12499910794E+03 0.  0.
    9000005    1    3    3    0    0  0.96340874303E+01  0.71351641010E+01 -0.23880956785E+03  0.23911239179E+03  0.10000000000E+01 0.  0.
    9000005    1    3    3    0    0 -0.96340874303E+01 -0.71351641010E+01  0.13786943961E+02  0.18297705625E+02  0.10000000000E+01 0.  0.
<mgrwt>
<rscale>  0 0.12499911E+03</rscale>
<asrwt>0</asrwt>
<pdfrwt beam="1">  1        4 0.24913443E-02 0.12499911E+03</pdfrwt>
<pdfrwt beam="2">  1       -4 0.37110207E-01 0.12499911E+03</pdfrwt>
<totfact> 0.81272511E+03</totfact>
</mgrwt>
</event>
<event>
 5    1  0.3273105E-002  0.1250025E+03  0.7818608E-02  0.1235065E+00
         -4   -1    0    0    0  501 -0.00000000000E+00  0.00000000000E+00  0.20210214442E+02  0.20250078217E+02  0.12700000000E+01 0. -1.
          4   -1    0    0  501    0  0.00000000000E+00 -0.00000000000E+00 -0.19305636151E+03  0.19306053874E+03  0.12700000000E+01 0. -1.
         25    2    1    2    0    0  0.00000000000E+00  0.00000000000E+00 -0.17284614707E+03  0.21331061696E+03  0.12500251498E+03 0.  0.
    9000005    1    3    3    0    0  0.47276630957E+02 -0.10401463404E+02 -0.18977528551E+02  0.52004008167E+02  0.10000000000E+01 0.  0.
    9000005    1    3    3    0    0 -0.47276630957E+02  0.10401463404E+02 -0.15386861852E+03  0.16130660879E+03  0.10000000000E+01 0.  0.
<mgrwt>
<rscale>  0 0.12500251E+03</rscale>
<asrwt>0</asrwt>
<pdfrwt beam="2">  1        4 0.29704365E-01 0.12500251E+03</pdfrwt>
<pdfrwt beam="1">  1       -4 0.31126517E-02 0.12500251E+03</pdfrwt>
<totfact> 0.87933110E+03</totfact>
</mgrwt>
</event>
<event>
 5    1  0.3273105E-002  0.1250306E+03  0.7818608E-02  0.1235022E+00
          4   -1    0    0  501    0  0.00000000000E+00  0.00000000000E+00  0.44823339816E+03  0.44823519733E+03  0.12700000000E+01 0. -1.
         -4   -1    0    0    0  501 -0.00000000000E+00 -0.00000000000E+00 -0.86709591349E+01  0.87634714765E+01  0.12700000000E+01 0. -1.
         25    2    1    2    0    0  0.00000000000E+00  0.00000000000E+00  0.43956243902E+03  0.45699866881E+03  0.12503057822E+03 0.  0.
    9000005    1    3    3    0    0  0.53652188677E+02  0.47367888987E+01  0.10384111208E+03  0.11698278112E+03  0.10000000000E+01 0.  0.
    9000005    1    3    3    0    0 -0.53652188677E+02 -0.47367888987E+01  0.33572132694E+03  0.34001588769E+03  0.10000000000E+01 0.  0.
<mgrwt>
<rscale>  0 0.12503058E+03</rscale>
<asrwt>0</asrwt>
<pdfrwt beam="1">  1        4 0.68966260E-01 0.12503058E+03</pdfrwt>
<pdfrwt beam="2">  1       -4 0.13412480E-02 0.12503058E+03</pdfrwt>
<totfact> 0.59322292E+03</totfact>
</mgrwt>
</event>
<event>
 5    1  0.3273105E-002  0.1250095E+03  0.7818608E-02  0.1235054E+00
         -4   -1    0    0    0  501 -0.00000000000E+00  0.00000000000E+00  0.31472021134E+03  0.31472277376E+03  0.12700000000E+01 0. -1.
          4   -1    0    0  501    0  0.00000000000E+00 -0.00000000000E+00 -0.12378607781E+02  0.12443585922E+02  0.12700000000E+01 0. -1.
         25    2    1    2    0    0  0.00000000000E+00  0.00000000000E+00  0.30234160356E+03  0.32716635968E+03  0.12500952631E+03 0.  0.
    9000005    1    3    3    0    0 -0.35811903197E+02  0.20000535125E+02  0.27457435155E+03  0.27762310484E+03  0.10000000000E+01 0.  0.
    9000005    1    3    3    0    0  0.35811903197E+02 -0.20000535125E+02  0.27767252009E+02  0.49543254839E+02  0.10000000000E+01 0.  0.
<mgrwt>
<rscale>  0 0.12500953E+03</rscale>
<asrwt>0</asrwt>
<pdfrwt beam="2">  1        4 0.19095966E-02 0.12500953E+03</pdfrwt>
<pdfrwt beam="1">  1       -4 0.48423689E-01 0.12500953E+03</pdfrwt>
<totfact> 0.72296548E+03</totfact>
</mgrwt>
</event>
<event>
 5    1  0.3273105E-002  0.1249957E+03  0.7818608E-02  0.1235076E+00
         -4   -1    0    0    0  501 -0.00000000000E+00  0.00000000000E+00  0.81167332002E+02  0.81177267042E+02  0.12700000000E+01 0. -1.
          4   -1    0    0  501    0  0.00000000000E+00 -0.00000000000E+00 -0.48101303105E+02  0.48118065843E+02  0.12700000000E+01 0. -1.
         25    2    1    2    0    0  0.00000000000E+00  0.00000000000E+00  0.33066028897E+02  0.12929533288E+03  0.12499568328E+03 0.  0.
    9000005    1    3    3    0    0  0.26189777533E+02  0.30989373172E+02 -0.32627953763E+02  0.52075225046E+02  0.10000000000E+01 0.  0.
    9000005    1    3    3    0    0 -0.26189777533E+02 -0.30989373172E+02  0.65693982660E+02  0.77220107838E+02  0.10000000000E+01 0.  0.
<mgrwt>
<rscale>  0 0.12499568E+03</rscale>
<asrwt>0</asrwt>
<pdfrwt beam="2">  1        4 0.74022542E-02 0.12499568E+03</pdfrwt>
<pdfrwt beam="1">  1       -4 0.12489335E-01 0.12499568E+03</pdfrwt>
<totfact> 0.10360615E+04</totfact>
</mgrwt>
</event>
<event>
 5    1  0.3273105E-002  0.1249989E+03  0.7818608E-02  0.1235071E+00
          4   -1    0    0  501    0  0.00000000000E+00  0.00000000000E+00  0.66553698355E+02  0.66565814535E+02  0.12700000000E+01 0. -1.
         -4   -1    0    0    0  501 -0.00000000000E+00 -0.00000000000E+00 -0.58667804997E+02  0.58681549427E+02  0.12700000000E+01 0. -1.
         25    2    1    2    0    0  0.00000000000E+00  0.00000000000E+00  0.78858933582E+01  0.12524736396E+03  0.12499885946E+03 0.  0.
    9000005    1    3    3    0    0 -0.40677708890E+02  0.37695597669E+02 -0.24916129367E+02  0.60806640976E+02  0.10000000000E+01 0.  0.
    9000005    1    3    3    0    0  0.40677708890E+02 -0.37695597669E+02  0.32802022725E+02  0.64440722986E+02  0.10000000000E+01 0.  0.
<mgrwt>
<rscale>  0 0.12499886E+03</rscale>
<asrwt>0</asrwt>
<pdfrwt beam="1">  1        4 0.10241020E-01 0.12499886E+03</pdfrwt>
<pdfrwt beam="2">  1       -4 0.90278055E-02 0.12499886E+03</pdfrwt>
<totfact> 0.10447762E+04</totfact>
</mgrwt>
</event>
<event>
 5    1  0.3273105E-002  0.1249983E+03  0.7818608E-02  0.1235072E+00
         -4   -1    0    0    0  501 -0.00000000000E+00  0.00000000000E+00  0.44884236386E+01  0.46646379023E+01  0.12700000000E+01 0. -1.
          4   -1    0    0  501    0  0.00000000000E+00 -0.00000000000E+00 -0.85333896149E+03  0.85333990655E+03  0.12700000000E+01 0. -1.
         25    2    1    2    0    0  0.00000000000E+00  0.00000000000E+00 -0.84885053786E+03  0.85800454445E+03  0.12499825069E+03 0.  0.
    9000005    1    3    3    0    0  0.72442023803E+01  0.42711940967E+02 -0.73356679556E+03  0.73484558372E+03  0.10000000000E+01 0.  0.
    9000005    1    3    3    0    0 -0.72442023803E+01 -0.42711940967E+02 -0.11528374230E+03  0.12315896073E+03  0.10000000000E+01 0.  0.
<mgrwt>
<rscale>  0 0.12499825E+03</rscale>
<asrwt>0</asrwt>
<pdfrwt beam="2">  1        4 0.13129642E+00 0.12499825E+03</pdfrwt>
<pdfrwt beam="1">  1       -4 0.70415503E-03 0.12499825E+03</pdfrwt>
<totfact> 0.35803390E+03</totfact>
</mgrwt>
</event>
<event>
 5    1  0.3273105E-002  0.1249971E+03  0.7818608E-02  0.1235074E+00
          4   -1    0    0  501    0  0.00000000000E+00  0.00000000000E+00  0.19193314657E+02  0.19235286000E+02  0.12700000000E+01 0. -1.
         -4   -1    0    0    0  501 -0.00000000000E+00 -0.00000000000E+00 -0.20324559544E+03  0.20324956326E+03  0.12700000000E+01 0. -1.
         25    2    1    2    0    0  0.00000000000E+00  0.00000000000E+00 -0.18405228078E+03  0.22248484926E+03  0.12499706432E+03 0.  0.
    9000005    1    3    3    0    0  0.44788714595E+02 -0.13245126116E+02 -0.16592188004E+03  0.17237323632E+03  0.10000000000E+01 0.  0.
    9000005    1    3    3    0    0 -0.44788714595E+02  0.13245126116E+02 -0.18130400739E+02  0.50111612944E+02  0.10000000000E+01 0.  0.
<mgrwt>
<rscale>  0 0.12499706E+03</rscale>
<asrwt>0</asrwt>
<pdfrwt beam="1">  1        4 0.29563516E-02 0.12499706E+03</pdfrwt>
<pdfrwt beam="2">  1       -4 0.31272085E-01 0.12499706E+03</pdfrwt>
<totfact> 0.86482346E+03</totfact>
</mgrwt>
</event>
<event>
 5    1  0.3273105E-002  0.1250008E+03  0.7818608E-02  0.1235068E+00
          4   -1    0    0  501    0  0.00000000000E+00  0.00000000000E+00  0.89462895150E+03  0.89462985294E+03  0.12700000000E+01 0.  1.
         -4   -1    0    0    0  501 -0.00000000000E+00 -0.00000000000E+00 -0.42731224992E+01  0.44578555262E+01  0.12700000000E+01 0.  1.
         25    2    1    2    0    0  0.00000000000E+00  0.00000000000E+00  0.89035582900E+03  0.89908770847E+03  0.12500082108E+03 0.  0.
    9000005    1    3    3    0    0  0.43266881601E+02  0.17733026211E+02  0.74337551757E+03  0.74484538220E+03  0.10000000000E+01 0.  0.
    9000005    1    3    3    0    0 -0.43266881601E+02 -0.17733026211E+02  0.14698031143E+03  0.15424232626E+03  0.10000000000E+01 0.  0.
<mgrwt>
<rscale>  0 0.12500082E+03</rscale>
<asrwt>0</asrwt>
<pdfrwt beam="1">  1        4 0.13764968E+00 0.12500082E+03</pdfrwt>
<pdfrwt beam="2">  1       -4 0.67168217E-03 0.12500082E+03</pdfrwt>
<totfact> 0.34194215E+03</totfact>
</mgrwt>
</event>
<event>
 5    1  0.3273105E-002  0.1249722E+03  0.7818608E-02  0.1235113E+00
         -4   -1    0    0    0  501 -0.00000000000E+00  0.00000000000E+00  0.12793550975E+04  0.12793557279E+04  0.12700000000E+01 0. -1.
          4   -1    0    0  501    0  0.00000000000E+00 -0.00000000000E+00 -0.29191602902E+01  0.31834567376E+01  0.12700000000E+01 0. -1.
         25    2    1    2    0    0  0.00000000000E+00  0.00000000000E+00  0.12764359372E+04  0.12825391846E+04  0.12497222979E+03 0.  0.
    9000005    1    3    3    0    0  0.62053361202E+02  0.43856421412E+01  0.69775964071E+03  0.70052792214E+03  0.10000000000E+01 0.  0.
    9000005    1    3    3    0    0 -0.62053361202E+02 -0.43856421412E+01  0.57867629653E+03  0.58201126248E+03  0.10000000000E+01 0.  0.
<mgrwt>
<rscale>  0 0.12497223E+03</rscale>
<asrwt>0</asrwt>
<pdfrwt beam="2">  1        4 0.46947971E-03 0.12497223E+03</pdfrwt>
<pdfrwt beam="1">  1       -4 0.19684460E+00 0.12497223E+03</pdfrwt>
<totfact> 0.22658082E+03</totfact>
</mgrwt>
</event>
<event>
 5    1  0.3273105E-002  0.1249995E+03  0.7818608E-02  0.1235070E+00
          4   -1    0    0  501    0  0.00000000000E+00  0.00000000000E+00  0.16564887342E+03  0.16565374178E+03  0.12700000000E+01 0. -1.
         -4   -1    0    0    0  501 -0.00000000000E+00 -0.00000000000E+00 -0.23559011517E+02  0.23593217747E+02  0.12700000000E+01 0. -1.
         25    2    1    2    0    0  0.00000000000E+00  0.00000000000E+00  0.14208986190E+03  0.18924695952E+03  0.12499953133E+03 0.  0.
    9000005    1    3    3    0    0 -0.42094282112E+02 -0.15787445350E+02  0.13676024494E+03  0.14396366421E+03  0.10000000000E+01 0.  0.
    9000005    1    3    3    0    0  0.42094282112E+02  0.15787445350E+02  0.53296169584E+01  0.45283295310E+02  0.10000000000E+01 0.  0.
<mgrwt>
<rscale>  0 0.12499953E+03</rscale>
<asrwt>0</asrwt>
<pdfrwt beam="1">  1        4 0.25487447E-01 0.12499953E+03</pdfrwt>
<pdfrwt beam="2">  1       -4 0.36274691E-02 0.12499953E+03</pdfrwt>
<totfact> 0.91979472E+03</totfact>
</mgrwt>
</event>
<event>
 5    1  0.3273105E-002  0.1249927E+03  0.7818608E-02  0.1235081E+00
          4   -1    0    0  501    0  0.00000000000E+00  0.00000000000E+00  0.57142406501E+03  0.57142547631E+03  0.12700000000E+01 0.  1.
         -4   -1    0    0    0  501 -0.00000000000E+00 -0.00000000000E+00 -0.67747726178E+01  0.68927820234E+01  0.12700000000E+01 0.  1.
         25    2    1    2    0    0  0.00000000000E+00  0.00000000000E+00  0.56464929240E+03  0.57831825833E+03  0.12499273787E+03 0.  0.
    9000005    1    3    3    0    0  0.46588691157E+01  0.94906371084E+01 -0.26292665709E+01  0.10940306068E+02  0.10000000000E+01 0.  0.
    9000005    1    3    3    0    0 -0.46588691157E+01 -0.94906371084E+01  0.56727855897E+03  0.56737795227E+03  0.10000000000E+01 0.  0.
<mgrwt>
<rscale>  0 0.12499274E+03</rscale>
<asrwt>0</asrwt>
<pdfrwt beam="1">  1        4 0.87920578E-01 0.12499274E+03</pdfrwt>
<pdfrwt beam="2">  1       -4 0.10514590E-02 0.12499274E+03</pdfrwt>
<totfact> 0.50273474E+03</totfact>
</mgrwt>
</event>
<event>
 5    1  0.3273105E-002  0.1250005E+03  0.7818608E-02  0.1235069E+00
          4   -1    0    0  501    0  0.00000000000E+00  0.00000000000E+00  0.44409775443E+02  0.44427931022E+02  0.12700000000E+01 0. -1.
         -4   -1    0    0    0  501 -0.00000000000E+00 -0.00000000000E+00 -0.87919180014E+02  0.87928352164E+02  0.12700000000E+01 0. -1.
         25    2    1    2    0    0  0.00000000000E+00  0.00000000000E+00 -0.43509404571E+02  0.13235628319E+03  0.12500046965E+03 0.  0.
    9000005    1    3    3    0    0  0.88746233083E+01 -0.30619963240E+02 -0.78666466532E+02  0.84886713002E+02  0.10000000000E+01 0.  0.
    9000005    1    3    3    0    0 -0.88746233083E+01  0.30619963240E+02  0.35157061961E+02  0.47469570184E+02  0.10000000000E+01 0.  0.
<mgrwt>
<rscale>  0 0.12500047E+03</rscale>
<asrwt>0</asrwt>
<pdfrwt beam="1">  1        4 0.68343753E-02 0.12500047E+03</pdfrwt>
<pdfrwt beam="2">  1       -4 0.13528130E-01 0.12500047E+03</pdfrwt>
<totfact> 0.10293991E+04</totfact>
</mgrwt>
</event>
<event>
 5    1  0.3273105E-002  0.1249998E+03  0.7818608E-02  0.1235070E+00
         -4   -1    0    0    0  501 -0.00000000000E+00  0.00000000000E+00  0.17177488433E+03  0.17177957907E+03  0.12700000000E+01 0. -1.
          4   -1    0    0  501    0  0.00000000000E+00 -0.00000000000E+00 -0.22717719861E+02  0.22753190890E+02  0.12700000000E+01 0. -1.
         25    2    1    2    0    0  0.00000000000E+00  0.00000000000E+00  0.14905716447E+03  0.19453276996E+03  0.12499984124E+03 0.  0.
    9000005    1    3    3    0    0  0.32677241422E+02  0.53230221521E+02  0.71423264961E+02  0.94886992617E+02  0.10000000000E+01 0.  0.
    9000005    1    3    3    0    0 -0.32677241422E+02 -0.53230221521E+02  0.77633899509E+02  0.99645777347E+02  0.10000000000E+01 0.  0.
<mgrwt>
<rscale>  0 0.12499984E+03</rscale>
<asrwt>0</asrwt>
<pdfrwt beam="2">  1        4 0.34981237E-02 0.12499984E+03</pdfrwt>
<pdfrwt beam="1">  1       -4 0.26429994E-01 0.12499984E+03</pdfrwt>
<totfact> 0.91064879E+03</totfact>
</mgrwt>
</event>
<event>
 5    1  0.3273105E-002  0.1249991E+03  0.7818608E-02  0.1235071E+00
         -4   -1    0    0    0  501 -0.00000000000E+00  0.00000000000E+00  0.47246956825E+03  0.47247127513E+03  0.12700000000E+01 0.  1.
          4   -1    0    0  501    0  0.00000000000E+00 -0.00000000000E+00 -0.82171095405E+01  0.83146731265E+01  0.12700000000E+01 0.  1.
         25    2    1    2    0    0  0.00000000000E+00  0.00000000000E+00  0.46425245871E+03  0.48078594826E+03  0.12499913049E+03 0.  0.
    9000005    1    3    3    0    0 -0.33824169310E+02  0.52546336615E+02  0.23189117977E+03  0.24016600754E+03  0.10000000000E+01 0.  0.
    9000005    1    3    3    0    0  0.33824169310E+02 -0.52546336615E+02  0.23236127894E+03  0.24061994072E+03  0.10000000000E+01 0.  0.
<mgrwt>
<rscale>  0 0.12499913E+03</rscale>
<asrwt>0</asrwt>
<pdfrwt beam="2">  1        4 0.12718065E-02 0.12499913E+03</pdfrwt>
<pdfrwt beam="1">  1       -4 0.72695286E-01 0.12499913E+03</pdfrwt>
<totfact> 0.57387663E+03</totfact>
</mgrwt>
</event>
<event>
 5    1  0.3273105E-002  0.1250035E+03  0.7818608E-02  0.1235064E+00
         -4   -1    0    0    0  501 -0.00000000000E+00  0.00000000000E+00  0.13480225157E+03  0.13480823390E+03  0.12700000000E+01 0. -1.
          4   -1    0    0  501    0  0.00000000000E+00 -0.00000000000E+00 -0.28958733978E+02  0.28986568848E+02  0.12700000000E+01 0. -1.
         25    2    1    2    0    0  0.00000000000E+00  0.00000000000E+00  0.10584351759E+03  0.16379480275E+03  0.12500354872E+03 0.  0.
    9000005    1    3    3    0    0 -0.26968170275E+02 -0.31997955983E+02 -0.78963515601E+01  0.42596992418E+02  0.10000000000E+01 0.  0.
    9000005    1    3    3    0    0  0.26968170275E+02  0.31997955983E+02  0.11373986915E+03  0.12119781033E+03  0.10000000000E+01 0.  0.
<mgrwt>
<rscale>  0 0.12500355E+03</rscale>
<asrwt>0</asrwt>
<pdfrwt beam="2">  1        4 0.44577911E-02 0.12500355E+03</pdfrwt>
<pdfrwt beam="1">  1       -4 0.20741409E-01 0.12500355E+03</pdfrwt>
<totfact> 0.96608422E+03</totfact>
</mgrwt>
</event>
<event>
 5    1  0.3273105E-002  0.1250007E+03  0.7818608E-02  0.1235068E+00
          4   -1    0    0  501    0  0.00000000000E+00  0.00000000000E+00  0.59992883215E+02  0.60006324137E+02  0.12700000000E+01 0. -1.
         -4   -1    0    0    0  501 -0.00000000000E+00 -0.00000000000E+00 -0.65085666363E+02  0.65098055777E+02  0.12700000000E+01 0. -1.
         25    2    1    2    0    0  0.00000000000E+00  0.00000000000E+00 -0.50927831484E+01  0.12510437991E+03  0.12500067773E+03 0.  0.
    9000005    1    3    3    0    0 -0.31239502042E+02  0.19699090156E+02 -0.52999836551E+02  0.64606062527E+02  0.10000000000E+01 0.  0.
    9000005    1    3    3    0    0  0.31239502042E+02 -0.19699090156E+02  0.47907053403E+02  0.60498317386E+02  0.10000000000E+01 0.  0.
<mgrwt>
<rscale>  0 0.12500068E+03</rscale>
<asrwt>0</asrwt>
<pdfrwt beam="1">  1        4 0.92316613E-02 0.12500068E+03</pdfrwt>
<pdfrwt beam="2">  1       -4 0.10015166E-01 0.12500068E+03</pdfrwt>
<totfact> 0.10450436E+04</totfact>
</mgrwt>
</event>
<event>
 5    1  0.3273105E-002  0.1249985E+03  0.7818608E-02  0.1235072E+00
         -4   -1    0    0    0  501 -0.00000000000E+00  0.00000000000E+00  0.56206065670E+02  0.56220411935E+02  0.12700000000E+01 0. -1.
          4   -1    0    0  501    0  0.00000000000E+00 -0.00000000000E+00 -0.69467984957E+02  0.69479592932E+02  0.12700000000E+01 0. -1.
         25    2    1    2    0    0  0.00000000000E+00  0.00000000000E+00 -0.13261919287E+02  0.12570000487E+03  0.12499845087E+03 0.  0.
    9000005    1    3    3    0    0  0.11013835574E+02  0.15657934885E+02 -0.66451615088E+02  0.69161352262E+02  0.10000000000E+01 0.  0.
    9000005    1    3    3    0    0 -0.11013835574E+02 -0.15657934885E+02  0.53189695801E+02  0.56538652604E+02  0.10000000000E+01 0.  0.
<mgrwt>
<rscale>  0 0.12499845E+03</rscale>
<asrwt>0</asrwt>
<pdfrwt beam="2">  1        4 0.10689379E-01 0.12499845E+03</pdfrwt>
<pdfrwt beam="1">  1       -4 0.86490835E-02 0.12499845E+03</pdfrwt>
<totfact> 0.10437909E+04</totfact>
</mgrwt>
</event>
<event>
 5    1  0.3273105E-002  0.1249993E+03  0.7818608E-02  0.1235070E+00
          4   -1    0    0  501    0  0.00000000000E+00  0.00000000000E+00  0.17407024291E+02  0.17453291800E+02  0.12700000000E+01 0.  1.
         -4   -1    0    0    0  501 -0.00000000000E+00 -0.00000000000E+00 -0.22405826690E+03  0.22406186615E+03  0.12700000000E+01 0.  1.
         25    2    1    2    0    0  0.00000000000E+00  0.00000000000E+00 -0.20665124261E+03  0.24151515796E+03  0.12499934180E+03 0.  0.
    9000005    1    3    3    0    0  0.54270394976E+02  0.28937888457E+02 -0.81938077953E+02  0.10245743398E+03  0.10000000000E+01 0.  0.
    9000005    1    3    3    0    0 -0.54270394976E+02 -0.28937888457E+02 -0.12471316465E+03  0.13905772397E+03  0.10000000000E+01 0.  0.
<mgrwt>
<rscale>  0 0.12499934E+03</rscale>
<asrwt>0</asrwt>
<pdfrwt beam="1">  1        4 0.26818398E-02 0.12499934E+03</pdfrwt>
<pdfrwt beam="2">  1       -4 0.34474336E-01 0.12499934E+03</pdfrwt>
<totfact> 0.83573455E+03</totfact>
</mgrwt>
</event>
<event>
 5    1  0.3273105E-002  0.1249996E+03  0.7818608E-02  0.1235070E+00
          4   -1    0    0  501    0  0.00000000000E+00  0.00000000000E+00  0.77655602842E+02  0.77665987103E+02  0.12700000000E+01 0.  1.
         -4   -1    0    0    0  501 -0.00000000000E+00 -0.00000000000E+00 -0.50280160588E+02  0.50296197160E+02  0.12700000000E+01 0.  1.
         25    2    1    2    0    0  0.00000000000E+00  0.00000000000E+00  0.27375442254E+02  0.12796218426E+03  0.12499962305E+03 0.  0.
    9000005    1    3    3    0    0 -0.29218293276E+02  0.31692625216E+02 -0.32629444019E+02  0.54072282844E+02  0.10000000000E+01 0.  0.
    9000005    1    3    3    0    0  0.29218293276E+02 -0.31692625216E+02  0.60004886273E+02  0.73889901418E+02  0.10000000000E+01 0.  0.
<mgrwt>
<rscale>  0 0.12499962E+03</rscale>
<asrwt>0</asrwt>
<pdfrwt beam="1">  1        4 0.11949048E-01 0.12499962E+03</pdfrwt>
<pdfrwt beam="2">  1       -4 0.77374418E-02 0.12499962E+03</pdfrwt>
<totfact> 0.10388393E+04</totfact>
</mgrwt>
</event>
<event>
 5    1  0.3273105E-002  0.1249996E+03  0.7818608E-02  0.1235070E+00
          4   -1    0    0  501    0  0.00000000000E+00  0.00000000000E+00  0.15547499262E+02  0.15599283102E+02  0.12700000000E+01 0.  1.
         -4   -1    0    0    0  501 -0.00000000000E+00 -0.00000000000E+00 -0.25077335960E+03  0.25077657544E+03  0.12700000000E+01 0.  1.
         25    2    1    2    0    0  0.00000000000E+00  0.00000000000E+00 -0.23522586034E+03  0.26637585854E+03  0.12499957055E+03 0.  0.
    9000005    1    3    3    0    0  0.68356430409E+01 -0.61469381440E+02 -0.13667476443E+03  0.15002067225E+03  0.10000000000E+01 0.  0.
    9000005    1    3    3    0    0 -0.68356430409E+01  0.61469381440E+02 -0.98551095909E+02  0.11635518628E+03  0.10000000000E+01 0.  0.
<mgrwt>
<rscale>  0 0.12499957E+03</rscale>
<asrwt>0</asrwt>
<pdfrwt beam="1">  1        4 0.23961539E-02 0.12499957E+03</pdfrwt>
<pdfrwt beam="2">  1       -4 0.38584745E-01 0.12499957E+03</pdfrwt>
<totfact> 0.80020309E+03</totfact>
</mgrwt>
</event>
<event>
 5    1  0.3273105E-002  0.1250045E+03  0.7818608E-02  0.1235062E+00
         -4   -1    0    0    0  501 -0.00000000000E+00  0.00000000000E+00  0.22486561438E+02  0.22522396527E+02  0.12700000000E+01 0. -1.
          4   -1    0    0  501    0  0.00000000000E+00 -0.00000000000E+00 -0.17355099298E+03  0.17355563968E+03  0.12700000000E+01 0. -1.
         25    2    1    2    0    0  0.00000000000E+00  0.00000000000E+00 -0.15106443154E+03  0.19607803621E+03  0.12500453514E+03 0.  0.
    9000005    1    3    3    0    0  0.53738064347E+02 -0.22762353830E+02 -0.40470992928E+02  0.71026794805E+02  0.10000000000E+01 0.  0.
    9000005    1    3    3    0    0 -0.53738064347E+02  0.22762353830E+02 -0.11059343862E+03  0.12505124140E+03  0.10000000000E+01 0.  0.
<mgrwt>
<rscale>  0 0.12500454E+03</rscale>
<asrwt>0</asrwt>
<pdfrwt beam="2">  1        4 0.26703266E-01 0.12500454E+03</pdfrwt>
<pdfrwt beam="1">  1       -4 0.34625851E-02 0.12500454E+03</pdfrwt>
<totfact> 0.90791161E+03</totfact>
</mgrwt>
</event>
<event>
 5    1  0.3273105E-002  0.1250026E+03  0.7818608E-02  0.1235065E+00
          4   -1    0    0  501    0  0.00000000000E+00  0.00000000000E+00  0.29252349031E+02  0.29279904779E+02  0.12700000000E+01 0.  1.
         -4   -1    0    0    0  501 -0.00000000000E+00 -0.00000000000E+00 -0.13344847438E+03  0.13345451740E+03  0.12700000000E+01 0.  1.
         25    2    1    2    0    0  0.00000000000E+00  0.00000000000E+00 -0.10419612535E+03  0.16273442218E+03  0.12500263847E+03 0.  0.
    9000005    1    3    3    0    0 -0.32243205114E+02 -0.51752679395E+02 -0.69922010481E+02  0.92779586388E+02  0.10000000000E+01 0.  0.
    9000005    1    3    3    0    0  0.32243205114E+02  0.51752679395E+02 -0.34274114869E+02  0.69954835791E+02  0.10000000000E+01 0.  0.
<mgrwt>
<rscale>  0 0.12500264E+03</rscale>
<asrwt>0</asrwt>
<pdfrwt beam="1">  1        4 0.45029460E-02 0.12500264E+03</pdfrwt>
<pdfrwt beam="2">  1       -4 0.20533119E-01 0.12500264E+03</pdfrwt>
<totfact> 0.96812446E+03</totfact>
</mgrwt>
</event>
<event>
 5    1  0.3273105E-002  0.1249954E+03  0.7818608E-02  0.1235076E+00
          4   -1    0    0  501    0  0.00000000000E+00  0.00000000000E+00  0.70094870460E+02  0.70106374637E+02  0.12700000000E+01 0.  1.
         -4   -1    0    0    0  501 -0.00000000000E+00 -0.00000000000E+00 -0.55700633090E+02  0.55715109500E+02  0.12700000000E+01 0.  1.
         25    2    1    2    0    0  0.00000000000E+00  0.00000000000E+00  0.14394237370E+02  0.12582148414E+03  0.12499540712E+03 0.  0.
    9000005    1    3    3    0    0 -0.37876046347E+02  0.39021533169E+02  0.38185111158E+02  0.66455832339E+02  0.10000000000E+01 0.  0.
    9000005    1    3    3    0    0  0.37876046347E+02 -0.39021533169E+02 -0.23790873789E+02  0.59365651798E+02  0.10000000000E+01 0.  0.
<mgrwt>
<rscale>  0 0.12499541E+03</rscale>
<asrwt>0</asrwt>
<pdfrwt beam="1">  1        4 0.10785825E-01 0.12499541E+03</pdfrwt>
<pdfrwt beam="2">  1       -4 0.85713267E-02 0.12499541E+03</pdfrwt>
<totfact> 0.10435955E+04</totfact>
</mgrwt>
</event>
<event>
 5    1  0.3273105E-002  0.1249988E+03  0.7818608E-02  0.1235071E+00
         -4   -1    0    0    0  501 -0.00000000000E+00  0.00000000000E+00  0.47003772741E+02  0.47020926744E+02  0.12700000000E+01 0.  1.
          4   -1    0    0  501    0  0.00000000000E+00 -0.00000000000E+00 -0.83066235183E+02  0.83075943133E+02  0.12700000000E+01 0.  1.
         25    2    1    2    0    0  0.00000000000E+00  0.00000000000E+00 -0.36062462442E+02  0.13009686988E+03  0.12499877741E+03 0.  0.
    9000005    1    3    3    0    0 -0.23713634745E+02  0.53853434390E+02  0.38659759092E+01  0.58978594746E+02  0.10000000000E+01 0.  0.
    9000005    1    3    3    0    0  0.23713634745E+02 -0.53853434390E+02 -0.39928438351E+02  0.71118275131E+02  0.10000000000E+01 0.  0.
<mgrwt>
<rscale>  0 0.12499878E+03</rscale>
<asrwt>0</asrwt>
<pdfrwt beam="2">  1        4 0.12781487E-01 0.12499878E+03</pdfrwt>
<pdfrwt beam="1">  1       -4 0.72334160E-02 0.12499878E+03</pdfrwt>
<totfact> 0.10342721E+04</totfact>
</mgrwt>
</event>
<event>
 5    1  0.3273105E-002  0.1249980E+03  0.7818608E-02  0.1235072E+00
         -4   -1    0    0    0  501 -0.00000000000E+00  0.00000000000E+00  0.42117521078E+02  0.42136664340E+02  0.12700000000E+01 0.  1.
          4   -1    0    0  501    0  0.00000000000E+00 -0.00000000000E+00 -0.92698835397E+02  0.92707534667E+02  0.12700000000E+01 0.  1.
         25    2    1    2    0    0  0.00000000000E+00  0.00000000000E+00 -0.50581314319E+02  0.13484419901E+03  0.12499795457E+03 0.  0.
    9000005    1    3    3    0    0  0.44788588832E+02  0.42920908644E+02 -0.33428059235E+02  0.70474514774E+02  0.10000000000E+01 0.  0.
    9000005    1    3    3    0    0 -0.44788588832E+02 -0.42920908644E+02 -0.17153255084E+02  0.64369684234E+02  0.10000000000E+01 0.  0.
<mgrwt>
<rscale>  0 0.12499795E+03</rscale>
<asrwt>0</asrwt>
<pdfrwt beam="2">  1        4 0.14263501E-01 0.12499795E+03</pdfrwt>
<pdfrwt beam="1">  1       -4 0.64817604E-02 0.12499795E+03</pdfrwt>
<totfact> 0.10241828E+04</totfact>
</mgrwt>
</event>
<event>
 5    1  0.3273105E-002  0.1250028E+03  0.7818608E-02  0.1235065E+00
          4   -1    0    0  501    0  0.00000000000E+00  0.00000000000E+00  0.23162832811E+02  0.23197623237E+02  0.12700000000E+01 0.  1.
         -4   -1    0    0    0  501 -0.00000000000E+00 -0.00000000000E+00 -0.16848673122E+03  0.16849151759E+03  0.12700000000E+01 0.  1.
         25    2    1    2    0    0  0.00000000000E+00  0.00000000000E+00 -0.14532389841E+03  0.19168914082E+03  0.12500276501E+03 0.  0.
    9000005    1    3    3    0    0 -0.27946231078E+02 -0.54064317675E+02 -0.94428741947E+02  0.11234647116E+03  0.10000000000E+01 0.  0.
    9000005    1    3    3    0    0  0.27946231078E+02  0.54064317675E+02 -0.50895156466E+02  0.79342669660E+02  0.10000000000E+01 0.  0.
<mgrwt>
<rscale>  0 0.12500277E+03</rscale>
<asrwt>0</asrwt>
<pdfrwt beam="1">  1        4 0.35665572E-02 0.12500277E+03</pdfrwt>
<pdfrwt beam="2">  1       -4 0.25924079E-01 0.12500277E+03</pdfrwt>
<totfact> 0.91548569E+03</totfact>
</mgrwt>
</event>
<event>
 5    1  0.3273105E-002  0.1250109E+03  0.7818608E-02  0.1235052E+00
          4   -1    0    0  501    0  0.00000000000E+00  0.00000000000E+00  0.80794622117E+01  0.81786679618E+01  0.12700000000E+01 0. -1.
         -4   -1    0    0    0  501 -0.00000000000E+00 -0.00000000000E+00 -0.48051252629E+03  0.48051420460E+03  0.12700000000E+01 0. -1.
         25    2    1    2    0    0  0.00000000000E+00  0.00000000000E+00 -0.47243306408E+03  0.48869287256E+03  0.12501089416E+03 0.  0.
    9000005    1    3    3    0    0  0.26472546892E+02  0.56360011025E+02 -0.21527972170E+03  0.22410623632E+03  0.10000000000E+01 0.  0.
    9000005    1    3    3    0    0 -0.26472546892E+02 -0.56360011025E+02 -0.25715334238E+03  0.26458663624E+03  0.10000000000E+01 0.  0.
<mgrwt>
<rscale>  0 0.12501089E+03</rscale>
<asrwt>0</asrwt>
<pdfrwt beam="1">  1        4 0.12507549E-02 0.12501089E+03</pdfrwt>
<pdfrwt beam="2">  1       -4 0.73932742E-01 0.12501089E+03</pdfrwt>
<totfact> 0.56738870E+03</totfact>
</mgrwt>
</event>
<event>
 5    1  0.3273105E-002  0.1250057E+03  0.7818608E-02  0.1235060E+00
          4   -1    0    0  501    0  0.00000000000E+00  0.00000000000E+00  0.21842305430E+03  0.21842674642E+03  0.12700000000E+01 0.  1.
         -4   -1    0    0    0  501 -0.00000000000E+00 -0.00000000000E+00 -0.17859120495E+02  0.17904219750E+02  0.12700000000E+01 0.  1.
         25    2    1    2    0    0  0.00000000000E+00  0.00000000000E+00  0.20056393381E+03  0.23633096617E+03  0.12500573597E+03 0.  0.
    9000005    1    3    3    0    0 -0.50322633604E+02 -0.13124741291E+01  0.17029703549E+03  0.17758426264E+03  0.10000000000E+01 0.  0.
    9000005    1    3    3    0    0  0.50322633604E+02  0.13124741291E+01  0.30266898313E+02  0.58746703522E+02  0.10000000000E+01 0.  0.
<mgrwt>
<rscale>  0 0.12500574E+03</rscale>
<asrwt>0</asrwt>
<pdfrwt beam="1">  1        4 0.33607302E-01 0.12500574E+03</pdfrwt>
<pdfrwt beam="2">  1       -4 0.27513100E-02 0.12500574E+03</pdfrwt>
<totfact> 0.84336066E+03</totfact>
</mgrwt>
</event>
<event>
 5    1  0.3273105E-002  0.1250005E+03  0.7818608E-02  0.1235069E+00
         -4   -1    0    0    0  501 -0.00000000000E+00  0.00000000000E+00  0.19706876570E+03  0.19707285789E+03  0.12700000000E+01 0. -1.
          4   -1    0    0  501    0  0.00000000000E+00 -0.00000000000E+00 -0.19797270662E+02  0.19837964252E+02  0.12700000000E+01 0. -1.
         25    2    1    2    0    0  0.00000000000E+00  0.00000000000E+00  0.17727149504E+03  0.21691082214E+03  0.12500048723E+03 0.  0.
    9000005    1    3    3    0    0 -0.51756192441E+02  0.16946572184E+02  0.35450321815E+02  0.64989345908E+02  0.10000000000E+01 0.  0.
    9000005    1    3    3    0    0  0.51756192441E+02 -0.16946572184E+02  0.14182117323E+03  0.15192147623E+03  0.10000000000E+01 0.  0.
<mgrwt>
<rscale>  0 0.12500049E+03</rscale>
<asrwt>0</asrwt>
<pdfrwt beam="2">  1        4 0.30491788E-02 0.12500049E+03</pdfrwt>
<pdfrwt beam="1">  1       -4 0.30321719E-01 0.12500049E+03</pdfrwt>
<totfact> 0.87358591E+03</totfact>
</mgrwt>
</event>
<event>
 5    1  0.3273105E-002  0.1249980E+03  0.7818608E-02  0.1235072E+00
          4   -1    0    0  501    0  0.00000000000E+00  0.00000000000E+00  0.20048855186E+03  0.20049257424E+03  0.12700000000E+01 0.  1.
         -4   -1    0    0    0  501 -0.00000000000E+00 -0.00000000000E+00 -0.19458109959E+02  0.19499511358E+02  0.12700000000E+01 0.  1.
         25    2    1    2    0    0  0.00000000000E+00  0.00000000000E+00  0.18103044190E+03  0.21999208560E+03  0.12499798731E+03 0.  0.
    9000005    1    3    3    0    0  0.23718672327E+02  0.31809551505E+02  0.55487972276E+01  0.40077576456E+02  0.10000000000E+01 0.  0.
    9000005    1    3    3    0    0 -0.23718672327E+02 -0.31809551505E+02  0.17548164467E+03  0.17991450915E+03  0.10000000000E+01 0.  0.
<mgrwt>
<rscale>  0 0.12499799E+03</rscale>
<asrwt>0</asrwt>
<pdfrwt beam="1">  1        4 0.30847887E-01 0.12499799E+03</pdfrwt>
<pdfrwt beam="2">  1       -4 0.29970495E-02 0.12499799E+03</pdfrwt>
<totfact> 0.86873506E+03</totfact>
</mgrwt>
</event>
<event>
 5    1  0.3273105E-002  0.1249980E+03  0.7818608E-02  0.1235072E+00
         -4   -1    0    0    0  501 -0.00000000000E+00  0.00000000000E+00  0.36141019501E+01  0.38307483480E+01  0.12700000000E+01 0. -1.
          4   -1    0    0  501    0  0.00000000000E+00 -0.00000000000E+00 -0.10491322234E+04  0.10491329920E+04  0.12700000000E+01 0. -1.
         25    2    1    2    0    0  0.00000000000E+00  0.00000000000E+00 -0.10455181214E+04  0.10529637404E+04  0.12499798551E+03 0.  0.
    9000005    1    3    3    0    0 -0.46254507160E+02 -0.32106096712E+02 -0.75111259992E+03  0.75322069716E+03  0.10000000000E+01 0.  0.
    9000005    1    3    3    0    0  0.46254507160E+02  0.32106096712E+02 -0.29440552150E+03  0.29974304324E+03  0.10000000000E+01 0.  0.
<mgrwt>
<rscale>  0 0.12499799E+03</rscale>
<asrwt>0</asrwt>
<pdfrwt beam="2">  1        4 0.16142145E+00 0.12499799E+03</pdfrwt>
<pdfrwt beam="1">  1       -4 0.57274076E-03 0.12499799E+03</pdfrwt>
<totfact> 0.28903725E+03</totfact>
</mgrwt>
</event>
<event>
 5    1  0.3273105E-002  0.1250001E+03  0.7818608E-02  0.1235069E+00
         -4   -1    0    0    0  501 -0.00000000000E+00  0.00000000000E+00  0.44447626933E+02  0.44465767057E+02  0.12700000000E+01 0.  1.
          4   -1    0    0  501    0  0.00000000000E+00 -0.00000000000E+00 -0.87843814040E+02  0.87852994059E+02  0.12700000000E+01 0.  1.
         25    2    1    2    0    0  0.00000000000E+00  0.00000000000E+00 -0.43396187107E+02  0.13231876112E+03  0.12500010195E+03 0.  0.
    9000005    1    3    3    0    0  0.53130410195E+02  0.32898355476E+02 -0.21340542860E+02  0.66042115729E+02  0.10000000000E+01 0.  0.
    9000005    1    3    3    0    0 -0.53130410195E+02 -0.32898355476E+02 -0.22055644248E+02  0.66276645386E+02  0.10000000000E+01 0.  0.
<mgrwt>
<rscale>  0 0.12500010E+03</rscale>
<asrwt>0</asrwt>
<pdfrwt beam="2">  1        4 0.13516534E-01 0.12500010E+03</pdfrwt>
<pdfrwt beam="1">  1       -4 0.68401980E-02 0.12500010E+03</pdfrwt>
<totfact> 0.10294876E+04</totfact>
</mgrwt>
</event>
<event>
 5    1  0.3273105E-002  0.1250019E+03  0.7818608E-02  0.1235066E+00
          4   -1    0    0  501    0  0.00000000000E+00  0.00000000000E+00  0.14643158246E+03  0.14643708970E+03  0.12700000000E+01 0.  1.
         -4   -1    0    0    0  501 -0.00000000000E+00 -0.00000000000E+00 -0.26655982267E+02  0.26686219115E+02  0.12700000000E+01 0.  1.
         25    2    1    2    0    0  0.00000000000E+00  0.00000000000E+00  0.11977560019E+03  0.17312330882E+03  0.12500194261E+03 0.  0.
    9000005    1    3    3    0    0  0.52851915336E+02  0.28968030871E+02  0.37008629933E+02  0.70732668950E+02  0.10000000000E+01 0.  0.
    9000005    1    3    3    0    0 -0.52851915336E+02 -0.28968030871E+02  0.82766970258E+02  0.10239063987E+03  0.10000000000E+01 0.  0.
<mgrwt>
<rscale>  0 0.12500194E+03</rscale>
<asrwt>0</asrwt>
<pdfrwt beam="1">  1        4 0.22530686E-01 0.12500194E+03</pdfrwt>
<pdfrwt beam="2">  1       -4 0.41036698E-02 0.12500194E+03</pdfrwt>
<totfact> 0.94865545E+03</totfact>
</mgrwt>
</event>
<event>
 5    1  0.3273105E-002  0.1250026E+03  0.7818608E-02  0.1235065E+00
         -4   -1    0    0    0  501 -0.00000000000E+00  0.00000000000E+00  0.12112689222E+03  0.12113354994E+03  0.12700000000E+01 0. -1.
          4   -1    0    0  501    0  0.00000000000E+00 -0.00000000000E+00 -0.32230527526E+02  0.32255539131E+02  0.12700000000E+01 0. -1.
         25    2    1    2    0    0  0.00000000000E+00  0.00000000000E+00  0.88896364698E+02  0.15338908907E+03  0.12500259593E+03 0.  0.
    9000005    1    3    3    0    0 -0.41284423795E+02 -0.38522843031E+02  0.11590663873E+02  0.57652030080E+02  0.10000000000E+01 0.  0.
    9000005    1    3    3    0    0  0.41284423795E+02  0.38522843031E+02  0.77305700826E+02  0.95737058987E+02  0.10000000000E+01 0.  0.
<mgrwt>
<rscale>  0 0.12500260E+03</rscale>
<asrwt>0</asrwt>
<pdfrwt beam="2">  1        4 0.49609787E-02 0.12500260E+03</pdfrwt>
<pdfrwt beam="1">  1       -4 0.18637343E-01 0.12500260E+03</pdfrwt>
<totfact> 0.98626613E+03</totfact>
</mgrwt>
</event>
<event>
 5    1  0.3273105E-002  0.1249992E+03  0.7818608E-02  0.1235071E+00
         -4   -1    0    0    0  501 -0.00000000000E+00  0.00000000000E+00  0.59491236586E+02  0.59504790820E+02  0.12700000000E+01 0. -1.
          4   -1    0    0  501    0  0.00000000000E+00 -0.00000000000E+00 -0.65632880439E+02  0.65645166576E+02  0.12700000000E+01 0. -1.
         25    2    1    2    0    0  0.00000000000E+00  0.00000000000E+00 -0.61416438532E+01  0.12514995740E+03  0.12499916819E+03 0.  0.
    9000005    1    3    3    0    0  0.36742114327E+02  0.43467507940E+02 -0.28904870869E+02  0.63842766009E+02  0.10000000000E+01 0.  0.
    9000005    1    3    3    0    0 -0.36742114327E+02 -0.43467507940E+02  0.22763227016E+02  0.61307191388E+02  0.10000000000E+01 0.  0.
<mgrwt>
<rscale>  0 0.12499917E+03</rscale>
<asrwt>0</asrwt>
<pdfrwt beam="2">  1        4 0.10099354E-01 0.12499917E+03</pdfrwt>
<pdfrwt beam="1">  1       -4 0.91544856E-02 0.12499917E+03</pdfrwt>
<totfact> 0.10449803E+04</totfact>
</mgrwt>
</event>
<event>
 5    1  0.3273105E-002  0.1250002E+03  0.7818608E-02  0.1235069E+00
         -4   -1    0    0    0  501 -0.00000000000E+00  0.00000000000E+00  0.31525266536E+02  0.31550837234E+02  0.12700000000E+01 0. -1.
          4   -1    0    0  501    0  0.00000000000E+00 -0.00000000000E+00 -0.12382997581E+03  0.12383648820E+03  0.12700000000E+01 0. -1.
         25    2    1    2    0    0  0.00000000000E+00  0.00000000000E+00 -0.92304709275E+02  0.15538732543E+03  0.12500024620E+03 0.  0.
    9000005    1    3    3    0    0 -0.59698447961E+02  0.13057119156E+02 -0.62401877162E+02  0.87346364108E+02  0.10000000000E+01 0.  0.
    9000005    1    3    3    0    0  0.59698447961E+02 -0.13057119156E+02 -0.29902832113E+02  0.68040961325E+02  0.10000000000E+01 0.  0.
<mgrwt>
<rscale>  0 0.12500025E+03</rscale>
<asrwt>0</asrwt>
<pdfrwt beam="2">  1        4 0.19053233E-01 0.12500025E+03</pdfrwt>
<pdfrwt beam="1">  1       -4 0.48525090E-02 0.12500025E+03</pdfrwt>
<totfact> 0.98238972E+03</totfact>
</mgrwt>
</event>
<event>
 5    1  0.3273105E-002  0.1250040E+03  0.7818608E-02  0.1235063E+00
          4   -1    0    0  501    0  0.00000000000E+00  0.00000000000E+00  0.60815425626E+03  0.60815558232E+03  0.12700000000E+01 0. -1.
         -4   -1    0    0    0  501 -0.00000000000E+00 -0.00000000000E+00 -0.63594117919E+01  0.64849840662E+01  0.12700000000E+01 0. -1.
         25    2    1    2    0    0  0.00000000000E+00  0.00000000000E+00  0.60179484447E+03  0.61464056639E+03  0.12500396401E+03 0.  0.
    9000005    1    3    3    0    0  0.55583056178E+02 -0.25858636452E+01  0.16101550459E+03  0.17036183711E+03  0.10000000000E+01 0.  0.
    9000005    1    3    3    0    0 -0.55583056178E+02  0.25858636452E+01  0.44077933987E+03  0.44427872927E+03  0.10000000000E+01 0.  0.
<mgrwt>
<rscale>  0 0.12500396E+03</rscale>
<asrwt>0</asrwt>
<pdfrwt beam="1">  1        4 0.93571972E-01 0.12500396E+03</pdfrwt>
<pdfrwt beam="2">  1       -4 0.98813227E-03 0.12500396E+03</pdfrwt>
<totfact> 0.47952133E+03</totfact>
</mgrwt>
</event>
<event>
 5    1  0.3273105E-002  0.1249950E+03  0.7818608E-02  0.1235077E+00
         -4   -1    0    0    0  501 -0.00000000000E+00  0.00000000000E+00  0.60602208295E+01  0.61918637342E+01  0.12700000000E+01 0.  1.
          4   -1    0    0  501    0  0.00000000000E+00 -0.00000000000E+00 -0.63746337642E+03  0.63746464151E+03  0.12700000000E+01 0.  1.
         25    2    1    2    0    0  0.00000000000E+00  0.00000000000E+00 -0.63140315559E+03  0.64365650525E+03  0.12499500732E+03 0.  0.
    9000005    1    3    3    0    0 -0.27085299334E+01 -0.22313891930E+02 -0.15452773316E+02  0.27295312979E+02  0.10000000000E+01 0.  0.
    9000005    1    3    3    0    0  0.27085299334E+01  0.22313891930E+02 -0.61595038228E+03  0.61636119227E+03  0.10000000000E+01 0.  0.
<mgrwt>
<rscale>  0 0.12499501E+03</rscale>
<asrwt>0</asrwt>
<pdfrwt beam="2">  1        4 0.98081460E-01 0.12499501E+03</pdfrwt>
<pdfrwt beam="1">  1       -4 0.94256586E-03 0.12499501E+03</pdfrwt>
<totfact> 0.46227932E+03</totfact>
</mgrwt>
</event>
<event>
 5    1  0.3273105E-002  0.1250049E+03  0.7818608E-02  0.1235062E+00
          4   -1    0    0  501    0  0.00000000000E+00  0.00000000000E+00  0.50227856477E+01  0.51808566533E+01  0.12700000000E+01 0. -1.
         -4   -1    0    0    0  501 -0.00000000000E+00 -0.00000000000E+00 -0.76555945057E+03  0.76556050398E+03  0.12700000000E+01 0. -1.
         25    2    1    2    0    0  0.00000000000E+00  0.00000000000E+00 -0.76053666492E+03  0.77074136064E+03  0.12500490511E+03 0.  0.
    9000005    1    3    3    0    0  0.29953705105E+02  0.52166115751E+01 -0.71691263857E+03  0.71755778083E+03  0.10000000000E+01 0.  0.
    9000005    1    3    3    0    0 -0.29953705105E+02 -0.52166115751E+01 -0.43624026351E+02  0.53183579805E+02  0.10000000000E+01 0.  0.
<mgrwt>
<rscale>  0 0.12500491E+03</rscale>
<asrwt>0</asrwt>
<pdfrwt beam="1">  1        4 0.78497720E-03 0.12500491E+03</pdfrwt>
<pdfrwt beam="2">  1       -4 0.11779053E+00 0.12500491E+03</pdfrwt>
<totfact> 0.39596949E+03</totfact>
</mgrwt>
</event>
<event>
 5    1  0.3273105E-002  0.1250100E+03  0.7818608E-02  0.1235054E+00
          4   -1    0    0  501    0  0.00000000000E+00  0.00000000000E+00  0.45261569918E+01  0.47009570424E+01  0.12700000000E+01 0. -1.
         -4   -1    0    0    0  501 -0.00000000000E+00 -0.00000000000E+00 -0.84664981133E+03  0.84665076385E+03  0.12700000000E+01 0. -1.
         25    2    1    2    0    0  0.00000000000E+00  0.00000000000E+00 -0.84212365434E+03  0.85135172089E+03  0.12501001347E+03 0.  0.
    9000005    1    3    3    0    0 -0.61542425905E+02  0.28351694787E+01 -0.34951591775E+03  0.35490545943E+03  0.10000000000E+01 0.  0.
    9000005    1    3    3    0    0  0.61542425905E+02 -0.28351694787E+01 -0.49260773659E+03  0.49644626147E+03  0.10000000000E+01 0.  0.
<mgrwt>
<rscale>  0 0.12501001E+03</rscale>
<asrwt>0</asrwt>
<pdfrwt beam="1">  1        4 0.70985194E-03 0.12501001E+03</pdfrwt>
<pdfrwt beam="2">  1       -4 0.13026721E+00 0.12501001E+03</pdfrwt>
<totfact> 0.36064218E+03</totfact>
</mgrwt>
</event>
<event>
 5    1  0.3273105E-002  0.1249960E+03  0.7818608E-02  0.1235075E+00
         -4   -1    0    0    0  501 -0.00000000000E+00  0.00000000000E+00  0.86737237983E+01  0.87662069637E+01  0.12700000000E+01 0.  1.
          4   -1    0    0  501    0  0.00000000000E+00 -0.00000000000E+00 -0.44784442747E+03  0.44784622821E+03  0.12700000000E+01 0.  1.
         25    2    1    2    0    0  0.00000000000E+00  0.00000000000E+00 -0.43917070367E+03  0.45661243517E+03  0.12499603588E+03 0.  0.
    9000005    1    3    3    0    0 -0.20048009640E+01 -0.68328308844E+01  0.72046974278E+01  0.10179119305E+02  0.10000000000E+01 0.  0.
    9000005    1    3    3    0    0  0.20048009640E+01  0.68328308844E+01 -0.44637540110E+03  0.44643331586E+03  0.10000000000E+01 0.  0.
<mgrwt>
<rscale>  0 0.12499604E+03</rscale>
<asrwt>0</asrwt>
<pdfrwt beam="2">  1        4 0.68906377E-01 0.12499604E+03</pdfrwt>
<pdfrwt beam="1">  1       -4 0.13416720E-02 0.12499604E+03</pdfrwt>
<totfact> 0.59400404E+03</totfact>
</mgrwt>
</event>
<event>
 5    1  0.3273105E-002  0.1250125E+03  0.7818608E-02  0.1235050E+00
          4   -1    0    0  501    0  0.00000000000E+00  0.00000000000E+00  0.38241853599E+02  0.38262935939E+02  0.12700000000E+01 0. -1.
         -4   -1    0    0    0  501 -0.00000000000E+00 -0.00000000000E+00 -0.10211319005E+03  0.10212108735E+03  0.12700000000E+01 0. -1.
         25    2    1    2    0    0  0.00000000000E+00  0.00000000000E+00 -0.63871336452E+02  0.14038402329E+03  0.12501250488E+03 0.  0.
    9000005    1    3    3    0    0 -0.36960991405E+02  0.47700952379E+02 -0.50200113903E+02  0.78501892839E+02  0.10000000000E+01 0.  0.
    9000005    1    3    3    0    0  0.36960991405E+02 -0.47700952379E+02 -0.13671222550E+02  0.61882130454E+02  0.10000000000E+01 0.  0.
<mgrwt>
<rscale>  0 0.12501250E+03</rscale>
<asrwt>0</asrwt>
<pdfrwt beam="1">  1        4 0.58855913E-02 0.12501250E+03</pdfrwt>
<pdfrwt beam="2">  1       -4 0.15711951E-01 0.12501250E+03</pdfrwt>
<totfact> 0.10122781E+04</totfact>
</mgrwt>
</event>
<event>
 5    1  0.3273105E-002  0.1249994E+03  0.7818608E-02  0.1235070E+00
          4   -1    0    0  501    0  0.00000000000E+00  0.00000000000E+00  0.86453967408E+03  0.86454060688E+03  0.12700000000E+01 0.  1.
         -4   -1    0    0    0  501 -0.00000000000E+00 -0.00000000000E+00 -0.44280629471E+01  0.46065867476E+01  0.12700000000E+01 0.  1.
         25    2    1    2    0    0  0.00000000000E+00  0.00000000000E+00  0.86011161113E+03  0.86914719363E+03  0.12499944239E+03 0.  0.
    9000005    1    3    3    0    0  0.60523781252E+02  0.37286643711E+01  0.32502227592E+03  0.33063198708E+03  0.10000000000E+01 0.  0.
    9000005    1    3    3    0    0 -0.60523781252E+02 -0.37286643711E+01  0.53508933521E+03  0.53851520656E+03  0.10000000000E+01 0.  0.
<mgrwt>
<rscale>  0 0.12499944E+03</rscale>
<asrwt>0</asrwt>
<pdfrwt beam="1">  1        4 0.13301982E+00 0.12499944E+03</pdfrwt>
<pdfrwt beam="2">  1       -4 0.69504527E-03 0.12499944E+03</pdfrwt>
<totfact> 0.35356813E+03</totfact>
</mgrwt>
</event>
<event>
 5    1  0.3273105E-002  0.1249873E+03  0.7818608E-02  0.1235089E+00
         -4   -1    0    0    0  501 -0.00000000000E+00  0.00000000000E+00  0.84249170751E+02  0.84258742409E+02  0.12700000000E+01 0.  1.
          4   -1    0    0  501    0  0.00000000000E+00 -0.00000000000E+00 -0.46335082031E+02  0.46352483502E+02  0.12700000000E+01 0.  1.
         25    2    1    2    0    0  0.00000000000E+00  0.00000000000E+00  0.37914088721E+02  0.13061122591E+03  0.12498725619E+03 0.  0.
    9000005    1    3    3    0    0  0.33633883458E+02  0.50008245262E+02  0.17101452621E+01  0.60299148480E+02  0.10000000000E+01 0.  0.
    9000005    1    3    3    0    0 -0.33633883458E+02 -0.50008245262E+02  0.36203943458E+02  0.70312077430E+02  0.10000000000E+01 0.  0.
<mgrwt>
<rscale>  0 0.12498726E+03</rscale>
<asrwt>0</asrwt>
<pdfrwt beam="2">  1        4 0.71305491E-02 0.12498726E+03</pdfrwt>
<pdfrwt beam="1">  1       -4 0.12963486E-01 0.12498726E+03</pdfrwt>
<totfact> 0.10334402E+04</totfact>
</mgrwt>
</event>
<event>
 5    1  0.3273105E-002  0.1249943E+03  0.7818608E-02  0.1235078E+00
          4   -1    0    0  501    0  0.00000000000E+00  0.00000000000E+00  0.14483480893E+02  0.14539054948E+02  0.12700000000E+01 0. -1.
         -4   -1    0    0    0  501 -0.00000000000E+00 -0.00000000000E+00 -0.26910593689E+03  0.26910893365E+03  0.12700000000E+01 0. -1.
         25    2    1    2    0    0  0.00000000000E+00  0.00000000000E+00 -0.25462245600E+03  0.28364798860E+03  0.12499434522E+03 0.  0.
    9000005    1    3    3    0    0  0.21726809740E+02  0.50495232660E+02 -0.19474661321E+03  0.20235875602E+03  0.10000000000E+01 0.  0.
    9000005    1    3    3    0    0 -0.21726809740E+02 -0.50495232660E+02 -0.59875842792E+02  0.81289232577E+02  0.10000000000E+01 0.  0.
<mgrwt>
<rscale>  0 0.12499435E+03</rscale>
<asrwt>0</asrwt>
<pdfrwt beam="1">  1        4 0.22327335E-02 0.12499435E+03</pdfrwt>
<pdfrwt beam="2">  1       -4 0.41405415E-01 0.12499435E+03</pdfrwt>
<totfact> 0.77706648E+03</totfact>
</mgrwt>
</event>
<event>
 5    1  0.3273105E-002  0.1250001E+03  0.7818608E-02  0.1235069E+00
         -4   -1    0    0    0  501 -0.00000000000E+00  0.00000000000E+00  0.25494679270E+02  0.25526291761E+02  0.12700000000E+01 0.  1.
          4   -1    0    0  501    0  0.00000000000E+00 -0.00000000000E+00 -0.15308930770E+03  0.15309457545E+03  0.12700000000E+01 0.  1.
         25    2    1    2    0    0  0.00000000000E+00  0.00000000000E+00 -0.12759462843E+03  0.17862086721E+03  0.12500010000E+03 0.  0.
    9000005    1    3    3    0    0  0.39121588650E+02  0.24675576320E+02 -0.12384573990E+03  0.13220495474E+03  0.10000000000E+01 0.  0.
    9000005    1    3    3    0    0 -0.39121588650E+02 -0.24675576320E+02 -0.37488885247E+01  0.46415912470E+02  0.10000000000E+01 0.  0.
<mgrwt>
<rscale>  0 0.12500010E+03</rscale>
<asrwt>0</asrwt>
<pdfrwt beam="2">  1        4 0.23555038E-01 0.12500010E+03</pdfrwt>
<pdfrwt beam="1">  1       -4 0.39250954E-02 0.12500010E+03</pdfrwt>
<totfact> 0.93865632E+03</totfact>
</mgrwt>
</event>
<event>
 5    1  0.3273105E-002  0.1249930E+03  0.7818608E-02  0.1235080E+00
         -4   -1    0    0    0  501 -0.00000000000E+00  0.00000000000E+00  0.12369017122E+02  0.12434045382E+02  0.12700000000E+01 0. -1.
          4   -1    0    0  501    0  0.00000000000E+00 -0.00000000000E+00 -0.31487948428E+03  0.31488204541E+03  0.12700000000E+01 0. -1.
         25    2    1    2    0    0  0.00000000000E+00  0.00000000000E+00 -0.30251046716E+03  0.32731609079E+03  0.12499296200E+03 0.  0.
    9000005    1    3    3    0    0 -0.85314000892E+01 -0.40956574949E+02 -0.29702832196E+02  0.51317482981E+02  0.10000000000E+01 0.  0.
    9000005    1    3    3    0    0  0.85314000892E+01  0.40956574949E+02 -0.27280763496E+03  0.27599860781E+03  0.10000000000E+01 0.  0.
<mgrwt>
<rscale>  0 0.12499296E+03</rscale>
<asrwt>0</asrwt>
<pdfrwt beam="2">  1        4 0.48448191E-01 0.12499296E+03</pdfrwt>
<pdfrwt beam="1">  1       -4 0.19081251E-02 0.12499296E+03</pdfrwt>
<totfact> 0.72305618E+03</totfact>
</mgrwt>
</event>
<event>
 5    1  0.3273105E-002  0.1249999E+03  0.7818608E-02  0.1235069E+00
         -4   -1    0    0    0  501 -0.00000000000E+00  0.00000000000E+00  0.89772339258E+02  0.89781322088E+02  0.12700000000E+01 0.  1.
          4   -1    0    0  501    0  0.00000000000E+00 -0.00000000000E+00 -0.43492359818E+02  0.43510898204E+02  0.12700000000E+01 0.  1.
         25    2    1    2    0    0  0.00000000000E+00  0.00000000000E+00  0.46279979440E+02  0.13329222029E+03  0.12499991797E+03 0.  0.
    9000005    1    3    3    0    0 -0.41057764703E+02  0.47048448347E+02  0.20539273715E+02  0.65743123588E+02  0.10000000000E+01 0.  0.
    9000005    1    3    3    0    0  0.41057764703E+02 -0.47048448347E+02  0.25740705725E+02  0.67549096704E+02  0.10000000000E+01 0.  0.
<mgrwt>
<rscale>  0 0.12499992E+03</rscale>
<asrwt>0</asrwt>
<pdfrwt beam="2">  1        4 0.66932494E-02 0.12499992E+03</pdfrwt>
<pdfrwt beam="1">  1       -4 0.13813246E-01 0.12499992E+03</pdfrwt>
<totfact> 0.10274212E+04</totfact>
</mgrwt>
</event>
<event>
 5    1  0.3273105E-002  0.1250010E+03  0.7818608E-02  0.1235068E+00
          4   -1    0    0  501    0  0.00000000000E+00  0.00000000000E+00  0.51635479242E+01  0.53174361458E+01  0.12700000000E+01 0.  1.
         -4   -1    0    0    0  501 -0.00000000000E+00 -0.00000000000E+00 -0.74525477977E+03  0.74525586188E+03  0.12700000000E+01 0.  1.
         25    2    1    2    0    0  0.00000000000E+00  0.00000000000E+00 -0.74009123185E+03  0.75057329803E+03  0.12500097703E+03 0.  0.
    9000005    1    3    3    0    0  0.60493162238E+02  0.14230159174E+01 -0.46381326468E+03  0.46774479382E+03  0.10000000000E+01 0.  0.
    9000005    1    3    3    0    0 -0.60493162238E+02 -0.14230159174E+01 -0.27627796716E+03  0.28282850421E+03  0.10000000000E+01 0.  0.
<mgrwt>
<rscale>  0 0.12500098E+03</rscale>
<asrwt>0</asrwt>
<pdfrwt beam="1">  1        4 0.80631337E-03 0.12500098E+03</pdfrwt>
<pdfrwt beam="2">  1       -4 0.11466642E+00 0.12500098E+03</pdfrwt>
<totfact> 0.40545888E+03</totfact>
</mgrwt>
</event>
<event>
 5    1  0.3273105E-002  0.1249969E+03  0.7818608E-02  0.1235074E+00
         -4   -1    0    0    0  501 -0.00000000000E+00  0.00000000000E+00  0.72822290815E+02  0.72833364192E+02  0.12700000000E+01 0. -1.
          4   -1    0    0  501    0  0.00000000000E+00 -0.00000000000E+00 -0.53615511029E+02  0.53630550276E+02  0.12700000000E+01 0. -1.
         25    2    1    2    0    0  0.00000000000E+00  0.00000000000E+00  0.19206779786E+02  0.12646391447E+03  0.12499688505E+03 0.  0.
    9000005    1    3    3    0    0 -0.28534739518E+02 -0.41776596077E+01 -0.46485253119E+02  0.54713462299E+02  0.10000000000E+01 0.  0.
    9000005    1    3    3    0    0  0.28534739518E+02  0.41776596077E+01  0.65692032906E+02  0.71750452169E+02  0.10000000000E+01 0.  0.
<mgrwt>
<rscale>  0 0.12499689E+03</rscale>
<asrwt>0</asrwt>
<pdfrwt beam="2">  1        4 0.82505488E-02 0.12499689E+03</pdfrwt>
<pdfrwt beam="1">  1       -4 0.11205438E-01 0.12499689E+03</pdfrwt>
<totfact> 0.10421548E+04</totfact>
</mgrwt>
</event>
<event>
 5    1  0.3273105E-002  0.1250177E+03  0.7818608E-02  0.1235042E+00
          4   -1    0    0  501    0  0.00000000000E+00  0.00000000000E+00  0.80830559876E+02  0.80840536304E+02  0.12700000000E+01 0.  1.
         -4   -1    0    0    0  501 -0.00000000000E+00 -0.00000000000E+00 -0.48318798329E+02  0.48335485639E+02  0.12700000000E+01 0.  1.
         25    2    1    2    0    0  0.00000000000E+00  0.00000000000E+00  0.32511761547E+02  0.12917602194E+03  0.12501771877E+03 0.  0.
    9000005    1    3    3    0    0  0.35823453287E+02 -0.27803374738E+02 -0.28186506533E+02  0.53402496222E+02  0.10000000000E+01 0.  0.
    9000005    1    3    3    0    0 -0.35823453287E+02  0.27803374738E+02  0.60698268079E+02  0.75773525720E+02  0.10000000000E+01 0.  0.
<mgrwt>
<rscale>  0 0.12501772E+03</rscale>
<asrwt>0</asrwt>
<pdfrwt beam="1">  1        4 0.12437522E-01 0.12501772E+03</pdfrwt>
<pdfrwt beam="2">  1       -4 0.74357125E-02 0.12501772E+03</pdfrwt>
<totfact> 0.10358022E+04</totfact>
</mgrwt>
</event>
<event>
 5    1  0.3273105E-002  0.1250021E+03  0.7818608E-02  0.1235066E+00
          4   -1    0    0  501    0  0.00000000000E+00  0.00000000000E+00  0.16575720968E+03  0.16576207486E+03  0.12700000000E+01 0.  1.
         -4   -1    0    0    0  501 -0.00000000000E+00 -0.00000000000E+00 -0.23544578612E+02  0.23578805780E+02  0.12700000000E+01 0.  1.
         25    2    1    2    0    0  0.00000000000E+00  0.00000000000E+00  0.14221263107E+03  0.18934088064E+03  0.12500214656E+03 0.  0.
    9000005    1    3    3    0    0 -0.43406436664E+02  0.44264278229E+02  0.83027223459E+02  0.10362415214E+03  0.10000000000E+01 0.  0.
    9000005    1    3    3    0    0  0.43406436664E+02 -0.44264278229E+02  0.59185407613E+02  0.85716728503E+02  0.10000000000E+01 0.  0.
<mgrwt>
<rscale>  0 0.12500215E+03</rscale>
<asrwt>0</asrwt>
<pdfrwt beam="1">  1        4 0.25504117E-01 0.12500215E+03</pdfrwt>
<pdfrwt beam="2">  1       -4 0.36252499E-02 0.12500215E+03</pdfrwt>
<totfact> 0.91957703E+03</totfact>
</mgrwt>
</event>
<event>
 5    1  0.3273105E-002  0.1249992E+03  0.7818608E-02  0.1235071E+00
          4   -1    0    0  501    0  0.00000000000E+00  0.00000000000E+00  0.37308722009E+02  0.37330331340E+02  0.12700000000E+01 0. -1.
         -4   -1    0    0    0  501 -0.00000000000E+00 -0.00000000000E+00 -0.10464356570E+03  0.10465127206E+03  0.12700000000E+01 0. -1.
         25    2    1    2    0    0  0.00000000000E+00  0.00000000000E+00 -0.67334843694E+02  0.14198160340E+03  0.12499917811E+03 0.  0.
    9000005    1    3    3    0    0 -0.34589554692E+02  0.30142525663E+02  0.14525585626E+02  0.48135244727E+02  0.10000000000E+01 0.  0.
    9000005    1    3    3    0    0  0.34589554692E+02 -0.30142525663E+02 -0.81860429320E+02  0.93846358670E+02  0.10000000000E+01 0.  0.
<mgrwt>
<rscale>  0 0.12499918E+03</rscale>
<asrwt>0</asrwt>
<pdfrwt beam="1">  1        4 0.57420585E-02 0.12499918E+03</pdfrwt>
<pdfrwt beam="2">  1       -4 0.16101265E-01 0.12499918E+03</pdfrwt>
<totfact> 0.10092867E+04</totfact>
</mgrwt>
</event>
<event>
 5    1  0.3273105E-002  0.1249821E+03  0.7818608E-02  0.1235097E+00
         -4   -1    0    0    0  501 -0.00000000000E+00  0.00000000000E+00  0.24440615130E+02  0.24473589191E+02  0.12700000000E+01 0. -1.
          4   -1    0    0  501    0  0.00000000000E+00 -0.00000000000E+00 -0.15963708786E+03  0.15964213955E+03  0.12700000000E+01 0. -1.
         25    2    1    2    0    0  0.00000000000E+00  0.00000000000E+00 -0.13519647273E+03  0.18411572874E+03  0.12498206004E+03 0.  0.
    9000005    1    3    3    0    0  0.10371622003E+02  0.52598833274E+02 -0.20321751817E+02  0.57342666502E+02  0.10000000000E+01 0.  0.
    9000005    1    3    3    0    0 -0.10371622003E+02 -0.52598833274E+02 -0.11487472092E+03  0.12677306224E+03  0.10000000000E+01 0.  0.
<mgrwt>
<rscale>  0 0.12498206E+03</rscale>
<asrwt>0</asrwt>
<pdfrwt beam="2">  1        4 0.24562476E-01 0.12498206E+03</pdfrwt>
<pdfrwt beam="1">  1       -4 0.37630198E-02 0.12498206E+03</pdfrwt>
<totfact> 0.92918717E+03</totfact>
</mgrwt>
</event>
<event>
 5    1  0.3273105E-002  0.1250019E+03  0.7818608E-02  0.1235066E+00
          4   -1    0    0  501    0  0.00000000000E+00  0.00000000000E+00  0.59825185512E+01  0.61158342207E+01  0.12700000000E+01 0.  1.
         -4   -1    0    0    0  501 -0.00000000000E+00 -0.00000000000E+00 -0.64563433728E+03  0.64563558636E+03  0.12700000000E+01 0.  1.
         25    2    1    2    0    0  0.00000000000E+00  0.00000000000E+00 -0.63965181873E+03  0.65175142058E+03  0.12500186009E+03 0.  0.
    9000005    1    3    3    0    0 -0.31281382689E+02 -0.28330196144E+02 -0.79518346432E+02  0.90029397064E+02  0.10000000000E+01 0.  0.
    9000005    1    3    3    0    0  0.31281382689E+02  0.28330196144E+02 -0.56013347229E+03  0.56172202351E+03  0.10000000000E+01 0.  0.
<mgrwt>
<rscale>  0 0.12500186E+03</rscale>
<asrwt>0</asrwt>
<pdfrwt beam="1">  1        4 0.93073911E-03 0.12500186E+03</pdfrwt>
<pdfrwt beam="2">  1       -4 0.99338656E-01 0.12500186E+03</pdfrwt>
<totfact> 0.45753743E+03</totfact>
</mgrwt>
</event>
<event>
 5    1  0.3273105E-002  0.1249959E+03  0.7818608E-02  0.1235076E+00
         -4   -1    0    0    0  501 -0.00000000000E+00  0.00000000000E+00  0.22209818664E+02  0.22246099547E+02  0.12700000000E+01 0.  1.
          4   -1    0    0  501    0  0.00000000000E+00 -0.00000000000E+00 -0.17568586845E+03  0.17569045868E+03  0.12700000000E+01 0.  1.
         25    2    1    2    0    0  0.00000000000E+00  0.00000000000E+00 -0.15347604978E+03  0.19793655823E+03  0.12499593284E+03 0.  0.
    9000005    1    3    3    0    0  0.22204636852E+02  0.17128156947E+02  0.11693743309E+02  0.30400054123E+02  0.10000000000E+01 0.  0.
    9000005    1    3    3    0    0 -0.22204636852E+02 -0.17128156947E+02 -0.16516979309E+03  0.16753650411E+03  0.10000000000E+01 0.  0.
<mgrwt>
<rscale>  0 0.12499593E+03</rscale>
<asrwt>0</asrwt>
<pdfrwt beam="2">  1        4 0.27031738E-01 0.12499593E+03</pdfrwt>
<pdfrwt beam="1">  1       -4 0.34200392E-02 0.12499593E+03</pdfrwt>
<totfact> 0.90492661E+03</totfact>
</mgrwt>
</event>
<event>
 5    1  0.3273105E-002  0.1250000E+03  0.7818608E-02  0.1235069E+00
         -4   -1    0    0    0  501 -0.00000000000E+00  0.00000000000E+00  0.11703187260E+03  0.11703876326E+03  0.12700000000E+01 0.  1.
          4   -1    0    0  501    0  0.00000000000E+00 -0.00000000000E+00 -0.33357724539E+02  0.33381891594E+02  0.12700000000E+01 0.  1.
         25    2    1    2    0    0  0.00000000000E+00  0.00000000000E+00  0.83674148065E+02  0.15042065485E+03  0.12500004141E+03 0.  0.
    9000005    1    3    3    0    0 -0.22993874538E+02  0.57170903653E+02  0.29330060475E+02  0.68253080064E+02  0.10000000000E+01 0.  0.
    9000005    1    3    3    0    0  0.22993874538E+02 -0.57170903653E+02  0.54344087590E+02  0.82167574789E+02  0.10000000000E+01 0.  0.
<mgrwt>
<rscale>  0 0.12500004E+03</rscale>
<asrwt>0</asrwt>
<pdfrwt beam="2">  1        4 0.51343466E-02 0.12500004E+03</pdfrwt>
<pdfrwt beam="1">  1       -4 0.18007293E-01 0.12500004E+03</pdfrwt>
<totfact> 0.99219820E+03</totfact>
</mgrwt>
</event>
<event>
 5    1  0.3273105E-002  0.1250018E+03  0.7818608E-02  0.1235067E+00
          4   -1    0    0  501    0  0.00000000000E+00  0.00000000000E+00  0.10025625855E+02  0.10105744593E+02  0.12700000000E+01 0. -1.
         -4   -1    0    0    0  501 -0.00000000000E+00 -0.00000000000E+00 -0.38800567089E+03  0.38800774934E+03  0.12700000000E+01 0. -1.
         25    2    1    2    0    0  0.00000000000E+00  0.00000000000E+00 -0.37798004504E+03  0.39811349393E+03  0.12500175839E+03 0.  0.
    9000005    1    3    3    0    0 -0.48034110370E+01  0.50612437877E+02 -0.73248911071E+02  0.89168910494E+02  0.10000000000E+01 0.  0.
    9000005    1    3    3    0    0  0.48034110370E+01 -0.50612437877E+02 -0.30473113397E+03  0.30894458344E+03  0.10000000000E+01 0.  0.
<mgrwt>
<rscale>  0 0.12500176E+03</rscale>
<asrwt>0</asrwt>
<pdfrwt beam="1">  1        4 0.15487271E-02 0.12500176E+03</pdfrwt>
<pdfrwt beam="2">  1       -4 0.59699492E-01 0.12500176E+03</pdfrwt>
<totfact> 0.64734175E+03</totfact>
</mgrwt>
</event>
<event>
 5    1  0.3273105E-002  0.1249994E+03  0.7818608E-02  0.1235070E+00
          4   -1    0    0  501    0  0.00000000000E+00  0.00000000000E+00  0.36340024472E+02  0.36362209485E+02  0.12700000000E+01 0.  1.
         -4   -1    0    0    0  501 -0.00000000000E+00 -0.00000000000E+00 -0.10743190697E+03  0.10743941332E+03  0.12700000000E+01 0.  1.
         25    2    1    2    0    0  0.00000000000E+00  0.00000000000E+00 -0.71091882498E+02  0.14380162281E+03  0.12499940386E+03 0.  0.
    9000005    1    3    3    0    0  0.40577799864E+02  0.37826208968E+02 -0.24460044872E+01  0.55537040474E+02  0.10000000000E+01 0.  0.
    9000005    1    3    3    0    0 -0.40577799864E+02 -0.37826208968E+02 -0.68645878011E+02  0.88264582334E+02  0.10000000000E+01 0.  0.
<mgrwt>
<rscale>  0 0.12499940E+03</rscale>
<asrwt>0</asrwt>
<pdfrwt beam="1">  1        4 0.55930570E-02 0.12499940E+03</pdfrwt>
<pdfrwt beam="2">  1       -4 0.16530269E-01 0.12499940E+03</pdfrwt>
<totfact> 0.10055529E+04</totfact>
</mgrwt>
</event>
<event>
 5    1  0.3273105E-002  0.1250099E+03  0.7818608E-02  0.1235054E+00
          4   -1    0    0  501    0  0.00000000000E+00  0.00000000000E+00  0.60757130107E+02  0.60770401997E+02  0.12700000000E+01 0.  1.
         -4   -1    0    0    0  501 -0.00000000000E+00 -0.00000000000E+00 -0.64276470611E+02  0.64289015969E+02  0.12700000000E+01 0.  1.
         25    2    1    2    0    0  0.00000000000E+00  0.00000000000E+00 -0.35193405040E+01  0.12505941797E+03  0.12500988867E+03 0.  0.
    9000005    1    3    3    0    0 -0.87916940147E+00 -0.61883828133E+02  0.69320943020E+01  0.62285111019E+02  0.10000000000E+01 0.  0.
    9000005    1    3    3    0    0  0.87916940147E+00  0.61883828133E+02 -0.10451434806E+02  0.62774306947E+02  0.10000000000E+01 0.  0.
<mgrwt>
<rscale>  0 0.12500989E+03</rscale>
<asrwt>0</asrwt>
<pdfrwt beam="1">  1        4 0.93492367E-02 0.12500989E+03</pdfrwt>
<pdfrwt beam="2">  1       -4 0.98906737E-02 0.12500989E+03</pdfrwt>
<totfact> 0.10449237E+04</totfact>
</mgrwt>
</event>
<event>
 5    1  0.3273105E-002  0.1250025E+03  0.7818608E-02  0.1235065E+00
         -4   -1    0    0    0  501 -0.00000000000E+00  0.00000000000E+00  0.54429617606E+03  0.54429765769E+03  0.12700000000E+01 0.  1.
          4   -1    0    0  501    0  0.00000000000E+00 -0.00000000000E+00 -0.71193059378E+01  0.72316953085E+01  0.12700000000E+01 0.  1.
         25    2    1    2    0    0  0.00000000000E+00  0.00000000000E+00  0.53717687012E+03  0.55152935300E+03  0.12500254970E+03 0.  0.
    9000005    1    3    3    0    0 -0.10131000272E+02 -0.36052848613E+02  0.47850443333E+02  0.60770963353E+02  0.10000000000E+01 0.  0.
    9000005    1    3    3    0    0  0.10131000272E+02  0.36052848613E+02  0.48932642679E+03  0.49075838965E+03  0.10000000000E+01 0.  0.
<mgrwt>
<rscale>  0 0.12500255E+03</rscale>
<asrwt>0</asrwt>
<pdfrwt beam="2">  1        4 0.11040369E-02 0.12500255E+03</pdfrwt>
<pdfrwt beam="1">  1       -4 0.83746649E-01 0.12500255E+03</pdfrwt>
<totfact> 0.52074576E+03</totfact>
</mgrwt>
</event>
<event>
 5    1  0.3273105E-002  0.1249979E+03  0.7818608E-02  0.1235073E+00
         -4   -1    0    0    0  501 -0.00000000000E+00  0.00000000000E+00  0.34273476570E+02  0.34296998356E+02  0.12700000000E+01 0. -1.
          4   -1    0    0  501    0  0.00000000000E+00 -0.00000000000E+00 -0.11390294874E+03  0.11391002867E+03  0.12700000000E+01 0. -1.
         25    2    1    2    0    0  0.00000000000E+00  0.00000000000E+00 -0.79629472169E+02  0.14820702703E+03  0.12499788007E+03 0.  0.
    9000005    1    3    3    0    0 -0.36097328745E+02  0.50997770680E+02 -0.41180966834E+02  0.74837569351E+02  0.10000000000E+01 0.  0.
    9000005    1    3    3    0    0  0.36097328745E+02 -0.50997770680E+02 -0.38448505335E+02  0.73369457674E+02  0.10000000000E+01 0.  0.
<mgrwt>
<rscale>  0 0.12499788E+03</rscale>
<asrwt>0</asrwt>
<pdfrwt beam="2">  1        4 0.17525884E-01 0.12499788E+03</pdfrwt>
<pdfrwt beam="1">  1       -4 0.52751966E-02 0.12499788E+03</pdfrwt>
<totfact> 0.99667064E+03</totfact>
</mgrwt>
</event>
<event>
 5    1  0.3273105E-002  0.1249999E+03  0.7818608E-02  0.1235069E+00
          4   -1    0    0  501    0  0.00000000000E+00  0.00000000000E+00  0.18043235501E+03  0.18043682449E+03  0.12700000000E+01 0. -1.
         -4   -1    0    0    0  501 -0.00000000000E+00 -0.00000000000E+00 -0.21625979696E+02  0.21663238396E+02  0.12700000000E+01 0. -1.
         25    2    1    2    0    0  0.00000000000E+00  0.00000000000E+00  0.15880637531E+03  0.20210006289E+03  0.12499988232E+03 0.  0.
    9000005    1    3    3    0    0 -0.31709234092E+02  0.34974671283E+02  0.14560406390E+03  0.15306941753E+03  0.10000000000E+01 0.  0.
    9000005    1    3    3    0    0  0.31709234092E+02 -0.34974671283E+02  0.13202311412E+02  0.49030645363E+02  0.10000000000E+01 0.  0.
<mgrwt>
<rscale>  0 0.12499988E+03</rscale>
<asrwt>0</asrwt>
<pdfrwt beam="1">  1        4 0.27762033E-01 0.12499988E+03</pdfrwt>
<pdfrwt beam="2">  1       -4 0.33302837E-02 0.12499988E+03</pdfrwt>
<totfact> 0.89782755E+03</totfact>
</mgrwt>
</event>
<event>
 5    1  0.3273105E-002  0.1249994E+03  0.7818608E-02  0.1235070E+00
          4   -1    0    0  501    0  0.00000000000E+00  0.00000000000E+00  0.67869693935E+02  0.67881575223E+02  0.12700000000E+01 0.  1.
         -4   -1    0    0    0  501 -0.00000000000E+00 -0.00000000000E+00 -0.57530623339E+02  0.57544639384E+02  0.12700000000E+01 0.  1.
         25    2    1    2    0    0  0.00000000000E+00  0.00000000000E+00  0.10339070596E+02  0.12542621461E+03  0.12499935572E+03 0.  0.
    9000005    1    3    3    0    0 -0.54171110758E+02 -0.23295855839E+02  0.25928431051E+02  0.64424294150E+02  0.10000000000E+01 0.  0.
    9000005    1    3    3    0    0  0.54171110758E+02  0.23295855839E+02 -0.15589360455E+02  0.61001920457E+02  0.10000000000E+01 0.  0.
<mgrwt>
<rscale>  0 0.12499936E+03</rscale>
<asrwt>0</asrwt>
<pdfrwt beam="1">  1        4 0.10443483E-01 0.12499936E+03</pdfrwt>
<pdfrwt beam="2">  1       -4 0.88528572E-02 0.12499936E+03</pdfrwt>
<totfact> 0.10443738E+04</totfact>
</mgrwt>
</event>
<event>
 5    1  0.3273105E-002  0.1249977E+03  0.7818608E-02  0.1235073E+00
         -4   -1    0    0    0  501 -0.00000000000E+00  0.00000000000E+00  0.26954730885E+04  0.26954733877E+04  0.12700000000E+01 0. -1.
          4   -1    0    0  501    0  0.00000000000E+00 -0.00000000000E+00 -0.11705267608E+01  0.17271458820E+01  0.12700000000E+01 0. -1.
         25    2    1    2    0    0  0.00000000000E+00  0.00000000000E+00  0.26943025618E+04  0.26972005336E+04  0.12499769634E+03 0.  0.
    9000005    1    3    3    0    0  0.29279914639E+02  0.34135531120E+02  0.41091508778E+03  0.41337000042E+03  0.10000000000E+01 0.  0.
    9000005    1    3    3    0    0 -0.29279914639E+02 -0.34135531120E+02  0.22833874740E+04  0.22838305332E+04  0.10000000000E+01 0.  0.
<mgrwt>
<rscale>  0 0.12499770E+03</rscale>
<asrwt>0</asrwt>
<pdfrwt beam="2">  1        4 0.22292464E-03 0.12499770E+03</pdfrwt>
<pdfrwt beam="1">  1       -4 0.41472407E+00 0.12499770E+03</pdfrwt>
<totfact> 0.32992517E+02</totfact>
</mgrwt>
</event>
<event>
 5    1  0.3273105E-002  0.1250013E+03  0.7818608E-02  0.1235067E+00
         -4   -1    0    0    0  501 -0.00000000000E+00  0.00000000000E+00  0.14763589896E+02  0.14818113464E+02  0.12700000000E+01 0.  1.
          4   -1    0    0  501    0  0.00000000000E+00 -0.00000000000E+00 -0.26404847073E+03  0.26405152489E+03  0.12700000000E+01 0.  1.
         25    2    1    2    0    0  0.00000000000E+00  0.00000000000E+00 -0.24928488084E+03  0.27886963835E+03  0.12500129352E+03 0.  0.
    9000005    1    3    3    0    0  0.60631086427E+02  0.13825342153E+02 -0.11087880360E+03  0.12713134080E+03  0.10000000000E+01 0.  0.
    9000005    1    3    3    0    0 -0.60631086427E+02 -0.13825342153E+02 -0.13840607724E+03  0.15173829755E+03  0.10000000000E+01 0.  0.
<mgrwt>
<rscale>  0 0.12500129E+03</rscale>
<asrwt>0</asrwt>
<pdfrwt beam="2">  1        4 0.40627267E-01 0.12500129E+03</pdfrwt>
<pdfrwt beam="1">  1       -4 0.22757508E-02 0.12500129E+03</pdfrwt>
<totfact> 0.78325971E+03</totfact>
</mgrwt>
</event>
<event>
 5    1  0.3273105E-002  0.1249983E+03  0.7818608E-02  0.1235072E+00
          4   -1    0    0  501    0  0.00000000000E+00  0.00000000000E+00  0.27367526095E+02  0.27396977653E+02  0.12700000000E+01 0.  1.
         -4   -1    0    0    0  501 -0.00000000000E+00 -0.00000000000E+00 -0.14262020220E+03  0.14262585662E+03  0.12700000000E+01 0.  1.
         25    2    1    2    0    0  0.00000000000E+00  0.00000000000E+00 -0.11525267611E+03  0.17002283427E+03  0.12499833928E+03 0.  0.
    9000005    1    3    3    0    0 -0.14579511824E+02  0.46096289947E+02 -0.11148266328E+03  0.12151878178E+03  0.10000000000E+01 0.  0.
    9000005    1    3    3    0    0  0.14579511824E+02 -0.46096289947E+02 -0.37700128274E+01  0.48504052497E+02  0.10000000000E+01 0.  0.
<mgrwt>
<rscale>  0 0.12499834E+03</rscale>
<asrwt>0</asrwt>
<pdfrwt beam="1">  1        4 0.42130892E-02 0.12499834E+03</pdfrwt>
<pdfrwt beam="2">  1       -4 0.21944269E-01 0.12499834E+03</pdfrwt>
<totfact> 0.95447939E+03</totfact>
</mgrwt>
</event>
<event>
 5    1  0.3273105E-002  0.1250289E+03  0.7818608E-02  0.1235024E+00
          4   -1    0    0  501    0  0.00000000000E+00  0.00000000000E+00  0.29761311889E+02  0.29788396824E+02  0.12700000000E+01 0. -1.
         -4   -1    0    0    0  501 -0.00000000000E+00 -0.00000000000E+00 -0.13122343925E+03  0.13122958473E+03  0.12700000000E+01 0. -1.
         25    2    1    2    0    0  0.00000000000E+00  0.00000000000E+00 -0.10146212736E+03  0.16101798155E+03  0.12502890504E+03 0.  0.
    9000005    1    3    3    0    0 -0.30114458407E+02 -0.17702009939E+02 -0.11748591509E+03  0.12257317001E+03  0.10000000000E+01 0.  0.
    9000005    1    3    3    0    0  0.30114458407E+02  0.17702009939E+02  0.16023787736E+02  0.38444811541E+02  0.10000000000E+01 0.  0.
<mgrwt>
<rscale>  0 0.12502891E+03</rscale>
<asrwt>0</asrwt>
<pdfrwt beam="1">  1        4 0.45812196E-02 0.12502891E+03</pdfrwt>
<pdfrwt beam="2">  1       -4 0.20190777E-01 0.12502891E+03</pdfrwt>
<totfact> 0.97083802E+03</totfact>
</mgrwt>
</event>
<event>
 5    1  0.3273105E-002  0.1250044E+03  0.7818608E-02  0.1235062E+00
          4   -1    0    0  501    0  0.00000000000E+00  0.00000000000E+00  0.66662810559E+02  0.66674906911E+02  0.12700000000E+01 0.  1.
         -4   -1    0    0    0  501 -0.00000000000E+00 -0.00000000000E+00 -0.58576989073E+02  0.58590754807E+02  0.12700000000E+01 0.  1.
         25    2    1    2    0    0  0.00000000000E+00  0.00000000000E+00  0.80858214862E+01  0.12526566172E+03  0.12500442191E+03 0.  0.
    9000005    1    3    3    0    0  0.55299266757E+01 -0.54660245654E+02 -0.25805304298E+02  0.60706146921E+02  0.10000000000E+01 0.  0.
    9000005    1    3    3    0    0 -0.55299266757E+01  0.54660245654E+02  0.33891125784E+02  0.64559514798E+02  0.10000000000E+01 0.  0.
<mgrwt>
<rscale>  0 0.12500442E+03</rscale>
<asrwt>0</asrwt>
<pdfrwt beam="1">  1        4 0.10257806E-01 0.12500442E+03</pdfrwt>
<pdfrwt beam="2">  1       -4 0.90138339E-02 0.12500442E+03</pdfrwt>
<totfact> 0.10446051E+04</totfact>
</mgrwt>
</event>
<event>
 5    1  0.3273105E-002  0.1249949E+03  0.7818608E-02  0.1235077E+00
          4   -1    0    0  501    0  0.00000000000E+00  0.00000000000E+00  0.11579882621E+02  0.11649316783E+02  0.12700000000E+01 0.  1.
         -4   -1    0    0    0  501 -0.00000000000E+00 -0.00000000000E+00 -0.33622414923E+03  0.33622654777E+03  0.12700000000E+01 0.  1.
         25    2    1    2    0    0  0.00000000000E+00  0.00000000000E+00 -0.32464426661E+03  0.34787586455E+03  0.12499486908E+03 0.  0.
    9000005    1    3    3    0    0 -0.53771845672E+02  0.54431736245E+01 -0.24962034381E+03  0.25540625593E+03  0.10000000000E+01 0.  0.
    9000005    1    3    3    0    0  0.53771845672E+02 -0.54431736245E+01 -0.75023922799E+02  0.92469608620E+02  0.10000000000E+01 0.  0.
<mgrwt>
<rscale>  0 0.12499487E+03</rscale>
<asrwt>0</asrwt>
<pdfrwt beam="1">  1        4 0.17870462E-02 0.12499487E+03</pdfrwt>
<pdfrwt beam="2">  1       -4 0.51732310E-01 0.12499487E+03</pdfrwt>
<totfact> 0.69966819E+03</totfact>
</mgrwt>
</event>
<event>
 5    1  0.3273105E-002  0.1250006E+03  0.7818608E-02  0.1235068E+00
          4   -1    0    0  501    0  0.00000000000E+00  0.00000000000E+00  0.18497848817E+02  0.18541394523E+02  0.12700000000E+01 0.  1.
         -4   -1    0    0    0  501 -0.00000000000E+00 -0.00000000000E+00 -0.21088155510E+03  0.21088537925E+03  0.12700000000E+01 0.  1.
         25    2    1    2    0    0  0.00000000000E+00  0.00000000000E+00 -0.19238370628E+03  0.22942677377E+03  0.12500061632E+03 0.  0.
    9000005    1    3    3    0    0  0.42636525438E+02  0.38697958519E+02 -0.51614429290E+02  0.77333399032E+02  0.10000000000E+01 0.  0.
    9000005    1    3    3    0    0 -0.42636525438E+02 -0.38697958519E+02 -0.14076927699E+03  0.15209337474E+03  0.10000000000E+01 0.  0.
<mgrwt>
<rscale>  0 0.12500062E+03</rscale>
<asrwt>0</asrwt>
<pdfrwt beam="1">  1        4 0.28494669E-02 0.12500062E+03</pdfrwt>
<pdfrwt beam="2">  1       -4 0.32446958E-01 0.12500062E+03</pdfrwt>
<totfact> 0.85396520E+03</totfact>
</mgrwt>
</event>
<event>
 5    1  0.3273105E-002  0.1249982E+03  0.7818608E-02  0.1235072E+00
          4   -1    0    0  501    0  0.00000000000E+00  0.00000000000E+00  0.18127607183E+03  0.18128052052E+03  0.12700000000E+01 0.  1.
         -4   -1    0    0    0  501 -0.00000000000E+00 -0.00000000000E+00 -0.21524561746E+02  0.21561995695E+02  0.12700000000E+01 0.  1.
         25    2    1    2    0    0  0.00000000000E+00  0.00000000000E+00  0.15975151009E+03  0.20284251621E+03  0.12499816562E+03 0.  0.
    9000005    1    3    3    0    0 -0.52984021989E+02  0.30795523899E+02  0.99714963384E+02  0.11704590895E+03  0.10000000000E+01 0.  0.
    9000005    1    3    3    0    0  0.52984021989E+02 -0.30795523899E+02  0.60036546703E+02  0.85796607266E+02  0.10000000000E+01 0.  0.
<mgrwt>
<rscale>  0 0.12499817E+03</rscale>
<asrwt>0</asrwt>
<pdfrwt beam="1">  1        4 0.27891847E-01 0.12499817E+03</pdfrwt>
<pdfrwt beam="2">  1       -4 0.33146929E-02 0.12499817E+03</pdfrwt>
<totfact> 0.89661978E+03</totfact>
</mgrwt>
</event>
<event>
 5    1  0.3273105E-002  0.1250013E+03  0.7818608E-02  0.1235067E+00
         -4   -1    0    0    0  501 -0.00000000000E+00  0.00000000000E+00  0.23421596992E+02  0.23456003616E+02  0.12700000000E+01 0.  1.
          4   -1    0    0  501    0  0.00000000000E+00 -0.00000000000E+00 -0.16662399062E+03  0.16662883049E+03  0.12700000000E+01 0.  1.
         25    2    1    2    0    0  0.00000000000E+00  0.00000000000E+00 -0.14320239363E+03  0.19008483411E+03  0.12500127446E+03 0.  0.
    9000005    1    3    3    0    0  0.52311635881E+02 -0.34182486761E+02 -0.72538602005E+02  0.95748621038E+02  0.10000000000E+01 0.  0.
    9000005    1    3    3    0    0 -0.52311635881E+02  0.34182486761E+02 -0.70663791627E+02  0.94336213073E+02  0.10000000000E+01 0.  0.
<mgrwt>
<rscale>  0 0.12500127E+03</rscale>
<asrwt>0</asrwt>
<pdfrwt beam="2">  1        4 0.25637478E-01 0.12500127E+03</pdfrwt>
<pdfrwt beam="1">  1       -4 0.36063417E-02 0.12500127E+03</pdfrwt>
<totfact> 0.91829935E+03</totfact>
</mgrwt>
</event>
<event>
 5    1  0.3273105E-002  0.1249972E+03  0.7818608E-02  0.1235074E+00
         -4   -1    0    0    0  501 -0.00000000000E+00  0.00000000000E+00  0.25003326292E+02  0.25035559224E+02  0.12700000000E+01 0.  1.
          4   -1    0    0  501    0  0.00000000000E+00 -0.00000000000E+00 -0.15608686778E+03  0.15609203437E+03  0.12700000000E+01 0.  1.
         25    2    1    2    0    0  0.00000000000E+00  0.00000000000E+00 -0.13108354149E+03  0.18112759359E+03  0.12499724122E+03 0.  0.
    9000005    1    3    3    0    0 -0.53982245504E+02  0.29059908409E+02 -0.48001858548E+02  0.77870016890E+02  0.10000000000E+01 0.  0.
    9000005    1    3    3    0    0  0.53982245504E+02 -0.29059908409E+02 -0.83081682938E+02  0.10325757670E+03  0.10000000000E+01 0.  0.
<mgrwt>
<rscale>  0 0.12499724E+03</rscale>
<asrwt>0</asrwt>
<pdfrwt beam="2">  1        4 0.24016240E-01 0.12499724E+03</pdfrwt>
<pdfrwt beam="1">  1       -4 0.38495426E-02 0.12499724E+03</pdfrwt>
<totfact> 0.93420204E+03</totfact>
</mgrwt>
</event>
<event>
 5    1  0.3273105E-002  0.1249988E+03  0.7818608E-02  0.1235071E+00
          4   -1    0    0  501    0  0.00000000000E+00  0.00000000000E+00  0.44606870519E+03  0.44607051310E+03  0.12700000000E+01 0.  1.
         -4   -1    0    0    0  501 -0.00000000000E+00 -0.00000000000E+00 -0.87090058114E+01  0.88011182371E+01  0.12700000000E+01 0.  1.
         25    2    1    2    0    0  0.00000000000E+00  0.00000000000E+00  0.43735969938E+03  0.45487163133E+03  0.12499877738E+03 0.  0.
    9000005    1    3    3    0    0  0.50328304121E+02  0.29740209223E+01  0.35304703920E+03  0.35663005326E+03  0.10000000000E+01 0.  0.
    9000005    1    3    3    0    0 -0.50328304121E+02 -0.29740209223E+01  0.84312660178E+02  0.98241578074E+02  0.10000000000E+01 0.  0.
<mgrwt>
<rscale>  0 0.12499878E+03</rscale>
<asrwt>0</asrwt>
<pdfrwt beam="1">  1        4 0.68633183E-01 0.12499878E+03</pdfrwt>
<pdfrwt beam="2">  1       -4 0.13470716E-02 0.12499878E+03</pdfrwt>
<totfact> 0.59545677E+03</totfact>
</mgrwt>
</event>
<event>
 5    1  0.3273105E-002  0.1249921E+03  0.7818608E-02  0.1235082E+00
          4   -1    0    0  501    0  0.00000000000E+00  0.00000000000E+00  0.11171869192E+03  0.11172591026E+03  0.12700000000E+01 0. -1.
         -4   -1    0    0    0  501 -0.00000000000E+00 -0.00000000000E+00 -0.34940755565E+02  0.34963828444E+02  0.12700000000E+01 0. -1.
         25    2    1    2    0    0  0.00000000000E+00  0.00000000000E+00  0.76777936353E+02  0.14668973871E+03  0.12499211148E+03 0.  0.
    9000005    1    3    3    0    0  0.53494536081E+02  0.11293709746E+02  0.73899458793E+02  0.91931187745E+02  0.10000000000E+01 0.  0.
    9000005    1    3    3    0    0 -0.53494536081E+02 -0.11293709746E+02  0.28784775607E+01  0.54758550962E+02  0.10000000000E+01 0.  0.
<mgrwt>
<rscale>  0 0.12499211E+03</rscale>
<asrwt>0</asrwt>
<pdfrwt beam="1">  1        4 0.17189821E-01 0.12499211E+03</pdfrwt>
<pdfrwt beam="2">  1       -4 0.53778309E-02 0.12499211E+03</pdfrwt>
<totfact> 0.99985446E+03</totfact>
</mgrwt>
</event>
<event>
 5    1  0.3273105E-002  0.1250021E+03  0.7818608E-02  0.1235066E+00
         -4   -1    0    0    0  501 -0.00000000000E+00  0.00000000000E+00  0.38526740692E+02  0.38547667224E+02  0.12700000000E+01 0.  1.
          4   -1    0    0  501    0  0.00000000000E+00 -0.00000000000E+00 -0.10134152801E+03  0.10134948544E+03  0.12700000000E+01 0.  1.
         25    2    1    2    0    0  0.00000000000E+00  0.00000000000E+00 -0.62814787319E+02  0.13989715267E+03  0.12500206326E+03 0.  0.
    9000005    1    3    3    0    0  0.31922394396E+02 -0.42700637949E+02 -0.67896006007E+02  0.86332215175E+02  0.10000000000E+01 0.  0.
    9000005    1    3    3    0    0 -0.31922394396E+02  0.42700637949E+02  0.50812186884E+01  0.53564937493E+02  0.10000000000E+01 0.  0.
<mgrwt>
<rscale>  0 0.12500206E+03</rscale>
<asrwt>0</asrwt>
<pdfrwt beam="2">  1        4 0.15593226E-01 0.12500206E+03</pdfrwt>
<pdfrwt beam="1">  1       -4 0.59294128E-02 0.12500206E+03</pdfrwt>
<totfact> 0.10135247E+04</totfact>
</mgrwt>
</event>
<event>
 5    1  0.3273105E-002  0.1250087E+03  0.7818608E-02  0.1235056E+00
         -4   -1    0    0    0  501 -0.00000000000E+00  0.00000000000E+00  0.15512200727E+04  0.15512205926E+04  0.12700000000E+01 0. -1.
          4   -1    0    0  501    0  0.00000000000E+00 -0.00000000000E+00 -0.23578715361E+01  0.26781445407E+01  0.12700000000E+01 0. -1.
         25    2    1    2    0    0  0.00000000000E+00  0.00000000000E+00  0.15488622012E+04  0.15538987371E+04  0.12500866783E+03 0.  0.
    9000005    1    3    3    0    0 -0.45256187502E+02  0.21104469665E+02  0.30729702607E+03  0.31132938085E+03  0.10000000000E+01 0.  0.
    9000005    1    3    3    0    0  0.45256187502E+02 -0.21104469665E+02  0.12415651751E+04  0.12425693563E+04  0.10000000000E+01 0.  0.
<mgrwt>
<rscale>  0 0.12500867E+03</rscale>
<asrwt>0</asrwt>
<pdfrwt beam="2">  1        4 0.38742626E-03 0.12500867E+03</pdfrwt>
<pdfrwt beam="1">  1       -4 0.23867366E+00 0.12500867E+03</pdfrwt>
<totfact> 0.16891752E+03</totfact>
</mgrwt>
</event>
<event>
 5    1  0.3273105E-002  0.1249994E+03  0.7818608E-02  0.1235070E+00
          4   -1    0    0  501    0  0.00000000000E+00  0.00000000000E+00  0.15132250260E+03  0.15132783185E+03  0.12700000000E+01 0. -1.
         -4   -1    0    0    0  501 -0.00000000000E+00 -0.00000000000E+00 -0.25792399096E+02  0.25823647130E+02  0.12700000000E+01 0. -1.
         25    2    1    2    0    0  0.00000000000E+00  0.00000000000E+00  0.12553010350E+03  0.17715147898E+03  0.12499935848E+03 0.  0.
    9000005    1    3    3    0    0  0.12609171519E+02  0.75814383638E+01 -0.23309753710E+02  0.27582857576E+02  0.10000000000E+01 0.  0.
    9000005    1    3    3    0    0 -0.12609171519E+02 -0.75814383638E+01  0.14883985721E+03  0.14956862140E+03  0.10000000000E+01 0.  0.
<mgrwt>
<rscale>  0 0.12499936E+03</rscale>
<asrwt>0</asrwt>
<pdfrwt beam="1">  1        4 0.23283199E-01 0.12499936E+03</pdfrwt>
<pdfrwt beam="2">  1       -4 0.39708750E-02 0.12499936E+03</pdfrwt>
<totfact> 0.94133628E+03</totfact>
</mgrwt>
</event>
<event>
 5    1  0.3273105E-002  0.1250018E+03  0.7818608E-02  0.1235066E+00
         -4   -1    0    0    0  501 -0.00000000000E+00  0.00000000000E+00  0.21672204080E+03  0.21672576189E+03  0.12700000000E+01 0. -1.
          4   -1    0    0  501    0  0.00000000000E+00 -0.00000000000E+00 -0.17998505036E+02  0.18043255902E+02  0.12700000000E+01 0. -1.
         25    2    1    2    0    0  0.00000000000E+00  0.00000000000E+00  0.19872353576E+03  0.23476901779E+03  0.12500179219E+03 0.  0.
    9000005    1    3    3    0    0 -0.54417185521E+02  0.12901579395E+02  0.15173692494E+03  0.16171819694E+03  0.10000000000E+01 0.  0.
    9000005    1    3    3    0    0  0.54417185521E+02 -0.12901579395E+02  0.46986610819E+02  0.73050820852E+02  0.10000000000E+01 0.  0.
<mgrwt>
<rscale>  0 0.12500179E+03</rscale>
<asrwt>0</asrwt>
<pdfrwt beam="2">  1        4 0.27727293E-02 0.12500179E+03</pdfrwt>
<pdfrwt beam="1">  1       -4 0.33345582E-01 0.12500179E+03</pdfrwt>
<totfact> 0.84579267E+03</totfact>
</mgrwt>
</event>
<event>
 5    1  0.3273105E-002  0.1250191E+03  0.7818608E-02  0.1235039E+00
          4   -1    0    0  501    0  0.00000000000E+00  0.00000000000E+00  0.34273071485E+02  0.34296593548E+02  0.12700000000E+01 0.  1.
         -4   -1    0    0    0  501 -0.00000000000E+00 -0.00000000000E+00 -0.11394300100E+03  0.11395007845E+03  0.12700000000E+01 0.  1.
         25    2    1    2    0    0  0.00000000000E+00  0.00000000000E+00 -0.79669929519E+02  0.14824667199E+03  0.12501911089E+03 0.  0.
    9000005    1    3    3    0    0  0.55320246585E+01  0.39796212385E+02 -0.96605839172E+02  0.10463283413E+03  0.10000000000E+01 0.  0.
    9000005    1    3    3    0    0 -0.55320246585E+01 -0.39796212385E+02  0.16935909653E+02  0.43613837859E+02  0.10000000000E+01 0.  0.
<mgrwt>
<rscale>  0 0.12501911E+03</rscale>
<asrwt>0</asrwt>
<pdfrwt beam="1">  1        4 0.52751341E-02 0.12501911E+03</pdfrwt>
<pdfrwt beam="2">  1       -4 0.17532046E-01 0.12501911E+03</pdfrwt>
<totfact> 0.99611494E+03</totfact>
</mgrwt>
</event>
<event>
 5    1  0.3273105E-002  0.1250128E+03  0.7818608E-02  0.1235049E+00
         -4   -1    0    0    0  501 -0.00000000000E+00  0.00000000000E+00  0.20796202190E+02  0.20834944817E+02  0.12700000000E+01 0.  1.
          4   -1    0    0  501    0  0.00000000000E+00 -0.00000000000E+00 -0.18765736691E+03  0.18766166432E+03  0.12700000000E+01 0.  1.
         25    2    1    2    0    0  0.00000000000E+00  0.00000000000E+00 -0.16686116472E+03  0.20849660913E+03  0.12501275027E+03 0.  0.
    9000005    1    3    3    0    0 -0.38194914262E+02  0.30830030789E+02 -0.14795331345E+03  0.15588625736E+03  0.10000000000E+01 0.  0.
    9000005    1    3    3    0    0  0.38194914262E+02 -0.30830030789E+02 -0.18907851268E+02  0.52610351771E+02  0.10000000000E+01 0.  0.
<mgrwt>
<rscale>  0 0.12501275E+03</rscale>
<asrwt>0</asrwt>
<pdfrwt beam="2">  1        4 0.28873674E-01 0.12501275E+03</pdfrwt>
<pdfrwt beam="1">  1       -4 0.32027266E-02 0.12501275E+03</pdfrwt>
<totfact> 0.88696706E+03</totfact>
</mgrwt>
</event>
<event>
 5    1  0.3273105E-002  0.1249898E+03  0.7818608E-02  0.1235085E+00
         -4   -1    0    0    0  501 -0.00000000000E+00  0.00000000000E+00  0.86451849491E+02  0.86461177301E+02  0.12700000000E+01 0. -1.
          4   -1    0    0  501    0  0.00000000000E+00 -0.00000000000E+00 -0.45156059909E+02  0.45173915554E+02  0.12700000000E+01 0. -1.
         25    2    1    2    0    0  0.00000000000E+00  0.00000000000E+00  0.41295789582E+02  0.13163509286E+03  0.12498982132E+03 0.  0.
    9000005    1    3    3    0    0 -0.32890851638E+02 -0.10800572554E+01 -0.35295366172E+02  0.48267354582E+02  0.10000000000E+01 0.  0.
    9000005    1    3    3    0    0  0.32890851638E+02  0.10800572554E+01  0.76591155753E+02  0.83367738273E+02  0.10000000000E+01 0.  0.
<mgrwt>
<rscale>  0 0.12498982E+03</rscale>
<asrwt>0</asrwt>
<pdfrwt beam="2">  1        4 0.69491772E-02 0.12498982E+03</pdfrwt>
<pdfrwt beam="1">  1       -4 0.13302375E-01 0.12498982E+03</pdfrwt>
<totfact> 0.10311861E+04</totfact>
</mgrwt>
</event>
<event>
 5    1  0.3273105E-002  0.1249905E+03  0.7818608E-02  0.1235084E+00
         -4   -1    0    0    0  501 -0.00000000000E+00  0.00000000000E+00  0.18281844376E+02  0.18325903356E+02  0.12700000000E+01 0.  1.
          4   -1    0    0  501    0  0.00000000000E+00 -0.00000000000E+00 -0.21333256642E+03  0.21333634663E+03  0.12700000000E+01 0.  1.
         25    2    1    2    0    0  0.00000000000E+00  0.00000000000E+00 -0.19505072204E+03  0.23166224999E+03  0.12499045524E+03 0.  0.
    9000005    1    3    3    0    0  0.51672051956E+02  0.35126034603E+02 -0.99197790955E+02  0.11723924680E+03  0.10000000000E+01 0.  0.
    9000005    1    3    3    0    0 -0.51672051956E+02 -0.35126034603E+02 -0.95852931084E+02  0.11442300318E+03  0.10000000000E+01 0.  0.
<mgrwt>
<rscale>  0 0.12499046E+03</rscale>
<asrwt>0</asrwt>
<pdfrwt beam="2">  1        4 0.32824073E-01 0.12499046E+03</pdfrwt>
<pdfrwt beam="1">  1       -4 0.28162715E-02 0.12499046E+03</pdfrwt>
<totfact> 0.85073123E+03</totfact>
</mgrwt>
</event>
<event>
 5    1  0.3273105E-002  0.1249957E+03  0.7818608E-02  0.1235076E+00
         -4   -1    0    0    0  501 -0.00000000000E+00  0.00000000000E+00  0.29112641232E+02  0.29140329091E+02  0.12700000000E+01 0.  1.
          4   -1    0    0  501    0  0.00000000000E+00 -0.00000000000E+00 -0.13407343521E+03  0.13407945006E+03  0.12700000000E+01 0.  1.
         25    2    1    2    0    0  0.00000000000E+00  0.00000000000E+00 -0.10496079398E+03  0.16321977915E+03  0.12499571206E+03 0.  0.
    9000005    1    3    3    0    0 -0.37697143673E+02  0.71024712493E+01  0.11935043277E+02  0.40186627091E+02  0.10000000000E+01 0.  0.
    9000005    1    3    3    0    0  0.37697143673E+02 -0.71024712493E+01 -0.11689583725E+03  0.12303315206E+03  0.10000000000E+01 0.  0.
<mgrwt>
<rscale>  0 0.12499571E+03</rscale>
<asrwt>0</asrwt>
<pdfrwt beam="2">  1        4 0.20629275E-01 0.12499571E+03</pdfrwt>
<pdfrwt beam="1">  1       -4 0.44814605E-02 0.12499571E+03</pdfrwt>
<totfact> 0.96734924E+03</totfact>
</mgrwt>
</event>
<event>
 5    1  0.3273105E-002  0.1249993E+03  0.7818608E-02  0.1235070E+00
          4   -1    0    0  501    0  0.00000000000E+00  0.00000000000E+00  0.38915700231E+02  0.38936417715E+02  0.12700000000E+01 0.  1.
         -4   -1    0    0    0  501 -0.00000000000E+00 -0.00000000000E+00 -0.10032461584E+03  0.10033265392E+03  0.12700000000E+01 0.  1.
         25    2    1    2    0    0  0.00000000000E+00  0.00000000000E+00 -0.61408915605E+02  0.13926907164E+03  0.12499927759E+03 0.  0.
    9000005    1    3    3    0    0 -0.31424663723E+02  0.51523654713E+02 -0.12635547674E+02  0.61667281034E+02  0.10000000000E+01 0.  0.
    9000005    1    3    3    0    0  0.31424663723E+02 -0.51523654713E+02 -0.48773367932E+02  0.77601790601E+02  0.10000000000E+01 0.  0.
<mgrwt>
<rscale>  0 0.12499928E+03</rscale>
<asrwt>0</asrwt>
<pdfrwt beam="1">  1        4 0.59892428E-02 0.12499928E+03</pdfrwt>
<pdfrwt beam="2">  1       -4 0.15436768E-01 0.12499928E+03</pdfrwt>
<totfact> 0.10148922E+04</totfact>
</mgrwt>
</event>
<event>
 5    1  0.3273105E-002  0.1249976E+03  0.7818608E-02  0.1235073E+00
          4   -1    0    0  501    0  0.00000000000E+00  0.00000000000E+00  0.78576880405E+02  0.78587142932E+02  0.12700000000E+01 0. -1.
         -4   -1    0    0    0  501 -0.00000000000E+00 -0.00000000000E+00 -0.49688920367E+02  0.49705147693E+02  0.12700000000E+01 0. -1.
         25    2    1    2    0    0  0.00000000000E+00  0.00000000000E+00  0.28887960039E+02  0.12829229063E+03  0.12499759037E+03 0.  0.
    9000005    1    3    3    0    0 -0.14368293383E+02 -0.53315589198E+02 -0.15586414550E+02  0.57384111257E+02  0.10000000000E+01 0.  0.
    9000005    1    3    3    0    0  0.14368293383E+02  0.53315589198E+02  0.44474374589E+02  0.70908179368E+02  0.10000000000E+01 0.  0.
<mgrwt>
<rscale>  0 0.12499759E+03</rscale>
<asrwt>0</asrwt>
<pdfrwt beam="1">  1        4 0.12090788E-01 0.12499759E+03</pdfrwt>
<pdfrwt beam="2">  1       -4 0.76464870E-02 0.12499759E+03</pdfrwt>
<totfact> 0.10381745E+04</totfact>
</mgrwt>
</event>
<event>
 5    1  0.3273105E-002  0.1250022E+03  0.7818608E-02  0.1235066E+00
          4   -1    0    0  501    0  0.00000000000E+00  0.00000000000E+00  0.12304366549E+03  0.12305021949E+03  0.12700000000E+01 0. -1.
         -4   -1    0    0    0  501 -0.00000000000E+00 -0.00000000000E+00 -0.31727861213E+02  0.31753268763E+02  0.12700000000E+01 0. -1.
         25    2    1    2    0    0  0.00000000000E+00  0.00000000000E+00  0.91315804279E+02  0.15480348826E+03  0.12500217544E+03 0.  0.
    9000005    1    3    3    0    0  0.19717032210E+02 -0.48881540628E+02  0.87236269864E+02  0.10192807834E+03  0.10000000000E+01 0.  0.
    9000005    1    3    3    0    0 -0.19717032210E+02  0.48881540628E+02  0.40795344151E+01  0.52875409922E+02  0.10000000000E+01 0.  0.
<mgrwt>
<rscale>  0 0.12500218E+03</rscale>
<asrwt>0</asrwt>
<pdfrwt beam="1">  1        4 0.18932253E-01 0.12500218E+03</pdfrwt>
<pdfrwt beam="2">  1       -4 0.48836680E-02 0.12500218E+03</pdfrwt>
<totfact> 0.98349278E+03</totfact>
</mgrwt>
</event>
<event>
 5    1  0.3273105E-002  0.1249966E+03  0.7818608E-02  0.1235075E+00
          4   -1    0    0  501    0  0.00000000000E+00  0.00000000000E+00  0.44351235915E+02  0.44369415448E+02  0.12700000000E+01 0. -1.
         -4   -1    0    0    0  501 -0.00000000000E+00 -0.00000000000E+00 -0.88029803663E+02  0.88038964288E+02  0.12700000000E+01 0. -1.
         25    2    1    2    0    0  0.00000000000E+00  0.00000000000E+00 -0.43678567748E+02  0.13240837974E+03  0.12499664693E+03 0.  0.
    9000005    1    3    3    0    0  0.14928488647E+02  0.74834942168E+01  0.41949109835E+02  0.45161823201E+02  0.10000000000E+01 0.  0.
    9000005    1    3    3    0    0 -0.14928488647E+02 -0.74834942168E+01 -0.85627677582E+02  0.87246556535E+02  0.10000000000E+01 0.  0.
<mgrwt>
<rscale>  0 0.12499665E+03</rscale>
<asrwt>0</asrwt>
<pdfrwt beam="1">  1        4 0.68253702E-02 0.12499665E+03</pdfrwt>
<pdfrwt beam="2">  1       -4 0.13545150E-01 0.12499665E+03</pdfrwt>
<totfact> 0.10293768E+04</totfact>
</mgrwt>
</event>
<event>
 5    1  0.3273105E-002  0.1250055E+03  0.7818608E-02  0.1235061E+00
         -4   -1    0    0    0  501 -0.00000000000E+00  0.00000000000E+00  0.23852940648E+03  0.23853278738E+03  0.12700000000E+01 0. -1.
          4   -1    0    0  501    0  0.00000000000E+00 -0.00000000000E+00 -0.16349707216E+02  0.16398958078E+02  0.12700000000E+01 0. -1.
         25    2    1    2    0    0  0.00000000000E+00  0.00000000000E+00  0.22217969927E+03  0.25493174546E+03  0.12500550419E+03 0.  0.
    9000005    1    3    3    0    0  0.37981095719E+02  0.48256236591E+02  0.13472941601E+03  0.14806837455E+03  0.10000000000E+01 0.  0.
    9000005    1    3    3    0    0 -0.37981095719E+02 -0.48256236591E+02  0.87450283257E+02  0.10686337092E+03  0.10000000000E+01 0.  0.
<mgrwt>
<rscale>  0 0.12500550E+03</rscale>
<asrwt>0</asrwt>
<pdfrwt beam="2">  1        4 0.25193886E-02 0.12500550E+03</pdfrwt>
<pdfrwt beam="1">  1       -4 0.36700875E-01 0.12500550E+03</pdfrwt>
<totfact> 0.81612622E+03</totfact>
</mgrwt>
</event>
<event>
 5    1  0.3273105E-002  0.1250024E+03  0.7818608E-02  0.1235065E+00
         -4   -1    0    0    0  501 -0.00000000000E+00  0.00000000000E+00  0.50651727269E+02  0.50667646239E+02  0.12700000000E+01 0. -1.
          4   -1    0    0  501    0  0.00000000000E+00 -0.00000000000E+00 -0.77089508968E+02  0.77099969474E+02  0.12700000000E+01 0. -1.
         25    2    1    2    0    0  0.00000000000E+00  0.00000000000E+00 -0.26437781699E+02  0.12776761571E+03  0.12500242927E+03 0.  0.
    9000005    1    3    3    0    0  0.29054949491E+02 -0.50025150404E+02  0.10940731693E+02  0.58884678592E+02  0.10000000000E+01 0.  0.
    9000005    1    3    3    0    0 -0.29054949491E+02  0.50025150404E+02 -0.37378513392E+02  0.68882937121E+02  0.10000000000E+01 0.  0.
<mgrwt>
<rscale>  0 0.12500243E+03</rscale>
<asrwt>0</asrwt>
<pdfrwt beam="2">  1        4 0.11861954E-01 0.12500243E+03</pdfrwt>
<pdfrwt beam="1">  1       -4 0.77946026E-02 0.12500243E+03</pdfrwt>
<totfact> 0.10391939E+04</totfact>
</mgrwt>
</event>
<event>
 5    1  0.3273105E-002  0.1249766E+03  0.7818608E-02  0.1235106E+00
         -4   -1    0    0    0  501 -0.00000000000E+00  0.00000000000E+00  0.38142654602E+02  0.38163791741E+02  0.12700000000E+01 0. -1.
          4   -1    0    0  501    0  0.00000000000E+00 -0.00000000000E+00 -0.10231980958E+03  0.10232769094E+03  0.12700000000E+01 0. -1.
         25    2    1    2    0    0  0.00000000000E+00  0.00000000000E+00 -0.64177154981E+02  0.14049148268E+03  0.12497659575E+03 0.  0.
    9000005    1    3    3    0    0 -0.45699042416E+02 -0.42504011779E+02 -0.28754992932E+02  0.68722944593E+02  0.10000000000E+01 0.  0.
    9000005    1    3    3    0    0  0.45699042416E+02  0.42504011779E+02 -0.35422162050E+02  0.71768538088E+02  0.10000000000E+01 0.  0.
<mgrwt>
<rscale>  0 0.12497660E+03</rscale>
<asrwt>0</asrwt>
<pdfrwt beam="2">  1        4 0.15743741E-01 0.12497660E+03</pdfrwt>
<pdfrwt beam="1">  1       -4 0.58703329E-02 0.12497660E+03</pdfrwt>
<totfact> 0.10128749E+04</totfact>
</mgrwt>
</event>
<event>
 5    1  0.3273105E-002  0.1250015E+03  0.7818608E-02  0.1235067E+00
          4   -1    0    0  501    0  0.00000000000E+00  0.00000000000E+00  0.13723397083E+03  0.13723984717E+03  0.12700000000E+01 0. -1.
         -4   -1    0    0    0  501 -0.00000000000E+00 -0.00000000000E+00 -0.28444179608E+02  0.28472517514E+02  0.12700000000E+01 0. -1.
         25    2    1    2    0    0  0.00000000000E+00  0.00000000000E+00  0.10878979122E+03  0.16571236468E+03  0.12500147652E+03 0.  0.
    9000005    1    3    3    0    0  0.41895430874E+02  0.23273546688E+02  0.10756218551E+03  0.11776038746E+03  0.10000000000E+01 0.  0.
    9000005    1    3    3    0    0 -0.41895430874E+02 -0.23273546688E+02  0.12276057172E+01  0.47951977221E+02  0.10000000000E+01 0.  0.
<mgrwt>
<rscale>  0 0.12500148E+03</rscale>
<asrwt>0</asrwt>
<pdfrwt beam="1">  1        4 0.21115550E-01 0.12500148E+03</pdfrwt>
<pdfrwt beam="2">  1       -4 0.43786595E-02 0.12500148E+03</pdfrwt>
<totfact> 0.96249459E+03</totfact>
</mgrwt>
</event>
<event>
 5    1  0.3273105E-002  0.1250002E+03  0.7818608E-02  0.1235069E+00
          4   -1    0    0  501    0  0.00000000000E+00  0.00000000000E+00  0.17716060875E+03  0.17716516078E+03  0.12700000000E+01 0.  1.
         -4   -1    0    0    0  501 -0.00000000000E+00 -0.00000000000E+00 -0.22026158235E+02  0.22062741140E+02  0.12700000000E+01 0.  1.
         25    2    1    2    0    0  0.00000000000E+00  0.00000000000E+00  0.15513445052E+03  0.19922790192E+03  0.12500023666E+03 0.  0.
    9000005    1    3    3    0    0 -0.23120908414E+02 -0.41025835534E+02  0.12093037136E+02  0.48630619308E+02  0.10000000000E+01 0.  0.
    9000005    1    3    3    0    0  0.23120908414E+02  0.41025835534E+02  0.14304141338E+03  0.15059728261E+03  0.10000000000E+01 0.  0.
<mgrwt>
<rscale>  0 0.12500024E+03</rscale>
<asrwt>0</asrwt>
<pdfrwt beam="1">  1        4 0.27258642E-01 0.12500024E+03</pdfrwt>
<pdfrwt beam="2">  1       -4 0.33918040E-02 0.12500024E+03</pdfrwt>
<totfact> 0.90265412E+03</totfact>
</mgrwt>
</event>
<event>
 5    1  0.3273105E-002  0.1249996E+03  0.7818608E-02  0.1235070E+00
          4   -1    0    0  501    0  0.00000000000E+00  0.00000000000E+00  0.93960854270E+02  0.93969436708E+02  0.12700000000E+01 0.  1.
         -4   -1    0    0    0  501 -0.00000000000E+00 -0.00000000000E+00 -0.41552688821E+02  0.41572092180E+02  0.12700000000E+01 0.  1.
         25    2    1    2    0    0  0.00000000000E+00  0.00000000000E+00  0.52408165449E+02  0.13554152889E+03  0.12499956099E+03 0.  0.
    9000005    1    3    3    0    0 -0.11249389810E+02 -0.32364131912E+02  0.82872824052E+02  0.89682165294E+02  0.10000000000E+01 0.  0.
    9000005    1    3    3    0    0  0.11249389810E+02  0.32364131912E+02 -0.30464658602E+02  0.45859363594E+02  0.10000000000E+01 0.  0.
<mgrwt>
<rscale>  0 0.12499956E+03</rscale>
<asrwt>0</asrwt>
<pdfrwt beam="1">  1        4 0.14457669E-01 0.12499956E+03</pdfrwt>
<pdfrwt beam="2">  1       -4 0.63948742E-02 0.12499956E+03</pdfrwt>
<totfact> 0.10226771E+04</totfact>
</mgrwt>
</event>
<event>
 5    1  0.3273105E-002  0.1250165E+03  0.7818608E-02  0.1235043E+00
         -4   -1    0    0    0  501 -0.00000000000E+00  0.00000000000E+00  0.89851196614E+02  0.89860171561E+02  0.12700000000E+01 0.  1.
          4   -1    0    0  501    0  0.00000000000E+00 -0.00000000000E+00 -0.43465722214E+02  0.43484271957E+02  0.12700000000E+01 0.  1.
         25    2    1    2    0    0  0.00000000000E+00  0.00000000000E+00  0.46385474400E+02  0.13334444352E+03  0.12501651244E+03 0.  0.
    9000005    1    3    3    0    0 -0.47448782832E+02 -0.33259950575E+02  0.48176823097E+02  0.75363237644E+02  0.10000000000E+01 0.  0.
    9000005    1    3    3    0    0  0.47448782832E+02  0.33259950575E+02 -0.17913486966E+01  0.57981205874E+02  0.10000000000E+01 0.  0.
<mgrwt>
<rscale>  0 0.12501651E+03</rscale>
<asrwt>0</asrwt>
<pdfrwt beam="2">  1        4 0.66891516E-02 0.12501651E+03</pdfrwt>
<pdfrwt beam="1">  1       -4 0.13825378E-01 0.12501651E+03</pdfrwt>
<totfact> 0.10269259E+04</totfact>
</mgrwt>
</event>
<event>
 5    1  0.3273105E-002  0.1250056E+03  0.7818608E-02  0.1235060E+00
         -4   -1    0    0    0  501 -0.00000000000E+00  0.00000000000E+00  0.83579127120E+02  0.83588775503E+02  0.12700000000E+01 0.  1.
          4   -1    0    0  501    0  0.00000000000E+00 -0.00000000000E+00 -0.46720384912E+02  0.46737642927E+02  0.12700000000E+01 0.  1.
         25    2    1    2    0    0  0.00000000000E+00  0.00000000000E+00  0.36858742208E+02  0.13032641843E+03  0.12500563373E+03 0.  0.
    9000005    1    3    3    0    0  0.51897678330E+02  0.34598779257E+02  0.14370383560E+02  0.64015251822E+02  0.10000000000E+01 0.  0.
    9000005    1    3    3    0    0 -0.51897678330E+02 -0.34598779257E+02  0.22488358647E+02  0.66311166608E+02  0.10000000000E+01 0.  0.
<mgrwt>
<rscale>  0 0.12500563E+03</rscale>
<asrwt>0</asrwt>
<pdfrwt beam="2">  1        4 0.71898213E-02 0.12500563E+03</pdfrwt>
<pdfrwt beam="1">  1       -4 0.12860397E-01 0.12500563E+03</pdfrwt>
<totfact> 0.10336215E+04</totfact>
</mgrwt>
</event>
<event>
 5    1  0.3273105E-002  0.1250007E+03  0.7818608E-02  0.1235068E+00
          4   -1    0    0  501    0  0.00000000000E+00  0.00000000000E+00  0.26126061313E+02  0.26156910745E+02  0.12700000000E+01 0.  1.
         -4   -1    0    0    0  501 -0.00000000000E+00 -0.00000000000E+00 -0.14939533150E+03  0.14940072950E+03  0.12700000000E+01 0.  1.
         25    2    1    2    0    0  0.00000000000E+00  0.00000000000E+00 -0.12326927019E+03  0.17555764024E+03  0.12500068830E+03 0.  0.
    9000005    1    3    3    0    0 -0.53595489704E+02 -0.28477736385E+02 -0.40716527331E+02  0.73090995233E+02  0.10000000000E+01 0.  0.
    9000005    1    3    3    0    0  0.53595489704E+02  0.28477736385E+02 -0.82552742858E+02  0.10246664501E+03  0.10000000000E+01 0.  0.
<mgrwt>
<rscale>  0 0.12500069E+03</rscale>
<asrwt>0</asrwt>
<pdfrwt beam="1">  1        4 0.40221824E-02 0.12500069E+03</pdfrwt>
<pdfrwt beam="2">  1       -4 0.22986685E-01 0.12500069E+03</pdfrwt>
<totfact> 0.94421351E+03</totfact>
</mgrwt>
</event>
<event>
 5    1  0.3273105E-002  0.1250035E+03  0.7818608E-02  0.1235064E+00
         -4   -1    0    0    0  501 -0.00000000000E+00  0.00000000000E+00  0.11500070175E+03  0.11500771410E+03  0.12700000000E+01 0.  1.
          4   -1    0    0  501    0  0.00000000000E+00 -0.00000000000E+00 -0.33949148278E+02  0.33972894619E+02  0.12700000000E+01 0.  1.
         25    2    1    2    0    0  0.00000000000E+00  0.00000000000E+00  0.81051553474E+02  0.14898060872E+03  0.12500346977E+03 0.  0.
    9000005    1    3    3    0    0  0.44126945607E+02 -0.42972732060E+02  0.53117528262E+02  0.81340732956E+02  0.10000000000E+01 0.  0.
    9000005    1    3    3    0    0 -0.44126945607E+02  0.42972732060E+02  0.27934025212E+02  0.67639875767E+02  0.10000000000E+01 0.  0.
<mgrwt>
<rscale>  0 0.12500347E+03</rscale>
<asrwt>0</asrwt>
<pdfrwt beam="2">  1        4 0.52253119E-02 0.12500347E+03</pdfrwt>
<pdfrwt beam="1">  1       -4 0.17694782E-01 0.12500347E+03</pdfrwt>
<totfact> 0.99499516E+03</totfact>
</mgrwt>
</event>
<event>
 5    1  0.3273105E-002  0.1249987E+03  0.7818608E-02  0.1235071E+00
         -4   -1    0    0    0  501 -0.00000000000E+00  0.00000000000E+00  0.42200573675E+02  0.42219679280E+02  0.12700000000E+01 0. -1.
          4   -1    0    0  501    0  0.00000000000E+00 -0.00000000000E+00 -0.92517503957E+02  0.92526220275E+02  0.12700000000E+01 0. -1.
         25    2    1    2    0    0  0.00000000000E+00  0.00000000000E+00 -0.50316930282E+02  0.13474589956E+03  0.12499865589E+03 0.  0.
    9000005    1    3    3    0    0 -0.15391178753E+02  0.36362308076E+02  0.27054671944E+02  0.47875474996E+02  0.10000000000E+01 0.  0.
    9000005    1    3    3    0    0  0.15391178753E+02 -0.36362308076E+02 -0.77371602226E+02  0.86870424559E+02  0.10000000000E+01 0.  0.
<mgrwt>
<rscale>  0 0.12499866E+03</rscale>
<asrwt>0</asrwt>
<pdfrwt beam="2">  1        4 0.14235602E-01 0.12499866E+03</pdfrwt>
<pdfrwt beam="1">  1       -4 0.64945361E-02 0.12499866E+03</pdfrwt>
<totfact> 0.10243740E+04</totfact>
</mgrwt>
</event>
<event>
 5    1  0.3273105E-002  0.1249998E+03  0.7818608E-02  0.1235070E+00
          4   -1    0    0  501    0  0.00000000000E+00  0.00000000000E+00  0.98001544790E+02  0.98009773397E+02  0.12700000000E+01 0.  1.
         -4   -1    0    0    0  501 -0.00000000000E+00 -0.00000000000E+00 -0.39838935133E+02  0.39859172752E+02  0.12700000000E+01 0.  1.
         25    2    1    2    0    0  0.00000000000E+00  0.00000000000E+00  0.58162609658E+02  0.13786894615E+03  0.12499982860E+03 0.  0.
    9000005    1    3    3    0    0  0.39880750497E+02 -0.25713167555E+02  0.73932292696E+02  0.87855706412E+02  0.10000000000E+01 0.  0.
    9000005    1    3    3    0    0 -0.39880750497E+02  0.25713167555E+02 -0.15769683038E+02  0.50013239737E+02  0.10000000000E+01 0.  0.
<mgrwt>
<rscale>  0 0.12499983E+03</rscale>
<asrwt>0</asrwt>
<pdfrwt beam="1">  1        4 0.15079351E-01 0.12499983E+03</pdfrwt>
<pdfrwt beam="2">  1       -4 0.61312566E-02 0.12499983E+03</pdfrwt>
<totfact> 0.10177985E+04</totfact>
</mgrwt>
</event>
<event>
 5    1  0.3273105E-002  0.1249993E+03  0.7818608E-02  0.1235070E+00
         -4   -1    0    0    0  501 -0.00000000000E+00  0.00000000000E+00  0.65015511499E+02  0.65027914279E+02  0.12700000000E+01 0. -1.
          4   -1    0    0  501    0  0.00000000000E+00 -0.00000000000E+00 -0.60056249864E+02  0.60069676608E+02  0.12700000000E+01 0. -1.
         25    2    1    2    0    0  0.00000000000E+00  0.00000000000E+00  0.49592616349E+01  0.12509759089E+03  0.12499925188E+03 0.  0.
    9000005    1    3    3    0    0  0.11447597319E+00 -0.62491173211E+02  0.22711201705E+01  0.62540529426E+02  0.10000000000E+01 0.  0.
    9000005    1    3    3    0    0 -0.11447597319E+00  0.62491173211E+02  0.26881414644E+01  0.62557061461E+02  0.10000000000E+01 0.  0.
<mgrwt>
<rscale>  0 0.12499925E+03</rscale>
<asrwt>0</asrwt>
<pdfrwt beam="2">  1        4 0.92414099E-02 0.12499925E+03</pdfrwt>
<pdfrwt beam="1">  1       -4 0.10004373E-01 0.12499925E+03</pdfrwt>
<totfact> 0.10450920E+04</totfact>
</mgrwt>
</event>
<event>
 5    1  0.3273105E-002  0.1249947E+03  0.7818608E-02  0.1235078E+00
          4   -1    0    0  501    0  0.00000000000E+00  0.00000000000E+00  0.28653250336E+02  0.28681381675E+02  0.12700000000E+01 0.  1.
         -4   -1    0    0    0  501 -0.00000000000E+00 -0.00000000000E+00 -0.13621878766E+03  0.13622470778E+03  0.12700000000E+01 0.  1.
         25    2    1    2    0    0  0.00000000000E+00  0.00000000000E+00 -0.10756553732E+03  0.16490608946E+03  0.12499469397E+03 0.  0.
    9000005    1    3    3    0    0  0.37216233568E+02  0.81026188726E+01  0.11575671037E+02  0.39820806541E+02  0.10000000000E+01 0.  0.
    9000005    1    3    3    0    0 -0.37216233568E+02 -0.81026188726E+01 -0.11914120836E+03  0.12508528292E+03  0.10000000000E+01 0.  0.
<mgrwt>
<rscale>  0 0.12499469E+03</rscale>
<asrwt>0</asrwt>
<pdfrwt beam="1">  1        4 0.44108118E-02 0.12499469E+03</pdfrwt>
<pdfrwt beam="2">  1       -4 0.20959356E-01 0.12499469E+03</pdfrwt>
<totfact> 0.96416673E+03</totfact>
</mgrwt>
</event>
<event>
 5    1  0.3273105E-002  0.1250006E+03  0.7818608E-02  0.1235068E+00
          4   -1    0    0  501    0  0.00000000000E+00  0.00000000000E+00  0.11135310925E+03  0.11136035129E+03  0.12700000000E+01 0.  1.
         -4   -1    0    0    0  501 -0.00000000000E+00 -0.00000000000E+00 -0.35060277268E+02  0.35083271542E+02  0.12700000000E+01 0.  1.
         25    2    1    2    0    0  0.00000000000E+00  0.00000000000E+00  0.76292831979E+02  0.14644362283E+03  0.12500055382E+03 0.  0.
    9000005    1    3    3    0    0  0.19801520220E+02 -0.18243922968E+02  0.10421508449E+03  0.10764164977E+03  0.10000000000E+01 0.  0.
    9000005    1    3    3    0    0 -0.19801520220E+02  0.18243922968E+02 -0.27922252514E+02  0.38801973065E+02  0.10000000000E+01 0.  0.
<mgrwt>
<rscale>  0 0.12500055E+03</rscale>
<asrwt>0</asrwt>
<pdfrwt beam="1">  1        4 0.17133573E-01 0.12500055E+03</pdfrwt>
<pdfrwt beam="2">  1       -4 0.53962147E-02 0.12500055E+03</pdfrwt>
<totfact> 0.10001615E+04</totfact>
</mgrwt>
</event>
<event>
 5    1  0.3273105E-002  0.1250000E+03  0.7818608E-02  0.1235069E+00
         -4   -1    0    0    0  501 -0.00000000000E+00  0.00000000000E+00  0.89756946826E+01  0.90650976297E+01  0.12700000000E+01 0. -1.
          4   -1    0    0  501    0  0.00000000000E+00 -0.00000000000E+00 -0.43295628094E+03  0.43295814359E+03  0.12700000000E+01 0. -1.
         25    2    1    2    0    0  0.00000000000E+00  0.00000000000E+00 -0.42398058625E+03  0.44202324122E+03  0.12500003304E+03 0.  0.
    9000005    1    3    3    0    0  0.52614865333E+02 -0.31027846416E+02 -0.25866267840E+03  0.26577891659E+03  0.10000000000E+01 0.  0.
    9000005    1    3    3    0    0 -0.52614865333E+02  0.31027846416E+02 -0.16531790785E+03  0.17624432463E+03  0.10000000000E+01 0.  0.
<mgrwt>
<rscale>  0 0.12500003E+03</rscale>
<asrwt>0</asrwt>
<pdfrwt beam="2">  1        4 0.66615663E-01 0.12500003E+03</pdfrwt>
<pdfrwt beam="1">  1       -4 0.13878969E-02 0.12500003E+03</pdfrwt>
<totfact> 0.60661038E+03</totfact>
</mgrwt>
</event>
<event>
 5    1  0.3273105E-002  0.1250006E+03  0.7818608E-02  0.1235068E+00
         -4   -1    0    0    0  501 -0.00000000000E+00  0.00000000000E+00  0.37593661611E+02  0.37615107249E+02  0.12700000000E+01 0.  1.
          4   -1    0    0  501    0  0.00000000000E+00 -0.00000000000E+00 -0.10385316138E+03  0.10386092638E+03  0.12700000000E+01 0.  1.
         25    2    1    2    0    0  0.00000000000E+00  0.00000000000E+00 -0.66259499772E+02  0.14147603363E+03  0.12500058713E+03 0.  0.
    9000005    1    3    3    0    0  0.14732842425E+02 -0.52463774732E+02 -0.67752236573E+02  0.86953262536E+02  0.10000000000E+01 0.  0.
    9000005    1    3    3    0    0 -0.14732842425E+02  0.52463774732E+02  0.14927368004E+01  0.54522771097E+02  0.10000000000E+01 0.  0.
<mgrwt>
<rscale>  0 0.12500059E+03</rscale>
<asrwt>0</asrwt>
<pdfrwt beam="2">  1        4 0.15979656E-01 0.12500059E+03</pdfrwt>
<pdfrwt beam="1">  1       -4 0.57858873E-02 0.12500059E+03</pdfrwt>
<totfact> 0.10102952E+04</totfact>
</mgrwt>
</event>
<event>
 5    1  0.3273105E-002  0.1249982E+03  0.7818608E-02  0.1235072E+00
         -4   -1    0    0    0  501 -0.00000000000E+00  0.00000000000E+00  0.65156157072E+02  0.65168533084E+02  0.12700000000E+01 0.  1.
          4   -1    0    0  501    0  0.00000000000E+00 -0.00000000000E+00 -0.59925564250E+02  0.59939020268E+02  0.12700000000E+01 0.  1.
         25    2    1    2    0    0  0.00000000000E+00  0.00000000000E+00  0.52305928219E+01  0.12510755335E+03  0.12499816320E+03 0.  0.
    9000005    1    3    3    0    0  0.52426492488E+02  0.33869272494E+02  0.56954019871E+01  0.62682552099E+02  0.10000000000E+01 0.  0.
    9000005    1    3    3    0    0 -0.52426492488E+02 -0.33869272494E+02 -0.46480916523E+00  0.62425001253E+02  0.10000000000E+01 0.  0.
<mgrwt>
<rscale>  0 0.12499816E+03</rscale>
<asrwt>0</asrwt>
<pdfrwt beam="2">  1        4 0.92213047E-02 0.12499816E+03</pdfrwt>
<pdfrwt beam="1">  1       -4 0.10026011E-01 0.12499816E+03</pdfrwt>
<totfact> 0.10450961E+04</totfact>
</mgrwt>
</event>
<event>
 5    1  0.3273105E-002  0.1250071E+03  0.7818608E-02  0.1235058E+00
         -4   -1    0    0    0  501 -0.00000000000E+00  0.00000000000E+00  0.45179660944E+01  0.46930712364E+01  0.12700000000E+01 0.  1.
          4   -1    0    0  501    0  0.00000000000E+00 -0.00000000000E+00 -0.84808859791E+03  0.84808954881E+03  0.12700000000E+01 0.  1.
         25    2    1    2    0    0  0.00000000000E+00  0.00000000000E+00 -0.84357063182E+03  0.85278262005E+03  0.12500714458E+03 0.  0.
    9000005    1    3    3    0    0  0.35118003923E+02  0.21442773015E+02 -0.74267657526E+03  0.74381621531E+03  0.10000000000E+01 0.  0.
    9000005    1    3    3    0    0 -0.35118003923E+02 -0.21442773015E+02 -0.10089405656E+03  0.10896640474E+03  0.10000000000E+01 0.  0.
<mgrwt>
<rscale>  0 0.12500714E+03</rscale>
<asrwt>0</asrwt>
<pdfrwt beam="2">  1        4 0.13048859E+00 0.12500714E+03</pdfrwt>
<pdfrwt beam="1">  1       -4 0.70861515E-03 0.12500714E+03</pdfrwt>
<totfact> 0.36008139E+03</totfact>
</mgrwt>
</event>
<event>
 5    1  0.3273105E-002  0.1250022E+03  0.7818608E-02  0.1235066E+00
          4   -1    0    0  501    0  0.00000000000E+00  0.00000000000E+00  0.38003432896E+02  0.38024647427E+02  0.12700000000E+01 0.  1.
         -4   -1    0    0    0  501 -0.00000000000E+00 -0.00000000000E+00 -0.10273648959E+03  0.10274433899E+03  0.12700000000E+01 0.  1.
         25    2    1    2    0    0  0.00000000000E+00  0.00000000000E+00 -0.64733056695E+02  0.14076898641E+03  0.12500215561E+03 0.  0.
    9000005    1    3    3    0    0 -0.39228983541E+02  0.39821788049E+02 -0.90131552682E+00  0.55915117121E+02  0.10000000000E+01 0.  0.
    9000005    1    3    3    0    0  0.39228983541E+02 -0.39821788049E+02 -0.63831741168E+02  0.84853869290E+02  0.10000000000E+01 0.  0.
<mgrwt>
<rscale>  0 0.12500216E+03</rscale>
<asrwt>0</asrwt>
<pdfrwt beam="1">  1        4 0.58489177E-02 0.12500216E+03</pdfrwt>
<pdfrwt beam="2">  1       -4 0.15807849E-01 0.12500216E+03</pdfrwt>
<totfact> 0.10117182E+04</totfact>
</mgrwt>
</event>
<event>
 5    1  0.3273105E-002  0.1250025E+03  0.7818608E-02  0.1235065E+00
          4   -1    0    0  501    0  0.00000000000E+00  0.00000000000E+00  0.10767454919E+03  0.10768203863E+03  0.12700000000E+01 0. -1.
         -4   -1    0    0    0  501 -0.00000000000E+00 -0.00000000000E+00 -0.36259909646E+02  0.36282143645E+02  0.12700000000E+01 0. -1.
         25    2    1    2    0    0  0.00000000000E+00  0.00000000000E+00  0.71414639545E+02  0.14396418227E+03  0.12500254012E+03 0.  0.
    9000005    1    3    3    0    0 -0.41697045932E+02 -0.39431476024E+02  0.72178546590E+01  0.57849653126E+02  0.10000000000E+01 0.  0.
    9000005    1    3    3    0    0  0.41697045932E+02  0.39431476024E+02  0.64196784886E+02  0.86114529149E+02  0.10000000000E+01 0.  0.
<mgrwt>
<rscale>  0 0.12500254E+03</rscale>
<asrwt>0</asrwt>
<pdfrwt beam="1">  1        4 0.16567602E-01 0.12500254E+03</pdfrwt>
<pdfrwt beam="2">  1       -4 0.55807340E-02 0.12500254E+03</pdfrwt>
<totfact> 0.10051501E+04</totfact>
</mgrwt>
</event>
<event>
 5    1  0.3273105E-002  0.1249985E+03  0.7818608E-02  0.1235072E+00
          4   -1    0    0  501    0  0.00000000000E+00  0.00000000000E+00  0.64327633007E+03  0.64327758372E+03  0.12700000000E+01 0. -1.
         -4   -1    0    0    0  501 -0.00000000000E+00 -0.00000000000E+00 -0.60046100035E+01  0.61374458282E+01  0.12700000000E+01 0. -1.
         25    2    1    2    0    0  0.00000000000E+00  0.00000000000E+00  0.63727172006E+03  0.64941502955E+03  0.12499854166E+03 0.  0.
    9000005    1    3    3    0    0  0.39425132232E+02 -0.27871418329E+02  0.11251591997E+03  0.12244177906E+03  0.10000000000E+01 0.  0.
    9000005    1    3    3    0    0 -0.39425132232E+02  0.27871418329E+02  0.52475580009E+03  0.52697325050E+03  0.10000000000E+01 0.  0.
<mgrwt>
<rscale>  0 0.12499854E+03</rscale>
<asrwt>0</asrwt>
<pdfrwt beam="1">  1        4 0.98975820E-01 0.12499854E+03</pdfrwt>
<pdfrwt beam="2">  1       -4 0.93410152E-03 0.12499854E+03</pdfrwt>
<totfact> 0.45891238E+03</totfact>
</mgrwt>
</event>
<event>
 5    1  0.3273105E-002  0.1249974E+03  0.7818608E-02  0.1235073E+00
          4   -1    0    0  501    0  0.00000000000E+00  0.00000000000E+00  0.52767486795E+02  0.52782767667E+02  0.12700000000E+01 0. -1.
         -4   -1    0    0    0  501 -0.00000000000E+00 -0.00000000000E+00 -0.73993061565E+02  0.74003959757E+02  0.12700000000E+01 0. -1.
         25    2    1    2    0    0  0.00000000000E+00  0.00000000000E+00 -0.21225574770E+02  0.12678672742E+03  0.12499739688E+03 0.  0.
    9000005    1    3    3    0    0 -0.42182940809E+02  0.20166741298E+02  0.31441416630E+02  0.56353000183E+02  0.10000000000E+01 0.  0.
    9000005    1    3    3    0    0  0.42182940809E+02 -0.20166741298E+02 -0.52666991401E+02  0.70433727241E+02  0.10000000000E+01 0.  0.
<mgrwt>
<rscale>  0 0.12499740E+03</rscale>
<asrwt>0</asrwt>
<pdfrwt beam="1">  1        4 0.81200886E-02 0.12499740E+03</pdfrwt>
<pdfrwt beam="2">  1       -4 0.11385562E-01 0.12499740E+03</pdfrwt>
<totfact> 0.10414394E+04</totfact>
</mgrwt>
</event>
<event>
 5    1  0.3273105E-002  0.1249966E+03  0.7818608E-02  0.1235075E+00
          4   -1    0    0  501    0  0.00000000000E+00  0.00000000000E+00  0.66786245561E+03  0.66786366311E+03  0.12700000000E+01 0.  1.
         -4   -1    0    0    0  501 -0.00000000000E+00 -0.00000000000E+00 -0.57783954992E+01  0.59163125801E+01  0.12700000000E+01 0.  1.
         25    2    1    2    0    0  0.00000000000E+00  0.00000000000E+00  0.66208406011E+03  0.67377997569E+03  0.12499661195E+03 0.  0.
    9000005    1    3    3    0    0 -0.38838707919E+02 -0.47407707121E+02  0.39686266423E+03  0.40156806420E+03  0.10000000000E+01 0.  0.
    9000005    1    3    3    0    0  0.38838707919E+02  0.47407707121E+02  0.26522139588E+03  0.27221191149E+03  0.10000000000E+01 0.  0.
<mgrwt>
<rscale>  0 0.12499661E+03</rscale>
<asrwt>0</asrwt>
<pdfrwt beam="1">  1        4 0.10275871E+00 0.12499661E+03</pdfrwt>
<pdfrwt beam="2">  1       -4 0.89968638E-03 0.12499661E+03</pdfrwt>
<totfact> 0.44510747E+03</totfact>
</mgrwt>
</event>
<event>
 5    1  0.3273105E-002  0.1250001E+03  0.7818608E-02  0.1235069E+00
          4   -1    0    0  501    0  0.00000000000E+00  0.00000000000E+00  0.36059015352E+01  0.38230126709E+01  0.12700000000E+01 0. -1.
         -4   -1    0    0    0  501 -0.00000000000E+00 -0.00000000000E+00 -0.10514188168E+04  0.10514195838E+04  0.12700000000E+01 0. -1.
         25    2    1    2    0    0  0.00000000000E+00  0.00000000000E+00 -0.10478129152E+04  0.10552425964E+04  0.12500012813E+03 0.  0.
    9000005    1    3    3    0    0  0.22934550736E+00  0.62176224078E+02 -0.57684388039E+03  0.58018600275E+03  0.10000000000E+01 0.  0.
    9000005    1    3    3    0    0 -0.22934550736E+00 -0.62176224078E+02 -0.47096903484E+03  0.47505659370E+03  0.10000000000E+01 0.  0.
<mgrwt>
<rscale>  0 0.12500013E+03</rscale>
<asrwt>0</asrwt>
<pdfrwt beam="1">  1        4 0.57151478E-03 0.12500013E+03</pdfrwt>
<pdfrwt beam="2">  1       -4 0.16177326E+00 0.12500013E+03</pdfrwt>
<totfact> 0.28831603E+03</totfact>
</mgrwt>
</event>
<event>
 5    1  0.3273105E-002  0.1250242E+03  0.7818608E-02  0.1235031E+00
         -4   -1    0    0    0  501 -0.00000000000E+00  0.00000000000E+00  0.78604183660E+02  0.78614442623E+02  0.12700000000E+01 0.  1.
          4   -1    0    0  501    0  0.00000000000E+00 -0.00000000000E+00 -0.49692844519E+02  0.49709070564E+02  0.12700000000E+01 0.  1.
         25    2    1    2    0    0  0.00000000000E+00  0.00000000000E+00  0.28911339142E+02  0.12832351319E+03  0.12502423167E+03 0.  0.
    9000005    1    3    3    0    0 -0.44858767366E+02 -0.13572982417E+02 -0.27990575486E+02  0.54598600507E+02  0.10000000000E+01 0.  0.
    9000005    1    3    3    0    0  0.44858767366E+02  0.13572982417E+02  0.56901914627E+02  0.73724912679E+02  0.10000000000E+01 0.  0.
<mgrwt>
<rscale>  0 0.12502423E+03</rscale>
<asrwt>0</asrwt>
<pdfrwt beam="2">  1        4 0.76470903E-02 0.12502423E+03</pdfrwt>
<pdfrwt beam="1">  1       -4 0.12094989E-01 0.12502423E+03</pdfrwt>
<totfact> 0.10374831E+04</totfact>
</mgrwt>
</event>
<event>
 5    1  0.3273105E-002  0.1250005E+03  0.7818608E-02  0.1235068E+00
         -4   -1    0    0    0  501 -0.00000000000E+00  0.00000000000E+00  0.27744157114E+02  0.27773209284E+02  0.12700000000E+01 0.  1.
          4   -1    0    0  501    0  0.00000000000E+00 -0.00000000000E+00 -0.14069094142E+03  0.14069667337E+03  0.12700000000E+01 0.  1.
         25    2    1    2    0    0  0.00000000000E+00  0.00000000000E+00 -0.11294678431E+03  0.16846988265E+03  0.12500050111E+03 0.  0.
    9000005    1    3    3    0    0  0.25296438290E+02 -0.56291076460E+02 -0.69725740862E+02  0.93119675783E+02  0.10000000000E+01 0.  0.
    9000005    1    3    3    0    0 -0.25296438290E+02  0.56291076460E+02 -0.43221043443E+02  0.75350206871E+02  0.10000000000E+01 0.  0.
<mgrwt>
<rscale>  0 0.12500050E+03</rscale>
<asrwt>0</asrwt>
<pdfrwt beam="2">  1        4 0.21647435E-01 0.12500050E+03</pdfrwt>
<pdfrwt beam="1">  1       -4 0.42710077E-02 0.12500050E+03</pdfrwt>
<totfact> 0.95733180E+03</totfact>
</mgrwt>
</event>
<event>
 5    1  0.3273105E-002  0.1249978E+03  0.7818608E-02  0.1235073E+00
         -4   -1    0    0    0  501 -0.00000000000E+00  0.00000000000E+00  0.43982536760E+01  0.45779400825E+01  0.12700000000E+01 0.  1.
          4   -1    0    0  501    0  0.00000000000E+00 -0.00000000000E+00 -0.87014700544E+03  0.87014793224E+03  0.12700000000E+01 0.  1.
         25    2    1    2    0    0  0.00000000000E+00  0.00000000000E+00 -0.86574875177E+03  0.87472587232E+03  0.12499780208E+03 0.  0.
    9000005    1    3    3    0    0 -0.12091713863E+02  0.53513719812E+02 -0.22349882630E+03  0.23013616211E+03  0.10000000000E+01 0.  0.
    9000005    1    3    3    0    0  0.12091713863E+02 -0.53513719812E+02 -0.64224992547E+03  0.64458971022E+03  0.10000000000E+01 0.  0.
<mgrwt>
<rscale>  0 0.12499780E+03</rscale>
<asrwt>0</asrwt>
<pdfrwt beam="2">  1        4 0.13388253E+00 0.12499780E+03</pdfrwt>
<pdfrwt beam="1">  1       -4 0.69054843E-03 0.12499780E+03</pdfrwt>
<totfact> 0.35138047E+03</totfact>
</mgrwt>
</event>
<event>
 5    1  0.3273105E-002  0.1249951E+03  0.7818608E-02  0.1235077E+00
         -4   -1    0    0    0  501 -0.00000000000E+00  0.00000000000E+00  0.60490633650E+02  0.60503963997E+02  0.12700000000E+01 0.  1.
          4   -1    0    0  501    0  0.00000000000E+00 -0.00000000000E+00 -0.64544358964E+02  0.64556852263E+02  0.12700000000E+01 0.  1.
         25    2    1    2    0    0  0.00000000000E+00  0.00000000000E+00 -0.40537253140E+01  0.12506081626E+03  0.12499510020E+03 0.  0.
    9000005    1    3    3    0    0 -0.58650289161E+02 -0.17813194783E+02 -0.14189628384E+02  0.62924652409E+02  0.10000000000E+01 0.  0.
    9000005    1    3    3    0    0  0.58650289161E+02  0.17813194783E+02  0.10135903070E+02  0.62136163851E+02  0.10000000000E+01 0.  0.
<mgrwt>
<rscale>  0 0.12499510E+03</rscale>
<asrwt>0</asrwt>
<pdfrwt beam="2">  1        4 0.99318878E-02 0.12499510E+03</pdfrwt>
<pdfrwt beam="1">  1       -4 0.93082377E-02 0.12499510E+03</pdfrwt>
<totfact> 0.10452699E+04</totfact>
</mgrwt>
</event>
<event>
 5    1  0.3273105E-002  0.1250033E+03  0.7818608E-02  0.1235064E+00
          4   -1    0    0  501    0  0.00000000000E+00  0.00000000000E+00  0.58059479286E+02  0.58073367691E+02  0.12700000000E+01 0.  1.
         -4   -1    0    0    0  501 -0.00000000000E+00 -0.00000000000E+00 -0.67255766839E+02  0.67267756563E+02  0.12700000000E+01 0.  1.
         25    2    1    2    0    0  0.00000000000E+00  0.00000000000E+00 -0.91962875529E+01  0.12534112425E+03  0.12500330285E+03 0.  0.
    9000005    1    3    3    0    0 -0.48612845669E+02  0.32410526289E+02  0.17638475861E+02  0.61039059700E+02  0.10000000000E+01 0.  0.
    9000005    1    3    3    0    0  0.48612845669E+02 -0.32410526289E+02 -0.26834763414E+02  0.64302064554E+02  0.10000000000E+01 0.  0.
<mgrwt>
<rscale>  0 0.12500330E+03</rscale>
<asrwt>0</asrwt>
<pdfrwt beam="1">  1        4 0.89342182E-02 0.12500330E+03</pdfrwt>
<pdfrwt beam="2">  1       -4 0.10349032E-01 0.12500330E+03</pdfrwt>
<totfact> 0.10444678E+04</totfact>
</mgrwt>
</event>
<event>
 5    1  0.3273105E-002  0.1250049E+03  0.7818608E-02  0.1235062E+00
         -4   -1    0    0    0  501 -0.00000000000E+00  0.00000000000E+00  0.43694022840E+02  0.43712475702E+02  0.12700000000E+01 0.  1.
          4   -1    0    0  501    0  0.00000000000E+00 -0.00000000000E+00 -0.89365210403E+02  0.89374234153E+02  0.12700000000E+01 0.  1.
         25    2    1    2    0    0  0.00000000000E+00  0.00000000000E+00 -0.45671187563E+02  0.13308670985E+03  0.12500485977E+03 0.  0.
    9000005    1    3    3    0    0  0.13122997633E+02  0.58238144901E+02 -0.31565350692E+01  0.59790118766E+02  0.10000000000E+01 0.  0.
    9000005    1    3    3    0    0 -0.13122997633E+02 -0.58238144901E+02 -0.42514652494E+02  0.73296591088E+02  0.10000000000E+01 0.  0.
<mgrwt>
<rscale>  0 0.12500486E+03</rscale>
<asrwt>0</asrwt>
<pdfrwt beam="2">  1        4 0.13750607E-01 0.12500486E+03</pdfrwt>
<pdfrwt beam="1">  1       -4 0.67242710E-02 0.12500486E+03</pdfrwt>
<totfact> 0.10277431E+04</totfact>
</mgrwt>
</event>
<event>
 5    1  0.3273105E-002  0.1249993E+03  0.7818608E-02  0.1235070E+00
         -4   -1    0    0    0  501 -0.00000000000E+00  0.00000000000E+00  0.16181522692E+02  0.16231283888E+02  0.12700000000E+01 0. -1.
          4   -1    0    0  501    0  0.00000000000E+00 -0.00000000000E+00 -0.24097718287E+03  0.24098052943E+03  0.12700000000E+01 0. -1.
         25    2    1    2    0    0  0.00000000000E+00  0.00000000000E+00 -0.22479566018E+03  0.25721181332E+03  0.12499931230E+03 0.  0.
    9000005    1    3    3    0    0  0.38397165455E+02  0.14509083473E+02 -0.20935816888E+03  0.21334642883E+03  0.10000000000E+01 0.  0.
    9000005    1    3    3    0    0 -0.38397165455E+02 -0.14509083473E+02 -0.15437491293E+02  0.43865384481E+02  0.10000000000E+01 0.  0.
<mgrwt>
<rscale>  0 0.12499931E+03</rscale>
<asrwt>0</asrwt>
<pdfrwt beam="2">  1        4 0.37077495E-01 0.12499931E+03</pdfrwt>
<pdfrwt beam="1">  1       -4 0.24935504E-02 0.12499931E+03</pdfrwt>
<totfact> 0.81300188E+03</totfact>
</mgrwt>
</event>
<event>
 5    1  0.3273105E-002  0.1250083E+03  0.7818608E-02  0.1235056E+00
         -4   -1    0    0    0  501 -0.00000000000E+00  0.00000000000E+00  0.26294339301E+03  0.26294646001E+03  0.12700000000E+01 0.  1.
          4   -1    0    0  501    0  0.00000000000E+00 -0.00000000000E+00 -0.14827538353E+02  0.14881827630E+02  0.12700000000E+01 0.  1.
         25    2    1    2    0    0  0.00000000000E+00  0.00000000000E+00  0.24811585466E+03  0.27782828764E+03  0.12500832003E+03 0.  0.
    9000005    1    3    3    0    0  0.43260245930E+02  0.44348144649E+02  0.10578985710E+03  0.12259975806E+03  0.10000000000E+01 0.  0.
    9000005    1    3    3    0    0 -0.43260245930E+02 -0.44348144649E+02  0.14232599756E+03  0.15522852958E+03  0.10000000000E+01 0.  0.
<mgrwt>
<rscale>  0 0.12500832E+03</rscale>
<asrwt>0</asrwt>
<pdfrwt beam="2">  1        4 0.22855720E-02 0.12500832E+03</pdfrwt>
<pdfrwt beam="1">  1       -4 0.40457237E-01 0.12500832E+03</pdfrwt>
<totfact> 0.78452433E+03</totfact>
</mgrwt>
</event>
<event>
 5    1  0.3273105E-002  0.1249950E+03  0.7818608E-02  0.1235077E+00
          4   -1    0    0  501    0  0.00000000000E+00  0.00000000000E+00  0.26319535803E+02  0.26350158726E+02  0.12700000000E+01 0.  1.
         -4   -1    0    0    0  501 -0.00000000000E+00 -0.00000000000E+00 -0.14828488092E+03  0.14829031934E+03  0.12700000000E+01 0.  1.
         25    2    1    2    0    0  0.00000000000E+00  0.00000000000E+00 -0.12196534512E+03  0.17464047807E+03  0.12499500458E+03 0.  0.
    9000005    1    3    3    0    0  0.48098150553E+02 -0.26395524405E+01 -0.53661733838E+01  0.48478811253E+02  0.10000000000E+01 0.  0.
    9000005    1    3    3    0    0 -0.48098150553E+02  0.26395524405E+01 -0.11659917174E+03  0.12616166681E+03  0.10000000000E+01 0.  0.
<mgrwt>
<rscale>  0 0.12499500E+03</rscale>
<asrwt>0</asrwt>
<pdfrwt beam="1">  1        4 0.40519334E-02 0.12499500E+03</pdfrwt>
<pdfrwt beam="2">  1       -4 0.22815832E-01 0.12499500E+03</pdfrwt>
<totfact> 0.94601329E+03</totfact>
</mgrwt>
</event>
<event>
 5    1  0.3273105E-002  0.1250003E+03  0.7818608E-02  0.1235069E+00
          4   -1    0    0  501    0  0.00000000000E+00  0.00000000000E+00  0.27176205786E+03  0.27176502533E+03  0.12700000000E+01 0. -1.
         -4   -1    0    0    0  501 -0.00000000000E+00 -0.00000000000E+00 -0.14342762984E+02  0.14398880165E+02  0.12700000000E+01 0. -1.
         25    2    1    2    0    0  0.00000000000E+00  0.00000000000E+00  0.25741929488E+03  0.28616390549E+03  0.12500034973E+03 0.  0.
    9000005    1    3    3    0    0  0.39259690708E+02  0.13200519387E+02  0.23583577913E+03  0.23944747178E+03  0.10000000000E+01 0.  0.
    9000005    1    3    3    0    0 -0.39259690708E+02 -0.13200519387E+02  0.21583515746E+02  0.46716433709E+02  0.10000000000E+01 0.  0.
<mgrwt>
<rscale>  0 0.12500035E+03</rscale>
<asrwt>0</asrwt>
<pdfrwt beam="1">  1        4 0.41814091E-01 0.12500035E+03</pdfrwt>
<pdfrwt beam="2">  1       -4 0.22111240E-02 0.12500035E+03</pdfrwt>
<totfact> 0.77367250E+03</totfact>
</mgrwt>
</event>
<event>
 5    1  0.3273105E-002  0.1249997E+03  0.7818608E-02  0.1235070E+00
          4   -1    0    0  501    0  0.00000000000E+00  0.00000000000E+00  0.23501288408E+01  0.26713302994E+01  0.12700000000E+01 0.  1.
         -4   -1    0    0    0  501 -0.00000000000E+00 -0.00000000000E+00 -0.15554946509E+04  0.15554951694E+04  0.12700000000E+01 0.  1.
         25    2    1    2    0    0  0.00000000000E+00  0.00000000000E+00 -0.15531445221E+04  0.15581664997E+04  0.12499973694E+03 0.  0.
    9000005    1    3    3    0    0  0.27113504606E+01 -0.39464213910E+02 -0.17351967257E+03  0.17797430256E+03  0.10000000000E+01 0.  0.
    9000005    1    3    3    0    0 -0.27113504606E+01  0.39464213910E+02 -0.13796248495E+04  0.13801921971E+04  0.10000000000E+01 0.  0.
<mgrwt>
<rscale>  0 0.12499974E+03</rscale>
<asrwt>0</asrwt>
<pdfrwt beam="1">  1        4 0.38630721E-03 0.12499974E+03</pdfrwt>
<pdfrwt beam="2">  1       -4 0.23933085E+00 0.12499974E+03</pdfrwt>
<totfact> 0.16815145E+03</totfact>
</mgrwt>
</event>
<event>
 5    1  0.3273105E-002  0.1249983E+03  0.7818608E-02  0.1235072E+00
         -4   -1    0    0    0  501 -0.00000000000E+00  0.00000000000E+00  0.88505248362E+01  0.89411794455E+01  0.12700000000E+01 0.  1.
          4   -1    0    0  501    0  0.00000000000E+00 -0.00000000000E+00 -0.43900563919E+03  0.43900747618E+03  0.12700000000E+01 0.  1.
         25    2    1    2    0    0  0.00000000000E+00  0.00000000000E+00 -0.43015511435E+03  0.44794865562E+03  0.12499830267E+03 0.  0.
    9000005    1    3    3    0    0  0.50567173294E+02  0.30008004361E+02 -0.29089708640E+03  0.29678213257E+03  0.10000000000E+01 0.  0.
    9000005    1    3    3    0    0 -0.50567173294E+02 -0.30008004361E+02 -0.13925802796E+03  0.15116652305E+03  0.10000000000E+01 0.  0.
<mgrwt>
<rscale>  0 0.12499830E+03</rscale>
<asrwt>0</asrwt>
<pdfrwt beam="2">  1        4 0.67546427E-01 0.12499830E+03</pdfrwt>
<pdfrwt beam="1">  1       -4 0.13687343E-02 0.12499830E+03</pdfrwt>
<totfact> 0.60144171E+03</totfact>
</mgrwt>
</event>
<event>
 5    1  0.3273105E-002  0.1250011E+03  0.7818608E-02  0.1235068E+00
         -4   -1    0    0    0  501 -0.00000000000E+00  0.00000000000E+00  0.46945594981E+02  0.46962770235E+02  0.12700000000E+01 0.  1.
          4   -1    0    0  501    0  0.00000000000E+00 -0.00000000000E+00 -0.83172209079E+02  0.83181904662E+02  0.12700000000E+01 0.  1.
         25    2    1    2    0    0  0.00000000000E+00  0.00000000000E+00 -0.36226614098E+02  0.13014467490E+03  0.12500107534E+03 0.  0.
    9000005    1    3    3    0    0  0.22066592373E+02 -0.53414345669E+02 -0.42867481868E+02  0.71962822512E+02  0.10000000000E+01 0.  0.
    9000005    1    3    3    0    0 -0.22066592373E+02  0.53414345669E+02  0.66408677701E+01  0.58181852385E+02  0.10000000000E+01 0.  0.
<mgrwt>
<rscale>  0 0.12500108E+03</rscale>
<asrwt>0</asrwt>
<pdfrwt beam="2">  1        4 0.12797791E-01 0.12500108E+03</pdfrwt>
<pdfrwt beam="1">  1       -4 0.72244662E-02 0.12500108E+03</pdfrwt>
<totfact> 0.10341163E+04</totfact>
</mgrwt>
</event>
<event>
 5    1  0.3273105E-002  0.1249979E+03  0.7818608E-02  0.1235073E+00
         -4   -1    0    0    0  501 -0.00000000000E+00  0.00000000000E+00  0.90644978210E+02  0.90653874571E+02  0.12700000000E+01 0.  1.
          4   -1    0    0  501    0  0.00000000000E+00 -0.00000000000E+00 -0.43072108342E+02  0.43090827528E+02  0.12700000000E+01 0.  1.
         25    2    1    2    0    0  0.00000000000E+00  0.00000000000E+00  0.47572869868E+02  0.13374470210E+03  0.12499786955E+03 0.  0.
    9000005    1    3    3    0    0 -0.37497571951E+02  0.48671190876E+02  0.35993735216E+02  0.71214476746E+02  0.10000000000E+01 0.  0.
    9000005    1    3    3    0    0  0.37497571951E+02 -0.48671190876E+02  0.11579134652E+02  0.62530225353E+02  0.10000000000E+01 0.  0.
<mgrwt>
<rscale>  0 0.12499787E+03</rscale>
<asrwt>0</asrwt>
<pdfrwt beam="2">  1        4 0.66286025E-02 0.12499787E+03</pdfrwt>
<pdfrwt beam="1">  1       -4 0.13947506E-01 0.12499787E+03</pdfrwt>
<totfact> 0.10265091E+04</totfact>
</mgrwt>
</event>
<event>
 5    1  0.3273105E-002  0.1250007E+03  0.7818608E-02  0.1235068E+00
          4   -1    0    0  501    0  0.00000000000E+00  0.00000000000E+00  0.48752941510E+03  0.48753106925E+03  0.12700000000E+01 0.  1.
         -4   -1    0    0    0  501 -0.00000000000E+00 -0.00000000000E+00 -0.79604202445E+01  0.80610911463E+01  0.12700000000E+01 0.  1.
         25    2    1    2    0    0  0.00000000000E+00  0.00000000000E+00  0.47956899485E+03  0.49559216040E+03  0.12500067449E+03 0.  0.
    9000005    1    3    3    0    0  0.10138135270E+01 -0.42919361969E+02  0.41982768554E+03  0.42201822827E+03  0.10000000000E+01 0.  0.
    9000005    1    3    3    0    0 -0.10138135270E+01  0.42919361969E+02  0.59741309314E+02  0.73573932125E+02  0.10000000000E+01 0.  0.
<mgrwt>
<rscale>  0 0.12500067E+03</rscale>
<asrwt>0</asrwt>
<pdfrwt beam="1">  1        4 0.75012394E-01 0.12500067E+03</pdfrwt>
<pdfrwt beam="2">  1       -4 0.12325512E-02 0.12500067E+03</pdfrwt>
<totfact> 0.56207156E+03</totfact>
</mgrwt>
</event>
<event>
 5    1  0.3273105E-002  0.1249960E+03  0.7818608E-02  0.1235076E+00
          4   -1    0    0  501    0  0.00000000000E+00  0.00000000000E+00  0.53264293794E+01  0.54757419528E+01  0.12700000000E+01 0.  1.
         -4   -1    0    0    0  501 -0.00000000000E+00 -0.00000000000E+00 -0.72303757656E+03  0.72303869192E+03  0.12700000000E+01 0.  1.
         25    2    1    2    0    0  0.00000000000E+00  0.00000000000E+00 -0.71771114718E+03  0.72851443388E+03  0.12499595825E+03 0.  0.
    9000005    1    3    3    0    0 -0.48666460686E+02 -0.24136003798E+02 -0.17883490574E+03  0.18690611169E+03  0.10000000000E+01 0.  0.
    9000005    1    3    3    0    0  0.48666460686E+02  0.24136003798E+02 -0.53887624144E+03  0.54160832219E+03  0.10000000000E+01 0.  0.
<mgrwt>
<rscale>  0 0.12499596E+03</rscale>
<asrwt>0</asrwt>
<pdfrwt beam="1">  1        4 0.83102263E-03 0.12499596E+03</pdfrwt>
<pdfrwt beam="2">  1       -4 0.11124804E+00 0.12499596E+03</pdfrwt>
<totfact> 0.41627174E+03</totfact>
</mgrwt>
</event>
<event>
 5    1  0.3273105E-002  0.1249953E+03  0.7818608E-02  0.1235077E+00
          4   -1    0    0  501    0  0.00000000000E+00  0.00000000000E+00  0.85519355810E+02  0.85528785319E+02  0.12700000000E+01 0. -1.
         -4   -1    0    0    0  501 -0.00000000000E+00 -0.00000000000E+00 -0.45652554907E+02  0.45670216439E+02  0.12700000000E+01 0. -1.
         25    2    1    2    0    0  0.00000000000E+00  0.00000000000E+00  0.39866800903E+02  0.13119900176E+03  0.12499526490E+03 0.  0.
    9000005    1    3    3    0    0 -0.62270050655E+02  0.51824287811E+01  0.20702777920E+02  0.65833287859E+02  0.10000000000E+01 0.  0.
    9000005    1    3    3    0    0  0.62270050655E+02 -0.51824287811E+01  0.19164022983E+02  0.65365713899E+02  0.10000000000E+01 0.  0.
<mgrwt>
<rscale>  0 0.12499526E+03</rscale>
<asrwt>0</asrwt>
<pdfrwt beam="1">  1        4 0.13158908E-01 0.12499526E+03</pdfrwt>
<pdfrwt beam="2">  1       -4 0.70255539E-02 0.12499526E+03</pdfrwt>
<totfact> 0.10319927E+04</totfact>
</mgrwt>
</event>
<event>
 5    1  0.3273105E-002  0.1250027E+03  0.7818608E-02  0.1235065E+00
          4   -1    0    0  501    0  0.00000000000E+00  0.00000000000E+00  0.10548843934E+03  0.10549608398E+03  0.12700000000E+01 0.  1.
         -4   -1    0    0    0  501 -0.00000000000E+00 -0.00000000000E+00 -0.37011833234E+02  0.37033615802E+02  0.12700000000E+01 0.  1.
         25    2    1    2    0    0  0.00000000000E+00  0.00000000000E+00  0.68476606105E+02  0.14252969978E+03  0.12500267891E+03 0.  0.
    9000005    1    3    3    0    0 -0.53732883057E+02  0.24684299014E+02  0.57294306797E+02  0.82341817631E+02  0.10000000000E+01 0.  0.
    9000005    1    3    3    0    0  0.53732883057E+02 -0.24684299014E+02  0.11182299308E+02  0.60187882147E+02  0.10000000000E+01 0.  0.
<mgrwt>
<rscale>  0 0.12500268E+03</rscale>
<asrwt>0</asrwt>
<pdfrwt beam="1">  1        4 0.16231254E-01 0.12500268E+03</pdfrwt>
<pdfrwt beam="2">  1       -4 0.56963919E-02 0.12500268E+03</pdfrwt>
<totfact> 0.10080815E+04</totfact>
</mgrwt>
</event>
<event>
 5    1  0.3273105E-002  0.1250018E+03  0.7818608E-02  0.1235066E+00
         -4   -1    0    0    0  501 -0.00000000000E+00  0.00000000000E+00  0.54466148848E+02  0.54480953280E+02  0.12700000000E+01 0.  1.
          4   -1    0    0  501    0  0.00000000000E+00 -0.00000000000E+00 -0.71690761891E+02  0.71702010017E+02  0.12700000000E+01 0.  1.
         25    2    1    2    0    0  0.00000000000E+00  0.00000000000E+00 -0.17224613043E+02  0.12618296330E+03  0.12500181171E+03 0.  0.
    9000005    1    3    3    0    0 -0.35712404856E+02  0.34715934466E+02 -0.46715382514E+02  0.68292744343E+02  0.10000000000E+01 0.  0.
    9000005    1    3    3    0    0  0.35712404856E+02 -0.34715934466E+02  0.29490769471E+02  0.57890218954E+02  0.10000000000E+01 0.  0.
<mgrwt>
<rscale>  0 0.12500181E+03</rscale>
<asrwt>0</asrwt>
<pdfrwt beam="2">  1        4 0.11031352E-01 0.12500181E+03</pdfrwt>
<pdfrwt beam="1">  1       -4 0.83814115E-02 0.12500181E+03</pdfrwt>
<totfact> 0.10426525E+04</totfact>
</mgrwt>
</event>
<event>
 5    1  0.3273105E-002  0.1250025E+03  0.7818608E-02  0.1235065E+00
         -4   -1    0    0    0  501 -0.00000000000E+00  0.00000000000E+00  0.23276199716E+03  0.23276546183E+03  0.12700000000E+01 0. -1.
          4   -1    0    0  501    0  0.00000000000E+00 -0.00000000000E+00 -0.16755221258E+02  0.16803283590E+02  0.12700000000E+01 0. -1.
         25    2    1    2    0    0  0.00000000000E+00  0.00000000000E+00  0.21600677590E+03  0.24956874542E+03  0.12500252580E+03 0.  0.
    9000005    1    3    3    0    0  0.58981411628E+02 -0.49555926634E+01  0.14803542461E+03  0.15943290675E+03  0.10000000000E+01 0.  0.
    9000005    1    3    3    0    0 -0.58981411628E+02  0.49555926634E+01  0.67971351296E+02  0.90135838673E+02  0.10000000000E+01 0.  0.
<mgrwt>
<rscale>  0 0.12500253E+03</rscale>
<asrwt>0</asrwt>
<pdfrwt beam="2">  1        4 0.25816901E-02 0.12500253E+03</pdfrwt>
<pdfrwt beam="1">  1       -4 0.35813500E-01 0.12500253E+03</pdfrwt>
<totfact> 0.82387962E+03</totfact>
</mgrwt>
</event>
<event>
 5    1  0.3273105E-002  0.1249989E+03  0.7818608E-02  0.1235071E+00
          4   -1    0    0  501    0  0.00000000000E+00  0.00000000000E+00  0.81520737996E+02  0.81530629971E+02  0.12700000000E+01 0. -1.
         -4   -1    0    0    0  501 -0.00000000000E+00 -0.00000000000E+00 -0.47895210551E+02  0.47912045393E+02  0.12700000000E+01 0. -1.
         25    2    1    2    0    0  0.00000000000E+00  0.00000000000E+00  0.33625527445E+02  0.12944267536E+03  0.12499892043E+03 0.  0.
    9000005    1    3    3    0    0  0.56008707280E+02 -0.25648986649E+02  0.59352095922E+01  0.61895658330E+02  0.10000000000E+01 0.  0.
    9000005    1    3    3    0    0 -0.56008707280E+02  0.25648986649E+02  0.27690317853E+02  0.67547017033E+02  0.10000000000E+01 0.  0.
<mgrwt>
<rscale>  0 0.12499892E+03</rscale>
<asrwt>0</asrwt>
<pdfrwt beam="1">  1        4 0.12543708E-01 0.12499892E+03</pdfrwt>
<pdfrwt beam="2">  1       -4 0.73705498E-02 0.12499892E+03</pdfrwt>
<totfact> 0.10356697E+04</totfact>
</mgrwt>
</event>
<event>
 5    1  0.3273105E-002  0.1249988E+03  0.7818608E-02  0.1235071E+00
          4   -1    0    0  501    0  0.00000000000E+00  0.00000000000E+00  0.39345908792E+02  0.39366399869E+02  0.12700000000E+01 0.  1.
         -4   -1    0    0    0  501 -0.00000000000E+00 -0.00000000000E+00 -0.99227407458E+02  0.99235534416E+02  0.12700000000E+01 0.  1.
         25    2    1    2    0    0  0.00000000000E+00  0.00000000000E+00 -0.59881498667E+02  0.13860193429E+03  0.12499880921E+03 0.  0.
    9000005    1    3    3    0    0 -0.50535413927E+02 -0.31372520776E+02 -0.51186054582E+02  0.78479776403E+02  0.10000000000E+01 0.  0.
    9000005    1    3    3    0    0  0.50535413927E+02  0.31372520776E+02 -0.86954440851E+01  0.60122157882E+02  0.10000000000E+01 0.  0.
<mgrwt>
<rscale>  0 0.12499881E+03</rscale>
<asrwt>0</asrwt>
<pdfrwt beam="1">  1        4 0.60554182E-02 0.12499881E+03</pdfrwt>
<pdfrwt beam="2">  1       -4 0.15267956E-01 0.12499881E+03</pdfrwt>
<totfact> 0.10162917E+04</totfact>
</mgrwt>
</event>
<event>
 5    1  0.3273105E-002  0.1249967E+03  0.7818608E-02  0.1235074E+00
         -4   -1    0    0    0  501 -0.00000000000E+00  0.00000000000E+00  0.14949570079E+02  0.15003417795E+02  0.12700000000E+01 0.  1.
          4   -1    0    0  501    0  0.00000000000E+00 -0.00000000000E+00 -0.26075636269E+03  0.26075945541E+03  0.12700000000E+01 0.  1.
         25    2    1    2    0    0  0.00000000000E+00  0.00000000000E+00 -0.24580679262E+03  0.27576287320E+03  0.12499673173E+03 0.  0.
    9000005    1    3    3    0    0 -0.53834401909E+02 -0.99461668809E+01 -0.56425926299E+02  0.78625404440E+02  0.10000000000E+01 0.  0.
    9000005    1    3    3    0    0  0.53834401909E+02  0.99461668809E+01 -0.18938086632E+03  0.19713746876E+03  0.10000000000E+01 0.  0.
<mgrwt>
<rscale>  0 0.12499673E+03</rscale>
<asrwt>0</asrwt>
<pdfrwt beam="2">  1        4 0.40120740E-01 0.12499673E+03</pdfrwt>
<pdfrwt beam="1">  1       -4 0.23043141E-02 0.12499673E+03</pdfrwt>
<totfact> 0.78749016E+03</totfact>
</mgrwt>
</event>
<event>
 5    1  0.3273105E-002  0.1250010E+03  0.7818608E-02  0.1235068E+00
          4   -1    0    0  501    0  0.00000000000E+00  0.00000000000E+00  0.65614214611E+02  0.65626504242E+02  0.12700000000E+01 0. -1.
         -4   -1    0    0    0  501 -0.00000000000E+00 -0.00000000000E+00 -0.59509902673E+02  0.59523452657E+02  0.12700000000E+01 0. -1.
         25    2    1    2    0    0  0.00000000000E+00  0.00000000000E+00  0.61043119373E+01  0.12514995690E+03  0.12500099635E+03 0.  0.
    9000005    1    3    3    0    0  0.27335882923E+02  0.44157118487E+02  0.37852902629E+02  0.64272419012E+02  0.10000000000E+01 0.  0.
    9000005    1    3    3    0    0 -0.27335882923E+02 -0.44157118487E+02 -0.31748590692E+02  0.60877537886E+02  0.10000000000E+01 0.  0.
<mgrwt>
<rscale>  0 0.12500100E+03</rscale>
<asrwt>0</asrwt>
<pdfrwt beam="1">  1        4 0.10096482E-01 0.12500100E+03</pdfrwt>
<pdfrwt beam="2">  1       -4 0.91573573E-02 0.12500100E+03</pdfrwt>
<totfact> 0.10449371E+04</totfact>
</mgrwt>
</event>
<event>
 5    1  0.3273105E-002  0.1249958E+03  0.7818608E-02  0.1235076E+00
         -4   -1    0    0    0  501 -0.00000000000E+00  0.00000000000E+00  0.21548685536E+01  0.25012713734E+01  0.12700000000E+01 0.  1.
          4   -1    0    0  501    0  0.00000000000E+00 -0.00000000000E+00 -0.16774326448E+04  0.16774331256E+04  0.12700000000E+01 0.  1.
         25    2    1    2    0    0  0.00000000000E+00  0.00000000000E+00 -0.16752777762E+04  0.16799343969E+04  0.12499580165E+03 0.  0.
    9000005    1    3    3    0    0 -0.30081160438E+02  0.19626072151E+02 -0.15249079924E+04  0.15253312572E+04  0.10000000000E+01 0.  0.
    9000005    1    3    3    0    0  0.30081160438E+02 -0.19626072151E+02 -0.15036978387E+03  0.15460313975E+03  0.10000000000E+01 0.  0.
<mgrwt>
<rscale>  0 0.12499580E+03</rscale>
<asrwt>0</asrwt>
<pdfrwt beam="2">  1        4 0.25809228E+00 0.12499580E+03</pdfrwt>
<pdfrwt beam="1">  1       -4 0.35820293E-03 0.12499580E+03</pdfrwt>
<totfact> 0.14646903E+03</totfact>
</mgrwt>
</event>
<event>
 5    1  0.3273105E-002  0.1250132E+03  0.7818608E-02  0.1235049E+00
         -4   -1    0    0    0  501 -0.00000000000E+00  0.00000000000E+00  0.64650614732E+02  0.64663087502E+02  0.12700000000E+01 0. -1.
          4   -1    0    0  501    0  0.00000000000E+00 -0.00000000000E+00 -0.60408664607E+02  0.60422013038E+02  0.12700000000E+01 0. -1.
         25    2    1    2    0    0  0.00000000000E+00  0.00000000000E+00  0.42419501255E+01  0.12508510054E+03  0.12501315225E+03 0.  0.
    9000005    1    3    3    0    0  0.56876643171E+02  0.19715274230E+02  0.18936226020E+02  0.63112797690E+02  0.10000000000E+01 0.  0.
    9000005    1    3    3    0    0 -0.56876643171E+02 -0.19715274230E+02 -0.14694275894E+02  0.61972302849E+02  0.10000000000E+01 0.  0.
<mgrwt>
<rscale>  0 0.12501315E+03</rscale>
<asrwt>0</asrwt>
<pdfrwt beam="2">  1        4 0.92956270E-02 0.12501315E+03</pdfrwt>
<pdfrwt beam="1">  1       -4 0.99482347E-02 0.12501315E+03</pdfrwt>
<totfact> 0.10447909E+04</totfact>
</mgrwt>
</event>
<event>
 5    1  0.3273105E-002  0.1250057E+03  0.7818608E-02  0.1235060E+00
         -4   -1    0    0    0  501 -0.00000000000E+00  0.00000000000E+00  0.28203767078E+02  0.28232346296E+02  0.12700000000E+01 0.  1.
          4   -1    0    0  501    0  0.00000000000E+00 -0.00000000000E+00 -0.13841200538E+03  0.13841783170E+03  0.12700000000E+01 0.  1.
         25    2    1    2    0    0  0.00000000000E+00  0.00000000000E+00 -0.11020823830E+03  0.16665017800E+03  0.12500570402E+03 0.  0.
    9000005    1    3    3    0    0  0.53923127224E+02  0.12020770220E+02 -0.94049259573E+02  0.10908008889E+03  0.10000000000E+01 0.  0.
    9000005    1    3    3    0    0 -0.53923127224E+02 -0.12020770220E+02 -0.16158978729E+02  0.57570089107E+02  0.10000000000E+01 0.  0.
<mgrwt>
<rscale>  0 0.12500570E+03</rscale>
<asrwt>0</asrwt>
<pdfrwt beam="2">  1        4 0.21296801E-01 0.12500570E+03</pdfrwt>
<pdfrwt beam="1">  1       -4 0.43416878E-02 0.12500570E+03</pdfrwt>
<totfact> 0.96063477E+03</totfact>
</mgrwt>
</event>
<event>
 5    1  0.3273105E-002  0.1249905E+03  0.7818608E-02  0.1235084E+00
         -4   -1    0    0    0  501 -0.00000000000E+00  0.00000000000E+00  0.22709943297E+02  0.22745426454E+02  0.12700000000E+01 0. -1.
          4   -1    0    0  501    0  0.00000000000E+00 -0.00000000000E+00 -0.17180799047E+03  0.17181268431E+03  0.12700000000E+01 0. -1.
         25    2    1    2    0    0  0.00000000000E+00  0.00000000000E+00 -0.14909804717E+03  0.19455811076E+03  0.12499052281E+03 0.  0.
    9000005    1    3    3    0    0 -0.54413214568E+02  0.15067247332E+02 -0.11622470562E+03  0.12921687993E+03  0.10000000000E+01 0.  0.
    9000005    1    3    3    0    0  0.54413214568E+02 -0.15067247332E+02 -0.32873341547E+02  0.65341230829E+02  0.10000000000E+01 0.  0.
<mgrwt>
<rscale>  0 0.12499052E+03</rscale>
<asrwt>0</asrwt>
<pdfrwt beam="2">  1        4 0.26435088E-01 0.12499052E+03</pdfrwt>
<pdfrwt beam="1">  1       -4 0.34969281E-02 0.12499052E+03</pdfrwt>
<totfact> 0.91079537E+03</totfact>
</mgrwt>
</event>
<event>
 5    1  0.3273105E-002  0.1250046E+03  0.7818608E-02  0.1235062E+00
          4   -1    0    0  501    0  0.00000000000E+00  0.00000000000E+00  0.14990869870E+02  0.15044569767E+02  0.12700000000E+01 0. -1.
         -4   -1    0    0    0  501 -0.00000000000E+00 -0.00000000000E+00 -0.26007331180E+03  0.26007641264E+03  0.12700000000E+01 0. -1.
         25    2    1    2    0    0  0.00000000000E+00  0.00000000000E+00 -0.24508244193E+03  0.27512098241E+03  0.12500460638E+03 0.  0.
    9000005    1    3    3    0    0 -0.14075762817E+02 -0.11730823476E+02 -0.25403934382E+03  0.25470125152E+03  0.10000000000E+01 0.  0.
    9000005    1    3    3    0    0  0.14075762817E+02  0.11730823476E+02  0.89569018822E+01  0.20419730890E+02  0.10000000000E+01 0.  0.
<mgrwt>
<rscale>  0 0.12500461E+03</rscale>
<asrwt>0</asrwt>
<pdfrwt beam="1">  1        4 0.23106572E-02 0.12500461E+03</pdfrwt>
<pdfrwt beam="2">  1       -4 0.40015645E-01 0.12500461E+03</pdfrwt>
<totfact> 0.78821435E+03</totfact>
</mgrwt>
</event>
<event>
 5    1  0.3273105E-002  0.1249972E+03  0.7818608E-02  0.1235074E+00
          4   -1    0    0  501    0  0.00000000000E+00  0.00000000000E+00  0.10077419666E+03  0.10078219889E+03  0.12700000000E+01 0. -1.
         -4   -1    0    0    0  501 -0.00000000000E+00 -0.00000000000E+00 -0.38740741982E+02  0.38761552978E+02  0.12700000000E+01 0. -1.
         25    2    1    2    0    0  0.00000000000E+00  0.00000000000E+00  0.62033454681E+02  0.13954375187E+03  0.12499723671E+03 0.  0.
    9000005    1    3    3    0    0  0.16359222853E+02 -0.13450059388E+02 -0.34617646118E+02  0.40594453964E+02  0.10000000000E+01 0.  0.
    9000005    1    3    3    0    0 -0.16359222853E+02  0.13450059388E+02  0.96651100799E+02  0.98949297903E+02  0.10000000000E+01 0.  0.
<mgrwt>
<rscale>  0 0.12499724E+03</rscale>
<asrwt>0</asrwt>
<pdfrwt beam="1">  1        4 0.15505939E-01 0.12499724E+03</pdfrwt>
<pdfrwt beam="2">  1       -4 0.59623306E-02 0.12499724E+03</pdfrwt>
<totfact> 0.10143682E+04</totfact>
</mgrwt>
</event>
<event>
 5    1  0.3273105E-002  0.1250013E+03  0.7818608E-02  0.1235067E+00
          4   -1    0    0  501    0  0.00000000000E+00  0.00000000000E+00  0.36087102014E+03  0.36087325486E+03  0.12700000000E+01 0.  1.
         -4   -1    0    0    0  501 -0.00000000000E+00 -0.00000000000E+00 -0.10785207024E+02  0.10859723318E+02  0.12700000000E+01 0.  1.
         25    2    1    2    0    0  0.00000000000E+00  0.00000000000E+00  0.35008581311E+03  0.37173297818E+03  0.12500132209E+03 0.  0.
    9000005    1    3    3    0    0  0.30938202412E+02  0.43685453142E+02  0.79151616184E+02  0.95559246174E+02  0.10000000000E+01 0.  0.
    9000005    1    3    3    0    0 -0.30938202412E+02 -0.43685453142E+02  0.27093419693E+03  0.27617373201E+03  0.10000000000E+01 0.  0.
<mgrwt>
<rscale>  0 0.12500132E+03</rscale>
<asrwt>0</asrwt>
<pdfrwt beam="1">  1        4 0.55524532E-01 0.12500132E+03</pdfrwt>
<pdfrwt beam="2">  1       -4 0.16651663E-02 0.12500132E+03</pdfrwt>
<totfact> 0.67396046E+03</totfact>
</mgrwt>
</event>
<event>
 5    1  0.3273105E-002  0.1250032E+03  0.7818608E-02  0.1235064E+00
          4   -1    0    0  501    0  0.00000000000E+00  0.00000000000E+00  0.85982362460E+02  0.85991741198E+02  0.12700000000E+01 0.  1.
         -4   -1    0    0    0  501 -0.00000000000E+00 -0.00000000000E+00 -0.45412403128E+02  0.45430158022E+02  0.12700000000E+01 0.  1.
         25    2    1    2    0    0  0.00000000000E+00  0.00000000000E+00  0.40569959331E+02  0.13142189922E+03  0.12500317594E+03 0.  0.
    9000005    1    3    3    0    0  0.21387028773E+02 -0.53251084635E+02  0.46301669757E+02  0.73742305610E+02  0.10000000000E+01 0.  0.
    9000005    1    3    3    0    0 -0.21387028773E+02  0.53251084635E+02 -0.57317104250E+01  0.57679593609E+02  0.10000000000E+01 0.  0.
<mgrwt>
<rscale>  0 0.12500318E+03</rscale>
<asrwt>0</asrwt>
<pdfrwt beam="1">  1        4 0.13230143E-01 0.12500318E+03</pdfrwt>
<pdfrwt beam="2">  1       -4 0.69886108E-02 0.12500318E+03</pdfrwt>
<totfact> 0.10313314E+04</totfact>
</mgrwt>
</event>
<event>
 5    1  0.3273105E-002  0.1249998E+03  0.7818608E-02  0.1235070E+00
         -4   -1    0    0    0  501 -0.00000000000E+00  0.00000000000E+00  0.16114575748E+02  0.16164543036E+02  0.12700000000E+01 0.  1.
          4   -1    0    0  501    0  0.00000000000E+00 -0.00000000000E+00 -0.24197711195E+03  0.24198044468E+03  0.12700000000E+01 0.  1.
         25    2    1    2    0    0  0.00000000000E+00  0.00000000000E+00 -0.22586253620E+03  0.25814498771E+03  0.12499979769E+03 0.  0.
    9000005    1    3    3    0    0 -0.28719027517E+02 -0.51583092942E+02 -0.15523634442E+03  0.16608708754E+03  0.10000000000E+01 0.  0.
    9000005    1    3    3    0    0  0.28719027517E+02  0.51583092942E+02 -0.70626191781E+02  0.92057900174E+02  0.10000000000E+01 0.  0.
<mgrwt>
<rscale>  0 0.12499980E+03</rscale>
<asrwt>0</asrwt>
<pdfrwt beam="2">  1        4 0.37231345E-01 0.12499980E+03</pdfrwt>
<pdfrwt beam="1">  1       -4 0.24832657E-02 0.12499980E+03</pdfrwt>
<totfact> 0.81167459E+03</totfact>
</mgrwt>
</event>
<event>
 5    1  0.3273105E-002  0.1250001E+03  0.7818608E-02  0.1235069E+00
          4   -1    0    0  501    0  0.00000000000E+00  0.00000000000E+00  0.55149157879E+02  0.55163779010E+02  0.12700000000E+01 0.  1.
         -4   -1    0    0    0  501 -0.00000000000E+00 -0.00000000000E+00 -0.70801006839E+02  0.70812396297E+02  0.12700000000E+01 0.  1.
         25    2    1    2    0    0  0.00000000000E+00  0.00000000000E+00 -0.15651848960E+02  0.12597617531E+03  0.12500006548E+03 0.  0.
    9000005    1    3    3    0    0  0.46544783383E+02  0.39685919007E+02 -0.20726864773E+02  0.64590958740E+02  0.10000000000E+01 0.  0.
    9000005    1    3    3    0    0 -0.46544783383E+02 -0.39685919007E+02  0.50750158123E+01  0.61385216568E+02  0.10000000000E+01 0.  0.
<mgrwt>
<rscale>  0 0.12500007E+03</rscale>
<asrwt>0</asrwt>
<pdfrwt beam="1">  1        4 0.84864866E-02 0.12500007E+03</pdfrwt>
<pdfrwt beam="2">  1       -4 0.10894463E-01 0.12500007E+03</pdfrwt>
<totfact> 0.10431464E+04</totfact>
</mgrwt>
</event>
<event>
 5    1  0.3273105E-002  0.1250009E+03  0.7818608E-02  0.1235068E+00
         -4   -1    0    0    0  501 -0.00000000000E+00  0.00000000000E+00  0.91789151380E+02  0.91797936856E+02  0.12700000000E+01 0. -1.
          4   -1    0    0  501    0  0.00000000000E+00 -0.00000000000E+00 -0.42537063819E+02  0.42556018356E+02  0.12700000000E+01 0. -1.
         25    2    1    2    0    0  0.00000000000E+00  0.00000000000E+00  0.49252087561E+02  0.13435395521E+03  0.12500086860E+03 0.  0.
    9000005    1    3    3    0    0  0.20749578704E+02 -0.53963962822E+02  0.50121135707E+02  0.76523085042E+02  0.10000000000E+01 0.  0.
    9000005    1    3    3    0    0 -0.20749578704E+02  0.53963962822E+02 -0.86904814538E+00  0.57830870170E+02  0.10000000000E+01 0.  0.
<mgrwt>
<rscale>  0 0.12500087E+03</rscale>
<asrwt>0</asrwt>
<pdfrwt beam="2">  1        4 0.65462976E-02 0.12500087E+03</pdfrwt>
<pdfrwt beam="1">  1       -4 0.14123542E-01 0.12500087E+03</pdfrwt>
<totfact> 0.10251505E+04</totfact>
</mgrwt>
</event>
<event>
 5    1  0.3273105E-002  0.1249964E+03  0.7818608E-02  0.1235075E+00
          4   -1    0    0  501    0  0.00000000000E+00  0.00000000000E+00  0.34168636764E+02  0.34192230672E+02  0.12700000000E+01 0. -1.
         -4   -1    0    0    0  501 -0.00000000000E+00 -0.00000000000E+00 -0.11424952389E+03  0.11425658235E+03  0.12700000000E+01 0. -1.
         25    2    1    2    0    0  0.00000000000E+00  0.00000000000E+00 -0.80080887129E+02  0.14844881302E+03  0.12499640636E+03 0.  0.
    9000005    1    3    3    0    0 -0.35078629712E+02  0.34088596351E+02 -0.86227939273E+02  0.99140305501E+02  0.10000000000E+01 0.  0.
    9000005    1    3    3    0    0  0.35078629712E+02 -0.34088596351E+02  0.61470521441E+01  0.49308507518E+02  0.10000000000E+01 0.  0.
<mgrwt>
<rscale>  0 0.12499641E+03</rscale>
<asrwt>0</asrwt>
<pdfrwt beam="1">  1        4 0.52590713E-02 0.12499641E+03</pdfrwt>
<pdfrwt beam="2">  1       -4 0.17579208E-01 0.12499641E+03</pdfrwt>
<totfact> 0.99621865E+03</totfact>
</mgrwt>
</event>
<event>
 5    1  0.3273105E-002  0.1249974E+03  0.7818608E-02  0.1235073E+00
          4   -1    0    0  501    0  0.00000000000E+00  0.00000000000E+00  0.80307520691E+03  0.80307621111E+03  0.12700000000E+01 0. -1.
         -4   -1    0    0    0  501 -0.00000000000E+00 -0.00000000000E+00 -0.47799844053E+01  0.49458215611E+01  0.12700000000E+01 0. -1.
         25    2    1    2    0    0  0.00000000000E+00  0.00000000000E+00  0.79829522250E+03  0.80802203267E+03  0.12499737202E+03 0.  0.
    9000005    1    3    3    0    0  0.49899564524E+02  0.16010008262E+02  0.61920013215E+03  0.62141458830E+03  0.10000000000E+01 0.  0.
    9000005    1    3    3    0    0 -0.49899564524E+02 -0.16010008262E+02  0.17909509036E+03  0.18660744437E+03  0.10000000000E+01 0.  0.
<mgrwt>
<rscale>  0 0.12499737E+03</rscale>
<asrwt>0</asrwt>
<pdfrwt beam="1">  1        4 0.12356291E+00 0.12499737E+03</pdfrwt>
<pdfrwt beam="2">  1       -4 0.74821592E-03 0.12499737E+03</pdfrwt>
<totfact> 0.37911264E+03</totfact>
</mgrwt>
</event>
<event>
 5    1  0.3273105E-002  0.1250011E+03  0.7818608E-02  0.1235068E+00
         -4   -1    0    0    0  501 -0.00000000000E+00  0.00000000000E+00  0.12164662446E+02  0.12230777262E+02  0.12700000000E+01 0.  1.
          4   -1    0    0  501    0  0.00000000000E+00 -0.00000000000E+00 -0.32018237691E+03  0.32018489562E+03  0.12700000000E+01 0.  1.
         25    2    1    2    0    0  0.00000000000E+00  0.00000000000E+00 -0.30801771447E+03  0.33241567289E+03  0.12500106861E+03 0.  0.
    9000005    1    3    3    0    0 -0.43166242671E+02 -0.44377013202E+02 -0.13133871446E+03  0.14520158995E+03  0.10000000000E+01 0.  0.
    9000005    1    3    3    0    0  0.43166242671E+02  0.44377013202E+02 -0.17667900001E+03  0.18721408294E+03  0.10000000000E+01 0.  0.
<mgrwt>
<rscale>  0 0.12500107E+03</rscale>
<asrwt>0</asrwt>
<pdfrwt beam="2">  1        4 0.49264100E-01 0.12500107E+03</pdfrwt>
<pdfrwt beam="1">  1       -4 0.18767663E-02 0.12500107E+03</pdfrwt>
<totfact> 0.71701684E+03</totfact>
</mgrwt>
</event>
<event>
 5    1  0.3273105E-002  0.1250022E+03  0.7818608E-02  0.1235066E+00
         -4   -1    0    0    0  501 -0.00000000000E+00  0.00000000000E+00  0.58344142333E+01  0.59710375519E+01  0.12700000000E+01 0. -1.
          4   -1    0    0  501    0  0.00000000000E+00 -0.00000000000E+00 -0.66165656142E+03  0.66165778025E+03  0.12700000000E+01 0. -1.
         25    2    1    2    0    0  0.00000000000E+00  0.00000000000E+00 -0.65582214719E+03  0.66762881781E+03  0.12500219848E+03 0.  0.
    9000005    1    3    3    0    0  0.25900425930E+02 -0.56866133146E+02 -0.32313924166E+03  0.32912696435E+03  0.10000000000E+01 0.  0.
    9000005    1    3    3    0    0 -0.25900425930E+02  0.56866133146E+02 -0.33268290553E+03  0.33850185346E+03  0.10000000000E+01 0.  0.
<mgrwt>
<rscale>  0 0.12500220E+03</rscale>
<asrwt>0</asrwt>
<pdfrwt beam="2">  1        4 0.10180386E+00 0.12500220E+03</pdfrwt>
<pdfrwt beam="1">  1       -4 0.90820596E-03 0.12500220E+03</pdfrwt>
<totfact> 0.44849320E+03</totfact>
</mgrwt>
</event>
<event>
 5    1  0.3273105E-002  0.1249881E+03  0.7818608E-02  0.1235088E+00
         -4   -1    0    0    0  501 -0.00000000000E+00  0.00000000000E+00  0.24307607267E+03  0.24307939033E+03  0.12700000000E+01 0. -1.
          4   -1    0    0  501    0  0.00000000000E+00 -0.00000000000E+00 -0.16038494564E+02  0.16088698142E+02  0.12700000000E+01 0. -1.
         25    2    1    2    0    0  0.00000000000E+00  0.00000000000E+00  0.22703757810E+03  0.25916808847E+03  0.12498814428E+03 0.  0.
    9000005    1    3    3    0    0 -0.46098334136E+02 -0.34846380258E+02  0.16281426113E+03  0.17276808228E+03  0.10000000000E+01 0.  0.
    9000005    1    3    3    0    0  0.46098334136E+02  0.34846380258E+02  0.64223316975E+02  0.86400006195E+02  0.10000000000E+01 0.  0.
<mgrwt>
<rscale>  0 0.12498814E+03</rscale>
<asrwt>0</asrwt>
<pdfrwt beam="2">  1        4 0.24715779E-02 0.12498814E+03</pdfrwt>
<pdfrwt beam="1">  1       -4 0.37400434E-01 0.12498814E+03</pdfrwt>
<totfact> 0.81044338E+03</totfact>
</mgrwt>
</event>
<event>
 5    1  0.3273105E-002  0.1249967E+03  0.7818608E-02  0.1235074E+00
          4   -1    0    0  501    0  0.00000000000E+00  0.00000000000E+00  0.88987288823E+02  0.88996350892E+02  0.12700000000E+01 0. -1.
         -4   -1    0    0    0  501 -0.00000000000E+00 -0.00000000000E+00 -0.43873929388E+02  0.43892306614E+02  0.12700000000E+01 0. -1.
         25    2    1    2    0    0  0.00000000000E+00  0.00000000000E+00  0.45113359435E+02  0.13288865751E+03  0.12499672033E+03 0.  0.
    9000005    1    3    3    0    0 -0.14850413761E+02  0.24213201360E+02  0.81732760894E+02  0.86533566391E+02  0.10000000000E+01 0.  0.
    9000005    1    3    3    0    0  0.14850413761E+02 -0.24213201360E+02 -0.36619401459E+02  0.46355091114E+02  0.10000000000E+01 0.  0.
<mgrwt>
<rscale>  0 0.12499672E+03</rscale>
<asrwt>0</asrwt>
<pdfrwt beam="1">  1        4 0.13692463E-01 0.12499672E+03</pdfrwt>
<pdfrwt beam="2">  1       -4 0.67519461E-02 0.12499672E+03</pdfrwt>
<totfact> 0.10283528E+04</totfact>
</mgrwt>
</event>
<event>
 5    1  0.3273105E-002  0.1249983E+03  0.7818608E-02  0.1235072E+00
         -4   -1    0    0    0  501 -0.00000000000E+00  0.00000000000E+00  0.13917139566E+04  0.13917145360E+04  0.12700000000E+01 0.  1.
          4   -1    0    0  501    0  0.00000000000E+00 -0.00000000000E+00 -0.26624404541E+01  0.29498286682E+01  0.12700000000E+01 0.  1.
         25    2    1    2    0    0  0.00000000000E+00  0.00000000000E+00  0.13890515161E+04  0.13946643647E+04  0.12499830299E+03 0.  0.
    9000005    1    3    3    0    0  0.42248140743E+02 -0.34679935242E+02  0.10324958270E+04  0.10339420854E+04  0.10000000000E+01 0.  0.
    9000005    1    3    3    0    0 -0.42248140743E+02  0.34679935242E+02  0.35655568913E+03  0.36072227926E+03  0.10000000000E+01 0.  0.
<mgrwt>
<rscale>  0 0.12499830E+03</rscale>
<asrwt>0</asrwt>
<pdfrwt beam="2">  1        4 0.43175629E-03 0.12499830E+03</pdfrwt>
<pdfrwt beam="1">  1       -4 0.21413263E+00 0.12499830E+03</pdfrwt>
<totfact> 0.20096370E+03</totfact>
</mgrwt>
</event>
<event>
 5    1  0.3273105E-002  0.1250019E+03  0.7818608E-02  0.1235066E+00
         -4   -1    0    0    0  501 -0.00000000000E+00  0.00000000000E+00  0.43270756350E+02  0.43289389636E+02  0.12700000000E+01 0.  1.
          4   -1    0    0  501    0  0.00000000000E+00 -0.00000000000E+00 -0.90234802587E+02  0.90243739384E+02  0.12700000000E+01 0.  1.
         25    2    1    2    0    0  0.00000000000E+00  0.00000000000E+00 -0.46964046237E+02  0.13353312902E+03  0.12500189961E+03 0.  0.
    9000005    1    3    3    0    0 -0.58018362800E+02 -0.23133897177E+02 -0.21329268220E+02  0.66009433442E+02  0.10000000000E+01 0.  0.
    9000005    1    3    3    0    0  0.58018362800E+02  0.23133897177E+02 -0.25634778018E+02  0.67523695578E+02  0.10000000000E+01 0.  0.
<mgrwt>
<rscale>  0 0.12500190E+03</rscale>
<asrwt>0</asrwt>
<pdfrwt beam="2">  1        4 0.13884398E-01 0.12500190E+03</pdfrwt>
<pdfrwt beam="1">  1       -4 0.66591602E-02 0.12500190E+03</pdfrwt>
<totfact> 0.10268642E+04</totfact>
</mgrwt>
</event>
<event>
 5    1  0.3273105E-002  0.1249999E+03  0.7818608E-02  0.1235069E+00
          4   -1    0    0  501    0  0.00000000000E+00  0.00000000000E+00  0.34222672671E+02  0.34246229350E+02  0.12700000000E+01 0.  1.
         -4   -1    0    0    0  501 -0.00000000000E+00 -0.00000000000E+00 -0.11407560513E+03  0.11408267435E+03  0.12700000000E+01 0.  1.
         25    2    1    2    0    0  0.00000000000E+00  0.00000000000E+00 -0.79852932463E+02  0.14832890370E+03  0.12499989140E+03 0.  0.
    9000005    1    3    3    0    0 -0.14629318505E+02 -0.31482067040E+02 -0.10158689418E+03  0.10735937115E+03  0.10000000000E+01 0.  0.
    9000005    1    3    3    0    0  0.14629318505E+02  0.31482067040E+02  0.21733961718E+02  0.40969532546E+02  0.10000000000E+01 0.  0.
<mgrwt>
<rscale>  0 0.12499989E+03</rscale>
<asrwt>0</asrwt>
<pdfrwt beam="1">  1        4 0.52673825E-02 0.12499989E+03</pdfrwt>
<pdfrwt beam="2">  1       -4 0.17552449E-01 0.12499989E+03</pdfrwt>
<totfact> 0.99638098E+03</totfact>
</mgrwt>
</event>
<event>
 5    1  0.3273105E-002  0.1250057E+03  0.7818608E-02  0.1235060E+00
         -4   -1    0    0    0  501 -0.00000000000E+00  0.00000000000E+00  0.10902749174E+02  0.10976467535E+02  0.12700000000E+01 0.  1.
          4   -1    0    0  501    0  0.00000000000E+00 -0.00000000000E+00 -0.35703196227E+03  0.35703422103E+03  0.12700000000E+01 0.  1.
         25    2    1    2    0    0  0.00000000000E+00  0.00000000000E+00 -0.34612921310E+03  0.36801068856E+03  0.12500573881E+03 0.  0.
    9000005    1    3    3    0    0 -0.54401725673E+02 -0.29863616456E+02 -0.15138598704E+03  0.16361570956E+03  0.10000000000E+01 0.  0.
    9000005    1    3    3    0    0  0.54401725673E+02  0.29863616456E+02 -0.19474322606E+03  0.20439497900E+03  0.10000000000E+01 0.  0.
<mgrwt>
<rscale>  0 0.12500574E+03</rscale>
<asrwt>0</asrwt>
<pdfrwt beam="2">  1        4 0.54933830E-01 0.12500574E+03</pdfrwt>
<pdfrwt beam="1">  1       -4 0.16831907E-02 0.12500574E+03</pdfrwt>
<totfact> 0.67778974E+03</totfact>
</mgrwt>
</event>
<event>
 5    1  0.3273105E-002  0.1250004E+03  0.7818608E-02  0.1235069E+00
          4   -1    0    0  501    0  0.00000000000E+00  0.00000000000E+00  0.87017311673E+01  0.87939197920E+01  0.12700000000E+01 0. -1.
         -4   -1    0    0    0  501 -0.00000000000E+00 -0.00000000000E+00 -0.44644954475E+03  0.44645135111E+03  0.12700000000E+01 0. -1.
         25    2    1    2    0    0  0.00000000000E+00  0.00000000000E+00 -0.43774781358E+03  0.45524527090E+03  0.12500043353E+03 0.  0.
    9000005    1    3    3    0    0 -0.36925374015E+02 -0.49523080274E+02 -0.25328182507E+03  0.26070807743E+03  0.10000000000E+01 0.  0.
    9000005    1    3    3    0    0  0.36925374015E+02  0.49523080274E+02 -0.18446598851E+03  0.19453719347E+03  0.10000000000E+01 0.  0.
<mgrwt>
<rscale>  0 0.12500043E+03</rscale>
<asrwt>0</asrwt>
<pdfrwt beam="1">  1        4 0.13459586E-02 0.12500043E+03</pdfrwt>
<pdfrwt beam="2">  1       -4 0.68691758E-01 0.12500043E+03</pdfrwt>
<totfact> 0.59511515E+03</totfact>
</mgrwt>
</event>
<event>
 5    1  0.3273105E-002  0.1249994E+03  0.7818608E-02  0.1235070E+00
         -4   -1    0    0    0  501 -0.00000000000E+00  0.00000000000E+00  0.15217792036E+03  0.15218321965E+03  0.12700000000E+01 0.  1.
          4   -1    0    0  501    0  0.00000000000E+00 -0.00000000000E+00 -0.25647269188E+02  0.25678693830E+02  0.12700000000E+01 0.  1.
         25    2    1    2    0    0  0.00000000000E+00  0.00000000000E+00  0.12653065117E+03  0.17786191348E+03  0.12499941833E+03 0.  0.
    9000005    1    3    3    0    0  0.20459344604E+01  0.52881268586E+02  0.11055619914E+03  0.12257360068E+03  0.10000000000E+01 0.  0.
    9000005    1    3    3    0    0 -0.20459344604E+01 -0.52881268586E+02  0.15974452027E+02  0.55288312804E+02  0.10000000000E+01 0.  0.
<mgrwt>
<rscale>  0 0.12499942E+03</rscale>
<asrwt>0</asrwt>
<pdfrwt beam="2">  1        4 0.39485587E-02 0.12499942E+03</pdfrwt>
<pdfrwt beam="1">  1       -4 0.23414812E-01 0.12499942E+03</pdfrwt>
<totfact> 0.94004514E+03</totfact>
</mgrwt>
</event>
<event>
 5    1  0.3273105E-002  0.1250011E+03  0.7818608E-02  0.1235068E+00
          4   -1    0    0  501    0  0.00000000000E+00  0.00000000000E+00  0.11182418293E+03  0.11183139447E+03  0.12700000000E+01 0.  1.
         -4   -1    0    0    0  501 -0.00000000000E+00 -0.00000000000E+00 -0.34912793138E+02  0.34935884484E+02  0.12700000000E+01 0.  1.
         25    2    1    2    0    0  0.00000000000E+00  0.00000000000E+00  0.76911389797E+02  0.14676727895E+03  0.12500108916E+03 0.  0.
    9000005    1    3    3    0    0 -0.30485196074E+02 -0.14558714907E+02 -0.23272790453E+02  0.41035669056E+02  0.10000000000E+01 0.  0.
    9000005    1    3    3    0    0  0.30485196074E+02  0.14558714907E+02  0.10018418025E+03  0.10573160990E+03  0.10000000000E+01 0.  0.
<mgrwt>
<rscale>  0 0.12500109E+03</rscale>
<asrwt>0</asrwt>
<pdfrwt beam="1">  1        4 0.17206052E-01 0.12500109E+03</pdfrwt>
<pdfrwt beam="2">  1       -4 0.53735299E-02 0.12500109E+03</pdfrwt>
<totfact> 0.99949590E+03</totfact>
</mgrwt>
</event>
<event>
 5    1  0.3273105E-002  0.1249996E+03  0.7818608E-02  0.1235070E+00
          4   -1    0    0  501    0  0.00000000000E+00  0.00000000000E+00  0.22056377393E+04  0.22056381049E+04  0.12700000000E+01 0.  1.
         -4   -1    0    0    0  501 -0.00000000000E+00 -0.00000000000E+00 -0.15429271390E+01  0.19983803833E+01  0.12700000000E+01 0.  1.
         25    2    1    2    0    0  0.00000000000E+00  0.00000000000E+00  0.22040948122E+04  0.22076364853E+04  0.12499964118E+03 0.  0.
    9000005    1    3    3    0    0  0.50841115037E+02 -0.65599369792E+01  0.17332636150E+04  0.17340218023E+04  0.10000000000E+01 0.  0.
    9000005    1    3    3    0    0 -0.50841115037E+02  0.65599369792E+01  0.47083119713E+03  0.47361468299E+03  0.10000000000E+01 0.  0.
<mgrwt>
<rscale>  0 0.12499964E+03</rscale>
<asrwt>0</asrwt>
<pdfrwt beam="1">  1        4 0.33936416E+00 0.12499964E+03</pdfrwt>
<pdfrwt beam="2">  1       -4 0.27243622E-03 0.12499964E+03</pdfrwt>
<totfact> 0.73888389E+02</totfact>
</mgrwt>
</event>
<event>
 5    1  0.3273105E-002  0.1250001E+03  0.7818608E-02  0.1235069E+00
         -4   -1    0    0    0  501 -0.00000000000E+00  0.00000000000E+00  0.50962750059E+02  0.50978571906E+02  0.12700000000E+01 0.  1.
          4   -1    0    0  501    0  0.00000000000E+00 -0.00000000000E+00 -0.76616220610E+02  0.76626745726E+02  0.12700000000E+01 0.  1.
         25    2    1    2    0    0  0.00000000000E+00  0.00000000000E+00 -0.25653470550E+02  0.12760531763E+03  0.12500006615E+03 0.  0.
    9000005    1    3    3    0    0 -0.16917118305E+02 -0.72710329640E+01 -0.73789017173E+02  0.76058371449E+02  0.10000000000E+01 0.  0.
    9000005    1    3    3    0    0  0.16917118305E+02  0.72710329640E+01  0.48135546623E+02  0.51546946183E+02  0.10000000000E+01 0.  0.
<mgrwt>
<rscale>  0 0.12500007E+03</rscale>
<asrwt>0</asrwt>
<pdfrwt beam="2">  1        4 0.11789138E-01 0.12500007E+03</pdfrwt>
<pdfrwt beam="1">  1       -4 0.78424498E-02 0.12500007E+03</pdfrwt>
<totfact> 0.10396005E+04</totfact>
</mgrwt>
</event>
<event>
 5    1  0.3273105E-002  0.1250055E+03  0.7818608E-02  0.1235061E+00
         -4   -1    0    0    0  501 -0.00000000000E+00  0.00000000000E+00  0.11755361662E+03  0.11756047670E+03  0.12700000000E+01 0.  1.
          4   -1    0    0  501    0  0.00000000000E+00 -0.00000000000E+00 -0.33212477148E+02  0.33236749815E+02  0.12700000000E+01 0.  1.
         25    2    1    2    0    0  0.00000000000E+00  0.00000000000E+00  0.84341139476E+02  0.15079722651E+03  0.12500550274E+03 0.  0.
    9000005    1    3    3    0    0  0.13015294024E+02  0.28283462211E+02 -0.23196667916E+02  0.38838608569E+02  0.10000000000E+01 0.  0.
    9000005    1    3    3    0    0 -0.13015294024E+02 -0.28283462211E+02  0.10753780739E+03  0.11195861794E+03  0.10000000000E+01 0.  0.
<mgrwt>
<rscale>  0 0.12500550E+03</rscale>
<asrwt>0</asrwt>
<pdfrwt beam="2">  1        4 0.51120066E-02 0.12500550E+03</pdfrwt>
<pdfrwt beam="1">  1       -4 0.18087567E-01 0.12500550E+03</pdfrwt>
<totfact> 0.99132743E+03</totfact>
</mgrwt>
</event>
<event>
 5    1  0.3273105E-002  0.1250040E+03  0.7818608E-02  0.1235063E+00
          4   -1    0    0  501    0  0.00000000000E+00  0.00000000000E+00  0.42240567879E+02  0.42259655403E+02  0.12700000000E+01 0.  1.
         -4   -1    0    0    0  501 -0.00000000000E+00 -0.00000000000E+00 -0.92437819454E+02  0.92446543285E+02  0.12700000000E+01 0.  1.
         25    2    1    2    0    0  0.00000000000E+00  0.00000000000E+00 -0.50197251575E+02  0.13470619869E+03  0.12500398353E+03 0.  0.
    9000005    1    3    3    0    0 -0.87102652920E+00 -0.60758785308E+02 -0.40829973973E+02  0.73215267901E+02  0.10000000000E+01 0.  0.
    9000005    1    3    3    0    0  0.87102652920E+00  0.60758785308E+02 -0.93672776021E+01  0.61490930786E+02  0.10000000000E+01 0.  0.
<mgrwt>
<rscale>  0 0.12500398E+03</rscale>
<asrwt>0</asrwt>
<pdfrwt beam="1">  1        4 0.65006883E-02 0.12500398E+03</pdfrwt>
<pdfrwt beam="2">  1       -4 0.14223342E-01 0.12500398E+03</pdfrwt>
<totfact> 0.10243347E+04</totfact>
</mgrwt>
</event>
<event>
 5    1  0.3273105E-002  0.1249986E+03  0.7818608E-02  0.1235071E+00
          4   -1    0    0  501    0  0.00000000000E+00  0.00000000000E+00  0.28878744243E+03  0.28879023496E+03  0.12700000000E+01 0. -1.
         -4   -1    0    0    0  501 -0.00000000000E+00 -0.00000000000E+00 -0.13493413628E+02  0.13553048046E+02  0.12700000000E+01 0. -1.
         25    2    1    2    0    0  0.00000000000E+00  0.00000000000E+00  0.27529402881E+03  0.30234328300E+03  0.12499863392E+03 0.  0.
    9000005    1    3    3    0    0 -0.29383903887E+02  0.38508508067E+02  0.42148500969E+02  0.64216938070E+02  0.10000000000E+01 0.  0.
    9000005    1    3    3    0    0  0.29383903887E+02 -0.38508508067E+02  0.23314552784E+03  0.23812634493E+03  0.10000000000E+01 0.  0.
<mgrwt>
<rscale>  0 0.12499863E+03</rscale>
<asrwt>0</asrwt>
<pdfrwt beam="1">  1        4 0.44433642E-01 0.12499863E+03</pdfrwt>
<pdfrwt beam="2">  1       -4 0.20807117E-02 0.12499863E+03</pdfrwt>
<totfact> 0.75308118E+03</totfact>
</mgrwt>
</event>
<event>
 5    1  0.3273105E-002  0.1250008E+03  0.7818608E-02  0.1235068E+00
          4   -1    0    0  501    0  0.00000000000E+00  0.00000000000E+00  0.21456352191E+04  0.21456355950E+04  0.12700000000E+01 0. -1.
         -4   -1    0    0    0  501 -0.00000000000E+00 -0.00000000000E+00 -0.15986755515E+01  0.20417305206E+01  0.12700000000E+01 0. -1.
         25    2    1    2    0    0  0.00000000000E+00  0.00000000000E+00  0.21440365435E+04  0.21476773255E+04  0.12500077718E+03 0.  0.
    9000005    1    3    3    0    0 -0.20936085448E+02  0.72486812181E+01  0.68059735545E+02  0.71582055403E+02  0.10000000000E+01 0.  0.
    9000005    1    3    3    0    0  0.20936085448E+02 -0.72486812181E+01  0.20759768080E+04  0.20760952701E+04  0.10000000000E+01 0.  0.
<mgrwt>
<rscale>  0 0.12500078E+03</rscale>
<asrwt>0</asrwt>
<pdfrwt beam="1">  1        4 0.33013208E+00 0.12500078E+03</pdfrwt>
<pdfrwt beam="2">  1       -4 0.28005994E-03 0.12500078E+03</pdfrwt>
<totfact> 0.80545933E+02</totfact>
</mgrwt>
</event>
<event>
 5    1  0.3273105E-002  0.1249975E+03  0.7818608E-02  0.1235073E+00
         -4   -1    0    0    0  501 -0.00000000000E+00  0.00000000000E+00  0.18648258217E+02  0.18691453515E+02  0.12700000000E+01 0. -1.
          4   -1    0    0  501    0  0.00000000000E+00 -0.00000000000E+00 -0.20917425161E+03  0.20917810697E+03  0.12700000000E+01 0. -1.
         25    2    1    2    0    0  0.00000000000E+00  0.00000000000E+00 -0.19052599339E+03  0.22786956049E+03  0.12499752973E+03 0.  0.
    9000005    1    3    3    0    0 -0.59370841516E+02  0.17990021329E+02 -0.81553181563E+02  0.10247174788E+03  0.10000000000E+01 0.  0.
    9000005    1    3    3    0    0  0.59370841516E+02 -0.17990021329E+02 -0.10897281183E+03  0.12539781261E+03  0.10000000000E+01 0.  0.
<mgrwt>
<rscale>  0 0.12499753E+03</rscale>
<asrwt>0</asrwt>
<pdfrwt beam="2">  1        4 0.32184272E-01 0.12499753E+03</pdfrwt>
<pdfrwt beam="1">  1       -4 0.28725822E-02 0.12499753E+03</pdfrwt>
<totfact> 0.85642527E+03</totfact>
</mgrwt>
</event>
<event>
 5    1  0.3273105E-002  0.1250014E+03  0.7818608E-02  0.1235067E+00
          4   -1    0    0  501    0  0.00000000000E+00  0.00000000000E+00  0.10385324196E+02  0.10462688883E+02  0.12700000000E+01 0.  1.
         -4   -1    0    0    0  501 -0.00000000000E+00 -0.00000000000E+00 -0.37466592216E+03  0.37466807460E+03  0.12700000000E+01 0.  1.
         25    2    1    2    0    0  0.00000000000E+00  0.00000000000E+00 -0.36428059796E+03  0.38513076348E+03  0.12500140372E+03 0.  0.
    9000005    1    3    3    0    0  0.12348238566E+02 -0.50165308966E+02 -0.73808652099E+02  0.90098581254E+02  0.10000000000E+01 0.  0.
    9000005    1    3    3    0    0 -0.12348238566E+02  0.50165308966E+02 -0.29047194586E+03  0.29503218223E+03  0.10000000000E+01 0.  0.
<mgrwt>
<rscale>  0 0.12500140E+03</rscale>
<asrwt>0</asrwt>
<pdfrwt beam="1">  1        4 0.16038592E-02 0.12500140E+03</pdfrwt>
<pdfrwt beam="2">  1       -4 0.57647017E-01 0.12500140E+03</pdfrwt>
<totfact> 0.66023067E+03</totfact>
</mgrwt>
</event>
<event>
 5    1  0.3273105E-002  0.1249979E+03  0.7818608E-02  0.1235073E+00
          4   -1    0    0  501    0  0.00000000000E+00  0.00000000000E+00  0.47238923401E+02  0.47255992044E+02  0.12700000000E+01 0. -1.
         -4   -1    0    0    0  501 -0.00000000000E+00 -0.00000000000E+00 -0.82651644098E+02  0.82661400738E+02  0.12700000000E+01 0. -1.
         25    2    1    2    0    0  0.00000000000E+00  0.00000000000E+00 -0.35412720697E+02  0.12991739278E+03  0.12499787262E+03 0.  0.
    9000005    1    3    3    0    0 -0.39539886406E+02 -0.37861579529E+00  0.32587890892E+02  0.51249552190E+02  0.10000000000E+01 0.  0.
    9000005    1    3    3    0    0  0.39539886406E+02  0.37861579529E+00 -0.68000611589E+02  0.78667840592E+02  0.10000000000E+01 0.  0.
<mgrwt>
<rscale>  0 0.12499787E+03</rscale>
<asrwt>0</asrwt>
<pdfrwt beam="1">  1        4 0.72695902E-02 0.12499787E+03</pdfrwt>
<pdfrwt beam="2">  1       -4 0.12717701E-01 0.12499787E+03</pdfrwt>
<totfact> 0.10346772E+04</totfact>
</mgrwt>
</event>
<event>
 5    1  0.3273105E-002  0.1250042E+03  0.7818608E-02  0.1235063E+00
         -4   -1    0    0    0  501 -0.00000000000E+00  0.00000000000E+00  0.91925816991E+02  0.91934589408E+02  0.12700000000E+01 0.  1.
          4   -1    0    0  501    0  0.00000000000E+00 -0.00000000000E+00 -0.42476067440E+02  0.42495049184E+02  0.12700000000E+01 0.  1.
         25    2    1    2    0    0  0.00000000000E+00  0.00000000000E+00  0.49449749552E+02  0.13442963859E+03  0.12500419993E+03 0.  0.
    9000005    1    3    3    0    0  0.55648491203E+02 -0.28060305220E+02  0.29697043034E+02  0.69043824251E+02  0.10000000000E+01 0.  0.
    9000005    1    3    3    0    0 -0.55648491203E+02  0.28060305220E+02  0.19752706518E+02  0.65385814341E+02  0.10000000000E+01 0.  0.
<mgrwt>
<rscale>  0 0.12500420E+03</rscale>
<asrwt>0</asrwt>
<pdfrwt beam="2">  1        4 0.65369146E-02 0.12500420E+03</pdfrwt>
<pdfrwt beam="1">  1       -4 0.14144568E-01 0.12500420E+03</pdfrwt>
<totfact> 0.10249136E+04</totfact>
</mgrwt>
</event>
<event>
 5    1  0.3273105E-002  0.1250026E+03  0.7818608E-02  0.1235065E+00
         -4   -1    0    0    0  501 -0.00000000000E+00  0.00000000000E+00  0.16639323236E+02  0.16687719369E+02  0.12700000000E+01 0.  1.
          4   -1    0    0  501    0  0.00000000000E+00 -0.00000000000E+00 -0.23437891357E+03  0.23438235434E+03  0.12700000000E+01 0.  1.
         25    2    1    2    0    0  0.00000000000E+00  0.00000000000E+00 -0.21773959034E+03  0.25107007371E+03  0.12500261083E+03 0.  0.
    9000005    1    3    3    0    0  0.51245001175E+02 -0.22838828003E+02 -0.16415884370E+03  0.17348425916E+03  0.10000000000E+01 0.  0.
    9000005    1    3    3    0    0 -0.51245001175E+02  0.22838828003E+02 -0.53580746631E+02  0.77585814551E+02  0.10000000000E+01 0.  0.
<mgrwt>
<rscale>  0 0.12500261E+03</rscale>
<asrwt>0</asrwt>
<pdfrwt beam="2">  1        4 0.36062279E-01 0.12500261E+03</pdfrwt>
<pdfrwt beam="1">  1       -4 0.25638835E-02 0.12500261E+03</pdfrwt>
<totfact> 0.82171037E+03</totfact>
</mgrwt>
</event>
<event>
 5    1  0.3273105E-002  0.1250042E+03  0.7818608E-02  0.1235063E+00
         -4   -1    0    0    0  501 -0.00000000000E+00  0.00000000000E+00  0.21973527095E+03  0.21973894102E+03  0.12700000000E+01 0.  1.
          4   -1    0    0  501    0  0.00000000000E+00 -0.00000000000E+00 -0.17751751131E+02  0.17797122470E+02  0.12700000000E+01 0.  1.
         25    2    1    2    0    0  0.00000000000E+00  0.00000000000E+00  0.20198351982E+03  0.23753606349E+03  0.12500415665E+03 0.  0.
    9000005    1    3    3    0    0  0.14182490709E+02  0.55456229233E+02  0.53335359394E+02  0.78244469231E+02  0.10000000000E+01 0.  0.
    9000005    1    3    3    0    0 -0.14182490709E+02 -0.55456229233E+02  0.14864816043E+03  0.15929159426E+03  0.10000000000E+01 0.  0.
<mgrwt>
<rscale>  0 0.12500416E+03</rscale>
<asrwt>0</asrwt>
<pdfrwt beam="2">  1        4 0.27348110E-02 0.12500416E+03</pdfrwt>
<pdfrwt beam="1">  1       -4 0.33809200E-01 0.12500416E+03</pdfrwt>
<totfact> 0.84157898E+03</totfact>
</mgrwt>
</event>
<event>
 5    1  0.3273105E-002  0.1250013E+03  0.7818608E-02  0.1235067E+00
          4   -1    0    0  501    0  0.00000000000E+00  0.00000000000E+00  0.37929269739E+02  0.37950525727E+02  0.12700000000E+01 0.  1.
         -4   -1    0    0    0  501 -0.00000000000E+00 -0.00000000000E+00 -0.10293592788E+03  0.10294376207E+03  0.12700000000E+01 0.  1.
         25    2    1    2    0    0  0.00000000000E+00  0.00000000000E+00 -0.65006658144E+02  0.14089428780E+03  0.12500133892E+03 0.  0.
    9000005    1    3    3    0    0 -0.29189073427E+02  0.19061744981E+02 -0.90962596956E+02  0.97419434274E+02  0.10000000000E+01 0.  0.
    9000005    1    3    3    0    0  0.29189073427E+02 -0.19061744981E+02  0.25955938812E+02  0.43474853523E+02  0.10000000000E+01 0.  0.
<mgrwt>
<rscale>  0 0.12500134E+03</rscale>
<asrwt>0</asrwt>
<pdfrwt beam="1">  1        4 0.58375100E-02 0.12500134E+03</pdfrwt>
<pdfrwt beam="2">  1       -4 0.15838534E-01 0.12500134E+03</pdfrwt>
<totfact> 0.10114780E+04</totfact>
</mgrwt>
</event>
<event>
 5    1  0.3273105E-002  0.1250021E+03  0.7818608E-02  0.1235066E+00
          4   -1    0    0  501    0  0.00000000000E+00  0.00000000000E+00  0.17967423438E+04  0.17967427927E+04  0.12700000000E+01 0.  1.
         -4   -1    0    0    0  501 -0.00000000000E+00 -0.00000000000E+00 -0.19881968007E+01  0.23592003981E+01  0.12700000000E+01 0.  1.
         25    2    1    2    0    0  0.00000000000E+00  0.00000000000E+00  0.17947541470E+04  0.17991019931E+04  0.12500213271E+03 0.  0.
    9000005    1    3    3    0    0  0.46258046200E+01  0.12605209757E+02  0.17758067009E+04  0.17758577444E+04  0.10000000000E+01 0.  0.
    9000005    1    3    3    0    0 -0.46258046200E+01 -0.12605209757E+02  0.18947446135E+02  0.23244248675E+02  0.10000000000E+01 0.  0.
<mgrwt>
<rscale>  0 0.12500213E+03</rscale>
<asrwt>0</asrwt>
<pdfrwt beam="1">  1        4 0.27645087E+00 0.12500213E+03</pdfrwt>
<pdfrwt beam="2">  1       -4 0.33444921E-03 0.12500213E+03</pdfrwt>
<totfact> 0.12716693E+03</totfact>
</mgrwt>
</event>
<event>
 5    1  0.3273105E-002  0.1249989E+03  0.7818608E-02  0.1235071E+00
          4   -1    0    0  501    0  0.00000000000E+00  0.00000000000E+00  0.68211772497E+01  0.69383974426E+01  0.12700000000E+01 0.  1.
         -4   -1    0    0    0  501 -0.00000000000E+00 -0.00000000000E+00 -0.56765861800E+03  0.56766003866E+03  0.12700000000E+01 0.  1.
         25    2    1    2    0    0  0.00000000000E+00  0.00000000000E+00 -0.56083744075E+03  0.57459843610E+03  0.12499891128E+03 0.  0.
    9000005    1    3    3    0    0 -0.41605665906E+02  0.33146577843E+02 -0.12966976546E+03  0.14016053344E+03  0.10000000000E+01 0.  0.
    9000005    1    3    3    0    0  0.41605665906E+02 -0.33146577843E+02 -0.43116767529E+03  0.43443790266E+03  0.10000000000E+01 0.  0.
<mgrwt>
<rscale>  0 0.12499891E+03</rscale>
<asrwt>0</asrwt>
<pdfrwt beam="1">  1        4 0.10585385E-02 0.12499891E+03</pdfrwt>
<pdfrwt beam="2">  1       -4 0.87341184E-01 0.12499891E+03</pdfrwt>
<totfact> 0.50512539E+03</totfact>
</mgrwt>
</event>
<event>
 5    1  0.3273105E-002  0.1250013E+03  0.7818608E-02  0.1235067E+00
          4   -1    0    0  501    0  0.00000000000E+00  0.00000000000E+00  0.29292830863E+03  0.29293106168E+03  0.12700000000E+01 0. -1.
         -4   -1    0    0    0  501 -0.00000000000E+00 -0.00000000000E+00 -0.13302398751E+02  0.13362885637E+02  0.12700000000E+01 0. -1.
         25    2    1    2    0    0  0.00000000000E+00  0.00000000000E+00  0.27962590988E+03  0.30629394732E+03  0.12500133074E+03 0.  0.
    9000005    1    3    3    0    0 -0.25653909132E+02  0.55507328730E+02  0.10822878445E+03  0.12431273620E+03  0.10000000000E+01 0.  0.
    9000005    1    3    3    0    0  0.25653909132E+02 -0.55507328730E+02  0.17139712542E+03  0.18198121112E+03  0.10000000000E+01 0.  0.
<mgrwt>
<rscale>  0 0.12500133E+03</rscale>
<asrwt>0</asrwt>
<pdfrwt beam="1">  1        4 0.45070755E-01 0.12500133E+03</pdfrwt>
<pdfrwt beam="2">  1       -4 0.20513876E-02 0.12500133E+03</pdfrwt>
<totfact> 0.74813851E+03</totfact>
</mgrwt>
</event>
<event>
 5    1  0.3273105E-002  0.1249989E+03  0.7818608E-02  0.1235071E+00
         -4   -1    0    0    0  501 -0.00000000000E+00  0.00000000000E+00  0.58659164972E+01  0.60018227525E+01  0.12700000000E+01 0.  1.
          4   -1    0    0  501    0  0.00000000000E+00 -0.00000000000E+00 -0.65814899574E+03  0.65815022107E+03  0.12700000000E+01 0.  1.
         25    2    1    2    0    0  0.00000000000E+00  0.00000000000E+00 -0.65228307924E+03  0.66415204382E+03  0.12499888738E+03 0.  0.
    9000005    1    3    3    0    0 -0.40031290449E+02  0.44764549316E+02 -0.23429560748E+03  0.24187145506E+03  0.10000000000E+01 0.  0.
    9000005    1    3    3    0    0  0.40031290449E+02 -0.44764549316E+02 -0.41798747176E+03  0.42228058876E+03  0.10000000000E+01 0.  0.
<mgrwt>
<rscale>  0 0.12499889E+03</rscale>
<asrwt>0</asrwt>
<pdfrwt beam="2">  1        4 0.10126418E+00 0.12499889E+03</pdfrwt>
<pdfrwt beam="1">  1       -4 0.91299779E-03 0.12499889E+03</pdfrwt>
<totfact> 0.45048851E+03</totfact>
</mgrwt>
</event>
<event>
 5    1  0.3273105E-002  0.1250002E+03  0.7818608E-02  0.1235069E+00
          4   -1    0    0  501    0  0.00000000000E+00  0.00000000000E+00  0.56931883896E+01  0.58331204376E+01  0.12700000000E+01 0. -1.
         -4   -1    0    0    0  501 -0.00000000000E+00 -0.00000000000E+00 -0.67765855881E+03  0.67765974887E+03  0.12700000000E+01 0. -1.
         25    2    1    2    0    0  0.00000000000E+00  0.00000000000E+00 -0.67196537042E+03  0.68349286930E+03  0.12500017336E+03 0.  0.
    9000005    1    3    3    0    0  0.21084035262E+02  0.58777617898E+02 -0.34928216793E+03  0.35482161398E+03  0.10000000000E+01 0.  0.
    9000005    1    3    3    0    0 -0.21084035262E+02 -0.58777617898E+02 -0.32268320249E+03  0.32867125533E+03  0.10000000000E+01 0.  0.
<mgrwt>
<rscale>  0 0.12500017E+03</rscale>
<asrwt>0</asrwt>
<pdfrwt beam="1">  1        4 0.88673122E-03 0.12500017E+03</pdfrwt>
<pdfrwt beam="2">  1       -4 0.10426596E+00 0.12500017E+03</pdfrwt>
<totfact> 0.43972383E+03</totfact>
</mgrwt>
</event>
<event>
 5    1  0.3273105E-002  0.1250035E+03  0.7818608E-02  0.1235064E+00
         -4   -1    0    0    0  501 -0.00000000000E+00  0.00000000000E+00  0.75605374460E+02  0.75616040277E+02  0.12700000000E+01 0.  1.
          4   -1    0    0  501    0  0.00000000000E+00 -0.00000000000E+00 -0.51647111441E+02  0.51662723701E+02  0.12700000000E+01 0.  1.
         25    2    1    2    0    0  0.00000000000E+00  0.00000000000E+00  0.23958263019E+02  0.12727876398E+03  0.12500354152E+03 0.  0.
    9000005    1    3    3    0    0 -0.30764618004E+02 -0.12122906140E+02  0.65973037680E+02  0.73802901535E+02  0.10000000000E+01 0.  0.
    9000005    1    3    3    0    0  0.30764618004E+02  0.12122906140E+02 -0.42014774661E+02  0.53475862443E+02  0.10000000000E+01 0.  0.
<mgrwt>
<rscale>  0 0.12500354E+03</rscale>
<asrwt>0</asrwt>
<pdfrwt beam="2">  1        4 0.79477308E-02 0.12500354E+03</pdfrwt>
<pdfrwt beam="1">  1       -4 0.11633617E-01 0.12500354E+03</pdfrwt>
<totfact> 0.10402263E+04</totfact>
</mgrwt>
</event>
<event>
 5    1  0.3273105E-002  0.1249993E+03  0.7818608E-02  0.1235070E+00
         -4   -1    0    0    0  501 -0.00000000000E+00  0.00000000000E+00  0.29270165173E+02  0.29297704164E+02  0.12700000000E+01 0. -1.
          4   -1    0    0  501    0  0.00000000000E+00 -0.00000000000E+00 -0.13336023114E+03  0.13336627815E+03  0.12700000000E+01 0. -1.
         25    2    1    2    0    0  0.00000000000E+00  0.00000000000E+00 -0.10409006596E+03  0.16266398232E+03  0.12499931724E+03 0.  0.
    9000005    1    3    3    0    0 -0.10989532586E+02 -0.49582266641E+02 -0.46577867215E+01  0.51008489185E+02  0.10000000000E+01 0.  0.
    9000005    1    3    3    0    0  0.10989532586E+02  0.49582266641E+02 -0.99432279241E+02  0.11165549313E+03  0.10000000000E+01 0.  0.
<mgrwt>
<rscale>  0 0.12499932E+03</rscale>
<asrwt>0</asrwt>
<pdfrwt beam="2">  1        4 0.20519542E-01 0.12499932E+03</pdfrwt>
<pdfrwt beam="1">  1       -4 0.45056860E-02 0.12499932E+03</pdfrwt>
<totfact> 0.96833121E+03</totfact>
</mgrwt>
</event>
<event>
 5    1  0.3273105E-002  0.1250037E+03  0.7818608E-02  0.1235064E+00
         -4   -1    0    0    0  501 -0.00000000000E+00  0.00000000000E+00  0.10595226834E+03  0.10595987951E+03  0.12700000000E+01 0. -1.
          4   -1    0    0  501    0  0.00000000000E+00 -0.00000000000E+00 -0.36850311924E+02  0.36872189912E+02  0.12700000000E+01 0. -1.
         25    2    1    2    0    0  0.00000000000E+00  0.00000000000E+00  0.69101956414E+02  0.14283206942E+03  0.12500367865E+03 0.  0.
    9000005    1    3    3    0    0 -0.39082509106E+02  0.28936463296E+02 -0.10299242281E+02  0.49717560455E+02  0.10000000000E+01 0.  0.
    9000005    1    3    3    0    0  0.39082509106E+02 -0.28936463296E+02  0.79401198695E+02  0.93114508968E+02  0.10000000000E+01 0.  0.
<mgrwt>
<rscale>  0 0.12500368E+03</rscale>
<asrwt>0</asrwt>
<pdfrwt beam="2">  1        4 0.56715471E-02 0.12500368E+03</pdfrwt>
<pdfrwt beam="1">  1       -4 0.16302617E-01 0.12500368E+03</pdfrwt>
<totfact> 0.10074389E+04</totfact>
</mgrwt>
</event>
<event>
 5    1  0.3273105E-002  0.1249991E+03  0.7818608E-02  0.1235071E+00
          4   -1    0    0  501    0  0.00000000000E+00  0.00000000000E+00  0.80116364024E+01  0.81116717046E+01  0.12700000000E+01 0.  1.
         -4   -1    0    0    0  501 -0.00000000000E+00 -0.00000000000E+00 -0.48443894091E+03  0.48444060562E+03  0.12700000000E+01 0.  1.
         25    2    1    2    0    0  0.00000000000E+00  0.00000000000E+00 -0.47642730451E+03  0.49255227732E+03  0.12499907765E+03 0.  0.
    9000005    1    3    3    0    0 -0.57037544800E+02 -0.24270748113E+02 -0.26945064511E+03  0.27649050775E+03  0.10000000000E+01 0.  0.
    9000005    1    3    3    0    0  0.57037544800E+02  0.24270748113E+02 -0.20697665940E+03  0.21606176957E+03  0.10000000000E+01 0.  0.
<mgrwt>
<rscale>  0 0.12499908E+03</rscale>
<asrwt>0</asrwt>
<pdfrwt beam="1">  1        4 0.12403829E-02 0.12499908E+03</pdfrwt>
<pdfrwt beam="2">  1       -4 0.74536868E-01 0.12499908E+03</pdfrwt>
<totfact> 0.56448039E+03</totfact>
</mgrwt>
</event>
<event>
 5    1  0.3273105E-002  0.1250055E+03  0.7818608E-02  0.1235061E+00
          4   -1    0    0  501    0  0.00000000000E+00  0.00000000000E+00  0.22796200345E+02  0.22831549448E+02  0.12700000000E+01 0.  1.
         -4   -1    0    0    0  501 -0.00000000000E+00 -0.00000000000E+00 -0.17120001874E+03  0.17120472925E+03  0.12700000000E+01 0.  1.
         25    2    1    2    0    0  0.00000000000E+00  0.00000000000E+00 -0.14840381839E+03  0.19403627869E+03  0.12500553642E+03 0.  0.
    9000005    1    3    3    0    0 -0.28498388186E+02 -0.46128414910E+02 -0.12243598329E+03  0.13390877042E+03  0.10000000000E+01 0.  0.
    9000005    1    3    3    0    0  0.28498388186E+02  0.46128414910E+02 -0.25967835106E+02  0.60127508275E+02  0.10000000000E+01 0.  0.
<mgrwt>
<rscale>  0 0.12500554E+03</rscale>
<asrwt>0</asrwt>
<pdfrwt beam="1">  1        4 0.35101894E-02 0.12500554E+03</pdfrwt>
<pdfrwt beam="2">  1       -4 0.26341545E-01 0.12500554E+03</pdfrwt>
<totfact> 0.91138422E+03</totfact>
</mgrwt>
</event>
<event>
 5    1  0.3273105E-002  0.1249994E+03  0.7818608E-02  0.1235070E+00
         -4   -1    0    0    0  501 -0.00000000000E+00  0.00000000000E+00  0.19789157874E+02  0.19829868112E+02  0.12700000000E+01 0.  1.
          4   -1    0    0  501    0  0.00000000000E+00 -0.00000000000E+00 -0.19714597773E+03  0.19715006831E+03  0.12700000000E+01 0.  1.
         25    2    1    2    0    0  0.00000000000E+00  0.00000000000E+00 -0.17735681986E+03  0.21697993643E+03  0.12499940504E+03 0.  0.
    9000005    1    3    3    0    0 -0.40162592259E+02 -0.43421346751E+02 -0.53669082758E+02  0.79873760489E+02  0.10000000000E+01 0.  0.
    9000005    1    3    3    0    0  0.40162592259E+02  0.43421346751E+02 -0.12368773710E+03  0.13710617594E+03  0.10000000000E+01 0.  0.
<mgrwt>
<rscale>  0 0.12499941E+03</rscale>
<asrwt>0</asrwt>
<pdfrwt beam="2">  1        4 0.30333595E-01 0.12499941E+03</pdfrwt>
<pdfrwt beam="1">  1       -4 0.30479322E-02 0.12499941E+03</pdfrwt>
<totfact> 0.87349664E+03</totfact>
</mgrwt>
</event>
<event>
 5    1  0.3273105E-002  0.1249981E+03  0.7818608E-02  0.1235072E+00
         -4   -1    0    0    0  501 -0.00000000000E+00  0.00000000000E+00  0.45812883809E+02  0.45830483555E+02  0.12700000000E+01 0. -1.
          4   -1    0    0  501    0  0.00000000000E+00 -0.00000000000E+00 -0.85224053177E+02  0.85233515356E+02  0.12700000000E+01 0. -1.
         25    2    1    2    0    0  0.00000000000E+00  0.00000000000E+00 -0.39411169368E+02  0.13106399891E+03  0.12499812614E+03 0.  0.
    9000005    1    3    3    0    0  0.18155475586E+02 -0.59109511431E+02 -0.29175900045E+02  0.68379739535E+02  0.10000000000E+01 0.  0.
    9000005    1    3    3    0    0 -0.18155475586E+02  0.59109511431E+02 -0.10235269323E+02  0.62684259376E+02  0.10000000000E+01 0.  0.
<mgrwt>
<rscale>  0 0.12499813E+03</rscale>
<asrwt>0</asrwt>
<pdfrwt beam="2">  1        4 0.13113474E-01 0.12499813E+03</pdfrwt>
<pdfrwt beam="1">  1       -4 0.70502177E-02 0.12499813E+03</pdfrwt>
<totfact> 0.10322154E+04</totfact>
</mgrwt>
</event>
<event>
 5    1  0.3273105E-002  0.1250209E+03  0.7818608E-02  0.1235037E+00
         -4   -1    0    0    0  501 -0.00000000000E+00  0.00000000000E+00  0.17663918023E+02  0.17709514390E+02  0.12700000000E+01 0.  1.
          4   -1    0    0  501    0  0.00000000000E+00 -0.00000000000E+00 -0.22088436704E+03  0.22088801801E+03  0.12700000000E+01 0.  1.
         25    2    1    2    0    0  0.00000000000E+00  0.00000000000E+00 -0.20322044901E+03  0.23859753240E+03  0.12502092453E+03 0.  0.
    9000005    1    3    3    0    0  0.16998808753E+02 -0.54361622072E+02 -0.15072899432E+03  0.16113464923E+03  0.10000000000E+01 0.  0.
    9000005    1    3    3    0    0 -0.16998808753E+02  0.54361622072E+02 -0.52491454689E+02  0.77462883168E+02  0.10000000000E+01 0.  0.
<mgrwt>
<rscale>  0 0.12502092E+03</rscale>
<asrwt>0</asrwt>
<pdfrwt beam="2">  1        4 0.33985997E-01 0.12502092E+03</pdfrwt>
<pdfrwt beam="1">  1       -4 0.27213143E-02 0.12502092E+03</pdfrwt>
<totfact> 0.83967505E+03</totfact>
</mgrwt>
</event>
<event>
 5    1  0.3273105E-002  0.1249993E+03  0.7818608E-02  0.1235070E+00
          4   -1    0    0  501    0  0.00000000000E+00  0.00000000000E+00  0.26174120548E+02  0.26204913403E+02  0.12700000000E+01 0. -1.
         -4   -1    0    0    0  501 -0.00000000000E+00 -0.00000000000E+00 -0.14911808117E+03  0.14912348920E+03  0.12700000000E+01 0. -1.
         25    2    1    2    0    0  0.00000000000E+00  0.00000000000E+00 -0.12294396062E+03  0.17532840261E+03  0.12499932522E+03 0.  0.
    9000005    1    3    3    0    0 -0.43330854434E+02  0.25256370280E+02 -0.11376149504E+03  0.12433070795E+03  0.10000000000E+01 0.  0.
    9000005    1    3    3    0    0  0.43330854434E+02 -0.25256370280E+02 -0.91824655794E+01  0.50997694652E+02  0.10000000000E+01 0.  0.
<mgrwt>
<rscale>  0 0.12499933E+03</rscale>
<asrwt>0</asrwt>
<pdfrwt beam="1">  1        4 0.40295725E-02 0.12499933E+03</pdfrwt>
<pdfrwt beam="2">  1       -4 0.22944027E-01 0.12499933E+03</pdfrwt>
<totfact> 0.94466159E+03</totfact>
</mgrwt>
</event>
<event>
 5    1  0.3273105E-002  0.1249986E+03  0.7818608E-02  0.1235071E+00
          4   -1    0    0  501    0  0.00000000000E+00  0.00000000000E+00  0.21262321210E+03  0.21262700493E+03  0.12700000000E+01 0.  1.
         -4   -1    0    0    0  501 -0.00000000000E+00 -0.00000000000E+00 -0.18345386224E+02  0.18389292964E+02  0.12700000000E+01 0.  1.
         25    2    1    2    0    0  0.00000000000E+00  0.00000000000E+00  0.19427782588E+03  0.23101629789E+03  0.12499862505E+03 0.  0.
    9000005    1    3    3    0    0 -0.13245889116E+02  0.17439840285E+02  0.20530804106E+03  0.20647516396E+03  0.10000000000E+01 0.  0.
    9000005    1    3    3    0    0  0.13245889116E+02 -0.17439840285E+02 -0.11030215184E+02  0.24541133932E+02  0.10000000000E+01 0.  0.
<mgrwt>
<rscale>  0 0.12499863E+03</rscale>
<asrwt>0</asrwt>
<pdfrwt beam="1">  1        4 0.32714934E-01 0.12499863E+03</pdfrwt>
<pdfrwt beam="2">  1       -4 0.28260362E-02 0.12499863E+03</pdfrwt>
<totfact> 0.85156397E+03</totfact>
</mgrwt>
</event>
<event>
 5    1  0.3273105E-002  0.1250015E+03  0.7818608E-02  0.1235067E+00
          4   -1    0    0  501    0  0.00000000000E+00  0.00000000000E+00  0.10158659112E+03  0.10159452936E+03  0.12700000000E+01 0.  1.
         -4   -1    0    0    0  501 -0.00000000000E+00 -0.00000000000E+00 -0.38433420010E+02  0.38454397325E+02  0.12700000000E+01 0.  1.
         25    2    1    2    0    0  0.00000000000E+00  0.00000000000E+00  0.63153171113E+02  0.14004892669E+03  0.12500151537E+03 0.  0.
    9000005    1    3    3    0    0  0.58820315120E+02 -0.14976600278E+01  0.55165056035E+02  0.80661365372E+02  0.10000000000E+01 0.  0.
    9000005    1    3    3    0    0 -0.58820315120E+02  0.14976600278E+01  0.79881150779E+01  0.59387561314E+02  0.10000000000E+01 0.  0.
<mgrwt>
<rscale>  0 0.12500152E+03</rscale>
<asrwt>0</asrwt>
<pdfrwt beam="1">  1        4 0.15630931E-01 0.12500152E+03</pdfrwt>
<pdfrwt beam="2">  1       -4 0.59150581E-02 0.12500152E+03</pdfrwt>
<totfact> 0.10132226E+04</totfact>
</mgrwt>
</event>
<event>
 5    1  0.3273105E-002  0.1250003E+03  0.7818608E-02  0.1235069E+00
          4   -1    0    0  501    0  0.00000000000E+00  0.00000000000E+00  0.62374101909E+02  0.62387029813E+02  0.12700000000E+01 0. -1.
         -4   -1    0    0    0  501 -0.00000000000E+00 -0.00000000000E+00 -0.62600612773E+02  0.62613493910E+02  0.12700000000E+01 0. -1.
         25    2    1    2    0    0  0.00000000000E+00  0.00000000000E+00 -0.22651086419E+00  0.12500052372E+03  0.12500031849E+03 0.  0.
    9000005    1    3    3    0    0 -0.24163317768E+02 -0.56276445137E+02 -0.12537675337E+02  0.62522775896E+02  0.10000000000E+01 0.  0.
    9000005    1    3    3    0    0  0.24163317768E+02  0.56276445137E+02  0.12311164472E+02  0.62477747827E+02  0.10000000000E+01 0.  0.
<mgrwt>
<rscale>  0 0.12500032E+03</rscale>
<asrwt>0</asrwt>
<pdfrwt beam="1">  1        4 0.95980010E-02 0.12500032E+03</pdfrwt>
<pdfrwt beam="2">  1       -4 0.96328488E-02 0.12500032E+03</pdfrwt>
<totfact> 0.10452776E+04</totfact>
</mgrwt>
</event>
<event>
 5    1  0.3273105E-002  0.1249979E+03  0.7818608E-02  0.1235073E+00
          4   -1    0    0  501    0  0.00000000000E+00  0.00000000000E+00  0.92879672284E+02  0.92888354618E+02  0.12700000000E+01 0. -1.
         -4   -1    0    0    0  501 -0.00000000000E+00 -0.00000000000E+00 -0.42035456259E+02  0.42054636877E+02  0.12700000000E+01 0. -1.
         25    2    1    2    0    0  0.00000000000E+00  0.00000000000E+00  0.50844216026E+02  0.13494299150E+03  0.12499790658E+03 0.  0.
    9000005    1    3    3    0    0  0.60031986848E+02 -0.14412107836E+02  0.14979285012E+02  0.63536818276E+02  0.10000000000E+01 0.  0.
    9000005    1    3    3    0    0 -0.60031986848E+02  0.14412107836E+02  0.35864931014E+02  0.71406173219E+02  0.10000000000E+01 0.  0.
<mgrwt>
<rscale>  0 0.12499791E+03</rscale>
<asrwt>0</asrwt>
<pdfrwt beam="1">  1        4 0.14291324E-01 0.12499791E+03</pdfrwt>
<pdfrwt beam="2">  1       -4 0.64691366E-02 0.12499791E+03</pdfrwt>
<totfact> 0.10239756E+04</totfact>
</mgrwt>
</event>
<event>
 5    1  0.3273105E-002  0.1250068E+03  0.7818608E-02  0.1235059E+00
          4   -1    0    0  501    0  0.00000000000E+00  0.00000000000E+00  0.34119553845E+03  0.34119790204E+03  0.12700000000E+01 0.  1.
         -4   -1    0    0    0  501 -0.00000000000E+00 -0.00000000000E+00 -0.11412327625E+02  0.11482775006E+02  0.12700000000E+01 0.  1.
         25    2    1    2    0    0  0.00000000000E+00  0.00000000000E+00  0.32978321082E+03  0.35268067704E+03  0.12500677510E+03 0.  0.
    9000005    1    3    3    0    0  0.49986636199E+02  0.36398552580E+02  0.19046363424E+03  0.20025212707E+03  0.10000000000E+01 0.  0.
    9000005    1    3    3    0    0 -0.49986636199E+02 -0.36398552580E+02  0.13931957658E+03  0.15242854997E+03  0.10000000000E+01 0.  0.
<mgrwt>
<rscale>  0 0.12500678E+03</rscale>
<asrwt>0</asrwt>
<pdfrwt beam="1">  1        4 0.52497224E-01 0.12500678E+03</pdfrwt>
<pdfrwt beam="2">  1       -4 0.17613435E-02 0.12500678E+03</pdfrwt>
<totfact> 0.69420241E+03</totfact>
</mgrwt>
</event>
<event>
 5    1  0.3273105E-002  0.1250023E+03  0.7818608E-02  0.1235066E+00
         -4   -1    0    0    0  501 -0.00000000000E+00  0.00000000000E+00  0.53384586102E+03  0.53384737166E+03  0.12700000000E+01 0. -1.
          4   -1    0    0  501    0  0.00000000000E+00 -0.00000000000E+00 -0.72608248334E+01  0.73710567262E+01  0.12700000000E+01 0. -1.
         25    2    1    2    0    0  0.00000000000E+00  0.00000000000E+00  0.52658503619E+03  0.54121842839E+03  0.12500234753E+03 0.  0.
    9000005    1    3    3    0    0  0.30632930790E+02  0.85171912836E+01  0.30354963080E+02  0.43969793947E+02  0.10000000000E+01 0.  0.
    9000005    1    3    3    0    0 -0.30632930790E+02 -0.85171912836E+01  0.49623007311E+03  0.49724863444E+03  0.10000000000E+01 0.  0.
<mgrwt>
<rscale>  0 0.12500235E+03</rscale>
<asrwt>0</asrwt>
<pdfrwt beam="2">  1        4 0.11256453E-02 0.12500235E+03</pdfrwt>
<pdfrwt beam="1">  1       -4 0.82138750E-01 0.12500235E+03</pdfrwt>
<totfact> 0.52799653E+03</totfact>
</mgrwt>
</event>
<event>
 5    1  0.3273105E-002  0.1249780E+03  0.7818608E-02  0.1235104E+00
         -4   -1    0    0    0  501 -0.00000000000E+00  0.00000000000E+00  0.71857734173E+01  0.72971391384E+01  0.12700000000E+01 0.  1.
          4   -1    0    0  501    0  0.00000000000E+00 -0.00000000000E+00 -0.53912640480E+03  0.53912790064E+03  0.12700000000E+01 0.  1.
         25    2    1    2    0    0  0.00000000000E+00  0.00000000000E+00 -0.53194063138E+03  0.54642503978E+03  0.12497795320E+03 0.  0.
    9000005    1    3    3    0    0 -0.59931313676E+02  0.10960693616E+02 -0.20539198555E+03  0.21423997501E+03  0.10000000000E+01 0.  0.
    9000005    1    3    3    0    0  0.59931313676E+02 -0.10960693616E+02 -0.32654864583E+03  0.33218506477E+03  0.10000000000E+01 0.  0.
<mgrwt>
<rscale>  0 0.12497795E+03</rscale>
<asrwt>0</asrwt>
<pdfrwt beam="2">  1        4 0.82951174E-01 0.12497795E+03</pdfrwt>
<pdfrwt beam="1">  1       -4 0.11141857E-02 0.12497795E+03</pdfrwt>
<totfact> 0.52459488E+03</totfact>
</mgrwt>
</event>
<event>
 5    1  0.3273105E-002  0.1249996E+03  0.7818608E-02  0.1235070E+00
         -4   -1    0    0    0  501 -0.00000000000E+00  0.00000000000E+00  0.33716648687E+02  0.33740558660E+02  0.12700000000E+01 0. -1.
          4   -1    0    0  501    0  0.00000000000E+00 -0.00000000000E+00 -0.11578609698E+03  0.11579306177E+03  0.12700000000E+01 0. -1.
         25    2    1    2    0    0  0.00000000000E+00  0.00000000000E+00 -0.82069448291E+02  0.14953362043E+03  0.12499963718E+03 0.  0.
    9000005    1    3    3    0    0  0.31862732606E+02  0.41753416029E+02 -0.81543092142E+02  0.96999264716E+02  0.10000000000E+01 0.  0.
    9000005    1    3    3    0    0 -0.31862732606E+02 -0.41753416029E+02 -0.52635614878E+00  0.52534355711E+02  0.10000000000E+01 0.  0.
<mgrwt>
<rscale>  0 0.12499964E+03</rscale>
<asrwt>0</asrwt>
<pdfrwt beam="2">  1        4 0.17815620E-01 0.12499964E+03</pdfrwt>
<pdfrwt beam="1">  1       -4 0.51895518E-02 0.12499964E+03</pdfrwt>
<totfact> 0.99397557E+03</totfact>
</mgrwt>
</event>
<event>
 5    1  0.3273105E-002  0.1250272E+03  0.7818608E-02  0.1235027E+00
          4   -1    0    0  501    0  0.00000000000E+00  0.00000000000E+00  0.54707361829E+02  0.54722101004E+02  0.12700000000E+01 0.  1.
         -4   -1    0    0    0  501 -0.00000000000E+00 -0.00000000000E+00 -0.71403729245E+02  0.71415022580E+02  0.12700000000E+01 0.  1.
         25    2    1    2    0    0  0.00000000000E+00  0.00000000000E+00 -0.16696367416E+02  0.12613712358E+03  0.12502721808E+03 0.  0.
    9000005    1    3    3    0    0  0.44694229757E+02 -0.27104012318E+02 -0.42927071375E+02  0.67645658502E+02  0.10000000000E+01 0.  0.
    9000005    1    3    3    0    0 -0.44694229757E+02  0.27104012318E+02  0.26230703959E+02  0.58491465082E+02  0.10000000000E+01 0.  0.
<mgrwt>
<rscale>  0 0.12502722E+03</rscale>
<asrwt>0</asrwt>
<pdfrwt beam="1">  1        4 0.84185197E-02 0.12502722E+03</pdfrwt>
<pdfrwt beam="2">  1       -4 0.10987192E-01 0.12502722E+03</pdfrwt>
<totfact> 0.10421551E+04</totfact>
</mgrwt>
</event>
<event>
 5    1  0.3273105E-002  0.1249988E+03  0.7818608E-02  0.1235071E+00
          4   -1    0    0  501    0  0.00000000000E+00  0.00000000000E+00  0.56221932618E+03  0.56222076059E+03  0.12700000000E+01 0.  1.
         -4   -1    0    0    0  501 -0.00000000000E+00 -0.00000000000E+00 -0.68882872623E+01  0.70043844418E+01  0.12700000000E+01 0.  1.
         25    2    1    2    0    0  0.00000000000E+00  0.00000000000E+00  0.55533103892E+03  0.56922514503E+03  0.12499881177E+03 0.  0.
    9000005    1    3    3    0    0 -0.47654906104E+02 -0.39883559222E+02  0.24763521522E+03  0.25531527215E+03  0.10000000000E+01 0.  0.
    9000005    1    3    3    0    0  0.47654906104E+02  0.39883559222E+02  0.30769582370E+03  0.31390987288E+03  0.10000000000E+01 0.  0.
<mgrwt>
<rscale>  0 0.12499881E+03</rscale>
<asrwt>0</asrwt>
<pdfrwt beam="1">  1        4 0.86504331E-01 0.12499881E+03</pdfrwt>
<pdfrwt beam="2">  1       -4 0.10687773E-02 0.12499881E+03</pdfrwt>
<totfact> 0.50870994E+03</totfact>
</mgrwt>
</event>
<event>
 5    1  0.3273105E-002  0.1250003E+03  0.7818608E-02  0.1235069E+00
         -4   -1    0    0    0  501 -0.00000000000E+00  0.00000000000E+00  0.40372191034E+02  0.40392161478E+02  0.12700000000E+01 0.  1.
          4   -1    0    0  501    0  0.00000000000E+00 -0.00000000000E+00 -0.96708349601E+02  0.96716688232E+02  0.12700000000E+01 0.  1.
         25    2    1    2    0    0  0.00000000000E+00  0.00000000000E+00 -0.56336158567E+02  0.13710884971E+03  0.12500029563E+03 0.  0.
    9000005    1    3    3    0    0 -0.39571361282E+02  0.48668631690E+01 -0.80951144758E+02  0.90242267416E+02  0.10000000000E+01 0.  0.
    9000005    1    3    3    0    0  0.39571361282E+02 -0.48668631690E+01  0.24614986191E+02  0.46866582294E+02  0.10000000000E+01 0.  0.
<mgrwt>
<rscale>  0 0.12500030E+03</rscale>
<asrwt>0</asrwt>
<pdfrwt beam="2">  1        4 0.14880385E-01 0.12500030E+03</pdfrwt>
<pdfrwt beam="1">  1       -4 0.62132840E-02 0.12500030E+03</pdfrwt>
<totfact> 0.10193742E+04</totfact>
</mgrwt>
</event>
<event>
 5    1  0.3273105E-002  0.1249985E+03  0.7818608E-02  0.1235072E+00
          4   -1    0    0  501    0  0.00000000000E+00  0.00000000000E+00  0.31749627148E+03  0.31749881150E+03  0.12700000000E+01 0.  1.
         -4   -1    0    0    0  501 -0.00000000000E+00 -0.00000000000E+00 -0.12267627854E+02  0.12333190713E+02  0.12700000000E+01 0.  1.
         25    2    1    2    0    0  0.00000000000E+00  0.00000000000E+00  0.30522864363E+03  0.32983200222E+03  0.12499849917E+03 0.  0.
    9000005    1    3    3    0    0  0.48735339416E+02 -0.71125037262E+01  0.25410729231E+03  0.25883824490E+03  0.10000000000E+01 0.  0.
    9000005    1    3    3    0    0 -0.48735339416E+02  0.71125037262E+01  0.51121351317E+02  0.70993757315E+02  0.10000000000E+01 0.  0.
<mgrwt>
<rscale>  0 0.12499850E+03</rscale>
<asrwt>0</asrwt>
<pdfrwt beam="1">  1        4 0.48850822E-01 0.12499850E+03</pdfrwt>
<pdfrwt beam="2">  1       -4 0.18925659E-02 0.12499850E+03</pdfrwt>
<totfact> 0.72004190E+03</totfact>
</mgrwt>
</event>
<event>
 5    1  0.3273105E-002  0.1250000E+03  0.7818608E-02  0.1235069E+00
         -4   -1    0    0    0  501 -0.00000000000E+00  0.00000000000E+00  0.71812432541E+03  0.71812544840E+03  0.12700000000E+01 0.  1.
          4   -1    0    0  501    0  0.00000000000E+00 -0.00000000000E+00 -0.53642493545E+01  0.55125376313E+01  0.12700000000E+01 0.  1.
         25    2    1    2    0    0  0.00000000000E+00  0.00000000000E+00  0.71276007606E+03  0.72363798604E+03  0.12500003526E+03 0.  0.
    9000005    1    3    3    0    0 -0.55391519439E+02 -0.14460863807E+02  0.21131534698E+03  0.21893495124E+03  0.10000000000E+01 0.  0.
    9000005    1    3    3    0    0  0.55391519439E+02  0.14460863807E+02  0.50144472908E+03  0.50470303479E+03  0.10000000000E+01 0.  0.
<mgrwt>
<rscale>  0 0.12500004E+03</rscale>
<asrwt>0</asrwt>
<pdfrwt beam="2">  1        4 0.83676311E-03 0.12500004E+03</pdfrwt>
<pdfrwt beam="1">  1       -4 0.11049205E+00 0.12500004E+03</pdfrwt>
<totfact> 0.41867858E+03</totfact>
</mgrwt>
</event>
<event>
 5    1  0.3273105E-002  0.1250002E+03  0.7818608E-02  0.1235069E+00
         -4   -1    0    0    0  501 -0.00000000000E+00  0.00000000000E+00  0.67624774191E+01  0.68806977003E+01  0.12700000000E+01 0. -1.
          4   -1    0    0  501    0  0.00000000000E+00 -0.00000000000E+00 -0.57251355138E+03  0.57251495999E+03  0.12700000000E+01 0. -1.
         25    2    1    2    0    0  0.00000000000E+00  0.00000000000E+00 -0.56575107396E+03  0.57939565769E+03  0.12500020186E+03 0.  0.
    9000005    1    3    3    0    0  0.20588412117E+02 -0.53554137339E+01 -0.10515170878E+02  0.23751462867E+02  0.10000000000E+01 0.  0.
    9000005    1    3    3    0    0 -0.20588412117E+02  0.53554137339E+01 -0.55523590308E+03  0.55564419482E+03  0.10000000000E+01 0.  0.
<mgrwt>
<rscale>  0 0.12500020E+03</rscale>
<asrwt>0</asrwt>
<pdfrwt beam="2">  1        4 0.88088172E-01 0.12500020E+03</pdfrwt>
<pdfrwt beam="1">  1       -4 0.10495838E-02 0.12500020E+03</pdfrwt>
<totfact> 0.50194385E+03</totfact>
</mgrwt>
</event>
<event>
 5    1  0.3273105E-002  0.1249919E+03  0.7818608E-02  0.1235082E+00
         -4   -1    0    0    0  501 -0.00000000000E+00  0.00000000000E+00  0.97380808740E+02  0.97389089793E+02  0.12700000000E+01 0.  1.
          4   -1    0    0  501    0  0.00000000000E+00 -0.00000000000E+00 -0.40087885109E+02  0.40107997115E+02  0.12700000000E+01 0.  1.
         25    2    1    2    0    0  0.00000000000E+00  0.00000000000E+00  0.57292923630E+02  0.13749708691E+03  0.12499187898E+03 0.  0.
    9000005    1    3    3    0    0  0.57501381819E+02 -0.24378263445E+02  0.30855837504E+02  0.69669156359E+02  0.10000000000E+01 0.  0.
    9000005    1    3    3    0    0 -0.57501381819E+02  0.24378263445E+02  0.26437086126E+02  0.67827930549E+02  0.10000000000E+01 0.  0.
<mgrwt>
<rscale>  0 0.12499188E+03</rscale>
<asrwt>0</asrwt>
<pdfrwt beam="2">  1        4 0.61695511E-02 0.12499188E+03</pdfrwt>
<pdfrwt beam="1">  1       -4 0.14983847E-01 0.12499188E+03</pdfrwt>
<totfact> 0.10187568E+04</totfact>
</mgrwt>
</event>
<event>
 5    1  0.3273105E-002  0.1249998E+03  0.7818608E-02  0.1235070E+00
          4   -1    0    0  501    0  0.00000000000E+00  0.00000000000E+00  0.39223865373E+02  0.39244420174E+02  0.12700000000E+01 0.  1.
         -4   -1    0    0    0  501 -0.00000000000E+00 -0.00000000000E+00 -0.99537532296E+02  0.99545633936E+02  0.12700000000E+01 0.  1.
         25    2    1    2    0    0  0.00000000000E+00  0.00000000000E+00 -0.60313666923E+02  0.13879005411E+03  0.12499976281E+03 0.  0.
    9000005    1    3    3    0    0  0.52942470450E+02 -0.29576413651E+01 -0.66874485634E+02  0.85351330679E+02  0.10000000000E+01 0.  0.
    9000005    1    3    3    0    0 -0.52942470450E+02  0.29576413651E+01  0.65608187104E+01  0.53438723432E+02  0.10000000000E+01 0.  0.
<mgrwt>
<rscale>  0 0.12499976E+03</rscale>
<asrwt>0</asrwt>
<pdfrwt beam="1">  1        4 0.60366452E-02 0.12499976E+03</pdfrwt>
<pdfrwt beam="2">  1       -4 0.15315671E-01 0.12499976E+03</pdfrwt>
<totfact> 0.10158779E+04</totfact>
</mgrwt>
</event>
<event>
 5    1  0.3273105E-002  0.1250022E+03  0.7818608E-02  0.1235066E+00
         -4   -1    0    0    0  501 -0.00000000000E+00  0.00000000000E+00  0.79643904222E+02  0.79654029274E+02  0.12700000000E+01 0.  1.
          4   -1    0    0  501    0  0.00000000000E+00 -0.00000000000E+00 -0.49026673910E+02  0.49043120360E+02  0.12700000000E+01 0.  1.
         25    2    1    2    0    0  0.00000000000E+00  0.00000000000E+00  0.30617230312E+02  0.12869714963E+03  0.12500216611E+03 0.  0.
    9000005    1    3    3    0    0 -0.53398181303E+02  0.24899407180E+02  0.36758049123E+02  0.69451424894E+02  0.10000000000E+01 0.  0.
    9000005    1    3    3    0    0  0.53398181303E+02 -0.24899407180E+02 -0.61408188120E+01  0.59245724741E+02  0.10000000000E+01 0.  0.
<mgrwt>
<rscale>  0 0.12500217E+03</rscale>
<asrwt>0</asrwt>
<pdfrwt beam="2">  1        4 0.75446092E-02 0.12500217E+03</pdfrwt>
<pdfrwt beam="1">  1       -4 0.12254952E-01 0.12500217E+03</pdfrwt>
<totfact> 0.10371952E+04</totfact>
</mgrwt>
</event>
<event>
 5    1  0.3273105E-002  0.1249957E+03  0.7818608E-02  0.1235076E+00
          4   -1    0    0  501    0  0.00000000000E+00  0.00000000000E+00  0.34863233437E+03  0.34863464754E+03  0.12700000000E+01 0.  1.
         -4   -1    0    0    0  501 -0.00000000000E+00 -0.00000000000E+00 -0.11165379763E+02  0.11237375372E+02  0.12700000000E+01 0.  1.
         25    2    1    2    0    0  0.00000000000E+00  0.00000000000E+00  0.33746695461E+03  0.35987202292E+03  0.12499570963E+03 0.  0.
    9000005    1    3    3    0    0  0.60090154715E+02  0.10703119610E+02  0.20731720664E+03  0.21611757826E+03  0.10000000000E+01 0.  0.
    9000005    1    3    3    0    0 -0.60090154715E+02 -0.10703119610E+02  0.13014974797E+03  0.14375444466E+03  0.10000000000E+01 0.  0.
<mgrwt>
<rscale>  0 0.12499571E+03</rscale>
<asrwt>0</asrwt>
<pdfrwt beam="1">  1        4 0.53641466E-01 0.12499571E+03</pdfrwt>
<pdfrwt beam="2">  1       -4 0.17234666E-02 0.12499571E+03</pdfrwt>
<totfact> 0.68658504E+03</totfact>
</mgrwt>
</event>
<event>
 5    1  0.3273105E-002  0.1250001E+03  0.7818608E-02  0.1235069E+00
         -4   -1    0    0    0  501 -0.00000000000E+00  0.00000000000E+00  0.44450842937E+02  0.44468981749E+02  0.12700000000E+01 0. -1.
          4   -1    0    0  501    0  0.00000000000E+00 -0.00000000000E+00 -0.87837458414E+02  0.87846639097E+02  0.12700000000E+01 0. -1.
         25    2    1    2    0    0  0.00000000000E+00  0.00000000000E+00 -0.43386615477E+02  0.13231562085E+03  0.12500010047E+03 0.  0.
    9000005    1    3    3    0    0 -0.23284415720E+01 -0.48002752180E+02 -0.63975621572E+02  0.80022284474E+02  0.10000000000E+01 0.  0.
    9000005    1    3    3    0    0  0.23284415720E+01  0.48002752180E+02  0.20589006095E+02  0.52293336372E+02  0.10000000000E+01 0.  0.
<mgrwt>
<rscale>  0 0.12500010E+03</rscale>
<asrwt>0</asrwt>
<pdfrwt beam="2">  1        4 0.13515557E-01 0.12500010E+03</pdfrwt>
<pdfrwt beam="1">  1       -4 0.68406927E-02 0.12500010E+03</pdfrwt>
<totfact> 0.10294943E+04</totfact>
</mgrwt>
</event>
<event>
 5    1  0.3273105E-002  0.1250026E+03  0.7818608E-02  0.1235065E+00
         -4   -1    0    0    0  501 -0.00000000000E+00  0.00000000000E+00  0.13630962341E+03  0.13631553960E+03  0.12700000000E+01 0. -1.
          4   -1    0    0  501    0  0.00000000000E+00 -0.00000000000E+00 -0.28637747384E+02  0.28665893937E+02  0.12700000000E+01 0. -1.
         25    2    1    2    0    0  0.00000000000E+00  0.00000000000E+00  0.10767187603E+03  0.16498143353E+03  0.12500256206E+03 0.  0.
    9000005    1    3    3    0    0 -0.21846104479E+02 -0.37596868530E+02  0.11307581737E+03  0.12115245469E+03  0.10000000000E+01 0.  0.
    9000005    1    3    3    0    0  0.21846104479E+02  0.37596868530E+02 -0.54039413402E+01  0.43828978840E+02  0.10000000000E+01 0.  0.
<mgrwt>
<rscale>  0 0.12500256E+03</rscale>
<asrwt>0</asrwt>
<pdfrwt beam="2">  1        4 0.44084275E-02 0.12500256E+03</pdfrwt>
<pdfrwt beam="1">  1       -4 0.20973331E-01 0.12500256E+03</pdfrwt>
<totfact> 0.96385361E+03</totfact>
</mgrwt>
</event>
<event>
 5    1  0.3273105E-002  0.1249988E+03  0.7818608E-02  0.1235071E+00
          4   -1    0    0  501    0  0.00000000000E+00  0.00000000000E+00  0.64709882812E+03  0.64710007437E+03  0.12700000000E+01 0. -1.
         -4   -1    0    0    0  501 -0.00000000000E+00 -0.00000000000E+00 -0.59683740090E+01  0.61019987144E+01  0.12700000000E+01 0. -1.
         25    2    1    2    0    0  0.00000000000E+00  0.00000000000E+00  0.64113045411E+03  0.65320207309E+03  0.12499875638E+03 0.  0.
    9000005    1    3    3    0    0 -0.96283783728E+01 -0.60937868492E+02  0.26855924632E+03  0.27555616174E+03  0.10000000000E+01 0.  0.
    9000005    1    3    3    0    0  0.96283783728E+01  0.60937868492E+02  0.37257120779E+03  0.37764591135E+03  0.10000000000E+01 0.  0.
<mgrwt>
<rscale>  0 0.12499876E+03</rscale>
<asrwt>0</asrwt>
<pdfrwt beam="1">  1        4 0.99563993E-01 0.12499876E+03</pdfrwt>
<pdfrwt beam="2">  1       -4 0.92858652E-03 0.12499876E+03</pdfrwt>
<totfact> 0.45673839E+03</totfact>
</mgrwt>
</event>
<event>
 5    1  0.3273105E-002  0.1249912E+03  0.7818608E-02  0.1235083E+00
         -4   -1    0    0    0  501 -0.00000000000E+00  0.00000000000E+00  0.52941503339E+02  0.52956733999E+02  0.12700000000E+01 0. -1.
          4   -1    0    0  501    0  0.00000000000E+00 -0.00000000000E+00 -0.73742544817E+02  0.73753480027E+02  0.12700000000E+01 0. -1.
         25    2    1    2    0    0  0.00000000000E+00  0.00000000000E+00 -0.20801041477E+02  0.12671021403E+03  0.12499117974E+03 0.  0.
    9000005    1    3    3    0    0  0.22426923309E+02  0.48597328776E+02 -0.43093575643E+02  0.68722074438E+02  0.10000000000E+01 0.  0.
    9000005    1    3    3    0    0 -0.22426923309E+02 -0.48597328776E+02  0.22292534166E+02  0.57988139588E+02  0.10000000000E+01 0.  0.
<mgrwt>
<rscale>  0 0.12499118E+03</rscale>
<asrwt>0</asrwt>
<pdfrwt beam="2">  1        4 0.11347020E-01 0.12499118E+03</pdfrwt>
<pdfrwt beam="1">  1       -4 0.81468594E-02 0.12499118E+03</pdfrwt>
<totfact> 0.10417522E+04</totfact>
</mgrwt>
</event>
<event>
 5    1  0.3273105E-002  0.1250160E+03  0.7818608E-02  0.1235044E+00
          4   -1    0    0  501    0  0.00000000000E+00  0.00000000000E+00  0.13401287467E+02  0.13461330015E+02  0.12700000000E+01 0. -1.
         -4   -1    0    0    0  501 -0.00000000000E+00 -0.00000000000E+00 -0.29084451946E+03  0.29084729223E+03  0.12700000000E+01 0. -1.
         25    2    1    2    0    0  0.00000000000E+00  0.00000000000E+00 -0.27744323199E+03  0.30430862225E+03  0.12501596137E+03 0.  0.
    9000005    1    3    3    0    0  0.47872961531E+02 -0.64208228834E+01 -0.23526906303E+03  0.24017822431E+03  0.10000000000E+01 0.  0.
    9000005    1    3    3    0    0 -0.47872961531E+02  0.64208228834E+01 -0.42174168956E+02  0.64130397936E+02  0.10000000000E+01 0.  0.
<mgrwt>
<rscale>  0 0.12501596E+03</rscale>
<asrwt>0</asrwt>
<pdfrwt beam="1">  1        4 0.20665687E-02 0.12501596E+03</pdfrwt>
<pdfrwt beam="2">  1       -4 0.44750138E-01 0.12501596E+03</pdfrwt>
<totfact> 0.75034951E+03</totfact>
</mgrwt>
</event>
<event>
 4    1  0.3273105E-002  0.1250800E+03  0.7818608E-02  0.1234944E+00
         -4   -1    0    0    0  501 -0.00000000000E+00  0.00000000000E+00  0.34881252970E+02  0.34904365182E+02  0.12700000000E+01 0. -1.
          4   -1    0    0  501    0  0.00000000000E+00 -0.00000000000E+00 -0.11206668973E+03  0.11207388566E+03  0.12700000000E+01 0. -1.
    9000005    1    1    2    0    0  0.15828601990E+02 -0.57798565477E+02 -0.59581350664E+02  0.84511278295E+02  0.10000000000E+01 0.  0.
    9000005    1    1    2    0    0 -0.15828601990E+02  0.57798565477E+02 -0.17604086098E+02  0.62466972549E+02  0.10000000000E+01 0.  0.
<mgrwt>
<rscale>  0 0.12508003E+03</rscale>
<asrwt>0</asrwt>
<pdfrwt beam="2">  1        4 0.17243360E-01 0.12508003E+03</pdfrwt>
<pdfrwt beam="1">  1       -4 0.53686780E-02 0.12508003E+03</pdfrwt>
<totfact> 0.99729683E+03</totfact>
</mgrwt>
</event>
<event>
 5    1  0.3273105E-002  0.1249967E+03  0.7818608E-02  0.1235074E+00
          4   -1    0    0  501    0  0.00000000000E+00  0.00000000000E+00  0.30718785659E+01  0.33240544405E+01  0.12700000000E+01 0.  1.
         -4   -1    0    0    0  501 -0.00000000000E+00 -0.00000000000E+00 -0.12211623428E+04  0.12211630032E+04  0.12700000000E+01 0.  1.
         25    2    1    2    0    0  0.00000000000E+00  0.00000000000E+00 -0.12180904643E+04  0.12244870577E+04  0.12499670100E+03 0.  0.
    9000005    1    3    3    0    0 -0.14175608052E+02 -0.29397047098E+02 -0.87000275991E+02  0.92925681403E+02  0.10000000000E+01 0.  0.
    9000005    1    3    3    0    0  0.14175608052E+02  0.29397047098E+02 -0.11310901883E+04  0.11315613763E+04  0.10000000000E+01 0.  0.
<mgrwt>
<rscale>  0 0.12499670E+03</rscale>
<asrwt>0</asrwt>
<pdfrwt beam="1">  1        4 0.49204662E-03 0.12499670E+03</pdfrwt>
<pdfrwt beam="2">  1       -4 0.18789021E+00 0.12499670E+03</pdfrwt>
<totfact> 0.24082451E+03</totfact>
</mgrwt>
</event>
<event>
 5    1  0.3273105E-002  0.1249997E+03  0.7818608E-02  0.1235070E+00
         -4   -1    0    0    0  501 -0.00000000000E+00  0.00000000000E+00  0.35188712298E+02  0.35211622701E+02  0.12700000000E+01 0. -1.
          4   -1    0    0  501    0  0.00000000000E+00 -0.00000000000E+00 -0.11094540729E+03  0.11095267594E+03  0.12700000000E+01 0. -1.
         25    2    1    2    0    0  0.00000000000E+00  0.00000000000E+00 -0.75756694989E+02  0.14616429864E+03  0.12499970144E+03 0.  0.
    9000005    1    3    3    0    0 -0.13003501006E+02 -0.27207460341E+02  0.26123952646E+02  0.39909871442E+02  0.10000000000E+01 0.  0.
    9000005    1    3    3    0    0  0.13003501006E+02  0.27207460341E+02 -0.10188064764E+03  0.10625442720E+03  0.10000000000E+01 0.  0.
<mgrwt>
<rscale>  0 0.12499970E+03</rscale>
<asrwt>0</asrwt>
<pdfrwt beam="2">  1        4 0.17070846E-01 0.12499970E+03</pdfrwt>
<pdfrwt beam="1">  1       -4 0.54159696E-02 0.12499970E+03</pdfrwt>
<totfact> 0.10007453E+04</totfact>
</mgrwt>
</event>
<event>
 5    1  0.3273105E-002  0.1250008E+03  0.7818608E-02  0.1235068E+00
         -4   -1    0    0    0  501 -0.00000000000E+00  0.00000000000E+00  0.13571741260E+02  0.13631033007E+02  0.12700000000E+01 0. -1.
          4   -1    0    0  501    0  0.00000000000E+00 -0.00000000000E+00 -0.28713815672E+03  0.28714096528E+03  0.12700000000E+01 0. -1.
         25    2    1    2    0    0  0.00000000000E+00  0.00000000000E+00 -0.27356641546E+03  0.30077199829E+03  0.12500084515E+03 0.  0.
    9000005    1    3    3    0    0  0.46424934856E+02  0.41516224937E+02 -0.14915360986E+03  0.16163746732E+03  0.10000000000E+01 0.  0.
    9000005    1    3    3    0    0 -0.46424934856E+02 -0.41516224937E+02 -0.12441280560E+03  0.13913453096E+03  0.10000000000E+01 0.  0.
<mgrwt>
<rscale>  0 0.12500085E+03</rscale>
<asrwt>0</asrwt>
<pdfrwt beam="2">  1        4 0.44179874E-01 0.12500085E+03</pdfrwt>
<pdfrwt beam="1">  1       -4 0.20927374E-02 0.12500085E+03</pdfrwt>
<totfact> 0.75500688E+03</totfact>
</mgrwt>
</event>
<event>
 5    1  0.3273105E-002  0.1250008E+03  0.7818608E-02  0.1235068E+00
         -4   -1    0    0    0  501 -0.00000000000E+00  0.00000000000E+00  0.11235874334E+03  0.11236592057E+03  0.12700000000E+01 0. -1.
          4   -1    0    0  501    0  0.00000000000E+00 -0.00000000000E+00 -0.34746410446E+02  0.34769612292E+02  0.12700000000E+01 0. -1.
         25    2    1    2    0    0  0.00000000000E+00  0.00000000000E+00  0.77612332895E+02  0.14713553286E+03  0.12500076325E+03 0.  0.
    9000005    1    3    3    0    0  0.59731376708E+02  0.25698453034E+01  0.17395777189E+02  0.62274027751E+02  0.10000000000E+01 0.  0.
    9000005    1    3    3    0    0 -0.59731376708E+02 -0.25698453034E+01  0.60216555706E+02  0.84861505109E+02  0.10000000000E+01 0.  0.
<mgrwt>
<rscale>  0 0.12500076E+03</rscale>
<asrwt>0</asrwt>
<pdfrwt beam="2">  1        4 0.53479384E-02 0.12500076E+03</pdfrwt>
<pdfrwt beam="1">  1       -4 0.17288297E-01 0.12500076E+03</pdfrwt>
<totfact> 0.99876066E+03</totfact>
</mgrwt>
</event>
<event>
 5    1  0.3273105E-002  0.1250018E+03  0.7818608E-02  0.1235067E+00
         -4   -1    0    0    0  501 -0.00000000000E+00  0.00000000000E+00  0.48198677069E+03  0.48198844386E+03  0.12700000000E+01 0.  1.
          4   -1    0    0  501    0  0.00000000000E+00 -0.00000000000E+00 -0.80532543759E+01  0.81527790380E+01  0.12700000000E+01 0.  1.
         25    2    1    2    0    0  0.00000000000E+00  0.00000000000E+00  0.47393351631E+03  0.49014122290E+03  0.12500176200E+03 0.  0.
    9000005    1    3    3    0    0 -0.43444039977E+02 -0.33513137140E+02  0.35426163425E+03  0.35848684839E+03  0.10000000000E+01 0.  0.
    9000005    1    3    3    0    0  0.43444039977E+02  0.33513137140E+02  0.11967188206E+03  0.13165437451E+03  0.10000000000E+01 0.  0.
<mgrwt>
<rscale>  0 0.12500176E+03</rscale>
<asrwt>0</asrwt>
<pdfrwt beam="2">  1        4 0.12467466E-02 0.12500176E+03</pdfrwt>
<pdfrwt beam="1">  1       -4 0.74159601E-01 0.12500176E+03</pdfrwt>
<totfact> 0.56635283E+03</totfact>
</mgrwt>
</event>
<event>
 5    1  0.3273105E-002  0.1250020E+03  0.7818608E-02  0.1235066E+00
          4   -1    0    0  501    0  0.00000000000E+00  0.00000000000E+00  0.23351054150E+03  0.23351399507E+03  0.12700000000E+01 0.  1.
         -4   -1    0    0    0  501 -0.00000000000E+00 -0.00000000000E+00 -0.16701212652E+02  0.16749429962E+02  0.12700000000E+01 0.  1.
         25    2    1    2    0    0  0.00000000000E+00  0.00000000000E+00  0.21680932885E+03  0.25026342503E+03  0.12500198731E+03 0.  0.
    9000005    1    3    3    0    0 -0.32537649129E+02  0.37036907103E+02  0.18529435283E+03  0.19174313101E+03  0.10000000000E+01 0.  0.
    9000005    1    3    3    0    0  0.32537649129E+02 -0.37036907103E+02  0.31514976020E+02  0.58520294020E+02  0.10000000000E+01 0.  0.
<mgrwt>
<rscale>  0 0.12500199E+03</rscale>
<asrwt>0</asrwt>
<pdfrwt beam="1">  1        4 0.35928677E-01 0.12500199E+03</pdfrwt>
<pdfrwt beam="2">  1       -4 0.25733918E-02 0.12500199E+03</pdfrwt>
<totfact> 0.82288523E+03</totfact>
</mgrwt>
</event>
<event>
 5    1  0.3273105E-002  0.1250050E+03  0.7818608E-02  0.1235061E+00
         -4   -1    0    0    0  501 -0.00000000000E+00  0.00000000000E+00  0.83287128174E+02  0.83296810380E+02  0.12700000000E+01 0. -1.
          4   -1    0    0  501    0  0.00000000000E+00 -0.00000000000E+00 -0.46883766897E+02  0.46900964793E+02  0.12700000000E+01 0. -1.
         25    2    1    2    0    0  0.00000000000E+00  0.00000000000E+00  0.36403361277E+02  0.13019777517E+03  0.12500502369E+03 0.  0.
    9000005    1    3    3    0    0  0.20809923213E+02  0.54285836019E+02  0.42079071711E+02  0.71775017746E+02  0.10000000000E+01 0.  0.
    9000005    1    3    3    0    0 -0.20809923213E+02 -0.54285836019E+02 -0.56757104336E+01  0.58422757427E+02  0.10000000000E+01 0.  0.
<mgrwt>
<rscale>  0 0.12500502E+03</rscale>
<asrwt>0</asrwt>
<pdfrwt beam="2">  1        4 0.72149550E-02 0.12500502E+03</pdfrwt>
<pdfrwt beam="1">  1       -4 0.12815472E-01 0.12500502E+03</pdfrwt>
<totfact> 0.10339106E+04</totfact>
</mgrwt>
</event>
<event>
 5    1  0.3273105E-002  0.1249954E+03  0.7818608E-02  0.1235076E+00
          4   -1    0    0  501    0  0.00000000000E+00  0.00000000000E+00  0.91326704576E+02  0.91335534535E+02  0.12700000000E+01 0. -1.
         -4   -1    0    0    0  501 -0.00000000000E+00 -0.00000000000E+00 -0.42748785411E+02  0.42767646114E+02  0.12700000000E+01 0. -1.
         25    2    1    2    0    0  0.00000000000E+00  0.00000000000E+00  0.48577919165E+02  0.13410318065E+03  0.12499539523E+03 0.  0.
    9000005    1    3    3    0    0  0.56359107438E+02  0.21728554786E+02  0.71069300520E+01  0.60827522874E+02  0.10000000000E+01 0.  0.
    9000005    1    3    3    0    0 -0.56359107438E+02 -0.21728554786E+02  0.41470989113E+02  0.73275657775E+02  0.10000000000E+01 0.  0.
<mgrwt>
<rscale>  0 0.12499540E+03</rscale>
<asrwt>0</asrwt>
<pdfrwt beam="1">  1        4 0.14052392E-01 0.12499540E+03</pdfrwt>
<pdfrwt beam="2">  1       -4 0.65788663E-02 0.12499540E+03</pdfrwt>
<totfact> 0.10258074E+04</totfact>
</mgrwt>
</event>
<event>
 5    1  0.3273105E-002  0.1249931E+03  0.7818608E-02  0.1235080E+00
          4   -1    0    0  501    0  0.00000000000E+00  0.00000000000E+00  0.91323258083E+02  0.91332088375E+02  0.12700000000E+01 0. -1.
         -4   -1    0    0    0  501 -0.00000000000E+00 -0.00000000000E+00 -0.42748814459E+02  0.42767675149E+02  0.12700000000E+01 0. -1.
         25    2    1    2    0    0  0.00000000000E+00  0.00000000000E+00  0.48574443625E+02  0.13409976352E+03  0.12499307982E+03 0.  0.
    9000005    1    3    3    0    0  0.28394183588E+02  0.98878011720E+01 -0.34483626535E+02  0.45761542508E+02  0.10000000000E+01 0.  0.
    9000005    1    3    3    0    0 -0.28394183588E+02 -0.98878011720E+01  0.83058070159E+02  0.88338221016E+02  0.10000000000E+01 0.  0.
<mgrwt>
<rscale>  0 0.12499308E+03</rscale>
<asrwt>0</asrwt>
<pdfrwt beam="1">  1        4 0.14051862E-01 0.12499308E+03</pdfrwt>
<pdfrwt beam="2">  1       -4 0.65788709E-02 0.12499308E+03</pdfrwt>
<totfact> 0.10258682E+04</totfact>
</mgrwt>
</event>
<event>
 5    1  0.3273105E-002  0.1250001E+03  0.7818608E-02  0.1235069E+00
          4   -1    0    0  501    0  0.00000000000E+00  0.00000000000E+00  0.24684642641E+02  0.24717291160E+02  0.12700000000E+01 0. -1.
         -4   -1    0    0    0  501 -0.00000000000E+00 -0.00000000000E+00 -0.15810657562E+03  0.15811167621E+03  0.12700000000E+01 0. -1.
         25    2    1    2    0    0  0.00000000000E+00  0.00000000000E+00 -0.13342193298E+03  0.18282896737E+03  0.12500007644E+03 0.  0.
    9000005    1    3    3    0    0 -0.24639886106E+02  0.56104378061E+02 -0.48771839270E+02  0.78323160883E+02  0.10000000000E+01 0.  0.
    9000005    1    3    3    0    0  0.24639886106E+02 -0.56104378061E+02 -0.84650093711E+02  0.10450580649E+03  0.10000000000E+01 0.  0.
<mgrwt>
<rscale>  0 0.12500008E+03</rscale>
<asrwt>0</asrwt>
<pdfrwt beam="1">  1        4 0.38005412E-02 0.12500008E+03</pdfrwt>
<pdfrwt beam="2">  1       -4 0.24326992E-01 0.12500008E+03</pdfrwt>
<totfact> 0.93110085E+03</totfact>
</mgrwt>
</event>
<event>
 5    1  0.3273105E-002  0.1249990E+03  0.7818608E-02  0.1235071E+00
          4   -1    0    0  501    0  0.00000000000E+00  0.00000000000E+00  0.50313444020E+02  0.50329469987E+02  0.12700000000E+01 0. -1.
         -4   -1    0    0    0  501 -0.00000000000E+00 -0.00000000000E+00 -0.77603440447E+02  0.77613831687E+02  0.12700000000E+01 0. -1.
         25    2    1    2    0    0  0.00000000000E+00  0.00000000000E+00 -0.27289996426E+02  0.12794330167E+03  0.12499897815E+03 0.  0.
    9000005    1    3    3    0    0  0.31849917727E+02  0.35280462784E+02 -0.55172292391E+02  0.72829322125E+02  0.10000000000E+01 0.  0.
    9000005    1    3    3    0    0 -0.31849917727E+02 -0.35280462784E+02  0.27882295965E+02  0.55113979549E+02  0.10000000000E+01 0.  0.
<mgrwt>
<rscale>  0 0.12499898E+03</rscale>
<asrwt>0</asrwt>
<pdfrwt beam="1">  1        4 0.77425619E-02 0.12499898E+03</pdfrwt>
<pdfrwt beam="2">  1       -4 0.11941023E-01 0.12499898E+03</pdfrwt>
<totfact> 0.10388952E+04</totfact>
</mgrwt>
</event>
<event>
 5    1  0.3273105E-002  0.1250033E+03  0.7818608E-02  0.1235064E+00
          4   -1    0    0  501    0  0.00000000000E+00  0.00000000000E+00  0.28123338364E+03  0.28123625118E+03  0.12700000000E+01 0.  1.
         -4   -1    0    0    0  501 -0.00000000000E+00 -0.00000000000E+00 -0.13858463140E+02  0.13916533354E+02  0.12700000000E+01 0.  1.
         25    2    1    2    0    0  0.00000000000E+00  0.00000000000E+00  0.26737492050E+03  0.29515278453E+03  0.12500327236E+03 0.  0.
    9000005    1    3    3    0    0 -0.20792465203E+02  0.49265913219E+02  0.21005184721E+03  0.21675385886E+03  0.10000000000E+01 0.  0.
    9000005    1    3    3    0    0  0.20792465203E+02 -0.49265913219E+02  0.57323073297E+02  0.78398925674E+02  0.10000000000E+01 0.  0.
<mgrwt>
<rscale>  0 0.12500327E+03</rscale>
<asrwt>0</asrwt>
<pdfrwt beam="1">  1        4 0.43271361E-01 0.12500327E+03</pdfrwt>
<pdfrwt beam="2">  1       -4 0.21367588E-02 0.12500327E+03</pdfrwt>
<totfact> 0.76205376E+03</totfact>
</mgrwt>
</event>
<event>
 5    1  0.3273105E-002  0.1249996E+03  0.7818608E-02  0.1235070E+00
         -4   -1    0    0    0  501 -0.00000000000E+00  0.00000000000E+00  0.85256596643E+01  0.86197315916E+01  0.12700000000E+01 0. -1.
          4   -1    0    0  501    0  0.00000000000E+00 -0.00000000000E+00 -0.45556357407E+03  0.45556534430E+03  0.12700000000E+01 0. -1.
         25    2    1    2    0    0  0.00000000000E+00  0.00000000000E+00 -0.44703791441E+03  0.46418507589E+03  0.12499955103E+03 0.  0.
    9000005    1    3    3    0    0  0.35966632035E+02  0.47759529144E+01 -0.41246295939E+03  0.41405688161E+03  0.10000000000E+01 0.  0.
    9000005    1    3    3    0    0 -0.35966632035E+02 -0.47759529144E+01 -0.34574955023E+02  0.50128194273E+02  0.10000000000E+01 0.  0.
<mgrwt>
<rscale>  0 0.12499955E+03</rscale>
<asrwt>0</asrwt>
<pdfrwt beam="2">  1        4 0.70094057E-01 0.12499955E+03</pdfrwt>
<pdfrwt beam="1">  1       -4 0.13190128E-02 0.12499955E+03</pdfrwt>
<totfact> 0.58754932E+03</totfact>
</mgrwt>
</event>
<event>
 5    1  0.3273105E-002  0.1249748E+03  0.7818608E-02  0.1235109E+00
         -4   -1    0    0    0  501 -0.00000000000E+00  0.00000000000E+00  0.80126839715E+02  0.80136903751E+02  0.12700000000E+01 0. -1.
          4   -1    0    0  501    0  0.00000000000E+00 -0.00000000000E+00 -0.48709771001E+02  0.48726324414E+02  0.12700000000E+01 0. -1.
         25    2    1    2    0    0  0.00000000000E+00  0.00000000000E+00  0.31417068715E+02  0.12886322816E+03  0.12497479492E+03 0.  0.
    9000005    1    3    3    0    0  0.27184078530E+02  0.55221901784E+02  0.26777639020E+02  0.67130280155E+02  0.10000000000E+01 0.  0.
    9000005    1    3    3    0    0 -0.27184078530E+02 -0.55221901784E+02  0.46394296948E+01  0.61732948010E+02  0.10000000000E+01 0.  0.
<mgrwt>
<rscale>  0 0.12497479E+03</rscale>
<asrwt>0</asrwt>
<pdfrwt beam="2">  1        4 0.74958584E-02 0.12497479E+03</pdfrwt>
<pdfrwt beam="1">  1       -4 0.12329254E-01 0.12497479E+03</pdfrwt>
<totfact> 0.10374789E+04</totfact>
</mgrwt>
</event>
<event>
 5    1  0.3273105E-002  0.1249993E+03  0.7818608E-02  0.1235070E+00
          4   -1    0    0  501    0  0.00000000000E+00  0.00000000000E+00  0.44320614917E+03  0.44320796875E+03  0.12700000000E+01 0. -1.
         -4   -1    0    0    0  501 -0.00000000000E+00 -0.00000000000E+00 -0.87659148690E+01  0.88574354918E+01  0.12700000000E+01 0. -1.
         25    2    1    2    0    0  0.00000000000E+00  0.00000000000E+00  0.43444023430E+03  0.45206540424E+03  0.12499925012E+03 0.  0.
    9000005    1    3    3    0    0 -0.11705805789E+02 -0.27759297350E+02  0.41522714614E+03  0.41631981381E+03  0.10000000000E+01 0.  0.
    9000005    1    3    3    0    0  0.11705805789E+02  0.27759297350E+02  0.19213088160E+02  0.35745590430E+02  0.10000000000E+01 0.  0.
<mgrwt>
<rscale>  0 0.12499925E+03</rscale>
<asrwt>0</asrwt>
<pdfrwt beam="1">  1        4 0.68192725E-01 0.12499925E+03</pdfrwt>
<pdfrwt beam="2">  1       -4 0.13557826E-02 0.12499925E+03</pdfrwt>
<totfact> 0.59786280E+03</totfact>
</mgrwt>
</event>
<event>
 4    1  0.3273105E-002  0.1251857E+03  0.7818608E-02  0.1234779E+00
          4   -1    0    0  501    0  0.00000000000E+00  0.00000000000E+00  0.12428299802E+04  0.12428306290E+04  0.12700000000E+01 0. -1.
         -4   -1    0    0    0  501 -0.00000000000E+00 -0.00000000000E+00 -0.30237883641E+01  0.32796640180E+01  0.12700000000E+01 0. -1.
    9000005    1    1    2    0    0  0.57014495492E+02 -0.58971998737E+01  0.87003371785E+03  0.87192035179E+03  0.10000000000E+01 0.  0.
    9000005    1    1    2    0    0 -0.57014495492E+02  0.58971998737E+01  0.36977247395E+03  0.37418994127E+03  0.10000000000E+01 0.  0.
<mgrwt>
<rscale>  0 0.12518574E+03</rscale>
<asrwt>0</asrwt>
<pdfrwt beam="1">  1        4 0.19122462E+00 0.12518574E+03</pdfrwt>
<pdfrwt beam="2">  1       -4 0.48493018E-03 0.12518574E+03</pdfrwt>
<totfact> 0.23441514E+03</totfact>
</mgrwt>
</event>
<event>
 5    1  0.3273105E-002  0.1249990E+03  0.7818608E-02  0.1235071E+00
         -4   -1    0    0    0  501 -0.00000000000E+00  0.00000000000E+00  0.15454019983E+03  0.15454541813E+03  0.12700000000E+01 0.  1.
          4   -1    0    0  501    0  0.00000000000E+00 -0.00000000000E+00 -0.25254570341E+02  0.25286483012E+02  0.12700000000E+01 0.  1.
         25    2    1    2    0    0  0.00000000000E+00  0.00000000000E+00  0.12928562949E+03  0.17983190114E+03  0.12499895469E+03 0.  0.
    9000005    1    3    3    0    0  0.47633973175E+01 -0.59178315174E+02  0.36582469436E+02  0.69742669944E+02  0.10000000000E+01 0.  0.
    9000005    1    3    3    0    0 -0.47633973175E+01  0.59178315174E+02  0.92703160053E+02  0.11008923119E+03  0.10000000000E+01 0.  0.
<mgrwt>
<rscale>  0 0.12499895E+03</rscale>
<asrwt>0</asrwt>
<pdfrwt beam="2">  1        4 0.38881749E-02 0.12499895E+03</pdfrwt>
<pdfrwt beam="1">  1       -4 0.23778271E-01 0.12499895E+03</pdfrwt>
<totfact> 0.93649466E+03</totfact>
</mgrwt>
</event>
<event>
 5    1  0.3273105E-002  0.1249992E+03  0.7818608E-02  0.1235070E+00
         -4   -1    0    0    0  501 -0.00000000000E+00  0.00000000000E+00  0.31053505403E+02  0.31079464246E+02  0.12700000000E+01 0.  1.
          4   -1    0    0  501    0  0.00000000000E+00 -0.00000000000E+00 -0.12570771641E+03  0.12571413153E+03  0.12700000000E+01 0.  1.
         25    2    1    2    0    0  0.00000000000E+00  0.00000000000E+00 -0.94654211012E+02  0.15679359577E+03  0.12499924805E+03 0.  0.
    9000005    1    3    3    0    0  0.56103422542E+02  0.23608141390E+01 -0.81725652786E+02  0.99162743950E+02  0.10000000000E+01 0.  0.
    9000005    1    3    3    0    0 -0.56103422542E+02 -0.23608141390E+01 -0.12928558226E+02  0.57630851825E+02  0.10000000000E+01 0.  0.
<mgrwt>
<rscale>  0 0.12499925E+03</rscale>
<asrwt>0</asrwt>
<pdfrwt beam="2">  1        4 0.19342139E-01 0.12499925E+03</pdfrwt>
<pdfrwt beam="1">  1       -4 0.47799527E-02 0.12499925E+03</pdfrwt>
<totfact> 0.97966196E+03</totfact>
</mgrwt>
</event>
<event>
 5    1  0.3273105E-002  0.1250177E+03  0.7818608E-02  0.1235042E+00
         -4   -1    0    0    0  501 -0.00000000000E+00  0.00000000000E+00  0.68741410523E+03  0.68741527840E+03  0.12700000000E+01 0.  1.
          4   -1    0    0  501    0  0.00000000000E+00 -0.00000000000E+00 -0.56120087497E+01  0.57539153805E+01  0.12700000000E+01 0.  1.
         25    2    1    2    0    0  0.00000000000E+00  0.00000000000E+00  0.68180209648E+03  0.69316919378E+03  0.12501772847E+03 0.  0.
    9000005    1    3    3    0    0 -0.50557179925E+02 -0.54923537626E+01  0.13944442701E+03  0.14843160923E+03  0.10000000000E+01 0.  0.
    9000005    1    3    3    0    0  0.50557179925E+02  0.54923537626E+01  0.54235766947E+03  0.54473758455E+03  0.10000000000E+01 0.  0.
<mgrwt>
<rscale>  0 0.12501773E+03</rscale>
<asrwt>0</asrwt>
<pdfrwt beam="2">  1        4 0.87439191E-03 0.12501773E+03</pdfrwt>
<pdfrwt beam="1">  1       -4 0.10576705E+00 0.12501773E+03</pdfrwt>
<totfact> 0.43432879E+03</totfact>
</mgrwt>
</event>
<event>
 5    1  0.3273105E-002  0.1249983E+03  0.7818608E-02  0.1235072E+00
         -4   -1    0    0    0  501 -0.00000000000E+00  0.00000000000E+00  0.87843929484E+02  0.87853109491E+02  0.12700000000E+01 0. -1.
          4   -1    0    0  501    0  0.00000000000E+00 -0.00000000000E+00 -0.44446303550E+02  0.44464444214E+02  0.12700000000E+01 0. -1.
         25    2    1    2    0    0  0.00000000000E+00  0.00000000000E+00  0.43397625933E+02  0.13231755371E+03  0.12499832432E+03 0.  0.
    9000005    1    3    3    0    0 -0.27260043760E+02  0.14792201542E+02 -0.35729370867E+02  0.47323431350E+02  0.10000000000E+01 0.  0.
    9000005    1    3    3    0    0  0.27260043760E+02 -0.14792201542E+02  0.79126996800E+02  0.84994122355E+02  0.10000000000E+01 0.  0.
<mgrwt>
<rscale>  0 0.12499832E+03</rscale>
<asrwt>0</asrwt>
<pdfrwt beam="2">  1        4 0.68399945E-02 0.12499832E+03</pdfrwt>
<pdfrwt beam="1">  1       -4 0.13516552E-01 0.12499832E+03</pdfrwt>
<totfact> 0.10295314E+04</totfact>
</mgrwt>
</event>
<event>
 5    1  0.3273105E-002  0.1250029E+03  0.7818608E-02  0.1235065E+00
          4   -1    0    0  501    0  0.00000000000E+00  0.00000000000E+00  0.74334543950E+02  0.74345392085E+02  0.12700000000E+01 0.  1.
         -4   -1    0    0    0  501 -0.00000000000E+00 -0.00000000000E+00 -0.52529656864E+02  0.52545006901E+02  0.12700000000E+01 0.  1.
         25    2    1    2    0    0  0.00000000000E+00  0.00000000000E+00  0.21804887086E+02  0.12689039899E+03  0.12500288098E+03 0.  0.
    9000005    1    3    3    0    0 -0.26143178139E+02 -0.53968928397E+02  0.28755479800E+02  0.66513071001E+02  0.10000000000E+01 0.  0.
    9000005    1    3    3    0    0  0.26143178139E+02  0.53968928397E+02 -0.69505927134E+01  0.60377327985E+02  0.10000000000E+01 0.  0.
<mgrwt>
<rscale>  0 0.12500288E+03</rscale>
<asrwt>0</asrwt>
<pdfrwt beam="1">  1        4 0.11438099E-01 0.12500288E+03</pdfrwt>
<pdfrwt beam="2">  1       -4 0.80835009E-02 0.12500288E+03</pdfrwt>
<totfact> 0.10410851E+04</totfact>
</mgrwt>
</event>
<event>
 5    1  0.3273105E-002  0.1249972E+03  0.7818608E-02  0.1235074E+00
          4   -1    0    0  501    0  0.00000000000E+00  0.00000000000E+00  0.63803714542E+03  0.63803840937E+03  0.12700000000E+01 0.  1.
         -4   -1    0    0    0  501 -0.00000000000E+00 -0.00000000000E+00 -0.60548674313E+01  0.61866242500E+01  0.12700000000E+01 0.  1.
         25    2    1    2    0    0  0.00000000000E+00  0.00000000000E+00  0.63198227799E+03  0.64422503362E+03  0.12499717699E+03 0.  0.
    9000005    1    3    3    0    0 -0.38606214453E+02  0.72985994057E+01  0.65542381789E+02  0.76423250116E+02  0.10000000000E+01 0.  0.
    9000005    1    3    3    0    0  0.38606214453E+02 -0.72985994057E+01  0.56643989620E+03  0.56780178351E+03  0.10000000000E+01 0.  0.
<mgrwt>
<rscale>  0 0.12499718E+03</rscale>
<asrwt>0</asrwt>
<pdfrwt beam="1">  1        4 0.98169807E-01 0.12499718E+03</pdfrwt>
<pdfrwt beam="2">  1       -4 0.94175030E-03 0.12499718E+03</pdfrwt>
<totfact> 0.46192664E+03</totfact>
</mgrwt>
</event>
<event>
 5    1  0.3273105E-002  0.1249981E+03  0.7818608E-02  0.1235072E+00
         -4   -1    0    0    0  501 -0.00000000000E+00  0.00000000000E+00  0.11729271344E+04  0.11729278220E+04  0.12700000000E+01 0. -1.
          4   -1    0    0  501    0  0.00000000000E+00 -0.00000000000E+00 -0.32084463588E+01  0.34506561749E+01  0.12700000000E+01 0. -1.
         25    2    1    2    0    0  0.00000000000E+00  0.00000000000E+00  0.11697186881E+04  0.11763784782E+04  0.12499805859E+03 0.  0.
    9000005    1    3    3    0    0 -0.13628042743E+01 -0.55503729482E+02  0.31493620277E+03  0.31979420420E+03  0.10000000000E+01 0.  0.
    9000005    1    3    3    0    0  0.13628042743E+01  0.55503729482E+02  0.85478248531E+03  0.85658427397E+03  0.10000000000E+01 0.  0.
<mgrwt>
<rscale>  0 0.12499806E+03</rscale>
<asrwt>0</asrwt>
<pdfrwt beam="2">  1        4 0.51229105E-03 0.12499806E+03</pdfrwt>
<pdfrwt beam="1">  1       -4 0.18046919E+00 0.12499806E+03</pdfrwt>
<totfact> 0.25340591E+03</totfact>
</mgrwt>
</event>
<event>
 5    1  0.3273105E-002  0.1250036E+03  0.7818608E-02  0.1235064E+00
          4   -1    0    0  501    0  0.00000000000E+00  0.00000000000E+00  0.10949033195E+02  0.11022442012E+02  0.12700000000E+01 0. -1.
         -4   -1    0    0    0  501 -0.00000000000E+00 -0.00000000000E+00 -0.35552075286E+03  0.35552302121E+03  0.12700000000E+01 0. -1.
         25    2    1    2    0    0  0.00000000000E+00  0.00000000000E+00 -0.34457171966E+03  0.36654546322E+03  0.12500362643E+03 0.  0.
    9000005    1    3    3    0    0  0.44314921801E+02 -0.12839379333E+02 -0.29588808959E+03  0.29946522923E+03  0.10000000000E+01 0.  0.
    9000005    1    3    3    0    0 -0.44314921801E+02  0.12839379333E+02 -0.48683630068E+02  0.67080233992E+02  0.10000000000E+01 0.  0.
<mgrwt>
<rscale>  0 0.12500363E+03</rscale>
<asrwt>0</asrwt>
<pdfrwt beam="1">  1        4 0.16902882E-02 0.12500363E+03</pdfrwt>
<pdfrwt beam="2">  1       -4 0.54701313E-01 0.12500363E+03</pdfrwt>
<totfact> 0.67936458E+03</totfact>
</mgrwt>
</event>
<event>
 5    1  0.3273105E-002  0.1249993E+03  0.7818608E-02  0.1235070E+00
          4   -1    0    0  501    0  0.00000000000E+00  0.00000000000E+00  0.65417982858E+01  0.66639346344E+01  0.12700000000E+01 0. -1.
         -4   -1    0    0    0  501 -0.00000000000E+00 -0.00000000000E+00 -0.59146958699E+03  0.59147095046E+03  0.12700000000E+01 0. -1.
         25    2    1    2    0    0  0.00000000000E+00  0.00000000000E+00 -0.58492778870E+03  0.59813488509E+03  0.12499929106E+03 0.  0.
    9000005    1    3    3    0    0 -0.60752819256E+01  0.45357772730E+02 -0.88831390202E+02  0.99931238773E+02  0.10000000000E+01 0.  0.
    9000005    1    3    3    0    0  0.60752819256E+01 -0.45357772730E+02 -0.49609639850E+03  0.49820364632E+03  0.10000000000E+01 0.  0.
<mgrwt>
<rscale>  0 0.12499929E+03</rscale>
<asrwt>0</asrwt>
<pdfrwt beam="1">  1        4 0.10159310E-02 0.12499929E+03</pdfrwt>
<pdfrwt beam="2">  1       -4 0.91004779E-01 0.12499929E+03</pdfrwt>
<totfact> 0.48986332E+03</totfact>
</mgrwt>
</event>
<event>
 5    1  0.3273105E-002  0.1249935E+03  0.7818608E-02  0.1235079E+00
         -4   -1    0    0    0  501 -0.00000000000E+00  0.00000000000E+00  0.68179051402E+02  0.68190878789E+02  0.12700000000E+01 0. -1.
          4   -1    0    0  501    0  0.00000000000E+00 -0.00000000000E+00 -0.57264220511E+02  0.57278301745E+02  0.12700000000E+01 0. -1.
         25    2    1    2    0    0  0.00000000000E+00  0.00000000000E+00  0.10914830891E+02  0.12546918053E+03  0.12499352675E+03 0.  0.
    9000005    1    3    3    0    0 -0.51268868241E+02 -0.12722536342E+02  0.38968368555E+02  0.65649779357E+02  0.10000000000E+01 0.  0.
    9000005    1    3    3    0    0  0.51268868241E+02  0.12722536342E+02 -0.28053537664E+02  0.59819401177E+02  0.10000000000E+01 0.  0.
<mgrwt>
<rscale>  0 0.12499353E+03</rscale>
<asrwt>0</asrwt>
<pdfrwt beam="2">  1        4 0.88118731E-02 0.12499353E+03</pdfrwt>
<pdfrwt beam="1">  1       -4 0.10491078E-01 0.12499353E+03</pdfrwt>
<totfact> 0.10444160E+04</totfact>
</mgrwt>
</event>
<event>
 5    1  0.3273105E-002  0.1249959E+03  0.7818608E-02  0.1235076E+00
          4   -1    0    0  501    0  0.00000000000E+00  0.00000000000E+00  0.17888584457E+02  0.17933609616E+02  0.12700000000E+01 0. -1.
         -4   -1    0    0    0  501 -0.00000000000E+00 -0.00000000000E+00 -0.21802983704E+03  0.21803353581E+03  0.12700000000E+01 0. -1.
         25    2    1    2    0    0  0.00000000000E+00  0.00000000000E+00 -0.20014125258E+03  0.23596714543E+03  0.12499589088E+03 0.  0.
    9000005    1    3    3    0    0  0.95575461441E+01  0.34558124756E+02 -0.19668800801E+03  0.19993194634E+03  0.10000000000E+01 0.  0.
    9000005    1    3    3    0    0 -0.95575461441E+01 -0.34558124756E+02 -0.34532445734E+01  0.36035199084E+02  0.10000000000E+01 0.  0.
<mgrwt>
<rscale>  0 0.12499589E+03</rscale>
<asrwt>0</asrwt>
<pdfrwt beam="1">  1        4 0.27558381E-02 0.12499589E+03</pdfrwt>
<pdfrwt beam="2">  1       -4 0.33546798E-01 0.12499589E+03</pdfrwt>
<totfact> 0.84409415E+03</totfact>
</mgrwt>
</event>
<event>
 5    1  0.3273105E-002  0.1249991E+03  0.7818608E-02  0.1235071E+00
          4   -1    0    0  501    0  0.00000000000E+00  0.00000000000E+00  0.43286828130E+02  0.43305454501E+02  0.12700000000E+01 0. -1.
         -4   -1    0    0    0  501 -0.00000000000E+00 -0.00000000000E+00 -0.90197239174E+02  0.90206179692E+02  0.12700000000E+01 0. -1.
         25    2    1    2    0    0  0.00000000000E+00  0.00000000000E+00 -0.46910411044E+02  0.13351163419E+03  0.12499907920E+03 0.  0.
    9000005    1    3    3    0    0  0.29511406852E+01 -0.23209410835E+02 -0.85348005260E+02  0.88502361463E+02  0.10000000000E+01 0.  0.
    9000005    1    3    3    0    0 -0.29511406852E+01  0.23209410835E+02  0.38437594216E+02  0.45009272731E+02  0.10000000000E+01 0.  0.
<mgrwt>
<rscale>  0 0.12499908E+03</rscale>
<asrwt>0</asrwt>
<pdfrwt beam="1">  1        4 0.66616326E-02 0.12499908E+03</pdfrwt>
<pdfrwt beam="2">  1       -4 0.13878619E-01 0.12499908E+03</pdfrwt>
<totfact> 0.10269751E+04</totfact>
</mgrwt>
</event>
<event>
 5    1  0.3273105E-002  0.1250023E+03  0.7818608E-02  0.1235066E+00
         -4   -1    0    0    0  501 -0.00000000000E+00  0.00000000000E+00  0.42316726374E+02  0.42335779560E+02  0.12700000000E+01 0. -1.
          4   -1    0    0  501    0  0.00000000000E+00 -0.00000000000E+00 -0.92269001923E+02  0.92277741714E+02  0.12700000000E+01 0. -1.
         25    2    1    2    0    0  0.00000000000E+00  0.00000000000E+00 -0.49952275549E+02  0.13461352127E+03  0.12500228109E+03 0.  0.
    9000005    1    3    3    0    0  0.19322369373E+02 -0.59314691269E+02 -0.28977472205E+02  0.68791572550E+02  0.10000000000E+01 0.  0.
    9000005    1    3    3    0    0 -0.19322369373E+02  0.59314691269E+02 -0.20974803344E+02  0.65821948724E+02  0.10000000000E+01 0.  0.
<mgrwt>
<rscale>  0 0.12500228E+03</rscale>
<asrwt>0</asrwt>
<pdfrwt beam="2">  1        4 0.14197369E-01 0.12500228E+03</pdfrwt>
<pdfrwt beam="1">  1       -4 0.65124035E-02 0.12500228E+03</pdfrwt>
<totfact> 0.10245696E+04</totfact>
</mgrwt>
</event>
<event>
 5    1  0.3273105E-002  0.1249957E+03  0.7818608E-02  0.1235076E+00
          4   -1    0    0  501    0  0.00000000000E+00  0.00000000000E+00  0.54095847959E+01  0.55566633571E+01  0.12700000000E+01 0.  1.
         -4   -1    0    0    0  501 -0.00000000000E+00 -0.00000000000E+00 -0.71221641546E+03  0.71221754777E+03  0.12700000000E+01 0.  1.
         25    2    1    2    0    0  0.00000000000E+00  0.00000000000E+00 -0.70680683067E+03  0.71777421113E+03  0.12499568907E+03 0.  0.
    9000005    1    3    3    0    0 -0.23148126562E+02  0.57378714572E+02 -0.30307046836E+03  0.30932323133E+03  0.10000000000E+01 0.  0.
    9000005    1    3    3    0    0  0.23148126562E+02 -0.57378714572E+02 -0.40373636231E+03  0.40845097980E+03  0.10000000000E+01 0.  0.
<mgrwt>
<rscale>  0 0.12499569E+03</rscale>
<asrwt>0</asrwt>
<pdfrwt beam="1">  1        4 0.84364522E-03 0.12499569E+03</pdfrwt>
<pdfrwt beam="2">  1       -4 0.10958308E+00 0.12499569E+03</pdfrwt>
<totfact> 0.42168872E+03</totfact>
</mgrwt>
</event>
<event>
 5    1  0.3273105E-002  0.1250027E+03  0.7818608E-02  0.1235065E+00
         -4   -1    0    0    0  501 -0.00000000000E+00  0.00000000000E+00  0.35651737169E+03  0.35651963371E+03  0.12700000000E+01 0. -1.
          4   -1    0    0  501    0  0.00000000000E+00 -0.00000000000E+00 -0.10918056722E+02  0.10991672419E+02  0.12700000000E+01 0. -1.
         25    2    1    2    0    0  0.00000000000E+00  0.00000000000E+00  0.34559931497E+03  0.36751130613E+03  0.12500269446E+03 0.  0.
    9000005    1    3    3    0    0  0.10591103096E+02  0.84533192819E+01  0.35216030577E+03  0.35242234752E+03  0.10000000000E+01 0.  0.
    9000005    1    3    3    0    0 -0.10591103096E+02 -0.84533192819E+01 -0.65609907961E+01  0.15088958609E+02  0.10000000000E+01 0.  0.
<mgrwt>
<rscale>  0 0.12500269E+03</rscale>
<asrwt>0</asrwt>
<pdfrwt beam="2">  1        4 0.16855380E-02 0.12500269E+03</pdfrwt>
<pdfrwt beam="1">  1       -4 0.54854657E-01 0.12500269E+03</pdfrwt>
<totfact> 0.67836068E+03</totfact>
</mgrwt>
</event>
<event>
 5    1  0.3273105E-002  0.1250012E+03  0.7818608E-02  0.1235067E+00
         -4   -1    0    0    0  501 -0.00000000000E+00  0.00000000000E+00  0.10005142851E+02  0.10085424308E+02  0.12700000000E+01 0.  1.
          4   -1    0    0  501    0  0.00000000000E+00 -0.00000000000E+00 -0.38879013550E+03  0.38879220975E+03  0.12700000000E+01 0.  1.
         25    2    1    2    0    0  0.00000000000E+00  0.00000000000E+00 -0.37878499265E+03  0.39887763406E+03  0.12500118518E+03 0.  0.
    9000005    1    3    3    0    0  0.25443639571E+02  0.52201258785E+02 -0.26306043354E+03  0.26939588324E+03  0.10000000000E+01 0.  0.
    9000005    1    3    3    0    0 -0.25443639571E+02 -0.52201258785E+02 -0.11572455911E+03  0.12948175082E+03  0.10000000000E+01 0.  0.
<mgrwt>
<rscale>  0 0.12500119E+03</rscale>
<asrwt>0</asrwt>
<pdfrwt beam="2">  1        4 0.59820190E-01 0.12500119E+03</pdfrwt>
<pdfrwt beam="1">  1       -4 0.15455881E-02 0.12500119E+03</pdfrwt>
<totfact> 0.64660409E+03</totfact>
</mgrwt>
</event>
<event>
 5    1  0.3273105E-002  0.1250016E+03  0.7818608E-02  0.1235067E+00
          4   -1    0    0  501    0  0.00000000000E+00  0.00000000000E+00  0.27655027121E+02  0.27684172826E+02  0.12700000000E+01 0. -1.
         -4   -1    0    0    0  501 -0.00000000000E+00 -0.00000000000E+00 -0.14114647580E+03  0.14115218925E+03  0.12700000000E+01 0. -1.
         25    2    1    2    0    0  0.00000000000E+00  0.00000000000E+00 -0.11349144868E+03  0.16883636208E+03  0.12500163294E+03 0.  0.
    9000005    1    3    3    0    0 -0.16997950001E+02  0.23928929340E+02 -0.13126358190E+03  0.13450892869E+03  0.10000000000E+01 0.  0.
    9000005    1    3    3    0    0  0.16997950001E+02 -0.23928929340E+02  0.17772133225E+02  0.34327433387E+02  0.10000000000E+01 0.  0.
<mgrwt>
<rscale>  0 0.12500163E+03</rscale>
<asrwt>0</asrwt>
<pdfrwt beam="1">  1        4 0.42573011E-02 0.12500163E+03</pdfrwt>
<pdfrwt beam="2">  1       -4 0.21717523E-01 0.12500163E+03</pdfrwt>
<totfact> 0.95662231E+03</totfact>
</mgrwt>
</event>
<event>
 5    1  0.3273105E-002  0.1250064E+03  0.7818608E-02  0.1235059E+00
         -4   -1    0    0    0  501 -0.00000000000E+00  0.00000000000E+00  0.60261121484E+02  0.60274502590E+02  0.12700000000E+01 0.  1.
          4   -1    0    0  501    0  0.00000000000E+00 -0.00000000000E+00 -0.64801852079E+02  0.64814295744E+02  0.12700000000E+01 0.  1.
         25    2    1    2    0    0  0.00000000000E+00  0.00000000000E+00 -0.45407305952E+01  0.12508879833E+03  0.12500635678E+03 0.  0.
    9000005    1    3    3    0    0  0.36909015245E+01 -0.42371702356E+02 -0.48089900438E+02  0.64207650936E+02  0.10000000000E+01 0.  0.
    9000005    1    3    3    0    0 -0.36909015245E+01  0.42371702356E+02  0.43549169842E+02  0.60881147398E+02  0.10000000000E+01 0.  0.
<mgrwt>
<rscale>  0 0.12500636E+03</rscale>
<asrwt>0</asrwt>
<pdfrwt beam="2">  1        4 0.99715022E-02 0.12500636E+03</pdfrwt>
<pdfrwt beam="1">  1       -4 0.92729283E-02 0.12500636E+03</pdfrwt>
<totfact> 0.10449433E+04</totfact>
</mgrwt>
</event>
<event>
 5    1  0.3273105E-002  0.1250094E+03  0.7818608E-02  0.1235055E+00
          4   -1    0    0  501    0  0.00000000000E+00  0.00000000000E+00  0.58827000454E+03  0.58827137542E+03  0.12700000000E+01 0. -1.
         -4   -1    0    0    0  501 -0.00000000000E+00 -0.00000000000E+00 -0.65791262109E+01  0.67005821910E+01  0.12700000000E+01 0. -1.
         25    2    1    2    0    0  0.00000000000E+00  0.00000000000E+00  0.58169087832E+03  0.59497195761E+03  0.12500940931E+03 0.  0.
    9000005    1    3    3    0    0 -0.59669471988E+02 -0.99260308149E+01  0.36562528185E+03  0.37059657136E+03  0.10000000000E+01 0.  0.
    9000005    1    3    3    0    0  0.59669471988E+02  0.99260308149E+01  0.21606559647E+03  0.22437538625E+03  0.10000000000E+01 0.  0.
<mgrwt>
<rscale>  0 0.12500941E+03</rscale>
<asrwt>0</asrwt>
<pdfrwt beam="1">  1        4 0.90512560E-01 0.12500941E+03</pdfrwt>
<pdfrwt beam="2">  1       -4 0.10216211E-02 0.12500941E+03</pdfrwt>
<totfact> 0.49176379E+03</totfact>
</mgrwt>
</event>
<event>
 5    1  0.3273105E-002  0.1249992E+03  0.7818608E-02  0.1235070E+00
          4   -1    0    0  501    0  0.00000000000E+00  0.00000000000E+00  0.71983701346E+02  0.71994903705E+02  0.12700000000E+01 0.  1.
         -4   -1    0    0    0  501 -0.00000000000E+00 -0.00000000000E+00 -0.54242224697E+02  0.54257090229E+02  0.12700000000E+01 0.  1.
         25    2    1    2    0    0  0.00000000000E+00  0.00000000000E+00  0.17741476649E+02  0.12625199393E+03  0.12499922391E+03 0.  0.
    9000005    1    3    3    0    0 -0.42596435578E+02 -0.34634490963E+02 -0.21281380605E+02  0.58888890706E+02  0.10000000000E+01 0.  0.
    9000005    1    3    3    0    0  0.42596435578E+02  0.34634490963E+02  0.39022857254E+02  0.67363103227E+02  0.10000000000E+01 0.  0.
<mgrwt>
<rscale>  0 0.12499922E+03</rscale>
<asrwt>0</asrwt>
<pdfrwt beam="1">  1        4 0.11076421E-01 0.12499922E+03</pdfrwt>
<pdfrwt beam="2">  1       -4 0.83469629E-02 0.12499922E+03</pdfrwt>
<totfact> 0.10425625E+04</totfact>
</mgrwt>
</event>
<event>
 5    1  0.3273105E-002  0.1250005E+03  0.7818608E-02  0.1235069E+00
          4   -1    0    0  501    0  0.00000000000E+00  0.00000000000E+00  0.14327373536E+02  0.14383550759E+02  0.12700000000E+01 0.  1.
         -4   -1    0    0    0  501 -0.00000000000E+00 -0.00000000000E+00 -0.27205338428E+03  0.27205634857E+03  0.12700000000E+01 0.  1.
         25    2    1    2    0    0  0.00000000000E+00  0.00000000000E+00 -0.25772601074E+03  0.28643989933E+03  0.12500047726E+03 0.  0.
    9000005    1    3    3    0    0 -0.24432686822E+01 -0.59747957862E+02 -0.17045829431E+03  0.18064555940E+03  0.10000000000E+01 0.  0.
    9000005    1    3    3    0    0  0.24432686822E+01  0.59747957862E+02 -0.87267716431E+02  0.10579433993E+03  0.10000000000E+01 0.  0.
<mgrwt>
<rscale>  0 0.12500048E+03</rscale>
<asrwt>0</asrwt>
<pdfrwt beam="1">  1        4 0.22087609E-02 0.12500048E+03</pdfrwt>
<pdfrwt beam="2">  1       -4 0.41858912E-01 0.12500048E+03</pdfrwt>
<totfact> 0.77331079E+03</totfact>
</mgrwt>
</event>
<event>
 5    1  0.3273105E-002  0.1249980E+03  0.7818608E-02  0.1235072E+00
         -4   -1    0    0    0  501 -0.00000000000E+00  0.00000000000E+00  0.11526002360E+03  0.11526702017E+03  0.12700000000E+01 0.  1.
          4   -1    0    0  501    0  0.00000000000E+00 -0.00000000000E+00 -0.33869740440E+02  0.33893542415E+02  0.12700000000E+01 0.  1.
         25    2    1    2    0    0  0.00000000000E+00  0.00000000000E+00  0.81390283158E+02  0.14916056259E+03  0.12499798094E+03 0.  0.
    9000005    1    3    3    0    0 -0.49352574035E+02 -0.38316449156E+02  0.42054130682E+02  0.75321821189E+02  0.10000000000E+01 0.  0.
    9000005    1    3    3    0    0  0.49352574035E+02  0.38316449156E+02  0.39336152476E+02  0.73838741400E+02  0.10000000000E+01 0.  0.
<mgrwt>
<rscale>  0 0.12499798E+03</rscale>
<asrwt>0</asrwt>
<pdfrwt beam="2">  1        4 0.52130984E-02 0.12499798E+03</pdfrwt>
<pdfrwt beam="1">  1       -4 0.17734680E-01 0.12499798E+03</pdfrwt>
<totfact> 0.99475811E+03</totfact>
</mgrwt>
</event>
<event>
 5    1  0.3273105E-002  0.1250075E+03  0.7818608E-02  0.1235058E+00
          4   -1    0    0  501    0  0.00000000000E+00  0.00000000000E+00  0.18486495607E+03  0.18486931839E+03  0.12700000000E+01 0. -1.
         -4   -1    0    0    0  501 -0.00000000000E+00 -0.00000000000E+00 -0.21109122068E+02  0.21147291422E+02  0.12700000000E+01 0. -1.
         25    2    1    2    0    0  0.00000000000E+00  0.00000000000E+00  0.16375583400E+03  0.20601660981E+03  0.12500748117E+03 0.  0.
    9000005    1    3    3    0    0  0.49271513901E+02 -0.17134467576E+02  0.25159542265E+02  0.57924732439E+02  0.10000000000E+01 0.  0.
    9000005    1    3    3    0    0 -0.49271513901E+02  0.17134467576E+02  0.13859629173E+03  0.14809187737E+03  0.10000000000E+01 0.  0.
<mgrwt>
<rscale>  0 0.12500748E+03</rscale>
<asrwt>0</asrwt>
<pdfrwt beam="1">  1        4 0.28444033E-01 0.12500748E+03</pdfrwt>
<pdfrwt beam="2">  1       -4 0.32508290E-02 0.12500748E+03</pdfrwt>
<totfact> 0.89115670E+03</totfact>
</mgrwt>
</event>
<event>
 5    1  0.3273105E-002  0.1250506E+03  0.7818608E-02  0.1234990E+00
          4   -1    0    0  501    0  0.00000000000E+00  0.00000000000E+00  0.31652833882E+02  0.31678301608E+02  0.12700000000E+01 0. -1.
         -4   -1    0    0    0  501 -0.00000000000E+00 -0.00000000000E+00 -0.12343078793E+03  0.12343732138E+03  0.12700000000E+01 0. -1.
         25    2    1    2    0    0  0.00000000000E+00  0.00000000000E+00 -0.91777954052E+02  0.15511562299E+03  0.12505064432E+03 0.  0.
    9000005    1    3    3    0    0  0.51029002871E+02  0.32405972427E+02 -0.26107847131E+02  0.65853821945E+02  0.10000000000E+01 0.  0.
    9000005    1    3    3    0    0 -0.51029002871E+02 -0.32405972427E+02 -0.65670106921E+02  0.89261801045E+02  0.10000000000E+01 0.  0.
<mgrwt>
<rscale>  0 0.12505064E+03</rscale>
<asrwt>0</asrwt>
<pdfrwt beam="1">  1        4 0.48721285E-02 0.12505064E+03</pdfrwt>
<pdfrwt beam="2">  1       -4 0.18991813E-01 0.12505064E+03</pdfrwt>
<totfact> 0.98180937E+03</totfact>
</mgrwt>
</event>
<event>
 5    1  0.3273105E-002  0.1250002E+03  0.7818608E-02  0.1235069E+00
          4   -1    0    0  501    0  0.00000000000E+00  0.00000000000E+00  0.59910700035E+02  0.59924159390E+02  0.12700000000E+01 0.  1.
         -4   -1    0    0    0  501 -0.00000000000E+00 -0.00000000000E+00 -0.65174440351E+02  0.65186812893E+02  0.12700000000E+01 0.  1.
         25    2    1    2    0    0  0.00000000000E+00  0.00000000000E+00 -0.52637403167E+01  0.12511097228E+03  0.12500019369E+03 0.  0.
    9000005    1    3    3    0    0  0.35062469185E+02  0.41367214527E+02 -0.33718032019E+02  0.63863360907E+02  0.10000000000E+01 0.  0.
    9000005    1    3    3    0    0 -0.35062469185E+02 -0.41367214527E+02  0.28454291702E+02  0.61247611376E+02  0.10000000000E+01 0.  0.
<mgrwt>
<rscale>  0 0.12500019E+03</rscale>
<asrwt>0</asrwt>
<pdfrwt beam="1">  1        4 0.92190179E-02 0.12500019E+03</pdfrwt>
<pdfrwt beam="2">  1       -4 0.10028824E-01 0.12500019E+03</pdfrwt>
<totfact> 0.10450407E+04</totfact>
</mgrwt>
</event>
<event>
 5    1  0.3273105E-002  0.1249999E+03  0.7818608E-02  0.1235069E+00
          4   -1    0    0  501    0  0.00000000000E+00  0.00000000000E+00  0.42443210302E+02  0.42462206734E+02  0.12700000000E+01 0.  1.
         -4   -1    0    0    0  501 -0.00000000000E+00 -0.00000000000E+00 -0.91990610724E+02  0.91999376962E+02  0.12700000000E+01 0.  1.
         25    2    1    2    0    0  0.00000000000E+00  0.00000000000E+00 -0.49547400422E+02  0.13446158370E+03  0.12499989041E+03 0.  0.
    9000005    1    3    3    0    0 -0.14450664931E+02  0.35207613074E+02  0.28544748546E+02  0.47583614879E+02  0.10000000000E+01 0.  0.
    9000005    1    3    3    0    0  0.14450664931E+02 -0.35207613074E+02 -0.78092148969E+02  0.86877968818E+02  0.10000000000E+01 0.  0.
<mgrwt>
<rscale>  0 0.12499989E+03</rscale>
<asrwt>0</asrwt>
<pdfrwt beam="1">  1        4 0.65318603E-02 0.12499989E+03</pdfrwt>
<pdfrwt beam="2">  1       -4 0.14154537E-01 0.12499989E+03</pdfrwt>
<totfact> 0.10249457E+04</totfact>
</mgrwt>
</event>
<event>
 5    1  0.3273105E-002  0.1249992E+03  0.7818608E-02  0.1235071E+00
         -4   -1    0    0    0  501 -0.00000000000E+00  0.00000000000E+00  0.94080946862E+01  0.94934264428E+01  0.12700000000E+01 0. -1.
          4   -1    0    0  501    0  0.00000000000E+00 -0.00000000000E+00 -0.41323479305E+03  0.41323674460E+03  0.12700000000E+01 0. -1.
         25    2    1    2    0    0  0.00000000000E+00  0.00000000000E+00 -0.40382669836E+03  0.42273017104E+03  0.12499918079E+03 0.  0.
    9000005    1    3    3    0    0  0.20508530792E+02  0.46037500250E+02 -0.32686611487E+03  0.33073026519E+03  0.10000000000E+01 0.  0.
    9000005    1    3    3    0    0 -0.20508530792E+02 -0.46037500250E+02 -0.76960583493E+02  0.91999905848E+02  0.10000000000E+01 0.  0.
<mgrwt>
<rscale>  0 0.12499918E+03</rscale>
<asrwt>0</asrwt>
<pdfrwt beam="2">  1        4 0.63581284E-01 0.12499918E+03</pdfrwt>
<pdfrwt beam="1">  1       -4 0.14541136E-02 0.12499918E+03</pdfrwt>
<totfact> 0.62401664E+03</totfact>
</mgrwt>
</event>
<event>
 5    1  0.3273105E-002  0.1250063E+03  0.7818608E-02  0.1235059E+00
         -4   -1    0    0    0  501 -0.00000000000E+00  0.00000000000E+00  0.87850882778E+02  0.87860062058E+02  0.12700000000E+01 0.  1.
          4   -1    0    0  501    0  0.00000000000E+00 -0.00000000000E+00 -0.44448454475E+02  0.44466594262E+02  0.12700000000E+01 0.  1.
         25    2    1    2    0    0  0.00000000000E+00  0.00000000000E+00  0.43402428303E+02  0.13232665632E+03  0.12500629260E+03 0.  0.
    9000005    1    3    3    0    0  0.11073247974E+02  0.27321503325E+02  0.80033169566E+02  0.85295894365E+02  0.10000000000E+01 0.  0.
    9000005    1    3    3    0    0 -0.11073247974E+02 -0.27321503325E+02 -0.36630741263E+02  0.47030761955E+02  0.10000000000E+01 0.  0.
<mgrwt>
<rscale>  0 0.12500629E+03</rscale>
<asrwt>0</asrwt>
<pdfrwt beam="2">  1        4 0.68403253E-02 0.12500629E+03</pdfrwt>
<pdfrwt beam="1">  1       -4 0.13517622E-01 0.12500629E+03</pdfrwt>
<totfact> 0.10293270E+04</totfact>
</mgrwt>
</event>
<event>
 5    1  0.3273105E-002  0.1249954E+03  0.7818608E-02  0.1235077E+00
          4   -1    0    0  501    0  0.00000000000E+00  0.00000000000E+00  0.21516262200E+02  0.21553710564E+02  0.12700000000E+01 0.  1.
         -4   -1    0    0    0  501 -0.00000000000E+00 -0.00000000000E+00 -0.18133774129E+03  0.18134218847E+03  0.12700000000E+01 0.  1.
         25    2    1    2    0    0  0.00000000000E+00  0.00000000000E+00 -0.15982147909E+03  0.20289589903E+03  0.12499536257E+03 0.  0.
    9000005    1    3    3    0    0 -0.54385978977E+02  0.23288993021E+02 -0.11256740702E+03  0.12717166755E+03  0.10000000000E+01 0.  0.
    9000005    1    3    3    0    0  0.54385978977E+02 -0.23288993021E+02 -0.47254072078E+02  0.75724231480E+02  0.10000000000E+01 0.  0.
<mgrwt>
<rscale>  0 0.12499536E+03</rscale>
<asrwt>0</asrwt>
<pdfrwt beam="1">  1        4 0.33134170E-02 0.12499536E+03</pdfrwt>
<pdfrwt beam="2">  1       -4 0.27901336E-01 0.12499536E+03</pdfrwt>
<totfact> 0.89658679E+03</totfact>
</mgrwt>
</event>
<event>
 5    1  0.3273105E-002  0.1249891E+03  0.7818608E-02  0.1235086E+00
          4   -1    0    0  501    0  0.00000000000E+00  0.00000000000E+00  0.17690023820E+02  0.17735553071E+02  0.12700000000E+01 0.  1.
         -4   -1    0    0    0  501 -0.00000000000E+00 -0.00000000000E+00 -0.22044678491E+03  0.22045044313E+03  0.12700000000E+01 0.  1.
         25    2    1    2    0    0  0.00000000000E+00  0.00000000000E+00 -0.20275676109E+03  0.23818599620E+03  0.12498905800E+03 0.  0.
    9000005    1    3    3    0    0  0.13773348488E+02 -0.58005417287E+02 -0.65714999959E+02  0.88734405857E+02  0.10000000000E+01 0.  0.
    9000005    1    3    3    0    0 -0.13773348488E+02  0.58005417287E+02 -0.13704176113E+03  0.14945159034E+03  0.10000000000E+01 0.  0.
<mgrwt>
<rscale>  0 0.12498906E+03</rscale>
<asrwt>0</asrwt>
<pdfrwt beam="1">  1        4 0.27253259E-02 0.12498906E+03</pdfrwt>
<pdfrwt beam="2">  1       -4 0.33918672E-01 0.12498906E+03</pdfrwt>
<totfact> 0.84088789E+03</totfact>
</mgrwt>
</event>
<event>
 5    1  0.3273105E-002  0.1250005E+03  0.7818608E-02  0.1235069E+00
         -4   -1    0    0    0  501 -0.00000000000E+00  0.00000000000E+00  0.41366977014E+01  0.43272587019E+01  0.12700000000E+01 0. -1.
          4   -1    0    0  501    0  0.00000000000E+00 -0.00000000000E+00 -0.92284786463E+03  0.92284873850E+03  0.12700000000E+01 0. -1.
         25    2    1    2    0    0  0.00000000000E+00  0.00000000000E+00 -0.91871116693E+03  0.92717599720E+03  0.12500048620E+03 0.  0.
    9000005    1    3    3    0    0 -0.14017355741E+02 -0.23523165369E+02 -0.42695918093E+02  0.50732307190E+02  0.10000000000E+01 0.  0.
    9000005    1    3    3    0    0  0.14017355741E+02  0.23523165369E+02 -0.87601524884E+03  0.87644369001E+03  0.10000000000E+01 0.  0.
<mgrwt>
<rscale>  0 0.12500049E+03</rscale>
<asrwt>0</asrwt>
<pdfrwt beam="2">  1        4 0.14199116E+00 0.12500049E+03</pdfrwt>
<pdfrwt beam="1">  1       -4 0.65114152E-03 0.12500049E+03</pdfrwt>
<totfact> 0.33140106E+03</totfact>
</mgrwt>
</event>
<event>
 5    1  0.3273105E-002  0.1250027E+03  0.7818608E-02  0.1235065E+00
         -4   -1    0    0    0  501 -0.00000000000E+00  0.00000000000E+00  0.12552117336E+02  0.12616201869E+02  0.12700000000E+01 0.  1.
          4   -1    0    0  501    0  0.00000000000E+00 -0.00000000000E+00 -0.31035802434E+03  0.31036062278E+03  0.12700000000E+01 0.  1.
         25    2    1    2    0    0  0.00000000000E+00  0.00000000000E+00 -0.29780590700E+03  0.32297682465E+03  0.12500268402E+03 0.  0.
    9000005    1    3    3    0    0  0.32537908334E+02 -0.44780577877E+02 -0.22384987924E+03  0.23059441465E+03  0.10000000000E+01 0.  0.
    9000005    1    3    3    0    0 -0.32537908334E+02  0.44780577877E+02 -0.73956027765E+02  0.92382409995E+02  0.10000000000E+01 0.  0.
<mgrwt>
<rscale>  0 0.12500268E+03</rscale>
<asrwt>0</asrwt>
<pdfrwt beam="2">  1        4 0.47752512E-01 0.12500268E+03</pdfrwt>
<pdfrwt beam="1">  1       -4 0.19362247E-02 0.12500268E+03</pdfrwt>
<totfact> 0.72799136E+03</totfact>
</mgrwt>
</event>
<event>
 5    1  0.3273105E-002  0.1250244E+03  0.7818608E-02  0.1235031E+00
          4   -1    0    0  501    0  0.00000000000E+00  0.00000000000E+00  0.58321200856E+02  0.58335026950E+02  0.12700000000E+01 0. -1.
         -4   -1    0    0    0  501 -0.00000000000E+00 -0.00000000000E+00 -0.66976562093E+02  0.66988601791E+02  0.12700000000E+01 0. -1.
         25    2    1    2    0    0  0.00000000000E+00  0.00000000000E+00 -0.86553612379E+01  0.12532362874E+03  0.12502438419E+03 0.  0.
    9000005    1    3    3    0    0  0.81177455627E+01 -0.57691520556E+02 -0.27021763481E+02  0.64229160346E+02  0.10000000000E+01 0.  0.
    9000005    1    3    3    0    0 -0.81177455627E+01  0.57691520556E+02  0.18366402243E+02  0.61094468395E+02  0.10000000000E+01 0.  0.
<mgrwt>
<rscale>  0 0.12502438E+03</rscale>
<asrwt>0</asrwt>
<pdfrwt beam="1">  1        4 0.89744822E-02 0.12502438E+03</pdfrwt>
<pdfrwt beam="2">  1       -4 0.10306076E-01 0.12502438E+03</pdfrwt>
<totfact> 0.10440083E+04</totfact>
</mgrwt>
</event>
<event>
 5    1  0.3273105E-002  0.1249975E+03  0.7818608E-02  0.1235073E+00
         -4   -1    0    0    0  501 -0.00000000000E+00  0.00000000000E+00  0.10901118762E+03  0.10901858523E+03  0.12700000000E+01 0. -1.
          4   -1    0    0  501    0  0.00000000000E+00 -0.00000000000E+00 -0.35812146480E+02  0.35834658300E+02  0.12700000000E+01 0. -1.
         25    2    1    2    0    0  0.00000000000E+00  0.00000000000E+00  0.73199041136E+02  0.14485324353E+03  0.12499745013E+03 0.  0.
    9000005    1    3    3    0    0 -0.52547458616E+02  0.24453946836E+02  0.95245750592E+01  0.58744773835E+02  0.10000000000E+01 0.  0.
    9000005    1    3    3    0    0  0.52547458616E+02 -0.24453946836E+02  0.63674466077E+02  0.86108469694E+02  0.10000000000E+01 0.  0.
<mgrwt>
<rscale>  0 0.12499745E+03</rscale>
<asrwt>0</asrwt>
<pdfrwt beam="2">  1        4 0.55118618E-02 0.12499745E+03</pdfrwt>
<pdfrwt beam="1">  1       -4 0.16773252E-01 0.12499745E+03</pdfrwt>
<totfact> 0.10034547E+04</totfact>
</mgrwt>
</event>
<event>
 5    1  0.3273105E-002  0.1250009E+03  0.7818608E-02  0.1235068E+00
          4   -1    0    0  501    0  0.00000000000E+00  0.00000000000E+00  0.30742261420E+02  0.30768482856E+02  0.12700000000E+01 0.  1.
         -4   -1    0    0    0  501 -0.00000000000E+00 -0.00000000000E+00 -0.12698271622E+03  0.12698906692E+03  0.12700000000E+01 0.  1.
         25    2    1    2    0    0  0.00000000000E+00  0.00000000000E+00 -0.96240454798E+02  0.15775754978E+03  0.12500087749E+03 0.  0.
    9000005    1    3    3    0    0 -0.23840249565E+02 -0.34820206289E+02  0.10050637018E+02  0.43391468860E+02  0.10000000000E+01 0.  0.
    9000005    1    3    3    0    0  0.23840249565E+02  0.34820206289E+02 -0.10629109182E+03  0.11436608092E+03  0.10000000000E+01 0.  0.
<mgrwt>
<rscale>  0 0.12500088E+03</rscale>
<asrwt>0</asrwt>
<pdfrwt beam="1">  1        4 0.47320843E-02 0.12500088E+03</pdfrwt>
<pdfrwt beam="2">  1       -4 0.19538308E-01 0.12500088E+03</pdfrwt>
<totfact> 0.97774933E+03</totfact>
</mgrwt>
</event>
<event>
 5    1  0.3273105E-002  0.1250021E+03  0.7818608E-02  0.1235066E+00
          4   -1    0    0  501    0  0.00000000000E+00  0.00000000000E+00  0.22629890327E+02  0.22665498808E+02  0.12700000000E+01 0. -1.
         -4   -1    0    0    0  501 -0.00000000000E+00 -0.00000000000E+00 -0.17244671662E+03  0.17245139307E+03  0.12700000000E+01 0. -1.
         25    2    1    2    0    0  0.00000000000E+00  0.00000000000E+00 -0.14981682629E+03  0.19511689188E+03  0.12500208021E+03 0.  0.
    9000005    1    3    3    0    0 -0.75788787774E+01  0.61745820960E+02 -0.84194734479E+02  0.10468877267E+03  0.10000000000E+01 0.  0.
    9000005    1    3    3    0    0  0.75788787774E+01 -0.61745820960E+02 -0.65622091809E+02  0.90428119205E+02  0.10000000000E+01 0.  0.
<mgrwt>
<rscale>  0 0.12500208E+03</rscale>
<asrwt>0</asrwt>
<pdfrwt beam="1">  1        4 0.34846205E-02 0.12500208E+03</pdfrwt>
<pdfrwt beam="2">  1       -4 0.26533362E-01 0.12500208E+03</pdfrwt>
<totfact> 0.90960300E+03</totfact>
</mgrwt>
</event>
<event>
 5    1  0.3273105E-002  0.1249994E+03  0.7818608E-02  0.1235070E+00
         -4   -1    0    0    0  501 -0.00000000000E+00  0.00000000000E+00  0.80440164207E+02  0.80450189047E+02  0.12700000000E+01 0. -1.
          4   -1    0    0  501    0  0.00000000000E+00 -0.00000000000E+00 -0.48539081531E+02  0.48555693136E+02  0.12700000000E+01 0. -1.
         25    2    1    2    0    0  0.00000000000E+00  0.00000000000E+00  0.31901082676E+02  0.12900588218E+03  0.12499935425E+03 0.  0.
    9000005    1    3    3    0    0  0.20604226802E+02  0.48884412156E+02 -0.18138286969E+02  0.56073321358E+02  0.10000000000E+01 0.  0.
    9000005    1    3    3    0    0 -0.20604226802E+02 -0.48884412156E+02  0.50039369645E+02  0.72932560825E+02  0.10000000000E+01 0.  0.
<mgrwt>
<rscale>  0 0.12499935E+03</rscale>
<asrwt>0</asrwt>
<pdfrwt beam="2">  1        4 0.74695999E-02 0.12499935E+03</pdfrwt>
<pdfrwt beam="1">  1       -4 0.12377459E-01 0.12499935E+03</pdfrwt>
<totfact> 0.10365971E+04</totfact>
</mgrwt>
</event>
<event>
 5    1  0.3273105E-002  0.1250011E+03  0.7818608E-02  0.1235068E+00
         -4   -1    0    0    0  501 -0.00000000000E+00  0.00000000000E+00  0.24846012164E+02  0.24878448915E+02  0.12700000000E+01 0.  1.
          4   -1    0    0  501    0  0.00000000000E+00 -0.00000000000E+00 -0.15708358103E+03  0.15708871484E+03  0.12700000000E+01 0.  1.
         25    2    1    2    0    0  0.00000000000E+00  0.00000000000E+00 -0.13223756887E+03  0.18196716376E+03  0.12500109625E+03 0.  0.
    9000005    1    3    3    0    0  0.38287941473E+02 -0.47645497294E+02 -0.47179889717E+02  0.77220475706E+02  0.10000000000E+01 0.  0.
    9000005    1    3    3    0    0 -0.38287941473E+02  0.47645497294E+02 -0.85057679155E+02  0.10474668805E+03  0.10000000000E+01 0.  0.
<mgrwt>
<rscale>  0 0.12500110E+03</rscale>
<asrwt>0</asrwt>
<pdfrwt beam="2">  1        4 0.24169594E-01 0.12500110E+03</pdfrwt>
<pdfrwt beam="1">  1       -4 0.38253536E-02 0.12500110E+03</pdfrwt>
<totfact> 0.93261809E+03</totfact>
</mgrwt>
</event>
<event>
 5    1  0.3273105E-002  0.1250456E+03  0.7818608E-02  0.1234998E+00
         -4   -1    0    0    0  501 -0.00000000000E+00  0.00000000000E+00  0.90163040499E+03  0.90163129943E+03  0.12700000000E+01 0. -1.
          4   -1    0    0  501    0  0.00000000000E+00 -0.00000000000E+00 -0.42416735693E+01  0.44277189013E+01  0.12700000000E+01 0. -1.
         25    2    1    2    0    0  0.00000000000E+00  0.00000000000E+00  0.89738873142E+03  0.90605901833E+03  0.12504562931E+03 0.  0.
    9000005    1    3    3    0    0  0.21507111809E+02  0.50971728537E+02  0.23776369664E+03  0.24411728412E+03  0.10000000000E+01 0.  0.
    9000005    1    3    3    0    0 -0.21507111809E+02 -0.50971728537E+02  0.65962503479E+03  0.66194173421E+03  0.10000000000E+01 0.  0.
<mgrwt>
<rscale>  0 0.12504563E+03</rscale>
<asrwt>0</asrwt>
<pdfrwt beam="2">  1        4 0.66694536E-03 0.12504563E+03</pdfrwt>
<pdfrwt beam="1">  1       -4 0.13872671E+00 0.12504563E+03</pdfrwt>
<totfact> 0.33895214E+03</totfact>
</mgrwt>
</event>
<event>
 5    1  0.3273105E-002  0.1250011E+03  0.7818608E-02  0.1235067E+00
         -4   -1    0    0    0  501 -0.00000000000E+00  0.00000000000E+00  0.59191259774E+01  0.60538378188E+01  0.12700000000E+01 0.  1.
          4   -1    0    0  501    0  0.00000000000E+00 -0.00000000000E+00 -0.65238842041E+03  0.65238965656E+03  0.12700000000E+01 0.  1.
         25    2    1    2    0    0  0.00000000000E+00  0.00000000000E+00 -0.64646929443E+03  0.65844349438E+03  0.12500114657E+03 0.  0.
    9000005    1    3    3    0    0 -0.76879568873E+01 -0.61936671720E+02 -0.33994655358E+03  0.34562973726E+03  0.10000000000E+01 0.  0.
    9000005    1    3    3    0    0  0.76879568873E+01  0.61936671720E+02 -0.30652274085E+03  0.31281375712E+03  0.10000000000E+01 0.  0.
<mgrwt>
<rscale>  0 0.12500115E+03</rscale>
<asrwt>0</asrwt>
<pdfrwt beam="2">  1        4 0.10037785E+00 0.12500115E+03</pdfrwt>
<pdfrwt beam="1">  1       -4 0.92109282E-03 0.12500115E+03</pdfrwt>
<totfact> 0.45371734E+03</totfact>
</mgrwt>
</event>
<event>
 5    1  0.3273105E-002  0.1250004E+03  0.7818608E-02  0.1235069E+00
          4   -1    0    0  501    0  0.00000000000E+00  0.00000000000E+00  0.37953689618E+02  0.37974931937E+02  0.12700000000E+01 0.  1.
         -4   -1    0    0    0  501 -0.00000000000E+00 -0.00000000000E+00 -0.10286811547E+03  0.10287595482E+03  0.12700000000E+01 0.  1.
         25    2    1    2    0    0  0.00000000000E+00  0.00000000000E+00 -0.64914425851E+02  0.14085088676E+03  0.12500035847E+03 0.  0.
    9000005    1    3    3    0    0  0.33135998738E+02  0.21199951642E+02 -0.87172098650E+02  0.95642078318E+02  0.10000000000E+01 0.  0.
    9000005    1    3    3    0    0 -0.33135998738E+02 -0.21199951642E+02  0.22257672799E+02  0.45208808438E+02  0.10000000000E+01 0.  0.
<mgrwt>
<rscale>  0 0.12500036E+03</rscale>
<asrwt>0</asrwt>
<pdfrwt beam="1">  1        4 0.58412663E-02 0.12500036E+03</pdfrwt>
<pdfrwt beam="2">  1       -4 0.15828101E-01 0.12500036E+03</pdfrwt>
<totfact> 0.10115899E+04</totfact>
</mgrwt>
</event>
<event>
 5    1  0.3273105E-002  0.1250026E+03  0.7818608E-02  0.1235065E+00
         -4   -1    0    0    0  501 -0.00000000000E+00  0.00000000000E+00  0.45306082012E+02  0.45323878555E+02  0.12700000000E+01 0. -1.
          4   -1    0    0  501    0  0.00000000000E+00 -0.00000000000E+00 -0.86183340349E+02  0.86192697218E+02  0.12700000000E+01 0. -1.
         25    2    1    2    0    0  0.00000000000E+00  0.00000000000E+00 -0.40877258337E+02  0.13151657577E+03  0.12500263779E+03 0.  0.
    9000005    1    3    3    0    0 -0.56425077370E+02 -0.33682065732E+01 -0.48478520087E+02  0.74473492476E+02  0.10000000000E+01 0.  0.
    9000005    1    3    3    0    0  0.56425077370E+02  0.33682065732E+01  0.76012617504E+01  0.57043083296E+02  0.10000000000E+01 0.  0.
<mgrwt>
<rscale>  0 0.12500264E+03</rscale>
<asrwt>0</asrwt>
<pdfrwt beam="2">  1        4 0.13261064E-01 0.12500264E+03</pdfrwt>
<pdfrwt beam="1">  1       -4 0.69722552E-02 0.12500264E+03</pdfrwt>
<totfact> 0.10311414E+04</totfact>
</mgrwt>
</event>
<event>
 5    1  0.3273105E-002  0.1250237E+03  0.7818608E-02  0.1235032E+00
         -4   -1    0    0    0  501 -0.00000000000E+00  0.00000000000E+00  0.32461627723E+02  0.32486461403E+02  0.12700000000E+01 0. -1.
          4   -1    0    0  501    0  0.00000000000E+00 -0.00000000000E+00 -0.12030573132E+03  0.12031243447E+03  0.12700000000E+01 0. -1.
         25    2    1    2    0    0  0.00000000000E+00  0.00000000000E+00 -0.87844103598E+02  0.15279889588E+03  0.12502366194E+03 0.  0.
    9000005    1    3    3    0    0 -0.26540931619E+02 -0.18381797804E+02 -0.10933235431E+03  0.11400383871E+03  0.10000000000E+01 0.  0.
    9000005    1    3    3    0    0  0.26540931619E+02  0.18381797804E+02  0.21488250713E+02  0.38795057164E+02  0.10000000000E+01 0.  0.
<mgrwt>
<rscale>  0 0.12502366E+03</rscale>
<asrwt>0</asrwt>
<pdfrwt beam="2">  1        4 0.18511000E-01 0.12502366E+03</pdfrwt>
<pdfrwt beam="1">  1       -4 0.49965226E-02 0.12502366E+03</pdfrwt>
<totfact> 0.98696127E+03</totfact>
</mgrwt>
</event>
<event>
 5    1  0.3273105E-002  0.1250032E+03  0.7818608E-02  0.1235064E+00
         -4   -1    0    0    0  501 -0.00000000000E+00  0.00000000000E+00  0.45627299122E+03  0.45627475869E+03  0.12700000000E+01 0. -1.
          4   -1    0    0  501    0  0.00000000000E+00 -0.00000000000E+00 -0.85127597015E+01  0.86069726232E+01  0.12700000000E+01 0. -1.
         25    2    1    2    0    0  0.00000000000E+00  0.00000000000E+00  0.44776023152E+03  0.46488173132E+03  0.12500319667E+03 0.  0.
    9000005    1    3    3    0    0 -0.54251491456E+02  0.35196843349E+01  0.33849630602E+03  0.34283576490E+03  0.10000000000E+01 0.  0.
    9000005    1    3    3    0    0  0.54251491456E+02 -0.35196843349E+01  0.10926392550E+03  0.12204596642E+03  0.10000000000E+01 0.  0.
<mgrwt>
<rscale>  0 0.12500320E+03</rscale>
<asrwt>0</asrwt>
<pdfrwt beam="2">  1        4 0.13170382E-02 0.12500320E+03</pdfrwt>
<pdfrwt beam="1">  1       -4 0.70203243E-01 0.12500320E+03</pdfrwt>
<totfact> 0.58691787E+03</totfact>
</mgrwt>
</event>
<event>
 5    1  0.3273105E-002  0.1250014E+03  0.7818608E-02  0.1235067E+00
          4   -1    0    0  501    0  0.00000000000E+00  0.00000000000E+00  0.40935621888E+03  0.40935818892E+03  0.12700000000E+01 0. -1.
         -4   -1    0    0    0  501 -0.00000000000E+00 -0.00000000000E+00 -0.94983765152E+01  0.95829043835E+01  0.12700000000E+01 0. -1.
         25    2    1    2    0    0  0.00000000000E+00  0.00000000000E+00  0.39985784237E+03  0.41894109331E+03  0.12500138222E+03 0.  0.
    9000005    1    3    3    0    0  0.24067053642E+02  0.57543499662E+02  0.18700981619E+03  0.19713992182E+03  0.10000000000E+01 0.  0.
    9000005    1    3    3    0    0 -0.24067053642E+02 -0.57543499662E+02  0.21284802618E+03  0.22180117148E+03  0.10000000000E+01 0.  0.
<mgrwt>
<rscale>  0 0.12500138E+03</rscale>
<asrwt>0</asrwt>
<pdfrwt beam="1">  1        4 0.62984538E-01 0.12500138E+03</pdfrwt>
<pdfrwt beam="2">  1       -4 0.14679423E-02 0.12500138E+03</pdfrwt>
<totfact> 0.62749450E+03</totfact>
</mgrwt>
</event>
<event>
 5    1  0.3273105E-002  0.1250004E+03  0.7818608E-02  0.1235069E+00
          4   -1    0    0  501    0  0.00000000000E+00  0.00000000000E+00  0.12544659103E+03  0.12545301950E+03  0.12700000000E+01 0. -1.
         -4   -1    0    0    0  501 -0.00000000000E+00 -0.00000000000E+00 -0.31118748561E+02  0.31144653024E+02  0.12700000000E+01 0. -1.
         25    2    1    2    0    0  0.00000000000E+00  0.00000000000E+00  0.94327842468E+02  0.15659767252E+03  0.12500035670E+03 0.  0.
    9000005    1    3    3    0    0 -0.53072744949E+02  0.32666328757E+02  0.52968353606E+02  0.81795181855E+02  0.10000000000E+01 0.  0.
    9000005    1    3    3    0    0  0.53072744949E+02 -0.32666328757E+02  0.41359488862E+02  0.74802490666E+02  0.10000000000E+01 0.  0.
<mgrwt>
<rscale>  0 0.12500036E+03</rscale>
<asrwt>0</asrwt>
<pdfrwt beam="1">  1        4 0.19301963E-01 0.12500036E+03</pdfrwt>
<pdfrwt beam="2">  1       -4 0.47899868E-02 0.12500036E+03</pdfrwt>
<totfact> 0.98001979E+03</totfact>
</mgrwt>
</event>
<event>
 4    1  0.3273105E-002  0.1250857E+03  0.7818608E-02  0.1234935E+00
          4   -1    0    0  501    0  0.00000000000E+00  0.00000000000E+00  0.98203946351E+02  0.98212158000E+02  0.12700000000E+01 0.  1.
         -4   -1    0    0    0  501 -0.00000000000E+00 -0.00000000000E+00 -0.39811464712E+02  0.39831716289E+02  0.12700000000E+01 0.  1.
    9000005    1    1    2    0    0 -0.54870522953E+02 -0.18686773529E+02  0.32996601515E+01  0.58067698002E+02  0.10000000000E+01 0.  0.
    9000005    1    1    2    0    0  0.54870522953E+02  0.18686773529E+02  0.55092821487E+02  0.79976176287E+02  0.10000000000E+01 0.  0.
<mgrwt>
<rscale>  0 0.12508569E+03</rscale>
<asrwt>0</asrwt>
<pdfrwt beam="1">  1        4 0.15110489E-01 0.12508569E+03</pdfrwt>
<pdfrwt beam="2">  1       -4 0.61270303E-02 0.12508569E+03</pdfrwt>
<totfact> 0.10154669E+04</totfact>
</mgrwt>
</event>
<event>
 5    1  0.3273105E-002  0.1249987E+03  0.7818608E-02  0.1235071E+00
         -4   -1    0    0    0  501 -0.00000000000E+00  0.00000000000E+00  0.17876405455E+02  0.17921461213E+02  0.12700000000E+01 0. -1.
          4   -1    0    0  501    0  0.00000000000E+00 -0.00000000000E+00 -0.21818793620E+03  0.21819163229E+03  0.12700000000E+01 0. -1.
         25    2    1    2    0    0  0.00000000000E+00  0.00000000000E+00 -0.20031153074E+03  0.23611309351E+03  0.12499873430E+03 0.  0.
    9000005    1    3    3    0    0 -0.36746465316E+02 -0.39693544722E+02 -0.15926703238E+03  0.16820483884E+03  0.10000000000E+01 0.  0.
    9000005    1    3    3    0    0  0.36746465316E+02  0.39693544722E+02 -0.41044498360E+02  0.67908254663E+02  0.10000000000E+01 0.  0.
<mgrwt>
<rscale>  0 0.12499873E+03</rscale>
<asrwt>0</asrwt>
<pdfrwt beam="2">  1        4 0.33571123E-01 0.12499873E+03</pdfrwt>
<pdfrwt beam="1">  1       -4 0.27539665E-02 0.12499873E+03</pdfrwt>
<totfact> 0.84382062E+03</totfact>
</mgrwt>
</event>
<event>
 5    1  0.3273105E-002  0.1249987E+03  0.7818608E-02  0.1235071E+00
          4   -1    0    0  501    0  0.00000000000E+00  0.00000000000E+00  0.52318626415E+01  0.53837985382E+01  0.12700000000E+01 0. -1.
         -4   -1    0    0    0  501 -0.00000000000E+00 -0.00000000000E+00 -0.73577327348E+03  0.73577436954E+03  0.12700000000E+01 0. -1.
         25    2    1    2    0    0  0.00000000000E+00  0.00000000000E+00 -0.73054141084E+03  0.74115816808E+03  0.12499870861E+03 0.  0.
    9000005    1    3    3    0    0 -0.34085184016E+02 -0.44812098470E+02 -0.52604681526E+03  0.52905214845E+03  0.10000000000E+01 0.  0.
    9000005    1    3    3    0    0  0.34085184016E+02  0.44812098470E+02 -0.20449459558E+03  0.21210601963E+03  0.10000000000E+01 0.  0.
<mgrwt>
<rscale>  0 0.12499871E+03</rscale>
<asrwt>0</asrwt>
<pdfrwt beam="1">  1        4 0.81667422E-03 0.12499871E+03</pdfrwt>
<pdfrwt beam="2">  1       -4 0.11320758E+00 0.12499871E+03</pdfrwt>
<totfact> 0.41001836E+03</totfact>
</mgrwt>
</event>
<event>
 5    1  0.3273105E-002  0.1250009E+03  0.7818608E-02  0.1235068E+00
         -4   -1    0    0    0  501 -0.00000000000E+00  0.00000000000E+00  0.12692887218E+01  0.17955483451E+01  0.12700000000E+01 0. -1.
          4   -1    0    0  501    0  0.00000000000E+00 -0.00000000000E+00 -0.25485873134E+04  0.25485876299E+04  0.12700000000E+01 0. -1.
         25    2    1    2    0    0  0.00000000000E+00  0.00000000000E+00 -0.25473180247E+04  0.25503831782E+04  0.12500094667E+03 0.  0.
    9000005    1    3    3    0    0  0.17069287951E+02 -0.59246054115E+02 -0.14815822415E+04  0.14828649277E+04  0.10000000000E+01 0.  0.
    9000005    1    3    3    0    0 -0.17069287951E+02  0.59246054115E+02 -0.10657357832E+04  0.10675182505E+04  0.10000000000E+01 0.  0.
<mgrwt>
<rscale>  0 0.12500095E+03</rscale>
<asrwt>0</asrwt>
<pdfrwt beam="2">  1        4 0.39212747E+00 0.12500095E+03</pdfrwt>
<pdfrwt beam="1">  1       -4 0.23578308E-03 0.12500095E+03</pdfrwt>
<totfact> 0.42855672E+02</totfact>
</mgrwt>
</event>
<event>
 5    1  0.3273105E-002  0.1249992E+03  0.7818608E-02  0.1235071E+00
          4   -1    0    0  501    0  0.00000000000E+00  0.00000000000E+00  0.79553694859E+02  0.79563831391E+02  0.12700000000E+01 0.  1.
         -4   -1    0    0    0  501 -0.00000000000E+00 -0.00000000000E+00 -0.49079909812E+02  0.49096338429E+02  0.12700000000E+01 0.  1.
         25    2    1    2    0    0  0.00000000000E+00  0.00000000000E+00  0.30473785047E+02  0.12866016982E+03  0.12499915089E+03 0.  0.
    9000005    1    3    3    0    0 -0.26648983167E+02  0.51746939303E+02 -0.81730915530E+01  0.58785316675E+02  0.10000000000E+01 0.  0.
    9000005    1    3    3    0    0  0.26648983167E+02 -0.51746939303E+02  0.38646876600E+02  0.69874853145E+02  0.10000000000E+01 0.  0.
<mgrwt>
<rscale>  0 0.12499915E+03</rscale>
<asrwt>0</asrwt>
<pdfrwt beam="1">  1        4 0.12241073E-01 0.12499915E+03</pdfrwt>
<pdfrwt beam="2">  1       -4 0.75527990E-02 0.12499915E+03</pdfrwt>
<totfact> 0.10373454E+04</totfact>
</mgrwt>
</event>
<event>
 5    1  0.3273105E-002  0.1250052E+03  0.7818608E-02  0.1235061E+00
          4   -1    0    0  501    0  0.00000000000E+00  0.00000000000E+00  0.25482187374E+02  0.25513815343E+02  0.12700000000E+01 0. -1.
         -4   -1    0    0    0  501 -0.00000000000E+00 -0.00000000000E+00 -0.15317680113E+03  0.15318206587E+03  0.12700000000E+01 0. -1.
         25    2    1    2    0    0  0.00000000000E+00  0.00000000000E+00 -0.12769461376E+03  0.17869588121E+03  0.12500521421E+03 0.  0.
    9000005    1    3    3    0    0  0.31498875939E+02  0.48008462704E+02 -0.28582073929E+02  0.64147693853E+02  0.10000000000E+01 0.  0.
    9000005    1    3    3    0    0 -0.31498875939E+02 -0.48008462704E+02 -0.99112539829E+02  0.11454818736E+03  0.10000000000E+01 0.  0.
<mgrwt>
<rscale>  0 0.12500521E+03</rscale>
<asrwt>0</asrwt>
<pdfrwt beam="1">  1        4 0.39231745E-02 0.12500521E+03</pdfrwt>
<pdfrwt beam="2">  1       -4 0.23568499E-01 0.12500521E+03</pdfrwt>
<totfact> 0.93841304E+03</totfact>
</mgrwt>
</event>
<event>
 5    1  0.3273105E-002  0.1250031E+03  0.7818608E-02  0.1235064E+00
         -4   -1    0    0    0  501 -0.00000000000E+00  0.00000000000E+00  0.58522302093E+03  0.58522439895E+03  0.12700000000E+01 0. -1.
          4   -1    0    0  501    0  0.00000000000E+00 -0.00000000000E+00 -0.66133335739E+01  0.67341726263E+01  0.12700000000E+01 0. -1.
         25    2    1    2    0    0  0.00000000000E+00  0.00000000000E+00  0.57860968736E+03  0.59195857158E+03  0.12500312060E+03 0.  0.
    9000005    1    3    3    0    0  0.39056443953E+02 -0.47442127461E+02  0.34314948136E+03  0.34860970702E+03  0.10000000000E+01 0.  0.
    9000005    1    3    3    0    0 -0.39056443953E+02  0.47442127461E+02  0.23546020600E+03  0.24334886455E+03  0.10000000000E+01 0.  0.
<mgrwt>
<rscale>  0 0.12500312E+03</rscale>
<asrwt>0</asrwt>
<pdfrwt beam="2">  1        4 0.10268368E-02 0.12500312E+03</pdfrwt>
<pdfrwt beam="1">  1       -4 0.90043755E-01 0.12500312E+03</pdfrwt>
<totfact> 0.49375777E+03</totfact>
</mgrwt>
</event>
<event>
 5    1  0.3273105E-002  0.1249927E+03  0.7818608E-02  0.1235081E+00
         -4   -1    0    0    0  501 -0.00000000000E+00  0.00000000000E+00  0.69456400629E+01  0.70607942813E+01  0.12700000000E+01 0. -1.
          4   -1    0    0  501    0  0.00000000000E+00 -0.00000000000E+00 -0.55759832316E+03  0.55759976945E+03  0.12700000000E+01 0. -1.
         25    2    1    2    0    0  0.00000000000E+00  0.00000000000E+00 -0.55065268309E+03  0.56466056373E+03  0.12499269911E+03 0.  0.
    9000005    1    3    3    0    0  0.15937380636E+02 -0.50036488457E+02 -0.12231921053E+03  0.13311889251E+03  0.10000000000E+01 0.  0.
    9000005    1    3    3    0    0 -0.15937380636E+02  0.50036488457E+02 -0.42833347256E+03  0.43154167122E+03  0.10000000000E+01 0.  0.
<mgrwt>
<rscale>  0 0.12499270E+03</rscale>
<asrwt>0</asrwt>
<pdfrwt beam="2">  1        4 0.85793292E-01 0.12499270E+03</pdfrwt>
<pdfrwt beam="1">  1       -4 0.10775297E-02 0.12499270E+03</pdfrwt>
<totfact> 0.51185340E+03</totfact>
</mgrwt>
</event>
<event>
 5    1  0.3273105E-002  0.1250086E+03  0.7818608E-02  0.1235056E+00
          4   -1    0    0  501    0  0.00000000000E+00  0.00000000000E+00  0.59984194475E+01  0.61313893914E+01  0.12700000000E+01 0. -1.
         -4   -1    0    0    0  501 -0.00000000000E+00 -0.00000000000E+00 -0.64402969648E+03  0.64403094867E+03  0.12700000000E+01 0. -1.
         25    2    1    2    0    0  0.00000000000E+00  0.00000000000E+00 -0.63803127703E+03  0.65016233806E+03  0.12500862116E+03 0.  0.
    9000005    1    3    3    0    0  0.23754510579E+02  0.24120735200E+02 -0.45795344971E+02  0.56958759295E+02  0.10000000000E+01 0.  0.
    9000005    1    3    3    0    0 -0.23754510579E+02 -0.24120735200E+02 -0.59223593206E+03  0.59320357877E+03  0.10000000000E+01 0.  0.
<mgrwt>
<rscale>  0 0.12500862E+03</rscale>
<asrwt>0</asrwt>
<pdfrwt beam="1">  1        4 0.93315905E-03 0.12500862E+03</pdfrwt>
<pdfrwt beam="2">  1       -4 0.99091762E-01 0.12500862E+03</pdfrwt>
<totfact> 0.45838134E+03</totfact>
</mgrwt>
</event>
<event>
 4    1  0.3273105E-002  0.1252011E+03  0.7818608E-02  0.1234755E+00
          4   -1    0    0  501    0  0.00000000000E+00  0.00000000000E+00  0.60125307264E+02  0.60138718589E+02  0.12700000000E+01 0.  1.
         -4   -1    0    0    0  501 -0.00000000000E+00 -0.00000000000E+00 -0.65150827327E+02  0.65163204351E+02  0.12700000000E+01 0.  1.
    9000005    1    1    2    0    0 -0.46109434876E+02  0.16969934886E+02 -0.41322464867E+02  0.64207513403E+02  0.10000000000E+01 0.  0.
    9000005    1    1    2    0    0  0.46109434876E+02 -0.16969934886E+02  0.36296944805E+02  0.61094409538E+02  0.10000000000E+01 0.  0.
<mgrwt>
<rscale>  0 0.12520110E+03</rscale>
<asrwt>0</asrwt>
<pdfrwt beam="1">  1        4 0.92520310E-02 0.12520110E+03</pdfrwt>
<pdfrwt beam="2">  1       -4 0.10025188E-01 0.12520110E+03</pdfrwt>
<totfact> 0.10398973E+04</totfact>
</mgrwt>
</event>
<event>
 5    1  0.3273105E-002  0.1249985E+03  0.7818608E-02  0.1235072E+00
         -4   -1    0    0    0  501 -0.00000000000E+00  0.00000000000E+00  0.16739373998E+03  0.16739855759E+03  0.12700000000E+01 0. -1.
          4   -1    0    0  501    0  0.00000000000E+00 -0.00000000000E+00 -0.23312686535E+02  0.23347253661E+02  0.12700000000E+01 0. -1.
         25    2    1    2    0    0  0.00000000000E+00  0.00000000000E+00  0.14408105344E+03  0.19074581125E+03  0.12499845819E+03 0.  0.
    9000005    1    3    3    0    0  0.35031072465E+02  0.98437643492E+01  0.14956715740E+03  0.15393313584E+03  0.10000000000E+01 0.  0.
    9000005    1    3    3    0    0 -0.35031072465E+02 -0.98437643492E+01 -0.54861039608E+01  0.36812675416E+02  0.10000000000E+01 0.  0.
<mgrwt>
<rscale>  0 0.12499846E+03</rscale>
<asrwt>0</asrwt>
<pdfrwt beam="2">  1        4 0.35895969E-02 0.12499846E+03</pdfrwt>
<pdfrwt beam="1">  1       -4 0.25755912E-01 0.12499846E+03</pdfrwt>
<totfact> 0.91720876E+03</totfact>
</mgrwt>
</event>
<event>
 5    1  0.3273105E-002  0.1250022E+03  0.7818608E-02  0.1235066E+00
          4   -1    0    0  501    0  0.00000000000E+00  0.00000000000E+00  0.10867901242E+03  0.10868643264E+03  0.12700000000E+01 0.  1.
         -4   -1    0    0    0  501 -0.00000000000E+00 -0.00000000000E+00 -0.35924420455E+02  0.35946861963E+02  0.12700000000E+01 0.  1.
         25    2    1    2    0    0  0.00000000000E+00  0.00000000000E+00  0.72754591965E+02  0.14463329461E+03  0.12500223701E+03 0.  0.
    9000005    1    3    3    0    0  0.40622521549E+02  0.22017304884E+02 -0.12307231437E+02  0.47826968512E+02  0.10000000000E+01 0.  0.
    9000005    1    3    3    0    0 -0.40622521549E+02 -0.22017304884E+02  0.85061823402E+02  0.96806326094E+02  0.10000000000E+01 0.  0.
<mgrwt>
<rscale>  0 0.12500224E+03</rscale>
<asrwt>0</asrwt>
<pdfrwt beam="1">  1        4 0.16722145E-01 0.12500224E+03</pdfrwt>
<pdfrwt beam="2">  1       -4 0.55291310E-02 0.12500224E+03</pdfrwt>
<totfact> 0.10037939E+04</totfact>
</mgrwt>
</event>
<event>
 5    1  0.3273105E-002  0.1250009E+03  0.7818608E-02  0.1235068E+00
          4   -1    0    0  501    0  0.00000000000E+00  0.00000000000E+00  0.67804453786E+02  0.67816346505E+02  0.12700000000E+01 0. -1.
         -4   -1    0    0    0  501 -0.00000000000E+00 -0.00000000000E+00 -0.57587378801E+02  0.57601381035E+02  0.12700000000E+01 0. -1.
         25    2    1    2    0    0  0.00000000000E+00  0.00000000000E+00  0.10217074985E+02  0.12541772754E+03  0.12500087104E+03 0.  0.
    9000005    1    3    3    0    0  0.47286995072E+02  0.36655769321E+02  0.23213077481E+02  0.64183738545E+02  0.10000000000E+01 0.  0.
    9000005    1    3    3    0    0 -0.47286995072E+02 -0.36655769321E+02 -0.12996002495E+02  0.61233988995E+02  0.10000000000E+01 0.  0.
<mgrwt>
<rscale>  0 0.12500087E+03</rscale>
<asrwt>0</asrwt>
<pdfrwt beam="1">  1        4 0.10433446E-01 0.12500087E+03</pdfrwt>
<pdfrwt beam="2">  1       -4 0.88615887E-02 0.12500087E+03</pdfrwt>
<totfact> 0.10443569E+04</totfact>
</mgrwt>
</event>
<event>
 5    1  0.3273105E-002  0.1249673E+03  0.7818608E-02  0.1235120E+00
         -4   -1    0    0    0  501 -0.00000000000E+00  0.00000000000E+00  0.23965116201E+01  0.27122256442E+01  0.12700000000E+01 0.  1.
          4   -1    0    0  501    0  0.00000000000E+00 -0.00000000000E+00 -0.15281278964E+04  0.15281284241E+04  0.12700000000E+01 0.  1.
         25    2    1    2    0    0  0.00000000000E+00  0.00000000000E+00 -0.15257313848E+04  0.15308406498E+04  0.12496734181E+03 0.  0.
    9000005    1    3    3    0    0  0.42676861344E+02 -0.44442987601E+02 -0.88941133141E+03  0.89154361087E+03  0.10000000000E+01 0.  0.
    9000005    1    3    3    0    0 -0.42676861344E+02  0.44442987601E+02 -0.63632005334E+03  0.63929703888E+03  0.10000000000E+01 0.  0.
<mgrwt>
<rscale>  0 0.12496734E+03</rscale>
<asrwt>0</asrwt>
<pdfrwt beam="2">  1        4 0.23512019E+00 0.12496734E+03</pdfrwt>
<pdfrwt beam="1">  1       -4 0.39302161E-03 0.12496734E+03</pdfrwt>
<totfact> 0.17344533E+03</totfact>
</mgrwt>
</event>
<event>
 5    1  0.3273105E-002  0.1250164E+03  0.7818608E-02  0.1235044E+00
          4   -1    0    0  501    0  0.00000000000E+00  0.00000000000E+00  0.19124362951E+02  0.19166485288E+02  0.12700000000E+01 0.  1.
         -4   -1    0    0    0  501 -0.00000000000E+00 -0.00000000000E+00 -0.20403983931E+03  0.20404379168E+03  0.12700000000E+01 0.  1.
         25    2    1    2    0    0  0.00000000000E+00  0.00000000000E+00 -0.18491547636E+03  0.22321027697E+03  0.12501637633E+03 0.  0.
    9000005    1    3    3    0    0  0.12831287279E+02 -0.54408098904E+02 -0.14236702031E+03  0.15295179512E+03  0.10000000000E+01 0.  0.
    9000005    1    3    3    0    0 -0.12831287279E+02  0.54408098904E+02 -0.42548456046E+02  0.70258481848E+02  0.10000000000E+01 0.  0.
<mgrwt>
<rscale>  0 0.12501638E+03</rscale>
<asrwt>0</asrwt>
<pdfrwt beam="1">  1        4 0.29457540E-02 0.12501638E+03</pdfrwt>
<pdfrwt beam="2">  1       -4 0.31394287E-01 0.12501638E+03</pdfrwt>
<totfact> 0.86331327E+03</totfact>
</mgrwt>
</event>
<event>
 5    1  0.3273105E-002  0.1250015E+03  0.7818608E-02  0.1235067E+00
          4   -1    0    0  501    0  0.00000000000E+00  0.00000000000E+00  0.64528491409E+02  0.64540987779E+02  0.12700000000E+01 0.  1.
         -4   -1    0    0    0  501 -0.00000000000E+00 -0.00000000000E+00 -0.60511660219E+02  0.60524985936E+02  0.12700000000E+01 0.  1.
         25    2    1    2    0    0  0.00000000000E+00  0.00000000000E+00  0.40168311896E+01  0.12506597371E+03  0.12500145139E+03 0.  0.
    9000005    1    3    3    0    0  0.54359593182E+02 -0.20730217017E+02  0.24837586754E+02  0.63266207285E+02  0.10000000000E+01 0.  0.
    9000005    1    3    3    0    0 -0.54359593182E+02  0.20730217017E+02 -0.20820755564E+02  0.61799766430E+02  0.10000000000E+01 0.  0.
<mgrwt>
<rscale>  0 0.12500145E+03</rscale>
<asrwt>0</asrwt>
<pdfrwt beam="1">  1        4 0.99294465E-02 0.12500145E+03</pdfrwt>
<pdfrwt beam="2">  1       -4 0.93114726E-02 0.12500145E+03</pdfrwt>
<totfact> 0.10451087E+04</totfact>
</mgrwt>
</event>
<event>
 5    1  0.3273105E-002  0.1249963E+03  0.7818608E-02  0.1235075E+00
         -4   -1    0    0    0  501 -0.00000000000E+00  0.00000000000E+00  0.17990221363E+02  0.18034992783E+02  0.12700000000E+01 0.  1.
          4   -1    0    0  501    0  0.00000000000E+00 -0.00000000000E+00 -0.21680263876E+03  0.21680635847E+03  0.12700000000E+01 0.  1.
         25    2    1    2    0    0  0.00000000000E+00  0.00000000000E+00 -0.19881241739E+03  0.23484135125E+03  0.12499633173E+03 0.  0.
    9000005    1    3    3    0    0  0.17654172173E+02  0.26816965641E+02  0.13184705400E+01  0.32148993855E+02  0.10000000000E+01 0.  0.
    9000005    1    3    3    0    0 -0.17654172173E+02 -0.26816965641E+02 -0.20013088793E+03  0.20269235739E+03  0.10000000000E+01 0.  0.
<mgrwt>
<rscale>  0 0.12499633E+03</rscale>
<asrwt>0</asrwt>
<pdfrwt beam="2">  1        4 0.33357980E-01 0.12499633E+03</pdfrwt>
<pdfrwt beam="1">  1       -4 0.27714566E-02 0.12499633E+03</pdfrwt>
<totfact> 0.84578625E+03</totfact>
</mgrwt>
</event>
<event>
 5    1  0.3273105E-002  0.1249979E+03  0.7818608E-02  0.1235073E+00
         -4   -1    0    0    0  501 -0.00000000000E+00  0.00000000000E+00  0.35895522846E+01  0.38075957774E+01  0.12700000000E+01 0.  1.
          4   -1    0    0  501    0  0.00000000000E+00 -0.00000000000E+00 -0.10558956851E+04  0.10558964489E+04  0.12700000000E+01 0.  1.
         25    2    1    2    0    0  0.00000000000E+00  0.00000000000E+00 -0.10523061328E+04  0.10597040446E+04  0.12499786021E+03 0.  0.
    9000005    1    3    3    0    0 -0.41572516326E+02 -0.45977302927E+02 -0.45890031250E+03  0.46306876737E+03  0.10000000000E+01 0.  0.
    9000005    1    3    3    0    0  0.41572516326E+02  0.45977302927E+02 -0.59340582032E+03  0.59663527727E+03  0.10000000000E+01 0.  0.
<mgrwt>
<rscale>  0 0.12499786E+03</rscale>
<asrwt>0</asrwt>
<pdfrwt beam="2">  1        4 0.16246208E+00 0.12499786E+03</pdfrwt>
<pdfrwt beam="1">  1       -4 0.56907098E-03 0.12499786E+03</pdfrwt>
<totfact> 0.28695082E+03</totfact>
</mgrwt>
</event>
<event>
 5    1  0.3273105E-002  0.1250005E+03  0.7818608E-02  0.1235069E+00
         -4   -1    0    0    0  501 -0.00000000000E+00  0.00000000000E+00  0.90404782163E+02  0.90413702158E+02  0.12700000000E+01 0.  1.
          4   -1    0    0  501    0  0.00000000000E+00 -0.00000000000E+00 -0.43188402967E+02  0.43207071769E+02  0.12700000000E+01 0.  1.
         25    2    1    2    0    0  0.00000000000E+00  0.00000000000E+00  0.47216379195E+02  0.13362077393E+03  0.12500049904E+03 0.  0.
    9000005    1    3    3    0    0  0.65512455587E+01 -0.49825414627E+02  0.63315347238E+02  0.80841350539E+02  0.10000000000E+01 0.  0.
    9000005    1    3    3    0    0 -0.65512455587E+01  0.49825414627E+02 -0.16098968042E+02  0.52779423388E+02  0.10000000000E+01 0.  0.
<mgrwt>
<rscale>  0 0.12500050E+03</rscale>
<asrwt>0</asrwt>
<pdfrwt beam="2">  1        4 0.66464920E-02 0.12500050E+03</pdfrwt>
<pdfrwt beam="1">  1       -4 0.13910550E-01 0.12500050E+03</pdfrwt>
<totfact> 0.10267108E+04</totfact>
</mgrwt>
</event>
<event>
 5    1  0.3273105E-002  0.1250131E+03  0.7818608E-02  0.1235049E+00
          4   -1    0    0  501    0  0.00000000000E+00  0.00000000000E+00  0.20024016149E+03  0.20024418886E+03  0.12700000000E+01 0. -1.
         -4   -1    0    0    0  501 -0.00000000000E+00 -0.00000000000E+00 -0.19487031478E+02  0.19528371561E+02  0.12700000000E+01 0. -1.
         25    2    1    2    0    0  0.00000000000E+00  0.00000000000E+00  0.18075313001E+03  0.21977256042E+03  0.12501313653E+03 0.  0.
    9000005    1    3    3    0    0 -0.33510956503E+02  0.45697884834E+02  0.44037778560E+02  0.71774694876E+02  0.10000000000E+01 0.  0.
    9000005    1    3    3    0    0  0.33510956503E+02 -0.45697884834E+02  0.13671535145E+03  0.14799786554E+03  0.10000000000E+01 0.  0.
<mgrwt>
<rscale>  0 0.12501314E+03</rscale>
<asrwt>0</asrwt>
<pdfrwt beam="1">  1        4 0.30809667E-01 0.12501314E+03</pdfrwt>
<pdfrwt beam="2">  1       -4 0.30014948E-02 0.12501314E+03</pdfrwt>
<totfact> 0.86878857E+03</totfact>
</mgrwt>
</event>
<event>
 4    1  0.3273105E-002  0.1253901E+03  0.7818608E-02  0.1234461E+00
          4   -1    0    0  501    0  0.00000000000E+00  0.00000000000E+00  0.14321607701E+03  0.14322170790E+03  0.12700000000E+01 0.  1.
         -4   -1    0    0    0  501 -0.00000000000E+00 -0.00000000000E+00 -0.27424840642E+02  0.27454230717E+02  0.12700000000E+01 0.  1.
    9000005    1    1    2    0    0 -0.15085765717E+02  0.60133617777E+02  0.70520999033E+02  0.93903373841E+02  0.10000000000E+01 0.  0.
    9000005    1    1    2    0    0  0.15085765717E+02 -0.60133617777E+02  0.45270237338E+02  0.76772564779E+02  0.10000000000E+01 0.  0.
<mgrwt>
<rscale>  0 0.12539005E+03</rscale>
<asrwt>0</asrwt>
<pdfrwt beam="1">  1        4 0.22035936E-01 0.12539005E+03</pdfrwt>
<pdfrwt beam="2">  1       -4 0.42219002E-02 0.12539005E+03</pdfrwt>
<totfact> 0.94493107E+03</totfact>
</mgrwt>
</event>
<event>
 5    1  0.3273105E-002  0.1249868E+03  0.7818608E-02  0.1235090E+00
         -4   -1    0    0    0  501 -0.00000000000E+00  0.00000000000E+00  0.85325869963E+02  0.85335320852E+02  0.12700000000E+01 0. -1.
          4   -1    0    0  501    0  0.00000000000E+00 -0.00000000000E+00 -0.45749893292E+02  0.45767517261E+02  0.12700000000E+01 0. -1.
         25    2    1    2    0    0  0.00000000000E+00  0.00000000000E+00  0.39575976670E+02  0.13110283811E+03  0.12498678423E+03 0.  0.
    9000005    1    3    3    0    0 -0.33478158768E+02  0.48463333793E+02 -0.20878035519E+01  0.58947779945E+02  0.10000000000E+01 0.  0.
    9000005    1    3    3    0    0  0.33478158768E+02 -0.48463333793E+02  0.41663780222E+02  0.72155058168E+02  0.10000000000E+01 0.  0.
<mgrwt>
<rscale>  0 0.12498678E+03</rscale>
<asrwt>0</asrwt>
<pdfrwt beam="2">  1        4 0.70405278E-02 0.12498678E+03</pdfrwt>
<pdfrwt beam="1">  1       -4 0.13129140E-01 0.12498678E+03</pdfrwt>
<totfact> 0.10323963E+04</totfact>
</mgrwt>
</event>
<event>
 5    1  0.3273105E-002  0.1249968E+03  0.7818608E-02  0.1235074E+00
          4   -1    0    0  501    0  0.00000000000E+00  0.00000000000E+00  0.84689336028E+02  0.84698857943E+02  0.12700000000E+01 0.  1.
         -4   -1    0    0    0  501 -0.00000000000E+00 -0.00000000000E+00 -0.46101234744E+02  0.46118724450E+02  0.12700000000E+01 0.  1.
         25    2    1    2    0    0  0.00000000000E+00  0.00000000000E+00  0.38588101284E+02  0.13081758239E+03  0.12499679317E+03 0.  0.
    9000005    1    3    3    0    0  0.36808915419E+02  0.50270912633E+02  0.24311975069E+02  0.66888960547E+02  0.10000000000E+01 0.  0.
    9000005    1    3    3    0    0 -0.36808915419E+02 -0.50270912633E+02  0.14276126216E+02  0.63928621846E+02  0.10000000000E+01 0.  0.
<mgrwt>
<rscale>  0 0.12499679E+03</rscale>
<asrwt>0</asrwt>
<pdfrwt beam="1">  1        4 0.13031206E-01 0.12499679E+03</pdfrwt>
<pdfrwt beam="2">  1       -4 0.70945755E-02 0.12499679E+03</pdfrwt>
<totfact> 0.10327749E+04</totfact>
</mgrwt>
</event>
<event>
 5    1  0.3273105E-002  0.1250032E+03  0.7818608E-02  0.1235064E+00
         -4   -1    0    0    0  501 -0.00000000000E+00  0.00000000000E+00  0.41016529505E+02  0.41036186380E+02  0.12700000000E+01 0.  1.
          4   -1    0    0  501    0  0.00000000000E+00 -0.00000000000E+00 -0.95194211613E+02  0.95202682864E+02  0.12700000000E+01 0.  1.
         25    2    1    2    0    0  0.00000000000E+00  0.00000000000E+00 -0.54177682108E+02  0.13623886924E+03  0.12500323298E+03 0.  0.
    9000005    1    3    3    0    0 -0.17836017905E+02  0.35340962980E+01 -0.92252882312E+02  0.94033013704E+02  0.10000000000E+01 0.  0.
    9000005    1    3    3    0    0  0.17836017905E+02 -0.35340962980E+01  0.38075200204E+02  0.42205855541E+02  0.10000000000E+01 0.  0.
<mgrwt>
<rscale>  0 0.12500323E+03</rscale>
<asrwt>0</asrwt>
<pdfrwt beam="2">  1        4 0.14647427E-01 0.12500323E+03</pdfrwt>
<pdfrwt beam="1">  1       -4 0.63123991E-02 0.12500323E+03</pdfrwt>
<totfact> 0.10211280E+04</totfact>
</mgrwt>
</event>
<event>
 5    1  0.3273105E-002  0.1249992E+03  0.7818608E-02  0.1235071E+00
          4   -1    0    0  501    0  0.00000000000E+00  0.00000000000E+00  0.74566136366E+02  0.74576950813E+02  0.12700000000E+01 0. -1.
         -4   -1    0    0    0  501 -0.00000000000E+00 -0.00000000000E+00 -0.52363391717E+02  0.52378790479E+02  0.12700000000E+01 0. -1.
         25    2    1    2    0    0  0.00000000000E+00  0.00000000000E+00  0.22202744650E+02  0.12695574129E+03  0.12499919351E+03 0.  0.
    9000005    1    3    3    0    0 -0.32024434178E+02 -0.52633359779E+02  0.47992707058E+00  0.61620331677E+02  0.10000000000E+01 0.  0.
    9000005    1    3    3    0    0  0.32024434178E+02  0.52633359779E+02  0.21722817579E+02  0.65335409615E+02  0.10000000000E+01 0.  0.
<mgrwt>
<rscale>  0 0.12499919E+03</rscale>
<asrwt>0</asrwt>
<pdfrwt beam="1">  1        4 0.11473730E-01 0.12499919E+03</pdfrwt>
<pdfrwt beam="2">  1       -4 0.80579228E-02 0.12499919E+03</pdfrwt>
<totfact> 0.10410297E+04</totfact>
</mgrwt>
</event>
<event>
 5    1  0.3273105E-002  0.1250019E+03  0.7818608E-02  0.1235066E+00
          4   -1    0    0  501    0  0.00000000000E+00  0.00000000000E+00  0.28705551313E+03  0.28705832250E+03  0.12700000000E+01 0. -1.
         -4   -1    0    0    0  501 -0.00000000000E+00 -0.00000000000E+00 -0.13575899995E+02  0.13635173658E+02  0.12700000000E+01 0. -1.
         25    2    1    2    0    0  0.00000000000E+00  0.00000000000E+00  0.27347961314E+03  0.30069349616E+03  0.12500191932E+03 0.  0.
    9000005    1    3    3    0    0  0.34410010396E+02 -0.38587108126E+02  0.52294506036E+02  0.73544062238E+02  0.10000000000E+01 0.  0.
    9000005    1    3    3    0    0 -0.34410010396E+02  0.38587108126E+02  0.22118510710E+03  0.22714943392E+03  0.10000000000E+01 0.  0.
<mgrwt>
<rscale>  0 0.12500192E+03</rscale>
<asrwt>0</asrwt>
<pdfrwt beam="1">  1        4 0.44167160E-01 0.12500192E+03</pdfrwt>
<pdfrwt beam="2">  1       -4 0.20933757E-02 0.12500192E+03</pdfrwt>
<totfact> 0.75508713E+03</totfact>
</mgrwt>
</event>
<event>
 5    1  0.3273105E-002  0.1250027E+03  0.7818608E-02  0.1235065E+00
          4   -1    0    0  501    0  0.00000000000E+00  0.00000000000E+00  0.19945977951E+01  0.23645972943E+01  0.12700000000E+01 0. -1.
         -4   -1    0    0    0  501 -0.00000000000E+00 -0.00000000000E+00 -0.17918944779E+04  0.17918949280E+04  0.12700000000E+01 0. -1.
         25    2    1    2    0    0  0.00000000000E+00  0.00000000000E+00 -0.17898998801E+04  0.17942595253E+04  0.12500265256E+03 0.  0.
    9000005    1    3    3    0    0 -0.10169950635E+02  0.58484086355E+02 -0.61455514385E+03  0.61741626241E+03  0.10000000000E+01 0.  0.
    9000005    1    3    3    0    0  0.10169950635E+02 -0.58484086355E+02 -0.11753447363E+04  0.11768432629E+04  0.10000000000E+01 0.  0.
<mgrwt>
<rscale>  0 0.12500265E+03</rscale>
<asrwt>0</asrwt>
<pdfrwt beam="1">  1        4 0.33535875E-03 0.12500265E+03</pdfrwt>
<pdfrwt beam="2">  1       -4 0.27570339E+00 0.12500265E+03</pdfrwt>
<totfact> 0.12791508E+03</totfact>
</mgrwt>
</event>
<event>
 5    1  0.3273105E-002  0.1250011E+03  0.7818608E-02  0.1235068E+00
          4   -1    0    0  501    0  0.00000000000E+00  0.00000000000E+00  0.17427770415E+02  0.17473982993E+02  0.12700000000E+01 0. -1.
         -4   -1    0    0    0  501 -0.00000000000E+00 -0.00000000000E+00 -0.22379859459E+03  0.22380219802E+03  0.12700000000E+01 0. -1.
         25    2    1    2    0    0  0.00000000000E+00  0.00000000000E+00 -0.20637082417E+03  0.24127618101E+03  0.12500111382E+03 0.  0.
    9000005    1    3    3    0    0  0.30900944714E+02 -0.20513477358E+02 -0.61052137546E+01  0.37602457001E+02  0.10000000000E+01 0.  0.
    9000005    1    3    3    0    0 -0.30900944714E+02  0.20513477358E+02 -0.20026561042E+03  0.20367372401E+03  0.10000000000E+01 0.  0.
<mgrwt>
<rscale>  0 0.12500111E+03</rscale>
<asrwt>0</asrwt>
<pdfrwt beam="1">  1        4 0.26850276E-02 0.12500111E+03</pdfrwt>
<pdfrwt beam="2">  1       -4 0.34434383E-01 0.12500111E+03</pdfrwt>
<totfact> 0.83605594E+03</totfact>
</mgrwt>
</event>
<event>
 4    1  0.3273105E-002  0.1249346E+03  0.7818608E-02  0.1235171E+00
          4   -1    0    0  501    0  0.00000000000E+00  0.00000000000E+00  0.15689881210E+03  0.15690395195E+03  0.12700000000E+01 0. -1.
         -4   -1    0    0    0  501 -0.00000000000E+00 -0.00000000000E+00 -0.24848826548E+02  0.24881259631E+02  0.12700000000E+01 0. -1.
    9000005    1    1    2    0    0  0.41650595562E+02  0.25688062055E+02  0.12250084124E+03  0.13191703736E+03  0.10000000000E+01 0.  0.
    9000005    1    1    2    0    0 -0.41650595562E+02 -0.25688062055E+02  0.95491443123E+01  0.49868174218E+02  0.10000000000E+01 0.  0.
<mgrwt>
<rscale>  0 0.12493464E+03</rscale>
<asrwt>0</asrwt>
<pdfrwt beam="1">  1        4 0.24141169E-01 0.12493464E+03</pdfrwt>
<pdfrwt beam="2">  1       -4 0.38257866E-02 0.12493464E+03</pdfrwt>
<totfact> 0.93433474E+03</totfact>
</mgrwt>
</event>
<event>
 5    1  0.3273105E-002  0.1250005E+03  0.7818608E-02  0.1235069E+00
         -4   -1    0    0    0  501 -0.00000000000E+00  0.00000000000E+00  0.12830095920E+03  0.12830724466E+03  0.12700000000E+01 0. -1.
          4   -1    0    0  501    0  0.00000000000E+00 -0.00000000000E+00 -0.30425934585E+02  0.30452428399E+02  0.12700000000E+01 0. -1.
         25    2    1    2    0    0  0.00000000000E+00  0.00000000000E+00  0.97875024614E+02  0.15875967306E+03  0.12500045338E+03 0.  0.
    9000005    1    3    3    0    0 -0.43035853854E+02  0.38288757953E+02  0.18161768908E+02  0.60406651558E+02  0.10000000000E+01 0.  0.
    9000005    1    3    3    0    0  0.43035853854E+02 -0.38288757953E+02  0.79713255706E+02  0.98353021498E+02  0.10000000000E+01 0.  0.
<mgrwt>
<rscale>  0 0.12500045E+03</rscale>
<asrwt>0</asrwt>
<pdfrwt beam="2">  1        4 0.46834345E-02 0.12500045E+03</pdfrwt>
<pdfrwt beam="1">  1       -4 0.19741131E-01 0.12500045E+03</pdfrwt>
<totfact> 0.97581449E+03</totfact>
</mgrwt>
</event>
<event>
 5    1  0.3273105E-002  0.1249984E+03  0.7818608E-02  0.1235072E+00
          4   -1    0    0  501    0  0.00000000000E+00  0.00000000000E+00  0.17040857091E+03  0.17041330330E+03  0.12700000000E+01 0.  1.
         -4   -1    0    0    0  501 -0.00000000000E+00 -0.00000000000E+00 -0.22899624358E+02  0.22934814055E+02  0.12700000000E+01 0.  1.
         25    2    1    2    0    0  0.00000000000E+00  0.00000000000E+00  0.14750894655E+03  0.19334811735E+03  0.12499842067E+03 0.  0.
    9000005    1    3    3    0    0 -0.22398016137E+02 -0.45066077927E+02  0.13105995302E+03  0.14039349626E+03  0.10000000000E+01 0.  0.
    9000005    1    3    3    0    0  0.22398016137E+02  0.45066077927E+02  0.16448993535E+02  0.52954621092E+02  0.10000000000E+01 0.  0.
<mgrwt>
<rscale>  0 0.12499842E+03</rscale>
<asrwt>0</asrwt>
<pdfrwt beam="1">  1        4 0.26219774E-01 0.12499842E+03</pdfrwt>
<pdfrwt beam="2">  1       -4 0.35260901E-02 0.12499842E+03</pdfrwt>
<totfact> 0.91271222E+03</totfact>
</mgrwt>
</event>
<event>
 5    1  0.3273105E-002  0.1249976E+03  0.7818608E-02  0.1235073E+00
          4   -1    0    0  501    0  0.00000000000E+00  0.00000000000E+00  0.58847189519E+02  0.58860892061E+02  0.12700000000E+01 0.  1.
         -4   -1    0    0    0  501 -0.00000000000E+00 -0.00000000000E+00 -0.66349478284E+02  0.66361631750E+02  0.12700000000E+01 0.  1.
         25    2    1    2    0    0  0.00000000000E+00  0.00000000000E+00 -0.75022887653E+01  0.12522252381E+03  0.12499758451E+03 0.  0.
    9000005    1    3    3    0    0 -0.33265622935E+02 -0.29558565327E+02  0.40200218697E+02  0.59978062962E+02  0.10000000000E+01 0.  0.
    9000005    1    3    3    0    0  0.33265622935E+02  0.29558565327E+02 -0.47702507462E+02  0.65244460850E+02  0.10000000000E+01 0.  0.
<mgrwt>
<rscale>  0 0.12499758E+03</rscale>
<asrwt>0</asrwt>
<pdfrwt beam="1">  1        4 0.90554027E-02 0.12499758E+03</pdfrwt>
<pdfrwt beam="2">  1       -4 0.10209601E-01 0.12499758E+03</pdfrwt>
<totfact> 0.10448602E+04</totfact>
</mgrwt>
</event>
<event>
 4    1  0.3273105E-002  0.1253528E+03  0.7818608E-02  0.1234519E+00
          4   -1    0    0  501    0  0.00000000000E+00  0.00000000000E+00  0.19371527384E+02  0.19413113433E+02  0.12700000000E+01 0. -1.
         -4   -1    0    0    0  501 -0.00000000000E+00 -0.00000000000E+00 -0.20252802862E+03  0.20253201050E+03  0.12700000000E+01 0. -1.
    9000005    1    1    2    0    0  0.43627964232E+02 -0.27460698247E+02 -0.28484452058E+02  0.58905460021E+02  0.10000000000E+01 0.  0.
    9000005    1    1    2    0    0 -0.43627964232E+02  0.27460698247E+02 -0.15467204918E+03  0.16303966391E+03  0.10000000000E+01 0.  0.
<mgrwt>
<rscale>  0 0.12535284E+03</rscale>
<asrwt>0</asrwt>
<pdfrwt beam="1">  1        4 0.29837404E-02 0.12535284E+03</pdfrwt>
<pdfrwt beam="2">  1       -4 0.31161662E-01 0.12535284E+03</pdfrwt>
<totfact> 0.85882921E+03</totfact>
</mgrwt>
</event>
<event>
 5    1  0.3273105E-002  0.1250006E+03  0.7818608E-02  0.1235068E+00
          4   -1    0    0  501    0  0.00000000000E+00  0.00000000000E+00  0.20111249689E+04  0.20111253699E+04  0.12700000000E+01 0.  1.
         -4   -1    0    0    0  501 -0.00000000000E+00 -0.00000000000E+00 -0.17342984585E+01  0.21495792944E+01  0.12700000000E+01 0.  1.
         25    2    1    2    0    0  0.00000000000E+00  0.00000000000E+00  0.20093906704E+04  0.20132749492E+04  0.12500061829E+03 0.  0.
    9000005    1    3    3    0    0 -0.55932383836E+02  0.21805871401E+02  0.12842936129E+04  0.12856963140E+04  0.10000000000E+01 0.  0.
    9000005    1    3    3    0    0  0.55932383836E+02 -0.21805871401E+02  0.72509705749E+03  0.72757863518E+03  0.10000000000E+01 0.  0.
<mgrwt>
<rscale>  0 0.12500062E+03</rscale>
<asrwt>0</asrwt>
<pdfrwt beam="1">  1        4 0.30943663E+00 0.12500062E+03</pdfrwt>
<pdfrwt beam="2">  1       -4 0.29878988E-03 0.12500062E+03</pdfrwt>
<totfact> 0.96887114E+02</totfact>
</mgrwt>
</event>
<event>
 5    1  0.3273105E-002  0.1249757E+03  0.7818608E-02  0.1235107E+00
         -4   -1    0    0    0  501 -0.00000000000E+00  0.00000000000E+00  0.68446526611E+02  0.68458307788E+02  0.12700000000E+01 0.  1.
          4   -1    0    0  501    0  0.00000000000E+00 -0.00000000000E+00 -0.57024193729E+02  0.57038334219E+02  0.12700000000E+01 0.  1.
         25    2    1    2    0    0  0.00000000000E+00  0.00000000000E+00  0.11422332882E+02  0.12549664201E+03  0.12497574751E+03 0.  0.
    9000005    1    3    3    0    0 -0.57776739400E+01  0.54051209121E+02  0.36642468051E+02  0.65563596518E+02  0.10000000000E+01 0.  0.
    9000005    1    3    3    0    0  0.57776739400E+01 -0.54051209121E+02 -0.25220135168E+02  0.59933045488E+02  0.10000000000E+01 0.  0.
<mgrwt>
<rscale>  0 0.12497575E+03</rscale>
<asrwt>0</asrwt>
<pdfrwt beam="2">  1        4 0.87749469E-02 0.12497575E+03</pdfrwt>
<pdfrwt beam="1">  1       -4 0.10532229E-01 0.12497575E+03</pdfrwt>
<totfact> 0.10447742E+04</totfact>
</mgrwt>
</event>
<event>
 5    1  0.3273105E-002  0.1250173E+03  0.7818608E-02  0.1235042E+00
         -4   -1    0    0    0  501 -0.00000000000E+00  0.00000000000E+00  0.10896101492E+03  0.10896841594E+03  0.12700000000E+01 0. -1.
          4   -1    0    0  501    0  0.00000000000E+00 -0.00000000000E+00 -0.35840040168E+02  0.35862534479E+02  0.12700000000E+01 0. -1.
         25    2    1    2    0    0  0.00000000000E+00  0.00000000000E+00  0.73120974749E+02  0.14483095042E+03  0.12501730780E+03 0.  0.
    9000005    1    3    3    0    0  0.34505758783E+02  0.52066751533E+02  0.39082109314E+02  0.73688569485E+02  0.10000000000E+01 0.  0.
    9000005    1    3    3    0    0 -0.34505758783E+02 -0.52066751533E+02  0.34038865435E+02  0.71142380931E+02  0.10000000000E+01 0.  0.
<mgrwt>
<rscale>  0 0.12501731E+03</rscale>
<asrwt>0</asrwt>
<pdfrwt beam="2">  1        4 0.55161519E-02 0.12501731E+03</pdfrwt>
<pdfrwt beam="1">  1       -4 0.16765533E-01 0.12501731E+03</pdfrwt>
<totfact> 0.10030514E+04</totfact>
</mgrwt>
</event>
<event>
 5    1  0.3273105E-002  0.1249978E+03  0.7818608E-02  0.1235073E+00
         -4   -1    0    0    0  501 -0.00000000000E+00  0.00000000000E+00  0.12507633175E+03  0.12508277925E+03  0.12700000000E+01 0.  1.
          4   -1    0    0  501    0  0.00000000000E+00 -0.00000000000E+00 -0.31209660484E+02  0.31235489552E+02  0.12700000000E+01 0.  1.
         25    2    1    2    0    0  0.00000000000E+00  0.00000000000E+00  0.93866671265E+02  0.15631826880E+03  0.12499779672E+03 0.  0.
    9000005    1    3    3    0    0  0.46242823023E+02  0.20444255425E+02  0.10058712299E+01  0.50580411603E+02  0.10000000000E+01 0.  0.
    9000005    1    3    3    0    0 -0.46242823023E+02 -0.20444255425E+02  0.92860800035E+02  0.10573785719E+03  0.10000000000E+01 0.  0.
<mgrwt>
<rscale>  0 0.12499780E+03</rscale>
<asrwt>0</asrwt>
<pdfrwt beam="2">  1        4 0.48039691E-02 0.12499780E+03</pdfrwt>
<pdfrwt beam="1">  1       -4 0.19244995E-01 0.12499780E+03</pdfrwt>
<totfact> 0.98062185E+03</totfact>
</mgrwt>
</event>
<event>
 5    1  0.3273105E-002  0.1249972E+03  0.7818608E-02  0.1235074E+00
          4   -1    0    0  501    0  0.00000000000E+00  0.00000000000E+00  0.20117244137E+02  0.20157291774E+02  0.12700000000E+01 0. -1.
         -4   -1    0    0    0  501 -0.00000000000E+00 -0.00000000000E+00 -0.19393017674E+03  0.19393433515E+03  0.12700000000E+01 0. -1.
         25    2    1    2    0    0  0.00000000000E+00  0.00000000000E+00 -0.17381293261E+03  0.21409162693E+03  0.12499715669E+03 0.  0.
    9000005    1    3    3    0    0  0.22144487189E+02 -0.16558637098E+02  0.90776407067E+01  0.29119930223E+02  0.10000000000E+01 0.  0.
    9000005    1    3    3    0    0 -0.22144487189E+02  0.16558637098E+02 -0.18289057331E+03  0.18497169671E+03  0.10000000000E+01 0.  0.
<mgrwt>
<rscale>  0 0.12499716E+03</rscale>
<asrwt>0</asrwt>
<pdfrwt beam="1">  1        4 0.30983612E-02 0.12499716E+03</pdfrwt>
<pdfrwt beam="2">  1       -4 0.29838811E-01 0.12499716E+03</pdfrwt>
<totfact> 0.87817575E+03</totfact>
</mgrwt>
</event>
<event>
 5    1  0.3273105E-002  0.1249986E+03  0.7818608E-02  0.1235072E+00
         -4   -1    0    0    0  501 -0.00000000000E+00  0.00000000000E+00  0.96047944178E+02  0.96056340138E+02  0.12700000000E+01 0.  1.
          4   -1    0    0  501    0  0.00000000000E+00 -0.00000000000E+00 -0.40648776120E+02  0.40668610747E+02  0.12700000000E+01 0.  1.
         25    2    1    2    0    0  0.00000000000E+00  0.00000000000E+00  0.55399168057E+02  0.13672495088E+03  0.12499857748E+03 0.  0.
    9000005    1    3    3    0    0  0.14279737214E+02 -0.25185202665E+02 -0.32875839802E+02  0.43818103232E+02  0.10000000000E+01 0.  0.
    9000005    1    3    3    0    0 -0.14279737214E+02  0.25185202665E+02  0.88275007859E+02  0.92906847653E+02  0.10000000000E+01 0.  0.
<mgrwt>
<rscale>  0 0.12499858E+03</rscale>
<asrwt>0</asrwt>
<pdfrwt beam="2">  1        4 0.62558294E-02 0.12499858E+03</pdfrwt>
<pdfrwt beam="1">  1       -4 0.14778778E-01 0.12499858E+03</pdfrwt>
<totfact> 0.10202167E+04</totfact>
</mgrwt>
</event>
<event>
 5    1  0.3273105E-002  0.1249993E+03  0.7818608E-02  0.1235070E+00
         -4   -1    0    0    0  501 -0.00000000000E+00  0.00000000000E+00  0.25184036677E+02  0.25216038614E+02  0.12700000000E+01 0. -1.
          4   -1    0    0  501    0  0.00000000000E+00 -0.00000000000E+00 -0.15497329336E+03  0.15497849707E+03  0.12700000000E+01 0. -1.
         25    2    1    2    0    0  0.00000000000E+00  0.00000000000E+00 -0.12978925668E+03  0.18019453569E+03  0.12499927816E+03 0.  0.
    9000005    1    3    3    0    0  0.50537690480E+02  0.77829357729E+01 -0.13107081585E+02  0.52796096787E+02  0.10000000000E+01 0.  0.
    9000005    1    3    3    0    0 -0.50537690480E+02 -0.77829357729E+01 -0.11668217510E+03  0.12739843890E+03  0.10000000000E+01 0.  0.
<mgrwt>
<rscale>  0 0.12499928E+03</rscale>
<asrwt>0</asrwt>
<pdfrwt beam="2">  1        4 0.23844907E-01 0.12499928E+03</pdfrwt>
<pdfrwt beam="1">  1       -4 0.38773292E-02 0.12499928E+03</pdfrwt>
<totfact> 0.93583513E+03</totfact>
</mgrwt>
</event>
<event>
 5    1  0.3273105E-002  0.1250057E+03  0.7818608E-02  0.1235060E+00
         -4   -1    0    0    0  501 -0.00000000000E+00  0.00000000000E+00  0.15838712463E+02  0.15889547272E+02  0.12700000000E+01 0. -1.
          4   -1    0    0  501    0  0.00000000000E+00 -0.00000000000E+00 -0.24620156654E+03  0.24620484209E+03  0.12700000000E+01 0. -1.
         25    2    1    2    0    0  0.00000000000E+00  0.00000000000E+00 -0.23036285408E+03  0.26209438936E+03  0.12500569745E+03 0.  0.
    9000005    1    3    3    0    0  0.22036799423E+02 -0.89609685758E+01  0.59845739242E+01  0.24550653997E+02  0.10000000000E+01 0.  0.
    9000005    1    3    3    0    0 -0.22036799423E+02  0.89609685758E+01 -0.23634742800E+03  0.23754373536E+03  0.10000000000E+01 0.  0.
<mgrwt>
<rscale>  0 0.12500570E+03</rscale>
<asrwt>0</asrwt>
<pdfrwt beam="2">  1        4 0.37881324E-01 0.12500570E+03</pdfrwt>
<pdfrwt beam="1">  1       -4 0.24408875E-02 0.12500570E+03</pdfrwt>
<totfact> 0.80602818E+03</totfact>
</mgrwt>
</event>
<event>
 5    1  0.3273105E-002  0.1250007E+03  0.7818608E-02  0.1235068E+00
          4   -1    0    0  501    0  0.00000000000E+00  0.00000000000E+00  0.65916049315E+01  0.67128351367E+01  0.12700000000E+01 0. -1.
         -4   -1    0    0    0  501 -0.00000000000E+00 -0.00000000000E+00 -0.58709453704E+03  0.58709591067E+03  0.12700000000E+01 0. -1.
         25    2    1    2    0    0  0.00000000000E+00  0.00000000000E+00 -0.58050293211E+03  0.59380874580E+03  0.12500068962E+03 0.  0.
    9000005    1    3    3    0    0 -0.68791607933E+01  0.32292809468E+02 -0.54230021288E+03  0.54330531866E+03  0.10000000000E+01 0.  0.
    9000005    1    3    3    0    0  0.68791607933E+01 -0.32292809468E+02 -0.38202719225E+02  0.50503427139E+02  0.10000000000E+01 0.  0.
<mgrwt>
<rscale>  0 0.12500069E+03</rscale>
<asrwt>0</asrwt>
<pdfrwt beam="1">  1        4 0.10235246E-02 0.12500069E+03</pdfrwt>
<pdfrwt beam="2">  1       -4 0.90331626E-01 0.12500069E+03</pdfrwt>
<totfact> 0.49260038E+03</totfact>
</mgrwt>
</event>
<event>
 5    1  0.3273105E-002  0.1249995E+03  0.7818608E-02  0.1235070E+00
          4   -1    0    0  501    0  0.00000000000E+00  0.00000000000E+00  0.23426090761E+04  0.23426094203E+04  0.12700000000E+01 0. -1.
         -4   -1    0    0    0  501 -0.00000000000E+00 -0.00000000000E+00 -0.14252515750E+01  0.19089897988E+01  0.12700000000E+01 0. -1.
         25    2    1    2    0    0  0.00000000000E+00  0.00000000000E+00  0.23411838245E+04  0.23445184101E+04  0.12499950129E+03 0.  0.
    9000005    1    3    3    0    0 -0.31002915188E+02 -0.42445251800E+02  0.18045518534E+04  0.18053174712E+04  0.10000000000E+01 0.  0.
    9000005    1    3    3    0    0  0.31002915188E+02  0.42445251800E+02  0.53663197107E+03  0.53920093891E+03  0.10000000000E+01 0.  0.
<mgrwt>
<rscale>  0 0.12499950E+03</rscale>
<asrwt>0</asrwt>
<pdfrwt beam="1">  1        4 0.36043772E+00 0.12499950E+03</pdfrwt>
<pdfrwt beam="2">  1       -4 0.25650724E-03 0.12499950E+03</pdfrwt>
<totfact> 0.60086118E+02</totfact>
</mgrwt>
</event>
<event>
 5    1  0.3273105E-002  0.1250035E+03  0.7818608E-02  0.1235064E+00
         -4   -1    0    0    0  501 -0.00000000000E+00  0.00000000000E+00  0.97690680702E+02  0.97698935491E+02  0.12700000000E+01 0. -1.
          4   -1    0    0  501    0  0.00000000000E+00 -0.00000000000E+00 -0.39968100174E+02  0.39988272425E+02  0.12700000000E+01 0. -1.
         25    2    1    2    0    0  0.00000000000E+00  0.00000000000E+00  0.57722580529E+02  0.13768720792E+03  0.12500348363E+03 0.  0.
    9000005    1    3    3    0    0 -0.39057765290E+02 -0.40383607935E+02  0.59008562085E+02  0.81482238670E+02  0.10000000000E+01 0.  0.
    9000005    1    3    3    0    0  0.39057765290E+02  0.40383607935E+02 -0.12859815560E+01  0.56204969246E+02  0.10000000000E+01 0.  0.
<mgrwt>
<rscale>  0 0.12500348E+03</rscale>
<asrwt>0</asrwt>
<pdfrwt beam="2">  1        4 0.61511252E-02 0.12500348E+03</pdfrwt>
<pdfrwt beam="1">  1       -4 0.15031522E-01 0.12500348E+03</pdfrwt>
<totfact> 0.10180937E+04</totfact>
</mgrwt>
</event>
<event>
 5    1  0.3273105E-002  0.1250111E+03  0.7818608E-02  0.1235052E+00
          4   -1    0    0  501    0  0.00000000000E+00  0.00000000000E+00  0.21990750354E+02  0.22027392064E+02  0.12700000000E+01 0. -1.
         -4   -1    0    0    0  501 -0.00000000000E+00 -0.00000000000E+00 -0.17747611719E+03  0.17748066112E+03  0.12700000000E+01 0. -1.
         25    2    1    2    0    0  0.00000000000E+00  0.00000000000E+00 -0.15548536684E+03  0.19950805319E+03  0.12501105546E+03 0.  0.
    9000005    1    3    3    0    0  0.30195745266E+02  0.24665361184E+02  0.20927247212E+00  0.39002652083E+02  0.10000000000E+01 0.  0.
    9000005    1    3    3    0    0 -0.30195745266E+02 -0.24665361184E+02 -0.15569463931E+03  0.16050540111E+03  0.10000000000E+01 0.  0.
<mgrwt>
<rscale>  0 0.12501106E+03</rscale>
<asrwt>0</asrwt>
<pdfrwt beam="1">  1        4 0.33863606E-02 0.12501106E+03</pdfrwt>
<pdfrwt beam="2">  1       -4 0.27307185E-01 0.12501106E+03</pdfrwt>
<totfact> 0.90196227E+03</totfact>
</mgrwt>
</event>
<event>
 5    1  0.3273105E-002  0.1250136E+03  0.7818608E-02  0.1235048E+00
          4   -1    0    0  501    0  0.00000000000E+00  0.00000000000E+00  0.29109678354E+02  0.29137369028E+02  0.12700000000E+01 0. -1.
         -4   -1    0    0    0  501 -0.00000000000E+00 -0.00000000000E+00 -0.13412546131E+03  0.13413147383E+03  0.12700000000E+01 0. -1.
         25    2    1    2    0    0  0.00000000000E+00  0.00000000000E+00 -0.10501578296E+03  0.16326884286E+03  0.12501360077E+03 0.  0.
    9000005    1    3    3    0    0  0.29599463723E+02 -0.41342131124E+02 -0.50438640323E+01  0.51105191741E+02  0.10000000000E+01 0.  0.
    9000005    1    3    3    0    0 -0.29599463723E+02  0.41342131124E+02 -0.99971918924E+02  0.11216365112E+03  0.10000000000E+01 0.  0.
<mgrwt>
<rscale>  0 0.12501360E+03</rscale>
<asrwt>0</asrwt>
<pdfrwt beam="1">  1        4 0.44810047E-02 0.12501360E+03</pdfrwt>
<pdfrwt beam="2">  1       -4 0.20637279E-01 0.12501360E+03</pdfrwt>
<totfact> 0.96686704E+03</totfact>
</mgrwt>
</event>
<event>
 5    1  0.3273105E-002  0.1249941E+03  0.7818608E-02  0.1235079E+00
          4   -1    0    0  501    0  0.00000000000E+00  0.00000000000E+00  0.38599912073E+03  0.38600120998E+03  0.12700000000E+01 0. -1.
         -4   -1    0    0    0  501 -0.00000000000E+00 -0.00000000000E+00 -0.10076906729E+02  0.10156620955E+02  0.12700000000E+01 0. -1.
         25    2    1    2    0    0  0.00000000000E+00  0.00000000000E+00  0.37592221400E+03  0.39615783093E+03  0.12499406398E+03 0.  0.
    9000005    1    3    3    0    0  0.26287853022E+02  0.37047979033E+02  0.51961332113E+02  0.69025966143E+02  0.10000000000E+01 0.  0.
    9000005    1    3    3    0    0 -0.26287853022E+02 -0.37047979033E+02  0.32396088189E+03  0.32713186479E+03  0.10000000000E+01 0.  0.
<mgrwt>
<rscale>  0 0.12499406E+03</rscale>
<asrwt>0</asrwt>
<pdfrwt beam="1">  1        4 0.59390775E-01 0.12499406E+03</pdfrwt>
<pdfrwt beam="2">  1       -4 0.15565859E-02 0.12499406E+03</pdfrwt>
<totfact> 0.64936705E+03</totfact>
</mgrwt>
</event>
<event>
 5    1  0.3273105E-002  0.1249899E+03  0.7818608E-02  0.1235085E+00
         -4   -1    0    0    0  501 -0.00000000000E+00  0.00000000000E+00  0.14757545254E+03  0.14758091710E+03  0.12700000000E+01 0. -1.
          4   -1    0    0  501    0  0.00000000000E+00 -0.00000000000E+00 -0.26444021704E+02  0.26474500635E+02  0.12700000000E+01 0. -1.
         25    2    1    2    0    0  0.00000000000E+00  0.00000000000E+00  0.12113143083E+03  0.17405541773E+03  0.12498985922E+03 0.  0.
    9000005    1    3    3    0    0 -0.25686681943E+00 -0.51898005015E+02  0.10902882241E+03  0.12075492960E+03  0.10000000000E+01 0.  0.
    9000005    1    3    3    0    0  0.25686681943E+00  0.51898005015E+02  0.12102608420E+02  0.53300488137E+02  0.10000000000E+01 0.  0.
<mgrwt>
<rscale>  0 0.12498986E+03</rscale>
<asrwt>0</asrwt>
<pdfrwt beam="2">  1        4 0.40710760E-02 0.12498986E+03</pdfrwt>
<pdfrwt beam="1">  1       -4 0.22706680E-01 0.12498986E+03</pdfrwt>
<totfact> 0.94719672E+03</totfact>
</mgrwt>
</event>
<event>
 5    1  0.3273105E-002  0.1250114E+03  0.7818608E-02  0.1235051E+00
         -4   -1    0    0    0  501 -0.00000000000E+00  0.00000000000E+00  0.32480380849E+03  0.32480629136E+03  0.12700000000E+01 0. -1.
          4   -1    0    0  501    0  0.00000000000E+00 -0.00000000000E+00 -0.11992626047E+02  0.12059684055E+02  0.12700000000E+01 0. -1.
         25    2    1    2    0    0  0.00000000000E+00  0.00000000000E+00  0.31281118244E+03  0.33686597542E+03  0.12501139762E+03 0.  0.
    9000005    1    3    3    0    0  0.11645869297E+02 -0.26819540802E+02  0.75613344233E+01  0.30217343013E+02  0.10000000000E+01 0.  0.
    9000005    1    3    3    0    0 -0.11645869297E+02  0.26819540802E+02  0.30524984802E+03  0.30664863241E+03  0.10000000000E+01 0.  0.
<mgrwt>
<rscale>  0 0.12501140E+03</rscale>
<asrwt>0</asrwt>
<pdfrwt beam="2">  1        4 0.18503690E-02 0.12501140E+03</pdfrwt>
<pdfrwt beam="1">  1       -4 0.49975158E-01 0.12501140E+03</pdfrwt>
<totfact> 0.71176082E+03</totfact>
</mgrwt>
</event>
<event>
 5    1  0.3273105E-002  0.1250077E+03  0.7818608E-02  0.1235057E+00
          4   -1    0    0  501    0  0.00000000000E+00  0.00000000000E+00  0.18101025263E+03  0.18101470784E+03  0.12700000000E+01 0. -1.
         -4   -1    0    0    0  501 -0.00000000000E+00 -0.00000000000E+00 -0.21559511032E+02  0.21596884404E+02  0.12700000000E+01 0. -1.
         25    2    1    2    0    0  0.00000000000E+00  0.00000000000E+00  0.15945074159E+03  0.20261159225E+03  0.12500767304E+03 0.  0.
    9000005    1    3    3    0    0 -0.19207144282E+02 -0.80318988074E+01 -0.15781908955E+02  0.26143726594E+02  0.10000000000E+01 0.  0.
    9000005    1    3    3    0    0  0.19207144282E+02  0.80318988074E+01  0.17523265055E+03  0.17646786565E+03  0.10000000000E+01 0.  0.
<mgrwt>
<rscale>  0 0.12500767E+03</rscale>
<asrwt>0</asrwt>
<pdfrwt beam="1">  1        4 0.27850949E-01 0.12500767E+03</pdfrwt>
<pdfrwt beam="2">  1       -4 0.33200654E-02 0.12500767E+03</pdfrwt>
<totfact> 0.89681505E+03</totfact>
</mgrwt>
</event>
<event>
 5    1  0.3273105E-002  0.1249998E+03  0.7818608E-02  0.1235070E+00
          4   -1    0    0  501    0  0.00000000000E+00  0.00000000000E+00  0.34493958922E+02  0.34517330461E+02  0.12700000000E+01 0. -1.
         -4   -1    0    0    0  501 -0.00000000000E+00 -0.00000000000E+00 -0.11317874857E+03  0.11318587380E+03  0.12700000000E+01 0. -1.
         25    2    1    2    0    0  0.00000000000E+00  0.00000000000E+00 -0.78684789650E+02  0.14770320426E+03  0.12499976171E+03 0.  0.
    9000005    1    3    3    0    0  0.14944647156E+02 -0.51173049703E+02 -0.81314196158E+00  0.53326210201E+02  0.10000000000E+01 0.  0.
    9000005    1    3    3    0    0 -0.14944647156E+02  0.51173049703E+02 -0.77871647688E+02  0.94376994062E+02  0.10000000000E+01 0.  0.
<mgrwt>
<rscale>  0 0.12499976E+03</rscale>
<asrwt>0</asrwt>
<pdfrwt beam="1">  1        4 0.53091089E-02 0.12499976E+03</pdfrwt>
<pdfrwt beam="2">  1       -4 0.17414461E-01 0.12499976E+03</pdfrwt>
<totfact> 0.99764051E+03</totfact>
</mgrwt>
</event>
<event>
 5    1  0.3273105E-002  0.1250025E+03  0.7818608E-02  0.1235065E+00
          4   -1    0    0  501    0  0.00000000000E+00  0.00000000000E+00  0.14205697863E+03  0.14206265546E+03  0.12700000000E+01 0.  1.
         -4   -1    0    0    0  501 -0.00000000000E+00 -0.00000000000E+00 -0.27477955031E+02  0.27507288356E+02  0.12700000000E+01 0.  1.
         25    2    1    2    0    0  0.00000000000E+00  0.00000000000E+00  0.11457902360E+03  0.16956994382E+03  0.12500245277E+03 0.  0.
    9000005    1    3    3    0    0  0.10768266983E+01  0.45714332830E+02  0.11507277555E+03  0.12382933197E+03  0.10000000000E+01 0.  0.
    9000005    1    3    3    0    0 -0.10768266983E+01 -0.45714332830E+02 -0.49375195242E+00  0.45740611854E+02  0.10000000000E+01 0.  0.
<mgrwt>
<rscale>  0 0.12500245E+03</rscale>
<asrwt>0</asrwt>
<pdfrwt beam="1">  1        4 0.21857613E-01 0.12500245E+03</pdfrwt>
<pdfrwt beam="2">  1       -4 0.42300709E-02 0.12500245E+03</pdfrwt>
<totfact> 0.95523588E+03</totfact>
</mgrwt>
</event>
<event>
 5    1  0.3273105E-002  0.1250291E+03  0.7818608E-02  0.1235024E+00
          4   -1    0    0  501    0  0.00000000000E+00  0.00000000000E+00  0.19651271011E+02  0.19692266309E+02  0.12700000000E+01 0.  1.
         -4   -1    0    0    0  501 -0.00000000000E+00 -0.00000000000E+00 -0.19862094165E+03  0.19862500185E+03  0.12700000000E+01 0.  1.
         25    2    1    2    0    0  0.00000000000E+00  0.00000000000E+00 -0.17896967064E+03  0.21831726816E+03  0.12502914288E+03 0.  0.
    9000005    1    3    3    0    0 -0.21389875999E+02 -0.38681246603E+02 -0.12312440531E+02  0.45895117669E+02  0.10000000000E+01 0.  0.
    9000005    1    3    3    0    0  0.21389875999E+02  0.38681246603E+02 -0.16665723010E+03  0.17242215049E+03  0.10000000000E+01 0.  0.
<mgrwt>
<rscale>  0 0.12502914E+03</rscale>
<asrwt>0</asrwt>
<pdfrwt beam="1">  1        4 0.30267384E-02 0.12502914E+03</pdfrwt>
<pdfrwt beam="2">  1       -4 0.30560532E-01 0.12502914E+03</pdfrwt>
<totfact> 0.87078618E+03</totfact>
</mgrwt>
</event>
<event>
 5    1  0.3273105E-002  0.1250022E+03  0.7818608E-02  0.1235066E+00
         -4   -1    0    0    0  501 -0.00000000000E+00  0.00000000000E+00  0.36618288519E+03  0.36618508750E+03  0.12700000000E+01 0.  1.
          4   -1    0    0  501    0  0.00000000000E+00 -0.00000000000E+00 -0.10627818813E+02  0.10703430886E+02  0.12700000000E+01 0.  1.
         25    2    1    2    0    0  0.00000000000E+00  0.00000000000E+00  0.35555506638E+03  0.37688851839E+03  0.12500220024E+03 0.  0.
    9000005    1    3    3    0    0  0.30775736380E+02  0.54380008358E+02  0.17467882925E+03  0.18552095473E+03  0.10000000000E+01 0.  0.
    9000005    1    3    3    0    0 -0.30775736380E+02 -0.54380008358E+02  0.18087623714E+03  0.19136756365E+03  0.10000000000E+01 0.  0.
<mgrwt>
<rscale>  0 0.12500220E+03</rscale>
<asrwt>0</asrwt>
<pdfrwt beam="2">  1        4 0.16410349E-02 0.12500220E+03</pdfrwt>
<pdfrwt beam="1">  1       -4 0.56341811E-01 0.12500220E+03</pdfrwt>
<totfact> 0.66861123E+03</totfact>
</mgrwt>
</event>
<event>
 5    1  0.3273105E-002  0.1250008E+03  0.7818608E-02  0.1235068E+00
          4   -1    0    0  501    0  0.00000000000E+00  0.00000000000E+00  0.93178449983E+01  0.94039957152E+01  0.12700000000E+01 0.  1.
         -4   -1    0    0    0  501 -0.00000000000E+00 -0.00000000000E+00 -0.41721185987E+03  0.41721379282E+03  0.12700000000E+01 0.  1.
         25    2    1    2    0    0  0.00000000000E+00  0.00000000000E+00 -0.40789401487E+03  0.42661778853E+03  0.12500084049E+03 0.  0.
    9000005    1    3    3    0    0  0.54547306359E+02 -0.75199258925E+01 -0.30480698104E+03  0.30974223737E+03  0.10000000000E+01 0.  0.
    9000005    1    3    3    0    0 -0.54547306359E+02  0.75199258925E+01 -0.10308703383E+03  0.11687555116E+03  0.10000000000E+01 0.  0.
<mgrwt>
<rscale>  0 0.12500084E+03</rscale>
<asrwt>0</asrwt>
<pdfrwt beam="1">  1        4 0.14402906E-02 0.12500084E+03</pdfrwt>
<pdfrwt beam="2">  1       -4 0.64193201E-01 0.12500084E+03</pdfrwt>
<totfact> 0.62042625E+03</totfact>
</mgrwt>
</event>
<event>
 5    1  0.3273105E-002  0.1249875E+03  0.7818608E-02  0.1235089E+00
         -4   -1    0    0    0  501 -0.00000000000E+00  0.00000000000E+00  0.94084261491E+02  0.94092832672E+02  0.12700000000E+01 0. -1.
          4   -1    0    0  501    0  0.00000000000E+00 -0.00000000000E+00 -0.41490151192E+02  0.41509583784E+02  0.12700000000E+01 0. -1.
         25    2    1    2    0    0  0.00000000000E+00  0.00000000000E+00  0.52594110299E+02  0.13560241646E+03  0.12498749902E+03 0.  0.
    9000005    1    3    3    0    0 -0.23257888571E+02 -0.48716272823E+02 -0.78439552804E+01  0.54559437800E+02  0.10000000000E+01 0.  0.
    9000005    1    3    3    0    0  0.23257888571E+02  0.48716272823E+02  0.60438065580E+02  0.81042978657E+02  0.10000000000E+01 0.  0.
<mgrwt>
<rscale>  0 0.12498750E+03</rscale>
<asrwt>0</asrwt>
<pdfrwt beam="2">  1        4 0.63852544E-02 0.12498750E+03</pdfrwt>
<pdfrwt beam="1">  1       -4 0.14476656E-01 0.12498750E+03</pdfrwt>
<totfact> 0.10228272E+04</totfact>
</mgrwt>
</event>
<event>
 5    1  0.3273105E-002  0.1249970E+03  0.7818608E-02  0.1235074E+00
          4   -1    0    0  501    0  0.00000000000E+00  0.00000000000E+00  0.39864718217E+03  0.39864920513E+03  0.12700000000E+01 0.  1.
         -4   -1    0    0    0  501 -0.00000000000E+00 -0.00000000000E+00 -0.97550814445E+01  0.98374038236E+01  0.12700000000E+01 0.  1.
         25    2    1    2    0    0  0.00000000000E+00  0.00000000000E+00  0.38889210072E+03  0.40848660895E+03  0.12499697472E+03 0.  0.
    9000005    1    3    3    0    0  0.56494577355E+02  0.20924645624E+01  0.10742680833E+03  0.12139824886E+03  0.10000000000E+01 0.  0.
    9000005    1    3    3    0    0 -0.56494577355E+02 -0.20924645624E+01  0.28146529240E+03  0.28708836010E+03  0.10000000000E+01 0.  0.
<mgrwt>
<rscale>  0 0.12499697E+03</rscale>
<asrwt>0</asrwt>
<pdfrwt beam="1">  1        4 0.61336837E-01 0.12499697E+03</pdfrwt>
<pdfrwt beam="2">  1       -4 0.15072695E-02 0.12499697E+03</pdfrwt>
<totfact> 0.63739923E+03</totfact>
</mgrwt>
</event>
<event>
 5    1  0.3273105E-002  0.1249981E+03  0.7818608E-02  0.1235072E+00
          4   -1    0    0  501    0  0.00000000000E+00  0.00000000000E+00  0.66198393939E+01  0.67405618165E+01  0.12700000000E+01 0.  1.
         -4   -1    0    0    0  501 -0.00000000000E+00 -0.00000000000E+00 -0.58461152883E+03  0.58461290829E+03  0.12700000000E+01 0.  1.
         25    2    1    2    0    0  0.00000000000E+00  0.00000000000E+00 -0.57799168944E+03  0.59135347011E+03  0.12499813419E+03 0.  0.
    9000005    1    3    3    0    0  0.17555893455E+01  0.61844228480E+02 -0.24739010221E+03  0.25501108478E+03  0.10000000000E+01 0.  0.
    9000005    1    3    3    0    0 -0.17555893455E+01 -0.61844228480E+02 -0.33060158723E+03  0.33634238533E+03  0.10000000000E+01 0.  0.
<mgrwt>
<rscale>  0 0.12499813E+03</rscale>
<asrwt>0</asrwt>
<pdfrwt beam="1">  1        4 0.10278297E-02 0.12499813E+03</pdfrwt>
<pdfrwt beam="2">  1       -4 0.89949588E-01 0.12499813E+03</pdfrwt>
<totfact> 0.49420031E+03</totfact>
</mgrwt>
</event>
<event>
 5    1  0.3273105E-002  0.1249959E+03  0.7818608E-02  0.1235076E+00
         -4   -1    0    0    0  501 -0.00000000000E+00  0.00000000000E+00  0.67304748409E+02  0.67316729409E+02  0.12700000000E+01 0.  1.
          4   -1    0    0  501    0  0.00000000000E+00 -0.00000000000E+00 -0.58010386533E+02  0.58024286688E+02  0.12700000000E+01 0.  1.
         25    2    1    2    0    0  0.00000000000E+00  0.00000000000E+00  0.92943618761E+01  0.12534101610E+03  0.12499594055E+03 0.  0.
    9000005    1    3    3    0    0  0.54906985393E+02  0.24377965197E+02  0.21897406402E+02  0.63949657069E+02  0.10000000000E+01 0.  0.
    9000005    1    3    3    0    0 -0.54906985393E+02 -0.24377965197E+02 -0.12603044525E+02  0.61391359029E+02  0.10000000000E+01 0.  0.
<mgrwt>
<rscale>  0 0.12499594E+03</rscale>
<asrwt>0</asrwt>
<pdfrwt beam="2">  1        4 0.89266658E-02 0.12499594E+03</pdfrwt>
<pdfrwt beam="1">  1       -4 0.10356567E-01 0.12499594E+03</pdfrwt>
<totfact> 0.10446418E+04</totfact>
</mgrwt>
</event>
<event>
 5    1  0.3273105E-002  0.1250000E+03  0.7818608E-02  0.1235069E+00
          4   -1    0    0  501    0  0.00000000000E+00  0.00000000000E+00  0.16717778974E+02  0.16765948640E+02  0.12700000000E+01 0. -1.
         -4   -1    0    0    0  501 -0.00000000000E+00 -0.00000000000E+00 -0.23327234647E+03  0.23327580356E+03  0.12700000000E+01 0. -1.
         25    2    1    2    0    0  0.00000000000E+00  0.00000000000E+00 -0.21655456750E+03  0.25004175220E+03  0.12499998856E+03 0.  0.
    9000005    1    3    3    0    0 -0.99334426911E+01  0.12531900739E+02 -0.22912011128E+03  0.22967966217E+03  0.10000000000E+01 0.  0.
    9000005    1    3    3    0    0  0.99334426911E+01 -0.12531900739E+02  0.12565543787E+02  0.20362090033E+02  0.10000000000E+01 0.  0.
<mgrwt>
<rscale>  0 0.12499999E+03</rscale>
<asrwt>0</asrwt>
<pdfrwt beam="1">  1        4 0.25759374E-02 0.12499999E+03</pdfrwt>
<pdfrwt beam="2">  1       -4 0.35892022E-01 0.12499999E+03</pdfrwt>
<totfact> 0.82324216E+03</totfact>
</mgrwt>
</event>
<event>
 5    1  0.3273105E-002  0.1249964E+03  0.7818608E-02  0.1235075E+00
         -4   -1    0    0    0  501 -0.00000000000E+00  0.00000000000E+00  0.15717129538E+03  0.15717642632E+03  0.12700000000E+01 0.  1.
          4   -1    0    0  501    0  0.00000000000E+00 -0.00000000000E+00 -0.24830267585E+02  0.24862724878E+02  0.12700000000E+01 0.  1.
         25    2    1    2    0    0  0.00000000000E+00  0.00000000000E+00  0.13234102779E+03  0.18203915120E+03  0.12499641968E+03 0.  0.
    9000005    1    3    3    0    0  0.51001123259E+02  0.10291608787E+02  0.11657795264E+03  0.12766538617E+03  0.10000000000E+01 0.  0.
    9000005    1    3    3    0    0 -0.51001123259E+02 -0.10291608787E+02  0.15763075159E+02  0.54373765030E+02  0.10000000000E+01 0.  0.
<mgrwt>
<rscale>  0 0.12499642E+03</rscale>
<asrwt>0</asrwt>
<pdfrwt beam="2">  1        4 0.38229326E-02 0.12499642E+03</pdfrwt>
<pdfrwt beam="1">  1       -4 0.24183091E-01 0.12499642E+03</pdfrwt>
<totfact> 0.93258716E+03</totfact>
</mgrwt>
</event>
<event>
 5    1  0.3273105E-002  0.1249989E+03  0.7818608E-02  0.1235071E+00
          4   -1    0    0  501    0  0.00000000000E+00  0.00000000000E+00  0.20448074505E+03  0.20448468890E+03  0.12700000000E+01 0.  1.
         -4   -1    0    0    0  501 -0.00000000000E+00 -0.00000000000E+00 -0.19077695569E+02  0.19119920717E+02  0.12700000000E+01 0.  1.
         25    2    1    2    0    0  0.00000000000E+00  0.00000000000E+00  0.18540304948E+03  0.22360460962E+03  0.12499892274E+03 0.  0.
    9000005    1    3    3    0    0 -0.45145916645E+02  0.42975919359E+02  0.10072133826E+03  0.11845197937E+03  0.10000000000E+01 0.  0.
    9000005    1    3    3    0    0  0.45145916645E+02 -0.42975919359E+02  0.84681711215E+02  0.10515263025E+03  0.10000000000E+01 0.  0.
<mgrwt>
<rscale>  0 0.12499892E+03</rscale>
<asrwt>0</asrwt>
<pdfrwt beam="1">  1        4 0.31462128E-01 0.12499892E+03</pdfrwt>
<pdfrwt beam="2">  1       -4 0.29385815E-02 0.12499892E+03</pdfrwt>
<totfact> 0.86303237E+03</totfact>
</mgrwt>
</event>
<event>
 5    1  0.3273105E-002  0.1249568E+03  0.7818608E-02  0.1235137E+00
         -4   -1    0    0    0  501 -0.00000000000E+00  0.00000000000E+00  0.39851039431E+03  0.39851241796E+03  0.12700000000E+01 0. -1.
          4   -1    0    0  501    0  0.00000000000E+00 -0.00000000000E+00 -0.97521298545E+01  0.98344769408E+01  0.12700000000E+01 0. -1.
         25    2    1    2    0    0  0.00000000000E+00  0.00000000000E+00  0.38875826445E+03  0.40834689490E+03  0.12495678612E+03 0.  0.
    9000005    1    3    3    0    0 -0.29348205417E+02  0.94034485650E+01  0.16802021554E+02  0.35114810756E+02  0.10000000000E+01 0.  0.
    9000005    1    3    3    0    0  0.29348205417E+02 -0.94034485650E+01  0.37195624290E+03  0.37323208415E+03  0.10000000000E+01 0.  0.
<mgrwt>
<rscale>  0 0.12495679E+03</rscale>
<asrwt>0</asrwt>
<pdfrwt beam="2">  1        4 0.15068180E-02 0.12495679E+03</pdfrwt>
<pdfrwt beam="1">  1       -4 0.61315772E-01 0.12495679E+03</pdfrwt>
<totfact> 0.63809834E+03</totfact>
</mgrwt>
</event>
<event>
 5    1  0.3273105E-002  0.1249987E+03  0.7818608E-02  0.1235071E+00
          4   -1    0    0  501    0  0.00000000000E+00  0.00000000000E+00  0.98625054548E+02  0.98633231137E+02  0.12700000000E+01 0. -1.
         -4   -1    0    0    0  501 -0.00000000000E+00 -0.00000000000E+00 -0.39586252215E+02  0.39606618947E+02  0.12700000000E+01 0. -1.
         25    2    1    2    0    0  0.00000000000E+00  0.00000000000E+00  0.59038802333E+02  0.13823985008E+03  0.12499870387E+03 0.  0.
    9000005    1    3    3    0    0  0.18803731264E+02 -0.23026531320E+02  0.90309034494E+02  0.95081665768E+02  0.10000000000E+01 0.  0.
    9000005    1    3    3    0    0 -0.18803731264E+02  0.23026531320E+02 -0.31270232160E+02  0.43158184316E+02  0.10000000000E+01 0.  0.
<mgrwt>
<rscale>  0 0.12499870E+03</rscale>
<asrwt>0</asrwt>
<pdfrwt beam="1">  1        4 0.15175281E-01 0.12499870E+03</pdfrwt>
<pdfrwt beam="2">  1       -4 0.60923883E-02 0.12499870E+03</pdfrwt>
<totfact> 0.10170494E+04</totfact>
</mgrwt>
</event>
<event>
 5    1  0.3273105E-002  0.1249994E+03  0.7818608E-02  0.1235070E+00
          4   -1    0    0  501    0  0.00000000000E+00  0.00000000000E+00  0.12608691255E+02  0.12672489699E+02  0.12700000000E+01 0.  1.
         -4   -1    0    0    0  501 -0.00000000000E+00 -0.00000000000E+00 -0.30895614221E+03  0.30895875244E+03  0.12700000000E+01 0.  1.
         25    2    1    2    0    0  0.00000000000E+00  0.00000000000E+00 -0.29634745096E+03  0.32163124214E+03  0.12499937693E+03 0.  0.
    9000005    1    3    3    0    0  0.59909776955E+02 -0.37896843179E+01 -0.10348324906E+03  0.11963831292E+03  0.10000000000E+01 0.  0.
    9000005    1    3    3    0    0 -0.59909776955E+02  0.37896843179E+01 -0.19286420190E+03  0.20199292922E+03  0.10000000000E+01 0.  0.
<mgrwt>
<rscale>  0 0.12499938E+03</rscale>
<asrwt>0</asrwt>
<pdfrwt beam="1">  1        4 0.19449073E-02 0.12499938E+03</pdfrwt>
<pdfrwt beam="2">  1       -4 0.47536817E-01 0.12499938E+03</pdfrwt>
<totfact> 0.72963540E+03</totfact>
</mgrwt>
</event>
<event>
 5    1  0.3273105E-002  0.1250015E+03  0.7818608E-02  0.1235067E+00
         -4   -1    0    0    0  501 -0.00000000000E+00  0.00000000000E+00  0.33718669335E+03  0.33718908504E+03  0.12700000000E+01 0. -1.
          4   -1    0    0  501    0  0.00000000000E+00 -0.00000000000E+00 -0.11547860021E+02  0.11617485574E+02  0.12700000000E+01 0. -1.
         25    2    1    2    0    0  0.00000000000E+00  0.00000000000E+00  0.32563883333E+03  0.34880657062E+03  0.12500149572E+03 0.  0.
    9000005    1    3    3    0    0  0.15636012971E+02 -0.54600136541E+02  0.23556771950E+03  0.24231964486E+03  0.10000000000E+01 0.  0.
    9000005    1    3    3    0    0 -0.15636012971E+02  0.54600136541E+02  0.90071113830E+02  0.10648692576E+03  0.10000000000E+01 0.  0.
<mgrwt>
<rscale>  0 0.12500150E+03</rscale>
<asrwt>0</asrwt>
<pdfrwt beam="2">  1        4 0.17821338E-02 0.12500150E+03</pdfrwt>
<pdfrwt beam="1">  1       -4 0.51880411E-01 0.12500150E+03</pdfrwt>
<totfact> 0.69853736E+03</totfact>
</mgrwt>
</event>
<event>
 5    1  0.3273105E-002  0.1250000E+03  0.7818608E-02  0.1235069E+00
         -4   -1    0    0    0  501 -0.00000000000E+00  0.00000000000E+00  0.11111353396E+03  0.11112079161E+03  0.12700000000E+01 0.  1.
          4   -1    0    0  501    0  0.00000000000E+00 -0.00000000000E+00 -0.35135619599E+02  0.35158564598E+02  0.12700000000E+01 0.  1.
         25    2    1    2    0    0  0.00000000000E+00  0.00000000000E+00  0.75977914358E+02  0.14627935621E+03  0.12500002633E+03 0.  0.
    9000005    1    3    3    0    0  0.21931804182E+02 -0.43193002908E+02 -0.82110410665E+01  0.49143267395E+02  0.10000000000E+01 0.  0.
    9000005    1    3    3    0    0 -0.21931804182E+02  0.43193002908E+02  0.84188955424E+02  0.97136088815E+02  0.10000000000E+01 0.  0.
<mgrwt>
<rscale>  0 0.12500003E+03</rscale>
<asrwt>0</asrwt>
<pdfrwt beam="2">  1        4 0.54078033E-02 0.12500003E+03</pdfrwt>
<pdfrwt beam="1">  1       -4 0.17096713E-01 0.12500003E+03</pdfrwt>
<totfact> 0.10005053E+04</totfact>
</mgrwt>
</event>
<event>
 5    1  0.3273105E-002  0.1249986E+03  0.7818608E-02  0.1235071E+00
          4   -1    0    0  501    0  0.00000000000E+00  0.00000000000E+00  0.64983374169E+03  0.64983498270E+03  0.12700000000E+01 0.  1.
         -4   -1    0    0    0  501 -0.00000000000E+00 -0.00000000000E+00 -0.59426803154E+01  0.60768700275E+01  0.12700000000E+01 0.  1.
         25    2    1    2    0    0  0.00000000000E+00  0.00000000000E+00  0.64389106138E+03  0.65591185273E+03  0.12499863851E+03 0.  0.
    9000005    1    3    3    0    0  0.20600502471E+02  0.22368411339E+02  0.35474790720E+02  0.46735289713E+02  0.10000000000E+01 0.  0.
    9000005    1    3    3    0    0 -0.20600502471E+02 -0.22368411339E+02  0.60841627065E+03  0.60917656301E+03  0.10000000000E+01 0.  0.
<mgrwt>
<rscale>  0 0.12499864E+03</rscale>
<asrwt>0</asrwt>
<pdfrwt beam="1">  1        4 0.99984790E-01 0.12499864E+03</pdfrwt>
<pdfrwt beam="2">  1       -4 0.92467672E-03 0.12499864E+03</pdfrwt>
<totfact> 0.45519482E+03</totfact>
</mgrwt>
</event>
<event>
 5    1  0.3273105E-002  0.1249961E+03  0.7818608E-02  0.1235075E+00
          4   -1    0    0  501    0  0.00000000000E+00  0.00000000000E+00  0.18645287430E+02  0.18688489595E+02  0.12700000000E+01 0. -1.
         -4   -1    0    0    0  501 -0.00000000000E+00 -0.00000000000E+00 -0.20920283926E+03  0.20920669409E+03  0.12700000000E+01 0. -1.
         25    2    1    2    0    0  0.00000000000E+00  0.00000000000E+00 -0.19055755183E+03  0.22789518369E+03  0.12499613670E+03 0.  0.
    9000005    1    3    3    0    0 -0.19387887517E+02  0.56882458598E+02 -0.64043469708E+02  0.87829780205E+02  0.10000000000E+01 0.  0.
    9000005    1    3    3    0    0  0.19387887517E+02 -0.56882458598E+02 -0.12651408212E+03  0.14006540348E+03  0.10000000000E+01 0.  0.
<mgrwt>
<rscale>  0 0.12499614E+03</rscale>
<asrwt>0</asrwt>
<pdfrwt beam="1">  1        4 0.28721257E-02 0.12499614E+03</pdfrwt>
<pdfrwt beam="2">  1       -4 0.32188670E-01 0.12499614E+03</pdfrwt>
<totfact> 0.85641228E+03</totfact>
</mgrwt>
</event>
<event>
 5    1  0.3273105E-002  0.1249988E+03  0.7818608E-02  0.1235071E+00
          4   -1    0    0  501    0  0.00000000000E+00  0.00000000000E+00  0.46122702811E+02  0.46140184379E+02  0.12700000000E+01 0. -1.
         -4   -1    0    0    0  501 -0.00000000000E+00 -0.00000000000E+00 -0.84652589535E+02  0.84662115583E+02  0.12700000000E+01 0. -1.
         25    2    1    2    0    0  0.00000000000E+00  0.00000000000E+00 -0.38529886724E+02  0.13080229996E+03  0.12499875801E+03 0.  0.
    9000005    1    3    3    0    0  0.30660586368E+02  0.38512599009E+02  0.21017544013E+02  0.53535306063E+02  0.10000000000E+01 0.  0.
    9000005    1    3    3    0    0 -0.30660586368E+02 -0.38512599009E+02 -0.59547430738E+02  0.77266993900E+02  0.10000000000E+01 0.  0.
<mgrwt>
<rscale>  0 0.12499876E+03</rscale>
<asrwt>0</asrwt>
<pdfrwt beam="1">  1        4 0.70978779E-02 0.12499876E+03</pdfrwt>
<pdfrwt beam="2">  1       -4 0.13025553E-01 0.12499876E+03</pdfrwt>
<totfact> 0.10327619E+04</totfact>
</mgrwt>
</event>
<event>
 5    1  0.3273105E-002  0.1250019E+03  0.7818608E-02  0.1235066E+00
          4   -1    0    0  501    0  0.00000000000E+00  0.00000000000E+00  0.60162299292E+02  0.60175702373E+02  0.12700000000E+01 0.  1.
         -4   -1    0    0    0  501 -0.00000000000E+00 -0.00000000000E+00 -0.64903657361E+02  0.64916081512E+02  0.12700000000E+01 0.  1.
         25    2    1    2    0    0  0.00000000000E+00  0.00000000000E+00 -0.47413580693E+01  0.12509178388E+03  0.12500189566E+03 0.  0.
    9000005    1    3    3    0    0 -0.24877693316E+02  0.52657333964E+02 -0.25051354978E+02  0.63405558361E+02  0.10000000000E+01 0.  0.
    9000005    1    3    3    0    0  0.24877693316E+02 -0.52657333964E+02  0.20309996908E+02  0.61686225523E+02  0.10000000000E+01 0.  0.
<mgrwt>
<rscale>  0 0.12500190E+03</rscale>
<asrwt>0</asrwt>
<pdfrwt beam="1">  1        4 0.92577251E-02 0.12500190E+03</pdfrwt>
<pdfrwt beam="2">  1       -4 0.99871647E-02 0.12500190E+03</pdfrwt>
<totfact> 0.10450422E+04</totfact>
</mgrwt>
</event>
<event>
 5    1  0.3273105E-002  0.1250341E+03  0.7818608E-02  0.1235016E+00
         -4   -1    0    0    0  501 -0.00000000000E+00  0.00000000000E+00  0.31951502765E+02  0.31976732618E+02  0.12700000000E+01 0. -1.
          4   -1    0    0  501    0  0.00000000000E+00 -0.00000000000E+00 -0.12224557891E+03  0.12225217570E+03  0.12700000000E+01 0. -1.
         25    2    1    2    0    0  0.00000000000E+00  0.00000000000E+00 -0.90294076141E+02  0.15422890831E+03  0.12503413923E+03 0.  0.
    9000005    1    3    3    0    0  0.13533835060E+02 -0.50590482648E+02 -0.87245577304E+02  0.10176125188E+03  0.10000000000E+01 0.  0.
    9000005    1    3    3    0    0 -0.13533835060E+02  0.50590482648E+02 -0.30484988371E+01  0.52467656429E+02  0.10000000000E+01 0.  0.
<mgrwt>
<rscale>  0 0.12503414E+03</rscale>
<asrwt>0</asrwt>
<pdfrwt beam="2">  1        4 0.18809460E-01 0.12503414E+03</pdfrwt>
<pdfrwt beam="1">  1       -4 0.49180641E-02 0.12503414E+03</pdfrwt>
<totfact> 0.98391517E+03</totfact>
</mgrwt>
</event>
<event>
 5    1  0.3273105E-002  0.1249959E+03  0.7818608E-02  0.1235076E+00
          4   -1    0    0  501    0  0.00000000000E+00  0.00000000000E+00  0.16198636830E+02  0.16248345613E+02  0.12700000000E+01 0. -1.
         -4   -1    0    0    0  501 -0.00000000000E+00 -0.00000000000E+00 -0.24071033417E+03  0.24071368444E+03  0.12700000000E+01 0. -1.
         25    2    1    2    0    0  0.00000000000E+00  0.00000000000E+00 -0.22451169734E+03  0.25696203005E+03  0.12499593052E+03 0.  0.
    9000005    1    3    3    0    0 -0.97003224378E+01  0.51727373277E+02 -0.42992240234E+02  0.67964329776E+02  0.10000000000E+01 0.  0.
    9000005    1    3    3    0    0  0.97003224378E+01 -0.51727373277E+02 -0.18151945711E+03  0.18899770028E+03  0.10000000000E+01 0.  0.
<mgrwt>
<rscale>  0 0.12499593E+03</rscale>
<asrwt>0</asrwt>
<pdfrwt beam="1">  1        4 0.24961796E-02 0.12499593E+03</pdfrwt>
<pdfrwt beam="2">  1       -4 0.37036438E-01 0.12499593E+03</pdfrwt>
<totfact> 0.81341667E+03</totfact>
</mgrwt>
</event>
<event>
 5    1  0.3273105E-002  0.1250004E+03  0.7818608E-02  0.1235069E+00
          4   -1    0    0  501    0  0.00000000000E+00  0.00000000000E+00  0.63306882204E+02  0.63319619664E+02  0.12700000000E+01 0.  1.
         -4   -1    0    0    0  501 -0.00000000000E+00 -0.00000000000E+00 -0.61678333519E+02  0.61691407228E+02  0.12700000000E+01 0.  1.
         25    2    1    2    0    0  0.00000000000E+00  0.00000000000E+00  0.16285486842E+01  0.12501102689E+03  0.12500041869E+03 0.  0.
    9000005    1    3    3    0    0  0.37223118695E+02  0.37314994845E+02  0.34392512969E+02  0.62942945228E+02  0.10000000000E+01 0.  0.
    9000005    1    3    3    0    0 -0.37223118695E+02 -0.37314994845E+02 -0.32763964284E+02  0.62068081663E+02  0.10000000000E+01 0.  0.
<mgrwt>
<rscale>  0 0.12500042E+03</rscale>
<asrwt>0</asrwt>
<pdfrwt beam="1">  1        4 0.97415058E-02 0.12500042E+03</pdfrwt>
<pdfrwt beam="2">  1       -4 0.94909598E-02 0.12500042E+03</pdfrwt>
<totfact> 0.10452524E+04</totfact>
</mgrwt>
</event>
<event>
 5    1  0.3273105E-002  0.1250566E+03  0.7818608E-02  0.1234981E+00
         -4   -1    0    0    0  501 -0.00000000000E+00  0.00000000000E+00  0.24105604096E+01  0.27246470392E+01  0.12700000000E+01 0.  1.
          4   -1    0    0  501    0  0.00000000000E+00 -0.00000000000E+00 -0.15224246686E+04  0.15224251983E+04  0.12700000000E+01 0.  1.
         25    2    1    2    0    0  0.00000000000E+00  0.00000000000E+00 -0.15200141082E+04  0.15251498453E+04  0.12505663390E+03 0.  0.
    9000005    1    3    3    0    0 -0.28419979244E+02 -0.46844715873E+02 -0.39278405322E+03  0.39658849591E+03  0.10000000000E+01 0.  0.
    9000005    1    3    3    0    0  0.28419979244E+02  0.46844715873E+02 -0.11272300550E+04  0.11285613494E+04  0.10000000000E+01 0.  0.
<mgrwt>
<rscale>  0 0.12505663E+03</rscale>
<asrwt>0</asrwt>
<pdfrwt beam="2">  1        4 0.23424266E+00 0.12505663E+03</pdfrwt>
<pdfrwt beam="1">  1       -4 0.39505792E-03 0.12505663E+03</pdfrwt>
<totfact> 0.17419791E+03</totfact>
</mgrwt>
</event>
<event>
 5    1  0.3273105E-002  0.1249960E+03  0.7818608E-02  0.1235075E+00
          4   -1    0    0  501    0  0.00000000000E+00  0.00000000000E+00  0.16146510796E+02  0.16196379561E+02  0.12700000000E+01 0.  1.
         -4   -1    0    0    0  501 -0.00000000000E+00 -0.00000000000E+00 -0.24148542794E+03  0.24148876746E+03  0.12700000000E+01 0.  1.
         25    2    1    2    0    0  0.00000000000E+00  0.00000000000E+00 -0.22533891715E+03  0.25768514702E+03  0.12499602959E+03 0.  0.
    9000005    1    3    3    0    0 -0.78129766856E+01 -0.31452254712E+02 -0.25219848333E+01  0.32521490413E+02  0.10000000000E+01 0.  0.
    9000005    1    3    3    0    0  0.78129766856E+01  0.31452254712E+02 -0.22281693231E+03  0.22516365661E+03  0.10000000000E+01 0.  0.
<mgrwt>
<rscale>  0 0.12499603E+03</rscale>
<asrwt>0</asrwt>
<pdfrwt beam="1">  1        4 0.24881717E-02 0.12499603E+03</pdfrwt>
<pdfrwt beam="2">  1       -4 0.37155695E-01 0.12499603E+03</pdfrwt>
<totfact> 0.81239201E+03</totfact>
</mgrwt>
</event>
<event>
 5    1  0.3273105E-002  0.1249993E+03  0.7818608E-02  0.1235070E+00
          4   -1    0    0  501    0  0.00000000000E+00  0.00000000000E+00  0.35163171905E+03  0.35163401250E+03  0.12700000000E+01 0.  1.
         -4   -1    0    0    0  501 -0.00000000000E+00 -0.00000000000E+00 -0.11070172582E+02  0.11142783359E+02  0.12700000000E+01 0.  1.
         25    2    1    2    0    0  0.00000000000E+00  0.00000000000E+00  0.34056154647E+03  0.36277679586E+03  0.12499934670E+03 0.  0.
    9000005    1    3    3    0    0 -0.29682379751E+02  0.17526873779E+02  0.32155833442E+03  0.32340222233E+03  0.10000000000E+01 0.  0.
    9000005    1    3    3    0    0  0.29682379751E+02 -0.17526873779E+02  0.19003212052E+02  0.39374573527E+02  0.10000000000E+01 0.  0.
<mgrwt>
<rscale>  0 0.12499935E+03</rscale>
<asrwt>0</asrwt>
<pdfrwt beam="1">  1        4 0.54102954E-01 0.12499935E+03</pdfrwt>
<pdfrwt beam="2">  1       -4 0.17088652E-02 0.12499935E+03</pdfrwt>
<totfact> 0.68342433E+03</totfact>
</mgrwt>
</event>
<event>
 5    1  0.3273105E-002  0.1249920E+03  0.7818608E-02  0.1235082E+00
         -4   -1    0    0    0  501 -0.00000000000E+00  0.00000000000E+00  0.25854809705E+03  0.25855121618E+03  0.12700000000E+01 0. -1.
          4   -1    0    0  501    0  0.00000000000E+00 -0.00000000000E+00 -0.15076553944E+02  0.15129949730E+02  0.12700000000E+01 0. -1.
         25    2    1    2    0    0  0.00000000000E+00  0.00000000000E+00  0.24347154311E+03  0.27368116591E+03  0.12499195283E+03 0.  0.
    9000005    1    3    3    0    0  0.54421764936E+02 -0.99178046480E+01  0.18537174936E+03  0.19345225977E+03  0.10000000000E+01 0.  0.
    9000005    1    3    3    0    0 -0.54421764936E+02  0.99178046480E+01  0.58099793748E+02  0.80228906146E+02  0.10000000000E+01 0.  0.
<mgrwt>
<rscale>  0 0.12499195E+03</rscale>
<asrwt>0</asrwt>
<pdfrwt beam="2">  1        4 0.23238172E-02 0.12499195E+03</pdfrwt>
<pdfrwt beam="1">  1       -4 0.39780976E-01 0.12499195E+03</pdfrwt>
<totfact> 0.79037609E+03</totfact>
</mgrwt>
</event>
<event>
 5    1  0.3273105E-002  0.1250030E+03  0.7818608E-02  0.1235065E+00
          4   -1    0    0  501    0  0.00000000000E+00  0.00000000000E+00  0.37461000075E+02  0.37482521615E+02  0.12700000000E+01 0.  1.
         -4   -1    0    0    0  501 -0.00000000000E+00 -0.00000000000E+00 -0.10422485846E+03  0.10423259577E+03  0.12700000000E+01 0.  1.
         25    2    1    2    0    0  0.00000000000E+00  0.00000000000E+00 -0.66763858384E+02  0.14171511738E+03  0.12500304680E+03 0.  0.
    9000005    1    3    3    0    0  0.52090594030E+02  0.26986842919E+02 -0.57795080743E+02  0.82358915942E+02  0.10000000000E+01 0.  0.
    9000005    1    3    3    0    0 -0.52090594030E+02 -0.26986842919E+02 -0.89687776408E+01  0.59356201441E+02  0.10000000000E+01 0.  0.
<mgrwt>
<rscale>  0 0.12500305E+03</rscale>
<asrwt>0</asrwt>
<pdfrwt beam="1">  1        4 0.57654815E-02 0.12500305E+03</pdfrwt>
<pdfrwt beam="2">  1       -4 0.16036844E-01 0.12500305E+03</pdfrwt>
<totfact> 0.10097469E+04</totfact>
</mgrwt>
</event>
<event>
 5    1  0.3273105E-002  0.1249999E+03  0.7818608E-02  0.1235069E+00
          4   -1    0    0  501    0  0.00000000000E+00  0.00000000000E+00  0.75962895184E+01  0.77017215249E+01  0.12700000000E+01 0.  1.
         -4   -1    0    0    0  501 -0.00000000000E+00 -0.00000000000E+00 -0.51057994970E+03  0.51058152918E+03  0.12700000000E+01 0.  1.
         25    2    1    2    0    0  0.00000000000E+00  0.00000000000E+00 -0.50298366018E+03  0.51828325070E+03  0.12499986219E+03 0.  0.
    9000005    1    3    3    0    0 -0.40894655138E+02  0.45343017787E+02 -0.19634809838E+03  0.20562572266E+03  0.10000000000E+01 0.  0.
    9000005    1    3    3    0    0  0.40894655138E+02 -0.45343017787E+02 -0.30663556180E+03  0.31265752805E+03  0.10000000000E+01 0.  0.
<mgrwt>
<rscale>  0 0.12499986E+03</rscale>
<asrwt>0</asrwt>
<pdfrwt beam="1">  1        4 0.11768920E-02 0.12499986E+03</pdfrwt>
<pdfrwt beam="2">  1       -4 0.78558967E-01 0.12499986E+03</pdfrwt>
<totfact> 0.54473377E+03</totfact>
</mgrwt>
</event>
<event>
 5    1  0.3273105E-002  0.1249990E+03  0.7818608E-02  0.1235071E+00
         -4   -1    0    0    0  501 -0.00000000000E+00  0.00000000000E+00  0.71195458712E+02  0.71206785078E+02  0.12700000000E+01 0.  1.
          4   -1    0    0  501    0  0.00000000000E+00 -0.00000000000E+00 -0.54842655158E+02  0.54857357982E+02  0.12700000000E+01 0.  1.
         25    2    1    2    0    0  0.00000000000E+00  0.00000000000E+00  0.16352803553E+02  0.12606414306E+03  0.12499901592E+03 0.  0.
    9000005    1    3    3    0    0 -0.47135582041E+02 -0.38511713779E+02 -0.60959819015E+01  0.61180684761E+02  0.10000000000E+01 0.  0.
    9000005    1    3    3    0    0  0.47135582041E+02  0.38511713779E+02  0.22448785455E+02  0.64883458299E+02  0.10000000000E+01 0.  0.
<mgrwt>
<rscale>  0 0.12499902E+03</rscale>
<asrwt>0</asrwt>
<pdfrwt beam="2">  1        4 0.84393338E-02 0.12499902E+03</pdfrwt>
<pdfrwt beam="1">  1       -4 0.10955150E-01 0.12499902E+03</pdfrwt>
<totfact> 0.10429783E+04</totfact>
</mgrwt>
</event>
<event>
 5    1  0.3273105E-002  0.1250019E+03  0.7818608E-02  0.1235066E+00
          4   -1    0    0  501    0  0.00000000000E+00  0.00000000000E+00  0.97186734923E+02  0.97195032512E+02  0.12700000000E+01 0. -1.
         -4   -1    0    0    0  501 -0.00000000000E+00 -0.00000000000E+00 -0.40174392539E+02  0.40194461258E+02  0.12700000000E+01 0. -1.
         25    2    1    2    0    0  0.00000000000E+00  0.00000000000E+00  0.57012342384E+02  0.13738949377E+03  0.12500186324E+03 0.  0.
    9000005    1    3    3    0    0  0.49689007953E+02 -0.27463247762E+02  0.57212223086E+02  0.80606860498E+02  0.10000000000E+01 0.  0.
    9000005    1    3    3    0    0 -0.49689007953E+02  0.27463247762E+02 -0.19988070148E+00  0.56782633272E+02  0.10000000000E+01 0.  0.
<mgrwt>
<rscale>  0 0.12500186E+03</rscale>
<asrwt>0</asrwt>
<pdfrwt beam="1">  1        4 0.14953987E-01 0.12500186E+03</pdfrwt>
<pdfrwt beam="2">  1       -4 0.61828579E-02 0.12500186E+03</pdfrwt>
<totfact> 0.10187520E+04</totfact>
</mgrwt>
</event>
<event>
 5    1  0.3273105E-002  0.1250049E+03  0.7818608E-02  0.1235062E+00
          4   -1    0    0  501    0  0.00000000000E+00  0.00000000000E+00  0.16646448785E+03  0.16646933235E+03  0.12700000000E+01 0. -1.
         -4   -1    0    0    0  501 -0.00000000000E+00 -0.00000000000E+00 -0.23445443698E+02  0.23479815378E+02  0.12700000000E+01 0. -1.
         25    2    1    2    0    0  0.00000000000E+00  0.00000000000E+00  0.14301904415E+03  0.18994914773E+03  0.12500492684E+03 0.  0.
    9000005    1    3    3    0    0 -0.42558421620E+02  0.99882235286E+00  0.19862485798E+01  0.42628184107E+02  0.10000000000E+01 0.  0.
    9000005    1    3    3    0    0  0.42558421620E+02 -0.99882235286E+00  0.14103279557E+03  0.14732096362E+03  0.10000000000E+01 0.  0.
<mgrwt>
<rscale>  0 0.12500493E+03</rscale>
<asrwt>0</asrwt>
<pdfrwt beam="1">  1        4 0.25612939E-01 0.12500493E+03</pdfrwt>
<pdfrwt beam="2">  1       -4 0.36100078E-02 0.12500493E+03</pdfrwt>
<totfact> 0.91846025E+03</totfact>
</mgrwt>
</event>
<event>
 5    1  0.3273105E-002  0.1250012E+03  0.7818608E-02  0.1235067E+00
          4   -1    0    0  501    0  0.00000000000E+00  0.00000000000E+00  0.46959890378E+01  0.48646904366E+01  0.12700000000E+01 0.  1.
         -4   -1    0    0    0  501 -0.00000000000E+00 -0.00000000000E+00 -0.81699574441E+03  0.81699673150E+03  0.12700000000E+01 0.  1.
         25    2    1    2    0    0  0.00000000000E+00  0.00000000000E+00 -0.81229975537E+03  0.82186142193E+03  0.12500121716E+03 0.  0.
    9000005    1    3    3    0    0 -0.55950638621E+02  0.22052052251E+02 -0.51783665059E+03  0.52131810219E+03  0.10000000000E+01 0.  0.
    9000005    1    3    3    0    0  0.55950638621E+02 -0.22052052251E+02 -0.29446310478E+03  0.30054331975E+03  0.10000000000E+01 0.  0.
<mgrwt>
<rscale>  0 0.12500122E+03</rscale>
<asrwt>0</asrwt>
<pdfrwt beam="1">  1        4 0.73551346E-03 0.12500122E+03</pdfrwt>
<pdfrwt beam="2">  1       -4 0.12570459E+00 0.12500122E+03</pdfrwt>
<totfact> 0.37306250E+03</totfact>
</mgrwt>
</event>
<event>
 5    1  0.3273105E-002  0.1250004E+03  0.7818608E-02  0.1235069E+00
          4   -1    0    0  501    0  0.00000000000E+00  0.00000000000E+00  0.99050098227E+01  0.99860963137E+01  0.12700000000E+01 0. -1.
         -4   -1    0    0    0  501 -0.00000000000E+00 -0.00000000000E+00 -0.39268377791E+03  0.39268583160E+03  0.12700000000E+01 0. -1.
         25    2    1    2    0    0  0.00000000000E+00  0.00000000000E+00 -0.38277876809E+03  0.40267192791E+03  0.12500038490E+03 0.  0.
    9000005    1    3    3    0    0 -0.16228178373E+02 -0.12303041060E+01  0.29742239574E+01  0.16574481278E+02  0.10000000000E+01 0.  0.
    9000005    1    3    3    0    0  0.16228178373E+02  0.12303041060E+01 -0.38575299205E+03  0.38609744663E+03  0.10000000000E+01 0.  0.
<mgrwt>
<rscale>  0 0.12500038E+03</rscale>
<asrwt>0</asrwt>
<pdfrwt beam="1">  1        4 0.15302434E-02 0.12500038E+03</pdfrwt>
<pdfrwt beam="2">  1       -4 0.60419272E-01 0.12500038E+03</pdfrwt>
<totfact> 0.64293207E+03</totfact>
</mgrwt>
</event>
<event>
 5    1  0.3273105E-002  0.1250002E+03  0.7818608E-02  0.1235069E+00
         -4   -1    0    0    0  501 -0.00000000000E+00  0.00000000000E+00  0.23434529755E+03  0.23434873881E+03  0.12700000000E+01 0. -1.
          4   -1    0    0  501    0  0.00000000000E+00 -0.00000000000E+00 -0.16641072159E+02  0.16689463221E+02  0.12700000000E+01 0. -1.
         25    2    1    2    0    0  0.00000000000E+00  0.00000000000E+00  0.21770422539E+03  0.25103820203E+03  0.12500019651E+03 0.  0.
    9000005    1    3    3    0    0  0.51212428387E+02 -0.32110273617E+02  0.14070000262E+03  0.15313808550E+03  0.10000000000E+01 0.  0.
    9000005    1    3    3    0    0 -0.51212428387E+02  0.32110273617E+02  0.77004222767E+02  0.97900116532E+02  0.10000000000E+01 0.  0.
<mgrwt>
<rscale>  0 0.12500020E+03</rscale>
<asrwt>0</asrwt>
<pdfrwt beam="2">  1        4 0.25641522E-02 0.12500020E+03</pdfrwt>
<pdfrwt beam="1">  1       -4 0.36057107E-01 0.12500020E+03</pdfrwt>
<totfact> 0.82180048E+03</totfact>
</mgrwt>
</event>
<event>
 5    1  0.3273105E-002  0.1250009E+03  0.7818608E-02  0.1235068E+00
         -4   -1    0    0    0  501 -0.00000000000E+00  0.00000000000E+00  0.18639633155E+02  0.18682848395E+02  0.12700000000E+01 0. -1.
          4   -1    0    0  501    0  0.00000000000E+00 -0.00000000000E+00 -0.20928215296E+03  0.20928600634E+03  0.12700000000E+01 0. -1.
         25    2    1    2    0    0  0.00000000000E+00  0.00000000000E+00 -0.19064251981E+03  0.22796885473E+03  0.12500091348E+03 0.  0.
    9000005    1    3    3    0    0 -0.13421207005E+02  0.22509121851E+02  0.81429828507E+01  0.27460836362E+02  0.10000000000E+01 0.  0.
    9000005    1    3    3    0    0  0.13421207005E+02 -0.22509121851E+02 -0.19878550266E+03  0.20050801837E+03  0.10000000000E+01 0.  0.
<mgrwt>
<rscale>  0 0.12500091E+03</rscale>
<asrwt>0</asrwt>
<pdfrwt beam="2">  1        4 0.32200873E-01 0.12500091E+03</pdfrwt>
<pdfrwt beam="1">  1       -4 0.28712567E-02 0.12500091E+03</pdfrwt>
<totfact> 0.85620715E+03</totfact>
</mgrwt>
</event>
<event>
 4    1  0.3273105E-002  0.1231404E+03  0.7818608E-02  0.1238004E+00
          4   -1    0    0  501    0  0.00000000000E+00  0.00000000000E+00  0.46097290158E+01  0.47814748352E+01  0.12700000000E+01 0. -1.
         -4   -1    0    0    0  501 -0.00000000000E+00 -0.00000000000E+00 -0.80715603307E+03  0.80715703220E+03  0.12700000000E+01 0. -1.
    9000005    1    1    2    0    0 -0.10523250436E+02 -0.21970585498E+02 -0.77405620855E+03  0.77444009415E+03  0.10000000000E+01 0.  0.
    9000005    1    1    2    0    0  0.10523250436E+02  0.21970585498E+02 -0.28490095501E+02  0.37498412880E+02  0.10000000000E+01 0.  0.
<mgrwt>
<rscale>  0 0.12314044E+03</rscale>
<asrwt>0</asrwt>
<pdfrwt beam="1">  1        4 0.72247779E-03 0.12314044E+03</pdfrwt>
<pdfrwt beam="2">  1       -4 0.12419103E+00 0.12314044E+03</pdfrwt>
<totfact> 0.39312457E+03</totfact>
</mgrwt>
</event>
<event>
 5    1  0.3273105E-002  0.1250024E+03  0.7818608E-02  0.1235066E+00
          4   -1    0    0  501    0  0.00000000000E+00  0.00000000000E+00  0.80278110169E+02  0.80288155243E+02  0.12700000000E+01 0.  1.
         -4   -1    0    0    0  501 -0.00000000000E+00 -0.00000000000E+00 -0.48639462435E+02  0.48656039768E+02  0.12700000000E+01 0.  1.
         25    2    1    2    0    0  0.00000000000E+00  0.00000000000E+00  0.31638647734E+02  0.12894419501E+03  0.12500240556E+03 0.  0.
    9000005    1    3    3    0    0  0.13745692726E+02  0.18481277878E+02  0.75745117184E+02  0.79175908443E+02  0.10000000000E+01 0.  0.
    9000005    1    3    3    0    0 -0.13745692726E+02 -0.18481277878E+02 -0.44106469450E+02  0.49768286568E+02  0.10000000000E+01 0.  0.
<mgrwt>
<rscale>  0 0.12500241E+03</rscale>
<asrwt>0</asrwt>
<pdfrwt beam="1">  1        4 0.12352526E-01 0.12500241E+03</pdfrwt>
<pdfrwt beam="2">  1       -4 0.74850421E-02 0.12500241E+03</pdfrwt>
<totfact> 0.10366583E+04</totfact>
</mgrwt>
</event>
<event>
 5    1  0.3273105E-002  0.1249996E+03  0.7818608E-02  0.1235070E+00
          4   -1    0    0  501    0  0.00000000000E+00  0.00000000000E+00  0.54763781202E+01  0.56217094655E+01  0.12700000000E+01 0.  1.
         -4   -1    0    0    0  501 -0.00000000000E+00 -0.00000000000E+00 -0.70379991933E+03  0.70380106518E+03  0.12700000000E+01 0.  1.
         25    2    1    2    0    0  0.00000000000E+00  0.00000000000E+00 -0.69832354121E+03  0.70942277464E+03  0.12499961991E+03 0.  0.
    9000005    1    3    3    0    0 -0.73880199418E+01 -0.42700568720E+02 -0.93623493490E+02  0.10317111970E+03  0.10000000000E+01 0.  0.
    9000005    1    3    3    0    0  0.73880199418E+01  0.42700568720E+02 -0.60470004772E+03  0.60625165494E+03  0.10000000000E+01 0.  0.
<mgrwt>
<rscale>  0 0.12499962E+03</rscale>
<asrwt>0</asrwt>
<pdfrwt beam="1">  1        4 0.85378774E-03 0.12499962E+03</pdfrwt>
<pdfrwt beam="2">  1       -4 0.10828811E+00 0.12499962E+03</pdfrwt>
<totfact> 0.42594306E+03</totfact>
</mgrwt>
</event>
<event>
 5    1  0.3273105E-002  0.1249994E+03  0.7818608E-02  0.1235070E+00
         -4   -1    0    0    0  501 -0.00000000000E+00  0.00000000000E+00  0.30202356361E+03  0.30202623375E+03  0.12700000000E+01 0. -1.
          4   -1    0    0  501    0  0.00000000000E+00 -0.00000000000E+00 -0.12899552640E+02  0.12961919546E+02  0.12700000000E+01 0. -1.
         25    2    1    2    0    0  0.00000000000E+00  0.00000000000E+00  0.28912401096E+03  0.31498815330E+03  0.12499937200E+03 0.  0.
    9000005    1    3    3    0    0  0.34068999841E+02 -0.49977339021E+02  0.10497606173E+03  0.12115859318E+03  0.10000000000E+01 0.  0.
    9000005    1    3    3    0    0 -0.34068999841E+02  0.49977339021E+02  0.18414794924E+03  0.19382956011E+03  0.10000000000E+01 0.  0.
<mgrwt>
<rscale>  0 0.12499937E+03</rscale>
<asrwt>0</asrwt>
<pdfrwt beam="2">  1        4 0.19895495E-02 0.12499937E+03</pdfrwt>
<pdfrwt beam="1">  1       -4 0.46470165E-01 0.12499937E+03</pdfrwt>
<totfact> 0.73757236E+03</totfact>
</mgrwt>
</event>
<event>
 5    1  0.3273105E-002  0.1250016E+03  0.7818608E-02  0.1235067E+00
          4   -1    0    0  501    0  0.00000000000E+00  0.00000000000E+00  0.88371863185E+01  0.89279763681E+01  0.12700000000E+01 0. -1.
         -4   -1    0    0    0  501 -0.00000000000E+00 -0.00000000000E+00 -0.43968472734E+03  0.43968656150E+03  0.12700000000E+01 0. -1.
         25    2    1    2    0    0  0.00000000000E+00  0.00000000000E+00 -0.43084754103E+03  0.44861453786E+03  0.12500159989E+03 0.  0.
    9000005    1    3    3    0    0 -0.79611290767E+01  0.61981958425E+02 -0.21705758275E+03  0.22587637542E+03  0.10000000000E+01 0.  0.
    9000005    1    3    3    0    0  0.79611290767E+01 -0.61981958425E+02 -0.21378995828E+03  0.22273816244E+03  0.10000000000E+01 0.  0.
<mgrwt>
<rscale>  0 0.12500160E+03</rscale>
<asrwt>0</asrwt>
<pdfrwt beam="1">  1        4 0.13666924E-02 0.12500160E+03</pdfrwt>
<pdfrwt beam="2">  1       -4 0.67650912E-01 0.12500160E+03</pdfrwt>
<totfact> 0.60081895E+03</totfact>
</mgrwt>
</event>
<event>
 5    1  0.3273105E-002  0.1250129E+03  0.7818608E-02  0.1235049E+00
         -4   -1    0    0    0  501 -0.00000000000E+00  0.00000000000E+00  0.46575702046E+03  0.46575875194E+03  0.12700000000E+01 0.  1.
          4   -1    0    0  501    0  0.00000000000E+00 -0.00000000000E+00 -0.83387958132E+01  0.84349520220E+01  0.12700000000E+01 0.  1.
         25    2    1    2    0    0  0.00000000000E+00  0.00000000000E+00  0.45741822465E+03  0.47419370397E+03  0.12501294588E+03 0.  0.
    9000005    1    3    3    0    0  0.42578629348E+02  0.44135761046E+02  0.27440902988E+03  0.28118005043E+03  0.10000000000E+01 0.  0.
    9000005    1    3    3    0    0 -0.42578629348E+02 -0.44135761046E+02  0.18300919477E+03  0.19301365353E+03  0.10000000000E+01 0.  0.
<mgrwt>
<rscale>  0 0.12501295E+03</rscale>
<asrwt>0</asrwt>
<pdfrwt beam="2">  1        4 0.12904211E-02 0.12501295E+03</pdfrwt>
<pdfrwt beam="1">  1       -4 0.71662480E-01 0.12501295E+03</pdfrwt>
<totfact> 0.57907212E+03</totfact>
</mgrwt>
</event>
<event>
 5    1  0.3273105E-002  0.1250075E+03  0.7818608E-02  0.1235058E+00
         -4   -1    0    0    0  501 -0.00000000000E+00  0.00000000000E+00  0.19335583367E+01  0.23133412721E+01  0.12700000000E+01 0. -1.
          4   -1    0    0  501    0  0.00000000000E+00 -0.00000000000E+00 -0.18394185246E+04  0.18394189630E+04  0.12700000000E+01 0. -1.
         25    2    1    2    0    0  0.00000000000E+00  0.00000000000E+00 -0.18374849663E+04  0.18417323043E+04  0.12500751759E+03 0.  0.
    9000005    1    3    3    0    0 -0.20409955665E+02 -0.48989347127E+02 -0.43251032231E+03  0.43575532278E+03  0.10000000000E+01 0.  0.
    9000005    1    3    3    0    0  0.20409955665E+02  0.48989347127E+02 -0.14049746439E+04  0.14059769815E+04  0.10000000000E+01 0.  0.
<mgrwt>
<rscale>  0 0.12500752E+03</rscale>
<asrwt>0</asrwt>
<pdfrwt beam="2">  1        4 0.28301544E+00 0.12500752E+03</pdfrwt>
<pdfrwt beam="1">  1       -4 0.32671978E-03 0.12500752E+03</pdfrwt>
<totfact> 0.12069576E+03</totfact>
</mgrwt>
</event>
<event>
 5    1  0.3273105E-002  0.1250093E+03  0.7818608E-02  0.1235055E+00
         -4   -1    0    0    0  501 -0.00000000000E+00  0.00000000000E+00  0.50834740320E+03  0.50834898961E+03  0.12700000000E+01 0. -1.
          4   -1    0    0  501    0  0.00000000000E+00 -0.00000000000E+00 -0.76312818655E+01  0.77362369994E+01  0.12700000000E+01 0. -1.
         25    2    1    2    0    0  0.00000000000E+00  0.00000000000E+00  0.50071612133E+03  0.51608522661E+03  0.12500930750E+03 0.  0.
    9000005    1    3    3    0    0 -0.11007344208E+02  0.60578903152E+02  0.29460426028E+03  0.30097115362E+03  0.10000000000E+01 0.  0.
    9000005    1    3    3    0    0  0.11007344208E+02 -0.60578903152E+02  0.20611186105E+03  0.21511407299E+03  0.10000000000E+01 0.  0.
<mgrwt>
<rscale>  0 0.12500931E+03</rscale>
<asrwt>0</asrwt>
<pdfrwt beam="2">  1        4 0.11822387E-02 0.12500931E+03</pdfrwt>
<pdfrwt beam="1">  1       -4 0.78215500E-01 0.12500931E+03</pdfrwt>
<totfact> 0.54626416E+03</totfact>
</mgrwt>
</event>
<event>
 5    1  0.3273105E-002  0.1249987E+03  0.7818608E-02  0.1235071E+00
          4   -1    0    0  501    0  0.00000000000E+00  0.00000000000E+00  0.11004295633E+02  0.11077338235E+02  0.12700000000E+01 0.  1.
         -4   -1    0    0    0  501 -0.00000000000E+00 -0.00000000000E+00 -0.35371906746E+03  0.35372134737E+03  0.12700000000E+01 0.  1.
         25    2    1    2    0    0  0.00000000000E+00  0.00000000000E+00 -0.34271477182E+03  0.36479868560E+03  0.12499866475E+03 0.  0.
    9000005    1    3    3    0    0 -0.36382794044E+02 -0.36041802615E+02 -0.66845025510E+02  0.84213874591E+02  0.10000000000E+01 0.  0.
    9000005    1    3    3    0    0  0.36382794044E+02  0.36041802615E+02 -0.27586974631E+03  0.28058481101E+03  0.10000000000E+01 0.  0.
<mgrwt>
<rscale>  0 0.12499866E+03</rscale>
<asrwt>0</asrwt>
<pdfrwt beam="1">  1        4 0.16987629E-02 0.12499866E+03</pdfrwt>
<pdfrwt beam="2">  1       -4 0.54424103E-01 0.12499866E+03</pdfrwt>
<totfact> 0.68128641E+03</totfact>
</mgrwt>
</event>
<event>
 5    1  0.3273105E-002  0.1250021E+03  0.7818608E-02  0.1235066E+00
          4   -1    0    0  501    0  0.00000000000E+00  0.00000000000E+00  0.10887146721E+03  0.10887887432E+03  0.12700000000E+01 0.  1.
         -4   -1    0    0    0  501 -0.00000000000E+00 -0.00000000000E+00 -0.35860783903E+02  0.35883265210E+02  0.12700000000E+01 0.  1.
         25    2    1    2    0    0  0.00000000000E+00  0.00000000000E+00  0.73010683311E+02  0.14476213953E+03  0.12500206864E+03 0.  0.
    9000005    1    3    3    0    0 -0.38771779096E+02  0.28140417608E+02  0.82976534222E+02  0.95818783069E+02  0.10000000000E+01 0.  0.
    9000005    1    3    3    0    0  0.38771779096E+02 -0.28140417608E+02 -0.99658509109E+01  0.48943356462E+02  0.10000000000E+01 0.  0.
<mgrwt>
<rscale>  0 0.12500207E+03</rscale>
<asrwt>0</asrwt>
<pdfrwt beam="1">  1        4 0.16751755E-01 0.12500207E+03</pdfrwt>
<pdfrwt beam="2">  1       -4 0.55193428E-02 0.12500207E+03</pdfrwt>
<totfact> 0.10035356E+04</totfact>
</mgrwt>
</event>
<event>
 5    1  0.3273105E-002  0.1250034E+03  0.7818608E-02  0.1235064E+00
         -4   -1    0    0    0  501 -0.00000000000E+00  0.00000000000E+00  0.11423164142E+02  0.11493545102E+02  0.12700000000E+01 0.  1.
          4   -1    0    0  501    0  0.00000000000E+00 -0.00000000000E+00 -0.34085523366E+03  0.34085759962E+03  0.12700000000E+01 0.  1.
         25    2    1    2    0    0  0.00000000000E+00  0.00000000000E+00 -0.32943206952E+03  0.35235114472E+03  0.12500336297E+03 0.  0.
    9000005    1    3    3    0    0 -0.50259659096E+02 -0.36253631053E+02 -0.14197301517E+03  0.15491189797E+03  0.10000000000E+01 0.  0.
    9000005    1    3    3    0    0  0.50259659096E+02  0.36253631053E+02 -0.18745905435E+03  0.19743924675E+03  0.10000000000E+01 0.  0.
<mgrwt>
<rscale>  0 0.12500336E+03</rscale>
<asrwt>0</asrwt>
<pdfrwt beam="2">  1        4 0.52444855E-01 0.12500336E+03</pdfrwt>
<pdfrwt beam="1">  1       -4 0.17630060E-02 0.12500336E+03</pdfrwt>
<totfact> 0.69461508E+03</totfact>
</mgrwt>
</event>
<event>
 5    1  0.3273105E-002  0.1249941E+03  0.7818608E-02  0.1235079E+00
          4   -1    0    0  501    0  0.00000000000E+00  0.00000000000E+00  0.27869157208E+04  0.27869160101E+04  0.12700000000E+01 0. -1.
         -4   -1    0    0    0  501 -0.00000000000E+00 -0.00000000000E+00 -0.11134490099E+01  0.16889845167E+01  0.12700000000E+01 0. -1.
         25    2    1    2    0    0  0.00000000000E+00  0.00000000000E+00  0.27858022717E+04  0.27886049946E+04  0.12499407538E+03 0.  0.
    9000005    1    3    3    0    0 -0.30803012907E+02 -0.36288282791E+02  0.22961667668E+04  0.22966602897E+04  0.10000000000E+01 0.  0.
    9000005    1    3    3    0    0  0.30803012907E+02  0.36288282791E+02  0.48963550491E+03  0.49194470496E+03  0.10000000000E+01 0.  0.
<mgrwt>
<rscale>  0 0.12499408E+03</rscale>
<asrwt>0</asrwt>
<pdfrwt beam="1">  1        4 0.42880173E+00 0.12499408E+03</pdfrwt>
<pdfrwt beam="2">  1       -4 0.21559348E-03 0.12499408E+03</pdfrwt>
<totfact> 0.27782716E+02</totfact>
</mgrwt>
</event>
<event>
 5    1  0.3273105E-002  0.1249996E+03  0.7818608E-02  0.1235070E+00
         -4   -1    0    0    0  501 -0.00000000000E+00  0.00000000000E+00  0.77755607483E+03  0.77755711199E+03  0.12700000000E+01 0.  1.
          4   -1    0    0  501    0  0.00000000000E+00 -0.00000000000E+00 -0.49423995870E+01  0.51029612655E+01  0.12700000000E+01 0.  1.
         25    2    1    2    0    0  0.00000000000E+00  0.00000000000E+00  0.77261367525E+03  0.78266007326E+03  0.12499959638E+03 0.  0.
    9000005    1    3    3    0    0  0.85789242264E+01  0.29367897194E+02  0.45128939060E+02  0.54531573122E+02  0.10000000000E+01 0.  0.
    9000005    1    3    3    0    0 -0.85789242264E+01 -0.29367897194E+02  0.72748473619E+03  0.72812850014E+03  0.10000000000E+01 0.  0.
<mgrwt>
<rscale>  0 0.12499960E+03</rscale>
<asrwt>0</asrwt>
<pdfrwt beam="2">  1        4 0.77279962E-03 0.12499960E+03</pdfrwt>
<pdfrwt beam="1">  1       -4 0.11963648E+00 0.12499960E+03</pdfrwt>
<totfact> 0.39050978E+03</totfact>
</mgrwt>
</event>
<event>
 5    1  0.3273105E-002  0.1250179E+03  0.7818608E-02  0.1235041E+00
         -4   -1    0    0    0  501 -0.00000000000E+00  0.00000000000E+00  0.10875196036E+03  0.10875937561E+03  0.12700000000E+01 0. -1.
          4   -1    0    0  501    0  0.00000000000E+00 -0.00000000000E+00 -0.35909314783E+02  0.35931765726E+02  0.12700000000E+01 0. -1.
         25    2    1    2    0    0  0.00000000000E+00  0.00000000000E+00  0.72842645577E+02  0.14469114133E+03  0.12501790018E+03 0.  0.
    9000005    1    3    3    0    0 -0.27762710268E+02  0.54640187754E+02  0.50598464199E+02  0.79482845813E+02  0.10000000000E+01 0.  0.
    9000005    1    3    3    0    0  0.27762710268E+02 -0.54640187754E+02  0.22244181378E+02  0.65208295518E+02  0.10000000000E+01 0.  0.
<mgrwt>
<rscale>  0 0.12501790E+03</rscale>
<asrwt>0</asrwt>
<pdfrwt beam="2">  1        4 0.55268074E-02 0.12501790E+03</pdfrwt>
<pdfrwt beam="1">  1       -4 0.16733368E-01 0.12501790E+03</pdfrwt>
<totfact> 0.10033223E+04</totfact>
</mgrwt>
</event>
<event>
 5    1  0.3273105E-002  0.1249999E+03  0.7818608E-02  0.1235069E+00
         -4   -1    0    0    0  501 -0.00000000000E+00  0.00000000000E+00  0.12628089175E+03  0.12628727774E+03  0.12700000000E+01 0. -1.
          4   -1    0    0  501    0  0.00000000000E+00 -0.00000000000E+00 -0.30912762357E+02  0.30938839289E+02  0.12700000000E+01 0. -1.
         25    2    1    2    0    0  0.00000000000E+00  0.00000000000E+00  0.95368129388E+02  0.15722611703E+03  0.12499988710E+03 0.  0.
    9000005    1    3    3    0    0  0.52609042366E+02 -0.19597071043E+02  0.82210582574E+02  0.99555695062E+02  0.10000000000E+01 0.  0.
    9000005    1    3    3    0    0 -0.52609042366E+02  0.19597071043E+02  0.13157546814E+02  0.57670421971E+02  0.10000000000E+01 0.  0.
<mgrwt>
<rscale>  0 0.12499989E+03</rscale>
<asrwt>0</asrwt>
<pdfrwt beam="2">  1        4 0.47583067E-02 0.12499989E+03</pdfrwt>
<pdfrwt beam="1">  1       -4 0.19430327E-01 0.12499989E+03</pdfrwt>
<totfact> 0.97880497E+03</totfact>
</mgrwt>
</event>
<event>
 5    1  0.3273105E-002  0.1250002E+03  0.7818608E-02  0.1235069E+00
          4   -1    0    0  501    0  0.00000000000E+00  0.00000000000E+00  0.62675564472E+02  0.62688430208E+02  0.12700000000E+01 0.  1.
         -4   -1    0    0    0  501 -0.00000000000E+00 -0.00000000000E+00 -0.62299438523E+02  0.62312381918E+02  0.12700000000E+01 0.  1.
         25    2    1    2    0    0  0.00000000000E+00  0.00000000000E+00  0.37612594931E+00  0.12500081213E+03  0.12500024624E+03 0.  0.
    9000005    1    3    3    0    0  0.37256878719E+02 -0.22994344075E+02 -0.44404184363E+02  0.62366228523E+02  0.10000000000E+01 0.  0.
    9000005    1    3    3    0    0 -0.37256878719E+02  0.22994344075E+02  0.44780310312E+02  0.62634583602E+02  0.10000000000E+01 0.  0.
<mgrwt>
<rscale>  0 0.12500025E+03</rscale>
<asrwt>0</asrwt>
<pdfrwt beam="1">  1        4 0.96443799E-02 0.12500025E+03</pdfrwt>
<pdfrwt beam="2">  1       -4 0.95865143E-02 0.12500025E+03</pdfrwt>
<totfact> 0.10452787E+04</totfact>
</mgrwt>
</event>
<event>
 5    1  0.3273105E-002  0.1249994E+03  0.7818608E-02  0.1235070E+00
          4   -1    0    0  501    0  0.00000000000E+00  0.00000000000E+00  0.17470998707E+02  0.17517097243E+02  0.12700000000E+01 0.  1.
         -4   -1    0    0    0  501 -0.00000000000E+00 -0.00000000000E+00 -0.22324033987E+03  0.22324395231E+03  0.12700000000E+01 0.  1.
         25    2    1    2    0    0  0.00000000000E+00  0.00000000000E+00 -0.20576934116E+03  0.24076104956E+03  0.12499944489E+03 0.  0.
    9000005    1    3    3    0    0  0.35922178497E+02 -0.27519932292E+02 -0.18589622529E+03  0.19132735340E+03  0.10000000000E+01 0.  0.
    9000005    1    3    3    0    0 -0.35922178497E+02  0.27519932292E+02 -0.19873115869E+02  0.49433696156E+02  0.10000000000E+01 0.  0.
<mgrwt>
<rscale>  0 0.12499944E+03</rscale>
<asrwt>0</asrwt>
<pdfrwt beam="1">  1        4 0.26916700E-02 0.12499944E+03</pdfrwt>
<pdfrwt beam="2">  1       -4 0.34348489E-01 0.12499944E+03</pdfrwt>
<totfact> 0.83685190E+03</totfact>
</mgrwt>
</event>
<event>
 5    1  0.3273105E-002  0.1249955E+03  0.7818608E-02  0.1235076E+00
         -4   -1    0    0    0  501 -0.00000000000E+00  0.00000000000E+00  0.21869883470E+03  0.21870252216E+03  0.12700000000E+01 0. -1.
          4   -1    0    0  501    0  0.00000000000E+00 -0.00000000000E+00 -0.17833603784E+02  0.17878767405E+02  0.12700000000E+01 0. -1.
         25    2    1    2    0    0  0.00000000000E+00  0.00000000000E+00  0.20086523091E+03  0.23658128956E+03  0.12499546224E+03 0.  0.
    9000005    1    3    3    0    0 -0.57018792636E+02 -0.25552697218E+02  0.10221151607E+03  0.11980098942E+03  0.10000000000E+01 0.  0.
    9000005    1    3    3    0    0  0.57018792636E+02  0.25552697218E+02  0.98653714847E+02  0.11678030014E+03  0.10000000000E+01 0.  0.
<mgrwt>
<rscale>  0 0.12499546E+03</rscale>
<asrwt>0</asrwt>
<pdfrwt beam="2">  1        4 0.27473892E-02 0.12499546E+03</pdfrwt>
<pdfrwt beam="1">  1       -4 0.33649731E-01 0.12499546E+03</pdfrwt>
<totfact> 0.84317705E+03</totfact>
</mgrwt>
</event>
<event>
 5    1  0.3273105E-002  0.1249774E+03  0.7818608E-02  0.1235105E+00
         -4   -1    0    0    0  501 -0.00000000000E+00  0.00000000000E+00  0.51102787090E+02  0.51118565593E+02  0.12700000000E+01 0.  1.
          4   -1    0    0  501    0  0.00000000000E+00 -0.00000000000E+00 -0.76378623599E+02  0.76389181452E+02  0.12700000000E+01 0.  1.
         25    2    1    2    0    0  0.00000000000E+00  0.00000000000E+00 -0.25275836509E+02  0.12750774705E+03  0.12497742854E+03 0.  0.
    9000005    1    3    3    0    0 -0.19229605951E+02 -0.31954310673E+02  0.38506686059E+02  0.53615488311E+02  0.10000000000E+01 0.  0.
    9000005    1    3    3    0    0  0.19229605951E+02  0.31954310673E+02 -0.63782522568E+02  0.73892258734E+02  0.10000000000E+01 0.  0.
<mgrwt>
<rscale>  0 0.12497743E+03</rscale>
<asrwt>0</asrwt>
<pdfrwt beam="2">  1        4 0.11752583E-01 0.12497743E+03</pdfrwt>
<pdfrwt beam="1">  1       -4 0.78639932E-02 0.12497743E+03</pdfrwt>
<totfact> 0.10403433E+04</totfact>
</mgrwt>
</event>
<event>
 5    1  0.3273105E-002  0.1249958E+03  0.7818608E-02  0.1235076E+00
          4   -1    0    0  501    0  0.00000000000E+00  0.00000000000E+00  0.25542537495E+02  0.25574090828E+02  0.12700000000E+01 0.  1.
         -4   -1    0    0    0  501 -0.00000000000E+00 -0.00000000000E+00 -0.15279221734E+03  0.15279749533E+03  0.12700000000E+01 0.  1.
         25    2    1    2    0    0  0.00000000000E+00  0.00000000000E+00 -0.12724967984E+03  0.17837158616E+03  0.12499576684E+03 0.  0.
    9000005    1    3    3    0    0 -0.22091887966E+02 -0.32235710944E+02 -0.13321011977E+03  0.13882769386E+03  0.10000000000E+01 0.  0.
    9000005    1    3    3    0    0  0.22091887966E+02  0.32235710944E+02  0.59604399252E+01  0.39543892298E+02  0.10000000000E+01 0.  0.
<mgrwt>
<rscale>  0 0.12499577E+03</rscale>
<asrwt>0</asrwt>
<pdfrwt beam="1">  1        4 0.39324544E-02 0.12499577E+03</pdfrwt>
<pdfrwt beam="2">  1       -4 0.23509328E-01 0.12499577E+03</pdfrwt>
<totfact> 0.93919863E+03</totfact>
</mgrwt>
</event>
<event>
 5    1  0.3273105E-002  0.1250022E+03  0.7818608E-02  0.1235066E+00
         -4   -1    0    0    0  501 -0.00000000000E+00  0.00000000000E+00  0.13539228342E+03  0.13539823968E+03  0.12700000000E+01 0.  1.
          4   -1    0    0  501    0  0.00000000000E+00 -0.00000000000E+00 -0.28831804098E+02  0.28859761391E+02  0.12700000000E+01 0.  1.
         25    2    1    2    0    0  0.00000000000E+00  0.00000000000E+00  0.10656047932E+03  0.16425800107E+03  0.12500222063E+03 0.  0.
    9000005    1    3    3    0    0  0.42192208645E+01 -0.59508548020E+02  0.77734097892E+02  0.97993158369E+02  0.10000000000E+01 0.  0.
    9000005    1    3    3    0    0 -0.42192208645E+01  0.59508548020E+02  0.28826381426E+02  0.66264842702E+02  0.10000000000E+01 0.  0.
<mgrwt>
<rscale>  0 0.12500222E+03</rscale>
<asrwt>0</asrwt>
<pdfrwt beam="2">  1        4 0.44382710E-02 0.12500222E+03</pdfrwt>
<pdfrwt beam="1">  1       -4 0.20832191E-01 0.12500222E+03</pdfrwt>
<totfact> 0.96523284E+03</totfact>
</mgrwt>
</event>
<event>
 5    1  0.3273105E-002  0.1250015E+03  0.7818608E-02  0.1235067E+00
         -4   -1    0    0    0  501 -0.00000000000E+00  0.00000000000E+00  0.13457060079E+03  0.13457659342E+03  0.12700000000E+01 0.  1.
          4   -1    0    0  501    0  0.00000000000E+00 -0.00000000000E+00 -0.29007688029E+02  0.29035475970E+02  0.12700000000E+01 0.  1.
         25    2    1    2    0    0  0.00000000000E+00  0.00000000000E+00  0.10556291276E+03  0.16361206939E+03  0.12500152279E+03 0.  0.
    9000005    1    3    3    0    0  0.10976553450E+02  0.46505282525E+02  0.65582624087E-01  0.47793622267E+02  0.10000000000E+01 0.  0.
    9000005    1    3    3    0    0 -0.10976553450E+02 -0.46505282525E+02  0.10549733013E+03  0.11581844712E+03  0.10000000000E+01 0.  0.
<mgrwt>
<rscale>  0 0.12500152E+03</rscale>
<asrwt>0</asrwt>
<pdfrwt beam="2">  1        4 0.44653198E-02 0.12500152E+03</pdfrwt>
<pdfrwt beam="1">  1       -4 0.20705767E-01 0.12500152E+03</pdfrwt>
<totfact> 0.96647585E+03</totfact>
</mgrwt>
</event>
<event>
 5    1  0.3273105E-002  0.1249886E+03  0.7818608E-02  0.1235087E+00
         -4   -1    0    0    0  501 -0.00000000000E+00  0.00000000000E+00  0.15422648330E+03  0.15423171221E+03  0.12700000000E+01 0. -1.
          4   -1    0    0  501    0  0.00000000000E+00 -0.00000000000E+00 -0.25301812883E+02  0.25333666043E+02  0.12700000000E+01 0. -1.
         25    2    1    2    0    0  0.00000000000E+00  0.00000000000E+00  0.12892467042E+03  0.17956537825E+03  0.12498861718E+03 0.  0.
    9000005    1    3    3    0    0  0.22821167825E+02 -0.29324057182E+02  0.13663660725E+03  0.14160250165E+03  0.10000000000E+01 0.  0.
    9000005    1    3    3    0    0 -0.22821167825E+02  0.29324057182E+02 -0.77119368356E+01  0.37962876607E+02  0.10000000000E+01 0.  0.
<mgrwt>
<rscale>  0 0.12498862E+03</rscale>
<asrwt>0</asrwt>
<pdfrwt beam="2">  1        4 0.38954392E-02 0.12498862E+03</pdfrwt>
<pdfrwt beam="1">  1       -4 0.23730003E-01 0.12498862E+03</pdfrwt>
<totfact> 0.93719214E+03</totfact>
</mgrwt>
</event>
<event>
 5    1  0.3273105E-002  0.1249909E+03  0.7818608E-02  0.1235084E+00
         -4   -1    0    0    0  501 -0.00000000000E+00  0.00000000000E+00  0.31434377117E+03  0.31434633666E+03  0.12700000000E+01 0.  1.
          4   -1    0    0  501    0  0.00000000000E+00 -0.00000000000E+00 -0.12389796428E+02  0.12454716196E+02  0.12700000000E+01 0.  1.
         25    2    1    2    0    0  0.00000000000E+00  0.00000000000E+00  0.30195397474E+03  0.32680105286E+03  0.12499090082E+03 0.  0.
    9000005    1    3    3    0    0  0.26531038616E+02  0.77570434732E+01  0.29750218022E+03  0.29878523218E+03  0.10000000000E+01 0.  0.
    9000005    1    3    3    0    0 -0.26531038616E+02 -0.77570434732E+01  0.44517945156E+01  0.28015820672E+02  0.10000000000E+01 0.  0.
<mgrwt>
<rscale>  0 0.12499090E+03</rscale>
<asrwt>0</asrwt>
<pdfrwt beam="2">  1        4 0.19113137E-02 0.12499090E+03</pdfrwt>
<pdfrwt beam="1">  1       -4 0.48365770E-01 0.12499090E+03</pdfrwt>
<totfact> 0.72369055E+03</totfact>
</mgrwt>
</event>
<event>
 5    1  0.3273105E-002  0.1249991E+03  0.7818608E-02  0.1235071E+00
         -4   -1    0    0    0  501 -0.00000000000E+00  0.00000000000E+00  0.80263077170E+02  0.80273124125E+02  0.12700000000E+01 0. -1.
          4   -1    0    0  501    0  0.00000000000E+00 -0.00000000000E+00 -0.48646010843E+02  0.48662585945E+02  0.12700000000E+01 0. -1.
         25    2    1    2    0    0  0.00000000000E+00  0.00000000000E+00  0.31617066327E+02  0.12893571007E+03  0.12499911379E+03 0.  0.
    9000005    1    3    3    0    0 -0.61539905502E+02 -0.47861111901E+01  0.25869042511E+02  0.66934850340E+02  0.10000000000E+01 0.  0.
    9000005    1    3    3    0    0  0.61539905502E+02  0.47861111901E+01  0.57480238159E+01  0.62000859731E+02  0.10000000000E+01 0.  0.
<mgrwt>
<rscale>  0 0.12499911E+03</rscale>
<asrwt>0</asrwt>
<pdfrwt beam="2">  1        4 0.74860496E-02 0.12499911E+03</pdfrwt>
<pdfrwt beam="1">  1       -4 0.12350213E-01 0.12499911E+03</pdfrwt>
<totfact> 0.10367536E+04</totfact>
</mgrwt>
</event>
<event>
 5    1  0.3273105E-002  0.1249991E+03  0.7818608E-02  0.1235071E+00
          4   -1    0    0  501    0  0.00000000000E+00  0.00000000000E+00  0.44723775764E+02  0.44741803927E+02  0.12700000000E+01 0.  1.
         -4   -1    0    0    0  501 -0.00000000000E+00 -0.00000000000E+00 -0.87300200456E+02  0.87309437632E+02  0.12700000000E+01 0.  1.
         25    2    1    2    0    0  0.00000000000E+00  0.00000000000E+00 -0.42576424692E+02  0.13205124156E+03  0.12499911383E+03 0.  0.
    9000005    1    3    3    0    0  0.13017205029E+02 -0.25443725973E+02 -0.79996549693E+02  0.84954568923E+02  0.10000000000E+01 0.  0.
    9000005    1    3    3    0    0 -0.13017205029E+02  0.25443725973E+02  0.37420125002E+02  0.47096672635E+02  0.10000000000E+01 0.  0.
<mgrwt>
<rscale>  0 0.12499911E+03</rscale>
<asrwt>0</asrwt>
<pdfrwt beam="1">  1        4 0.68826782E-02 0.12499911E+03</pdfrwt>
<pdfrwt beam="2">  1       -4 0.13432897E-01 0.12499911E+03</pdfrwt>
<totfact> 0.10300811E+04</totfact>
</mgrwt>
</event>
<event>
 5    1  0.3273105E-002  0.1249969E+03  0.7818608E-02  0.1235074E+00
         -4   -1    0    0    0  501 -0.00000000000E+00  0.00000000000E+00  0.84301007038E+01  0.85252271452E+01  0.12700000000E+01 0.  1.
          4   -1    0    0  501    0  0.00000000000E+00 -0.00000000000E+00 -0.46065049527E+03  0.46065224594E+03  0.12700000000E+01 0.  1.
         25    2    1    2    0    0  0.00000000000E+00  0.00000000000E+00 -0.45222039457E+03  0.46917747309E+03  0.12499686393E+03 0.  0.
    9000005    1    3    3    0    0  0.52955753223E+02 -0.33177316068E+02 -0.22644375469E+03  0.23491023847E+03  0.10000000000E+01 0.  0.
    9000005    1    3    3    0    0 -0.52955753223E+02  0.33177316068E+02 -0.22577663988E+03  0.23426723462E+03  0.10000000000E+01 0.  0.
<mgrwt>
<rscale>  0 0.12499686E+03</rscale>
<asrwt>0</asrwt>
<pdfrwt beam="2">  1        4 0.70876740E-01 0.12499686E+03</pdfrwt>
<pdfrwt beam="1">  1       -4 0.13043910E-02 0.12499686E+03</pdfrwt>
<totfact> 0.58341755E+03</totfact>
</mgrwt>
</event>
<event>
 5    1  0.3273105E-002  0.1250014E+03  0.7818608E-02  0.1235067E+00
         -4   -1    0    0    0  501 -0.00000000000E+00  0.00000000000E+00  0.13737990919E+04  0.13737996789E+04  0.12700000000E+01 0. -1.
          4   -1    0    0  501    0  0.00000000000E+00 -0.00000000000E+00 -0.27010326511E+01  0.29847072524E+01  0.12700000000E+01 0. -1.
         25    2    1    2    0    0  0.00000000000E+00  0.00000000000E+00  0.13710980592E+04  0.13767843862E+04  0.12500143174E+03 0.  0.
    9000005    1    3    3    0    0 -0.62434344563E+02  0.20293297545E+01  0.70517129752E+03  0.70793341806E+03  0.10000000000E+01 0.  0.
    9000005    1    3    3    0    0  0.62434344563E+02 -0.20293297545E+01  0.66592676173E+03  0.66885096811E+03  0.10000000000E+01 0.  0.
<mgrwt>
<rscale>  0 0.12500143E+03</rscale>
<asrwt>0</asrwt>
<pdfrwt beam="2">  1        4 0.43740874E-03 0.12500143E+03</pdfrwt>
<pdfrwt beam="1">  1       -4 0.21137607E+00 0.12500143E+03</pdfrwt>
<totfact> 0.20483942E+03</totfact>
</mgrwt>
</event>
<event>
 5    1  0.3273105E-002  0.1249954E+03  0.7818608E-02  0.1235076E+00
         -4   -1    0    0    0  501 -0.00000000000E+00  0.00000000000E+00  0.18932950384E+02  0.18975497628E+02  0.12700000000E+01 0.  1.
          4   -1    0    0  501    0  0.00000000000E+00 -0.00000000000E+00 -0.20602910287E+03  0.20603301708E+03  0.12700000000E+01 0.  1.
         25    2    1    2    0    0  0.00000000000E+00  0.00000000000E+00 -0.18709615248E+03  0.22500851471E+03  0.12499544559E+03 0.  0.
    9000005    1    3    3    0    0  0.12777034590E+02 -0.60715373791E+02 -0.80154775745E+02  0.10136763439E+03  0.10000000000E+01 0.  0.
    9000005    1    3    3    0    0 -0.12777034590E+02  0.60715373791E+02 -0.10694137674E+03  0.12364088032E+03  0.10000000000E+01 0.  0.
<mgrwt>
<rscale>  0 0.12499545E+03</rscale>
<asrwt>0</asrwt>
<pdfrwt beam="2">  1        4 0.31700358E-01 0.12499545E+03</pdfrwt>
<pdfrwt beam="1">  1       -4 0.29163357E-02 0.12499545E+03</pdfrwt>
<totfact> 0.86090724E+03</totfact>
</mgrwt>
</event>
<event>
 5    1  0.3273105E-002  0.1249918E+03  0.7818608E-02  0.1235082E+00
          4   -1    0    0  501    0  0.00000000000E+00  0.00000000000E+00  0.16895938396E+02  0.16943601573E+02  0.12700000000E+01 0. -1.
         -4   -1    0    0    0  501 -0.00000000000E+00 -0.00000000000E+00 -0.23078921887E+03  0.23079271316E+03  0.12700000000E+01 0. -1.
         25    2    1    2    0    0  0.00000000000E+00  0.00000000000E+00 -0.21389328048E+03  0.24773631473E+03  0.12499178455E+03 0.  0.
    9000005    1    3    3    0    0 -0.55128422173E+02  0.22771071478E+02 -0.14387142272E+03  0.15574867865E+03  0.10000000000E+01 0.  0.
    9000005    1    3    3    0    0  0.55128422173E+02 -0.22771071478E+02 -0.70021857759E+02  0.91987636079E+02  0.10000000000E+01 0.  0.
<mgrwt>
<rscale>  0 0.12499178E+03</rscale>
<asrwt>0</asrwt>
<pdfrwt beam="1">  1        4 0.26033105E-02 0.12499178E+03</pdfrwt>
<pdfrwt beam="2">  1       -4 0.35509967E-01 0.12499178E+03</pdfrwt>
<totfact> 0.82673638E+03</totfact>
</mgrwt>
</event>
<event>
 5    1  0.3273105E-002  0.1249981E+03  0.7818608E-02  0.1235072E+00
          4   -1    0    0  501    0  0.00000000000E+00  0.00000000000E+00  0.31914786120E+03  0.31915038808E+03  0.12700000000E+01 0. -1.
         -4   -1    0    0    0  501 -0.00000000000E+00 -0.00000000000E+00 -0.12203719004E+02  0.12269623365E+02  0.12700000000E+01 0. -1.
         25    2    1    2    0    0  0.00000000000E+00  0.00000000000E+00  0.30694414220E+03  0.33142001144E+03  0.12499807020E+03 0.  0.
    9000005    1    3    3    0    0  0.52254082416E+02  0.29745096881E+02  0.10833050117E+03  0.12390220902E+03  0.10000000000E+01 0.  0.
    9000005    1    3    3    0    0 -0.52254082416E+02 -0.29745096881E+02  0.19861364103E+03  0.20751780242E+03  0.10000000000E+01 0.  0.
<mgrwt>
<rscale>  0 0.12499807E+03</rscale>
<asrwt>0</asrwt>
<pdfrwt beam="1">  1        4 0.49104939E-01 0.12499807E+03</pdfrwt>
<pdfrwt beam="2">  1       -4 0.18827590E-02 0.12499807E+03</pdfrwt>
<totfact> 0.71821207E+03</totfact>
</mgrwt>
</event>
<event>
 5    1  0.3273105E-002  0.1249966E+03  0.7818608E-02  0.1235075E+00
          4   -1    0    0  501    0  0.00000000000E+00  0.00000000000E+00  0.25226205646E+02  0.25258154155E+02  0.12700000000E+01 0. -1.
         -4   -1    0    0    0  501 -0.00000000000E+00 -0.00000000000E+00 -0.15470803042E+03  0.15471324305E+03  0.12700000000E+01 0. -1.
         25    2    1    2    0    0  0.00000000000E+00  0.00000000000E+00 -0.12948182477E+03  0.17997139721E+03  0.12499664342E+03 0.  0.
    9000005    1    3    3    0    0  0.60318109954E+02 -0.16205130204E+02 -0.67677412690E+02  0.92098386640E+02  0.10000000000E+01 0.  0.
    9000005    1    3    3    0    0 -0.60318109954E+02  0.16205130204E+02 -0.61804412083E+02  0.87873010568E+02  0.10000000000E+01 0.  0.
<mgrwt>
<rscale>  0 0.12499664E+03</rscale>
<asrwt>0</asrwt>
<pdfrwt beam="1">  1        4 0.38838134E-02 0.12499664E+03</pdfrwt>
<pdfrwt beam="2">  1       -4 0.23804093E-01 0.12499664E+03</pdfrwt>
<totfact> 0.93629199E+03</totfact>
</mgrwt>
</event>
<event>
 5    1  0.3273105E-002  0.1250005E+03  0.7818608E-02  0.1235068E+00
          4   -1    0    0  501    0  0.00000000000E+00  0.00000000000E+00  0.62334873400E+03  0.62335002774E+03  0.12700000000E+01 0.  1.
         -4   -1    0    0    0  501 -0.00000000000E+00 -0.00000000000E+00 -0.62009527888E+01  0.63296694613E+01  0.12700000000E+01 0.  1.
         25    2    1    2    0    0  0.00000000000E+00  0.00000000000E+00  0.61714778121E+03  0.62967969720E+03  0.12500054884E+03 0.  0.
    9000005    1    3    3    0    0  0.28547035770E+02  0.51548151105E+02  0.41341255996E+03  0.41759201365E+03  0.10000000000E+01 0.  0.
    9000005    1    3    3    0    0 -0.28547035770E+02 -0.51548151105E+02  0.20373522125E+03  0.21208768355E+03  0.10000000000E+01 0.  0.
<mgrwt>
<rscale>  0 0.12500055E+03</rscale>
<asrwt>0</asrwt>
<pdfrwt beam="1">  1        4 0.95909821E-01 0.12500055E+03</pdfrwt>
<pdfrwt beam="2">  1       -4 0.96399339E-03 0.12500055E+03</pdfrwt>
<totfact> 0.47045610E+03</totfact>
</mgrwt>
</event>
<event>
 5    1  0.3273105E-002  0.1250011E+03  0.7818608E-02  0.1235068E+00
          4   -1    0    0  501    0  0.00000000000E+00  0.00000000000E+00  0.25461748116E+03  0.25462064844E+03  0.12700000000E+01 0. -1.
         -4   -1    0    0    0  501 -0.00000000000E+00 -0.00000000000E+00 -0.15312348379E+02  0.15364924760E+02  0.12700000000E+01 0. -1.
         25    2    1    2    0    0  0.00000000000E+00  0.00000000000E+00  0.23930513278E+03  0.26998557320E+03  0.12500105264E+03 0.  0.
    9000005    1    3    3    0    0 -0.28317649715E+02  0.33020728907E+02  0.22745593357E+02  0.49098063507E+02  0.10000000000E+01 0.  0.
    9000005    1    3    3    0    0  0.28317649715E+02 -0.33020728907E+02  0.21655953943E+03  0.22088750970E+03  0.10000000000E+01 0.  0.
<mgrwt>
<rscale>  0 0.12500105E+03</rscale>
<asrwt>0</asrwt>
<pdfrwt beam="1">  1        4 0.39176208E-01 0.12500105E+03</pdfrwt>
<pdfrwt beam="2">  1       -4 0.23600339E-02 0.12500105E+03</pdfrwt>
<totfact> 0.79522971E+03</totfact>
</mgrwt>
</event>
<event>
 5    1  0.3273105E-002  0.1249857E+03  0.7818608E-02  0.1235092E+00
          4   -1    0    0  501    0  0.00000000000E+00  0.00000000000E+00  0.59026737956E+03  0.59026874580E+03  0.12700000000E+01 0. -1.
         -4   -1    0    0    0  501 -0.00000000000E+00 -0.00000000000E+00 -0.65539187256E+01  0.66758333309E+01  0.12700000000E+01 0. -1.
         25    2    1    2    0    0  0.00000000000E+00  0.00000000000E+00  0.58371346083E+03  0.59694457913E+03  0.12498570398E+03 0.  0.
    9000005    1    3    3    0    0 -0.18700024511E+02 -0.99284284571E+01  0.11076636026E+02  0.23915611512E+02  0.10000000000E+01 0.  0.
    9000005    1    3    3    0    0  0.18700024511E+02  0.99284284571E+01  0.57263682481E+03  0.57302896762E+03  0.10000000000E+01 0.  0.
<mgrwt>
<rscale>  0 0.12498570E+03</rscale>
<asrwt>0</asrwt>
<pdfrwt beam="1">  1        4 0.90819835E-01 0.12498570E+03</pdfrwt>
<pdfrwt beam="2">  1       -4 0.10177785E-02 0.12498570E+03</pdfrwt>
<totfact> 0.49076436E+03</totfact>
</mgrwt>
</event>
<event>
 5    1  0.3273105E-002  0.1249979E+03  0.7818608E-02  0.1235072E+00
          4   -1    0    0  501    0  0.00000000000E+00  0.00000000000E+00  0.21554334615E+03  0.21554708759E+03  0.12700000000E+01 0.  1.
         -4   -1    0    0    0  501 -0.00000000000E+00 -0.00000000000E+00 -0.18096054138E+02  0.18140564362E+02  0.12700000000E+01 0.  1.
         25    2    1    2    0    0  0.00000000000E+00  0.00000000000E+00  0.19744729201E+03  0.23368765195E+03  0.12499794220E+03 0.  0.
    9000005    1    3    3    0    0  0.13034834274E+02  0.58312625390E+02  0.13293415079E+03  0.14574895413E+03  0.10000000000E+01 0.  0.
    9000005    1    3    3    0    0 -0.13034834274E+02 -0.58312625390E+02  0.64513141227E+02  0.87938697826E+02  0.10000000000E+01 0.  0.
<mgrwt>
<rscale>  0 0.12499794E+03</rscale>
<asrwt>0</asrwt>
<pdfrwt beam="1">  1        4 0.33164226E-01 0.12499794E+03</pdfrwt>
<pdfrwt beam="2">  1       -4 0.27877201E-02 0.12499794E+03</pdfrwt>
<totfact> 0.84750442E+03</totfact>
</mgrwt>
</event>
<event>
 5    1  0.3273105E-002  0.1250032E+03  0.7818608E-02  0.1235064E+00
          4   -1    0    0  501    0  0.00000000000E+00  0.00000000000E+00  0.61807611707E+03  0.61807742184E+03  0.12700000000E+01 0. -1.
         -4   -1    0    0    0  501 -0.00000000000E+00 -0.00000000000E+00 -0.62552109931E+01  0.63828335846E+01  0.12700000000E+01 0. -1.
         25    2    1    2    0    0  0.00000000000E+00  0.00000000000E+00  0.61182090607E+03  0.62446025542E+03  0.12500315794E+03 0.  0.
    9000005    1    3    3    0    0  0.58544388140E+02  0.13786364261E+02  0.22114216272E+03  0.22917758476E+03  0.10000000000E+01 0.  0.
    9000005    1    3    3    0    0 -0.58544388140E+02 -0.13786364261E+02  0.39067874335E+03  0.39528267067E+03  0.10000000000E+01 0.  0.
<mgrwt>
<rscale>  0 0.12500316E+03</rscale>
<asrwt>0</asrwt>
<pdfrwt beam="1">  1        4 0.95098522E-01 0.12500316E+03</pdfrwt>
<pdfrwt beam="2">  1       -4 0.97225793E-03 0.12500316E+03</pdfrwt>
<totfact> 0.47355868E+03</totfact>
</mgrwt>
</event>
<event>
 4    1  0.3273105E-002  0.1248625E+03  0.7818608E-02  0.1235284E+00
         -4   -1    0    0    0  501 -0.00000000000E+00  0.00000000000E+00  0.21599096861E+02  0.21636401855E+02  0.12700000000E+01 0. -1.
          4   -1    0    0  501    0  0.00000000000E+00 -0.00000000000E+00 -0.18025947623E+03  0.18026395001E+03  0.12700000000E+01 0. -1.
    9000005    1    1    2    0    0 -0.17777572228E+02 -0.53382722946E+02 -0.12304561282E+03  0.13530328901E+03  0.10000000000E+01 0.  0.
    9000005    1    1    2    0    0  0.17777572228E+02  0.53382722946E+02 -0.35614766552E+02  0.66597062848E+02  0.10000000000E+01 0.  0.
<mgrwt>
<rscale>  0 0.12486247E+03</rscale>
<asrwt>0</asrwt>
<pdfrwt beam="2">  1        4 0.27735440E-01 0.12486247E+03</pdfrwt>
<pdfrwt beam="1">  1       -4 0.33261518E-02 0.12486247E+03</pdfrwt>
<totfact> 0.90092910E+03</totfact>
</mgrwt>
</event>
<event>
 5    1  0.3273105E-002  0.1250017E+03  0.7818608E-02  0.1235067E+00
          4   -1    0    0  501    0  0.00000000000E+00  0.00000000000E+00  0.11131358862E+04  0.11131366107E+04  0.12700000000E+01 0.  1.
         -4   -1    0    0    0  501 -0.00000000000E+00 -0.00000000000E+00 -0.33936758460E+01  0.36235253204E+01  0.12700000000E+01 0.  1.
         25    2    1    2    0    0  0.00000000000E+00  0.00000000000E+00  0.11097422104E+04  0.11167601360E+04  0.12500171170E+03 0.  0.
    9000005    1    3    3    0    0 -0.14770223171E+02 -0.55131896482E+02  0.78223491070E+03  0.78431507765E+03  0.10000000000E+01 0.  0.
    9000005    1    3    3    0    0  0.14770223171E+02  0.55131896482E+02  0.32750729969E+03  0.33244505840E+03  0.10000000000E+01 0.  0.
<mgrwt>
<rscale>  0 0.12500171E+03</rscale>
<asrwt>0</asrwt>
<pdfrwt beam="1">  1        4 0.17126938E+00 0.12500171E+03</pdfrwt>
<pdfrwt beam="2">  1       -4 0.53984053E-03 0.12500171E+03</pdfrwt>
<totfact> 0.26996979E+03</totfact>
</mgrwt>
</event>
<event>
 5    1  0.3273105E-002  0.1249983E+03  0.7818608E-02  0.1235072E+00
          4   -1    0    0  501    0  0.00000000000E+00  0.00000000000E+00  0.55965996402E+02  0.55980404190E+02  0.12700000000E+01 0. -1.
         -4   -1    0    0    0  501 -0.00000000000E+00 -0.00000000000E+00 -0.69765822655E+02  0.69777381082E+02  0.12700000000E+01 0. -1.
         25    2    1    2    0    0  0.00000000000E+00  0.00000000000E+00 -0.13799826253E+02  0.12575778527E+03  0.12499834140E+03 0.  0.
    9000005    1    3    3    0    0 -0.10545571263E+01  0.60029781208E+02  0.10539171432E+02  0.60965243025E+02  0.10000000000E+01 0.  0.
    9000005    1    3    3    0    0  0.10545571263E+01 -0.60029781208E+02 -0.24338997684E+02  0.64792542248E+02  0.10000000000E+01 0.  0.
<mgrwt>
<rscale>  0 0.12499834E+03</rscale>
<asrwt>0</asrwt>
<pdfrwt beam="1">  1        4 0.86121507E-02 0.12499834E+03</pdfrwt>
<pdfrwt beam="2">  1       -4 0.10735201E-01 0.12499834E+03</pdfrwt>
<totfact> 0.10436664E+04</totfact>
</mgrwt>
</event>
<event>
 5    1  0.3273105E-002  0.1250016E+03  0.7818608E-02  0.1235067E+00
         -4   -1    0    0    0  501 -0.00000000000E+00  0.00000000000E+00  0.92810510032E+02  0.92819198835E+02  0.12700000000E+01 0. -1.
          4   -1    0    0  501    0  0.00000000000E+00 -0.00000000000E+00 -0.42069252421E+02  0.42088417637E+02  0.12700000000E+01 0. -1.
         25    2    1    2    0    0  0.00000000000E+00  0.00000000000E+00  0.50741257612E+02  0.13490761647E+03  0.12500155902E+03 0.  0.
    9000005    1    3    3    0    0  0.46376938504E+01  0.18359226461E+02  0.89645030862E+02  0.91628603388E+02  0.10000000000E+01 0.  0.
    9000005    1    3    3    0    0 -0.46376938504E+01 -0.18359226461E+02 -0.38903773251E+02  0.43279013085E+02  0.10000000000E+01 0.  0.
<mgrwt>
<rscale>  0 0.12500156E+03</rscale>
<asrwt>0</asrwt>
<pdfrwt beam="2">  1        4 0.64743354E-02 0.12500156E+03</pdfrwt>
<pdfrwt beam="1">  1       -4 0.14280682E-01 0.12500156E+03</pdfrwt>
<totfact> 0.10239658E+04</totfact>
</mgrwt>
</event>
<event>
 5    1  0.3273105E-002  0.1249992E+03  0.7818608E-02  0.1235071E+00
          4   -1    0    0  501    0  0.00000000000E+00  0.00000000000E+00  0.32588078717E+03  0.32588326184E+03  0.12700000000E+01 0. -1.
         -4   -1    0    0    0  501 -0.00000000000E+00 -0.00000000000E+00 -0.11950415553E+02  0.12017709095E+02  0.12700000000E+01 0. -1.
         25    2    1    2    0    0  0.00000000000E+00  0.00000000000E+00  0.31393037162E+03  0.33790097093E+03  0.12499915174E+03 0.  0.
    9000005    1    3    3    0    0 -0.41099987636E+02 -0.46431297488E+02  0.17792566946E+03  0.18842403834E+03  0.10000000000E+01 0.  0.
    9000005    1    3    3    0    0  0.41099987636E+02  0.46431297488E+02  0.13600470216E+03  0.14947693260E+03  0.10000000000E+01 0.  0.
<mgrwt>
<rscale>  0 0.12499915E+03</rscale>
<asrwt>0</asrwt>
<pdfrwt beam="1">  1        4 0.50140870E-01 0.12499915E+03</pdfrwt>
<pdfrwt beam="2">  1       -4 0.18438924E-02 0.12499915E+03</pdfrwt>
<totfact> 0.71077768E+03</totfact>
</mgrwt>
</event>
<event>
 5    1  0.3273105E-002  0.1250008E+03  0.7818608E-02  0.1235068E+00
         -4   -1    0    0    0  501 -0.00000000000E+00  0.00000000000E+00  0.28142828891E+02  0.28171469930E+02  0.12700000000E+01 0.  1.
          4   -1    0    0  501    0  0.00000000000E+00 -0.00000000000E+00 -0.13870044851E+03  0.13870626272E+03  0.12700000000E+01 0.  1.
         25    2    1    2    0    0  0.00000000000E+00  0.00000000000E+00 -0.11055761962E+03  0.16687773265E+03  0.12500076159E+03 0.  0.
    9000005    1    3    3    0    0  0.33642467207E+02 -0.17343157055E+02  0.11106375794E+02  0.39458234625E+02  0.10000000000E+01 0.  0.
    9000005    1    3    3    0    0 -0.33642467207E+02  0.17343157055E+02 -0.12166399542E+03  0.12741949803E+03  0.10000000000E+01 0.  0.
<mgrwt>
<rscale>  0 0.12500076E+03</rscale>
<asrwt>0</asrwt>
<pdfrwt beam="2">  1        4 0.21341180E-01 0.12500076E+03</pdfrwt>
<pdfrwt beam="1">  1       -4 0.43323165E-02 0.12500076E+03</pdfrwt>
<totfact> 0.96031314E+03</totfact>
</mgrwt>
</event>
<event>
 4    1  0.3273105E-002  0.1251828E+03  0.7818608E-02  0.1234784E+00
          4   -1    0    0  501    0  0.00000000000E+00  0.00000000000E+00  0.37098288955E+03  0.37098506337E+03  0.12700000000E+01 0. -1.
         -4   -1    0    0    0  501 -0.00000000000E+00 -0.00000000000E+00 -0.10519884431E+02  0.10596266722E+02  0.12700000000E+01 0. -1.
    9000005    1    1    2    0    0  0.41352642921E+02 -0.88210618727E+01  0.32087286464E+03  0.32364833921E+03  0.10000000000E+01 0.  0.
    9000005    1    1    2    0    0 -0.41352642921E+02  0.88210618727E+01  0.39590140482E+02  0.57932990881E+02  0.10000000000E+01 0.  0.
<mgrwt>
<rscale>  0 0.12518280E+03</rscale>
<asrwt>0</asrwt>
<pdfrwt beam="1">  1        4 0.57080327E-01 0.12518280E+03</pdfrwt>
<pdfrwt beam="2">  1       -4 0.16244867E-02 0.12518280E+03</pdfrwt>
<totfact> 0.66117054E+03</totfact>
</mgrwt>
</event>
<event>
 5    1  0.3273105E-002  0.1249997E+03  0.7818608E-02  0.1235070E+00
         -4   -1    0    0    0  501 -0.00000000000E+00  0.00000000000E+00  0.49200326997E+03  0.49200490908E+03  0.12700000000E+01 0.  1.
          4   -1    0    0  501    0  0.00000000000E+00 -0.00000000000E+00 -0.78869960625E+01  0.79885922971E+01  0.12700000000E+01 0.  1.
         25    2    1    2    0    0  0.00000000000E+00  0.00000000000E+00  0.48411627391E+03  0.49999350138E+03  0.12499973904E+03 0.  0.
    9000005    1    3    3    0    0 -0.67354117690E+01 -0.31762689265E+02  0.45563481294E+03  0.45679132759E+03  0.10000000000E+01 0.  0.
    9000005    1    3    3    0    0  0.67354117690E+01  0.31762689265E+02  0.28481460966E+02  0.43202173785E+02  0.10000000000E+01 0.  0.
<mgrwt>
<rscale>  0 0.12499974E+03</rscale>
<asrwt>0</asrwt>
<pdfrwt beam="2">  1        4 0.12213254E-02 0.12499974E+03</pdfrwt>
<pdfrwt beam="1">  1       -4 0.75700741E-01 0.12499974E+03</pdfrwt>
<totfact> 0.55865195E+03</totfact>
</mgrwt>
</event>
<event>
 5    1  0.3273105E-002  0.1249988E+03  0.7818608E-02  0.1235071E+00
          4   -1    0    0  501    0  0.00000000000E+00  0.00000000000E+00  0.14611885948E+02  0.14666973477E+02  0.12700000000E+01 0. -1.
         -4   -1    0    0    0  501 -0.00000000000E+00 -0.00000000000E+00 -0.26676923399E+03  0.26677225700E+03  0.12700000000E+01 0. -1.
         25    2    1    2    0    0  0.00000000000E+00  0.00000000000E+00 -0.25215734804E+03  0.28143923047E+03  0.12499884911E+03 0.  0.
    9000005    1    3    3    0    0 -0.85240124187E+01  0.32755512417E+02 -0.24435595961E+03  0.24669093493E+03  0.10000000000E+01 0.  0.
    9000005    1    3    3    0    0  0.85240124187E+01 -0.32755512417E+02 -0.78013884301E+01  0.34748295539E+02  0.10000000000E+01 0.  0.
<mgrwt>
<rscale>  0 0.12499885E+03</rscale>
<asrwt>0</asrwt>
<pdfrwt beam="1">  1        4 0.22524527E-02 0.12499885E+03</pdfrwt>
<pdfrwt beam="2">  1       -4 0.41045887E-01 0.12499885E+03</pdfrwt>
<totfact> 0.77989657E+03</totfact>
</mgrwt>
</event>
<event>
 5    1  0.3273105E-002  0.1249832E+03  0.7818608E-02  0.1235096E+00
          4   -1    0    0  501    0  0.00000000000E+00  0.00000000000E+00  0.11507381621E+03  0.11508082411E+03  0.12700000000E+01 0. -1.
         -4   -1    0    0    0  501 -0.00000000000E+00 -0.00000000000E+00 -0.33916534680E+02  0.33940303840E+02  0.12700000000E+01 0. -1.
         25    2    1    2    0    0  0.00000000000E+00  0.00000000000E+00  0.81157281532E+02  0.14902112795E+03  0.12498316778E+03 0.  0.
    9000005    1    3    3    0    0  0.30726783276E+02 -0.33948151710E+02 -0.10114101324E+02  0.46903168982E+02  0.10000000000E+01 0.  0.
    9000005    1    3    3    0    0 -0.30726783276E+02  0.33948151710E+02  0.91271382856E+02  0.10211795897E+03  0.10000000000E+01 0.  0.
<mgrwt>
<rscale>  0 0.12498317E+03</rscale>
<asrwt>0</asrwt>
<pdfrwt beam="1">  1        4 0.17706031E-01 0.12498317E+03</pdfrwt>
<pdfrwt beam="2">  1       -4 0.52202959E-02 0.12498317E+03</pdfrwt>
<totfact> 0.99536886E+03</totfact>
</mgrwt>
</event>
<event>
 5    1  0.3273105E-002  0.1250029E+03  0.7818608E-02  0.1235065E+00
         -4   -1    0    0    0  501 -0.00000000000E+00  0.00000000000E+00  0.38654391978E+02  0.38675249439E+02  0.12700000000E+01 0.  1.
          4   -1    0    0  501    0  0.00000000000E+00 -0.00000000000E+00 -0.10100831087E+03  0.10101629455E+03  0.12700000000E+01 0.  1.
         25    2    1    2    0    0  0.00000000000E+00  0.00000000000E+00 -0.62353918891E+02  0.13969154399E+03  0.12500286501E+03 0.  0.
    9000005    1    3    3    0    0 -0.57025995133E+02  0.15236565731E+02 -0.54114775720E+02  0.80084492927E+02  0.10000000000E+01 0.  0.
    9000005    1    3    3    0    0  0.57025995133E+02 -0.15236565731E+02 -0.82391431712E+01  0.59607051063E+02  0.10000000000E+01 0.  0.
<mgrwt>
<rscale>  0 0.12500287E+03</rscale>
<asrwt>0</asrwt>
<pdfrwt beam="2">  1        4 0.15541959E-01 0.12500287E+03</pdfrwt>
<pdfrwt beam="1">  1       -4 0.59490481E-02 0.12500287E+03</pdfrwt>
<totfact> 0.10139328E+04</totfact>
</mgrwt>
</event>
<event>
 5    1  0.3273105E-002  0.1249984E+03  0.7818608E-02  0.1235072E+00
          4   -1    0    0  501    0  0.00000000000E+00  0.00000000000E+00  0.53286529979E+03  0.53286681321E+03  0.12700000000E+01 0.  1.
         -4   -1    0    0    0  501 -0.00000000000E+00 -0.00000000000E+00 -0.72739185763E+01  0.73839550009E+01  0.12700000000E+01 0.  1.
         25    2    1    2    0    0  0.00000000000E+00  0.00000000000E+00  0.52559138121E+03  0.54025076821E+03  0.12499837017E+03 0.  0.
    9000005    1    3    3    0    0 -0.80011968804E+01  0.58880734910E+02  0.34640141125E+03  0.35146251267E+03  0.10000000000E+01 0.  0.
    9000005    1    3    3    0    0  0.80011968804E+01 -0.58880734910E+02  0.17918996996E+03  0.18878825554E+03  0.10000000000E+01 0.  0.
<mgrwt>
<rscale>  0 0.12499837E+03</rscale>
<asrwt>0</asrwt>
<pdfrwt beam="1">  1        4 0.81987890E-01 0.12499837E+03</pdfrwt>
<pdfrwt beam="2">  1       -4 0.11276447E-02 0.12499837E+03</pdfrwt>
<totfact> 0.52873151E+03</totfact>
</mgrwt>
</event>
<event>
 5    1  0.3273105E-002  0.1250117E+03  0.7818608E-02  0.1235051E+00
          4   -1    0    0  501    0  0.00000000000E+00  0.00000000000E+00  0.11321337737E+03  0.11322050042E+03  0.12700000000E+01 0.  1.
         -4   -1    0    0    0  501 -0.00000000000E+00 -0.00000000000E+00 -0.34489969065E+02  0.34513343305E+02  0.12700000000E+01 0.  1.
         25    2    1    2    0    0  0.00000000000E+00  0.00000000000E+00  0.78723408300E+02  0.14773384372E+03  0.12501165372E+03 0.  0.
    9000005    1    3    3    0    0 -0.35200221207E+02  0.51328323499E+02  0.32642688523E+02  0.70286538400E+02  0.10000000000E+01 0.  0.
    9000005    1    3    3    0    0  0.35200221207E+02 -0.51328323499E+02  0.46080719778E+02  0.77447305321E+02  0.10000000000E+01 0.  0.
<mgrwt>
<rscale>  0 0.12501165E+03</rscale>
<asrwt>0</asrwt>
<pdfrwt beam="1">  1        4 0.17419789E-01 0.12501165E+03</pdfrwt>
<pdfrwt beam="2">  1       -4 0.53084950E-02 0.12501165E+03</pdfrwt>
<totfact> 0.99731189E+03</totfact>
</mgrwt>
</event>
<event>
 5    1  0.3273105E-002  0.1249671E+03  0.7818608E-02  0.1235121E+00
         -4   -1    0    0    0  501 -0.00000000000E+00  0.00000000000E+00  0.31706612143E+02  0.31732036707E+02  0.12700000000E+01 0. -1.
          4   -1    0    0  501    0  0.00000000000E+00 -0.00000000000E+00 -0.12305696820E+03  0.12306352150E+03  0.12700000000E+01 0. -1.
         25    2    1    2    0    0  0.00000000000E+00  0.00000000000E+00 -0.91350356062E+02  0.15479555821E+03  0.12496710482E+03 0.  0.
    9000005    1    3    3    0    0  0.38563281055E+01 -0.25743217984E+02 -0.11602592289E+03  0.11891425197E+03  0.10000000000E+01 0.  0.
    9000005    1    3    3    0    0 -0.38563281055E+01  0.25743217984E+02  0.24675566832E+02  0.35881306234E+02  0.10000000000E+01 0.  0.
<mgrwt>
<rscale>  0 0.12496710E+03</rscale>
<asrwt>0</asrwt>
<pdfrwt beam="2">  1        4 0.18934301E-01 0.12496710E+03</pdfrwt>
<pdfrwt beam="1">  1       -4 0.48804002E-02 0.12496710E+03</pdfrwt>
<totfact> 0.98428449E+03</totfact>
</mgrwt>
</event>
<event>
 5    1  0.3273105E-002  0.1249984E+03  0.7818608E-02  0.1235072E+00
         -4   -1    0    0    0  501 -0.00000000000E+00  0.00000000000E+00  0.48452892342E+02  0.48469533485E+02  0.12700000000E+01 0.  1.
          4   -1    0    0  501    0  0.00000000000E+00 -0.00000000000E+00 -0.80581948130E+02  0.80591955333E+02  0.12700000000E+01 0.  1.
         25    2    1    2    0    0  0.00000000000E+00  0.00000000000E+00 -0.32129055788E+02  0.12906148882E+03  0.12499836667E+03 0.  0.
    9000005    1    3    3    0    0  0.45312345520E+02  0.42879299580E+02 -0.12298369280E+02  0.63593182621E+02  0.10000000000E+01 0.  0.
    9000005    1    3    3    0    0 -0.45312345520E+02 -0.42879299580E+02 -0.19830686508E+02  0.65468306197E+02  0.10000000000E+01 0.  0.
<mgrwt>
<rscale>  0 0.12499837E+03</rscale>
<asrwt>0</asrwt>
<pdfrwt beam="2">  1        4 0.12399273E-01 0.12499837E+03</pdfrwt>
<pdfrwt beam="1">  1       -4 0.74563410E-02 0.12499837E+03</pdfrwt>
<totfact> 0.10365008E+04</totfact>
</mgrwt>
</event>
<event>
 5    1  0.3273105E-002  0.1250009E+03  0.7818608E-02  0.1235068E+00
         -4   -1    0    0    0  501 -0.00000000000E+00  0.00000000000E+00  0.16000771392E+04  0.16000776432E+04  0.12700000000E+01 0. -1.
          4   -1    0    0  501    0  0.00000000000E+00 -0.00000000000E+00 -0.22756189587E+01  0.26060202696E+01  0.12700000000E+01 0. -1.
         25    2    1    2    0    0  0.00000000000E+00  0.00000000000E+00  0.15978015203E+04  0.16026836635E+04  0.12500090835E+03 0.  0.
    9000005    1    3    3    0    0  0.19655036842E+02 -0.10533767516E+02  0.50410603293E+02  0.55131748164E+02  0.10000000000E+01 0.  0.
    9000005    1    3    3    0    0 -0.19655036842E+02  0.10533767516E+02  0.15473909170E+04  0.15475519153E+04  0.10000000000E+01 0.  0.
<mgrwt>
<rscale>  0 0.12500091E+03</rscale>
<asrwt>0</asrwt>
<pdfrwt beam="2">  1        4 0.37555166E-03 0.12500091E+03</pdfrwt>
<pdfrwt beam="1">  1       -4 0.24618974E+00 0.12500091E+03</pdfrwt>
<totfact> 0.15997561E+03</totfact>
</mgrwt>
</event>
<event>
 5    1  0.3273105E-002  0.1249989E+03  0.7818608E-02  0.1235071E+00
          4   -1    0    0  501    0  0.00000000000E+00  0.00000000000E+00  0.37039173688E+02  0.37060940186E+02  0.12700000000E+01 0. -1.
         -4   -1    0    0    0  501 -0.00000000000E+00 -0.00000000000E+00 -0.10540430450E+03  0.10541195523E+03  0.12700000000E+01 0. -1.
         25    2    1    2    0    0  0.00000000000E+00  0.00000000000E+00 -0.68365130807E+02  0.14247289542E+03  0.12499893927E+03 0.  0.
    9000005    1    3    3    0    0  0.33208214949E+02  0.47085176019E+02 -0.61759531276E+02  0.84469160315E+02  0.10000000000E+01 0.  0.
    9000005    1    3    3    0    0 -0.33208214949E+02 -0.47085176019E+02 -0.66055995310E+01  0.58003735104E+02  0.10000000000E+01 0.  0.
<mgrwt>
<rscale>  0 0.12499894E+03</rscale>
<asrwt>0</asrwt>
<pdfrwt beam="1">  1        4 0.57005973E-02 0.12499894E+03</pdfrwt>
<pdfrwt beam="2">  1       -4 0.16218310E-01 0.12499894E+03</pdfrwt>
<totfact> 0.10082829E+04</totfact>
</mgrwt>
</event>
<event>
 5    1  0.3273105E-002  0.1250012E+03  0.7818608E-02  0.1235067E+00
          4   -1    0    0  501    0  0.00000000000E+00  0.00000000000E+00  0.15610817486E+03  0.15611334074E+03  0.12700000000E+01 0.  1.
         -4   -1    0    0    0  501 -0.00000000000E+00 -0.00000000000E+00 -0.25001482935E+02  0.25033718241E+02  0.12700000000E+01 0.  1.
         25    2    1    2    0    0  0.00000000000E+00  0.00000000000E+00  0.13110669192E+03  0.18114705898E+03  0.12500116924E+03 0.  0.
    9000005    1    3    3    0    0  0.96394157784E+01 -0.35159340295E+02  0.13910782977E+03  0.14380919946E+03  0.10000000000E+01 0.  0.
    9000005    1    3    3    0    0 -0.96394157784E+01  0.35159340295E+02 -0.80011378493E+01  0.37337859518E+02  0.10000000000E+01 0.  0.
<mgrwt>
<rscale>  0 0.12500117E+03</rscale>
<asrwt>0</asrwt>
<pdfrwt beam="1">  1        4 0.24019520E-01 0.12500117E+03</pdfrwt>
<pdfrwt beam="2">  1       -4 0.38492590E-02 0.12500117E+03</pdfrwt>
<totfact> 0.93408486E+03</totfact>
</mgrwt>
</event>
<event>
 5    1  0.3273105E-002  0.1249995E+03  0.7818608E-02  0.1235070E+00
          4   -1    0    0  501    0  0.00000000000E+00  0.00000000000E+00  0.12592193869E+03  0.12592834289E+03  0.12700000000E+01 0.  1.
         -4   -1    0    0    0  501 -0.00000000000E+00 -0.00000000000E+00 -0.31000749324E+02  0.31026752306E+02  0.12700000000E+01 0.  1.
         25    2    1    2    0    0  0.00000000000E+00  0.00000000000E+00  0.94921189362E+02  0.15695509519E+03  0.12499947887E+03 0.  0.
    9000005    1    3    3    0    0 -0.12649003697E+02 -0.60874750607E+02  0.55350696192E+02  0.83249216963E+02  0.10000000000E+01 0.  0.
    9000005    1    3    3    0    0  0.12649003697E+02  0.60874750607E+02  0.39570493170E+02  0.73705878230E+02  0.10000000000E+01 0.  0.
<mgrwt>
<rscale>  0 0.12499948E+03</rscale>
<asrwt>0</asrwt>
<pdfrwt beam="1">  1        4 0.19375099E-01 0.12499948E+03</pdfrwt>
<pdfrwt beam="2">  1       -4 0.47718389E-02 0.12499948E+03</pdfrwt>
<totfact> 0.97934198E+03</totfact>
</mgrwt>
</event>
<event>
 5    1  0.3273105E-002  0.1250012E+03  0.7818608E-02  0.1235067E+00
         -4   -1    0    0    0  501 -0.00000000000E+00  0.00000000000E+00  0.22433311552E+02  0.22469231566E+02  0.12700000000E+01 0.  1.
          4   -1    0    0  501    0  0.00000000000E+00 -0.00000000000E+00 -0.17395299915E+03  0.17395763511E+03  0.12700000000E+01 0.  1.
         25    2    1    2    0    0  0.00000000000E+00  0.00000000000E+00 -0.15151968760E+03  0.19642686668E+03  0.12500119289E+03 0.  0.
    9000005    1    3    3    0    0 -0.23934075166E+02 -0.57352459388E+02 -0.86085747483E+02  0.10617862530E+03  0.10000000000E+01 0.  0.
    9000005    1    3    3    0    0  0.23934075166E+02  0.57352459388E+02 -0.65433940119E+02  0.90248241376E+02  0.10000000000E+01 0.  0.
<mgrwt>
<rscale>  0 0.12500119E+03</rscale>
<asrwt>0</asrwt>
<pdfrwt beam="2">  1        4 0.26765119E-01 0.12500119E+03</pdfrwt>
<pdfrwt beam="1">  1       -4 0.34543985E-02 0.12500119E+03</pdfrwt>
<totfact> 0.90738507E+03</totfact>
</mgrwt>
</event>
<event>
 5    1  0.3273105E-002  0.1250008E+03  0.7818608E-02  0.1235068E+00
         -4   -1    0    0    0  501 -0.00000000000E+00  0.00000000000E+00  0.60067277050E+03  0.60067411308E+03  0.12700000000E+01 0.  1.
          4   -1    0    0  501    0  0.00000000000E+00 -0.00000000000E+00 -0.64398409414E+01  0.65638747208E+01  0.12700000000E+01 0.  1.
         25    2    1    2    0    0  0.00000000000E+00  0.00000000000E+00  0.59423292956E+03  0.60723798780E+03  0.12500079701E+03 0.  0.
    9000005    1    3    3    0    0  0.10996060185E+02  0.23286780439E+02  0.20511367304E+02  0.32937875941E+02  0.10000000000E+01 0.  0.
    9000005    1    3    3    0    0 -0.10996060185E+02 -0.23286780439E+02  0.57372156226E+03  0.57430011186E+03  0.10000000000E+01 0.  0.
<mgrwt>
<rscale>  0 0.12500080E+03</rscale>
<asrwt>0</asrwt>
<pdfrwt beam="2">  1        4 0.10003892E-02 0.12500080E+03</pdfrwt>
<pdfrwt beam="1">  1       -4 0.92420830E-01 0.12500080E+03</pdfrwt>
<totfact> 0.48413050E+03</totfact>
</mgrwt>
</event>
<event>
 5    1  0.3273105E-002  0.1250024E+03  0.7818608E-02  0.1235066E+00
         -4   -1    0    0    0  501 -0.00000000000E+00  0.00000000000E+00  0.84717596233E+01  0.85664234728E+01  0.12700000000E+01 0. -1.
          4   -1    0    0  501    0  0.00000000000E+00 -0.00000000000E+00 -0.45845093979E+03  0.45845269886E+03  0.12700000000E+01 0. -1.
         25    2    1    2    0    0  0.00000000000E+00  0.00000000000E+00 -0.44997918017E+03  0.46701912234E+03  0.12500239215E+03 0.  0.
    9000005    1    3    3    0    0 -0.36321071187E+02 -0.26965786542E+02 -0.38607604754E+03  0.38871852071E+03  0.10000000000E+01 0.  0.
    9000005    1    3    3    0    0  0.36321071187E+02  0.26965786542E+02 -0.63903132628E+02  0.78300601630E+02  0.10000000000E+01 0.  0.
<mgrwt>
<rscale>  0 0.12500239E+03</rscale>
<asrwt>0</asrwt>
<pdfrwt beam="2">  1        4 0.70538312E-01 0.12500239E+03</pdfrwt>
<pdfrwt beam="1">  1       -4 0.13107651E-02 0.12500239E+03</pdfrwt>
<totfact> 0.58514197E+03</totfact>
</mgrwt>
</event>
<event>
 5    1  0.3273105E-002  0.1250059E+03  0.7818608E-02  0.1235060E+00
          4   -1    0    0  501    0  0.00000000000E+00  0.00000000000E+00  0.18552016496E+03  0.18552451188E+03  0.12700000000E+01 0.  1.
         -4   -1    0    0    0  501 -0.00000000000E+00 -0.00000000000E+00 -0.21033891031E+02  0.21072196655E+02  0.12700000000E+01 0.  1.
         25    2    1    2    0    0  0.00000000000E+00  0.00000000000E+00  0.16448627393E+03  0.20659670853E+03  0.12500586252E+03 0.  0.
    9000005    1    3    3    0    0 -0.35931605959E+02  0.12525896738E+02  0.16417483876E+03  0.16852998569E+03  0.10000000000E+01 0.  0.
    9000005    1    3    3    0    0  0.35931605959E+02 -0.12525896738E+02  0.31143517047E+00  0.38066722839E+02  0.10000000000E+01 0.  0.
<mgrwt>
<rscale>  0 0.12500586E+03</rscale>
<asrwt>0</asrwt>
<pdfrwt beam="1">  1        4 0.28544844E-01 0.12500586E+03</pdfrwt>
<pdfrwt beam="2">  1       -4 0.32392643E-02 0.12500586E+03</pdfrwt>
<totfact> 0.89023045E+03</totfact>
</mgrwt>
</event>
<event>
 5    1  0.3273105E-002  0.1250007E+03  0.7818608E-02  0.1235068E+00
         -4   -1    0    0    0  501 -0.00000000000E+00  0.00000000000E+00  0.23119285426E+03  0.23119634245E+03  0.12700000000E+01 0.  1.
          4   -1    0    0  501    0  0.00000000000E+00 -0.00000000000E+00 -0.16868779170E+02  0.16916518870E+02  0.12700000000E+01 0.  1.
         25    2    1    2    0    0  0.00000000000E+00  0.00000000000E+00  0.21432407509E+03  0.24811286132E+03  0.12500073115E+03 0.  0.
    9000005    1    3    3    0    0 -0.41544247074E+02  0.27212297393E+02  0.18245360021E+03  0.18909455261E+03  0.10000000000E+01 0.  0.
    9000005    1    3    3    0    0  0.41544247074E+02 -0.27212297393E+02  0.31870474878E+02  0.59018308713E+02  0.10000000000E+01 0.  0.
<mgrwt>
<rscale>  0 0.12500073E+03</rscale>
<asrwt>0</asrwt>
<pdfrwt beam="2">  1        4 0.25991376E-02 0.12500073E+03</pdfrwt>
<pdfrwt beam="1">  1       -4 0.35572069E-01 0.12500073E+03</pdfrwt>
<totfact> 0.82602401E+03</totfact>
</mgrwt>
</event>
<event>
 5    1  0.3273105E-002  0.1250007E+03  0.7818608E-02  0.1235068E+00
          4   -1    0    0  501    0  0.00000000000E+00  0.00000000000E+00  0.36226840226E+03  0.36227062836E+03  0.12700000000E+01 0.  1.
         -4   -1    0    0    0  501 -0.00000000000E+00 -0.00000000000E+00 -0.10743203804E+02  0.10818009428E+02  0.12700000000E+01 0.  1.
         25    2    1    2    0    0  0.00000000000E+00  0.00000000000E+00  0.35152519845E+03  0.37308863779E+03  0.12500066600E+03 0.  0.
    9000005    1    3    3    0    0 -0.19685394297E+02 -0.55314037481E+02  0.23964717593E+03  0.24673655267E+03  0.10000000000E+01 0.  0.
    9000005    1    3    3    0    0  0.19685394297E+02  0.55314037481E+02  0.11187802252E+03  0.12635208512E+03  0.10000000000E+01 0.  0.
<mgrwt>
<rscale>  0 0.12500067E+03</rscale>
<asrwt>0</asrwt>
<pdfrwt beam="1">  1        4 0.55739519E-01 0.12500067E+03</pdfrwt>
<pdfrwt beam="2">  1       -4 0.16587263E-02 0.12500067E+03</pdfrwt>
<totfact> 0.67256053E+03</totfact>
</mgrwt>
</event>
<event>
 5    1  0.3273105E-002  0.1250081E+03  0.7818608E-02  0.1235057E+00
          4   -1    0    0  501    0  0.00000000000E+00  0.00000000000E+00  0.36845188360E+03  0.36845407234E+03  0.12700000000E+01 0. -1.
         -4   -1    0    0    0  501 -0.00000000000E+00 -0.00000000000E+00 -0.10562901690E+02  0.10638975144E+02  0.12700000000E+01 0. -1.
         25    2    1    2    0    0  0.00000000000E+00  0.00000000000E+00  0.35788898191E+03  0.37909304749E+03  0.12500806087E+03 0.  0.
    9000005    1    3    3    0    0 -0.56084219286E+02 -0.11753746049E+02  0.10330299520E+03  0.11813593448E+03  0.10000000000E+01 0.  0.
    9000005    1    3    3    0    0  0.56084219286E+02  0.11753746049E+02  0.25458598671E+03  0.26095711301E+03  0.10000000000E+01 0.  0.
<mgrwt>
<rscale>  0 0.12500806E+03</rscale>
<asrwt>0</asrwt>
<pdfrwt beam="1">  1        4 0.56690932E-01 0.12500806E+03</pdfrwt>
<pdfrwt beam="2">  1       -4 0.16310818E-02 0.12500806E+03</pdfrwt>
<totfact> 0.66626368E+03</totfact>
</mgrwt>
</event>
<event>
 5    1  0.3273105E-002  0.1249987E+03  0.7818608E-02  0.1235071E+00
          4   -1    0    0  501    0  0.00000000000E+00  0.00000000000E+00  0.20343806241E+02  0.20383408753E+02  0.12700000000E+01 0. -1.
         -4   -1    0    0    0  501 -0.00000000000E+00 -0.00000000000E+00 -0.19177929384E+03  0.19178349889E+03  0.12700000000E+01 0. -1.
         25    2    1    2    0    0  0.00000000000E+00  0.00000000000E+00 -0.17143548760E+03  0.21216690764E+03  0.12499868115E+03 0.  0.
    9000005    1    3    3    0    0 -0.63517804966E+01 -0.23313110073E+02  0.12102257594E+02  0.27042759764E+02  0.10000000000E+01 0.  0.
    9000005    1    3    3    0    0  0.63517804966E+01  0.23313110073E+02 -0.18353774519E+03  0.18512414788E+03  0.10000000000E+01 0.  0.
<mgrwt>
<rscale>  0 0.12499868E+03</rscale>
<asrwt>0</asrwt>
<pdfrwt beam="1">  1        4 0.31331863E-02 0.12499868E+03</pdfrwt>
<pdfrwt beam="2">  1       -4 0.29507875E-01 0.12499868E+03</pdfrwt>
<totfact> 0.88125813E+03</totfact>
</mgrwt>
</event>
<event>
 5    1  0.3273105E-002  0.1250018E+03  0.7818608E-02  0.1235066E+00
          4   -1    0    0  501    0  0.00000000000E+00  0.00000000000E+00  0.17760270019E+02  0.17805619651E+02  0.12700000000E+01 0. -1.
         -4   -1    0    0    0  501 -0.00000000000E+00 -0.00000000000E+00 -0.21962197091E+03  0.21962564287E+03  0.12700000000E+01 0. -1.
         25    2    1    2    0    0  0.00000000000E+00  0.00000000000E+00 -0.20186170089E+03  0.23743126252E+03  0.12500183253E+03 0.  0.
    9000005    1    3    3    0    0 -0.35721964188E+02  0.48751907200E+02 -0.13111656984E+03  0.14437923005E+03  0.10000000000E+01 0.  0.
    9000005    1    3    3    0    0  0.35721964188E+02 -0.48751907200E+02 -0.70745131049E+02  0.93052032477E+02  0.10000000000E+01 0.  0.
<mgrwt>
<rscale>  0 0.12500183E+03</rscale>
<asrwt>0</asrwt>
<pdfrwt beam="1">  1        4 0.27361203E-02 0.12500183E+03</pdfrwt>
<pdfrwt beam="2">  1       -4 0.33791764E-01 0.12500183E+03</pdfrwt>
<totfact> 0.84177990E+03</totfact>
</mgrwt>
</event>
<event>
 5    1  0.3273105E-002  0.1249975E+03  0.7818608E-02  0.1235073E+00
         -4   -1    0    0    0  501 -0.00000000000E+00  0.00000000000E+00  0.42935563567E+02  0.42954342258E+02  0.12700000000E+01 0. -1.
          4   -1    0    0  501    0  0.00000000000E+00 -0.00000000000E+00 -0.90932583816E+02  0.90941452041E+02  0.12700000000E+01 0. -1.
         25    2    1    2    0    0  0.00000000000E+00  0.00000000000E+00 -0.47997020248E+02  0.13389579430E+03  0.12499747909E+03 0.  0.
    9000005    1    3    3    0    0 -0.16572763912E+02  0.53048938647E+02  0.66053513631E+01  0.55977469235E+02  0.10000000000E+01 0.  0.
    9000005    1    3    3    0    0  0.16572763912E+02 -0.53048938647E+02 -0.54602371612E+02  0.77918325065E+02  0.10000000000E+01 0.  0.
<mgrwt>
<rscale>  0 0.12499748E+03</rscale>
<asrwt>0</asrwt>
<pdfrwt beam="2">  1        4 0.13991755E-01 0.12499748E+03</pdfrwt>
<pdfrwt beam="1">  1       -4 0.66075980E-02 0.12499748E+03</pdfrwt>
<totfact> 0.10261981E+04</totfact>
</mgrwt>
</event>
<event>
 5    1  0.3273105E-002  0.1250000E+03  0.7818608E-02  0.1235069E+00
         -4   -1    0    0    0  501 -0.00000000000E+00  0.00000000000E+00  0.16632400347E+02  0.16680816566E+02  0.12700000000E+01 0. -1.
          4   -1    0    0  501    0  0.00000000000E+00 -0.00000000000E+00 -0.23446648329E+03  0.23446992277E+03  0.12700000000E+01 0. -1.
         25    2    1    2    0    0  0.00000000000E+00  0.00000000000E+00 -0.21783408294E+03  0.25115073934E+03  0.12500002472E+03 0.  0.
    9000005    1    3    3    0    0  0.15764843144E+01  0.11074420908E+02  0.14614355659E+02  0.18431155486E+02  0.10000000000E+01 0.  0.
    9000005    1    3    3    0    0 -0.15764843144E+01 -0.11074420908E+02 -0.23244843860E+03  0.23271958385E+03  0.10000000000E+01 0.  0.
<mgrwt>
<rscale>  0 0.12500002E+03</rscale>
<asrwt>0</asrwt>
<pdfrwt beam="2">  1        4 0.36075753E-01 0.12500002E+03</pdfrwt>
<pdfrwt beam="1">  1       -4 0.25628199E-02 0.12500002E+03</pdfrwt>
<totfact> 0.82164150E+03</totfact>
</mgrwt>
</event>
<event>
 5    1  0.3273105E-002  0.1250083E+03  0.7818608E-02  0.1235056E+00
         -4   -1    0    0    0  501 -0.00000000000E+00  0.00000000000E+00  0.53989141349E+03  0.53989290721E+03  0.12700000000E+01 0.  1.
          4   -1    0    0  501    0  0.00000000000E+00 -0.00000000000E+00 -0.71789679075E+01  0.72904375875E+01  0.12700000000E+01 0.  1.
         25    2    1    2    0    0  0.00000000000E+00  0.00000000000E+00  0.53271244558E+03  0.54718334480E+03  0.12500825233E+03 0.  0.
    9000005    1    3    3    0    0 -0.46381542379E+02 -0.41354961135E+02  0.23722726276E+03  0.24523306156E+03  0.10000000000E+01 0.  0.
    9000005    1    3    3    0    0  0.46381542379E+02  0.41354961135E+02  0.29548518282E+03  0.30195028324E+03  0.10000000000E+01 0.  0.
<mgrwt>
<rscale>  0 0.12500825E+03</rscale>
<asrwt>0</asrwt>
<pdfrwt beam="2">  1        4 0.11131463E-02 0.12500825E+03</pdfrwt>
<pdfrwt beam="1">  1       -4 0.83068893E-01 0.12500825E+03</pdfrwt>
<totfact> 0.52371332E+03</totfact>
</mgrwt>
</event>
<event>
 5    1  0.3273105E-002  0.1249950E+03  0.7818608E-02  0.1235077E+00
          4   -1    0    0  501    0  0.00000000000E+00  0.00000000000E+00  0.67925965672E+02  0.67937837120E+02  0.12700000000E+01 0. -1.
         -4   -1    0    0    0  501 -0.00000000000E+00 -0.00000000000E+00 -0.57478978223E+02  0.57493006858E+02  0.12700000000E+01 0. -1.
         25    2    1    2    0    0  0.00000000000E+00  0.00000000000E+00  0.10446987449E+02  0.12543084398E+03  0.12499502820E+03 0.  0.
    9000005    1    3    3    0    0 -0.31579043256E+02 -0.16995461275E+02  0.56576697971E+02  0.66992569963E+02  0.10000000000E+01 0.  0.
    9000005    1    3    3    0    0  0.31579043256E+02  0.16995461275E+02 -0.46129710522E+02  0.58438274014E+02  0.10000000000E+01 0.  0.
<mgrwt>
<rscale>  0 0.12499503E+03</rscale>
<asrwt>0</asrwt>
<pdfrwt beam="1">  1        4 0.10452141E-01 0.12499503E+03</pdfrwt>
<pdfrwt beam="2">  1       -4 0.88449120E-02 0.12499503E+03</pdfrwt>
<totfact> 0.10444655E+04</totfact>
</mgrwt>
</event>
<event>
 5    1  0.3273105E-002  0.1250014E+03  0.7818608E-02  0.1235067E+00
         -4   -1    0    0    0  501 -0.00000000000E+00  0.00000000000E+00  0.75136780002E+02  0.75147512328E+02  0.12700000000E+01 0.  1.
          4   -1    0    0  501    0  0.00000000000E+00 -0.00000000000E+00 -0.51967474805E+02  0.51982990849E+02  0.12700000000E+01 0.  1.
         25    2    1    2    0    0  0.00000000000E+00  0.00000000000E+00  0.23169305197E+02  0.12713050318E+03  0.12500139253E+03 0.  0.
    9000005    1    3    3    0    0  0.49004305956E+01 -0.60459640653E+02  0.26872472985E+02  0.66351429315E+02  0.10000000000E+01 0.  0.
    9000005    1    3    3    0    0 -0.49004305956E+01  0.60459640653E+02 -0.37031677877E+01  0.60779073862E+02  0.10000000000E+01 0.  0.
<mgrwt>
<rscale>  0 0.12500139E+03</rscale>
<asrwt>0</asrwt>
<pdfrwt beam="2">  1        4 0.79970153E-02 0.12500139E+03</pdfrwt>
<pdfrwt beam="1">  1       -4 0.11561524E-01 0.12500139E+03</pdfrwt>
<totfact> 0.10405985E+04</totfact>
</mgrwt>
</event>
<event>
 5    1  0.3273105E-002  0.1250003E+03  0.7818608E-02  0.1235069E+00
         -4   -1    0    0    0  501 -0.00000000000E+00  0.00000000000E+00  0.26185907703E+03  0.26186215672E+03  0.12700000000E+01 0. -1.
          4   -1    0    0  501    0  0.00000000000E+00 -0.00000000000E+00 -0.14887237844E+02  0.14941310204E+02  0.12700000000E+01 0. -1.
         25    2    1    2    0    0  0.00000000000E+00  0.00000000000E+00  0.24697183919E+03  0.27680346692E+03  0.12500027980E+03 0.  0.
    9000005    1    3    3    0    0 -0.21936285015E+02  0.58324038383E+02  0.13396026438E+03  0.14774723851E+03  0.10000000000E+01 0.  0.
    9000005    1    3    3    0    0  0.21936285015E+02 -0.58324038383E+02  0.11301157480E+03  0.12905622842E+03  0.10000000000E+01 0.  0.
<mgrwt>
<rscale>  0 0.12500028E+03</rscale>
<asrwt>0</asrwt>
<pdfrwt beam="2">  1        4 0.22947405E-02 0.12500028E+03</pdfrwt>
<pdfrwt beam="1">  1       -4 0.40290410E-01 0.12500028E+03</pdfrwt>
<totfact> 0.78603368E+03</totfact>
</mgrwt>
</event>
<event>
 5    1  0.3273105E-002  0.1250024E+03  0.7818608E-02  0.1235066E+00
         -4   -1    0    0    0  501 -0.00000000000E+00  0.00000000000E+00  0.61048022997E+02  0.61061231660E+02  0.12700000000E+01 0.  1.
          4   -1    0    0  501    0  0.00000000000E+00 -0.00000000000E+00 -0.63962485903E+02  0.63975092832E+02  0.12700000000E+01 0.  1.
         25    2    1    2    0    0  0.00000000000E+00  0.00000000000E+00 -0.29144629057E+01  0.12503632449E+03  0.12500235337E+03 0.  0.
    9000005    1    3    3    0    0 -0.59777331409E+02  0.14624356019E+02  0.94175190846E+01  0.62264683449E+02  0.10000000000E+01 0.  0.
    9000005    1    3    3    0    0  0.59777331409E+02 -0.14624356019E+02 -0.12331981990E+02  0.62771641042E+02  0.10000000000E+01 0.  0.
<mgrwt>
<rscale>  0 0.12500235E+03</rscale>
<asrwt>0</asrwt>
<pdfrwt beam="2">  1        4 0.98423683E-02 0.12500235E+03</pdfrwt>
<pdfrwt beam="1">  1       -4 0.93939893E-02 0.12500235E+03</pdfrwt>
<totfact> 0.10451518E+04</totfact>
</mgrwt>
</event>
<event>
 5    1  0.3273105E-002  0.1249966E+03  0.7818608E-02  0.1235075E+00
          4   -1    0    0  501    0  0.00000000000E+00  0.00000000000E+00  0.72013662460E+03  0.72013774445E+03  0.12700000000E+01 0.  1.
         -4   -1    0    0    0  501 -0.00000000000E+00 -0.00000000000E+00 -0.53485425853E+01  0.54972545681E+01  0.12700000000E+01 0.  1.
         25    2    1    2    0    0  0.00000000000E+00  0.00000000000E+00  0.71478808201E+03  0.72563499902E+03  0.12499659843E+03 0.  0.
    9000005    1    3    3    0    0  0.28405311358E+02  0.44968324035E+02  0.16696581846E+03  0.17523583085E+03  0.10000000000E+01 0.  0.
    9000005    1    3    3    0    0 -0.28405311358E+02 -0.44968324035E+02  0.54782226355E+03  0.55039916817E+03  0.10000000000E+01 0.  0.
<mgrwt>
<rscale>  0 0.12499660E+03</rscale>
<asrwt>0</asrwt>
<pdfrwt beam="1">  1        4 0.11080173E+00 0.12499660E+03</pdfrwt>
<pdfrwt beam="2">  1       -4 0.83437854E-03 0.12499660E+03</pdfrwt>
<totfact> 0.41770610E+03</totfact>
</mgrwt>
</event>
<event>
 5    1  0.3273105E-002  0.1249991E+03  0.7818608E-02  0.1235071E+00
         -4   -1    0    0    0  501 -0.00000000000E+00  0.00000000000E+00  0.48834525282E+01  0.50458902679E+01  0.12700000000E+01 0. -1.
          4   -1    0    0  501    0  0.00000000000E+00 -0.00000000000E+00 -0.78663560518E+03  0.78663663036E+03  0.12700000000E+01 0. -1.
         25    2    1    2    0    0  0.00000000000E+00  0.00000000000E+00 -0.78175215265E+03  0.79168252063E+03  0.12499914122E+03 0.  0.
    9000005    1    3    3    0    0  0.57378591142E+02  0.24601100957E+02 -0.37332480002E+03  0.37851013619E+03  0.10000000000E+01 0.  0.
    9000005    1    3    3    0    0 -0.57378591142E+02 -0.24601100957E+02 -0.40842735263E+03  0.41317238444E+03  0.10000000000E+01 0.  0.
<mgrwt>
<rscale>  0 0.12499914E+03</rscale>
<asrwt>0</asrwt>
<pdfrwt beam="2">  1        4 0.12103334E+00 0.12499914E+03</pdfrwt>
<pdfrwt beam="1">  1       -4 0.76387508E-03 0.12499914E+03</pdfrwt>
<totfact> 0.38639502E+03</totfact>
</mgrwt>
</event>
<event>
 5    1  0.3273105E-002  0.1249909E+03  0.7818608E-02  0.1235084E+00
          4   -1    0    0  501    0  0.00000000000E+00  0.00000000000E+00  0.10070512917E+03  0.10071313689E+03  0.12700000000E+01 0. -1.
         -4   -1    0    0    0  501 -0.00000000000E+00 -0.00000000000E+00 -0.38763370949E+02  0.38784169804E+02  0.12700000000E+01 0. -1.
         25    2    1    2    0    0  0.00000000000E+00  0.00000000000E+00  0.61941758222E+02  0.13949730669E+03  0.12499086831E+03 0.  0.
    9000005    1    3    3    0    0 -0.56313254411E+02 -0.27077628294E+02  0.30360899294E+02  0.69477800644E+02  0.10000000000E+01 0.  0.
    9000005    1    3    3    0    0  0.56313254411E+02  0.27077628294E+02  0.31580858928E+02  0.70019506046E+02  0.10000000000E+01 0.  0.
<mgrwt>
<rscale>  0 0.12499087E+03</rscale>
<asrwt>0</asrwt>
<pdfrwt beam="1">  1        4 0.15495312E-01 0.12499087E+03</pdfrwt>
<pdfrwt beam="2">  1       -4 0.59658116E-02 0.12499087E+03</pdfrwt>
<totfact> 0.10146102E+04</totfact>
</mgrwt>
</event>
<event>
 5    1  0.3273105E-002  0.1249650E+03  0.7818608E-02  0.1235124E+00
          4   -1    0    0  501    0  0.00000000000E+00  0.00000000000E+00  0.93587388104E+02  0.93596004788E+02  0.12700000000E+01 0.  1.
         -4   -1    0    0    0  501 -0.00000000000E+00 -0.00000000000E+00 -0.41695510438E+02  0.41714847365E+02  0.12700000000E+01 0.  1.
         25    2    1    2    0    0  0.00000000000E+00  0.00000000000E+00  0.51891877666E+02  0.13531085215E+03  0.12496503408E+03 0.  0.
    9000005    1    3    3    0    0 -0.14825362146E+02  0.59966533087E+02  0.15829618134E+02  0.63775804688E+02  0.10000000000E+01 0.  0.
    9000005    1    3    3    0    0  0.14825362146E+02 -0.59966533087E+02  0.36062259532E+02  0.71535047465E+02  0.10000000000E+01 0.  0.
<mgrwt>
<rscale>  0 0.12496503E+03</rscale>
<asrwt>0</asrwt>
<pdfrwt beam="1">  1        4 0.14400210E-01 0.12496503E+03</pdfrwt>
<pdfrwt beam="2">  1       -4 0.64168443E-02 0.12496503E+03</pdfrwt>
<totfact> 0.10239595E+04</totfact>
</mgrwt>
</event>
<event>
 5    1  0.3273105E-002  0.1250013E+03  0.7818608E-02  0.1235067E+00
          4   -1    0    0  501    0  0.00000000000E+00  0.00000000000E+00  0.17274845163E+03  0.17275311992E+03  0.12700000000E+01 0. -1.
         -4   -1    0    0    0  501 -0.00000000000E+00 -0.00000000000E+00 -0.22590014330E+02  0.22625685569E+02  0.12700000000E+01 0. -1.
         25    2    1    2    0    0  0.00000000000E+00  0.00000000000E+00  0.15015843730E+03  0.19537880549E+03  0.12500128535E+03 0.  0.
    9000005    1    3    3    0    0  0.59498238801E+02  0.14626950856E+01  0.45293625209E+02  0.74797676314E+02  0.10000000000E+01 0.  0.
    9000005    1    3    3    0    0 -0.59498238801E+02 -0.14626950856E+01  0.10486481209E+03  0.12058112917E+03  0.10000000000E+01 0.  0.
<mgrwt>
<rscale>  0 0.12500129E+03</rscale>
<asrwt>0</asrwt>
<pdfrwt beam="1">  1        4 0.26579787E-01 0.12500129E+03</pdfrwt>
<pdfrwt beam="2">  1       -4 0.34784899E-02 0.12500129E+03</pdfrwt>
<totfact> 0.90917135E+03</totfact>
</mgrwt>
</event>
<event>
 5    1  0.3273105E-002  0.1249981E+03  0.7818608E-02  0.1235072E+00
         -4   -1    0    0    0  501 -0.00000000000E+00  0.00000000000E+00  0.42614257649E+03  0.42614446893E+03  0.12700000000E+01 0. -1.
          4   -1    0    0  501    0  0.00000000000E+00 -0.00000000000E+00 -0.91203393292E+01  0.92083380411E+01  0.12700000000E+01 0. -1.
         25    2    1    2    0    0  0.00000000000E+00  0.00000000000E+00  0.41702223716E+03  0.43535280697E+03  0.12499808098E+03 0.  0.
    9000005    1    3    3    0    0  0.49782942531E+02  0.10585072515E+02  0.82224086586E+02  0.96706698538E+02  0.10000000000E+01 0.  0.
    9000005    1    3    3    0    0 -0.49782942531E+02 -0.10585072515E+02  0.33479815058E+03  0.33864610843E+03  0.10000000000E+01 0.  0.
<mgrwt>
<rscale>  0 0.12499808E+03</rscale>
<asrwt>0</asrwt>
<pdfrwt beam="2">  1        4 0.14100441E-02 0.12499808E+03</pdfrwt>
<pdfrwt beam="1">  1       -4 0.65567299E-01 0.12499808E+03</pdfrwt>
<totfact> 0.61256368E+03</totfact>
</mgrwt>
</event>
<event>
 5    1  0.3273105E-002  0.1249811E+03  0.7818608E-02  0.1235099E+00
          4   -1    0    0  501    0  0.00000000000E+00  0.00000000000E+00  0.21945114116E+03  0.21945481598E+03  0.12700000000E+01 0.  1.
         -4   -1    0    0    0  501 -0.00000000000E+00 -0.00000000000E+00 -0.17768211282E+02  0.17813540697E+02  0.12700000000E+01 0.  1.
         25    2    1    2    0    0  0.00000000000E+00  0.00000000000E+00  0.20168292988E+03  0.23726835668E+03  0.12498107407E+03 0.  0.
    9000005    1    3    3    0    0 -0.64095701748E+01 -0.27791815400E+02 -0.46984995150E+01  0.28923061573E+02  0.10000000000E+01 0.  0.
    9000005    1    3    3    0    0  0.64095701748E+01  0.27791815400E+02  0.20638142940E+03  0.20834529511E+03  0.10000000000E+01 0.  0.
<mgrwt>
<rscale>  0 0.12498107E+03</rscale>
<asrwt>0</asrwt>
<pdfrwt beam="1">  1        4 0.33765483E-01 0.12498107E+03</pdfrwt>
<pdfrwt beam="2">  1       -4 0.27373405E-02 0.12498107E+03</pdfrwt>
<totfact> 0.84241432E+03</totfact>
</mgrwt>
</event>
<event>
 5    1  0.3273105E-002  0.1249987E+03  0.7818608E-02  0.1235071E+00
          4   -1    0    0  501    0  0.00000000000E+00  0.00000000000E+00  0.66891614601E+01  0.68086548627E+01  0.12700000000E+01 0. -1.
         -4   -1    0    0    0  501 -0.00000000000E+00 -0.00000000000E+00 -0.57866529565E+03  0.57866668929E+03  0.12700000000E+01 0. -1.
         25    2    1    2    0    0  0.00000000000E+00  0.00000000000E+00 -0.57197613419E+03  0.58547534415E+03  0.12499872209E+03 0.  0.
    9000005    1    3    3    0    0 -0.33944852207E+02 -0.26915028985E+02 -0.49694333132E+03  0.49882897502E+03  0.10000000000E+01 0.  0.
    9000005    1    3    3    0    0  0.33944852207E+02  0.26915028985E+02 -0.75032802868E+02  0.86646369126E+02  0.10000000000E+01 0.  0.
<mgrwt>
<rscale>  0 0.12499872E+03</rscale>
<asrwt>0</asrwt>
<pdfrwt beam="1">  1        4 0.10384012E-02 0.12499872E+03</pdfrwt>
<pdfrwt beam="2">  1       -4 0.89034690E-01 0.12499872E+03</pdfrwt>
<totfact> 0.49798886E+03</totfact>
</mgrwt>
</event>
<event>
 5    1  0.3273105E-002  0.1250010E+03  0.7818608E-02  0.1235068E+00
         -4   -1    0    0    0  501 -0.00000000000E+00  0.00000000000E+00  0.42190204415E+01  0.44060224109E+01  0.12700000000E+01 0.  1.
          4   -1    0    0  501    0  0.00000000000E+00 -0.00000000000E+00 -0.90561907939E+03  0.90561996989E+03  0.12700000000E+01 0.  1.
         25    2    1    2    0    0  0.00000000000E+00  0.00000000000E+00 -0.90140005895E+03  0.91002599230E+03  0.12500096153E+03 0.  0.
    9000005    1    3    3    0    0  0.13390073729E+02  0.15199616559E+02 -0.88109111522E+03  0.88132450081E+03  0.10000000000E+01 0.  0.
    9000005    1    3    3    0    0 -0.13390073729E+02 -0.15199616559E+02 -0.20308943737E+02  0.28701491490E+02  0.10000000000E+01 0.  0.
<mgrwt>
<rscale>  0 0.12500096E+03</rscale>
<asrwt>0</asrwt>
<pdfrwt beam="2">  1        4 0.13934031E+00 0.12500096E+03</pdfrwt>
<pdfrwt beam="1">  1       -4 0.66353406E-03 0.12500096E+03</pdfrwt>
<totfact> 0.33778239E+03</totfact>
</mgrwt>
</event>
<event>
 5    1  0.3273105E-002  0.1250013E+03  0.7818608E-02  0.1235067E+00
          4   -1    0    0  501    0  0.00000000000E+00  0.00000000000E+00  0.16103358083E+03  0.16103858871E+03  0.12700000000E+01 0. -1.
         -4   -1    0    0    0  501 -0.00000000000E+00 -0.00000000000E+00 -0.24235871442E+02  0.24269123687E+02  0.12700000000E+01 0. -1.
         25    2    1    2    0    0  0.00000000000E+00  0.00000000000E+00  0.13679770938E+03  0.18530771240E+03  0.12500133992E+03 0.  0.
    9000005    1    3    3    0    0  0.43601016840E+02  0.22989812477E+02  0.12534780871E+03  0.13469466692E+03  0.10000000000E+01 0.  0.
    9000005    1    3    3    0    0 -0.43601016840E+02 -0.22989812477E+02  0.11449900671E+02  0.50613045479E+02  0.10000000000E+01 0.  0.
<mgrwt>
<rscale>  0 0.12500134E+03</rscale>
<asrwt>0</asrwt>
<pdfrwt beam="1">  1        4 0.24777340E-01 0.12500134E+03</pdfrwt>
<pdfrwt beam="2">  1       -4 0.37315387E-02 0.12500134E+03</pdfrwt>
<totfact> 0.92667446E+03</totfact>
</mgrwt>
</event>
<event>
 5    1  0.3273105E-002  0.1250003E+03  0.7818608E-02  0.1235069E+00
         -4   -1    0    0    0  501 -0.00000000000E+00  0.00000000000E+00  0.13098433065E+03  0.13099048735E+03  0.12700000000E+01 0.  1.
          4   -1    0    0  501    0  0.00000000000E+00 -0.00000000000E+00 -0.29802024200E+02  0.29829072168E+02  0.12700000000E+01 0.  1.
         25    2    1    2    0    0  0.00000000000E+00  0.00000000000E+00  0.10118230645E+03  0.16081955952E+03  0.12500028634E+03 0.  0.
    9000005    1    3    3    0    0 -0.37009260462E+01 -0.58604111737E+02  0.78098411742E+02  0.97716429953E+02  0.10000000000E+01 0.  0.
    9000005    1    3    3    0    0  0.37009260462E+01  0.58604111737E+02  0.23083894712E+02  0.63103129568E+02  0.10000000000E+01 0.  0.
<mgrwt>
<rscale>  0 0.12500029E+03</rscale>
<asrwt>0</asrwt>
<pdfrwt beam="2">  1        4 0.45874810E-02 0.12500029E+03</pdfrwt>
<pdfrwt beam="1">  1       -4 0.20153990E-01 0.12500029E+03</pdfrwt>
<totfact> 0.97184387E+03</totfact>
</mgrwt>
</event>
<event>
 5    1  0.3273105E-002  0.1250018E+03  0.7818608E-02  0.1235066E+00
         -4   -1    0    0    0  501 -0.00000000000E+00  0.00000000000E+00  0.32249660703E+03  0.32249910766E+03  0.12700000000E+01 0. -1.
          4   -1    0    0  501    0  0.00000000000E+00 -0.00000000000E+00 -0.12077041795E+02  0.12143633662E+02  0.12700000000E+01 0. -1.
         25    2    1    2    0    0  0.00000000000E+00  0.00000000000E+00  0.31041956523E+03  0.33464274133E+03  0.12500183136E+03 0.  0.
    9000005    1    3    3    0    0  0.53478304495E+02  0.44798468552E+01  0.69485359630E+02  0.87802125729E+02  0.10000000000E+01 0.  0.
    9000005    1    3    3    0    0 -0.53478304495E+02 -0.44798468552E+01  0.24093420560E+03  0.24684061560E+03  0.10000000000E+01 0.  0.
<mgrwt>
<rscale>  0 0.12500183E+03</rscale>
<asrwt>0</asrwt>
<pdfrwt beam="2">  1        4 0.18633213E-02 0.12500183E+03</pdfrwt>
<pdfrwt beam="1">  1       -4 0.49620177E-01 0.12500183E+03</pdfrwt>
<totfact> 0.71444856E+03</totfact>
</mgrwt>
</event>
<event>
 5    1  0.3273105E-002  0.1249994E+03  0.7818608E-02  0.1235070E+00
          4   -1    0    0  501    0  0.00000000000E+00  0.00000000000E+00  0.50034618695E+02  0.50050733940E+02  0.12700000000E+01 0. -1.
         -4   -1    0    0    0  501 -0.00000000000E+00 -0.00000000000E+00 -0.78036365540E+02  0.78046699140E+02  0.12700000000E+01 0. -1.
         25    2    1    2    0    0  0.00000000000E+00  0.00000000000E+00 -0.28001746845E+02  0.12809743308E+03  0.12499941814E+03 0.  0.
    9000005    1    3    3    0    0 -0.61405466923E+02  0.11563893259E+02 -0.13051280192E+02  0.63841138070E+02  0.10000000000E+01 0.  0.
    9000005    1    3    3    0    0  0.61405466923E+02 -0.11563893259E+02 -0.14950466653E+02  0.64256295011E+02  0.10000000000E+01 0.  0.
<mgrwt>
<rscale>  0 0.12499942E+03</rscale>
<asrwt>0</asrwt>
<pdfrwt beam="1">  1        4 0.76996682E-02 0.12499942E+03</pdfrwt>
<pdfrwt beam="2">  1       -4 0.12007629E-01 0.12499942E+03</pdfrwt>
<totfact> 0.10385520E+04</totfact>
</mgrwt>
</event>
<event>
 5    1  0.3273105E-002  0.1250027E+03  0.7818608E-02  0.1235065E+00
         -4   -1    0    0    0  501 -0.00000000000E+00  0.00000000000E+00  0.30960958799E+03  0.30961219271E+03  0.12700000000E+01 0. -1.
          4   -1    0    0  501    0  0.00000000000E+00 -0.00000000000E+00 -0.12582626932E+02  0.12646556864E+02  0.12700000000E+01 0. -1.
         25    2    1    2    0    0  0.00000000000E+00  0.00000000000E+00  0.29702696106E+03  0.32225874958E+03  0.12500274430E+03 0.  0.
    9000005    1    3    3    0    0 -0.39126437433E+02 -0.22826284611E+02  0.37523966235E+02  0.58829970400E+02  0.10000000000E+01 0.  0.
    9000005    1    3    3    0    0  0.39126437433E+02  0.22826284611E+02  0.25950299483E+03  0.26342877918E+03  0.10000000000E+01 0.  0.
<mgrwt>
<rscale>  0 0.12500274E+03</rscale>
<asrwt>0</asrwt>
<pdfrwt beam="2">  1        4 0.19409066E-02 0.12500274E+03</pdfrwt>
<pdfrwt beam="1">  1       -4 0.47637366E-01 0.12500274E+03</pdfrwt>
<totfact> 0.72883842E+03</totfact>
</mgrwt>
</event>
<event>
 5    1  0.3273105E-002  0.1250011E+03  0.7818608E-02  0.1235068E+00
          4   -1    0    0  501    0  0.00000000000E+00  0.00000000000E+00  0.51810224454E+03  0.51810380108E+03  0.12700000000E+01 0.  1.
         -4   -1    0    0    0  501 -0.00000000000E+00 -0.00000000000E+00 -0.74846032310E+01  0.75915864960E+01  0.12700000000E+01 0.  1.
         25    2    1    2    0    0  0.00000000000E+00  0.00000000000E+00  0.51061764131E+03  0.52569538758E+03  0.12500105962E+03 0.  0.
    9000005    1    3    3    0    0 -0.26597847422E+02 -0.56530659428E+02  0.24913473421E+03  0.25685068957E+03  0.10000000000E+01 0.  0.
    9000005    1    3    3    0    0  0.26597847422E+02  0.56530659428E+02  0.26148290710E+03  0.26884469801E+03  0.10000000000E+01 0.  0.
<mgrwt>
<rscale>  0 0.12500106E+03</rscale>
<asrwt>0</asrwt>
<pdfrwt beam="1">  1        4 0.79716388E-01 0.12500106E+03</pdfrwt>
<pdfrwt beam="2">  1       -4 0.11598266E-02 0.12500106E+03</pdfrwt>
<totfact> 0.53923160E+03</totfact>
</mgrwt>
</event>
<event>
 5    1  0.3273105E-002  0.1249994E+03  0.7818608E-02  0.1235070E+00
          4   -1    0    0  501    0  0.00000000000E+00  0.00000000000E+00  0.98537855069E+02  0.98546038894E+02  0.12700000000E+01 0. -1.
         -4   -1    0    0    0  501 -0.00000000000E+00 -0.00000000000E+00 -0.39621732812E+02  0.39642081315E+02  0.12700000000E+01 0. -1.
         25    2    1    2    0    0  0.00000000000E+00  0.00000000000E+00  0.58916122257E+02  0.13818812021E+03  0.12499938842E+03 0.  0.
    9000005    1    3    3    0    0 -0.26717791170E+02  0.40386897885E+02 -0.14209876851E+02  0.50476355711E+02  0.10000000000E+01 0.  0.
    9000005    1    3    3    0    0  0.26717791170E+02 -0.40386897885E+02  0.73125999108E+02  0.87711764498E+02  0.10000000000E+01 0.  0.
<mgrwt>
<rscale>  0 0.12499939E+03</rscale>
<asrwt>0</asrwt>
<pdfrwt beam="1">  1        4 0.15161865E-01 0.12499939E+03</pdfrwt>
<pdfrwt beam="2">  1       -4 0.60978460E-02 0.12499939E+03</pdfrwt>
<totfact> 0.10171417E+04</totfact>
</mgrwt>
</event>
<event>
 5    1  0.3273105E-002  0.1249987E+03  0.7818608E-02  0.1235071E+00
         -4   -1    0    0    0  501 -0.00000000000E+00  0.00000000000E+00  0.13080801836E+02  0.13142308651E+02  0.12700000000E+01 0. -1.
          4   -1    0    0  501    0  0.00000000000E+00 -0.00000000000E+00 -0.29785498657E+03  0.29785769409E+03  0.12700000000E+01 0. -1.
         25    2    1    2    0    0  0.00000000000E+00  0.00000000000E+00 -0.28477418474E+03  0.31100000274E+03  0.12499866163E+03 0.  0.
    9000005    1    3    3    0    0  0.46009972331E+02 -0.26932866731E+02 -0.61273245265E+02  0.81226273149E+02  0.10000000000E+01 0.  0.
    9000005    1    3    3    0    0 -0.46009972331E+02  0.26932866731E+02 -0.22350093947E+03  0.22977372959E+03  0.10000000000E+01 0.  0.
<mgrwt>
<rscale>  0 0.12499866E+03</rscale>
<asrwt>0</asrwt>
<pdfrwt beam="2">  1        4 0.45828779E-01 0.12499866E+03</pdfrwt>
<pdfrwt beam="1">  1       -4 0.20173708E-02 0.12499866E+03</pdfrwt>
<totfact> 0.74241622E+03</totfact>
</mgrwt>
</event>
<event>
 5    1  0.3273105E-002  0.1250121E+03  0.7818608E-02  0.1235050E+00
         -4   -1    0    0    0  501 -0.00000000000E+00  0.00000000000E+00  0.20444472726E+02  0.20483880615E+02  0.12700000000E+01 0. -1.
          4   -1    0    0  501    0  0.00000000000E+00 -0.00000000000E+00 -0.19087785019E+03  0.19088207510E+03  0.12700000000E+01 0. -1.
         25    2    1    2    0    0  0.00000000000E+00  0.00000000000E+00 -0.17043337746E+03  0.21136595571E+03  0.12501212373E+03 0.  0.
    9000005    1    3    3    0    0 -0.37394308189E+02 -0.18439460798E+01 -0.60628443059E+00  0.37458003189E+02  0.10000000000E+01 0.  0.
    9000005    1    3    3    0    0  0.37394308189E+02  0.18439460798E+01 -0.16982709303E+03  0.17390795252E+03  0.10000000000E+01 0.  0.
<mgrwt>
<rscale>  0 0.12501212E+03</rscale>
<asrwt>0</asrwt>
<pdfrwt beam="2">  1        4 0.29369178E-01 0.12501212E+03</pdfrwt>
<pdfrwt beam="1">  1       -4 0.31486600E-02 0.12501212E+03</pdfrwt>
<totfact> 0.88229374E+03</totfact>
</mgrwt>
</event>
<event>
 5    1  0.3273105E-002  0.1249836E+03  0.7818608E-02  0.1235095E+00
          4   -1    0    0  501    0  0.00000000000E+00  0.00000000000E+00  0.20917391443E+02  0.20955910020E+02  0.12700000000E+01 0.  1.
         -4   -1    0    0    0  501 -0.00000000000E+00 -0.00000000000E+00 -0.18648513780E+03  0.18648946223E+03  0.12700000000E+01 0.  1.
         25    2    1    2    0    0  0.00000000000E+00  0.00000000000E+00 -0.16556774636E+03  0.20744537225E+03  0.12498361425E+03 0.  0.
    9000005    1    3    3    0    0  0.37548299131E+02  0.33874979229E+00 -0.16567718311E+03  0.16988207240E+03  0.10000000000E+01 0.  0.
    9000005    1    3    3    0    0 -0.37548299131E+02 -0.33874979229E+00  0.10943675106E+00  0.37563299847E+02  0.10000000000E+01 0.  0.
<mgrwt>
<rscale>  0 0.12498361E+03</rscale>
<asrwt>0</asrwt>
<pdfrwt beam="1">  1        4 0.32213560E-02 0.12498361E+03</pdfrwt>
<pdfrwt beam="2">  1       -4 0.28693316E-01 0.12498361E+03</pdfrwt>
<totfact> 0.88927372E+03</totfact>
</mgrwt>
</event>
<event>
 5    1  0.3273105E-002  0.1249985E+03  0.7818608E-02  0.1235072E+00
          4   -1    0    0  501    0  0.00000000000E+00  0.00000000000E+00  0.26985757750E+02  0.27015625503E+02  0.12700000000E+01 0.  1.
         -4   -1    0    0    0  501 -0.00000000000E+00 -0.00000000000E+00 -0.14463613332E+03  0.14464170893E+03  0.12700000000E+01 0.  1.
         25    2    1    2    0    0  0.00000000000E+00  0.00000000000E+00 -0.11765037557E+03  0.17165733444E+03  0.12499851836E+03 0.  0.
    9000005    1    3    3    0    0  0.34801775452E+02  0.51179556210E+02 -0.46960310760E+02  0.77696726669E+02  0.10000000000E+01 0.  0.
    9000005    1    3    3    0    0 -0.34801775452E+02 -0.51179556210E+02 -0.70690064814E+02  0.93960607766E+02  0.10000000000E+01 0.  0.
<mgrwt>
<rscale>  0 0.12499852E+03</rscale>
<asrwt>0</asrwt>
<pdfrwt beam="1">  1        4 0.41543815E-02 0.12499852E+03</pdfrwt>
<pdfrwt beam="2">  1       -4 0.22254439E-01 0.12499852E+03</pdfrwt>
<totfact> 0.95143795E+03</totfact>
</mgrwt>
</event>
<event>
 5    1  0.3273105E-002  0.1249984E+03  0.7818608E-02  0.1235072E+00
          4   -1    0    0  501    0  0.00000000000E+00  0.00000000000E+00  0.12540272624E+03  0.12540915696E+03  0.12700000000E+01 0.  1.
         -4   -1    0    0    0  501 -0.00000000000E+00 -0.00000000000E+00 -0.31128644872E+02  0.31154541106E+02  0.12700000000E+01 0.  1.
         25    2    1    2    0    0  0.00000000000E+00  0.00000000000E+00  0.94274081371E+02  0.15656369807E+03  0.12499835652E+03 0.  0.
    9000005    1    3    3    0    0  0.36473842993E+02 -0.19550042448E+02  0.10578685765E+03  0.11359755558E+03  0.10000000000E+01 0.  0.
    9000005    1    3    3    0    0 -0.36473842993E+02  0.19550042448E+02 -0.11512776279E+02  0.42966142485E+02  0.10000000000E+01 0.  0.
<mgrwt>
<rscale>  0 0.12499836E+03</rscale>
<asrwt>0</asrwt>
<pdfrwt beam="1">  1        4 0.19295213E-01 0.12499836E+03</pdfrwt>
<pdfrwt beam="2">  1       -4 0.47915091E-02 0.12499836E+03</pdfrwt>
<totfact> 0.98013019E+03</totfact>
</mgrwt>
</event>
<event>
 5    1  0.3273105E-002  0.1250013E+03  0.7818608E-02  0.1235067E+00
         -4   -1    0    0    0  501 -0.00000000000E+00  0.00000000000E+00  0.19032217318E+03  0.19032641042E+03  0.12700000000E+01 0.  1.
          4   -1    0    0  501    0  0.00000000000E+00 -0.00000000000E+00 -0.20500708624E+02  0.20540008620E+02  0.12700000000E+01 0.  1.
         25    2    1    2    0    0  0.00000000000E+00  0.00000000000E+00  0.16982146455E+03  0.21086641904E+03  0.12500126741E+03 0.  0.
    9000005    1    3    3    0    0 -0.40224577607E+01 -0.26704558402E+02  0.17997872416E+03  0.18199630424E+03  0.10000000000E+01 0.  0.
    9000005    1    3    3    0    0  0.40224577607E+01  0.26704558402E+02 -0.10157259608E+02  0.28870114801E+02  0.10000000000E+01 0.  0.
<mgrwt>
<rscale>  0 0.12500127E+03</rscale>
<asrwt>0</asrwt>
<pdfrwt beam="2">  1        4 0.31573044E-02 0.12500127E+03</pdfrwt>
<pdfrwt beam="1">  1       -4 0.29283682E-01 0.12500127E+03</pdfrwt>
<totfact> 0.88332077E+03</totfact>
</mgrwt>
</event>
<event>
 5    1  0.3273105E-002  0.1249981E+03  0.7818608E-02  0.1235072E+00
         -4   -1    0    0    0  501 -0.00000000000E+00  0.00000000000E+00  0.55594736493E+02  0.55609240471E+02  0.12700000000E+01 0.  1.
          4   -1    0    0  501    0  0.00000000000E+00 -0.00000000000E+00 -0.70231416974E+02  0.70242898789E+02  0.12700000000E+01 0.  1.
         25    2    1    2    0    0  0.00000000000E+00  0.00000000000E+00 -0.14636680481E+02  0.12585213926E+03  0.12499811415E+03 0.  0.
    9000005    1    3    3    0    0  0.20136683384E+02  0.56511591376E+02 -0.24933191735E+02  0.64974687592E+02  0.10000000000E+01 0.  0.
    9000005    1    3    3    0    0 -0.20136683384E+02 -0.56511591376E+02  0.10296511254E+02  0.60877451668E+02  0.10000000000E+01 0.  0.
<mgrwt>
<rscale>  0 0.12499811E+03</rscale>
<asrwt>0</asrwt>
<pdfrwt beam="2">  1        4 0.10806832E-01 0.12499811E+03</pdfrwt>
<pdfrwt beam="1">  1       -4 0.85550353E-02 0.12499811E+03</pdfrwt>
<totfact> 0.10434644E+04</totfact>
</mgrwt>
</event>
<event>
 5    1  0.3273105E-002  0.1250007E+03  0.7818608E-02  0.1235068E+00
          4   -1    0    0  501    0  0.00000000000E+00  0.00000000000E+00  0.22786297580E+02  0.22821662021E+02  0.12700000000E+01 0. -1.
         -4   -1    0    0    0  501 -0.00000000000E+00 -0.00000000000E+00 -0.17126091750E+03  0.17126562633E+03  0.12700000000E+01 0. -1.
         25    2    1    2    0    0  0.00000000000E+00  0.00000000000E+00 -0.14847461992E+03  0.19408728835E+03  0.12500065096E+03 0.  0.
    9000005    1    3    3    0    0 -0.47074606075E+02  0.24934713086E+02 -0.12496853106E+03  0.13585246486E+03  0.10000000000E+01 0.  0.
    9000005    1    3    3    0    0  0.47074606075E+02 -0.24934713086E+02 -0.23506088865E+02  0.58234823496E+02  0.10000000000E+01 0.  0.
<mgrwt>
<rscale>  0 0.12500065E+03</rscale>
<asrwt>0</asrwt>
<pdfrwt beam="1">  1        4 0.35086669E-02 0.12500065E+03</pdfrwt>
<pdfrwt beam="2">  1       -4 0.26350915E-01 0.12500065E+03</pdfrwt>
<totfact> 0.91139636E+03</totfact>
</mgrwt>
</event>
<event>
 5    1  0.3273105E-002  0.1249953E+03  0.7818608E-02  0.1235077E+00
         -4   -1    0    0    0  501 -0.00000000000E+00  0.00000000000E+00  0.59817606969E+02  0.59831087267E+02  0.12700000000E+01 0. -1.
          4   -1    0    0  501    0  0.00000000000E+00 -0.00000000000E+00 -0.65270725649E+02  0.65283079943E+02  0.12700000000E+01 0. -1.
         25    2    1    2    0    0  0.00000000000E+00  0.00000000000E+00 -0.54531186801E+01  0.12511416721E+03  0.12499527324E+03 0.  0.
    9000005    1    3    3    0    0  0.29817202295E+02  0.49573789080E+02  0.20924891405E+02  0.61526231778E+02  0.10000000000E+01 0.  0.
    9000005    1    3    3    0    0 -0.29817202295E+02 -0.49573789080E+02 -0.26378010085E+02  0.63587935432E+02  0.10000000000E+01 0.  0.
<mgrwt>
<rscale>  0 0.12499527E+03</rscale>
<asrwt>0</asrwt>
<pdfrwt beam="2">  1        4 0.10043637E-01 0.12499527E+03</pdfrwt>
<pdfrwt beam="1">  1       -4 0.92046960E-02 0.12499527E+03</pdfrwt>
<totfact> 0.10451500E+04</totfact>
</mgrwt>
</event>
<event>
 5    1  0.3273105E-002  0.1250010E+03  0.7818608E-02  0.1235068E+00
         -4   -1    0    0    0  501 -0.00000000000E+00  0.00000000000E+00  0.21831821403E+04  0.21831825097E+04  0.12700000000E+01 0.  1.
          4   -1    0    0  501    0  0.00000000000E+00 -0.00000000000E+00 -0.15635004951E+01  0.20143072750E+01  0.12700000000E+01 0.  1.
         25    2    1    2    0    0  0.00000000000E+00  0.00000000000E+00  0.21816186398E+04  0.21851968170E+04  0.12500095735E+03 0.  0.
    9000005    1    3    3    0    0 -0.12727722693E+02  0.71503622295E+01  0.28578059828E+02  0.32106511933E+02  0.10000000000E+01 0.  0.
    9000005    1    3    3    0    0  0.12727722693E+02 -0.71503622295E+01  0.21530405800E+04  0.21530903050E+04  0.10000000000E+01 0.  0.
<mgrwt>
<rscale>  0 0.12500096E+03</rscale>
<asrwt>0</asrwt>
<pdfrwt beam="2">  1        4 0.27524575E-03 0.12500096E+03</pdfrwt>
<pdfrwt beam="1">  1       -4 0.33590722E+00 0.12500096E+03</pdfrwt>
<totfact> 0.76335196E+02</totfact>
</mgrwt>
</event>
<event>
 5    1  0.3273105E-002  0.1250055E+03  0.7818608E-02  0.1235061E+00
         -4   -1    0    0    0  501 -0.00000000000E+00  0.00000000000E+00  0.81248139844E+02  0.81258065004E+02  0.12700000000E+01 0. -1.
          4   -1    0    0  501    0  0.00000000000E+00 -0.00000000000E+00 -0.48060968869E+02  0.48077745669E+02  0.12700000000E+01 0. -1.
         25    2    1    2    0    0  0.00000000000E+00  0.00000000000E+00  0.33187170976E+02  0.12933581067E+03  0.12500545430E+03 0.  0.
    9000005    1    3    3    0    0  0.88108371546E+01  0.59637622711E+02 -0.44862538466E+00  0.60294926475E+02  0.10000000000E+01 0.  0.
    9000005    1    3    3    0    0 -0.88108371546E+01 -0.59637622711E+02  0.33635796361E+02  0.69040884197E+02  0.10000000000E+01 0.  0.
<mgrwt>
<rscale>  0 0.12500545E+03</rscale>
<asrwt>0</asrwt>
<pdfrwt beam="2">  1        4 0.73960493E-02 0.12500545E+03</pdfrwt>
<pdfrwt beam="1">  1       -4 0.12501768E-01 0.12500545E+03</pdfrwt>
<totfact> 0.10357461E+04</totfact>
</mgrwt>
</event>
<event>
 5    1  0.3273105E-002  0.1250029E+03  0.7818608E-02  0.1235065E+00
          4   -1    0    0  501    0  0.00000000000E+00  0.00000000000E+00  0.22316513134E+02  0.22352620841E+02  0.12700000000E+01 0.  1.
         -4   -1    0    0    0  501 -0.00000000000E+00 -0.00000000000E+00 -0.17486667533E+03  0.17487128707E+03  0.12700000000E+01 0.  1.
         25    2    1    2    0    0  0.00000000000E+00  0.00000000000E+00 -0.15255016220E+03  0.19722390791E+03  0.12500287143E+03 0.  0.
    9000005    1    3    3    0    0 -0.18975343894E+02 -0.34189558028E+02 -0.15318865457E+03  0.15810361616E+03  0.10000000000E+01 0.  0.
    9000005    1    3    3    0    0  0.18975343894E+02  0.34189558028E+02  0.63849237251E+00  0.39120291750E+02  0.10000000000E+01 0.  0.
<mgrwt>
<rscale>  0 0.12500287E+03</rscale>
<asrwt>0</asrwt>
<pdfrwt beam="1">  1        4 0.34364421E-02 0.12500287E+03</pdfrwt>
<pdfrwt beam="2">  1       -4 0.26905697E-01 0.12500287E+03</pdfrwt>
<totfact> 0.90599526E+03</totfact>
</mgrwt>
</event>
<event>
 5    1  0.3273105E-002  0.1249966E+03  0.7818608E-02  0.1235075E+00
          4   -1    0    0  501    0  0.00000000000E+00  0.00000000000E+00  0.92869357387E+01  0.93733705472E+01  0.12700000000E+01 0. -1.
         -4   -1    0    0    0  501 -0.00000000000E+00 -0.00000000000E+00 -0.41855897093E+03  0.41856089766E+03  0.12700000000E+01 0. -1.
         25    2    1    2    0    0  0.00000000000E+00  0.00000000000E+00 -0.40927203519E+03  0.42793426820E+03  0.12499655640E+03 0.  0.
    9000005    1    3    3    0    0 -0.62410438779E+01  0.60242144840E+02 -0.15193439440E+03  0.16356383110E+03  0.10000000000E+01 0.  0.
    9000005    1    3    3    0    0  0.62410438779E+01 -0.60242144840E+02 -0.25733764080E+03  0.26437043710E+03  0.10000000000E+01 0.  0.
<mgrwt>
<rscale>  0 0.12499656E+03</rscale>
<asrwt>0</asrwt>
<pdfrwt beam="1">  1        4 0.14355567E-02 0.12499656E+03</pdfrwt>
<pdfrwt beam="2">  1       -4 0.64400470E-01 0.12499656E+03</pdfrwt>
<totfact> 0.61928393E+03</totfact>
</mgrwt>
</event>
<event>
 5    1  0.3273105E-002  0.1249991E+03  0.7818608E-02  0.1235071E+00
          4   -1    0    0  501    0  0.00000000000E+00  0.00000000000E+00  0.29624019949E+02  0.29651230293E+02  0.12700000000E+01 0.  1.
         -4   -1    0    0    0  501 -0.00000000000E+00 -0.00000000000E+00 -0.13176819145E+03  0.13177431152E+03  0.12700000000E+01 0.  1.
         25    2    1    2    0    0  0.00000000000E+00  0.00000000000E+00 -0.10214417150E+03  0.16142554182E+03  0.12499909511E+03 0.  0.
    9000005    1    3    3    0    0  0.68467796525E+01  0.45222591134E+02  0.39189763273E+01  0.45916440585E+02  0.10000000000E+01 0.  0.
    9000005    1    3    3    0    0 -0.68467796525E+01 -0.45222591134E+02 -0.10606314783E+03  0.11550910123E+03  0.10000000000E+01 0.  0.
<mgrwt>
<rscale>  0 0.12499910E+03</rscale>
<asrwt>0</asrwt>
<pdfrwt beam="1">  1        4 0.45601055E-02 0.12499910E+03</pdfrwt>
<pdfrwt beam="2">  1       -4 0.20274593E-01 0.12499910E+03</pdfrwt>
<totfact> 0.97070628E+03</totfact>
</mgrwt>
</event>
<event>
 5    1  0.3273105E-002  0.1249982E+03  0.7818608E-02  0.1235072E+00
          4   -1    0    0  501    0  0.00000000000E+00  0.00000000000E+00  0.89377135495E+01  0.90274926471E+01  0.12700000000E+01 0. -1.
         -4   -1    0    0    0  501 -0.00000000000E+00 -0.00000000000E+00 -0.43476541042E+03  0.43476726533E+03  0.12700000000E+01 0. -1.
         25    2    1    2    0    0  0.00000000000E+00  0.00000000000E+00 -0.42582769687E+03  0.44379475797E+03  0.12499823911E+03 0.  0.
    9000005    1    3    3    0    0 -0.21554151088E+02  0.37759685037E+02 -0.37227792842E+03  0.37480959331E+03  0.10000000000E+01 0.  0.
    9000005    1    3    3    0    0  0.21554151088E+02 -0.37759685037E+02 -0.53549768448E+02  0.68985164666E+02  0.10000000000E+01 0.  0.
<mgrwt>
<rscale>  0 0.12499824E+03</rscale>
<asrwt>0</asrwt>
<pdfrwt beam="1">  1        4 0.13820820E-02 0.12499824E+03</pdfrwt>
<pdfrwt beam="2">  1       -4 0.66894019E-01 0.12499824E+03</pdfrwt>
<totfact> 0.60507505E+03</totfact>
</mgrwt>
</event>
<event>
 5    1  0.3273105E-002  0.1249959E+03  0.7818608E-02  0.1235076E+00
         -4   -1    0    0    0  501 -0.00000000000E+00  0.00000000000E+00  0.45050538070E+03  0.45050717080E+03  0.12700000000E+01 0.  1.
          4   -1    0    0  501    0  0.00000000000E+00 -0.00000000000E+00 -0.86219239212E+01  0.87149568044E+01  0.12700000000E+01 0.  1.
         25    2    1    2    0    0  0.00000000000E+00  0.00000000000E+00  0.44188345678E+03  0.45922212761E+03  0.12499589235E+03 0.  0.
    9000005    1    3    3    0    0  0.44669355172E+02 -0.32864234796E+02  0.32675917148E+03  0.33143319895E+03  0.10000000000E+01 0.  0.
    9000005    1    3    3    0    0 -0.44669355172E+02  0.32864234796E+02  0.11512428530E+03  0.12778892865E+03  0.10000000000E+01 0.  0.
<mgrwt>
<rscale>  0 0.12499589E+03</rscale>
<asrwt>0</asrwt>
<pdfrwt beam="2">  1        4 0.13337435E-02 0.12499589E+03</pdfrwt>
<pdfrwt beam="1">  1       -4 0.69315833E-01 0.12499589E+03</pdfrwt>
<totfact> 0.59178467E+03</totfact>
</mgrwt>
</event>
<event>
 5    1  0.3273105E-002  0.1250102E+03  0.7818608E-02  0.1235053E+00
          4   -1    0    0  501    0  0.00000000000E+00  0.00000000000E+00  0.10866354495E+03  0.10867096623E+03  0.12700000000E+01 0. -1.
         -4   -1    0    0    0  501 -0.00000000000E+00 -0.00000000000E+00 -0.35934096344E+02  0.35956531813E+02  0.12700000000E+01 0. -1.
         25    2    1    2    0    0  0.00000000000E+00  0.00000000000E+00  0.72729448610E+02  0.14462749805E+03  0.12501016157E+03 0.  0.
    9000005    1    3    3    0    0 -0.41836692565E+02  0.23770396816E+02  0.82504817871E+02  0.95516415246E+02  0.10000000000E+01 0.  0.
    9000005    1    3    3    0    0  0.41836692565E+02 -0.23770396816E+02 -0.97753692606E+01  0.49111082800E+02  0.10000000000E+01 0.  0.
<mgrwt>
<rscale>  0 0.12501016E+03</rscale>
<asrwt>0</asrwt>
<pdfrwt beam="1">  1        4 0.16719765E-01 0.12501016E+03</pdfrwt>
<pdfrwt beam="2">  1       -4 0.55306192E-02 0.12501016E+03</pdfrwt>
<totfact> 0.10036266E+04</totfact>
</mgrwt>
</event>
<event>
 5    1  0.3273105E-002  0.1249960E+03  0.7818608E-02  0.1235076E+00
         -4   -1    0    0    0  501 -0.00000000000E+00  0.00000000000E+00  0.14547485194E+02  0.14602815669E+02  0.12700000000E+01 0.  1.
          4   -1    0    0  501    0  0.00000000000E+00 -0.00000000000E+00 -0.26793359418E+03  0.26793660405E+03  0.12700000000E+01 0.  1.
         25    2    1    2    0    0  0.00000000000E+00  0.00000000000E+00 -0.25338610899E+03  0.28253941972E+03  0.12499601381E+03 0.  0.
    9000005    1    3    3    0    0  0.61065237495E+02 -0.15572554429E+01 -0.96909707827E+02  0.11455950308E+03  0.10000000000E+01 0.  0.
    9000005    1    3    3    0    0 -0.61065237495E+02  0.15572554429E+01 -0.15647640116E+03  0.16797991664E+03  0.10000000000E+01 0.  0.
<mgrwt>
<rscale>  0 0.12499601E+03</rscale>
<asrwt>0</asrwt>
<pdfrwt beam="2">  1        4 0.41225037E-01 0.12499601E+03</pdfrwt>
<pdfrwt beam="1">  1       -4 0.22425626E-02 0.12499601E+03</pdfrwt>
<totfact> 0.77849495E+03</totfact>
</mgrwt>
</event>
<event>
 5    1  0.3273105E-002  0.1250001E+03  0.7818608E-02  0.1235069E+00
          4   -1    0    0  501    0  0.00000000000E+00  0.00000000000E+00  0.98392546668E+01  0.99208786102E+01  0.12700000000E+01 0. -1.
         -4   -1    0    0    0  501 -0.00000000000E+00 -0.00000000000E+00 -0.39528477453E+03  0.39528681470E+03  0.12700000000E+01 0. -1.
         25    2    1    2    0    0  0.00000000000E+00  0.00000000000E+00 -0.38544551987E+03  0.40520769331E+03  0.12500010374E+03 0.  0.
    9000005    1    3    3    0    0  0.46843473440E+02 -0.19991266455E+02 -0.75336444960E+02  0.90942518535E+02  0.10000000000E+01 0.  0.
    9000005    1    3    3    0    0 -0.46843473440E+02  0.19991266455E+02 -0.31010907491E+03  0.31426517478E+03  0.10000000000E+01 0.  0.
<mgrwt>
<rscale>  0 0.12500010E+03</rscale>
<asrwt>0</asrwt>
<pdfrwt beam="1">  1        4 0.15201675E-02 0.12500010E+03</pdfrwt>
<pdfrwt beam="2">  1       -4 0.60819466E-01 0.12500010E+03</pdfrwt>
<totfact> 0.64049286E+03</totfact>
</mgrwt>
</event>
<event>
 5    1  0.3273105E-002  0.1250025E+03  0.7818608E-02  0.1235065E+00
          4   -1    0    0  501    0  0.00000000000E+00  0.00000000000E+00  0.36493880056E+03  0.36494101038E+03  0.12700000000E+01 0. -1.
         -4   -1    0    0    0  501 -0.00000000000E+00 -0.00000000000E+00 -0.10664350351E+02  0.10739705229E+02  0.12700000000E+01 0. -1.
         25    2    1    2    0    0  0.00000000000E+00  0.00000000000E+00  0.35427445021E+03  0.37568071561E+03  0.12500245600E+03 0.  0.
    9000005    1    3    3    0    0  0.24094367855E+01  0.23898511233E+02  0.35052640020E+03  0.35134982775E+03  0.10000000000E+01 0.  0.
    9000005    1    3    3    0    0 -0.24094367855E+01 -0.23898511233E+02  0.37480500080E+01  0.24330887851E+02  0.10000000000E+01 0.  0.
<mgrwt>
<rscale>  0 0.12500246E+03</rscale>
<asrwt>0</asrwt>
<pdfrwt beam="1">  1        4 0.56150388E-01 0.12500246E+03</pdfrwt>
<pdfrwt beam="2">  1       -4 0.16466361E-02 0.12500246E+03</pdfrwt>
<totfact> 0.66985154E+03</totfact>
</mgrwt>
</event>
<event>
 5    1  0.3273105E-002  0.1250012E+03  0.7818608E-02  0.1235067E+00
          4   -1    0    0  501    0  0.00000000000E+00  0.00000000000E+00  0.69490846857E+02  0.69502451014E+02  0.12700000000E+01 0. -1.
         -4   -1    0    0    0  501 -0.00000000000E+00 -0.00000000000E+00 -0.56190046430E+02  0.56204396783E+02  0.12700000000E+01 0. -1.
         25    2    1    2    0    0  0.00000000000E+00  0.00000000000E+00  0.13300800427E+02  0.12570684780E+03  0.12500120116E+03 0.  0.
    9000005    1    3    3    0    0 -0.36288348005E+02  0.41547758158E+02  0.36180508832E+02  0.65977948045E+02  0.10000000000E+01 0.  0.
    9000005    1    3    3    0    0  0.36288348005E+02 -0.41547758158E+02 -0.22879708405E+02  0.59728899752E+02  0.10000000000E+01 0.  0.
<mgrwt>
<rscale>  0 0.12500120E+03</rscale>
<asrwt>0</asrwt>
<pdfrwt beam="1">  1        4 0.10692896E-01 0.12500120E+03</pdfrwt>
<pdfrwt beam="2">  1       -4 0.86466190E-02 0.12500120E+03</pdfrwt>
<totfact> 0.10437111E+04</totfact>
</mgrwt>
</event>
<event>
 5    1  0.3273105E-002  0.1250016E+03  0.7818608E-02  0.1235067E+00
          4   -1    0    0  501    0  0.00000000000E+00  0.00000000000E+00  0.16154030491E+02  0.16203876114E+02  0.12700000000E+01 0. -1.
         -4   -1    0    0    0  501 -0.00000000000E+00 -0.00000000000E+00 -0.24139491087E+03  0.24139825164E+03  0.12700000000E+01 0. -1.
         25    2    1    2    0    0  0.00000000000E+00  0.00000000000E+00 -0.22524088038E+03  0.25760212775E+03  0.12500160810E+03 0.  0.
    9000005    1    3    3    0    0 -0.63753036712E+01 -0.61745290843E+02 -0.97727743091E+02  0.11577926070E+03  0.10000000000E+01 0.  0.
    9000005    1    3    3    0    0  0.63753036712E+01  0.61745290843E+02 -0.12751313729E+03  0.14182286705E+03  0.10000000000E+01 0.  0.
<mgrwt>
<rscale>  0 0.12500161E+03</rscale>
<asrwt>0</asrwt>
<pdfrwt beam="1">  1        4 0.24893269E-02 0.12500161E+03</pdfrwt>
<pdfrwt beam="2">  1       -4 0.37141767E-01 0.12500161E+03</pdfrwt>
<totfact> 0.81240842E+03</totfact>
</mgrwt>
</event>
<event>
 5    1  0.3273105E-002  0.1250233E+03  0.7818608E-02  0.1235033E+00
         -4   -1    0    0    0  501 -0.00000000000E+00  0.00000000000E+00  0.20568845726E+02  0.20608015783E+02  0.12700000000E+01 0. -1.
          4   -1    0    0  501    0  0.00000000000E+00 -0.00000000000E+00 -0.18975977023E+03  0.18976402003E+03  0.12700000000E+01 0. -1.
         25    2    1    2    0    0  0.00000000000E+00  0.00000000000E+00 -0.16919092451E+03  0.21037203581E+03  0.12502329590E+03 0.  0.
    9000005    1    3    3    0    0 -0.34118492697E+02  0.52303227470E+02 -0.80141335637E+02  0.10160380320E+03  0.10000000000E+01 0.  0.
    9000005    1    3    3    0    0  0.34118492697E+02 -0.52303227470E+02 -0.89049588869E+02  0.10876823261E+03  0.10000000000E+01 0.  0.
<mgrwt>
<rscale>  0 0.12502330E+03</rscale>
<asrwt>0</asrwt>
<pdfrwt beam="2">  1        4 0.29197150E-01 0.12502330E+03</pdfrwt>
<pdfrwt beam="1">  1       -4 0.31677779E-02 0.12502330E+03</pdfrwt>
<totfact> 0.88369128E+03</totfact>
</mgrwt>
</event>
<event>
 5    1  0.3273105E-002  0.1249981E+03  0.7818608E-02  0.1235072E+00
         -4   -1    0    0    0  501 -0.00000000000E+00  0.00000000000E+00  0.31006140899E+03  0.31006400992E+03  0.12700000000E+01 0.  1.
          4   -1    0    0  501    0  0.00000000000E+00 -0.00000000000E+00 -0.12563262617E+02  0.12627290587E+02  0.12700000000E+01 0.  1.
         25    2    1    2    0    0  0.00000000000E+00  0.00000000000E+00  0.29749814638E+03  0.32269130051E+03  0.12499811328E+03 0.  0.
    9000005    1    3    3    0    0  0.28522665396E+02  0.49006049307E+02  0.80936952112E+02  0.98827756866E+02  0.10000000000E+01 0.  0.
    9000005    1    3    3    0    0 -0.28522665396E+02 -0.49006049307E+02  0.21656119426E+03  0.22386354364E+03  0.10000000000E+01 0.  0.
<mgrwt>
<rscale>  0 0.12499811E+03</rscale>
<asrwt>0</asrwt>
<pdfrwt beam="2">  1        4 0.19379351E-02 0.12499811E+03</pdfrwt>
<pdfrwt beam="1">  1       -4 0.47706877E-01 0.12499811E+03</pdfrwt>
<totfact> 0.72840216E+03</totfact>
</mgrwt>
</event>
<event>
 5    1  0.3273105E-002  0.1249965E+03  0.7818608E-02  0.1235075E+00
          4   -1    0    0  501    0  0.00000000000E+00  0.00000000000E+00  0.45866103237E+03  0.45866279064E+03  0.12700000000E+01 0. -1.
         -4   -1    0    0    0  501 -0.00000000000E+00 -0.00000000000E+00 -0.84670238914E+01  0.85617401022E+01  0.12700000000E+01 0. -1.
         25    2    1    2    0    0  0.00000000000E+00  0.00000000000E+00  0.45019400848E+03  0.46722453074E+03  0.12499646737E+03 0.  0.
    9000005    1    3    3    0    0 -0.11626642318E+02  0.59156229973E+02  0.16363256854E+03  0.17438823310E+03  0.10000000000E+01 0.  0.
    9000005    1    3    3    0    0  0.11626642318E+02 -0.59156229973E+02  0.28656143994E+03  0.29283629764E+03  0.10000000000E+01 0.  0.
<mgrwt>
<rscale>  0 0.12499647E+03</rscale>
<asrwt>0</asrwt>
<pdfrwt beam="1">  1        4 0.70570709E-01 0.12499647E+03</pdfrwt>
<pdfrwt beam="2">  1       -4 0.13100392E-02 0.12499647E+03</pdfrwt>
<totfact> 0.58504666E+03</totfact>
</mgrwt>
</event>
<event>
 5    1  0.3273105E-002  0.1250029E+03  0.7818608E-02  0.1235065E+00
          4   -1    0    0  501    0  0.00000000000E+00  0.00000000000E+00  0.39635403014E+02  0.39655744503E+02  0.12700000000E+01 0.  1.
         -4   -1    0    0    0  501 -0.00000000000E+00 -0.00000000000E+00 -0.98509404541E+02  0.98517590729E+02  0.12700000000E+01 0.  1.
         25    2    1    2    0    0  0.00000000000E+00  0.00000000000E+00 -0.58874001526E+02  0.13817333523E+03  0.12500289002E+03 0.  0.
    9000005    1    3    3    0    0 -0.52081523697E+02  0.34481932896E+02 -0.31631587056E+02  0.70021754524E+02  0.10000000000E+01 0.  0.
    9000005    1    3    3    0    0  0.52081523697E+02 -0.34481932896E+02 -0.27242414470E+02  0.68151580708E+02  0.10000000000E+01 0.  0.
<mgrwt>
<rscale>  0 0.12500289E+03</rscale>
<asrwt>0</asrwt>
<pdfrwt beam="1">  1        4 0.60999488E-02 0.12500289E+03</pdfrwt>
<pdfrwt beam="2">  1       -4 0.15157487E-01 0.12500289E+03</pdfrwt>
<totfact> 0.10170923E+04</totfact>
</mgrwt>
</event>
<event>
 5    1  0.3273105E-002  0.1249964E+03  0.7818608E-02  0.1235075E+00
          4   -1    0    0  501    0  0.00000000000E+00  0.00000000000E+00  0.27941248565E+02  0.27970096020E+02  0.12700000000E+01 0.  1.
         -4   -1    0    0    0  501 -0.00000000000E+00 -0.00000000000E+00 -0.13969044133E+03  0.13969621434E+03  0.12700000000E+01 0.  1.
         25    2    1    2    0    0  0.00000000000E+00  0.00000000000E+00 -0.11174919277E+03  0.16766631036E+03  0.12499643813E+03 0.  0.
    9000005    1    3    3    0    0  0.51076147047E+02 -0.23266827948E+02 -0.92729523730E+02  0.10839687565E+03  0.10000000000E+01 0.  0.
    9000005    1    3    3    0    0 -0.51076147047E+02  0.23266827948E+02 -0.19019669040E+02  0.59269434705E+02  0.10000000000E+01 0.  0.
<mgrwt>
<rscale>  0 0.12499644E+03</rscale>
<asrwt>0</asrwt>
<pdfrwt beam="1">  1        4 0.43013168E-02 0.12499644E+03</pdfrwt>
<pdfrwt beam="2">  1       -4 0.21493500E-01 0.12499644E+03</pdfrwt>
<totfact> 0.95892476E+03</totfact>
</mgrwt>
</event>
<event>
 5    1  0.3273105E-002  0.1250072E+03  0.7818608E-02  0.1235058E+00
         -4   -1    0    0    0  501 -0.00000000000E+00  0.00000000000E+00  0.21154589510E+03  0.21154970724E+03  0.12700000000E+01 0. -1.
          4   -1    0    0  501    0  0.00000000000E+00 -0.00000000000E+00 -0.18441584055E+02  0.18485262304E+02  0.12700000000E+01 0. -1.
         25    2    1    2    0    0  0.00000000000E+00  0.00000000000E+00  0.19310431105E+03  0.23003496955E+03  0.12500724887E+03 0.  0.
    9000005    1    3    3    0    0  0.39801252198E+02 -0.15765701191E+02  0.18033574255E+03  0.18535014716E+03  0.10000000000E+01 0.  0.
    9000005    1    3    3    0    0 -0.39801252198E+02  0.15765701191E+02  0.12768568499E+02  0.44684822391E+02  0.10000000000E+01 0.  0.
<mgrwt>
<rscale>  0 0.12500725E+03</rscale>
<asrwt>0</asrwt>
<pdfrwt beam="2">  1        4 0.28408199E-02 0.12500725E+03</pdfrwt>
<pdfrwt beam="1">  1       -4 0.32549175E-01 0.12500725E+03</pdfrwt>
<totfact> 0.85290432E+03</totfact>
</mgrwt>
</event>
<event>
 5    1  0.3273105E-002  0.1250013E+03  0.7818608E-02  0.1235067E+00
         -4   -1    0    0    0  501 -0.00000000000E+00  0.00000000000E+00  0.22978784717E+02  0.23013853373E+02  0.12700000000E+01 0.  1.
          4   -1    0    0  501    0  0.00000000000E+00 -0.00000000000E+00 -0.16983026136E+03  0.16983500986E+03  0.12700000000E+01 0.  1.
         25    2    1    2    0    0  0.00000000000E+00  0.00000000000E+00 -0.14685147664E+03  0.19284886323E+03  0.12500131142E+03 0.  0.
    9000005    1    3    3    0    0 -0.19265367267E+02  0.12741735177E+02  0.16159216054E+02  0.28206851202E+02  0.10000000000E+01 0.  0.
    9000005    1    3    3    0    0  0.19265367267E+02 -0.12741735177E+02 -0.16301069270E+03  0.16464201203E+03  0.10000000000E+01 0.  0.
<mgrwt>
<rscale>  0 0.12500131E+03</rscale>
<asrwt>0</asrwt>
<pdfrwt beam="2">  1        4 0.26130795E-01 0.12500131E+03</pdfrwt>
<pdfrwt beam="1">  1       -4 0.35382606E-02 0.12500131E+03</pdfrwt>
<totfact> 0.91351289E+03</totfact>
</mgrwt>
</event>
<event>
 5    1  0.3273105E-002  0.1250009E+03  0.7818608E-02  0.1235068E+00
          4   -1    0    0  501    0  0.00000000000E+00  0.00000000000E+00  0.42640261182E+03  0.42640450310E+03  0.12700000000E+01 0. -1.
         -4   -1    0    0    0  501 -0.00000000000E+00 -0.00000000000E+00 -0.91151356971E+01  0.92031841651E+01  0.12700000000E+01 0. -1.
         25    2    1    2    0    0  0.00000000000E+00  0.00000000000E+00  0.41728747612E+03  0.43560768727E+03  0.12500087791E+03 0.  0.
    9000005    1    3    3    0    0 -0.12148626067E+02 -0.48296687506E+02  0.34020017727E+03  0.34382745637E+03  0.10000000000E+01 0.  0.
    9000005    1    3    3    0    0  0.12148626067E+02  0.48296687506E+02  0.77087298854E+02  0.91780230900E+02  0.10000000000E+01 0.  0.
<mgrwt>
<rscale>  0 0.12500088E+03</rscale>
<asrwt>0</asrwt>
<pdfrwt beam="1">  1        4 0.65607299E-01 0.12500088E+03</pdfrwt>
<pdfrwt beam="2">  1       -4 0.14092475E-02 0.12500088E+03</pdfrwt>
<totfact> 0.61229783E+03</totfact>
</mgrwt>
</event>
<event>
 5    1  0.3273105E-002  0.1250046E+03  0.7818608E-02  0.1235062E+00
         -4   -1    0    0    0  501 -0.00000000000E+00  0.00000000000E+00  0.48915528012E+03  0.48915692877E+03  0.12700000000E+01 0. -1.
          4   -1    0    0  501    0  0.00000000000E+00 -0.00000000000E+00 -0.79341285617E+01  0.80351288747E+01  0.12700000000E+01 0. -1.
         25    2    1    2    0    0  0.00000000000E+00  0.00000000000E+00  0.48122115156E+03  0.49719205765E+03  0.12500458185E+03 0.  0.
    9000005    1    3    3    0    0  0.24996052835E+02 -0.15711313888E+02  0.45968821201E+03  0.46063640792E+03  0.10000000000E+01 0.  0.
    9000005    1    3    3    0    0 -0.24996052835E+02  0.15711313888E+02  0.21532939544E+02  0.36555649725E+02  0.10000000000E+01 0.  0.
<mgrwt>
<rscale>  0 0.12500458E+03</rscale>
<asrwt>0</asrwt>
<pdfrwt beam="2">  1        4 0.12285318E-02 0.12500458E+03</pdfrwt>
<pdfrwt beam="1">  1       -4 0.75262523E-01 0.12500458E+03</pdfrwt>
<totfact> 0.56077252E+03</totfact>
</mgrwt>
</event>
<event>
 5    1  0.3273105E-002  0.1249999E+03  0.7818608E-02  0.1235069E+00
          4   -1    0    0  501    0  0.00000000000E+00  0.00000000000E+00  0.45025354493E+03  0.45025533603E+03  0.12700000000E+01 0. -1.
         -4   -1    0    0    0  501 -0.00000000000E+00 -0.00000000000E+00 -0.86273613407E+01  0.87203362150E+01  0.12700000000E+01 0. -1.
         25    2    1    2    0    0  0.00000000000E+00  0.00000000000E+00  0.44162618359E+03  0.45897567225E+03  0.12499992672E+03 0.  0.
    9000005    1    3    3    0    0  0.25156673834E+02  0.54011698389E+02  0.15161889269E+03  0.16290920914E+03  0.10000000000E+01 0.  0.
    9000005    1    3    3    0    0 -0.25156673834E+02 -0.54011698389E+02  0.29000729090E+03  0.29606646311E+03  0.10000000000E+01 0.  0.
<mgrwt>
<rscale>  0 0.12499993E+03</rscale>
<asrwt>0</asrwt>
<pdfrwt beam="1">  1        4 0.69277072E-01 0.12499993E+03</pdfrwt>
<pdfrwt beam="2">  1       -4 0.13345759E-02 0.12499993E+03</pdfrwt>
<totfact> 0.59194135E+03</totfact>
</mgrwt>
</event>
<event>
 5    1  0.3273105E-002  0.1250039E+03  0.7818608E-02  0.1235063E+00
          4   -1    0    0  501    0  0.00000000000E+00  0.00000000000E+00  0.23110023246E+03  0.23110372205E+03  0.12700000000E+01 0.  1.
         -4   -1    0    0    0  501 -0.00000000000E+00 -0.00000000000E+00 -0.16876419567E+02  0.16924137715E+02  0.12700000000E+01 0.  1.
         25    2    1    2    0    0  0.00000000000E+00  0.00000000000E+00  0.21422381290E+03  0.24802785976E+03  0.12500390877E+03 0.  0.
    9000005    1    3    3    0    0 -0.37779794365E+02 -0.92219607267E+01  0.10047357153E+02  0.40178437099E+02  0.10000000000E+01 0.  0.
    9000005    1    3    3    0    0  0.37779794365E+02  0.92219607267E+01  0.20417645575E+03  0.20784942267E+03  0.10000000000E+01 0.  0.
<mgrwt>
<rscale>  0 0.12500391E+03</rscale>
<asrwt>0</asrwt>
<pdfrwt beam="1">  1        4 0.35557816E-01 0.12500391E+03</pdfrwt>
<pdfrwt beam="2">  1       -4 0.26003116E-02 0.12500391E+03</pdfrwt>
<totfact> 0.82608910E+03</totfact>
</mgrwt>
</event>
<event>
 5    1  0.3273105E-002  0.1249925E+03  0.7818608E-02  0.1235081E+00
         -4   -1    0    0    0  501 -0.00000000000E+00  0.00000000000E+00  0.45251519063E+03  0.45251697277E+03  0.12700000000E+01 0.  1.
          4   -1    0    0  501    0  0.00000000000E+00 -0.00000000000E+00 -0.85827499937E+01  0.86762029399E+01  0.12700000000E+01 0.  1.
         25    2    1    2    0    0  0.00000000000E+00  0.00000000000E+00  0.44393244063E+03  0.46119317571E+03  0.12499253369E+03 0.  0.
    9000005    1    3    3    0    0 -0.50827582084E+01  0.47567276973E+02  0.73625561419E+02  0.87807764827E+02  0.10000000000E+01 0.  0.
    9000005    1    3    3    0    0  0.50827582084E+01 -0.47567276973E+02  0.37030687921E+03  0.37338541089E+03  0.10000000000E+01 0.  0.
<mgrwt>
<rscale>  0 0.12499253E+03</rscale>
<asrwt>0</asrwt>
<pdfrwt beam="2">  1        4 0.13277485E-02 0.12499253E+03</pdfrwt>
<pdfrwt beam="1">  1       -4 0.69625067E-01 0.12499253E+03</pdfrwt>
<totfact> 0.59015938E+03</totfact>
</mgrwt>
</event>
<event>
 5    1  0.3273105E-002  0.1249971E+03  0.7818608E-02  0.1235074E+00
          4   -1    0    0  501    0  0.00000000000E+00  0.00000000000E+00  0.15476642663E+03  0.15477163729E+03  0.12700000000E+01 0. -1.
         -4   -1    0    0    0  501 -0.00000000000E+00 -0.00000000000E+00 -0.25216857217E+02  0.25248817554E+02  0.12700000000E+01 0. -1.
         25    2    1    2    0    0  0.00000000000E+00  0.00000000000E+00  0.12954956941E+03  0.18002045485E+03  0.12499709288E+03 0.  0.
    9000005    1    3    3    0    0  0.89599577797E+01  0.14864066464E+02 -0.21683201193E+02  0.27791770891E+02  0.10000000000E+01 0.  0.
    9000005    1    3    3    0    0 -0.89599577797E+01 -0.14864066464E+02  0.15123277060E+03  0.15222868396E+03  0.10000000000E+01 0.  0.
<mgrwt>
<rscale>  0 0.12499709E+03</rscale>
<asrwt>0</asrwt>
<pdfrwt beam="1">  1        4 0.23813079E-01 0.12499709E+03</pdfrwt>
<pdfrwt beam="2">  1       -4 0.38823758E-02 0.12499709E+03</pdfrwt>
<totfact> 0.93619423E+03</totfact>
</mgrwt>
</event>
<event>
 5    1  0.3273105E-002  0.1249971E+03  0.7818608E-02  0.1235074E+00
         -4   -1    0    0    0  501 -0.00000000000E+00  0.00000000000E+00  0.13485887997E+04  0.13485893977E+04  0.12700000000E+01 0.  1.
          4   -1    0    0  501    0  0.00000000000E+00 -0.00000000000E+00 -0.27565670187E+01  0.30350554737E+01  0.12700000000E+01 0.  1.
         25    2    1    2    0    0  0.00000000000E+00  0.00000000000E+00  0.13458322327E+04  0.13516244532E+04  0.12499705549E+03 0.  0.
    9000005    1    3    3    0    0  0.26008422256E+02 -0.41470055463E+02  0.25288537015E+03  0.25758147054E+03  0.10000000000E+01 0.  0.
    9000005    1    3    3    0    0 -0.26008422256E+02  0.41470055463E+02  0.10929468626E+04  0.10940429827E+04  0.10000000000E+01 0.  0.
<mgrwt>
<rscale>  0 0.12499706E+03</rscale>
<asrwt>0</asrwt>
<pdfrwt beam="2">  1        4 0.44555495E-03 0.12499706E+03</pdfrwt>
<pdfrwt beam="1">  1       -4 0.20749689E+00 0.12499706E+03</pdfrwt>
<totfact> 0.21043166E+03</totfact>
</mgrwt>
</event>
<event>
 5    1  0.3273105E-002  0.1250027E+03  0.7818608E-02  0.1235065E+00
         -4   -1    0    0    0  501 -0.00000000000E+00  0.00000000000E+00  0.11299181257E+02  0.11370329682E+02  0.12700000000E+01 0.  1.
          4   -1    0    0  501    0  0.00000000000E+00 -0.00000000000E+00 -0.34456865006E+03  0.34457099051E+03  0.12700000000E+01 0.  1.
         25    2    1    2    0    0  0.00000000000E+00  0.00000000000E+00 -0.33326946880E+03  0.35594132019E+03  0.12500273832E+03 0.  0.
    9000005    1    3    3    0    0  0.87452992995E+01  0.74781066651E+01 -0.34154019365E+03  0.34173543308E+03  0.10000000000E+01 0.  0.
    9000005    1    3    3    0    0 -0.87452992995E+01 -0.74781066651E+01  0.82707248545E+01  0.14205887116E+02  0.10000000000E+01 0.  0.
<mgrwt>
<rscale>  0 0.12500274E+03</rscale>
<asrwt>0</asrwt>
<pdfrwt beam="2">  1        4 0.53016207E-01 0.12500274E+03</pdfrwt>
<pdfrwt beam="1">  1       -4 0.17439888E-02 0.12500274E+03</pdfrwt>
<totfact> 0.69071665E+03</totfact>
</mgrwt>
</event>
<event>
 5    1  0.3273105E-002  0.1250004E+03  0.7818608E-02  0.1235069E+00
         -4   -1    0    0    0  501 -0.00000000000E+00  0.00000000000E+00  0.12314193804E+04  0.12314200353E+04  0.12700000000E+01 0. -1.
          4   -1    0    0  501    0  0.00000000000E+00 -0.00000000000E+00 -0.30443781727E+01  0.32986570689E+01  0.12700000000E+01 0. -1.
         25    2    1    2    0    0  0.00000000000E+00  0.00000000000E+00  0.12283750023E+04  0.12347186924E+04  0.12500041270E+03 0.  0.
    9000005    1    3    3    0    0 -0.22314746206E+02 -0.56549251016E+02  0.47121284411E+03  0.47511925886E+03  0.10000000000E+01 0.  0.
    9000005    1    3    3    0    0  0.22314746206E+02  0.56549251016E+02  0.75716215816E+03  0.75959943354E+03  0.10000000000E+01 0.  0.
<mgrwt>
<rscale>  0 0.12500041E+03</rscale>
<asrwt>0</asrwt>
<pdfrwt beam="2">  1        4 0.48797623E-03 0.12500041E+03</pdfrwt>
<pdfrwt beam="1">  1       -4 0.18946872E+00 0.12500041E+03</pdfrwt>
<totfact> 0.23821441E+03</totfact>
</mgrwt>
</event>
<event>
 5    1  0.3273105E-002  0.1250008E+03  0.7818608E-02  0.1235068E+00
         -4   -1    0    0    0  501 -0.00000000000E+00  0.00000000000E+00  0.64976452638E+02  0.64988862872E+02  0.12700000000E+01 0.  1.
          4   -1    0    0  501    0  0.00000000000E+00 -0.00000000000E+00 -0.60093842277E+02  0.60107260623E+02  0.12700000000E+01 0.  1.
         25    2    1    2    0    0  0.00000000000E+00  0.00000000000E+00  0.48826103614E+01  0.12509612349E+03  0.12500080092E+03 0.  0.
    9000005    1    3    3    0    0  0.29619980470E+02 -0.63129590102E+01  0.57146537205E+02  0.64683254472E+02  0.10000000000E+01 0.  0.
    9000005    1    3    3    0    0 -0.29619980470E+02  0.63129590102E+01 -0.52263926844E+02  0.60412869023E+02  0.10000000000E+01 0.  0.
<mgrwt>
<rscale>  0 0.12500080E+03</rscale>
<asrwt>0</asrwt>
<pdfrwt beam="2">  1        4 0.92471933E-02 0.12500080E+03</pdfrwt>
<pdfrwt beam="1">  1       -4 0.99983642E-02 0.12500080E+03</pdfrwt>
<totfact> 0.10450586E+04</totfact>
</mgrwt>
</event>
<event>
 5    1  0.3273105E-002  0.1249968E+03  0.7818608E-02  0.1235074E+00
         -4   -1    0    0    0  501 -0.00000000000E+00  0.00000000000E+00  0.14661688117E+02  0.14716589225E+02  0.12700000000E+01 0.  1.
          4   -1    0    0  501    0  0.00000000000E+00 -0.00000000000E+00 -0.26585772288E+03  0.26586075626E+03  0.12700000000E+01 0.  1.
         25    2    1    2    0    0  0.00000000000E+00  0.00000000000E+00 -0.25119603477E+03  0.28057734548E+03  0.12499679562E+03 0.  0.
    9000005    1    3    3    0    0 -0.41479650512E+02  0.22552139324E+01 -0.20807393006E+02  0.46471442846E+02  0.10000000000E+01 0.  0.
    9000005    1    3    3    0    0  0.41479650512E+02 -0.22552139324E+01 -0.23038864176E+03  0.23410590264E+03  0.10000000000E+01 0.  0.
<mgrwt>
<rscale>  0 0.12499680E+03</rscale>
<asrwt>0</asrwt>
<pdfrwt beam="2">  1        4 0.40905641E-01 0.12499680E+03</pdfrwt>
<pdfrwt beam="1">  1       -4 0.22601010E-02 0.12499680E+03</pdfrwt>
<totfact> 0.78107180E+03</totfact>
</mgrwt>
</event>
<event>
 5    1  0.3273105E-002  0.1250004E+03  0.7818608E-02  0.1235069E+00
          4   -1    0    0  501    0  0.00000000000E+00  0.00000000000E+00  0.29017671886E+02  0.29045450275E+02  0.12700000000E+01 0.  1.
         -4   -1    0    0    0  501 -0.00000000000E+00 -0.00000000000E+00 -0.13452201421E+03  0.13452800901E+03  0.12700000000E+01 0.  1.
         25    2    1    2    0    0  0.00000000000E+00  0.00000000000E+00 -0.10550434232E+03  0.16357345928E+03  0.12500044133E+03 0.  0.
    9000005    1    3    3    0    0  0.37244170715E+02  0.49819371218E+02 -0.60623228319E+02  0.86863535575E+02  0.10000000000E+01 0.  0.
    9000005    1    3    3    0    0 -0.37244170715E+02 -0.49819371218E+02 -0.44881114005E+02  0.76709923707E+02  0.10000000000E+01 0.  0.
<mgrwt>
<rscale>  0 0.12500044E+03</rscale>
<asrwt>0</asrwt>
<pdfrwt beam="1">  1        4 0.44668552E-02 0.12500044E+03</pdfrwt>
<pdfrwt beam="2">  1       -4 0.20698292E-01 0.12500044E+03</pdfrwt>
<totfact> 0.96657282E+03</totfact>
</mgrwt>
</event>
<event>
 5    1  0.3273105E-002  0.1249981E+03  0.7818608E-02  0.1235072E+00
         -4   -1    0    0    0  501 -0.00000000000E+00  0.00000000000E+00  0.85639999543E+03  0.85640093710E+03  0.12700000000E+01 0.  1.
          4   -1    0    0  501    0  0.00000000000E+00 -0.00000000000E+00 -0.44717389762E+01  0.46485857495E+01  0.12700000000E+01 0.  1.
         25    2    1    2    0    0  0.00000000000E+00  0.00000000000E+00  0.85192825645E+03  0.86104952285E+03  0.12499810663E+03 0.  0.
    9000005    1    3    3    0    0  0.57642085934E+02  0.67439530950E+01  0.58559919280E+03  0.58846878047E+03  0.10000000000E+01 0.  0.
    9000005    1    3    3    0    0 -0.57642085934E+02 -0.67439530950E+01  0.26632906365E+03  0.27258074238E+03  0.10000000000E+01 0.  0.
<mgrwt>
<rscale>  0 0.12499811E+03</rscale>
<asrwt>0</asrwt>
<pdfrwt beam="2">  1        4 0.70163634E-03 0.12499811E+03</pdfrwt>
<pdfrwt beam="1">  1       -4 0.13176743E+00 0.12499811E+03</pdfrwt>
<totfact> 0.35680882E+03</totfact>
</mgrwt>
</event>
<event>
 5    1  0.3273105E-002  0.1249965E+03  0.7818608E-02  0.1235075E+00
         -4   -1    0    0    0  501 -0.00000000000E+00  0.00000000000E+00  0.28221374557E+02  0.28249935963E+02  0.12700000000E+01 0.  1.
          4   -1    0    0  501    0  0.00000000000E+00 -0.00000000000E+00 -0.13830526190E+03  0.13831109272E+03  0.12700000000E+01 0.  1.
         25    2    1    2    0    0  0.00000000000E+00  0.00000000000E+00 -0.11008388734E+03  0.16656102868E+03  0.12499645604E+03 0.  0.
    9000005    1    3    3    0    0  0.38505894242E+02 -0.49065274173E+02 -0.60189615093E+02  0.86682724842E+02  0.10000000000E+01 0.  0.
    9000005    1    3    3    0    0 -0.38505894242E+02  0.49065274173E+02 -0.49894272252E+02  0.79878303842E+02  0.10000000000E+01 0.  0.
<mgrwt>
<rscale>  0 0.12499646E+03</rscale>
<asrwt>0</asrwt>
<pdfrwt beam="2">  1        4 0.21280378E-01 0.12499646E+03</pdfrwt>
<pdfrwt beam="1">  1       -4 0.43443955E-02 0.12499646E+03</pdfrwt>
<totfact> 0.96100222E+03</totfact>
</mgrwt>
</event>
<event>
 5    1  0.3273105E-002  0.1249974E+03  0.7818608E-02  0.1235073E+00
         -4   -1    0    0    0  501 -0.00000000000E+00  0.00000000000E+00  0.50443653462E+02  0.50459638074E+02  0.12700000000E+01 0. -1.
          4   -1    0    0  501    0  0.00000000000E+00 -0.00000000000E+00 -0.77401189763E+02  0.77411608153E+02  0.12700000000E+01 0. -1.
         25    2    1    2    0    0  0.00000000000E+00  0.00000000000E+00 -0.26957536302E+02  0.12787124623E+03  0.12499738737E+03 0.  0.
    9000005    1    3    3    0    0  0.40430554834E+01 -0.16230274192E+02  0.48116174127E+02  0.50950312174E+02  0.10000000000E+01 0.  0.
    9000005    1    3    3    0    0 -0.40430554834E+01  0.16230274192E+02 -0.75073710429E+02  0.76920934053E+02  0.10000000000E+01 0.  0.
<mgrwt>
<rscale>  0 0.12499739E+03</rscale>
<asrwt>0</asrwt>
<pdfrwt beam="2">  1        4 0.11909906E-01 0.12499739E+03</pdfrwt>
<pdfrwt beam="1">  1       -4 0.77625931E-02 0.12499739E+03</pdfrwt>
<totfact> 0.10390882E+04</totfact>
</mgrwt>
</event>
<event>
 5    1  0.3273105E-002  0.1250021E+03  0.7818608E-02  0.1235066E+00
          4   -1    0    0  501    0  0.00000000000E+00  0.00000000000E+00  0.14527844239E+03  0.14528399334E+03  0.12700000000E+01 0.  1.
         -4   -1    0    0    0  501 -0.00000000000E+00 -0.00000000000E+00 -0.26867845128E+02  0.26897843814E+02  0.12700000000E+01 0.  1.
         25    2    1    2    0    0  0.00000000000E+00  0.00000000000E+00  0.11841059726E+03  0.17218183716E+03  0.12500206200E+03 0.  0.
    9000005    1    3    3    0    0 -0.22787157025E+02 -0.50591960135E+01 -0.20644527854E+02  0.31177660591E+02  0.10000000000E+01 0.  0.
    9000005    1    3    3    0    0  0.22787157025E+02  0.50591960135E+01  0.13905512511E+03  0.14100417657E+03  0.10000000000E+01 0.  0.
<mgrwt>
<rscale>  0 0.12500206E+03</rscale>
<asrwt>0</asrwt>
<pdfrwt beam="1">  1        4 0.22353264E-01 0.12500206E+03</pdfrwt>
<pdfrwt beam="2">  1       -4 0.41362493E-02 0.12500206E+03</pdfrwt>
<totfact> 0.95039132E+03</totfact>
</mgrwt>
</event>
<event>
 5    1  0.3273105E-002  0.1250000E+03  0.7818608E-02  0.1235069E+00
          4   -1    0    0  501    0  0.00000000000E+00  0.00000000000E+00  0.84673896227E+03  0.84673991469E+03  0.12700000000E+01 0.  1.
         -4   -1    0    0    0  501 -0.00000000000E+00 -0.00000000000E+00 -0.45249071029E+01  0.46997536414E+01  0.12700000000E+01 0.  1.
         25    2    1    2    0    0  0.00000000000E+00  0.00000000000E+00  0.84221405517E+03  0.85143966833E+03  0.12499997634E+03 0.  0.
    9000005    1    3    3    0    0  0.50580120730E+02  0.34764094085E+02  0.50122788157E+03  0.50497255382E+03  0.10000000000E+01 0.  0.
    9000005    1    3    3    0    0 -0.50580120730E+02 -0.34764094085E+02  0.34098617360E+03  0.34646711451E+03  0.10000000000E+01 0.  0.
<mgrwt>
<rscale>  0 0.12499998E+03</rscale>
<asrwt>0</asrwt>
<pdfrwt beam="1">  1        4 0.13028118E+00 0.12499998E+03</pdfrwt>
<pdfrwt beam="2">  1       -4 0.70966189E-03 0.12499998E+03</pdfrwt>
<totfact> 0.36068468E+03</totfact>
</mgrwt>
</event>
<event>
 5    1  0.3273105E-002  0.1250064E+03  0.7818608E-02  0.1235059E+00
         -4   -1    0    0    0  501 -0.00000000000E+00  0.00000000000E+00  0.36842868673E+01  0.38970334513E+01  0.12700000000E+01 0.  1.
          4   -1    0    0  501    0  0.00000000000E+00 -0.00000000000E+00 -0.10303852729E+04  0.10303860556E+04  0.12700000000E+01 0.  1.
         25    2    1    2    0    0  0.00000000000E+00  0.00000000000E+00 -0.10267009861E+04  0.10342830890E+04  0.12500637388E+03 0.  0.
    9000005    1    3    3    0    0 -0.45106336860E+02 -0.28141449613E+02 -0.24155437019E+03  0.24733789958E+03  0.10000000000E+01 0.  0.
    9000005    1    3    3    0    0  0.45106336860E+02  0.28141449613E+02 -0.78514661586E+03  0.78694518946E+03  0.10000000000E+01 0.  0.
<mgrwt>
<rscale>  0 0.12500637E+03</rscale>
<asrwt>0</asrwt>
<pdfrwt beam="2">  1        4 0.15853701E+00 0.12500637E+03</pdfrwt>
<pdfrwt beam="1">  1       -4 0.58323951E-03 0.12500637E+03</pdfrwt>
<totfact> 0.29486575E+03</totfact>
</mgrwt>
</event>
<event>
 5    1  0.3273105E-002  0.1249901E+03  0.7818608E-02  0.1235085E+00
          4   -1    0    0  501    0  0.00000000000E+00  0.00000000000E+00  0.45665644653E+03  0.45665821252E+03  0.12700000000E+01 0.  1.
         -4   -1    0    0    0  501 -0.00000000000E+00 -0.00000000000E+00 -0.85037318713E+01  0.85980437158E+01  0.12700000000E+01 0.  1.
         25    2    1    2    0    0  0.00000000000E+00  0.00000000000E+00  0.44815271466E+03  0.46525625623E+03  0.12499011283E+03 0.  0.
    9000005    1    3    3    0    0  0.14608481294E+02 -0.29897739205E+02  0.42095106670E+03  0.42226541783E+03  0.10000000000E+01 0.  0.
    9000005    1    3    3    0    0 -0.14608481294E+02  0.29897739205E+02  0.27201647963E+02  0.42990838410E+02  0.10000000000E+01 0.  0.
<mgrwt>
<rscale>  0 0.12499011E+03</rscale>
<asrwt>0</asrwt>
<pdfrwt beam="1">  1        4 0.70262251E-01 0.12499011E+03</pdfrwt>
<pdfrwt beam="2">  1       -4 0.13156566E-02 0.12499011E+03</pdfrwt>
<totfact> 0.58677318E+03</totfact>
</mgrwt>
</event>
<event>
 5    1  0.3273105E-002  0.1249996E+03  0.7818608E-02  0.1235070E+00
         -4   -1    0    0    0  501 -0.00000000000E+00  0.00000000000E+00  0.14740390889E+03  0.14740937981E+03  0.12700000000E+01 0. -1.
          4   -1    0    0  501    0  0.00000000000E+00 -0.00000000000E+00 -0.26478950643E+02  0.26509389415E+02  0.12700000000E+01 0. -1.
         25    2    1    2    0    0  0.00000000000E+00  0.00000000000E+00  0.12092495825E+03  0.17391876923E+03  0.12499957105E+03 0.  0.
    9000005    1    3    3    0    0  0.21941273462E+02  0.31905012797E+02  0.12870803227E+03  0.13441021871E+03  0.10000000000E+01 0.  0.
    9000005    1    3    3    0    0 -0.21941273462E+02 -0.31905012797E+02 -0.77830740219E+01  0.39508550517E+02  0.10000000000E+01 0.  0.
<mgrwt>
<rscale>  0 0.12499957E+03</rscale>
<asrwt>0</asrwt>
<pdfrwt beam="2">  1        4 0.40764470E-02 0.12499957E+03</pdfrwt>
<pdfrwt beam="1">  1       -4 0.22680286E-01 0.12499957E+03</pdfrwt>
<totfact> 0.94724151E+03</totfact>
</mgrwt>
</event>
<event>
 5    1  0.3273105E-002  0.1250004E+03  0.7818608E-02  0.1235069E+00
         -4   -1    0    0    0  501 -0.00000000000E+00  0.00000000000E+00  0.53591071706E+01  0.55075339006E+01  0.12700000000E+01 0. -1.
          4   -1    0    0  501    0  0.00000000000E+00 -0.00000000000E+00 -0.71879889844E+03  0.71880002038E+03  0.12700000000E+01 0. -1.
         25    2    1    2    0    0  0.00000000000E+00  0.00000000000E+00 -0.71343979127E+03  0.72430755428E+03  0.12500038969E+03 0.  0.
    9000005    1    3    3    0    0  0.54770850718E+02 -0.24084889892E+02 -0.25220345418E+03  0.25920553680E+03  0.10000000000E+01 0.  0.
    9000005    1    3    3    0    0 -0.54770850718E+02  0.24084889892E+02 -0.46123633709E+03  0.46510201748E+03  0.10000000000E+01 0.  0.
<mgrwt>
<rscale>  0 0.12500039E+03</rscale>
<asrwt>0</asrwt>
<pdfrwt beam="2">  1        4 0.11059587E+00 0.12500039E+03</pdfrwt>
<pdfrwt beam="1">  1       -4 0.83598234E-03 0.12500039E+03</pdfrwt>
<totfact> 0.41833828E+03</totfact>
</mgrwt>
</event>
<event>
 5    1  0.3273105E-002  0.1250056E+03  0.7818608E-02  0.1235061E+00
         -4   -1    0    0    0  501 -0.00000000000E+00  0.00000000000E+00  0.43071864371E+03  0.43072051605E+03  0.12700000000E+01 0.  1.
          4   -1    0    0  501    0  0.00000000000E+00 -0.00000000000E+00 -0.90236021012E+01  0.91125350414E+01  0.12700000000E+01 0.  1.
         25    2    1    2    0    0  0.00000000000E+00  0.00000000000E+00  0.42169504161E+03  0.43983305109E+03  0.12500561871E+03 0.  0.
    9000005    1    3    3    0    0 -0.10290982202E+02  0.59730171098E+02  0.15725482332E+03  0.16853390493E+03  0.10000000000E+01 0.  0.
    9000005    1    3    3    0    0  0.10290982202E+02 -0.59730171098E+02  0.26444021829E+03  0.27129914616E+03  0.10000000000E+01 0.  0.
<mgrwt>
<rscale>  0 0.12500562E+03</rscale>
<asrwt>0</asrwt>
<pdfrwt beam="2">  1        4 0.13952317E-02 0.12500562E+03</pdfrwt>
<pdfrwt beam="1">  1       -4 0.66271382E-01 0.12500562E+03</pdfrwt>
<totfact> 0.60847156E+03</totfact>
</mgrwt>
</event>
<event>
 5    1  0.3273105E-002  0.1249708E+03  0.7818608E-02  0.1235115E+00
          4   -1    0    0  501    0  0.00000000000E+00  0.00000000000E+00  0.43685667616E+02  0.43704124005E+02  0.12700000000E+01 0. -1.
         -4   -1    0    0    0  501 -0.00000000000E+00 -0.00000000000E+00 -0.89333560146E+02  0.89342587092E+02  0.12700000000E+01 0. -1.
         25    2    1    2    0    0  0.00000000000E+00  0.00000000000E+00 -0.45647892530E+02  0.13304671110E+03  0.12497078555E+03 0.  0.
    9000005    1    3    3    0    0 -0.25145292334E+02 -0.48940861314E+02 -0.54332648207E+02  0.77333888392E+02  0.10000000000E+01 0.  0.
    9000005    1    3    3    0    0  0.25145292334E+02  0.48940861314E+02  0.86847556770E+01  0.55712822706E+02  0.10000000000E+01 0.  0.
<mgrwt>
<rscale>  0 0.12497079E+03</rscale>
<asrwt>0</asrwt>
<pdfrwt beam="1">  1        4 0.67229860E-02 0.12497079E+03</pdfrwt>
<pdfrwt beam="2">  1       -4 0.13745739E-01 0.12497079E+03</pdfrwt>
<totfact> 0.10286184E+04</totfact>
</mgrwt>
</event>
<event>
 5    1  0.3273105E-002  0.1249980E+03  0.7818608E-02  0.1235072E+00
         -4   -1    0    0    0  501 -0.00000000000E+00  0.00000000000E+00  0.32044305020E+02  0.32069461863E+02  0.12700000000E+01 0. -1.
          4   -1    0    0  501    0  0.00000000000E+00 -0.00000000000E+00 -0.12182141576E+03  0.12182803552E+03  0.12700000000E+01 0. -1.
         25    2    1    2    0    0  0.00000000000E+00  0.00000000000E+00 -0.89777110742E+02  0.15389749738E+03  0.12499804033E+03 0.  0.
    9000005    1    3    3    0    0  0.43639461610E+02  0.33999411473E+02 -0.80673165639E+02  0.97823934925E+02  0.10000000000E+01 0.  0.
    9000005    1    3    3    0    0 -0.43639461610E+02 -0.33999411473E+02 -0.91039451036E+01  0.56073562457E+02  0.10000000000E+01 0.  0.
<mgrwt>
<rscale>  0 0.12499804E+03</rscale>
<asrwt>0</asrwt>
<pdfrwt beam="2">  1        4 0.18744200E-01 0.12499804E+03</pdfrwt>
<pdfrwt beam="1">  1       -4 0.49323375E-02 0.12499804E+03</pdfrwt>
<totfact> 0.98536713E+03</totfact>
</mgrwt>
</event>
<event>
 5    1  0.3273105E-002  0.1250114E+03  0.7818608E-02  0.1235052E+00
          4   -1    0    0  501    0  0.00000000000E+00  0.00000000000E+00  0.10156114463E+02  0.10235211819E+02  0.12700000000E+01 0. -1.
         -4   -1    0    0    0  501 -0.00000000000E+00 -0.00000000000E+00 -0.38311806133E+03  0.38312016629E+03  0.12700000000E+01 0. -1.
         25    2    1    2    0    0  0.00000000000E+00  0.00000000000E+00 -0.37296194687E+03  0.39335537811E+03  0.12501135819E+03 0.  0.
    9000005    1    3    3    0    0 -0.10772671489E+02 -0.13786575425E+02 -0.37527019958E+03  0.37567917537E+03  0.10000000000E+01 0.  0.
    9000005    1    3    3    0    0  0.10772671489E+02  0.13786575425E+02  0.23082527069E+01  0.17676202745E+02  0.10000000000E+01 0.  0.
<mgrwt>
<rscale>  0 0.12501136E+03</rscale>
<asrwt>0</asrwt>
<pdfrwt beam="1">  1        4 0.15687258E-02 0.12501136E+03</pdfrwt>
<pdfrwt beam="2">  1       -4 0.58947475E-01 0.12501136E+03</pdfrwt>
<totfact> 0.65187861E+03</totfact>
</mgrwt>
</event>
<event>
 5    1  0.3273105E-002  0.1250009E+03  0.7818608E-02  0.1235068E+00
          4   -1    0    0  501    0  0.00000000000E+00  0.00000000000E+00  0.24503408028E+02  0.24536297703E+02  0.12700000000E+01 0.  1.
         -4   -1    0    0    0  501 -0.00000000000E+00 -0.00000000000E+00 -0.15927652204E+03  0.15928158516E+03  0.12700000000E+01 0.  1.
         25    2    1    2    0    0  0.00000000000E+00  0.00000000000E+00 -0.13477311401E+03  0.18381788287E+03  0.12500088720E+03 0.  0.
    9000005    1    3    3    0    0 -0.17433646626E+02  0.27226860793E+02  0.11256992546E+02  0.34248414043E+02  0.10000000000E+01 0.  0.
    9000005    1    3    3    0    0  0.17433646626E+02 -0.27226860793E+02 -0.14603010656E+03  0.14956946882E+03  0.10000000000E+01 0.  0.
<mgrwt>
<rscale>  0 0.12500089E+03</rscale>
<asrwt>0</asrwt>
<pdfrwt beam="1">  1        4 0.37726746E-02 0.12500089E+03</pdfrwt>
<pdfrwt beam="2">  1       -4 0.24506999E-01 0.12500089E+03</pdfrwt>
<totfact> 0.92932403E+03</totfact>
</mgrwt>
</event>
<event>
 5    1  0.3273105E-002  0.1250033E+03  0.7818608E-02  0.1235064E+00
          4   -1    0    0  501    0  0.00000000000E+00  0.00000000000E+00  0.93435340025E+02  0.93443970729E+02  0.12700000000E+01 0. -1.
         -4   -1    0    0    0  501 -0.00000000000E+00 -0.00000000000E+00 -0.41789005463E+02  0.41808299147E+02  0.12700000000E+01 0. -1.
         25    2    1    2    0    0  0.00000000000E+00  0.00000000000E+00  0.51646334562E+02  0.13525226988E+03  0.12500333049E+03 0.  0.
    9000005    1    3    3    0    0 -0.83574066467E+01  0.47892189868E+02  0.68310369391E+02  0.83849953265E+02  0.10000000000E+01 0.  0.
    9000005    1    3    3    0    0  0.83574066467E+01 -0.47892189868E+02 -0.16664034829E+02  0.51402316611E+02  0.10000000000E+01 0.  0.
<mgrwt>
<rscale>  0 0.12500333E+03</rscale>
<asrwt>0</asrwt>
<pdfrwt beam="1">  1        4 0.14376816E-01 0.12500333E+03</pdfrwt>
<pdfrwt beam="2">  1       -4 0.64312258E-02 0.12500333E+03</pdfrwt>
<totfact> 0.10231988E+04</totfact>
</mgrwt>
</event>
<event>
 5    1  0.3273105E-002  0.1249981E+03  0.7818608E-02  0.1235072E+00
          4   -1    0    0  501    0  0.00000000000E+00  0.00000000000E+00  0.80921426205E+02  0.80931391431E+02  0.12700000000E+01 0.  1.
         -4   -1    0    0    0  501 -0.00000000000E+00 -0.00000000000E+00 -0.48249340595E+02  0.48266051919E+02  0.12700000000E+01 0.  1.
         25    2    1    2    0    0  0.00000000000E+00  0.00000000000E+00  0.32672085610E+02  0.12919744335E+03  0.12499805675E+03 0.  0.
    9000005    1    3    3    0    0 -0.60044073190E+02  0.17133312902E+02  0.18927753936E+02  0.65254126347E+02  0.10000000000E+01 0.  0.
    9000005    1    3    3    0    0  0.60044073190E+02 -0.17133312902E+02  0.13744331674E+02  0.63943317003E+02  0.10000000000E+01 0.  0.
<mgrwt>
<rscale>  0 0.12499806E+03</rscale>
<asrwt>0</asrwt>
<pdfrwt beam="1">  1        4 0.12451502E-01 0.12499806E+03</pdfrwt>
<pdfrwt beam="2">  1       -4 0.74250275E-02 0.12499806E+03</pdfrwt>
<totfact> 0.10362161E+04</totfact>
</mgrwt>
</event>
<event>
 5    1  0.3273105E-002  0.1249896E+03  0.7818608E-02  0.1235086E+00
         -4   -1    0    0    0  501 -0.00000000000E+00  0.00000000000E+00  0.44285366831E+03  0.44285548934E+03  0.12700000000E+01 0.  1.
          4   -1    0    0  501    0  0.00000000000E+00 -0.00000000000E+00 -0.87715926329E+01  0.88630546268E+01  0.12700000000E+01 0.  1.
         25    2    1    2    0    0  0.00000000000E+00  0.00000000000E+00  0.43408207568E+03  0.45171854397E+03  0.12498957771E+03 0.  0.
    9000005    1    3    3    0    0 -0.17417653600E+02 -0.59981376569E+02  0.21032003051E+03  0.21940067326E+03  0.10000000000E+01 0.  0.
    9000005    1    3    3    0    0  0.17417653600E+02  0.59981376569E+02  0.22376204517E+03  0.23231787071E+03  0.10000000000E+01 0.  0.
<mgrwt>
<rscale>  0 0.12498958E+03</rscale>
<asrwt>0</asrwt>
<pdfrwt beam="2">  1        4 0.13566513E-02 0.12498958E+03</pdfrwt>
<pdfrwt beam="1">  1       -4 0.68138512E-01 0.12498958E+03</pdfrwt>
<totfact> 0.59828936E+03</totfact>
</mgrwt>
</event>
<event>
 5    1  0.3273105E-002  0.1250002E+03  0.7818608E-02  0.1235069E+00
         -4   -1    0    0    0  501 -0.00000000000E+00  0.00000000000E+00  0.66816385696E+01  0.68012641453E+01  0.12700000000E+01 0.  1.
          4   -1    0    0  501    0  0.00000000000E+00 -0.00000000000E+00 -0.57931903578E+03  0.57932042784E+03  0.12700000000E+01 0.  1.
         25    2    1    2    0    0  0.00000000000E+00  0.00000000000E+00 -0.57263739721E+03  0.58612169199E+03  0.12500019654E+03 0.  0.
    9000005    1    3    3    0    0  0.46100165838E+02  0.31460661319E+02 -0.41813318396E+03  0.42184281200E+03  0.10000000000E+01 0.  0.
    9000005    1    3    3    0    0 -0.46100165838E+02 -0.31460661319E+02 -0.15450421325E+03  0.16427887999E+03  0.10000000000E+01 0.  0.
<mgrwt>
<rscale>  0 0.12500020E+03</rscale>
<asrwt>0</asrwt>
<pdfrwt beam="2">  1        4 0.89135276E-01 0.12500020E+03</pdfrwt>
<pdfrwt beam="1">  1       -4 0.10372539E-02 0.12500020E+03</pdfrwt>
<totfact> 0.49755335E+03</totfact>
</mgrwt>
</event>
<event>
 5    1  0.3273105E-002  0.1250018E+03  0.7818608E-02  0.1235066E+00
         -4   -1    0    0    0  501 -0.00000000000E+00  0.00000000000E+00  0.32468695738E+02  0.32493524015E+02  0.12700000000E+01 0. -1.
          4   -1    0    0  501    0  0.00000000000E+00 -0.00000000000E+00 -0.12023756952E+03  0.12024427647E+03  0.12700000000E+01 0. -1.
         25    2    1    2    0    0  0.00000000000E+00  0.00000000000E+00 -0.87768873779E+02  0.15273780048E+03  0.12500184195E+03 0.  0.
    9000005    1    3    3    0    0  0.32731196577E+02 -0.37210786274E+02  0.26337673866E+01  0.49637793818E+02  0.10000000000E+01 0.  0.
    9000005    1    3    3    0    0 -0.32731196577E+02  0.37210786274E+02 -0.90402641166E+02  0.10310000666E+03  0.10000000000E+01 0.  0.
<mgrwt>
<rscale>  0 0.12500184E+03</rscale>
<asrwt>0</asrwt>
<pdfrwt beam="2">  1        4 0.18500513E-01 0.12500184E+03</pdfrwt>
<pdfrwt beam="1">  1       -4 0.49976098E-02 0.12500184E+03</pdfrwt>
<totfact> 0.98756639E+03</totfact>
</mgrwt>
</event>
<event>
 5    1  0.3273105E-002  0.1249997E+03  0.7818608E-02  0.1235070E+00
         -4   -1    0    0    0  501 -0.00000000000E+00  0.00000000000E+00  0.55709018114E+02  0.55723492346E+02  0.12700000000E+01 0.  1.
          4   -1    0    0  501    0  0.00000000000E+00 -0.00000000000E+00 -0.70089133661E+02  0.70100638780E+02  0.12700000000E+01 0.  1.
         25    2    1    2    0    0  0.00000000000E+00  0.00000000000E+00 -0.14380115547E+02  0.12582413113E+03  0.12499969700E+03 0.  0.
    9000005    1    3    3    0    0  0.54412379865E+02 -0.70370557320E+01 -0.37303987033E+02  0.66353708898E+02  0.10000000000E+01 0.  0.
    9000005    1    3    3    0    0 -0.54412379865E+02  0.70370557320E+01  0.22923871486E+02  0.59470422227E+02  0.10000000000E+01 0.  0.
<mgrwt>
<rscale>  0 0.12499970E+03</rscale>
<asrwt>0</asrwt>
<pdfrwt beam="2">  1        4 0.10784942E-01 0.12499970E+03</pdfrwt>
<pdfrwt beam="1">  1       -4 0.85726166E-02 0.12499970E+03</pdfrwt>
<totfact> 0.10434887E+04</totfact>
</mgrwt>
</event>
<event>
 5    1  0.3273105E-002  0.1250015E+03  0.7818608E-02  0.1235067E+00
          4   -1    0    0  501    0  0.00000000000E+00  0.00000000000E+00  0.29682907951E+02  0.29710064362E+02  0.12700000000E+01 0.  1.
         -4   -1    0    0    0  501 -0.00000000000E+00 -0.00000000000E+00 -0.13151199389E+03  0.13151812589E+03  0.12700000000E+01 0.  1.
         25    2    1    2    0    0  0.00000000000E+00  0.00000000000E+00 -0.10182908594E+03  0.16122819025E+03  0.12500146634E+03 0.  0.
    9000005    1    3    3    0    0 -0.13252673939E+02 -0.42193592779E+02 -0.10786239605E+03  0.11658142699E+03  0.10000000000E+01 0.  0.
    9000005    1    3    3    0    0  0.13252673939E+02  0.42193592779E+02  0.60333101131E+01  0.44646763254E+02  0.10000000000E+01 0.  0.
<mgrwt>
<rscale>  0 0.12500147E+03</rscale>
<asrwt>0</asrwt>
<pdfrwt beam="1">  1        4 0.45691619E-02 0.12500147E+03</pdfrwt>
<pdfrwt beam="2">  1       -4 0.20235175E-01 0.12500147E+03</pdfrwt>
<totfact> 0.97103321E+03</totfact>
</mgrwt>
</event>
<event>
 5    1  0.3273105E-002  0.1250005E+03  0.7818608E-02  0.1235069E+00
          4   -1    0    0  501    0  0.00000000000E+00  0.00000000000E+00  0.13617615119E+02  0.13676707993E+02  0.12700000000E+01 0.  1.
         -4   -1    0    0    0  501 -0.00000000000E+00 -0.00000000000E+00 -0.28617328595E+03  0.28617610399E+03  0.12700000000E+01 0.  1.
         25    2    1    2    0    0  0.00000000000E+00  0.00000000000E+00 -0.27255567083E+03  0.29985281198E+03  0.12500046059E+03 0.  0.
    9000005    1    3    3    0    0 -0.13633187664E+02  0.57674481408E+02 -0.18383664840E+03  0.19315569603E+03  0.10000000000E+01 0.  0.
    9000005    1    3    3    0    0  0.13633187664E+02 -0.57674481408E+02 -0.88719022428E+02  0.10669711595E+03  0.10000000000E+01 0.  0.
<mgrwt>
<rscale>  0 0.12500046E+03</rscale>
<asrwt>0</asrwt>
<pdfrwt beam="1">  1        4 0.20997803E-02 0.12500046E+03</pdfrwt>
<pdfrwt beam="2">  1       -4 0.44031417E-01 0.12500046E+03</pdfrwt>
<totfact> 0.75616534E+03</totfact>
</mgrwt>
</event>
<event>
 5    1  0.3273105E-002  0.1249996E+03  0.7818608E-02  0.1235070E+00
          4   -1    0    0  501    0  0.00000000000E+00  0.00000000000E+00  0.86357727704E+02  0.86367065680E+02  0.12700000000E+01 0. -1.
         -4   -1    0    0    0  501 -0.00000000000E+00 -0.00000000000E+00 -0.45212380070E+02  0.45230213481E+02  0.12700000000E+01 0. -1.
         25    2    1    2    0    0  0.00000000000E+00  0.00000000000E+00  0.41145347634E+02  0.13159727916E+03  0.12499961700E+03 0.  0.
    9000005    1    3    3    0    0  0.25786404850E+02  0.45491562612E+02  0.56595728223E+02  0.77061646733E+02  0.10000000000E+01 0.  0.
    9000005    1    3    3    0    0 -0.25786404850E+02 -0.45491562612E+02 -0.15450380589E+02  0.54535632429E+02  0.10000000000E+01 0.  0.
<mgrwt>
<rscale>  0 0.12499962E+03</rscale>
<asrwt>0</asrwt>
<pdfrwt beam="1">  1        4 0.13287894E-01 0.12499962E+03</pdfrwt>
<pdfrwt beam="2">  1       -4 0.69578409E-02 0.12499962E+03</pdfrwt>
<totfact> 0.10310391E+04</totfact>
</mgrwt>
</event>
<event>
 5    1  0.3273105E-002  0.1249995E+03  0.7818608E-02  0.1235070E+00
          4   -1    0    0  501    0  0.00000000000E+00  0.00000000000E+00  0.14501014937E+03  0.14501571060E+03  0.12700000000E+01 0. -1.
         -4   -1    0    0    0  501 -0.00000000000E+00 -0.00000000000E+00 -0.26916489348E+02  0.26946433880E+02  0.12700000000E+01 0. -1.
         25    2    1    2    0    0  0.00000000000E+00  0.00000000000E+00  0.11809366002E+03  0.17196214448E+03  0.12499946638E+03 0.  0.
    9000005    1    3    3    0    0  0.27571734269E+02 -0.40078750288E+02  0.11301069741E+03  0.12304033682E+03  0.10000000000E+01 0.  0.
    9000005    1    3    3    0    0 -0.27571734269E+02  0.40078750288E+02  0.50829626055E+01  0.48921807654E+02  0.10000000000E+01 0.  0.
<mgrwt>
<rscale>  0 0.12499947E+03</rscale>
<asrwt>0</asrwt>
<pdfrwt beam="1">  1        4 0.22311985E-01 0.12499947E+03</pdfrwt>
<pdfrwt beam="2">  1       -4 0.41437296E-02 0.12499947E+03</pdfrwt>
<totfact> 0.95085318E+03</totfact>
</mgrwt>
</event>
<event>
 5    1  0.3273105E-002  0.1249952E+03  0.7818608E-02  0.1235077E+00
          4   -1    0    0  501    0  0.00000000000E+00  0.00000000000E+00  0.87699077069E+03  0.87699169025E+03  0.12700000000E+01 0.  1.
         -4   -1    0    0    0  501 -0.00000000000E+00 -0.00000000000E+00 -0.43623342461E+01  0.45434414352E+01  0.12700000000E+01 0.  1.
         25    2    1    2    0    0  0.00000000000E+00  0.00000000000E+00  0.87262843644E+03  0.88153513169E+03  0.12499520116E+03 0.  0.
    9000005    1    3    3    0    0  0.68594371527E+00 -0.59280358107E+02  0.57564785264E+03  0.57869342628E+03  0.10000000000E+01 0.  0.
    9000005    1    3    3    0    0 -0.68594371527E+00  0.59280358107E+02  0.29698058380E+03  0.30284170540E+03  0.10000000000E+01 0.  0.
<mgrwt>
<rscale>  0 0.12499520E+03</rscale>
<asrwt>0</asrwt>
<pdfrwt beam="1">  1        4 0.13493567E+00 0.12499520E+03</pdfrwt>
<pdfrwt beam="2">  1       -4 0.68513036E-03 0.12499520E+03</pdfrwt>
<totfact> 0.34874107E+03</totfact>
</mgrwt>
</event>
<event>
 5    1  0.3273105E-002  0.1249983E+03  0.7818608E-02  0.1235072E+00
         -4   -1    0    0    0  501 -0.00000000000E+00  0.00000000000E+00  0.88726889652E+02  0.88735978314E+02  0.12700000000E+01 0.  1.
          4   -1    0    0  501    0  0.00000000000E+00 -0.00000000000E+00 -0.44003858937E+02  0.44022181924E+02  0.12700000000E+01 0.  1.
         25    2    1    2    0    0  0.00000000000E+00  0.00000000000E+00  0.44723030715E+02  0.13275816024E+03  0.12499831852E+03 0.  0.
    9000005    1    3    3    0    0 -0.16385129762E+02  0.55546451538E+02  0.47298097648E+02  0.74779614849E+02  0.10000000000E+01 0.  0.
    9000005    1    3    3    0    0  0.16385129762E+02 -0.55546451538E+02 -0.25750669330E+01  0.57978545390E+02  0.10000000000E+01 0.  0.
<mgrwt>
<rscale>  0 0.12499832E+03</rscale>
<asrwt>0</asrwt>
<pdfrwt beam="2">  1        4 0.67719331E-02 0.12499832E+03</pdfrwt>
<pdfrwt beam="1">  1       -4 0.13652399E-01 0.12499832E+03</pdfrwt>
<totfact> 0.10285933E+04</totfact>
</mgrwt>
</event>
<event>
 5    1  0.3273105E-002  0.1249952E+03  0.7818608E-02  0.1235077E+00
          4   -1    0    0  501    0  0.00000000000E+00  0.00000000000E+00  0.11256214865E+03  0.11256931291E+03  0.12700000000E+01 0. -1.
         -4   -1    0    0    0  501 -0.00000000000E+00 -0.00000000000E+00 -0.34680506306E+02  0.34703752213E+02  0.12700000000E+01 0. -1.
         25    2    1    2    0    0  0.00000000000E+00  0.00000000000E+00  0.77881642342E+02  0.14727306512E+03  0.12499522189E+03 0.  0.
    9000005    1    3    3    0    0 -0.57835320075E+02 -0.19166755298E+02  0.55294996200E+02  0.82285025136E+02  0.10000000000E+01 0.  0.
    9000005    1    3    3    0    0  0.57835320075E+02  0.19166755298E+02  0.22586646142E+02  0.64988039983E+02  0.10000000000E+01 0.  0.
<mgrwt>
<rscale>  0 0.12499522E+03</rscale>
<asrwt>0</asrwt>
<pdfrwt beam="1">  1        4 0.17319593E-01 0.12499522E+03</pdfrwt>
<pdfrwt beam="2">  1       -4 0.53378016E-02 0.12499522E+03</pdfrwt>
<totfact> 0.99860816E+03</totfact>
</mgrwt>
</event>
<event>
 5    1  0.3273105E-002  0.1249999E+03  0.7818608E-02  0.1235069E+00
          4   -1    0    0  501    0  0.00000000000E+00  0.00000000000E+00  0.67872297895E+03  0.67872416714E+03  0.12700000000E+01 0.  1.
         -4   -1    0    0    0  501 -0.00000000000E+00 -0.00000000000E+00 -0.56840159958E+01  0.58241684248E+01  0.12700000000E+01 0.  1.
         25    2    1    2    0    0  0.00000000000E+00  0.00000000000E+00  0.67303896296E+03  0.68454833556E+03  0.12499991226E+03 0.  0.
    9000005    1    3    3    0    0  0.28681055710E+02  0.26925942862E+02  0.70610681229E+02  0.80836116058E+02  0.10000000000E+01 0.  0.
    9000005    1    3    3    0    0 -0.28681055710E+02 -0.26925942862E+02  0.60242828173E+03  0.60371221951E+03  0.10000000000E+01 0.  0.
<mgrwt>
<rscale>  0 0.12499991E+03</rscale>
<asrwt>0</asrwt>
<pdfrwt beam="1">  1        4 0.10442976E+00 0.12499991E+03</pdfrwt>
<pdfrwt beam="2">  1       -4 0.88533662E-03 0.12499991E+03</pdfrwt>
<totfact> 0.43915110E+03</totfact>
</mgrwt>
</event>
<event>
 5    1  0.3273105E-002  0.1249998E+03  0.7818608E-02  0.1235070E+00
         -4   -1    0    0    0  501 -0.00000000000E+00  0.00000000000E+00  0.13514330350E+03  0.13514927074E+03  0.12700000000E+01 0. -1.
          4   -1    0    0  501    0  0.00000000000E+00 -0.00000000000E+00 -0.28883868072E+02  0.28911775020E+02  0.12700000000E+01 0. -1.
         25    2    1    2    0    0  0.00000000000E+00  0.00000000000E+00  0.10625943543E+03  0.16406104575E+03  0.12499983647E+03 0.  0.
    9000005    1    3    3    0    0  0.32187758565E+02  0.49058734475E+02  0.81353703847E+02  0.10031069913E+03  0.10000000000E+01 0.  0.
    9000005    1    3    3    0    0 -0.32187758565E+02 -0.49058734475E+02  0.24905731579E+02  0.63750346628E+02  0.10000000000E+01 0.  0.
<mgrwt>
<rscale>  0 0.12499984E+03</rscale>
<asrwt>0</asrwt>
<pdfrwt beam="2">  1        4 0.44462777E-02 0.12499984E+03</pdfrwt>
<pdfrwt beam="1">  1       -4 0.20793883E-01 0.12499984E+03</pdfrwt>
<totfact> 0.96565866E+03</totfact>
</mgrwt>
</event>
<event>
 5    1  0.3273105E-002  0.1249968E+03  0.7818608E-02  0.1235074E+00
         -4   -1    0    0    0  501 -0.00000000000E+00  0.00000000000E+00  0.40607352419E+02  0.40627207269E+02  0.12700000000E+01 0. -1.
          4   -1    0    0  501    0  0.00000000000E+00 -0.00000000000E+00 -0.96143106054E+02  0.96151493705E+02  0.12700000000E+01 0. -1.
         25    2    1    2    0    0  0.00000000000E+00  0.00000000000E+00 -0.55535753635E+02  0.13677870097E+03  0.12499677239E+03 0.  0.
    9000005    1    3    3    0    0 -0.42233969142E+02  0.11053008998E+02  0.21158680773E+02  0.48523879992E+02  0.10000000000E+01 0.  0.
    9000005    1    3    3    0    0  0.42233969142E+02 -0.11053008998E+02 -0.76694434408E+02  0.88254820982E+02  0.10000000000E+01 0.  0.
<mgrwt>
<rscale>  0 0.12499677E+03</rscale>
<asrwt>0</asrwt>
<pdfrwt beam="2">  1        4 0.14793419E-01 0.12499677E+03</pdfrwt>
<pdfrwt beam="1">  1       -4 0.62494575E-02 0.12499677E+03</pdfrwt>
<totfact> 0.10201457E+04</totfact>
</mgrwt>
</event>
<event>
 5    1  0.3273105E-002  0.1250145E+03  0.7818608E-02  0.1235047E+00
         -4   -1    0    0    0  501 -0.00000000000E+00  0.00000000000E+00  0.48746621185E+02  0.48763162089E+02  0.12700000000E+01 0.  1.
          4   -1    0    0  501    0  0.00000000000E+00 -0.00000000000E+00 -0.80117181731E+02  0.80127246979E+02  0.12700000000E+01 0.  1.
         25    2    1    2    0    0  0.00000000000E+00  0.00000000000E+00 -0.31370560546E+02  0.12889040907E+03  0.12501450108E+03 0.  0.
    9000005    1    3    3    0    0 -0.41551149794E+02 -0.44217492277E+02 -0.23839198739E+00  0.60685595517E+02  0.10000000000E+01 0.  0.
    9000005    1    3    3    0    0  0.41551149794E+02  0.44217492277E+02 -0.31132168559E+02  0.68204813552E+02  0.10000000000E+01 0.  0.
<mgrwt>
<rscale>  0 0.12501450E+03</rscale>
<asrwt>0</asrwt>
<pdfrwt beam="2">  1        4 0.12327767E-01 0.12501450E+03</pdfrwt>
<pdfrwt beam="1">  1       -4 0.75015268E-02 0.12501450E+03</pdfrwt>
<totfact> 0.10364909E+04</totfact>
</mgrwt>
</event>
<event>
 5    1  0.3273105E-002  0.1249946E+03  0.7818608E-02  0.1235078E+00
          4   -1    0    0  501    0  0.00000000000E+00  0.00000000000E+00  0.18749297712E+03  0.18749727830E+03  0.12700000000E+01 0.  1.
         -4   -1    0    0    0  501 -0.00000000000E+00 -0.00000000000E+00 -0.20808399165E+02  0.20847119125E+02  0.12700000000E+01 0.  1.
         25    2    1    2    0    0  0.00000000000E+00  0.00000000000E+00  0.16668457796E+03  0.20834439743E+03  0.12499455752E+03 0.  0.
    9000005    1    3    3    0    0 -0.68092893384E+01 -0.44839560992E+02  0.15499566827E+03  0.16149801805E+03  0.10000000000E+01 0.  0.
    9000005    1    3    3    0    0  0.68092893384E+01  0.44839560992E+02  0.11688909691E+02  0.46846379380E+02  0.10000000000E+01 0.  0.
<mgrwt>
<rscale>  0 0.12499456E+03</rscale>
<asrwt>0</asrwt>
<pdfrwt beam="1">  1        4 0.28848383E-01 0.12499456E+03</pdfrwt>
<pdfrwt beam="2">  1       -4 0.32046015E-02 0.12499456E+03</pdfrwt>
<totfact> 0.88757778E+03</totfact>
</mgrwt>
</event>
<event>
 5    1  0.3273105E-002  0.1250023E+03  0.7818608E-02  0.1235066E+00
          4   -1    0    0  501    0  0.00000000000E+00  0.00000000000E+00  0.17353631866E+03  0.17354096575E+03  0.12700000000E+01 0. -1.
         -4   -1    0    0    0  501 -0.00000000000E+00 -0.00000000000E+00 -0.22487658919E+02  0.22523492262E+02  0.12700000000E+01 0. -1.
         25    2    1    2    0    0  0.00000000000E+00  0.00000000000E+00  0.15104865974E+03  0.19606445801E+03  0.12500229633E+03 0.  0.
    9000005    1    3    3    0    0 -0.23752043901E+02  0.36126494111E+02  0.47490592976E+01  0.43506743506E+02  0.10000000000E+01 0.  0.
    9000005    1    3    3    0    0  0.23752043901E+02 -0.36126494111E+02  0.14629960044E+03  0.15255771451E+03  0.10000000000E+01 0.  0.
<mgrwt>
<rscale>  0 0.12500230E+03</rscale>
<asrwt>0</asrwt>
<pdfrwt beam="1">  1        4 0.26701009E-01 0.12500230E+03</pdfrwt>
<pdfrwt beam="2">  1       -4 0.34627538E-02 0.12500230E+03</pdfrwt>
<totfact> 0.90798027E+03</totfact>
</mgrwt>
</event>
<event>
 5    1  0.3273105E-002  0.1249954E+03  0.7818608E-02  0.1235076E+00
         -4   -1    0    0    0  501 -0.00000000000E+00  0.00000000000E+00  0.99826774998E+02  0.99834853165E+02  0.12700000000E+01 0. -1.
          4   -1    0    0  501    0  0.00000000000E+00 -0.00000000000E+00 -0.39107456800E+02  0.39128072753E+02  0.12700000000E+01 0. -1.
         25    2    1    2    0    0  0.00000000000E+00  0.00000000000E+00  0.60719318198E+02  0.13896292592E+03  0.12499543663E+03 0.  0.
    9000005    1    3    3    0    0  0.37143503832E+02  0.46074592391E+01  0.85992379815E+02  0.93789967181E+02  0.10000000000E+01 0.  0.
    9000005    1    3    3    0    0 -0.37143503832E+02 -0.46074592391E+01 -0.25273061618E+02  0.45172958737E+02  0.10000000000E+01 0.  0.
<mgrwt>
<rscale>  0 0.12499544E+03</rscale>
<asrwt>0</asrwt>
<pdfrwt beam="2">  1        4 0.60187392E-02 0.12499544E+03</pdfrwt>
<pdfrwt beam="1">  1       -4 0.15360172E-01 0.12499544E+03</pdfrwt>
<totfact> 0.10156169E+04</totfact>
</mgrwt>
</event>
<event>
 5    1  0.3273105E-002  0.1250060E+03  0.7818608E-02  0.1235060E+00
         -4   -1    0    0    0  501 -0.00000000000E+00  0.00000000000E+00  0.10046639441E+03  0.10047442116E+03  0.12700000000E+01 0.  1.
          4   -1    0    0  501    0  0.00000000000E+00 -0.00000000000E+00 -0.38864932419E+02  0.38885676951E+02  0.12700000000E+01 0.  1.
         25    2    1    2    0    0  0.00000000000E+00  0.00000000000E+00  0.61601461996E+02  0.13936009811E+03  0.12500598715E+03 0.  0.
    9000005    1    3    3    0    0 -0.96869395124E+01 -0.60917961064E+02  0.19608539782E+02  0.64732755307E+02  0.10000000000E+01 0.  0.
    9000005    1    3    3    0    0  0.96869395124E+01  0.60917961064E+02  0.41992922214E+02  0.74627342800E+02  0.10000000000E+01 0.  0.
<mgrwt>
<rscale>  0 0.12500599E+03</rscale>
<asrwt>0</asrwt>
<pdfrwt beam="2">  1        4 0.59814336E-02 0.12500599E+03</pdfrwt>
<pdfrwt beam="1">  1       -4 0.15458581E-01 0.12500599E+03</pdfrwt>
<totfact> 0.10145497E+04</totfact>
</mgrwt>
</event>
<event>
 5    1  0.3273105E-002  0.1250011E+03  0.7818608E-02  0.1235068E+00
         -4   -1    0    0    0  501 -0.00000000000E+00  0.00000000000E+00  0.11158672559E+02  0.11230711165E+02  0.12700000000E+01 0. -1.
          4   -1    0    0  501    0  0.00000000000E+00 -0.00000000000E+00 -0.34887036637E+03  0.34887267796E+03  0.12700000000E+01 0. -1.
         25    2    1    2    0    0  0.00000000000E+00  0.00000000000E+00 -0.33771169381E+03  0.36010338913E+03  0.12500105090E+03 0.  0.
    9000005    1    3    3    0    0 -0.33554778177E+02  0.34234668608E+02 -0.53358282538E+02  0.71735918400E+02  0.10000000000E+01 0.  0.
    9000005    1    3    3    0    0  0.33554778177E+02 -0.34234668608E+02 -0.28435341127E+03  0.28836747073E+03  0.10000000000E+01 0.  0.
<mgrwt>
<rscale>  0 0.12500105E+03</rscale>
<asrwt>0</asrwt>
<pdfrwt beam="2">  1        4 0.53678075E-01 0.12500105E+03</pdfrwt>
<pdfrwt beam="1">  1       -4 0.17224384E-02 0.12500105E+03</pdfrwt>
<totfact> 0.68625585E+03</totfact>
</mgrwt>
</event>
<event>
 5    1  0.3273105E-002  0.1250019E+03  0.7818608E-02  0.1235066E+00
         -4   -1    0    0    0  501 -0.00000000000E+00  0.00000000000E+00  0.43366386853E+01  0.45187758394E+01  0.12700000000E+01 0. -1.
          4   -1    0    0  501    0  0.00000000000E+00 -0.00000000000E+00 -0.88207226659E+03  0.88207318085E+03  0.12700000000E+01 0. -1.
         25    2    1    2    0    0  0.00000000000E+00  0.00000000000E+00 -0.87773562790E+03  0.88659195669E+03  0.12500186073E+03 0.  0.
    9000005    1    3    3    0    0  0.46090197182E+02 -0.34593732017E+02 -0.61031793083E+03  0.61303344873E+03  0.10000000000E+01 0.  0.
    9000005    1    3    3    0    0 -0.46090197182E+02  0.34593732017E+02 -0.26741769707E+03  0.27355850796E+03  0.10000000000E+01 0.  0.
<mgrwt>
<rscale>  0 0.12500186E+03</rscale>
<asrwt>0</asrwt>
<pdfrwt beam="2">  1        4 0.13571737E+00 0.12500186E+03</pdfrwt>
<pdfrwt beam="1">  1       -4 0.68125676E-03 0.12500186E+03</pdfrwt>
<totfact> 0.34673508E+03</totfact>
</mgrwt>
</event>
<event>
 5    1  0.3273105E-002  0.1250014E+03  0.7818608E-02  0.1235067E+00
         -4   -1    0    0    0  501 -0.00000000000E+00  0.00000000000E+00  0.31469966101E+02  0.31495581696E+02  0.12700000000E+01 0. -1.
          4   -1    0    0  501    0  0.00000000000E+00 -0.00000000000E+00 -0.12404979884E+03  0.12405629968E+03  0.12700000000E+01 0. -1.
         25    2    1    2    0    0  0.00000000000E+00  0.00000000000E+00 -0.92579832736E+02  0.15555188138E+03  0.12500144948E+03 0.  0.
    9000005    1    3    3    0    0 -0.22421142655E+02  0.41991111513E+02 -0.96674766421E+02  0.10776349821E+03  0.10000000000E+01 0.  0.
    9000005    1    3    3    0    0  0.22421142655E+02 -0.41991111513E+02  0.40949336857E+01  0.47788383170E+02  0.10000000000E+01 0.  0.
<mgrwt>
<rscale>  0 0.12500145E+03</rscale>
<asrwt>0</asrwt>
<pdfrwt beam="2">  1        4 0.19087055E-01 0.12500145E+03</pdfrwt>
<pdfrwt beam="1">  1       -4 0.48440038E-02 0.12500145E+03</pdfrwt>
<totfact> 0.98204065E+03</totfact>
</mgrwt>
</event>
<event>
 4    1  0.3273105E-002  0.1247598E+03  0.7818608E-02  0.1235445E+00
         -4   -1    0    0    0  501 -0.00000000000E+00  0.00000000000E+00  0.18739668833E+02  0.18782653912E+02  0.12700000000E+01 0.  1.
          4   -1    0    0  501    0  0.00000000000E+00 -0.00000000000E+00 -0.20736496200E+03  0.20736885100E+03  0.12700000000E+01 0.  1.
    9000005    1    1    2    0    0 -0.29664428309E+01  0.60611258355E+02 -0.68186798932E+02  0.91285069815E+02  0.10000000000E+01 0.  0.
    9000005    1    1    2    0    0  0.29664428309E+01 -0.60611258355E+02 -0.12043849424E+03  0.13486643510E+03  0.10000000000E+01 0.  0.
<mgrwt>
<rscale>  0 0.12475978E+03</rscale>
<asrwt>0</asrwt>
<pdfrwt beam="2">  1        4 0.31905906E-01 0.12475978E+03</pdfrwt>
<pdfrwt beam="1">  1       -4 0.28866318E-02 0.12475978E+03</pdfrwt>
<totfact> 0.86366267E+03</totfact>
</mgrwt>
</event>
<event>
 5    1  0.3273105E-002  0.1249968E+03  0.7818608E-02  0.1235074E+00
         -4   -1    0    0    0  501 -0.00000000000E+00  0.00000000000E+00  0.98803954296E+01  0.99616822799E+01  0.12700000000E+01 0. -1.
          4   -1    0    0  501    0  0.00000000000E+00 -0.00000000000E+00 -0.39363167489E+03  0.39363372363E+03  0.12700000000E+01 0. -1.
         25    2    1    2    0    0  0.00000000000E+00  0.00000000000E+00 -0.38375127946E+03  0.40359540591E+03  0.12499682869E+03 0.  0.
    9000005    1    3    3    0    0  0.57636652280E+02  0.20623162438E+02 -0.15132138553E+03  0.16323743515E+03  0.10000000000E+01 0.  0.
    9000005    1    3    3    0    0 -0.57636652280E+02 -0.20623162438E+02 -0.23242989393E+03  0.24035797076E+03  0.10000000000E+01 0.  0.
<mgrwt>
<rscale>  0 0.12499683E+03</rscale>
<asrwt>0</asrwt>
<pdfrwt beam="2">  1        4 0.60565118E-01 0.12499683E+03</pdfrwt>
<pdfrwt beam="1">  1       -4 0.15264716E-02 0.12499683E+03</pdfrwt>
<totfact> 0.64209100E+03</totfact>
</mgrwt>
</event>
<event>
 5    1  0.3273105E-002  0.1249817E+03  0.7818608E-02  0.1235098E+00
         -4   -1    0    0    0  501 -0.00000000000E+00  0.00000000000E+00  0.36897259283E+02  0.36919109450E+02  0.12700000000E+01 0.  1.
          4   -1    0    0  501    0  0.00000000000E+00 -0.00000000000E+00 -0.10578028981E+03  0.10578791336E+03  0.12700000000E+01 0.  1.
         25    2    1    2    0    0  0.00000000000E+00  0.00000000000E+00 -0.68883030530E+02  0.14270702281E+03  0.12498168851E+03 0.  0.
    9000005    1    3    3    0    0  0.56395914178E+02 -0.11341561877E+02 -0.65900221418E+01  0.57909917576E+02  0.10000000000E+01 0.  0.
    9000005    1    3    3    0    0 -0.56395914178E+02  0.11341561877E+02 -0.62293008389E+02  0.84797105233E+02  0.10000000000E+01 0.  0.
<mgrwt>
<rscale>  0 0.12498169E+03</rscale>
<asrwt>0</asrwt>
<pdfrwt beam="2">  1        4 0.16276158E-01 0.12498169E+03</pdfrwt>
<pdfrwt beam="1">  1       -4 0.56787687E-02 0.12498169E+03</pdfrwt>
<totfact> 0.10081944E+04</totfact>
</mgrwt>
</event>
<event>
 5    1  0.3273105E-002  0.1249952E+03  0.7818608E-02  0.1235077E+00
          4   -1    0    0  501    0  0.00000000000E+00  0.00000000000E+00  0.36586930768E+02  0.36608966157E+02  0.12700000000E+01 0. -1.
         -4   -1    0    0    0  501 -0.00000000000E+00 -0.00000000000E+00 -0.10670010337E+03  0.10670766120E+03  0.12700000000E+01 0. -1.
         25    2    1    2    0    0  0.00000000000E+00  0.00000000000E+00 -0.70113172597E+02  0.14331662735E+03  0.12499519473E+03 0.  0.
    9000005    1    3    3    0    0  0.33357858612E+02 -0.51824487998E+02 -0.23228189518E+02  0.65871640907E+02  0.10000000000E+01 0.  0.
    9000005    1    3    3    0    0 -0.33357858612E+02  0.51824487998E+02 -0.46884983080E+02  0.77444986447E+02  0.10000000000E+01 0.  0.
<mgrwt>
<rscale>  0 0.12499519E+03</rscale>
<asrwt>0</asrwt>
<pdfrwt beam="1">  1        4 0.56310350E-02 0.12499519E+03</pdfrwt>
<pdfrwt beam="2">  1       -4 0.16417677E-01 0.12499519E+03</pdfrwt>
<totfact> 0.10066393E+04</totfact>
</mgrwt>
</event>
<event>
 5    1  0.3273105E-002  0.1250001E+03  0.7818608E-02  0.1235069E+00
         -4   -1    0    0    0  501 -0.00000000000E+00  0.00000000000E+00  0.62027493051E+02  0.62040493181E+02  0.12700000000E+01 0.  1.
          4   -1    0    0  501    0  0.00000000000E+00 -0.00000000000E+00 -0.62950189419E+02  0.62962999038E+02  0.12700000000E+01 0.  1.
         25    2    1    2    0    0  0.00000000000E+00  0.00000000000E+00 -0.92269636789E+00  0.12500349222E+03  0.12500008679E+03 0.  0.
    9000005    1    3    3    0    0 -0.29085943621E+01  0.33994531729E+02 -0.52818932882E+02  0.62888216538E+02  0.10000000000E+01 0.  0.
    9000005    1    3    3    0    0  0.29085943621E+01 -0.33994531729E+02  0.51896236514E+02  0.62115275681E+02  0.10000000000E+01 0.  0.
<mgrwt>
<rscale>  0 0.12500009E+03</rscale>
<asrwt>0</asrwt>
<pdfrwt beam="2">  1        4 0.96866298E-02 0.12500009E+03</pdfrwt>
<pdfrwt beam="1">  1       -4 0.95446767E-02 0.12500009E+03</pdfrwt>
<totfact> 0.10452766E+04</totfact>
</mgrwt>
</event>
<event>
 5    1  0.3273105E-002  0.1250003E+03  0.7818608E-02  0.1235069E+00
         -4   -1    0    0    0  501 -0.00000000000E+00  0.00000000000E+00  0.33199333604E+02  0.33223615874E+02  0.12700000000E+01 0. -1.
          4   -1    0    0  501    0  0.00000000000E+00 -0.00000000000E+00 -0.11759039622E+03  0.11759725415E+03  0.12700000000E+01 0. -1.
         25    2    1    2    0    0  0.00000000000E+00  0.00000000000E+00 -0.84391062616E+02  0.15082087002E+03  0.12500033354E+03 0.  0.
    9000005    1    3    3    0    0 -0.83562660319E+01  0.60504210222E+02 -0.26248601064E+02  0.66487410044E+02  0.10000000000E+01 0.  0.
    9000005    1    3    3    0    0  0.83562660319E+01 -0.60504210222E+02 -0.58142461551E+02  0.84333459978E+02  0.10000000000E+01 0.  0.
<mgrwt>
<rscale>  0 0.12500033E+03</rscale>
<asrwt>0</asrwt>
<pdfrwt beam="2">  1        4 0.18093225E-01 0.12500033E+03</pdfrwt>
<pdfrwt beam="1">  1       -4 0.51099853E-02 0.12500033E+03</pdfrwt>
<totfact> 0.99139577E+03</totfact>
</mgrwt>
</event>
<event>
 5    1  0.3273105E-002  0.1250015E+03  0.7818608E-02  0.1235067E+00
          4   -1    0    0  501    0  0.00000000000E+00  0.00000000000E+00  0.56850883184E+01  0.58252149478E+01  0.12700000000E+01 0.  1.
         -4   -1    0    0    0  501 -0.00000000000E+00 -0.00000000000E+00 -0.67861575251E+03  0.67861694089E+03  0.12700000000E+01 0.  1.
         25    2    1    2    0    0  0.00000000000E+00  0.00000000000E+00 -0.67293066420E+03  0.68444215584E+03  0.12500154347E+03 0.  0.
    9000005    1    3    3    0    0 -0.50922387374E+02  0.29127113466E+01 -0.13875818293E+03  0.14783912457E+03  0.10000000000E+01 0.  0.
    9000005    1    3    3    0    0  0.50922387374E+02 -0.29127113466E+01 -0.53417248127E+03  0.53660303127E+03  0.10000000000E+01 0.  0.
<mgrwt>
<rscale>  0 0.12500154E+03</rscale>
<asrwt>0</asrwt>
<pdfrwt beam="1">  1        4 0.88549989E-03 0.12500154E+03</pdfrwt>
<pdfrwt beam="2">  1       -4 0.10441323E+00 0.12500154E+03</pdfrwt>
<totfact> 0.43919334E+03</totfact>
</mgrwt>
</event>
<event>
 5    1  0.3273105E-002  0.1250015E+03  0.7818608E-02  0.1235067E+00
         -4   -1    0    0    0  501 -0.00000000000E+00  0.00000000000E+00  0.39668858876E+02  0.39689183218E+02  0.12700000000E+01 0. -1.
          4   -1    0    0  501    0  0.00000000000E+00 -0.00000000000E+00 -0.98424101988E+02  0.98432295270E+02  0.12700000000E+01 0. -1.
         25    2    1    2    0    0  0.00000000000E+00  0.00000000000E+00 -0.58755243112E+02  0.13812147849E+03  0.12500145690E+03 0.  0.
    9000005    1    3    3    0    0 -0.55862595760E+02  0.19631481780E+02 -0.51457908022E+02  0.78453431919E+02  0.10000000000E+01 0.  0.
    9000005    1    3    3    0    0  0.55862595760E+02 -0.19631481780E+02 -0.72973350902E+01  0.59668046569E+02  0.10000000000E+01 0.  0.
<mgrwt>
<rscale>  0 0.12500146E+03</rscale>
<asrwt>0</asrwt>
<pdfrwt beam="2">  1        4 0.15144363E-01 0.12500146E+03</pdfrwt>
<pdfrwt beam="1">  1       -4 0.61050951E-02 0.12500146E+03</pdfrwt>
<totfact> 0.10172334E+04</totfact>
</mgrwt>
</event>
<event>
 4    1  0.3273105E-002  0.1252937E+03  0.7818608E-02  0.1234611E+00
          4   -1    0    0  501    0  0.00000000000E+00  0.00000000000E+00  0.19516483615E+02  0.19557761444E+02  0.12700000000E+01 0.  1.
         -4   -1    0    0    0  501 -0.00000000000E+00 -0.00000000000E+00 -0.20083714749E+03  0.20084116289E+03  0.12700000000E+01 0.  1.
    9000005    1    1    2    0    0 -0.32828490874E+02  0.36466474005E+02 -0.15915330479E+03  0.16654815509E+03  0.10000000000E+01 0.  0.
    9000005    1    1    2    0    0  0.32828490874E+02 -0.36466474005E+02 -0.22167359089E+02  0.53850769246E+02  0.10000000000E+01 0.  0.
<mgrwt>
<rscale>  0 0.12529367E+03</rscale>
<asrwt>0</asrwt>
<pdfrwt beam="1">  1        4 0.30060202E-02 0.12529367E+03</pdfrwt>
<pdfrwt beam="2">  1       -4 0.30901505E-01 0.12529367E+03</pdfrwt>
<totfact> 0.86238334E+03</totfact>
</mgrwt>
</event>
<event>
 5    1  0.3273105E-002  0.1249991E+03  0.7818608E-02  0.1235071E+00
          4   -1    0    0  501    0  0.00000000000E+00  0.00000000000E+00  0.20332112441E+03  0.20332509076E+03  0.12700000000E+01 0. -1.
         -4   -1    0    0    0  501 -0.00000000000E+00 -0.00000000000E+00 -0.19186784319E+02  0.19228769916E+02  0.12700000000E+01 0. -1.
         25    2    1    2    0    0  0.00000000000E+00  0.00000000000E+00  0.18413434010E+03  0.22255386068E+03  0.12499906280E+03 0.  0.
    9000005    1    3    3    0    0 -0.55891022493E+02 -0.27109757376E+02  0.79933199656E+02  0.10123764985E+03  0.10000000000E+01 0.  0.
    9000005    1    3    3    0    0  0.55891022493E+02  0.27109757376E+02  0.10420114044E+03  0.12131621083E+03  0.10000000000E+01 0.  0.
<mgrwt>
<rscale>  0 0.12499906E+03</rscale>
<asrwt>0</asrwt>
<pdfrwt beam="1">  1        4 0.31283706E-01 0.12499906E+03</pdfrwt>
<pdfrwt beam="2">  1       -4 0.29553479E-02 0.12499906E+03</pdfrwt>
<totfact> 0.86467651E+03</totfact>
</mgrwt>
</event>
<event>
 5    1  0.3273105E-002  0.1249865E+03  0.7818608E-02  0.1235090E+00
         -4   -1    0    0    0  501 -0.00000000000E+00  0.00000000000E+00  0.10751773729E+03  0.10752523765E+03  0.12700000000E+01 0.  1.
          4   -1    0    0  501    0  0.00000000000E+00 -0.00000000000E+00 -0.36303514613E+02  0.36325721923E+02  0.12700000000E+01 0.  1.
         25    2    1    2    0    0  0.00000000000E+00  0.00000000000E+00  0.71214222673E+02  0.14385095957E+03  0.12498653151E+03 0.  0.
    9000005    1    3    3    0    0 -0.28430779378E+02  0.38152799909E+02 -0.11008647104E+02  0.48848087659E+02  0.10000000000E+01 0.  0.
    9000005    1    3    3    0    0  0.28430779378E+02 -0.38152799909E+02  0.82222869777E+02  0.95002871911E+02  0.10000000000E+01 0.  0.
<mgrwt>
<rscale>  0 0.12498653E+03</rscale>
<asrwt>0</asrwt>
<pdfrwt beam="2">  1        4 0.55874413E-02 0.12498653E+03</pdfrwt>
<pdfrwt beam="1">  1       -4 0.16543475E-01 0.12498653E+03</pdfrwt>
<totfact> 0.10057437E+04</totfact>
</mgrwt>
</event>
<event>
 5    1  0.3273105E-002  0.1250026E+03  0.7818608E-02  0.1235065E+00
          4   -1    0    0  501    0  0.00000000000E+00  0.00000000000E+00  0.32745478086E+02  0.32770096659E+02  0.12700000000E+01 0. -1.
         -4   -1    0    0    0  501 -0.00000000000E+00 -0.00000000000E+00 -0.11922341101E+03  0.11923017500E+03  0.12700000000E+01 0. -1.
         25    2    1    2    0    0  0.00000000000E+00  0.00000000000E+00 -0.86477932920E+02  0.15200027166E+03  0.12500259879E+03 0.  0.
    9000005    1    3    3    0    0  0.15478456917E+02 -0.60518847406E+02 -0.45447532045E+02  0.77256661129E+02  0.10000000000E+01 0.  0.
    9000005    1    3    3    0    0 -0.15478456917E+02  0.60518847406E+02 -0.41030400874E+02  0.74743610535E+02  0.10000000000E+01 0.  0.
<mgrwt>
<rscale>  0 0.12500260E+03</rscale>
<asrwt>0</asrwt>
<pdfrwt beam="1">  1        4 0.50401800E-02 0.12500260E+03</pdfrwt>
<pdfrwt beam="2">  1       -4 0.18344477E-01 0.12500260E+03</pdfrwt>
<totfact> 0.98900675E+03</totfact>
</mgrwt>
</event>
<event>
 5    1  0.3273105E-002  0.1250151E+03  0.7818608E-02  0.1235046E+00
          4   -1    0    0  501    0  0.00000000000E+00  0.00000000000E+00  0.20108506470E+02  0.20148571474E+02  0.12700000000E+01 0. -1.
         -4   -1    0    0    0  501 -0.00000000000E+00 -0.00000000000E+00 -0.19406996862E+03  0.19407412403E+03  0.12700000000E+01 0. -1.
         25    2    1    2    0    0  0.00000000000E+00  0.00000000000E+00 -0.17396146215E+03  0.21422269551E+03  0.12501509092E+03 0.  0.
    9000005    1    3    3    0    0  0.94112533855E+01  0.21678186105E+02  0.12165192901E+02  0.26599010534E+02  0.10000000000E+01 0.  0.
    9000005    1    3    3    0    0 -0.94112533855E+01 -0.21678186105E+02 -0.18612665505E+03  0.18762368497E+03  0.10000000000E+01 0.  0.
<mgrwt>
<rscale>  0 0.12501509E+03</rscale>
<asrwt>0</asrwt>
<pdfrwt beam="1">  1        4 0.30970181E-02 0.12501509E+03</pdfrwt>
<pdfrwt beam="2">  1       -4 0.29860319E-01 0.12501509E+03</pdfrwt>
<totfact> 0.87761269E+03</totfact>
</mgrwt>
</event>
<event>
 5    1  0.3273105E-002  0.1250032E+03  0.7818608E-02  0.1235064E+00
          4   -1    0    0  501    0  0.00000000000E+00  0.00000000000E+00  0.38353212098E+02  0.38374233260E+02  0.12700000000E+01 0. -1.
         -4   -1    0    0    0  501 -0.00000000000E+00 -0.00000000000E+00 -0.10180173268E+03  0.10180965414E+03  0.12700000000E+01 0. -1.
         25    2    1    2    0    0  0.00000000000E+00  0.00000000000E+00 -0.63448520578E+02  0.14018388740E+03  0.12500323005E+03 0.  0.
    9000005    1    3    3    0    0  0.20754114544E+00  0.51697885011E+02 -0.71098498676E+02  0.87913087205E+02  0.10000000000E+01 0.  0.
    9000005    1    3    3    0    0 -0.20754114544E+00 -0.51697885011E+02  0.76499780982E+01  0.52270800193E+02  0.10000000000E+01 0.  0.
<mgrwt>
<rscale>  0 0.12500323E+03</rscale>
<asrwt>0</asrwt>
<pdfrwt beam="1">  1        4 0.59027206E-02 0.12500323E+03</pdfrwt>
<pdfrwt beam="2">  1       -4 0.15664031E-01 0.12500323E+03</pdfrwt>
<totfact> 0.10129039E+04</totfact>
</mgrwt>
</event>
<event>
 5    1  0.3273105E-002  0.1249979E+03  0.7818608E-02  0.1235073E+00
          4   -1    0    0  501    0  0.00000000000E+00  0.00000000000E+00  0.25959568834E+03  0.25959879488E+03  0.12700000000E+01 0.  1.
         -4   -1    0    0    0  501 -0.00000000000E+00 -0.00000000000E+00 -0.15016937240E+02  0.15070544253E+02  0.12700000000E+01 0.  1.
         25    2    1    2    0    0  0.00000000000E+00  0.00000000000E+00  0.24457875109E+03  0.27466933913E+03  0.12499792147E+03 0.  0.
    9000005    1    3    3    0    0 -0.29472018617E+02  0.29512207287E+02  0.20032744070E+02  0.46280461269E+02  0.10000000000E+01 0.  0.
    9000005    1    3    3    0    0  0.29472018617E+02 -0.29512207287E+02  0.22454600703E+03  0.22838887786E+03  0.10000000000E+01 0.  0.
<mgrwt>
<rscale>  0 0.12499792E+03</rscale>
<asrwt>0</asrwt>
<pdfrwt beam="1">  1        4 0.39942160E-01 0.12499792E+03</pdfrwt>
<pdfrwt beam="2">  1       -4 0.23146607E-02 0.12499792E+03</pdfrwt>
<totfact> 0.78893909E+03</totfact>
</mgrwt>
</event>
<event>
 5    1  0.3273105E-002  0.1250011E+03  0.7818608E-02  0.1235068E+00
         -4   -1    0    0    0  501 -0.00000000000E+00  0.00000000000E+00  0.85278876892E+02  0.85288332988E+02  0.12700000000E+01 0.  1.
          4   -1    0    0  501    0  0.00000000000E+00 -0.00000000000E+00 -0.45785584500E+02  0.45803194736E+02  0.12700000000E+01 0.  1.
         25    2    1    2    0    0  0.00000000000E+00  0.00000000000E+00  0.39493292392E+02  0.13109152772E+03  0.12500107398E+03 0.  0.
    9000005    1    3    3    0    0  0.33288867620E+01 -0.62298950950E+02  0.23538958629E+02  0.66688254962E+02  0.10000000000E+01 0.  0.
    9000005    1    3    3    0    0 -0.33288867620E+01  0.62298950950E+02  0.15954333762E+02  0.64403272761E+02  0.10000000000E+01 0.  0.
<mgrwt>
<rscale>  0 0.12500107E+03</rscale>
<asrwt>0</asrwt>
<pdfrwt beam="2">  1        4 0.70460182E-02 0.12500107E+03</pdfrwt>
<pdfrwt beam="1">  1       -4 0.13121909E-01 0.12500107E+03</pdfrwt>
<totfact> 0.10320877E+04</totfact>
</mgrwt>
</event>
<event>
 5    1  0.3273105E-002  0.1250047E+03  0.7818608E-02  0.1235062E+00
          4   -1    0    0  501    0  0.00000000000E+00  0.00000000000E+00  0.12383307215E+02  0.12448260826E+02  0.12700000000E+01 0. -1.
         -4   -1    0    0    0  501 -0.00000000000E+00 -0.00000000000E+00 -0.31457717915E+03  0.31457974273E+03  0.12700000000E+01 0. -1.
         25    2    1    2    0    0  0.00000000000E+00  0.00000000000E+00 -0.30219387193E+03  0.32702800356E+03  0.12500471543E+03 0.  0.
    9000005    1    3    3    0    0 -0.52352907937E+02  0.39062851981E+01 -0.62400691682E+02  0.81553248592E+02  0.10000000000E+01 0.  0.
    9000005    1    3    3    0    0  0.52352907937E+02 -0.39062851981E+01 -0.23979318025E+03  0.24547475497E+03  0.10000000000E+01 0.  0.
<mgrwt>
<rscale>  0 0.12500472E+03</rscale>
<asrwt>0</asrwt>
<pdfrwt beam="1">  1        4 0.19103181E-02 0.12500472E+03</pdfrwt>
<pdfrwt beam="2">  1       -4 0.48401677E-01 0.12500472E+03</pdfrwt>
<totfact> 0.72320407E+03</totfact>
</mgrwt>
</event>
<event>
 5    1  0.3273105E-002  0.1249982E+03  0.7818608E-02  0.1235072E+00
         -4   -1    0    0    0  501 -0.00000000000E+00  0.00000000000E+00  0.63902877520E+03  0.63903003719E+03  0.12700000000E+01 0. -1.
          4   -1    0    0  501    0  0.00000000000E+00 -0.00000000000E+00 -0.60453647739E+01  0.61773242792E+01  0.12700000000E+01 0. -1.
         25    2    1    2    0    0  0.00000000000E+00  0.00000000000E+00  0.63298341042E+03  0.64520736147E+03  0.12499816567E+03 0.  0.
    9000005    1    3    3    0    0 -0.95152544873E+01 -0.36181908297E+02  0.57486036159E+03  0.57607734366E+03  0.10000000000E+01 0.  0.
    9000005    1    3    3    0    0  0.95152544873E+01  0.36181908297E+02  0.58123048836E+02  0.69130017807E+02  0.10000000000E+01 0.  0.
<mgrwt>
<rscale>  0 0.12499817E+03</rscale>
<asrwt>0</asrwt>
<pdfrwt beam="2">  1        4 0.94030437E-03 0.12499817E+03</pdfrwt>
<pdfrwt beam="1">  1       -4 0.98322321E-01 0.12499817E+03</pdfrwt>
<totfact> 0.46134668E+03</totfact>
</mgrwt>
</event>
<event>
 5    1  0.3273105E-002  0.1249981E+03  0.7818608E-02  0.1235072E+00
          4   -1    0    0  501    0  0.00000000000E+00  0.00000000000E+00  0.84204810834E+02  0.84214387534E+02  0.12700000000E+01 0. -1.
         -4   -1    0    0    0  501 -0.00000000000E+00 -0.00000000000E+00 -0.46367556581E+02  0.46384945869E+02  0.12700000000E+01 0. -1.
         25    2    1    2    0    0  0.00000000000E+00  0.00000000000E+00  0.37837254253E+02  0.13059933340E+03  0.12499811229E+03 0.  0.
    9000005    1    3    3    0    0  0.45603563218E+02  0.25398741185E+01 -0.25642214771E+02  0.52389494339E+02  0.10000000000E+01 0.  0.
    9000005    1    3    3    0    0 -0.45603563218E+02 -0.25398741185E+01  0.63479469024E+02  0.78209839064E+02  0.10000000000E+01 0.  0.
<mgrwt>
<rscale>  0 0.12499811E+03</rscale>
<asrwt>0</asrwt>
<pdfrwt beam="1">  1        4 0.12956660E-01 0.12499811E+03</pdfrwt>
<pdfrwt beam="2">  1       -4 0.71355446E-02 0.12499811E+03</pdfrwt>
<totfact> 0.10332127E+04</totfact>
</mgrwt>
</event>
<event>
 5    1  0.3273105E-002  0.1249969E+03  0.7818608E-02  0.1235074E+00
          4   -1    0    0  501    0  0.00000000000E+00  0.00000000000E+00  0.98686774947E+02  0.98694946423E+02  0.12700000000E+01 0. -1.
         -4   -1    0    0    0  501 -0.00000000000E+00 -0.00000000000E+00 -0.39560342370E+02  0.39580722434E+02  0.12700000000E+01 0. -1.
         25    2    1    2    0    0  0.00000000000E+00  0.00000000000E+00  0.59126432578E+02  0.13827566886E+03  0.12499690224E+03 0.  0.
    9000005    1    3    3    0    0 -0.59698461701E+02 -0.15358154301E+02  0.40913679785E+02  0.73991272638E+02  0.10000000000E+01 0.  0.
    9000005    1    3    3    0    0  0.59698461701E+02  0.15358154301E+02  0.18212752793E+02  0.64284396219E+02  0.10000000000E+01 0.  0.
<mgrwt>
<rscale>  0 0.12499690E+03</rscale>
<asrwt>0</asrwt>
<pdfrwt beam="1">  1        4 0.15184777E-01 0.12499690E+03</pdfrwt>
<pdfrwt beam="2">  1       -4 0.60884028E-02 0.12499690E+03</pdfrwt>
<totfact> 0.10170159E+04</totfact>
</mgrwt>
</event>
<event>
 5    1  0.3273105E-002  0.1250001E+03  0.7818608E-02  0.1235069E+00
          4   -1    0    0  501    0  0.00000000000E+00  0.00000000000E+00  0.42111764747E+02  0.42130910625E+02  0.12700000000E+01 0.  1.
         -4   -1    0    0    0  501 -0.00000000000E+00 -0.00000000000E+00 -0.92714628981E+02  0.92723326769E+02  0.12700000000E+01 0.  1.
         25    2    1    2    0    0  0.00000000000E+00  0.00000000000E+00 -0.50602864234E+02  0.13485423739E+03  0.12500006190E+03 0.  0.
    9000005    1    3    3    0    0  0.15062753354E+02  0.33979458657E+02 -0.79498864943E+02  0.87764227772E+02  0.10000000000E+01 0.  0.
    9000005    1    3    3    0    0 -0.15062753354E+02 -0.33979458657E+02  0.28896000709E+02  0.47090009622E+02  0.10000000000E+01 0.  0.
<mgrwt>
<rscale>  0 0.12500006E+03</rscale>
<asrwt>0</asrwt>
<pdfrwt beam="1">  1        4 0.64808749E-02 0.12500006E+03</pdfrwt>
<pdfrwt beam="2">  1       -4 0.14265931E-01 0.12500006E+03</pdfrwt>
<totfact> 0.10241130E+04</totfact>
</mgrwt>
</event>
<event>
 5    1  0.3273105E-002  0.1250244E+03  0.7818608E-02  0.1235031E+00
         -4   -1    0    0    0  501 -0.00000000000E+00  0.00000000000E+00  0.29398250598E+03  0.29398524916E+03  0.12700000000E+01 0. -1.
          4   -1    0    0  501    0  0.00000000000E+00 -0.00000000000E+00 -0.13259396591E+02  0.13320078752E+02  0.12700000000E+01 0. -1.
         25    2    1    2    0    0  0.00000000000E+00  0.00000000000E+00  0.28072310939E+03  0.30730532791E+03  0.12502439929E+03 0.  0.
    9000005    1    3    3    0    0  0.50872361043E+02  0.29673089746E+01  0.22932395582E+03  0.23491972832E+03  0.10000000000E+01 0.  0.
    9000005    1    3    3    0    0 -0.50872361043E+02 -0.29673089746E+01  0.51399153572E+02  0.72385599594E+02  0.10000000000E+01 0.  0.
<mgrwt>
<rscale>  0 0.12502440E+03</rscale>
<asrwt>0</asrwt>
<pdfrwt beam="2">  1        4 0.20447862E-02 0.12502440E+03</pdfrwt>
<pdfrwt beam="1">  1       -4 0.45232954E-01 0.12502440E+03</pdfrwt>
<totfact> 0.74651092E+03</totfact>
</mgrwt>
</event>
<event>
 5    1  0.3273105E-002  0.1249993E+03  0.7818608E-02  0.1235070E+00
          4   -1    0    0  501    0  0.00000000000E+00  0.00000000000E+00  0.49585966332E+03  0.49586128969E+03  0.12700000000E+01 0.  1.
         -4   -1    0    0    0  501 -0.00000000000E+00 -0.00000000000E+00 -0.78248106759E+01  0.79272039279E+01  0.12700000000E+01 0.  1.
         25    2    1    2    0    0  0.00000000000E+00  0.00000000000E+00  0.48803485265E+03  0.50378849361E+03  0.12499931560E+03 0.  0.
    9000005    1    3    3    0    0  0.38639844638E+02 -0.21616957020E+01  0.44177059883E+03  0.44346360900E+03  0.10000000000E+01 0.  0.
    9000005    1    3    3    0    0 -0.38639844638E+02  0.21616957020E+01  0.46264253819E+02  0.60324884612E+02  0.10000000000E+01 0.  0.
<mgrwt>
<rscale>  0 0.12499932E+03</rscale>
<asrwt>0</asrwt>
<pdfrwt beam="1">  1        4 0.76294100E-01 0.12499932E+03</pdfrwt>
<pdfrwt beam="2">  1       -4 0.12118186E-02 0.12499932E+03</pdfrwt>
<totfact> 0.55572456E+03</totfact>
</mgrwt>
</event>
<event>
 5    1  0.3273105E-002  0.1250017E+03  0.7818608E-02  0.1235067E+00
          4   -1    0    0  501    0  0.00000000000E+00  0.00000000000E+00  0.35210238550E+03  0.35210467588E+03  0.12700000000E+01 0. -1.
         -4   -1    0    0    0  501 -0.00000000000E+00 -0.00000000000E+00 -0.11055693070E+02  0.11128398324E+02  0.12700000000E+01 0. -1.
         25    2    1    2    0    0  0.00000000000E+00  0.00000000000E+00  0.34104669243E+03  0.36323307420E+03  0.12500167909E+03 0.  0.
    9000005    1    3    3    0    0  0.40836846050E+02  0.36655842345E+02  0.83636918438E+02  0.10003715759E+03  0.10000000000E+01 0.  0.
    9000005    1    3    3    0    0 -0.40836846050E+02 -0.36655842345E+02  0.25740977399E+03  0.26319591661E+03  0.10000000000E+01 0.  0.
<mgrwt>
<rscale>  0 0.12500168E+03</rscale>
<asrwt>0</asrwt>
<pdfrwt beam="1">  1        4 0.54175369E-01 0.12500168E+03</pdfrwt>
<pdfrwt beam="2">  1       -4 0.17066447E-02 0.12500168E+03</pdfrwt>
<totfact> 0.68290337E+03</totfact>
</mgrwt>
</event>
<event>
 5    1  0.3273105E-002  0.1249947E+03  0.7818608E-02  0.1235078E+00
         -4   -1    0    0    0  501 -0.00000000000E+00  0.00000000000E+00  0.70469772100E+01  0.71605019236E+01  0.12700000000E+01 0. -1.
          4   -1    0    0  501    0  0.00000000000E+00 -0.00000000000E+00 -0.54972537410E+03  0.54972684110E+03  0.12700000000E+01 0. -1.
         25    2    1    2    0    0  0.00000000000E+00  0.00000000000E+00 -0.54267839689E+03  0.55688734303E+03  0.12499468138E+03 0.  0.
    9000005    1    3    3    0    0  0.28838244074E+02  0.40460158869E+02 -0.10249324556E+03  0.11390581268E+03  0.10000000000E+01 0.  0.
    9000005    1    3    3    0    0 -0.28838244074E+02 -0.40460158869E+02 -0.44018515133E+03  0.44298153035E+03  0.10000000000E+01 0.  0.
<mgrwt>
<rscale>  0 0.12499468E+03</rscale>
<asrwt>0</asrwt>
<pdfrwt beam="2">  1        4 0.84581946E-01 0.12499468E+03</pdfrwt>
<pdfrwt beam="1">  1       -4 0.10929963E-02 0.12499468E+03</pdfrwt>
<totfact> 0.51713278E+03</totfact>
</mgrwt>
</event>
<event>
 5    1  0.3273105E-002  0.1249945E+03  0.7818608E-02  0.1235078E+00
          4   -1    0    0  501    0  0.00000000000E+00  0.00000000000E+00  0.41793212467E+03  0.41793405429E+03  0.12700000000E+01 0.  1.
         -4   -1    0    0    0  501 -0.00000000000E+00 -0.00000000000E+00 -0.93006879292E+01  0.93869961093E+01  0.12700000000E+01 0.  1.
         25    2    1    2    0    0  0.00000000000E+00  0.00000000000E+00  0.40863143674E+03  0.42732105040E+03  0.12499451595E+03 0.  0.
    9000005    1    3    3    0    0 -0.26852405718E+01  0.54512660089E+02  0.30835190981E+03  0.31314651668E+03  0.10000000000E+01 0.  0.
    9000005    1    3    3    0    0  0.26852405718E+01 -0.54512660089E+02  0.10027952693E+03  0.11417453371E+03  0.10000000000E+01 0.  0.
<mgrwt>
<rscale>  0 0.12499452E+03</rscale>
<asrwt>0</asrwt>
<pdfrwt beam="1">  1        4 0.64304046E-01 0.12499452E+03</pdfrwt>
<pdfrwt beam="2">  1       -4 0.14376624E-02 0.12499452E+03</pdfrwt>
<totfact> 0.61987063E+03</totfact>
</mgrwt>
</event>
<event>
 5    1  0.3273105E-002  0.1249982E+03  0.7818608E-02  0.1235072E+00
         -4   -1    0    0    0  501 -0.00000000000E+00  0.00000000000E+00  0.45182949156E+03  0.45183127642E+03  0.12700000000E+01 0. -1.
          4   -1    0    0  501    0  0.00000000000E+00 -0.00000000000E+00 -0.85967010992E+01  0.86900040155E+01  0.12700000000E+01 0. -1.
         25    2    1    2    0    0  0.00000000000E+00  0.00000000000E+00  0.44323279047E+03  0.46052128043E+03  0.12499817273E+03 0.  0.
    9000005    1    3    3    0    0  0.59135604280E+02  0.19587668461E+02  0.23982978747E+03  0.24779028110E+03  0.10000000000E+01 0.  0.
    9000005    1    3    3    0    0 -0.59135604280E+02 -0.19587668461E+02  0.20340300300E+03  0.21273099933E+03  0.10000000000E+01 0.  0.
<mgrwt>
<rscale>  0 0.12499817E+03</rscale>
<asrwt>0</asrwt>
<pdfrwt beam="2">  1        4 0.13298839E-02 0.12499817E+03</pdfrwt>
<pdfrwt beam="1">  1       -4 0.69519541E-01 0.12499817E+03</pdfrwt>
<totfact> 0.59065428E+03</totfact>
</mgrwt>
</event>
<event>
 5    1  0.3273105E-002  0.1250043E+03  0.7818608E-02  0.1235062E+00
         -4   -1    0    0    0  501 -0.00000000000E+00  0.00000000000E+00  0.11979373113E+02  0.12046504894E+02  0.12700000000E+01 0. -1.
          4   -1    0    0  501    0  0.00000000000E+00 -0.00000000000E+00 -0.32512445314E+03  0.32512693356E+03  0.12700000000E+01 0. -1.
         25    2    1    2    0    0  0.00000000000E+00  0.00000000000E+00 -0.31314508003E+03  0.33717343846E+03  0.12500434575E+03 0.  0.
    9000005    1    3    3    0    0 -0.40592787546E+02 -0.31582587643E+02 -0.25232788728E+03  0.25751814876E+03  0.10000000000E+01 0.  0.
    9000005    1    3    3    0    0  0.40592787546E+02  0.31582587643E+02 -0.60817192745E+02  0.79655289695E+02  0.10000000000E+01 0.  0.
<mgrwt>
<rscale>  0 0.12500435E+03</rscale>
<asrwt>0</asrwt>
<pdfrwt beam="2">  1        4 0.50024495E-01 0.12500435E+03</pdfrwt>
<pdfrwt beam="1">  1       -4 0.18483355E-02 0.12500435E+03</pdfrwt>
<totfact> 0.71152228E+03</totfact>
</mgrwt>
</event>
<event>
 5    1  0.3273105E-002  0.1249954E+03  0.7818608E-02  0.1235076E+00
         -4   -1    0    0    0  501 -0.00000000000E+00  0.00000000000E+00  0.78934514183E+02  0.78944730219E+02  0.12700000000E+01 0. -1.
          4   -1    0    0  501    0  0.00000000000E+00 -0.00000000000E+00 -0.49462050682E+02  0.49478352415E+02  0.12700000000E+01 0. -1.
         25    2    1    2    0    0  0.00000000000E+00  0.00000000000E+00  0.29472463501E+02  0.12842308263E+03  0.12499544811E+03 0.  0.
    9000005    1    3    3    0    0  0.37676999713E+02 -0.49217469390E+02  0.22894371368E+02  0.66083794086E+02  0.10000000000E+01 0.  0.
    9000005    1    3    3    0    0 -0.37676999713E+02  0.49217469390E+02  0.65780921329E+01  0.62339288547E+02  0.10000000000E+01 0.  0.
<mgrwt>
<rscale>  0 0.12499545E+03</rscale>
<asrwt>0</asrwt>
<pdfrwt beam="2">  1        4 0.76115861E-02 0.12499545E+03</pdfrwt>
<pdfrwt beam="1">  1       -4 0.12145811E-01 0.12499545E+03</pdfrwt>
<totfact> 0.10379427E+04</totfact>
</mgrwt>
</event>
<event>
 5    1  0.3273105E-002  0.1250021E+03  0.7818608E-02  0.1235066E+00
         -4   -1    0    0    0  501 -0.00000000000E+00  0.00000000000E+00  0.39711264427E+02  0.39731567077E+02  0.12700000000E+01 0. -1.
          4   -1    0    0  501    0  0.00000000000E+00 -0.00000000000E+00 -0.98320024480E+02  0.98328226435E+02  0.12700000000E+01 0. -1.
         25    2    1    2    0    0  0.00000000000E+00  0.00000000000E+00 -0.58608760053E+02  0.13805979351E+03  0.12500207930E+03 0.  0.
    9000005    1    3    3    0    0  0.37796742394E+02  0.28663044088E+02  0.15629853357E+02  0.49954540814E+02  0.10000000000E+01 0.  0.
    9000005    1    3    3    0    0 -0.37796742394E+02 -0.28663044088E+02 -0.74238613410E+02  0.88105252698E+02  0.10000000000E+01 0.  0.
<mgrwt>
<rscale>  0 0.12500208E+03</rscale>
<asrwt>0</asrwt>
<pdfrwt beam="2">  1        4 0.15128350E-01 0.12500208E+03</pdfrwt>
<pdfrwt beam="1">  1       -4 0.61116180E-02 0.12500208E+03</pdfrwt>
<totfact> 0.10173480E+04</totfact>
</mgrwt>
</event>
<event>
 5    1  0.3273105E-002  0.1250063E+03  0.7818608E-02  0.1235059E+00
          4   -1    0    0  501    0  0.00000000000E+00  0.00000000000E+00  0.19235134582E+02  0.19277014873E+02  0.12700000000E+01 0.  1.
         -4   -1    0    0    0  501 -0.00000000000E+00 -0.00000000000E+00 -0.20283468979E+03  0.20283866565E+03  0.12700000000E+01 0.  1.
         25    2    1    2    0    0  0.00000000000E+00  0.00000000000E+00 -0.18359955521E+03  0.22211568052E+03  0.12500631528E+03 0.  0.
    9000005    1    3    3    0    0 -0.59569483463E+00  0.47766433352E+02 -0.20202830490E+02  0.51876211960E+02  0.10000000000E+01 0.  0.
    9000005    1    3    3    0    0  0.59569483463E+00 -0.47766433352E+02 -0.16339672472E+03  0.17023946856E+03  0.10000000000E+01 0.  0.
<mgrwt>
<rscale>  0 0.12500632E+03</rscale>
<asrwt>0</asrwt>
<pdfrwt beam="1">  1        4 0.29627790E-02 0.12500632E+03</pdfrwt>
<pdfrwt beam="2">  1       -4 0.31208863E-01 0.12500632E+03</pdfrwt>
<totfact> 0.86522471E+03</totfact>
</mgrwt>
</event>
<event>
 5    1  0.3273105E-002  0.1249996E+03  0.7818608E-02  0.1235070E+00
         -4   -1    0    0    0  501 -0.00000000000E+00  0.00000000000E+00  0.54094943763E+01  0.55565753309E+01  0.12700000000E+01 0. -1.
          4   -1    0    0  501    0  0.00000000000E+00 -0.00000000000E+00 -0.71227209526E+03  0.71227322748E+03  0.12700000000E+01 0. -1.
         25    2    1    2    0    0  0.00000000000E+00  0.00000000000E+00 -0.70686260089E+03  0.71782980281E+03  0.12499955711E+03 0.  0.
    9000005    1    3    3    0    0 -0.28176911588E+02 -0.55287647257E+02 -0.39584931381E+03  0.40068484066E+03  0.10000000000E+01 0.  0.
    9000005    1    3    3    0    0  0.28176911588E+02  0.55287647257E+02 -0.31101328707E+03  0.31714496216E+03  0.10000000000E+01 0.  0.
<mgrwt>
<rscale>  0 0.12499956E+03</rscale>
<asrwt>0</asrwt>
<pdfrwt beam="2">  1        4 0.10959165E+00 0.12499956E+03</pdfrwt>
<pdfrwt beam="1">  1       -4 0.84363148E-03 0.12499956E+03</pdfrwt>
<totfact> 0.42162472E+03</totfact>
</mgrwt>
</event>
<event>
 5    1  0.3273105E-002  0.1250005E+03  0.7818608E-02  0.1235068E+00
          4   -1    0    0  501    0  0.00000000000E+00  0.00000000000E+00  0.20446838612E+02  0.20486241950E+02  0.12700000000E+01 0. -1.
         -4   -1    0    0    0  501 -0.00000000000E+00 -0.00000000000E+00 -0.19082041664E+03  0.19082464282E+03  0.12700000000E+01 0. -1.
         25    2    1    2    0    0  0.00000000000E+00  0.00000000000E+00 -0.17037357803E+03  0.21131088477E+03  0.12500053572E+03 0.  0.
    9000005    1    3    3    0    0 -0.26553004216E+02 -0.43321312131E+02 -0.14668600309E+03  0.15524039945E+03  0.10000000000E+01 0.  0.
    9000005    1    3    3    0    0  0.26553004216E+02  0.43321312131E+02 -0.23687574937E+02  0.56070485320E+02  0.10000000000E+01 0.  0.
<mgrwt>
<rscale>  0 0.12500054E+03</rscale>
<asrwt>0</asrwt>
<pdfrwt beam="1">  1        4 0.31490237E-02 0.12500054E+03</pdfrwt>
<pdfrwt beam="2">  1       -4 0.29360342E-01 0.12500054E+03</pdfrwt>
<totfact> 0.88261186E+03</totfact>
</mgrwt>
</event>
<event>
 5    1  0.3273105E-002  0.1250005E+03  0.7818608E-02  0.1235068E+00
          4   -1    0    0  501    0  0.00000000000E+00  0.00000000000E+00  0.10114353408E+03  0.10115150708E+03  0.12700000000E+01 0. -1.
         -4   -1    0    0    0  501 -0.00000000000E+00 -0.00000000000E+00 -0.38601232902E+02  0.38622119071E+02  0.12700000000E+01 0. -1.
         25    2    1    2    0    0  0.00000000000E+00  0.00000000000E+00  0.62542301174E+02  0.13977362616E+03  0.12500050853E+03 0.  0.
    9000005    1    3    3    0    0 -0.14063120560E+02  0.60317322416E+02  0.40581742873E+02  0.74052877040E+02  0.10000000000E+01 0.  0.
    9000005    1    3    3    0    0  0.14063120560E+02 -0.60317322416E+02  0.21960558301E+02  0.65720749115E+02  0.10000000000E+01 0.  0.
<mgrwt>
<rscale>  0 0.12500051E+03</rscale>
<asrwt>0</asrwt>
<pdfrwt beam="1">  1        4 0.15562764E-01 0.12500051E+03</pdfrwt>
<pdfrwt beam="2">  1       -4 0.59408712E-02 0.12500051E+03</pdfrwt>
<totfact> 0.10138163E+04</totfact>
</mgrwt>
</event>
<event>
 5    1  0.3273105E-002  0.1250007E+03  0.7818608E-02  0.1235068E+00
          4   -1    0    0  501    0  0.00000000000E+00  0.00000000000E+00  0.10563760992E+02  0.10639828302E+02  0.12700000000E+01 0. -1.
         -4   -1    0    0    0  501 -0.00000000000E+00 -0.00000000000E+00 -0.36837850716E+03  0.36838069634E+03  0.12700000000E+01 0. -1.
         25    2    1    2    0    0  0.00000000000E+00  0.00000000000E+00 -0.35781474617E+03  0.37902052464E+03  0.12500066210E+03 0.  0.
    9000005    1    3    3    0    0  0.48340652181E+02  0.38576702091E+02 -0.15173438819E+03  0.16385757583E+03  0.10000000000E+01 0.  0.
    9000005    1    3    3    0    0 -0.48340652181E+02 -0.38576702091E+02 -0.20608035798E+03  0.21516294882E+03  0.10000000000E+01 0.  0.
<mgrwt>
<rscale>  0 0.12500066E+03</rscale>
<asrwt>0</asrwt>
<pdfrwt beam="1">  1        4 0.16312140E-02 0.12500066E+03</pdfrwt>
<pdfrwt beam="2">  1       -4 0.56679626E-01 0.12500066E+03</pdfrwt>
<totfact> 0.66644692E+03</totfact>
</mgrwt>
</event>
<event>
 5    1  0.3273105E-002  0.1250021E+03  0.7818608E-02  0.1235066E+00
          4   -1    0    0  501    0  0.00000000000E+00  0.00000000000E+00  0.98023982882E+01  0.98843265932E+01  0.12700000000E+01 0. -1.
         -4   -1    0    0    0  501 -0.00000000000E+00 -0.00000000000E+00 -0.39677168272E+03  0.39677371525E+03  0.12700000000E+01 0. -1.
         25    2    1    2    0    0  0.00000000000E+00  0.00000000000E+00 -0.38696928443E+03  0.40665804184E+03  0.12500214357E+03 0.  0.
    9000005    1    3    3    0    0 -0.37522388429E+01  0.60060262463E+02 -0.24831539986E+03  0.25550509237E+03  0.10000000000E+01 0.  0.
    9000005    1    3    3    0    0  0.37522388429E+01 -0.60060262463E+02 -0.13865388458E+03  0.15115294947E+03  0.10000000000E+01 0.  0.
<mgrwt>
<rscale>  0 0.12500214E+03</rscale>
<asrwt>0</asrwt>
<pdfrwt beam="1">  1        4 0.15145201E-02 0.12500214E+03</pdfrwt>
<pdfrwt beam="2">  1       -4 0.61048244E-01 0.12500214E+03</pdfrwt>
<totfact> 0.63907329E+03</totfact>
</mgrwt>
</event>
<event>
 5    1  0.3273105E-002  0.1249985E+03  0.7818608E-02  0.1235072E+00
          4   -1    0    0  501    0  0.00000000000E+00  0.00000000000E+00  0.13830210890E+03  0.13830793985E+03  0.12700000000E+01 0.  1.
         -4   -1    0    0    0  501 -0.00000000000E+00 -0.00000000000E+00 -0.28222956588E+02  0.28251516395E+02  0.12700000000E+01 0.  1.
         25    2    1    2    0    0  0.00000000000E+00  0.00000000000E+00  0.11007915231E+03  0.16655945625E+03  0.12499853076E+03 0.  0.
    9000005    1    3    3    0    0  0.35014956509E+02  0.34345470043E+02  0.10663813536E+03  0.11738121828E+03  0.10000000000E+01 0.  0.
    9000005    1    3    3    0    0 -0.35014956509E+02 -0.34345470043E+02  0.34410169500E+01  0.49178237966E+02  0.10000000000E+01 0.  0.
<mgrwt>
<rscale>  0 0.12499853E+03</rscale>
<asrwt>0</asrwt>
<pdfrwt beam="1">  1        4 0.21279893E-01 0.12499853E+03</pdfrwt>
<pdfrwt beam="2">  1       -4 0.43446387E-02 0.12499853E+03</pdfrwt>
<totfact> 0.96096040E+03</totfact>
</mgrwt>
</event>
<event>
 5    1  0.3273105E-002  0.1250028E+03  0.7818608E-02  0.1235065E+00
         -4   -1    0    0    0  501 -0.00000000000E+00  0.00000000000E+00  0.98825098266E+02  0.98833258305E+02  0.12700000000E+01 0. -1.
          4   -1    0    0  501    0  0.00000000000E+00 -0.00000000000E+00 -0.39508698513E+02  0.39529105204E+02  0.12700000000E+01 0. -1.
         25    2    1    2    0    0  0.00000000000E+00  0.00000000000E+00  0.59316399752E+02  0.13836236351E+03  0.12500283339E+03 0.  0.
    9000005    1    3    3    0    0 -0.35073929668E+02 -0.24433717323E+02 -0.20801651279E+02  0.47548877805E+02  0.10000000000E+01 0.  0.
    9000005    1    3    3    0    0  0.35073929668E+02  0.24433717323E+02  0.80118051031E+02  0.90813485704E+02  0.10000000000E+01 0.  0.
<mgrwt>
<rscale>  0 0.12500283E+03</rscale>
<asrwt>0</asrwt>
<pdfrwt beam="2">  1        4 0.60804588E-02 0.12500283E+03</pdfrwt>
<pdfrwt beam="1">  1       -4 0.15206059E-01 0.12500283E+03</pdfrwt>
<totfact> 0.10166991E+04</totfact>
</mgrwt>
</event>
<event>
 5    1  0.3273105E-002  0.1249987E+03  0.7818608E-02  0.1235071E+00
          4   -1    0    0  501    0  0.00000000000E+00  0.00000000000E+00  0.51386301282E+02  0.51401992757E+02  0.12700000000E+01 0. -1.
         -4   -1    0    0    0  501 -0.00000000000E+00 -0.00000000000E+00 -0.75983134637E+02  0.75993747436E+02  0.12700000000E+01 0. -1.
         25    2    1    2    0    0  0.00000000000E+00  0.00000000000E+00 -0.24596833356E+02  0.12739574019E+03  0.12499868163E+03 0.  0.
    9000005    1    3    3    0    0  0.41717997024E+02 -0.42891397899E+02 -0.30674833760E+02  0.67245882518E+02  0.10000000000E+01 0.  0.
    9000005    1    3    3    0    0 -0.41717997024E+02  0.42891397899E+02  0.60780004039E+01  0.60149857675E+02  0.10000000000E+01 0.  0.
<mgrwt>
<rscale>  0 0.12499868E+03</rscale>
<asrwt>0</asrwt>
<pdfrwt beam="1">  1        4 0.79076082E-02 0.12499868E+03</pdfrwt>
<pdfrwt beam="2">  1       -4 0.11691736E-01 0.12499868E+03</pdfrwt>
<totfact> 0.10400869E+04</totfact>
</mgrwt>
</event>
<event>
 5    1  0.3273105E-002  0.1250008E+03  0.7818608E-02  0.1235068E+00
          4   -1    0    0  501    0  0.00000000000E+00  0.00000000000E+00  0.14886665207E+03  0.14887206924E+03  0.12700000000E+01 0. -1.
         -4   -1    0    0    0  501 -0.00000000000E+00 -0.00000000000E+00 -0.26219017893E+02  0.26249758081E+02  0.12700000000E+01 0. -1.
         25    2    1    2    0    0  0.00000000000E+00  0.00000000000E+00  0.12264763418E+03  0.17512182732E+03  0.12500084893E+03 0.  0.
    9000005    1    3    3    0    0  0.60133593608E+02  0.16862102721E+02  0.64432403673E+02  0.89738031132E+02  0.10000000000E+01 0.  0.
    9000005    1    3    3    0    0 -0.60133593608E+02 -0.16862102721E+02  0.58215230507E+02  0.85383796187E+02  0.10000000000E+01 0.  0.
<mgrwt>
<rscale>  0 0.12500085E+03</rscale>
<asrwt>0</asrwt>
<pdfrwt beam="1">  1        4 0.22905343E-01 0.12500085E+03</pdfrwt>
<pdfrwt beam="2">  1       -4 0.40364764E-02 0.12500085E+03</pdfrwt>
<totfact> 0.94500733E+03</totfact>
</mgrwt>
</event>
<event>
 5    1  0.3273105E-002  0.1249954E+03  0.7818608E-02  0.1235076E+00
          4   -1    0    0  501    0  0.00000000000E+00  0.00000000000E+00  0.12281362041E+03  0.12282018669E+03  0.12700000000E+01 0. -1.
         -4   -1    0    0    0  501 -0.00000000000E+00 -0.00000000000E+00 -0.31783910034E+02  0.31809272816E+02  0.12700000000E+01 0. -1.
         25    2    1    2    0    0  0.00000000000E+00  0.00000000000E+00  0.91029710377E+02  0.15462945951E+03  0.12499544622E+03 0.  0.
    9000005    1    3    3    0    0 -0.15756598047E+02 -0.25367996430E+02 -0.22391297662E+02  0.37338664089E+02  0.10000000000E+01 0.  0.
    9000005    1    3    3    0    0  0.15756598047E+02  0.25367996430E+02  0.11342100804E+03  0.11729079542E+03  0.10000000000E+01 0.  0.
<mgrwt>
<rscale>  0 0.12499545E+03</rscale>
<asrwt>0</asrwt>
<pdfrwt beam="1">  1        4 0.18896859E-01 0.12499545E+03</pdfrwt>
<pdfrwt beam="2">  1       -4 0.48922885E-02 0.12499545E+03</pdfrwt>
<totfact> 0.98398367E+03</totfact>
</mgrwt>
</event>
<event>
 5    1  0.3273105E-002  0.1249976E+03  0.7818608E-02  0.1235073E+00
          4   -1    0    0  501    0  0.00000000000E+00  0.00000000000E+00  0.27414702604E+02  0.27444103535E+02  0.12700000000E+01 0. -1.
         -4   -1    0    0    0  501 -0.00000000000E+00 -0.00000000000E+00 -0.14237323951E+03  0.14237890373E+03  0.12700000000E+01 0. -1.
         25    2    1    2    0    0  0.00000000000E+00  0.00000000000E+00 -0.11495853691E+03  0.16982300727E+03  0.12499755434E+03 0.  0.
    9000005    1    3    3    0    0  0.57629509976E+02  0.19996245211E+02 -0.75912711412E+02  0.97389681160E+02  0.10000000000E+01 0.  0.
    9000005    1    3    3    0    0 -0.57629509976E+02 -0.19996245211E+02 -0.39045825494E+02  0.72433326109E+02  0.10000000000E+01 0.  0.
<mgrwt>
<rscale>  0 0.12499755E+03</rscale>
<asrwt>0</asrwt>
<pdfrwt beam="1">  1        4 0.42203440E-02 0.12499755E+03</pdfrwt>
<pdfrwt beam="2">  1       -4 0.21906272E-01 0.12499755E+03</pdfrwt>
<totfact> 0.95486877E+03</totfact>
</mgrwt>
</event>
<event>
 5    1  0.3273105E-002  0.1250022E+03  0.7818608E-02  0.1235066E+00
         -4   -1    0    0    0  501 -0.00000000000E+00  0.00000000000E+00  0.10869675466E+03  0.10870417367E+03  0.12700000000E+01 0.  1.
          4   -1    0    0  501    0  0.00000000000E+00 -0.00000000000E+00 -0.35918537549E+02  0.35940982730E+02  0.12700000000E+01 0.  1.
         25    2    1    2    0    0  0.00000000000E+00  0.00000000000E+00  0.72778217112E+02  0.14464515640E+03  0.12500220952E+03 0.  0.
    9000005    1    3    3    0    0  0.35527646457E+02 -0.39012158106E+02 -0.23574180586E+01  0.52827261549E+02  0.10000000000E+01 0.  0.
    9000005    1    3    3    0    0 -0.35527646457E+02  0.39012158106E+02  0.75135635171E+02  0.91817894854E+02  0.10000000000E+01 0.  0.
<mgrwt>
<rscale>  0 0.12500221E+03</rscale>
<asrwt>0</asrwt>
<pdfrwt beam="2">  1        4 0.55282262E-02 0.12500221E+03</pdfrwt>
<pdfrwt beam="1">  1       -4 0.16724875E-01 0.12500221E+03</pdfrwt>
<totfact> 0.10037704E+04</totfact>
</mgrwt>
</event>
<event>
 5    1  0.3273105E-002  0.1250019E+03  0.7818608E-02  0.1235066E+00
          4   -1    0    0  501    0  0.00000000000E+00  0.00000000000E+00  0.11221830427E+02  0.11293466170E+02  0.12700000000E+01 0. -1.
         -4   -1    0    0    0  501 -0.00000000000E+00 -0.00000000000E+00 -0.34692398269E+03  0.34692630725E+03  0.12700000000E+01 0. -1.
         25    2    1    2    0    0  0.00000000000E+00  0.00000000000E+00 -0.33570215226E+03  0.35821977342E+03  0.12500188414E+03 0.  0.
    9000005    1    3    3    0    0  0.39579498602E+02  0.12850436904E+02 -0.34243055270E+02  0.53900438518E+02  0.10000000000E+01 0.  0.
    9000005    1    3    3    0    0 -0.39579498602E+02 -0.12850436904E+02 -0.30145909699E+03  0.30431933490E+03  0.10000000000E+01 0.  0.
<mgrwt>
<rscale>  0 0.12500188E+03</rscale>
<asrwt>0</asrwt>
<pdfrwt beam="1">  1        4 0.17321250E-02 0.12500188E+03</pdfrwt>
<pdfrwt beam="2">  1       -4 0.53378602E-01 0.12500188E+03</pdfrwt>
<totfact> 0.68826782E+03</totfact>
</mgrwt>
</event>
<event>
 5    1  0.3273105E-002  0.1249775E+03  0.7818608E-02  0.1235104E+00
         -4   -1    0    0    0  501 -0.00000000000E+00  0.00000000000E+00  0.87909620567E+02  0.87918793715E+02  0.12700000000E+01 0. -1.
          4   -1    0    0  501    0  0.00000000000E+00 -0.00000000000E+00 -0.44398253655E+02  0.44416413944E+02  0.12700000000E+01 0. -1.
         25    2    1    2    0    0  0.00000000000E+00  0.00000000000E+00  0.43511366912E+02  0.13233520766E+03  0.12497747051E+03 0.  0.
    9000005    1    3    3    0    0 -0.30490225170E+02 -0.51566454000E+02  0.40551461626E+02  0.72347591867E+02  0.10000000000E+01 0.  0.
    9000005    1    3    3    0    0  0.30490225170E+02  0.51566454000E+02  0.29599052866E+01  0.59987615791E+02  0.10000000000E+01 0.  0.
<mgrwt>
<rscale>  0 0.12497747E+03</rscale>
<asrwt>0</asrwt>
<pdfrwt beam="2">  1        4 0.68326033E-02 0.12497747E+03</pdfrwt>
<pdfrwt beam="1">  1       -4 0.13526659E-01 0.12497747E+03</pdfrwt>
<totfact> 0.10299783E+04</totfact>
</mgrwt>
</event>
<event>
 5    1  0.3273105E-002  0.1250102E+03  0.7818608E-02  0.1235053E+00
         -4   -1    0    0    0  501 -0.00000000000E+00  0.00000000000E+00  0.24259744689E+01  0.27382936519E+01  0.12700000000E+01 0.  1.
          4   -1    0    0  501    0  0.00000000000E+00 -0.00000000000E+00 -0.15127342066E+04  0.15127347397E+04  0.12700000000E+01 0.  1.
         25    2    1    2    0    0  0.00000000000E+00  0.00000000000E+00 -0.15103082321E+04  0.15154730333E+04  0.12501023477E+03 0.  0.
    9000005    1    3    3    0    0  0.14906152248E+02  0.26151807000E+02 -0.14191223394E+04  0.14194419061E+04  0.10000000000E+01 0.  0.
    9000005    1    3    3    0    0 -0.14906152248E+02 -0.26151807000E+02 -0.91185892676E+02  0.96031127283E+02  0.10000000000E+01 0.  0.
<mgrwt>
<rscale>  0 0.12501023E+03</rscale>
<asrwt>0</asrwt>
<pdfrwt beam="2">  1        4 0.23275170E+00 0.12501023E+03</pdfrwt>
<pdfrwt beam="1">  1       -4 0.39729361E-03 0.12501023E+03</pdfrwt>
<totfact> 0.17624384E+03</totfact>
</mgrwt>
</event>
<event>
 5    1  0.3273105E-002  0.1250044E+03  0.7818608E-02  0.1235062E+00
         -4   -1    0    0    0  501 -0.00000000000E+00  0.00000000000E+00  0.25279426371E+03  0.25279745383E+03  0.12700000000E+01 0.  1.
          4   -1    0    0  501    0  0.00000000000E+00 -0.00000000000E+00 -0.15423990009E+02  0.15476187121E+02  0.12700000000E+01 0.  1.
         25    2    1    2    0    0  0.00000000000E+00  0.00000000000E+00  0.23737027370E+03  0.26827364095E+03  0.12500439830E+03 0.  0.
    9000005    1    3    3    0    0  0.58929538885E+02 -0.19517336599E+02  0.10322300001E+03  0.12045582058E+03  0.10000000000E+01 0.  0.
    9000005    1    3    3    0    0 -0.58929538885E+02  0.19517336599E+02  0.13414727369E+03  0.14781782037E+03  0.10000000000E+01 0.  0.
<mgrwt>
<rscale>  0 0.12500440E+03</rscale>
<asrwt>0</asrwt>
<pdfrwt beam="2">  1        4 0.23771823E-02 0.12500440E+03</pdfrwt>
<pdfrwt beam="1">  1       -4 0.38895683E-01 0.12500440E+03</pdfrwt>
<totfact> 0.79751010E+03</totfact>
</mgrwt>
</event>
<event>
 5    1  0.3273105E-002  0.1250001E+03  0.7818608E-02  0.1235069E+00
         -4   -1    0    0    0  501 -0.00000000000E+00  0.00000000000E+00  0.14425417149E+03  0.14425976186E+03  0.12700000000E+01 0.  1.
          4   -1    0    0  501    0  0.00000000000E+00 -0.00000000000E+00 -0.27057973979E+02  0.27087762105E+02  0.12700000000E+01 0.  1.
         25    2    1    2    0    0  0.00000000000E+00  0.00000000000E+00  0.11719619751E+03  0.17134752396E+03  0.12500010103E+03 0.  0.
    9000005    1    3    3    0    0 -0.37366498841E+02  0.42037306860E+02  0.95934304128E+02  0.11121052609E+03  0.10000000000E+01 0.  0.
    9000005    1    3    3    0    0  0.37366498841E+02 -0.42037306860E+02  0.21261893382E+02  0.60136997879E+02  0.10000000000E+01 0.  0.
<mgrwt>
<rscale>  0 0.12500010E+03</rscale>
<asrwt>0</asrwt>
<pdfrwt beam="2">  1        4 0.41654866E-02 0.12500010E+03</pdfrwt>
<pdfrwt beam="1">  1       -4 0.22195671E-01 0.12500010E+03</pdfrwt>
<totfact> 0.95197855E+03</totfact>
</mgrwt>
</event>
<event>
 5    1  0.3273105E-002  0.1250002E+03  0.7818608E-02  0.1235069E+00
         -4   -1    0    0    0  501 -0.00000000000E+00  0.00000000000E+00  0.21930240250E+03  0.21930607981E+03  0.12700000000E+01 0. -1.
          4   -1    0    0  501    0  0.00000000000E+00 -0.00000000000E+00 -0.17785742925E+02  0.17831027771E+02  0.12700000000E+01 0. -1.
         25    2    1    2    0    0  0.00000000000E+00  0.00000000000E+00  0.20151665957E+03  0.23713710758E+03  0.12500017482E+03 0.  0.
    9000005    1    3    3    0    0 -0.50877618002E+02  0.29342873003E+02  0.14125694653E+03  0.15298385913E+03  0.10000000000E+01 0.  0.
    9000005    1    3    3    0    0  0.50877618002E+02 -0.29342873003E+02  0.60259713041E+02  0.84153248454E+02  0.10000000000E+01 0.  0.
<mgrwt>
<rscale>  0 0.12500017E+03</rscale>
<asrwt>0</asrwt>
<pdfrwt beam="2">  1        4 0.27400344E-02 0.12500017E+03</pdfrwt>
<pdfrwt beam="1">  1       -4 0.33742598E-01 0.12500017E+03</pdfrwt>
<totfact> 0.84225271E+03</totfact>
</mgrwt>
</event>
<event>
 5    1  0.3273105E-002  0.1250039E+03  0.7818608E-02  0.1235063E+00
          4   -1    0    0  501    0  0.00000000000E+00  0.00000000000E+00  0.20100603193E+02  0.20140683919E+02  0.12700000000E+01 0.  1.
         -4   -1    0    0    0  501 -0.00000000000E+00 -0.00000000000E+00 -0.19411139838E+03  0.19411555291E+03  0.12700000000E+01 0.  1.
         25    2    1    2    0    0  0.00000000000E+00  0.00000000000E+00 -0.17401079519E+03  0.21425623683E+03  0.12500391265E+03 0.  0.
    9000005    1    3    3    0    0  0.61249879917E+01 -0.18828892179E+02 -0.18860145886E+03  0.18964058886E+03  0.10000000000E+01 0.  0.
    9000005    1    3    3    0    0 -0.61249879917E+01  0.18828892179E+02  0.14590663672E+02  0.24615647970E+02  0.10000000000E+01 0.  0.
<mgrwt>
<rscale>  0 0.12500391E+03</rscale>
<asrwt>0</asrwt>
<pdfrwt beam="1">  1        4 0.30958033E-02 0.12500391E+03</pdfrwt>
<pdfrwt beam="2">  1       -4 0.29866694E-01 0.12500391E+03</pdfrwt>
<totfact> 0.87777790E+03</totfact>
</mgrwt>
</event>
<event>
 5    1  0.3273105E-002  0.1249967E+03  0.7818608E-02  0.1235074E+00
         -4   -1    0    0    0  501 -0.00000000000E+00  0.00000000000E+00  0.74088291688E+02  0.74099175874E+02  0.12700000000E+01 0. -1.
          4   -1    0    0  501    0  0.00000000000E+00 -0.00000000000E+00 -0.52699037599E+02  0.52714338314E+02  0.12700000000E+01 0. -1.
         25    2    1    2    0    0  0.00000000000E+00  0.00000000000E+00  0.21389254089E+02  0.12681351419E+03  0.12499666872E+03 0.  0.
    9000005    1    3    3    0    0 -0.25407451784E+02  0.52447636113E+02 -0.12188677315E+02  0.59547098961E+02  0.10000000000E+01 0.  0.
    9000005    1    3    3    0    0  0.25407451784E+02 -0.52447636113E+02  0.33577931404E+02  0.67266415226E+02  0.10000000000E+01 0.  0.
<mgrwt>
<rscale>  0 0.12499667E+03</rscale>
<asrwt>0</asrwt>
<pdfrwt beam="2">  1        4 0.81095585E-02 0.12499667E+03</pdfrwt>
<pdfrwt beam="1">  1       -4 0.11400213E-01 0.12499667E+03</pdfrwt>
<totfact> 0.10413983E+04</totfact>
</mgrwt>
</event>
<event>
 5    1  0.3273105E-002  0.1249957E+03  0.7818608E-02  0.1235076E+00
         -4   -1    0    0    0  501 -0.00000000000E+00  0.00000000000E+00  0.24208383195E+02  0.24241673146E+02  0.12700000000E+01 0.  1.
          4   -1    0    0  501    0  0.00000000000E+00 -0.00000000000E+00 -0.16120161687E+03  0.16120661954E+03  0.12700000000E+01 0.  1.
         25    2    1    2    0    0  0.00000000000E+00  0.00000000000E+00 -0.13699323368E+03  0.18544829268E+03  0.12499569267E+03 0.  0.
    9000005    1    3    3    0    0  0.36953809551E+02 -0.15967879541E+02  0.24147911932E+01  0.40340902740E+02  0.10000000000E+01 0.  0.
    9000005    1    3    3    0    0 -0.36953809551E+02  0.15967879541E+02 -0.13940802487E+03  0.14510738994E+03  0.10000000000E+01 0.  0.
<mgrwt>
<rscale>  0 0.12499569E+03</rscale>
<asrwt>0</asrwt>
<pdfrwt beam="2">  1        4 0.24803194E-01 0.12499569E+03</pdfrwt>
<pdfrwt beam="1">  1       -4 0.37273123E-02 0.12499569E+03</pdfrwt>
<totfact> 0.92654328E+03</totfact>
</mgrwt>
</event>
<event>
 5    1  0.3273105E-002  0.1249983E+03  0.7818608E-02  0.1235072E+00
         -4   -1    0    0    0  501 -0.00000000000E+00  0.00000000000E+00  0.46123926597E+02  0.46141407702E+02  0.12700000000E+01 0. -1.
          4   -1    0    0  501    0  0.00000000000E+00 -0.00000000000E+00 -0.84649731589E+02  0.84659257959E+02  0.12700000000E+01 0. -1.
         25    2    1    2    0    0  0.00000000000E+00  0.00000000000E+00 -0.38525804993E+02  0.13080066566E+03  0.12499830594E+03 0.  0.
    9000005    1    3    3    0    0 -0.55683293576E+02  0.28233656548E+02 -0.22104769856E+02  0.66237371596E+02  0.10000000000E+01 0.  0.
    9000005    1    3    3    0    0  0.55683293576E+02 -0.28233656548E+02 -0.16421035137E+02  0.64563294065E+02  0.10000000000E+01 0.  0.
<mgrwt>
<rscale>  0 0.12499831E+03</rscale>
<asrwt>0</asrwt>
<pdfrwt beam="2">  1        4 0.13025113E-01 0.12499831E+03</pdfrwt>
<pdfrwt beam="1">  1       -4 0.70980662E-02 0.12499831E+03</pdfrwt>
<totfact> 0.10327759E+04</totfact>
</mgrwt>
</event>
<event>
 5    1  0.3273105E-002  0.1249986E+03  0.7818608E-02  0.1235071E+00
         -4   -1    0    0    0  501 -0.00000000000E+00  0.00000000000E+00  0.94315619125E+02  0.94324169283E+02  0.12700000000E+01 0.  1.
          4   -1    0    0  501    0  0.00000000000E+00 -0.00000000000E+00 -0.41395724475E+02  0.41415201374E+02  0.12700000000E+01 0.  1.
         25    2    1    2    0    0  0.00000000000E+00  0.00000000000E+00  0.52919894649E+02  0.13573937066E+03  0.12499864598E+03 0.  0.
    9000005    1    3    3    0    0 -0.29587608082E+02  0.18602129171E+02  0.82715769259E+02  0.89801805359E+02  0.10000000000E+01 0.  0.
    9000005    1    3    3    0    0  0.29587608082E+02 -0.18602129171E+02 -0.29795874610E+02  0.45937565297E+02  0.10000000000E+01 0.  0.
<mgrwt>
<rscale>  0 0.12499865E+03</rscale>
<asrwt>0</asrwt>
<pdfrwt beam="2">  1        4 0.63707290E-02 0.12499865E+03</pdfrwt>
<pdfrwt beam="1">  1       -4 0.14512251E-01 0.12499865E+03</pdfrwt>
<totfact> 0.10222822E+04</totfact>
</mgrwt>
</event>
<event>
 5    1  0.3273105E-002  0.1249999E+03  0.7818608E-02  0.1235069E+00
          4   -1    0    0  501    0  0.00000000000E+00  0.00000000000E+00  0.64080021160E+02  0.64092604970E+02  0.12700000000E+01 0.  1.
         -4   -1    0    0    0  501 -0.00000000000E+00 -0.00000000000E+00 -0.60933667448E+02  0.60946900895E+02  0.12700000000E+01 0.  1.
         25    2    1    2    0    0  0.00000000000E+00  0.00000000000E+00  0.31463537115E+01  0.12503950586E+03  0.12499991394E+03 0.  0.
    9000005    1    3    3    0    0 -0.48068796485E+02  0.19879408769E+01 -0.38322829569E+02  0.61515854628E+02  0.10000000000E+01 0.  0.
    9000005    1    3    3    0    0  0.48068796485E+02 -0.19879408769E+01  0.41469183281E+02  0.63523651236E+02  0.10000000000E+01 0.  0.
<mgrwt>
<rscale>  0 0.12499991E+03</rscale>
<asrwt>0</asrwt>
<pdfrwt beam="1">  1        4 0.98604506E-02 0.12499991E+03</pdfrwt>
<pdfrwt beam="2">  1       -4 0.93763964E-02 0.12499991E+03</pdfrwt>
<totfact> 0.10452025E+04</totfact>
</mgrwt>
</event>
<event>
 5    1  0.3273105E-002  0.1250025E+03  0.7818608E-02  0.1235065E+00
         -4   -1    0    0    0  501 -0.00000000000E+00  0.00000000000E+00  0.68169960760E+02  0.68181789724E+02  0.12700000000E+01 0.  1.
          4   -1    0    0  501    0  0.00000000000E+00 -0.00000000000E+00 -0.57280054491E+02  0.57294131833E+02  0.12700000000E+01 0.  1.
         25    2    1    2    0    0  0.00000000000E+00  0.00000000000E+00  0.10889906269E+02  0.12547592156E+03  0.12500246730E+03 0.  0.
    9000005    1    3    3    0    0 -0.19221061003E+02  0.38865455605E+02  0.50620204339E+02  0.66658667199E+02  0.10000000000E+01 0.  0.
    9000005    1    3    3    0    0  0.19221061003E+02 -0.38865455605E+02 -0.39730298069E+02  0.58817254358E+02  0.10000000000E+01 0.  0.
<mgrwt>
<rscale>  0 0.12500247E+03</rscale>
<asrwt>0</asrwt>
<pdfrwt beam="2">  1        4 0.88143088E-02 0.12500247E+03</pdfrwt>
<pdfrwt beam="1">  1       -4 0.10489679E-01 0.12500247E+03</pdfrwt>
<totfact> 0.10441905E+04</totfact>
</mgrwt>
</event>
<event>
 5    1  0.3273105E-002  0.1250035E+03  0.7818608E-02  0.1235064E+00
          4   -1    0    0  501    0  0.00000000000E+00  0.00000000000E+00  0.15309854812E+03  0.15310381555E+03  0.12700000000E+01 0.  1.
         -4   -1    0    0    0  501 -0.00000000000E+00 -0.00000000000E+00 -0.25494538087E+02  0.25526150754E+02  0.12700000000E+01 0.  1.
         25    2    1    2    0    0  0.00000000000E+00  0.00000000000E+00  0.12760401003E+03  0.17862996631E+03  0.12500352589E+03 0.  0.
    9000005    1    3    3    0    0 -0.38670090840E+02 -0.13663777010E+02  0.13118346681E+03  0.13744881481E+03  0.10000000000E+01 0.  0.
    9000005    1    3    3    0    0  0.38670090840E+02  0.13663777010E+02 -0.35794567779E+01  0.41181151497E+02  0.10000000000E+01 0.  0.
<mgrwt>
<rscale>  0 0.12500353E+03</rscale>
<asrwt>0</asrwt>
<pdfrwt beam="1">  1        4 0.23556459E-01 0.12500353E+03</pdfrwt>
<pdfrwt beam="2">  1       -4 0.39250736E-02 0.12500353E+03</pdfrwt>
<totfact> 0.93856775E+03</totfact>
</mgrwt>
</event>
<event>
 5    1  0.3273105E-002  0.1250029E+03  0.7818608E-02  0.1235065E+00
          4   -1    0    0  501    0  0.00000000000E+00  0.00000000000E+00  0.44184458715E+01  0.45973431370E+01  0.12700000000E+01 0.  1.
         -4   -1    0    0    0  501 -0.00000000000E+00 -0.00000000000E+00 -0.86639684953E+03  0.86639778034E+03  0.12700000000E+01 0.  1.
         25    2    1    2    0    0  0.00000000000E+00  0.00000000000E+00 -0.86197840366E+03  0.87099512348E+03  0.12500294694E+03 0.  0.
    9000005    1    3    3    0    0  0.41264259097E+02  0.46630657348E+02 -0.39393722450E+03  0.39882915407E+03  0.10000000000E+01 0.  0.
    9000005    1    3    3    0    0 -0.41264259097E+02 -0.46630657348E+02 -0.46804117915E+03  0.47216596941E+03  0.10000000000E+01 0.  0.
<mgrwt>
<rscale>  0 0.12500295E+03</rscale>
<asrwt>0</asrwt>
<pdfrwt beam="1">  1        4 0.69359452E-03 0.12500295E+03</pdfrwt>
<pdfrwt beam="2">  1       -4 0.13330552E+00 0.12500295E+03</pdfrwt>
<totfact> 0.35281015E+03</totfact>
</mgrwt>
</event>
<event>
 5    1  0.3273105E-002  0.1249984E+03  0.7818608E-02  0.1235072E+00
          4   -1    0    0  501    0  0.00000000000E+00  0.00000000000E+00  0.48450332488E+03  0.48450498937E+03  0.12700000000E+01 0.  1.
         -4   -1    0    0    0  501 -0.00000000000E+00 -0.00000000000E+00 -0.80104696871E+01  0.81105193797E+01  0.12700000000E+01 0.  1.
         25    2    1    2    0    0  0.00000000000E+00  0.00000000000E+00  0.47649285519E+03  0.49261550875E+03  0.12499839361E+03 0.  0.
    9000005    1    3    3    0    0 -0.12808121944E+02  0.13255746261E+02  0.47356541721E+03  0.47392506494E+03  0.10000000000E+01 0.  0.
    9000005    1    3    3    0    0  0.12808121944E+02 -0.13255746261E+02  0.29274379831E+01  0.18690443810E+02  0.10000000000E+01 0.  0.
<mgrwt>
<rscale>  0 0.12499839E+03</rscale>
<asrwt>0</asrwt>
<pdfrwt beam="1">  1        4 0.74546784E-01 0.12499839E+03</pdfrwt>
<pdfrwt beam="2">  1       -4 0.12402043E-02 0.12499839E+03</pdfrwt>
<totfact> 0.56443898E+03</totfact>
</mgrwt>
</event>
<event>
 5    1  0.3273105E-002  0.1249983E+03  0.7818608E-02  0.1235072E+00
          4   -1    0    0  501    0  0.00000000000E+00  0.00000000000E+00  0.56448037806E+02  0.56462322589E+02  0.12700000000E+01 0. -1.
         -4   -1    0    0    0  501 -0.00000000000E+00 -0.00000000000E+00 -0.69170094187E+02  0.69181752145E+02  0.12700000000E+01 0. -1.
         25    2    1    2    0    0  0.00000000000E+00  0.00000000000E+00 -0.12722056381E+02  0.12564407473E+03  0.12499833118E+03 0.  0.
    9000005    1    3    3    0    0  0.40542807611E+02  0.45881920226E+00  0.41436871803E+02  0.57982274092E+02  0.10000000000E+01 0.  0.
    9000005    1    3    3    0    0 -0.40542807611E+02 -0.45881920226E+00 -0.54158928184E+02  0.67661800642E+02  0.10000000000E+01 0.  0.
<mgrwt>
<rscale>  0 0.12499833E+03</rscale>
<asrwt>0</asrwt>
<pdfrwt beam="1">  1        4 0.86863091E-02 0.12499833E+03</pdfrwt>
<pdfrwt beam="2">  1       -4 0.10643549E-01 0.12499833E+03</pdfrwt>
<totfact> 0.10439169E+04</totfact>
</mgrwt>
</event>
<event>
 5    1  0.3273105E-002  0.1249992E+03  0.7818608E-02  0.1235070E+00
          4   -1    0    0  501    0  0.00000000000E+00  0.00000000000E+00  0.11948002771E+04  0.11948009521E+04  0.12700000000E+01 0. -1.
         -4   -1    0    0    0  501 -0.00000000000E+00 -0.00000000000E+00 -0.31452985289E+01  0.33920204651E+01  0.12700000000E+01 0. -1.
         25    2    1    2    0    0  0.00000000000E+00  0.00000000000E+00  0.11916549786E+04  0.11981929726E+04  0.12499924588E+03 0.  0.
    9000005    1    3    3    0    0 -0.21088999077E+02  0.18978425403E+02  0.11295549881E+04  0.11299116770E+04  0.10000000000E+01 0.  0.
    9000005    1    3    3    0    0  0.21088999077E+02 -0.18978425403E+02  0.62099990461E+02  0.68281295595E+02  0.10000000000E+01 0.  0.
<mgrwt>
<rscale>  0 0.12499925E+03</rscale>
<asrwt>0</asrwt>
<pdfrwt beam="1">  1        4 0.18383429E+00 0.12499925E+03</pdfrwt>
<pdfrwt beam="2">  1       -4 0.50292307E-03 0.12499925E+03</pdfrwt>
<totfact> 0.24760530E+03</totfact>
</mgrwt>
</event>
<event>
 5    1  0.3273105E-002  0.1250055E+03  0.7818608E-02  0.1235061E+00
         -4   -1    0    0    0  501 -0.00000000000E+00  0.00000000000E+00  0.80556512282E+01  0.81551466395E+01  0.12700000000E+01 0. -1.
          4   -1    0    0  501    0  0.00000000000E+00 -0.00000000000E+00 -0.48187413073E+03  0.48187580430E+03  0.12700000000E+01 0. -1.
         25    2    1    2    0    0  0.00000000000E+00  0.00000000000E+00 -0.47381847950E+03  0.49003095094E+03  0.12500552531E+03 0.  0.
    9000005    1    3    3    0    0 -0.29950193903E+02  0.25585396470E+02 -0.46716188855E+02  0.61114883036E+02  0.10000000000E+01 0.  0.
    9000005    1    3    3    0    0  0.29950193903E+02 -0.25585396470E+02 -0.42710229065E+03  0.42891606790E+03  0.10000000000E+01 0.  0.
<mgrwt>
<rscale>  0 0.12500553E+03</rscale>
<asrwt>0</asrwt>
<pdfrwt beam="2">  1        4 0.74142241E-01 0.12500553E+03</pdfrwt>
<pdfrwt beam="1">  1       -4 0.12471136E-02 0.12500553E+03</pdfrwt>
<totfact> 0.56639349E+03</totfact>
</mgrwt>
</event>
<event>
 5    1  0.3273105E-002  0.1250199E+03  0.7818608E-02  0.1235038E+00
         -4   -1    0    0    0  501 -0.00000000000E+00  0.00000000000E+00  0.28850967513E+03  0.28851247034E+03  0.12700000000E+01 0. -1.
          4   -1    0    0  501    0  0.00000000000E+00 -0.00000000000E+00 -0.13511081227E+02  0.13570638007E+02  0.12700000000E+01 0. -1.
         25    2    1    2    0    0  0.00000000000E+00  0.00000000000E+00  0.27499859390E+03  0.30208310835E+03  0.12501990922E+03 0.  0.
    9000005    1    3    3    0    0 -0.19573297888E+01  0.82568152074E+01 -0.12124602844E+02  0.14832805918E+02  0.10000000000E+01 0.  0.
    9000005    1    3    3    0    0  0.19573297888E+01 -0.82568152074E+01  0.28712319674E+03  0.28725030243E+03  0.10000000000E+01 0.  0.
<mgrwt>
<rscale>  0 0.12501991E+03</rscale>
<asrwt>0</asrwt>
<pdfrwt beam="2">  1        4 0.20834242E-02 0.12501991E+03</pdfrwt>
<pdfrwt beam="1">  1       -4 0.44390901E-01 0.12501991E+03</pdfrwt>
<totfact> 0.75304993E+03</totfact>
</mgrwt>
</event>
<event>
 5    1  0.3273105E-002  0.1250070E+03  0.7818608E-02  0.1235058E+00
         -4   -1    0    0    0  501 -0.00000000000E+00  0.00000000000E+00  0.14418367946E+02  0.14474192006E+02  0.12700000000E+01 0.  1.
          4   -1    0    0  501    0  0.00000000000E+00 -0.00000000000E+00 -0.27037149757E+03  0.27037448031E+03  0.12700000000E+01 0.  1.
         25    2    1    2    0    0  0.00000000000E+00  0.00000000000E+00 -0.25595312963E+03  0.28484867231E+03  0.12500704601E+03 0.  0.
    9000005    1    3    3    0    0 -0.17974541670E+01  0.40137315216E+02 -0.18899003871E+02  0.44411791920E+02  0.10000000000E+01 0.  0.
    9000005    1    3    3    0    0  0.17974541670E+01 -0.40137315216E+02 -0.23705412576E+03  0.24043688039E+03  0.10000000000E+01 0.  0.
<mgrwt>
<rscale>  0 0.12500705E+03</rscale>
<asrwt>0</asrwt>
<pdfrwt beam="2">  1        4 0.41600135E-01 0.12500705E+03</pdfrwt>
<pdfrwt beam="1">  1       -4 0.22227342E-02 0.12500705E+03</pdfrwt>
<totfact> 0.77527430E+03</totfact>
</mgrwt>
</event>
<event>
 5    1  0.3273105E-002  0.1250025E+03  0.7818608E-02  0.1235065E+00
          4   -1    0    0  501    0  0.00000000000E+00  0.00000000000E+00  0.30168075334E+03  0.30168342652E+03  0.12700000000E+01 0.  1.
         -4   -1    0    0    0  501 -0.00000000000E+00 -0.00000000000E+00 -0.12914934661E+02  0.12977227643E+02  0.12700000000E+01 0.  1.
         25    2    1    2    0    0  0.00000000000E+00  0.00000000000E+00  0.28876581868E+03  0.31466065416E+03  0.12500251694E+03 0.  0.
    9000005    1    3    3    0    0 -0.57129615413E+02  0.18499556012E+02  0.18793767100E+03  0.19730077220E+03  0.10000000000E+01 0.  0.
    9000005    1    3    3    0    0  0.57129615413E+02 -0.18499556012E+02  0.10082814768E+03  0.11735988197E+03  0.10000000000E+01 0.  0.
<mgrwt>
<rscale>  0 0.12500252E+03</rscale>
<asrwt>0</asrwt>
<pdfrwt beam="1">  1        4 0.46417425E-01 0.12500252E+03</pdfrwt>
<pdfrwt beam="2">  1       -4 0.19919103E-02 0.12500252E+03</pdfrwt>
<totfact> 0.73791579E+03</totfact>
</mgrwt>
</event>
<event>
 5    1  0.3273105E-002  0.1249950E+03  0.7818608E-02  0.1235077E+00
          4   -1    0    0  501    0  0.00000000000E+00  0.00000000000E+00  0.11114620773E+03  0.11115346325E+03  0.12700000000E+01 0. -1.
         -4   -1    0    0    0  501 -0.00000000000E+00 -0.00000000000E+00 -0.35122456770E+02  0.35145410363E+02  0.12700000000E+01 0. -1.
         25    2    1    2    0    0  0.00000000000E+00  0.00000000000E+00  0.76023750957E+02  0.14629887361E+03  0.12499499874E+03 0.  0.
    9000005    1    3    3    0    0 -0.51629148155E+02  0.98845583507E+01  0.77559235561E+02  0.93700098473E+02  0.10000000000E+01 0.  0.
    9000005    1    3    3    0    0  0.51629148155E+02 -0.98845583507E+01 -0.15354846043E+01  0.52598775138E+02  0.10000000000E+01 0.  0.
<mgrwt>
<rscale>  0 0.12499500E+03</rscale>
<asrwt>0</asrwt>
<pdfrwt beam="1">  1        4 0.17101741E-01 0.12499500E+03</pdfrwt>
<pdfrwt beam="2">  1       -4 0.54057786E-02 0.12499500E+03</pdfrwt>
<totfact> 0.10005791E+04</totfact>
</mgrwt>
</event>
<event>
 5    1  0.3273105E-002  0.1250026E+03  0.7818608E-02  0.1235065E+00
          4   -1    0    0  501    0  0.00000000000E+00  0.00000000000E+00  0.42960594171E+01  0.44798467067E+01  0.12700000000E+01 0.  1.
         -4   -1    0    0    0  501 -0.00000000000E+00 -0.00000000000E+00 -0.89007432992E+03  0.89007523597E+03  0.12700000000E+01 0.  1.
         25    2    1    2    0    0  0.00000000000E+00  0.00000000000E+00 -0.88577827051E+03  0.89455508268E+03  0.12500260574E+03 0.  0.
    9000005    1    3    3    0    0 -0.23359719189E+02 -0.79718963130E+01 -0.85374910251E+03  0.85410640886E+03  0.10000000000E+01 0.  0.
    9000005    1    3    3    0    0  0.23359719189E+02  0.79718963130E+01 -0.32029167995E+02  0.40448673821E+02  0.10000000000E+01 0.  0.
<mgrwt>
<rscale>  0 0.12500261E+03</rscale>
<asrwt>0</asrwt>
<pdfrwt beam="1">  1        4 0.67514011E-03 0.12500261E+03</pdfrwt>
<pdfrwt beam="2">  1       -4 0.13694858E+00 0.12500261E+03</pdfrwt>
<totfact> 0.34367348E+03</totfact>
</mgrwt>
</event>
<event>
 5    1  0.3273105E-002  0.1250014E+03  0.7818608E-02  0.1235067E+00
         -4   -1    0    0    0  501 -0.00000000000E+00  0.00000000000E+00  0.79806710457E+02  0.79816814858E+02  0.12700000000E+01 0.  1.
          4   -1    0    0  501    0  0.00000000000E+00 -0.00000000000E+00 -0.48926029215E+02  0.48942509486E+02  0.12700000000E+01 0.  1.
         25    2    1    2    0    0  0.00000000000E+00  0.00000000000E+00  0.30880681242E+02  0.12875932434E+03  0.12500138852E+03 0.  0.
    9000005    1    3    3    0    0 -0.31923730993E+02 -0.53437166433E+02  0.21145944565E+02  0.65748051899E+02  0.10000000000E+01 0.  0.
    9000005    1    3    3    0    0  0.31923730993E+02  0.53437166433E+02  0.97347366771E+01  0.63011272445E+02  0.10000000000E+01 0.  0.
<mgrwt>
<rscale>  0 0.12500139E+03</rscale>
<asrwt>0</asrwt>
<pdfrwt beam="2">  1        4 0.75291264E-02 0.12500139E+03</pdfrwt>
<pdfrwt beam="1">  1       -4 0.12280000E-01 0.12500139E+03</pdfrwt>
<totfact> 0.10370796E+04</totfact>
</mgrwt>
</event>
<event>
 5    1  0.3273105E-002  0.1249970E+03  0.7818608E-02  0.1235074E+00
         -4   -1    0    0    0  501 -0.00000000000E+00  0.00000000000E+00  0.13231373913E+02  0.13292184005E+02  0.12700000000E+01 0. -1.
          4   -1    0    0  501    0  0.00000000000E+00 -0.00000000000E+00 -0.29447328213E+03  0.29447602073E+03  0.12700000000E+01 0. -1.
         25    2    1    2    0    0  0.00000000000E+00  0.00000000000E+00 -0.28124190821E+03  0.30776820474E+03  0.12499702761E+03 0.  0.
    9000005    1    3    3    0    0  0.31885851106E+02 -0.19928190271E+02 -0.17727018763E+02  0.41582297465E+02  0.10000000000E+01 0.  0.
    9000005    1    3    3    0    0 -0.31885851106E+02  0.19928190271E+02 -0.26351488945E+03  0.26618590727E+03  0.10000000000E+01 0.  0.
<mgrwt>
<rscale>  0 0.12499703E+03</rscale>
<asrwt>0</asrwt>
<pdfrwt beam="2">  1        4 0.45308465E-01 0.12499703E+03</pdfrwt>
<pdfrwt beam="1">  1       -4 0.20404846E-02 0.12499703E+03</pdfrwt>
<totfact> 0.74639553E+03</totfact>
</mgrwt>
</event>
<event>
 5    1  0.3273105E-002  0.1249991E+03  0.7818608E-02  0.1235071E+00
         -4   -1    0    0    0  501 -0.00000000000E+00  0.00000000000E+00  0.29063672168E+03  0.29063949643E+03  0.12700000000E+01 0.  1.
          4   -1    0    0  501    0  0.00000000000E+00 -0.00000000000E+00 -0.13407287554E+02  0.13467303351E+02  0.12700000000E+01 0.  1.
         25    2    1    2    0    0  0.00000000000E+00  0.00000000000E+00  0.27722943412E+03  0.30410679979E+03  0.12499914612E+03 0.  0.
    9000005    1    3    3    0    0 -0.34600515562E+02 -0.52016799671E+02  0.13496256705E+03  0.14872403178E+03  0.10000000000E+01 0.  0.
    9000005    1    3    3    0    0  0.34600515562E+02  0.52016799671E+02  0.14226686708E+03  0.15538276801E+03  0.10000000000E+01 0.  0.
<mgrwt>
<rscale>  0 0.12499915E+03</rscale>
<asrwt>0</asrwt>
<pdfrwt beam="2">  1        4 0.20674901E-02 0.12499915E+03</pdfrwt>
<pdfrwt beam="1">  1       -4 0.44718163E-01 0.12499915E+03</pdfrwt>
<totfact> 0.75087988E+03</totfact>
</mgrwt>
</event>
<event>
 5    1  0.3273105E-002  0.1250011E+03  0.7818608E-02  0.1235068E+00
         -4   -1    0    0    0  501 -0.00000000000E+00  0.00000000000E+00  0.65397704096E+02  0.65410034406E+02  0.12700000000E+01 0.  1.
          4   -1    0    0  501    0  0.00000000000E+00 -0.00000000000E+00 -0.59707017249E+02  0.59720522509E+02  0.12700000000E+01 0.  1.
         25    2    1    2    0    0  0.00000000000E+00  0.00000000000E+00  0.56906868470E+01  0.12513055692E+03  0.12500108942E+03 0.  0.
    9000005    1    3    3    0    0  0.40410729965E+02 -0.47616492372E+02  0.50749013100E+01  0.62666674280E+02  0.10000000000E+01 0.  0.
    9000005    1    3    3    0    0 -0.40410729965E+02  0.47616492372E+02  0.61578553699E+00  0.62463882635E+02  0.10000000000E+01 0.  0.
<mgrwt>
<rscale>  0 0.12500109E+03</rscale>
<asrwt>0</asrwt>
<pdfrwt beam="2">  1        4 0.91876823E-02 0.12500109E+03</pdfrwt>
<pdfrwt beam="1">  1       -4 0.10063173E-01 0.12500109E+03</pdfrwt>
<totfact> 0.10449770E+04</totfact>
</mgrwt>
</event>
<event>
 5    1  0.3273105E-002  0.1250002E+03  0.7818608E-02  0.1235069E+00
          4   -1    0    0  501    0  0.00000000000E+00  0.00000000000E+00  0.26322879919E+01  0.29226426522E+01  0.12700000000E+01 0. -1.
         -4   -1    0    0    0  501 -0.00000000000E+00 -0.00000000000E+00 -0.14061213538E+04  0.14061219274E+04  0.12700000000E+01 0. -1.
         25    2    1    2    0    0  0.00000000000E+00  0.00000000000E+00 -0.14034890658E+04  0.14090445700E+04  0.12500016939E+03 0.  0.
    9000005    1    3    3    0    0 -0.38719911500E+02 -0.44494152176E+02 -0.93448479640E+03  0.93634491286E+03  0.10000000000E+01 0.  0.
    9000005    1    3    3    0    0  0.38719911500E+02  0.44494152176E+02 -0.46900426943E+03  0.47269965715E+03  0.10000000000E+01 0.  0.
<mgrwt>
<rscale>  0 0.12500017E+03</rscale>
<asrwt>0</asrwt>
<pdfrwt beam="1">  1        4 0.42734760E-03 0.12500017E+03</pdfrwt>
<pdfrwt beam="2">  1       -4 0.21634817E+00 0.12500017E+03</pdfrwt>
<totfact> 0.19787666E+03</totfact>
</mgrwt>
</event>
<event>
 5    1  0.3273105E-002  0.1249982E+03  0.7818608E-02  0.1235072E+00
          4   -1    0    0  501    0  0.00000000000E+00  0.00000000000E+00  0.36118835858E+03  0.36119059134E+03  0.12700000000E+01 0. -1.
         -4   -1    0    0    0  501 -0.00000000000E+00 -0.00000000000E+00 -0.10775132212E+02  0.10849717701E+02  0.12700000000E+01 0. -1.
         25    2    1    2    0    0  0.00000000000E+00  0.00000000000E+00  0.35041322637E+03  0.37204030904E+03  0.12499824934E+03 0.  0.
    9000005    1    3    3    0    0  0.59845157249E+02 -0.15949813321E+02  0.15042917373E+03  0.16268305290E+03  0.10000000000E+01 0.  0.
    9000005    1    3    3    0    0 -0.59845157249E+02  0.15949813321E+02  0.19998405264E+03  0.20935725614E+03  0.10000000000E+01 0.  0.
<mgrwt>
<rscale>  0 0.12499825E+03</rscale>
<asrwt>0</asrwt>
<pdfrwt beam="1">  1        4 0.55573353E-01 0.12499825E+03</pdfrwt>
<pdfrwt beam="2">  1       -4 0.16636216E-02 0.12499825E+03</pdfrwt>
<totfact> 0.67368624E+03</totfact>
</mgrwt>
</event>
<event>
 5    1  0.3273105E-002  0.1250001E+03  0.7818608E-02  0.1235069E+00
          4   -1    0    0  501    0  0.00000000000E+00  0.00000000000E+00  0.41491290271E+01  0.43391441188E+01  0.12700000000E+01 0. -1.
         -4   -1    0    0    0  501 -0.00000000000E+00 -0.00000000000E+00 -0.92019856228E+03  0.92019943867E+03  0.12700000000E+01 0. -1.
         25    2    1    2    0    0  0.00000000000E+00  0.00000000000E+00 -0.91604943325E+03  0.92453858278E+03  0.12500010758E+03 0.  0.
    9000005    1    3    3    0    0  0.62249345264E+02  0.54891218373E+01 -0.46084385886E+03  0.46506254815E+03  0.10000000000E+01 0.  0.
    9000005    1    3    3    0    0 -0.62249345264E+02 -0.54891218373E+01 -0.45520557439E+03  0.45947603464E+03  0.10000000000E+01 0.  0.
<mgrwt>
<rscale>  0 0.12500011E+03</rscale>
<asrwt>0</asrwt>
<pdfrwt beam="1">  1        4 0.65301224E-03 0.12500011E+03</pdfrwt>
<pdfrwt beam="2">  1       -4 0.14158353E+00 0.12500011E+03</pdfrwt>
<totfact> 0.33237498E+03</totfact>
</mgrwt>
</event>
<event>
 5    1  0.3273105E-002  0.1250029E+03  0.7818608E-02  0.1235065E+00
          4   -1    0    0  501    0  0.00000000000E+00  0.00000000000E+00  0.93588026053E+02  0.93596642677E+02  0.12700000000E+01 0.  1.
         -4   -1    0    0    0  501 -0.00000000000E+00 -0.00000000000E+00 -0.41720487860E+02  0.41739813216E+02  0.12700000000E+01 0.  1.
         25    2    1    2    0    0  0.00000000000E+00  0.00000000000E+00  0.51867538192E+02  0.13533645589E+03  0.12500285907E+03 0.  0.
    9000005    1    3    3    0    0  0.65532190729E+01 -0.12964717426E+02 -0.39872431583E+02  0.42448078619E+02  0.10000000000E+01 0.  0.
    9000005    1    3    3    0    0 -0.65532190729E+01  0.12964717426E+02  0.91739969775E+02  0.92888377274E+02  0.10000000000E+01 0.  0.
<mgrwt>
<rscale>  0 0.12500286E+03</rscale>
<asrwt>0</asrwt>
<pdfrwt beam="1">  1        4 0.14400307E-01 0.12500286E+03</pdfrwt>
<pdfrwt beam="2">  1       -4 0.64206860E-02 0.12500286E+03</pdfrwt>
<totfact> 0.10230325E+04</totfact>
</mgrwt>
</event>
<event>
 5    1  0.3273105E-002  0.1250003E+03  0.7818608E-02  0.1235069E+00
         -4   -1    0    0    0  501 -0.00000000000E+00  0.00000000000E+00  0.78435500889E+03  0.78435603706E+03  0.12700000000E+01 0. -1.
          4   -1    0    0  501    0  0.00000000000E+00 -0.00000000000E+00 -0.48982202160E+01  0.50601839181E+01  0.12700000000E+01 0. -1.
         25    2    1    2    0    0  0.00000000000E+00  0.00000000000E+00  0.77945678867E+03  0.78941622098E+03  0.12500033813E+03 0.  0.
    9000005    1    3    3    0    0  0.23971814335E+02  0.54451354289E+02  0.26896328915E+03  0.27546660193E+03  0.10000000000E+01 0.  0.
    9000005    1    3    3    0    0 -0.23971814335E+02 -0.54451354289E+02  0.51049349952E+03  0.51394961905E+03  0.10000000000E+01 0.  0.
<mgrwt>
<rscale>  0 0.12500034E+03</rscale>
<asrwt>0</asrwt>
<pdfrwt beam="2">  1        4 0.76611004E-03 0.12500034E+03</pdfrwt>
<pdfrwt beam="1">  1       -4 0.12068256E+00 0.12500034E+03</pdfrwt>
<totfact> 0.38741311E+03</totfact>
</mgrwt>
</event>
<event>
 5    1  0.3273105E-002  0.1249992E+03  0.7818608E-02  0.1235071E+00
         -4   -1    0    0    0  501 -0.00000000000E+00  0.00000000000E+00  0.12284817395E+03  0.12285473838E+03  0.12700000000E+01 0.  1.
          4   -1    0    0  501    0  0.00000000000E+00 -0.00000000000E+00 -0.31776874007E+02  0.31802242399E+02  0.12700000000E+01 0.  1.
         25    2    1    2    0    0  0.00000000000E+00  0.00000000000E+00  0.91071299943E+02  0.15465698078E+03  0.12499920012E+03 0.  0.
    9000005    1    3    3    0    0 -0.19595976374E+02  0.49137276068E+02  0.86696308502E+02  0.10156635318E+03  0.10000000000E+01 0.  0.
    9000005    1    3    3    0    0  0.19595976374E+02 -0.49137276068E+02  0.43749914405E+01  0.53090627605E+02  0.10000000000E+01 0.  0.
<mgrwt>
<rscale>  0 0.12499920E+03</rscale>
<asrwt>0</asrwt>
<pdfrwt beam="2">  1        4 0.48912063E-02 0.12499920E+03</pdfrwt>
<pdfrwt beam="1">  1       -4 0.18902175E-01 0.12499920E+03</pdfrwt>
<totfact> 0.98384650E+03</totfact>
</mgrwt>
</event>
<event>
 5    1  0.3273105E-002  0.1250014E+03  0.7818608E-02  0.1235067E+00
          4   -1    0    0  501    0  0.00000000000E+00  0.00000000000E+00  0.33730511122E+03  0.33730750207E+03  0.12700000000E+01 0. -1.
         -4   -1    0    0    0  501 -0.00000000000E+00 -0.00000000000E+00 -0.11543768388E+02  0.11613418472E+02  0.12700000000E+01 0. -1.
         25    2    1    2    0    0  0.00000000000E+00  0.00000000000E+00  0.32576134283E+03  0.34892092054E+03  0.12500142523E+03 0.  0.
    9000005    1    3    3    0    0 -0.20247586399E+02 -0.27465473432E+02  0.30902040549E+03  0.31090018977E+03  0.10000000000E+01 0.  0.
    9000005    1    3    3    0    0  0.20247586399E+02  0.27465473432E+02  0.16740937336E+02  0.38020730776E+02  0.10000000000E+01 0.  0.
<mgrwt>
<rscale>  0 0.12500143E+03</rscale>
<asrwt>0</asrwt>
<pdfrwt beam="1">  1        4 0.51898641E-01 0.12500143E+03</pdfrwt>
<pdfrwt beam="2">  1       -4 0.17815058E-02 0.12500143E+03</pdfrwt>
<totfact> 0.69841223E+03</totfact>
</mgrwt>
</event>
<event>
 5    1  0.3273105E-002  0.1249960E+03  0.7818608E-02  0.1235076E+00
          4   -1    0    0  501    0  0.00000000000E+00  0.00000000000E+00  0.17515918956E+02  0.17561899580E+02  0.12700000000E+01 0. -1.
         -4   -1    0    0    0  501 -0.00000000000E+00 -0.00000000000E+00 -0.22265689464E+03  0.22266051655E+03  0.12700000000E+01 0. -1.
         25    2    1    2    0    0  0.00000000000E+00  0.00000000000E+00 -0.20514097568E+03  0.24022241613E+03  0.12499595716E+03 0.  0.
    9000005    1    3    3    0    0 -0.27039294981E+02  0.44683106688E+02 -0.36628809242E+02  0.63799476196E+02  0.10000000000E+01 0.  0.
    9000005    1    3    3    0    0  0.27039294981E+02 -0.44683106688E+02 -0.16851216644E+03  0.17642293993E+03  0.10000000000E+01 0.  0.
<mgrwt>
<rscale>  0 0.12499596E+03</rscale>
<asrwt>0</asrwt>
<pdfrwt beam="1">  1        4 0.26985725E-02 0.12499596E+03</pdfrwt>
<pdfrwt beam="2">  1       -4 0.34258720E-01 0.12499596E+03</pdfrwt>
<totfact> 0.83771804E+03</totfact>
</mgrwt>
</event>
<event>
 5    1  0.3273105E-002  0.1249923E+03  0.7818608E-02  0.1235081E+00
         -4   -1    0    0    0  501 -0.00000000000E+00  0.00000000000E+00  0.38791111236E+01  0.40817157066E+01  0.12700000000E+01 0.  1.
          4   -1    0    0  501    0  0.00000000000E+00 -0.00000000000E+00 -0.98104449099E+03  0.98104531302E+03  0.12700000000E+01 0.  1.
         25    2    1    2    0    0  0.00000000000E+00  0.00000000000E+00 -0.97716537987E+03  0.98512702873E+03  0.12499233225E+03 0.  0.
    9000005    1    3    3    0    0  0.23906530178E+02  0.42690314390E+02 -0.79492733208E+03  0.79643232507E+03  0.10000000000E+01 0.  0.
    9000005    1    3    3    0    0 -0.23906530178E+02 -0.42690314390E+02 -0.18223804779E+03  0.18869470366E+03  0.10000000000E+01 0.  0.
<mgrwt>
<rscale>  0 0.12499233E+03</rscale>
<asrwt>0</asrwt>
<pdfrwt beam="2">  1        4 0.15094538E+00 0.12499233E+03</pdfrwt>
<pdfrwt beam="1">  1       -4 0.61243531E-03 0.12499233E+03</pdfrwt>
<totfact> 0.31105956E+03</totfact>
</mgrwt>
</event>
<event>
 5    1  0.3273105E-002  0.1249988E+03  0.7818608E-02  0.1235071E+00
          4   -1    0    0  501    0  0.00000000000E+00  0.00000000000E+00  0.11012159882E+03  0.11012892185E+03  0.12700000000E+01 0. -1.
         -4   -1    0    0    0  501 -0.00000000000E+00 -0.00000000000E+00 -0.35451618747E+02  0.35474359357E+02  0.12700000000E+01 0. -1.
         25    2    1    2    0    0  0.00000000000E+00  0.00000000000E+00  0.74669980076E+02  0.14560328121E+03  0.12499883829E+03 0.  0.
    9000005    1    3    3    0    0 -0.35451788537E+02 -0.50555970832E+02  0.48534515141E+02  0.78545112243E+02  0.10000000000E+01 0.  0.
    9000005    1    3    3    0    0  0.35451788537E+02  0.50555970832E+02  0.26135464935E+02  0.67058168963E+02  0.10000000000E+01 0.  0.
<mgrwt>
<rscale>  0 0.12499884E+03</rscale>
<asrwt>0</asrwt>
<pdfrwt beam="1">  1        4 0.16944097E-01 0.12499884E+03</pdfrwt>
<pdfrwt beam="2">  1       -4 0.54564078E-02 0.12499884E+03</pdfrwt>
<totfact> 0.10019008E+04</totfact>
</mgrwt>
</event>
<event>
 5    1  0.3273105E-002  0.1249996E+03  0.7818608E-02  0.1235070E+00
         -4   -1    0    0    0  501 -0.00000000000E+00  0.00000000000E+00  0.11654642072E+03  0.11655334008E+03  0.12700000000E+01 0. -1.
          4   -1    0    0  501    0  0.00000000000E+00 -0.00000000000E+00 -0.33496505849E+02  0.33520572848E+02  0.12700000000E+01 0. -1.
         25    2    1    2    0    0  0.00000000000E+00  0.00000000000E+00  0.83049914874E+02  0.15007391293E+03  0.12499956392E+03 0.  0.
    9000005    1    3    3    0    0  0.40827406088E+02  0.30812068784E+02 -0.15789635406E+01  0.51183530520E+02  0.10000000000E+01 0.  0.
    9000005    1    3    3    0    0 -0.40827406088E+02 -0.30812068784E+02  0.84628878415E+02  0.98890382406E+02  0.10000000000E+01 0.  0.
<mgrwt>
<rscale>  0 0.12499956E+03</rscale>
<asrwt>0</asrwt>
<pdfrwt beam="2">  1        4 0.51556922E-02 0.12499956E+03</pdfrwt>
<pdfrwt beam="1">  1       -4 0.17932602E-01 0.12499956E+03</pdfrwt>
<totfact> 0.99289941E+03</totfact>
</mgrwt>
</event>
<event>
 5    1  0.3273105E-002  0.1250001E+03  0.7818608E-02  0.1235069E+00
         -4   -1    0    0    0  501 -0.00000000000E+00  0.00000000000E+00  0.36398772575E+03  0.36398994134E+03  0.12700000000E+01 0. -1.
          4   -1    0    0  501    0  0.00000000000E+00 -0.00000000000E+00 -0.10692007489E+02  0.10767168809E+02  0.12700000000E+01 0. -1.
         25    2    1    2    0    0  0.00000000000E+00  0.00000000000E+00  0.35329571826E+03  0.37475711015E+03  0.12500010826E+03 0.  0.
    9000005    1    3    3    0    0 -0.11594258176E+02  0.60767129827E+02  0.15013823035E+03  0.16238706568E+03  0.10000000000E+01 0.  0.
    9000005    1    3    3    0    0  0.11594258176E+02 -0.60767129827E+02  0.20315748791E+03  0.21237004446E+03  0.10000000000E+01 0.  0.
<mgrwt>
<rscale>  0 0.12500011E+03</rscale>
<asrwt>0</asrwt>
<pdfrwt beam="2">  1        4 0.16508765E-02 0.12500011E+03</pdfrwt>
<pdfrwt beam="1">  1       -4 0.56004057E-01 0.12500011E+03</pdfrwt>
<totfact> 0.67084016E+03</totfact>
</mgrwt>
</event>
<event>
 5    1  0.3273105E-002  0.1250004E+03  0.7818608E-02  0.1235069E+00
         -4   -1    0    0    0  501 -0.00000000000E+00  0.00000000000E+00  0.25273536635E+02  0.25305425387E+02  0.12700000000E+01 0. -1.
          4   -1    0    0  501    0  0.00000000000E+00 -0.00000000000E+00 -0.15442804831E+03  0.15443327040E+03  0.12700000000E+01 0. -1.
         25    2    1    2    0    0  0.00000000000E+00  0.00000000000E+00 -0.12915451168E+03  0.17973869579E+03  0.12500044350E+03 0.  0.
    9000005    1    3    3    0    0 -0.57189417183E+02  0.11436350387E+02 -0.96853588660E+02  0.11306209437E+03  0.10000000000E+01 0.  0.
    9000005    1    3    3    0    0  0.57189417183E+02 -0.11436350387E+02 -0.32300923018E+02  0.66676601411E+02  0.10000000000E+01 0.  0.
<mgrwt>
<rscale>  0 0.12500044E+03</rscale>
<asrwt>0</asrwt>
<pdfrwt beam="2">  1        4 0.23761015E-01 0.12500044E+03</pdfrwt>
<pdfrwt beam="1">  1       -4 0.38910912E-02 0.12500044E+03</pdfrwt>
<totfact> 0.93663129E+03</totfact>
</mgrwt>
</event>
<event>
 5    1  0.3273105E-002  0.1249995E+03  0.7818608E-02  0.1235070E+00
         -4   -1    0    0    0  501 -0.00000000000E+00  0.00000000000E+00  0.63220859600E+02  0.63233614388E+02  0.12700000000E+01 0.  1.
          4   -1    0    0  501    0  0.00000000000E+00 -0.00000000000E+00 -0.61761332392E+02  0.61774388535E+02  0.12700000000E+01 0.  1.
         25    2    1    2    0    0  0.00000000000E+00  0.00000000000E+00  0.14595272083E+01  0.12500800292E+03  0.12499948230E+03 0.  0.
    9000005    1    3    3    0    0  0.89954026931E+00 -0.62038443699E+02 -0.67299656237E+01  0.62416905615E+02  0.10000000000E+01 0.  0.
    9000005    1    3    3    0    0 -0.89954026931E+00  0.62038443699E+02  0.81894928320E+01  0.62591097308E+02  0.10000000000E+01 0.  0.
<mgrwt>
<rscale>  0 0.12499948E+03</rscale>
<asrwt>0</asrwt>
<pdfrwt beam="2">  1        4 0.95037289E-02 0.12499948E+03</pdfrwt>
<pdfrwt beam="1">  1       -4 0.97282715E-02 0.12499948E+03</pdfrwt>
<totfact> 0.10452811E+04</totfact>
</mgrwt>
</event>
<event>
 5    1  0.3273105E-002  0.1249988E+03  0.7818608E-02  0.1235071E+00
         -4   -1    0    0    0  501 -0.00000000000E+00  0.00000000000E+00  0.29480542821E+01  0.32099725933E+01  0.12700000000E+01 0.  1.
          4   -1    0    0  501    0  0.00000000000E+00 -0.00000000000E+00 -0.12683834663E+04  0.12683841021E+04  0.12700000000E+01 0.  1.
         25    2    1    2    0    0  0.00000000000E+00  0.00000000000E+00 -0.12654354120E+04  0.12715940747E+04  0.12499883531E+03 0.  0.
    9000005    1    3    3    0    0 -0.50491332842E+02 -0.25897021776E+02 -0.89899512517E+03  0.90078480532E+03  0.10000000000E+01 0.  0.
    9000005    1    3    3    0    0  0.50491332842E+02  0.25897021776E+02 -0.36644028681E+03  0.37080926934E+03  0.10000000000E+01 0.  0.
<mgrwt>
<rscale>  0 0.12499884E+03</rscale>
<asrwt>0</asrwt>
<pdfrwt beam="2">  1        4 0.19515570E+00 0.12499884E+03</pdfrwt>
<pdfrwt beam="1">  1       -4 0.47374430E-03 0.12499884E+03</pdfrwt>
<totfact> 0.22909681E+03</totfact>
</mgrwt>
</event>
<event>
 5    1  0.3273105E-002  0.1249992E+03  0.7818608E-02  0.1235071E+00
         -4   -1    0    0    0  501 -0.00000000000E+00  0.00000000000E+00  0.48302038575E+02  0.48318731673E+02  0.12700000000E+01 0. -1.
          4   -1    0    0  501    0  0.00000000000E+00 -0.00000000000E+00 -0.80834630242E+02  0.80844606167E+02  0.12700000000E+01 0. -1.
         25    2    1    2    0    0  0.00000000000E+00  0.00000000000E+00 -0.32532591666E+02  0.12916333784E+03  0.12499919328E+03 0.  0.
    9000005    1    3    3    0    0 -0.28814711702E+02 -0.11041210740E+02 -0.72418142070E+02  0.78724730841E+02  0.10000000000E+01 0.  0.
    9000005    1    3    3    0    0  0.28814711702E+02  0.11041210740E+02  0.39885550404E+02  0.50438607000E+02  0.10000000000E+01 0.  0.
<mgrwt>
<rscale>  0 0.12499919E+03</rscale>
<asrwt>0</asrwt>
<pdfrwt beam="2">  1        4 0.12438148E-01 0.12499919E+03</pdfrwt>
<pdfrwt beam="1">  1       -4 0.74331344E-02 0.12499919E+03</pdfrwt>
<totfact> 0.10362627E+04</totfact>
</mgrwt>
</event>
<event>
 5    1  0.3273105E-002  0.1250028E+03  0.7818608E-02  0.1235065E+00
         -4   -1    0    0    0  501 -0.00000000000E+00  0.00000000000E+00  0.22394816561E+02  0.22430798221E+02  0.12700000000E+01 0. -1.
          4   -1    0    0  501    0  0.00000000000E+00 -0.00000000000E+00 -0.17425600180E+03  0.17426062970E+03  0.12700000000E+01 0. -1.
         25    2    1    2    0    0  0.00000000000E+00  0.00000000000E+00 -0.15186118524E+03  0.19669142792E+03  0.12500279291E+03 0.  0.
    9000005    1    3    3    0    0 -0.32884600590E+01  0.77649978138E+01 -0.17336439101E+03  0.17357223635E+03  0.10000000000E+01 0.  0.
    9000005    1    3    3    0    0  0.32884600590E+01 -0.77649978138E+01  0.21503205770E+02  0.23119191573E+02  0.10000000000E+01 0.  0.
<mgrwt>
<rscale>  0 0.12500279E+03</rscale>
<asrwt>0</asrwt>
<pdfrwt beam="2">  1        4 0.26811739E-01 0.12500279E+03</pdfrwt>
<pdfrwt beam="1">  1       -4 0.34484803E-02 0.12500279E+03</pdfrwt>
<totfact> 0.90690217E+03</totfact>
</mgrwt>
</event>
<event>
 5    1  0.3273105E-002  0.1249986E+03  0.7818608E-02  0.1235071E+00
          4   -1    0    0  501    0  0.00000000000E+00  0.00000000000E+00  0.38414665715E+02  0.38435653266E+02  0.12700000000E+01 0.  1.
         -4   -1    0    0    0  501 -0.00000000000E+00 -0.00000000000E+00 -0.10163140821E+03  0.10163934295E+03  0.12700000000E+01 0.  1.
         25    2    1    2    0    0  0.00000000000E+00  0.00000000000E+00 -0.63216742499E+02  0.14007499622E+03  0.12499859212E+03 0.  0.
    9000005    1    3    3    0    0 -0.36333176370E+02 -0.36177692770E+02 -0.71641647908E+02  0.88104772142E+02  0.10000000000E+01 0.  0.
    9000005    1    3    3    0    0  0.36333176370E+02  0.36177692770E+02  0.84249054087E+01  0.51970224075E+02  0.10000000000E+01 0.  0.
<mgrwt>
<rscale>  0 0.12499859E+03</rscale>
<asrwt>0</asrwt>
<pdfrwt beam="1">  1        4 0.59121734E-02 0.12499859E+03</pdfrwt>
<pdfrwt beam="2">  1       -4 0.15637826E-01 0.12499859E+03</pdfrwt>
<totfact> 0.10132353E+04</totfact>
</mgrwt>
</event>
<event>
 5    1  0.3273105E-002  0.1249958E+03  0.7818608E-02  0.1235076E+00
         -4   -1    0    0    0  501 -0.00000000000E+00  0.00000000000E+00  0.27316938633E+01  0.30124825913E+01  0.12700000000E+01 0.  1.
          4   -1    0    0  501    0  0.00000000000E+00 -0.00000000000E+00 -0.13596995754E+04  0.13597001685E+04  0.12700000000E+01 0.  1.
         25    2    1    2    0    0  0.00000000000E+00  0.00000000000E+00 -0.13569678815E+04  0.13627126511E+04  0.12499575171E+03 0.  0.
    9000005    1    3    3    0    0  0.15932423885E+01  0.52584910877E+02 -0.31082812505E+03  0.31525043155E+03  0.10000000000E+01 0.  0.
    9000005    1    3    3    0    0 -0.15932423885E+01 -0.52584910877E+02 -0.10461397565E+04  0.10474622195E+04  0.10000000000E+01 0.  0.
<mgrwt>
<rscale>  0 0.12499575E+03</rscale>
<asrwt>0</asrwt>
<pdfrwt beam="2">  1        4 0.20920568E+00 0.12499575E+03</pdfrwt>
<pdfrwt beam="1">  1       -4 0.44190644E-03 0.12499575E+03</pdfrwt>
<totfact> 0.20796899E+03</totfact>
</mgrwt>
</event>
<event>
 5    1  0.3273105E-002  0.1250029E+03  0.7818608E-02  0.1235065E+00
         -4   -1    0    0    0  501 -0.00000000000E+00  0.00000000000E+00  0.14691200969E+02  0.14745992199E+02  0.12700000000E+01 0.  1.
          4   -1    0    0  501    0  0.00000000000E+00 -0.00000000000E+00 -0.26535144174E+03  0.26535448090E+03  0.12700000000E+01 0.  1.
         25    2    1    2    0    0  0.00000000000E+00  0.00000000000E+00 -0.25066024077E+03  0.28010047310E+03  0.12500287487E+03 0.  0.
    9000005    1    3    3    0    0  0.60148932933E+02  0.49631086127E+01 -0.88997920403E+02  0.10753676774E+03  0.10000000000E+01 0.  0.
    9000005    1    3    3    0    0 -0.60148932933E+02 -0.49631086127E+01 -0.16166232037E+03  0.17256370536E+03  0.10000000000E+01 0.  0.
<mgrwt>
<rscale>  0 0.12500287E+03</rscale>
<asrwt>0</asrwt>
<pdfrwt beam="2">  1        4 0.40827744E-01 0.12500287E+03</pdfrwt>
<pdfrwt beam="1">  1       -4 0.22646335E-02 0.12500287E+03</pdfrwt>
<totfact> 0.78159792E+03</totfact>
</mgrwt>
</event>
<event>
 5    1  0.3273105E-002  0.1250012E+03  0.7818608E-02  0.1235067E+00
         -4   -1    0    0    0  501 -0.00000000000E+00  0.00000000000E+00  0.39621426385E+02  0.39641775045E+02  0.12700000000E+01 0. -1.
          4   -1    0    0  501    0  0.00000000000E+00 -0.00000000000E+00 -0.98541439641E+02  0.98549623168E+02  0.12700000000E+01 0. -1.
         25    2    1    2    0    0  0.00000000000E+00  0.00000000000E+00 -0.58920013257E+02  0.13819139821E+03  0.12500117831E+03 0.  0.
    9000005    1    3    3    0    0  0.62204115246E+02 -0.17268390132E+01 -0.35809750468E+02  0.71803009374E+02  0.10000000000E+01 0.  0.
    9000005    1    3    3    0    0 -0.62204115246E+02  0.17268390132E+01 -0.23110262789E+02  0.66388388840E+02  0.10000000000E+01 0.  0.
<mgrwt>
<rscale>  0 0.12500118E+03</rscale>
<asrwt>0</asrwt>
<pdfrwt beam="2">  1        4 0.15162416E-01 0.12500118E+03</pdfrwt>
<pdfrwt beam="1">  1       -4 0.60977989E-02 0.12500118E+03</pdfrwt>
<totfact> 0.10170938E+04</totfact>
</mgrwt>
</event>
<event>
 5    1  0.3273105E-002  0.1249984E+03  0.7818608E-02  0.1235072E+00
          4   -1    0    0  501    0  0.00000000000E+00  0.00000000000E+00  0.15778729319E+03  0.15779240411E+03  0.12700000000E+01 0. -1.
         -4   -1    0    0    0  501 -0.00000000000E+00 -0.00000000000E+00 -0.24734000355E+02  0.24766583809E+02  0.12700000000E+01 0. -1.
         25    2    1    2    0    0  0.00000000000E+00  0.00000000000E+00  0.13305329284E+03  0.18255898791E+03  0.12499842132E+03 0.  0.
    9000005    1    3    3    0    0  0.67849120471E+01  0.21933975265E+02 -0.18358090837E+02  0.29413496929E+02  0.10000000000E+01 0.  0.
    9000005    1    3    3    0    0 -0.67849120471E+01 -0.21933975265E+02  0.15141138368E+03  0.15314549099E+03  0.10000000000E+01 0.  0.
<mgrwt>
<rscale>  0 0.12499842E+03</rscale>
<asrwt>0</asrwt>
<pdfrwt beam="1">  1        4 0.24277867E-01 0.12499842E+03</pdfrwt>
<pdfrwt beam="2">  1       -4 0.38081306E-02 0.12499842E+03</pdfrwt>
<totfact> 0.93161692E+03</totfact>
</mgrwt>
</event>
<event>
 5    1  0.3273105E-002  0.1249979E+03  0.7818608E-02  0.1235073E+00
         -4   -1    0    0    0  501 -0.00000000000E+00  0.00000000000E+00  0.92994911853E+01  0.93858103702E+01  0.12700000000E+01 0.  1.
          4   -1    0    0  501    0  0.00000000000E+00 -0.00000000000E+00 -0.41800776218E+03  0.41800969144E+03  0.12700000000E+01 0.  1.
         25    2    1    2    0    0  0.00000000000E+00  0.00000000000E+00 -0.40870827099E+03  0.42739550181E+03  0.12499785675E+03 0.  0.
    9000005    1    3    3    0    0  0.21798136031E+02 -0.49910813611E+02 -0.30912237559E+03  0.31388515597E+03  0.10000000000E+01 0.  0.
    9000005    1    3    3    0    0 -0.21798136031E+02  0.49910813611E+02 -0.99585895398E+02  0.11351034584E+03  0.10000000000E+01 0.  0.
<mgrwt>
<rscale>  0 0.12499786E+03</rscale>
<asrwt>0</asrwt>
<pdfrwt beam="2">  1        4 0.64315660E-01 0.12499786E+03</pdfrwt>
<pdfrwt beam="1">  1       -4 0.14374796E-02 0.12499786E+03</pdfrwt>
<totfact> 0.61975720E+03</totfact>
</mgrwt>
</event>
<event>
 5    1  0.3273105E-002  0.1249979E+03  0.7818608E-02  0.1235073E+00
         -4   -1    0    0    0  501 -0.00000000000E+00  0.00000000000E+00  0.45892848088E+02  0.45910417180E+02  0.12700000000E+01 0.  1.
          4   -1    0    0  501    0  0.00000000000E+00 -0.00000000000E+00 -0.85075280700E+02  0.85084759423E+02  0.12700000000E+01 0.  1.
         25    2    1    2    0    0  0.00000000000E+00  0.00000000000E+00 -0.39182432612E+02  0.13099517660E+03  0.12499789305E+03 0.  0.
    9000005    1    3    3    0    0  0.61642451739E+02 -0.10077020772E+02 -0.21628750938E+02  0.66107042523E+02  0.10000000000E+01 0.  0.
    9000005    1    3    3    0    0 -0.61642451739E+02  0.10077020772E+02 -0.17553681674E+02  0.64888134080E+02  0.10000000000E+01 0.  0.
<mgrwt>
<rscale>  0 0.12499789E+03</rscale>
<asrwt>0</asrwt>
<pdfrwt beam="2">  1        4 0.13090585E-01 0.12499789E+03</pdfrwt>
<pdfrwt beam="1">  1       -4 0.70625188E-02 0.12499789E+03</pdfrwt>
<totfact> 0.10323683E+04</totfact>
</mgrwt>
</event>
<event>
 5    1  0.3273105E-002  0.1249945E+03  0.7818608E-02  0.1235078E+00
         -4   -1    0    0    0  501 -0.00000000000E+00  0.00000000000E+00  0.62888472164E+02  0.62901294351E+02  0.12700000000E+01 0.  1.
          4   -1    0    0  501    0  0.00000000000E+00 -0.00000000000E+00 -0.62082819407E+02  0.62095807955E+02  0.12700000000E+01 0.  1.
         25    2    1    2    0    0  0.00000000000E+00  0.00000000000E+00  0.80565275633E+00  0.12499710231E+03  0.12499450591E+03 0.  0.
    9000005    1    3    3    0    0 -0.10585716338E+02 -0.57741290574E+02  0.21822715732E+02  0.62636610297E+02  0.10000000000E+01 0.  0.
    9000005    1    3    3    0    0  0.10585716338E+02  0.57741290574E+02 -0.21017062976E+02  0.62360492010E+02  0.10000000000E+01 0.  0.
<mgrwt>
<rscale>  0 0.12499451E+03</rscale>
<asrwt>0</asrwt>
<pdfrwt beam="2">  1        4 0.95531884E-02 0.12499451E+03</pdfrwt>
<pdfrwt beam="1">  1       -4 0.96771350E-02 0.12499451E+03</pdfrwt>
<totfact> 0.10454223E+04</totfact>
</mgrwt>
</event>
<event>
 5    1  0.3273105E-002  0.1250045E+03  0.7818608E-02  0.1235062E+00
         -4   -1    0    0    0  501 -0.00000000000E+00  0.00000000000E+00  0.11946292060E+03  0.11946967104E+03  0.12700000000E+01 0. -1.
          4   -1    0    0  501    0  0.00000000000E+00 -0.00000000000E+00 -0.32680788601E+02  0.32705455869E+02  0.12700000000E+01 0. -1.
         25    2    1    2    0    0  0.00000000000E+00  0.00000000000E+00  0.86782131996E+02  0.15217512691E+03  0.12500452318E+03 0.  0.
    9000005    1    3    3    0    0  0.38991005174E+02  0.27357514229E+02 -0.58600229333E+01  0.48000749349E+02  0.10000000000E+01 0.  0.
    9000005    1    3    3    0    0 -0.38991005174E+02 -0.27357514229E+02  0.92642154929E+02  0.10417437756E+03  0.10000000000E+01 0.  0.
<mgrwt>
<rscale>  0 0.12500452E+03</rscale>
<asrwt>0</asrwt>
<pdfrwt beam="2">  1        4 0.50302304E-02 0.12500452E+03</pdfrwt>
<pdfrwt beam="1">  1       -4 0.18381328E-01 0.12500452E+03</pdfrwt>
<totfact> 0.98861811E+03</totfact>
</mgrwt>
</event>
<event>
 5    1  0.3273105E-002  0.1249995E+03  0.7818608E-02  0.1235070E+00
          4   -1    0    0  501    0  0.00000000000E+00  0.00000000000E+00  0.84604700701E+02  0.84614232140E+02  0.12700000000E+01 0.  1.
         -4   -1    0    0    0  501 -0.00000000000E+00 -0.00000000000E+00 -0.46149364444E+02  0.46166835917E+02  0.12700000000E+01 0.  1.
         25    2    1    2    0    0  0.00000000000E+00  0.00000000000E+00  0.38455336257E+02  0.13078106806E+03  0.12499949950E+03 0.  0.
    9000005    1    3    3    0    0 -0.59681497478E+02 -0.18466746943E+02  0.17635150808E+02  0.64922264500E+02  0.10000000000E+01 0.  0.
    9000005    1    3    3    0    0  0.59681497478E+02  0.18466746943E+02  0.20820185449E+02  0.65858803557E+02  0.10000000000E+01 0.  0.
<mgrwt>
<rscale>  0 0.12499950E+03</rscale>
<asrwt>0</asrwt>
<pdfrwt beam="1">  1        4 0.13018185E-01 0.12499950E+03</pdfrwt>
<pdfrwt beam="2">  1       -4 0.71019794E-02 0.12499950E+03</pdfrwt>
<totfact> 0.10327902E+04</totfact>
</mgrwt>
</event>
<event>
 4    1  0.3273105E-002  0.1250615E+03  0.7818608E-02  0.1234973E+00
         -4   -1    0    0    0  501 -0.00000000000E+00  0.00000000000E+00  0.63911087297E+03  0.63911213480E+03  0.12700000000E+01 0.  1.
          4   -1    0    0  501    0  0.00000000000E+00 -0.00000000000E+00 -0.60508358676E+01  0.61826786021E+01  0.12700000000E+01 0.  1.
    9000005    1    1    2    0    0 -0.41067960328E+02 -0.32045453755E+02  0.49494398170E+03  0.49767864481E+03  0.10000000000E+01 0.  0.
    9000005    1    1    2    0    0  0.41067960328E+02  0.32045453755E+02  0.13811605540E+03  0.14761616859E+03  0.10000000000E+01 0.  0.
<mgrwt>
<rscale>  0 0.12506153E+03</rscale>
<asrwt>0</asrwt>
<pdfrwt beam="2">  1        4 0.94113797E-03 0.12506153E+03</pdfrwt>
<pdfrwt beam="1">  1       -4 0.98334849E-01 0.12506153E+03</pdfrwt>
<totfact> 0.46065674E+03</totfact>
</mgrwt>
</event>
<event>
 5    1  0.3273105E-002  0.1250010E+03  0.7818608E-02  0.1235068E+00
         -4   -1    0    0    0  501 -0.00000000000E+00  0.00000000000E+00  0.56661195649E+02  0.56675426707E+02  0.12700000000E+01 0. -1.
          4   -1    0    0  501    0  0.00000000000E+00 -0.00000000000E+00 -0.68912836312E+02  0.68924537782E+02  0.12700000000E+01 0. -1.
         25    2    1    2    0    0  0.00000000000E+00  0.00000000000E+00 -0.12251640662E+02  0.12559996449E+03  0.12500099352E+03 0.  0.
    9000005    1    3    3    0    0 -0.18643733603E+02  0.44204696300E+02 -0.46363534320E+02  0.66724967533E+02  0.10000000000E+01 0.  0.
    9000005    1    3    3    0    0  0.18643733603E+02 -0.44204696300E+02  0.34111893658E+02  0.58874996956E+02  0.10000000000E+01 0.  0.
<mgrwt>
<rscale>  0 0.12500099E+03</rscale>
<asrwt>0</asrwt>
<pdfrwt beam="2">  1        4 0.10603970E-01 0.12500099E+03</pdfrwt>
<pdfrwt beam="1">  1       -4 0.87191019E-02 0.12500099E+03</pdfrwt>
<totfact> 0.10439514E+04</totfact>
</mgrwt>
</event>
<event>
 5    1  0.3273105E-002  0.1249966E+03  0.7818608E-02  0.1235075E+00
         -4   -1    0    0    0  501 -0.00000000000E+00  0.00000000000E+00  0.38743754970E+02  0.38764564349E+02  0.12700000000E+01 0.  1.
          4   -1    0    0  501    0  0.00000000000E+00 -0.00000000000E+00 -0.10076538646E+03  0.10077338938E+03  0.12700000000E+01 0.  1.
         25    2    1    2    0    0  0.00000000000E+00  0.00000000000E+00 -0.62021631487E+02  0.13953795373E+03  0.12499663099E+03 0.  0.
    9000005    1    3    3    0    0  0.32733845495E+02  0.52238216285E+02 -0.42433673349E+02  0.74846192391E+02  0.10000000000E+01 0.  0.
    9000005    1    3    3    0    0 -0.32733845495E+02 -0.52238216285E+02 -0.19587958138E+02  0.64691761342E+02  0.10000000000E+01 0.  0.
<mgrwt>
<rscale>  0 0.12499663E+03</rscale>
<asrwt>0</asrwt>
<pdfrwt beam="2">  1        4 0.15504583E-01 0.12499663E+03</pdfrwt>
<pdfrwt beam="1">  1       -4 0.59627940E-02 0.12499663E+03</pdfrwt>
<totfact> 0.10143941E+04</totfact>
</mgrwt>
</event>
<event>
 5    1  0.3273105E-002  0.1250001E+03  0.7818608E-02  0.1235069E+00
         -4   -1    0    0    0  501 -0.00000000000E+00  0.00000000000E+00  0.81063347383E+02  0.81073295165E+02  0.12700000000E+01 0. -1.
          4   -1    0    0  501    0  0.00000000000E+00 -0.00000000000E+00 -0.48166448494E+02  0.48183188568E+02  0.12700000000E+01 0. -1.
         25    2    1    2    0    0  0.00000000000E+00  0.00000000000E+00  0.32896898889E+02  0.12925648373E+03  0.12500013052E+03 0.  0.
    9000005    1    3    3    0    0 -0.33544181891E+02 -0.23017724457E+02 -0.32603397292E+02  0.52144120406E+02  0.10000000000E+01 0.  0.
    9000005    1    3    3    0    0  0.33544181891E+02  0.23017724457E+02  0.65500296181E+02  0.77112363326E+02  0.10000000000E+01 0.  0.
<mgrwt>
<rscale>  0 0.12500013E+03</rscale>
<asrwt>0</asrwt>
<pdfrwt beam="2">  1        4 0.74122758E-02 0.12500013E+03</pdfrwt>
<pdfrwt beam="1">  1       -4 0.12473337E-01 0.12500013E+03</pdfrwt>
<totfact> 0.10360408E+04</totfact>
</mgrwt>
</event>
<event>
 5    1  0.3273105E-002  0.1250069E+03  0.7818608E-02  0.1235059E+00
          4   -1    0    0  501    0  0.00000000000E+00  0.00000000000E+00  0.12855921893E+03  0.12856549176E+03  0.12700000000E+01 0. -1.
         -4   -1    0    0    0  501 -0.00000000000E+00 -0.00000000000E+00 -0.30367873681E+02  0.30394418105E+02  0.12700000000E+01 0. -1.
         25    2    1    2    0    0  0.00000000000E+00  0.00000000000E+00  0.98191345245E+02  0.15895990986E+03  0.12500685046E+03 0.  0.
    9000005    1    3    3    0    0 -0.27383451061E+01  0.12154990155E+02 -0.28778718670E+02  0.31376057239E+02  0.10000000000E+01 0.  0.
    9000005    1    3    3    0    0  0.27383451061E+01 -0.12154990155E+02  0.12697006392E+03  0.12758385262E+03  0.10000000000E+01 0.  0.
<mgrwt>
<rscale>  0 0.12500685E+03</rscale>
<asrwt>0</asrwt>
<pdfrwt beam="1">  1        4 0.19780865E-01 0.12500685E+03</pdfrwt>
<pdfrwt beam="2">  1       -4 0.46745050E-02 0.12500685E+03</pdfrwt>
<totfact> 0.97528662E+03</totfact>
</mgrwt>
</event>
<event>
 5    1  0.3273105E-002  0.1249999E+03  0.7818608E-02  0.1235069E+00
          4   -1    0    0  501    0  0.00000000000E+00  0.00000000000E+00  0.51042622095E+02  0.51058419192E+02  0.12700000000E+01 0.  1.
         -4   -1    0    0    0  501 -0.00000000000E+00 -0.00000000000E+00 -0.76496122463E+02  0.76506664101E+02  0.12700000000E+01 0.  1.
         25    2    1    2    0    0  0.00000000000E+00  0.00000000000E+00 -0.25453500368E+02  0.12756508329E+03  0.12499987918E+03 0.  0.
    9000005    1    3    3    0    0  0.61735426731E+02  0.24536868397E+01 -0.22297859054E+02  0.65692297960E+02  0.10000000000E+01 0.  0.
    9000005    1    3    3    0    0 -0.61735426731E+02 -0.24536868397E+01 -0.31556413134E+01  0.61872785333E+02  0.10000000000E+01 0.  0.
<mgrwt>
<rscale>  0 0.12499988E+03</rscale>
<asrwt>0</asrwt>
<pdfrwt beam="1">  1        4 0.78547372E-02 0.12499988E+03</pdfrwt>
<pdfrwt beam="2">  1       -4 0.11770660E-01 0.12499988E+03</pdfrwt>
<totfact> 0.10396920E+04</totfact>
</mgrwt>
</event>
<event>
 5    1  0.3273105E-002  0.1250281E+03  0.7818608E-02  0.1235025E+00
         -4   -1    0    0    0  501 -0.00000000000E+00  0.00000000000E+00  0.16193359843E+04  0.16193364823E+04  0.12700000000E+01 0.  1.
          4   -1    0    0  501    0  0.00000000000E+00 -0.00000000000E+00 -0.22457226651E+01  0.25799554819E+01  0.12700000000E+01 0.  1.
         25    2    1    2    0    0  0.00000000000E+00  0.00000000000E+00  0.16170902616E+04  0.16219164378E+04  0.12502806450E+03 0.  0.
    9000005    1    3    3    0    0 -0.13304985046E+02 -0.59431238369E+02  0.99104152836E+03  0.99291157998E+03  0.10000000000E+01 0.  0.
    9000005    1    3    3    0    0  0.13304985046E+02  0.59431238369E+02  0.62604873329E+03  0.62900485783E+03  0.10000000000E+01 0.  0.
<mgrwt>
<rscale>  0 0.12502806E+03</rscale>
<asrwt>0</asrwt>
<pdfrwt beam="2">  1        4 0.37124329E-03 0.12502806E+03</pdfrwt>
<pdfrwt beam="1">  1       -4 0.24915505E+00 0.12502806E+03</pdfrwt>
<totfact> 0.15643491E+03</totfact>
</mgrwt>
</event>
<event>
 5    1  0.3273105E-002  0.1249994E+03  0.7818608E-02  0.1235070E+00
         -4   -1    0    0    0  501 -0.00000000000E+00  0.00000000000E+00  0.10051802972E+03  0.10052605234E+03  0.12700000000E+01 0.  1.
          4   -1    0    0  501    0  0.00000000000E+00 -0.00000000000E+00 -0.38840878156E+02  0.38861635528E+02  0.12700000000E+01 0.  1.
         25    2    1    2    0    0  0.00000000000E+00  0.00000000000E+00  0.61677151565E+02  0.13938768787E+03  0.12499942601E+03 0.  0.
    9000005    1    3    3    0    0  0.39534407243E+02 -0.12029421990E+02  0.83112435751E+02  0.92824314304E+02  0.10000000000E+01 0.  0.
    9000005    1    3    3    0    0 -0.39534407243E+02  0.12029421990E+02 -0.21435284186E+02  0.46563373563E+02  0.10000000000E+01 0.  0.
<mgrwt>
<rscale>  0 0.12499943E+03</rscale>
<asrwt>0</asrwt>
<pdfrwt beam="2">  1        4 0.59777335E-02 0.12499943E+03</pdfrwt>
<pdfrwt beam="1">  1       -4 0.15466526E-01 0.12499943E+03</pdfrwt>
<totfact> 0.10146423E+04</totfact>
</mgrwt>
</event>
<event>
 5    1  0.3273105E-002  0.1249948E+03  0.7818608E-02  0.1235077E+00
          4   -1    0    0  501    0  0.00000000000E+00  0.00000000000E+00  0.23161656050E+02  0.23196448240E+02  0.12700000000E+01 0.  1.
         -4   -1    0    0    0  501 -0.00000000000E+00 -0.00000000000E+00 -0.16847371774E+03  0.16847850447E+03  0.12700000000E+01 0.  1.
         25    2    1    2    0    0  0.00000000000E+00  0.00000000000E+00 -0.14531206169E+03  0.19167495271E+03  0.12499476879E+03 0.  0.
    9000005    1    3    3    0    0  0.40755075827E+02 -0.29401908880E+02 -0.15701224157E+02  0.52659062767E+02  0.10000000000E+01 0.  0.
    9000005    1    3    3    0    0 -0.40755075827E+02  0.29401908880E+02 -0.12961083754E+03  0.13901588995E+03  0.10000000000E+01 0.  0.
<mgrwt>
<rscale>  0 0.12499477E+03</rscale>
<asrwt>0</asrwt>
<pdfrwt beam="1">  1        4 0.35663763E-02 0.12499477E+03</pdfrwt>
<pdfrwt beam="2">  1       -4 0.25922077E-01 0.12499477E+03</pdfrwt>
<totfact> 0.91567421E+03</totfact>
</mgrwt>
</event>
<event>
 5    1  0.3273105E-002  0.1249908E+03  0.7818608E-02  0.1235084E+00
          4   -1    0    0  501    0  0.00000000000E+00  0.00000000000E+00  0.61155655741E+03  0.61155787609E+03  0.12700000000E+01 0.  1.
         -4   -1    0    0    0  501 -0.00000000000E+00 -0.00000000000E+00 -0.63219741178E+01  0.64482754862E+01  0.12700000000E+01 0.  1.
         25    2    1    2    0    0  0.00000000000E+00  0.00000000000E+00  0.60523458329E+03  0.61800615158E+03  0.12499080997E+03 0.  0.
    9000005    1    3    3    0    0 -0.19178641557E+02 -0.57408145482E+02  0.22583385976E+03  0.23380643206E+03  0.10000000000E+01 0.  0.
    9000005    1    3    3    0    0  0.19178641557E+02  0.57408145482E+02  0.37940072353E+03  0.38419971952E+03  0.10000000000E+01 0.  0.
<mgrwt>
<rscale>  0 0.12499081E+03</rscale>
<asrwt>0</asrwt>
<pdfrwt beam="1">  1        4 0.94095449E-01 0.12499081E+03</pdfrwt>
<pdfrwt beam="2">  1       -4 0.98242824E-03 0.12499081E+03</pdfrwt>
<totfact> 0.47760000E+03</totfact>
</mgrwt>
</event>
<event>
 5    1  0.3273105E-002  0.1250026E+03  0.7818608E-02  0.1235065E+00
         -4   -1    0    0    0  501 -0.00000000000E+00  0.00000000000E+00  0.93642557424E+03  0.93642643544E+03  0.12700000000E+01 0.  1.
          4   -1    0    0  501    0  0.00000000000E+00 -0.00000000000E+00 -0.40740809959E+01  0.42674390401E+01  0.12700000000E+01 0.  1.
         25    2    1    2    0    0  0.00000000000E+00  0.00000000000E+00  0.93235149324E+03  0.94069387448E+03  0.12500263409E+03 0.  0.
    9000005    1    3    3    0    0 -0.54767122019E+01 -0.48312015860E+02  0.17072675306E+03  0.17751808207E+03  0.10000000000E+01 0.  0.
    9000005    1    3    3    0    0  0.54767122019E+01  0.48312015860E+02  0.76162474018E+03  0.76317579240E+03  0.10000000000E+01 0.  0.
<mgrwt>
<rscale>  0 0.12500263E+03</rscale>
<asrwt>0</asrwt>
<pdfrwt beam="2">  1        4 0.64172201E-03 0.12500263E+03</pdfrwt>
<pdfrwt beam="1">  1       -4 0.14408033E+00 0.12500263E+03</pdfrwt>
<totfact> 0.32646841E+03</totfact>
</mgrwt>
</event>
<event>
 5    1  0.3273105E-002  0.1250016E+03  0.7818608E-02  0.1235067E+00
          4   -1    0    0  501    0  0.00000000000E+00  0.00000000000E+00  0.52353861464E+01  0.53872226705E+01  0.12700000000E+01 0. -1.
         -4   -1    0    0    0  501 -0.00000000000E+00 -0.00000000000E+00 -0.73532595663E+03  0.73532705336E+03  0.12700000000E+01 0. -1.
         25    2    1    2    0    0  0.00000000000E+00  0.00000000000E+00 -0.73009057049E+03  0.74071427603E+03  0.12500159038E+03 0.  0.
    9000005    1    3    3    0    0  0.16685397035E+02  0.38729209012E+02 -0.63833195038E+03  0.63972418508E+03  0.10000000000E+01 0.  0.
    9000005    1    3    3    0    0 -0.16685397035E+02 -0.38729209012E+02 -0.91758620106E+02  0.10099009094E+03  0.10000000000E+01 0.  0.
<mgrwt>
<rscale>  0 0.12500159E+03</rscale>
<asrwt>0</asrwt>
<pdfrwt beam="1">  1        4 0.81720870E-03 0.12500159E+03</pdfrwt>
<pdfrwt beam="2">  1       -4 0.11313875E+00 0.12500159E+03</pdfrwt>
<totfact> 0.41020857E+03</totfact>
</mgrwt>
</event>
<event>
 5    1  0.3273105E-002  0.1250000E+03  0.7818608E-02  0.1235069E+00
          4   -1    0    0  501    0  0.00000000000E+00  0.00000000000E+00  0.49674473154E+02  0.49690705199E+02  0.12700000000E+01 0. -1.
         -4   -1    0    0    0  501 -0.00000000000E+00 -0.00000000000E+00 -0.78602776039E+02  0.78613035185E+02  0.12700000000E+01 0. -1.
         25    2    1    2    0    0  0.00000000000E+00  0.00000000000E+00 -0.28928302885E+02  0.12830374038E+03  0.12500001236E+03 0.  0.
    9000005    1    3    3    0    0  0.54975563129E+01  0.49616471954E+02  0.24122420865E+02  0.55451858426E+02  0.10000000000E+01 0.  0.
    9000005    1    3    3    0    0 -0.54975563129E+01 -0.49616471954E+02 -0.53050723749E+02  0.72851881958E+02  0.10000000000E+01 0.  0.
<mgrwt>
<rscale>  0 0.12500001E+03</rscale>
<asrwt>0</asrwt>
<pdfrwt beam="1">  1        4 0.76442645E-02 0.12500001E+03</pdfrwt>
<pdfrwt beam="2">  1       -4 0.12094772E-01 0.12500001E+03</pdfrwt>
<totfact> 0.10380930E+04</totfact>
</mgrwt>
</event>
<event>
 5    1  0.3273105E-002  0.1250065E+03  0.7818608E-02  0.1235059E+00
          4   -1    0    0  501    0  0.00000000000E+00  0.00000000000E+00  0.14625162772E+02  0.14680200480E+02  0.12700000000E+01 0.  1.
         -4   -1    0    0    0  501 -0.00000000000E+00 -0.00000000000E+00 -0.26656063856E+03  0.26656366393E+03  0.12700000000E+01 0.  1.
         25    2    1    2    0    0  0.00000000000E+00  0.00000000000E+00 -0.25193547579E+03  0.28124386441E+03  0.12500650907E+03 0.  0.
    9000005    1    3    3    0    0  0.25947156286E+02 -0.49152294230E+02 -0.61681759488E+02  0.83035187727E+02  0.10000000000E+01 0.  0.
    9000005    1    3    3    0    0 -0.25947156286E+02  0.49152294230E+02 -0.19025371630E+03  0.19820867669E+03  0.10000000000E+01 0.  0.
<mgrwt>
<rscale>  0 0.12500651E+03</rscale>
<asrwt>0</asrwt>
<pdfrwt beam="1">  1        4 0.22544916E-02 0.12500651E+03</pdfrwt>
<pdfrwt beam="2">  1       -4 0.41013792E-01 0.12500651E+03</pdfrwt>
<totfact> 0.78002183E+03</totfact>
</mgrwt>
</event>
<event>
 5    1  0.3273105E-002  0.1249984E+03  0.7818608E-02  0.1235072E+00
         -4   -1    0    0    0  501 -0.00000000000E+00  0.00000000000E+00  0.60560507533E+03  0.60560640697E+03  0.12700000000E+01 0. -1.
          4   -1    0    0  501    0  0.00000000000E+00 -0.00000000000E+00 -0.63861273145E+01  0.65111843835E+01  0.12700000000E+01 0. -1.
         25    2    1    2    0    0  0.00000000000E+00  0.00000000000E+00  0.59921894801E+03  0.61211759135E+03  0.12499839193E+03 0.  0.
    9000005    1    3    3    0    0 -0.51524137436E+02  0.31517946234E+02  0.22109967183E+03  0.22920336507E+03  0.10000000000E+01 0.  0.
    9000005    1    3    3    0    0  0.51524137436E+02 -0.31517946234E+02  0.37811927618E+03  0.38291422629E+03  0.10000000000E+01 0.  0.
<mgrwt>
<rscale>  0 0.12499839E+03</rscale>
<asrwt>0</asrwt>
<pdfrwt beam="2">  1        4 0.99220330E-03 0.12499839E+03</pdfrwt>
<pdfrwt beam="1">  1       -4 0.93179737E-01 0.12499839E+03</pdfrwt>
<totfact> 0.48113233E+03</totfact>
</mgrwt>
</event>
<event>
 5    1  0.3273105E-002  0.1250022E+03  0.7818608E-02  0.1235066E+00
         -4   -1    0    0    0  501 -0.00000000000E+00  0.00000000000E+00  0.63251658027E+03  0.63251785525E+03  0.12700000000E+01 0.  1.
          4   -1    0    0  501    0  0.00000000000E+00 -0.00000000000E+00 -0.61093641267E+01  0.62399703551E+01  0.12700000000E+01 0.  1.
         25    2    1    2    0    0  0.00000000000E+00  0.00000000000E+00  0.62640721614E+03  0.63875782561E+03  0.12500223735E+03 0.  0.
    9000005    1    3    3    0    0  0.55072101525E+02 -0.21952171153E+02  0.41418931510E+03  0.41841202532E+03  0.10000000000E+01 0.  0.
    9000005    1    3    3    0    0 -0.55072101525E+02  0.21952171153E+02  0.21221790104E+03  0.22034580029E+03  0.10000000000E+01 0.  0.
<mgrwt>
<rscale>  0 0.12500224E+03</rscale>
<asrwt>0</asrwt>
<pdfrwt beam="2">  1        4 0.95004659E-03 0.12500224E+03</pdfrwt>
<pdfrwt beam="1">  1       -4 0.97320418E-01 0.12500224E+03</pdfrwt>
<totfact> 0.46506736E+03</totfact>
</mgrwt>
</event>
<event>
 5    1  0.3273105E-002  0.1249989E+03  0.7818608E-02  0.1235071E+00
          4   -1    0    0  501    0  0.00000000000E+00  0.00000000000E+00  0.31757685265E+02  0.31783068974E+02  0.12700000000E+01 0. -1.
         -4   -1    0    0    0  501 -0.00000000000E+00 -0.00000000000E+00 -0.12292183975E+03  0.12292840025E+03  0.12700000000E+01 0. -1.
         25    2    1    2    0    0  0.00000000000E+00  0.00000000000E+00 -0.91164154490E+02  0.15471146923E+03  0.12499894258E+03 0.  0.
    9000005    1    3    3    0    0 -0.40633995911E+02  0.15575462978E+02 -0.10109225951E+03  0.11006526065E+03  0.10000000000E+01 0.  0.
    9000005    1    3    3    0    0  0.40633995911E+02 -0.15575462978E+02  0.99281050171E+01  0.44646208572E+02  0.10000000000E+01 0.  0.
<mgrwt>
<rscale>  0 0.12499894E+03</rscale>
<asrwt>0</asrwt>
<pdfrwt beam="1">  1        4 0.48882550E-02 0.12499894E+03</pdfrwt>
<pdfrwt beam="2">  1       -4 0.18913509E-01 0.12499894E+03</pdfrwt>
<totfact> 0.98374510E+03</totfact>
</mgrwt>
</event>
<event>
 5    1  0.3273105E-002  0.1249980E+03  0.7818608E-02  0.1235072E+00
          4   -1    0    0  501    0  0.00000000000E+00  0.00000000000E+00  0.60434170875E+02  0.60447513674E+02  0.12700000000E+01 0.  1.
         -4   -1    0    0    0  501 -0.00000000000E+00 -0.00000000000E+00 -0.64607653634E+02  0.64620134696E+02  0.12700000000E+01 0.  1.
         25    2    1    2    0    0  0.00000000000E+00  0.00000000000E+00 -0.41734827592E+01  0.12506764837E+03  0.12499799483E+03 0.  0.
    9000005    1    3    3    0    0  0.58072351050E+02 -0.15779918743E+02 -0.18940143807E+02  0.63096218900E+02  0.10000000000E+01 0.  0.
    9000005    1    3    3    0    0 -0.58072351050E+02  0.15779918743E+02  0.14766661048E+02  0.61971429470E+02  0.10000000000E+01 0.  0.
<mgrwt>
<rscale>  0 0.12499799E+03</rscale>
<asrwt>0</asrwt>
<pdfrwt beam="1">  1        4 0.92995512E-02 0.12499799E+03</pdfrwt>
<pdfrwt beam="2">  1       -4 0.99416255E-02 0.12499799E+03</pdfrwt>
<totfact> 0.10451867E+04</totfact>
</mgrwt>
</event>
<event>
 5    1  0.3273105E-002  0.1249986E+03  0.7818608E-02  0.1235071E+00
          4   -1    0    0  501    0  0.00000000000E+00  0.00000000000E+00  0.18409737393E+02  0.18453491021E+02  0.12700000000E+01 0. -1.
         -4   -1    0    0    0  501 -0.00000000000E+00 -0.00000000000E+00 -0.21188177004E+03  0.21188557613E+03  0.12700000000E+01 0. -1.
         25    2    1    2    0    0  0.00000000000E+00  0.00000000000E+00 -0.19347203264E+03  0.23033906716E+03  0.12499863376E+03 0.  0.
    9000005    1    3    3    0    0  0.20716884844E+02 -0.48074422977E+02 -0.15962762546E+03  0.16799499479E+03  0.10000000000E+01 0.  0.
    9000005    1    3    3    0    0 -0.20716884844E+02  0.48074422977E+02 -0.33844407181E+02  0.62344072370E+02  0.10000000000E+01 0.  0.
<mgrwt>
<rscale>  0 0.12499863E+03</rscale>
<asrwt>0</asrwt>
<pdfrwt beam="1">  1        4 0.28359259E-02 0.12499863E+03</pdfrwt>
<pdfrwt beam="2">  1       -4 0.32600852E-01 0.12499863E+03</pdfrwt>
<totfact> 0.85260160E+03</totfact>
</mgrwt>
</event>
<event>
 5    1  0.3273105E-002  0.1250078E+03  0.7818608E-02  0.1235057E+00
          4   -1    0    0  501    0  0.00000000000E+00  0.00000000000E+00  0.31107769979E+03  0.31108029222E+03  0.12700000000E+01 0. -1.
         -4   -1    0    0    0  501 -0.00000000000E+00 -0.00000000000E+00 -0.12523959794E+02  0.12588187674E+02  0.12700000000E+01 0. -1.
         25    2    1    2    0    0  0.00000000000E+00  0.00000000000E+00  0.29855374000E+03  0.32366847989E+03  0.12500779660E+03 0.  0.
    9000005    1    3    3    0    0 -0.47461179056E+02  0.21694471624E+02  0.60240338749E+02  0.79706411467E+02  0.10000000000E+01 0.  0.
    9000005    1    3    3    0    0  0.47461179056E+02 -0.21694471624E+02  0.23831340125E+03  0.24396206843E+03  0.10000000000E+01 0.  0.
<mgrwt>
<rscale>  0 0.12500780E+03</rscale>
<asrwt>0</asrwt>
<pdfrwt beam="1">  1        4 0.47863242E-01 0.12500780E+03</pdfrwt>
<pdfrwt beam="2">  1       -4 0.19319033E-02 0.12500780E+03</pdfrwt>
<totfact> 0.72709360E+03</totfact>
</mgrwt>
</event>
<event>
 5    1  0.3273105E-002  0.1249979E+03  0.7818608E-02  0.1235073E+00
         -4   -1    0    0    0  501 -0.00000000000E+00  0.00000000000E+00  0.68444623056E+03  0.68444740881E+03  0.12700000000E+01 0.  1.
          4   -1    0    0  501    0  0.00000000000E+00 -0.00000000000E+00 -0.56351237227E+01  0.57764625309E+01  0.12700000000E+01 0.  1.
         25    2    1    2    0    0  0.00000000000E+00  0.00000000000E+00  0.67881110684E+03  0.69022387134E+03  0.12499789520E+03 0.  0.
    9000005    1    3    3    0    0 -0.14268287483E+02 -0.30405828622E+02  0.48416414338E+02  0.58934265239E+02  0.10000000000E+01 0.  0.
    9000005    1    3    3    0    0  0.14268287483E+02  0.30405828622E+02  0.63039469250E+03  0.63128960610E+03  0.10000000000E+01 0.  0.
<mgrwt>
<rscale>  0 0.12499790E+03</rscale>
<asrwt>0</asrwt>
<pdfrwt beam="2">  1        4 0.87790472E-03 0.12499790E+03</pdfrwt>
<pdfrwt beam="1">  1       -4 0.10531041E+00 0.12499790E+03</pdfrwt>
<totfact> 0.43609805E+03</totfact>
</mgrwt>
</event>
<event>
 5    1  0.3273105E-002  0.1249986E+03  0.7818608E-02  0.1235071E+00
          4   -1    0    0  501    0  0.00000000000E+00  0.00000000000E+00  0.22928626475E+02  0.22963771729E+02  0.12700000000E+01 0. -1.
         -4   -1    0    0    0  501 -0.00000000000E+00 -0.00000000000E+00 -0.17019380306E+03  0.17019854141E+03  0.12700000000E+01 0. -1.
         25    2    1    2    0    0  0.00000000000E+00  0.00000000000E+00 -0.14726517658E+03  0.19316231314E+03  0.12499858793E+03 0.  0.
    9000005    1    3    3    0    0  0.46954857981E+02  0.34366703401E+02 -0.10884859827E+03  0.12342951971E+03  0.10000000000E+01 0.  0.
    9000005    1    3    3    0    0 -0.46954857981E+02 -0.34366703401E+02 -0.38416578316E+02  0.69732793435E+02  0.10000000000E+01 0.  0.
<mgrwt>
<rscale>  0 0.12499859E+03</rscale>
<asrwt>0</asrwt>
<pdfrwt beam="1">  1        4 0.35305491E-02 0.12499859E+03</pdfrwt>
<pdfrwt beam="2">  1       -4 0.26186729E-01 0.12499859E+03</pdfrwt>
<totfact> 0.91302863E+03</totfact>
</mgrwt>
</event>
<event>
 5    1  0.3273105E-002  0.1249997E+03  0.7818608E-02  0.1235070E+00
         -4   -1    0    0    0  501 -0.00000000000E+00  0.00000000000E+00  0.21359813112E+02  0.21397535283E+02  0.12700000000E+01 0. -1.
          4   -1    0    0  501    0  0.00000000000E+00 -0.00000000000E+00 -0.18267625273E+03  0.18268066732E+03  0.12700000000E+01 0. -1.
         25    2    1    2    0    0  0.00000000000E+00  0.00000000000E+00 -0.16131643962E+03  0.20407820260E+03  0.12499967634E+03 0.  0.
    9000005    1    3    3    0    0  0.16164537725E+01 -0.56091179430E+02 -0.12555988734E+03  0.13753224582E+03  0.10000000000E+01 0.  0.
    9000005    1    3    3    0    0 -0.16164537725E+01  0.56091179430E+02 -0.35756552282E+02  0.66545956780E+02  0.10000000000E+01 0.  0.
<mgrwt>
<rscale>  0 0.12499968E+03</rscale>
<asrwt>0</asrwt>
<pdfrwt beam="2">  1        4 0.28107279E-01 0.12499968E+03</pdfrwt>
<pdfrwt beam="1">  1       -4 0.32893665E-02 0.12499968E+03</pdfrwt>
<totfact> 0.89452861E+03</totfact>
</mgrwt>
</event>
<event>
 5    1  0.3273105E-002  0.1249996E+03  0.7818608E-02  0.1235070E+00
          4   -1    0    0  501    0  0.00000000000E+00  0.00000000000E+00  0.11741980756E+04  0.11741987624E+04  0.12700000000E+01 0. -1.
         -4   -1    0    0    0  501 -0.00000000000E+00 -0.00000000000E+00 -0.32047954157E+01  0.34472617621E+01  0.12700000000E+01 0. -1.
         25    2    1    2    0    0  0.00000000000E+00  0.00000000000E+00  0.11709932802E+04  0.11776460242E+04  0.12499958403E+03 0.  0.
    9000005    1    3    3    0    0  0.35976086635E+02  0.49586039910E+02  0.46927941742E+03  0.47326232238E+03  0.10000000000E+01 0.  0.
    9000005    1    3    3    0    0 -0.35976086635E+02 -0.49586039910E+02  0.70171386276E+03  0.70438370179E+03  0.10000000000E+01 0.  0.
<mgrwt>
<rscale>  0 0.12499958E+03</rscale>
<asrwt>0</asrwt>
<pdfrwt beam="1">  1        4 0.18066466E+00 0.12499958E+03</pdfrwt>
<pdfrwt beam="2">  1       -4 0.51174926E-03 0.12499958E+03</pdfrwt>
<totfact> 0.25305688E+03</totfact>
</mgrwt>
</event>
<event>
 5    1  0.3273105E-002  0.1250019E+03  0.7818608E-02  0.1235066E+00
         -4   -1    0    0    0  501 -0.00000000000E+00  0.00000000000E+00  0.16686374439E+03  0.16686857731E+03  0.12700000000E+01 0. -1.
          4   -1    0    0  501    0  0.00000000000E+00 -0.00000000000E+00 -0.23388129022E+02  0.23422584809E+02  0.12700000000E+01 0. -1.
         25    2    1    2    0    0  0.00000000000E+00  0.00000000000E+00  0.14347561537E+03  0.19029116212E+03  0.12500189668E+03 0.  0.
    9000005    1    3    3    0    0  0.33025852137E+02  0.36708945702E+02  0.13429010137E+02  0.51181949134E+02  0.10000000000E+01 0.  0.
    9000005    1    3    3    0    0 -0.33025852137E+02 -0.36708945702E+02  0.13004660524E+03  0.13910921298E+03  0.10000000000E+01 0.  0.
<mgrwt>
<rscale>  0 0.12500190E+03</rscale>
<asrwt>0</asrwt>
<pdfrwt beam="2">  1        4 0.36011960E-02 0.12500190E+03</pdfrwt>
<pdfrwt beam="1">  1       -4 0.25674367E-01 0.12500190E+03</pdfrwt>
<totfact> 0.91792778E+03</totfact>
</mgrwt>
</event>
<event>
 5    1  0.3273105E-002  0.1249954E+03  0.7818608E-02  0.1235076E+00
         -4   -1    0    0    0  501 -0.00000000000E+00  0.00000000000E+00  0.67576498750E+01  0.68759531581E+01  0.12700000000E+01 0.  1.
          4   -1    0    0  501    0  0.00000000000E+00 -0.00000000000E+00 -0.57287142901E+03  0.57287283674E+03  0.12700000000E+01 0.  1.
         25    2    1    2    0    0  0.00000000000E+00  0.00000000000E+00 -0.56611377914E+03  0.57974878990E+03  0.12499539377E+03 0.  0.
    9000005    1    3    3    0    0  0.59675587282E+02 -0.13204401164E+02 -0.22268410065E+03  0.23092150313E+03  0.10000000000E+01 0.  0.
    9000005    1    3    3    0    0 -0.59675587282E+02  0.13204401164E+02 -0.34342967849E+03  0.34882728677E+03  0.10000000000E+01 0.  0.
<mgrwt>
<rscale>  0 0.12499539E+03</rscale>
<asrwt>0</asrwt>
<pdfrwt beam="2">  1        4 0.88143237E-01 0.12499539E+03</pdfrwt>
<pdfrwt beam="1">  1       -4 0.10488474E-02 0.12499539E+03</pdfrwt>
<totfact> 0.50176481E+03</totfact>
</mgrwt>
</event>
<event>
 5    1  0.3273105E-002  0.1249957E+03  0.7818608E-02  0.1235076E+00
          4   -1    0    0  501    0  0.00000000000E+00  0.00000000000E+00  0.22148031726E+02  0.22184413658E+02  0.12700000000E+01 0.  1.
         -4   -1    0    0    0  501 -0.00000000000E+00 -0.00000000000E+00 -0.17617447879E+03  0.17617905630E+03  0.12700000000E+01 0.  1.
         25    2    1    2    0    0  0.00000000000E+00  0.00000000000E+00 -0.15402644706E+03  0.19836346995E+03  0.12499567919E+03 0.  0.
    9000005    1    3    3    0    0 -0.55807228781E+02  0.25540866918E+02 -0.95669134252E+02  0.11366778750E+03  0.10000000000E+01 0.  0.
    9000005    1    3    3    0    0  0.55807228781E+02 -0.25540866918E+02 -0.58357312812E+02  0.84695682451E+02  0.10000000000E+01 0.  0.
<mgrwt>
<rscale>  0 0.12499568E+03</rscale>
<asrwt>0</asrwt>
<pdfrwt beam="1">  1        4 0.34105403E-02 0.12499568E+03</pdfrwt>
<pdfrwt beam="2">  1       -4 0.27106916E-01 0.12499568E+03</pdfrwt>
<totfact> 0.90420862E+03</totfact>
</mgrwt>
</event>
<event>
 5    1  0.3273105E-002  0.1249999E+03  0.7818608E-02  0.1235069E+00
          4   -1    0    0  501    0  0.00000000000E+00  0.00000000000E+00  0.23898879024E+01  0.27063747313E+01  0.12700000000E+01 0. -1.
         -4   -1    0    0    0  501 -0.00000000000E+00 -0.00000000000E+00 -0.15326680180E+04  0.15326685442E+04  0.12700000000E+01 0. -1.
         25    2    1    2    0    0  0.00000000000E+00  0.00000000000E+00 -0.15302781301E+04  0.15353749189E+04  0.12499994459E+03 0.  0.
    9000005    1    3    3    0    0  0.20164661556E+02  0.58853192067E+02 -0.83773852834E+03  0.84004592354E+03  0.10000000000E+01 0.  0.
    9000005    1    3    3    0    0 -0.20164661556E+02 -0.58853192067E+02 -0.69253960177E+03  0.69532899538E+03  0.10000000000E+01 0.  0.
<mgrwt>
<rscale>  0 0.12499994E+03</rscale>
<asrwt>0</asrwt>
<pdfrwt beam="1">  1        4 0.39206190E-03 0.12499994E+03</pdfrwt>
<pdfrwt beam="2">  1       -4 0.23581873E+00 0.12499994E+03</pdfrwt>
<totfact> 0.17245527E+03</totfact>
</mgrwt>
</event>
<event>
 5    1  0.3273105E-002  0.1249639E+03  0.7818608E-02  0.1235126E+00
         -4   -1    0    0    0  501 -0.00000000000E+00  0.00000000000E+00  0.16058839499E+03  0.16059341675E+03  0.12700000000E+01 0. -1.
          4   -1    0    0  501    0  0.00000000000E+00 -0.00000000000E+00 -0.24288575493E+02  0.24321755682E+02  0.12700000000E+01 0. -1.
         25    2    1    2    0    0  0.00000000000E+00  0.00000000000E+00  0.13629981949E+03  0.18491517243E+03  0.12496391560E+03 0.  0.
    9000005    1    3    3    0    0  0.52625705217E+02 -0.31785201553E+02  0.51723290299E+02  0.80349627546E+02  0.10000000000E+01 0.  0.
    9000005    1    3    3    0    0 -0.52625705217E+02  0.31785201553E+02  0.84576529193E+02  0.10456554489E+03  0.10000000000E+01 0.  0.
<mgrwt>
<rscale>  0 0.12496392E+03</rscale>
<asrwt>0</asrwt>
<pdfrwt beam="2">  1        4 0.37396425E-02 0.12496392E+03</pdfrwt>
<pdfrwt beam="1">  1       -4 0.24708846E-01 0.12496392E+03</pdfrwt>
<totfact> 0.92814700E+03</totfact>
</mgrwt>
</event>
<event>
 5    1  0.3273105E-002  0.1249986E+03  0.7818608E-02  0.1235072E+00
         -4   -1    0    0    0  501 -0.00000000000E+00  0.00000000000E+00  0.15963856506E+02  0.16014294069E+02  0.12700000000E+01 0.  1.
          4   -1    0    0  501    0  0.00000000000E+00 -0.00000000000E+00 -0.24424969824E+03  0.24425299997E+03  0.12700000000E+01 0.  1.
         25    2    1    2    0    0  0.00000000000E+00  0.00000000000E+00 -0.22828584174E+03  0.26026729403E+03  0.12499855522E+03 0.  0.
    9000005    1    3    3    0    0  0.60675961870E+02 -0.60681135644E+01 -0.85687647839E+02  0.10517493686E+03  0.10000000000E+01 0.  0.
    9000005    1    3    3    0    0 -0.60675961870E+02  0.60681135644E+01 -0.14259819390E+03  0.15509235717E+03  0.10000000000E+01 0.  0.
<mgrwt>
<rscale>  0 0.12499856E+03</rscale>
<asrwt>0</asrwt>
<pdfrwt beam="2">  1        4 0.37581008E-01 0.12499856E+03</pdfrwt>
<pdfrwt beam="1">  1       -4 0.24601119E-02 0.12499856E+03</pdfrwt>
<totfact> 0.80871166E+03</totfact>
</mgrwt>
</event>
<event>
 5    1  0.3273105E-002  0.1250022E+03  0.7818608E-02  0.1235066E+00
         -4   -1    0    0    0  501 -0.00000000000E+00  0.00000000000E+00  0.21957326089E+02  0.21994023484E+02  0.12700000000E+01 0. -1.
          4   -1    0    0  501    0  0.00000000000E+00 -0.00000000000E+00 -0.17772066936E+03  0.17772520704E+03  0.12700000000E+01 0. -1.
         25    2    1    2    0    0  0.00000000000E+00  0.00000000000E+00 -0.15576334327E+03  0.19971923052E+03  0.12500220772E+03 0.  0.
    9000005    1    3    3    0    0 -0.52410097600E+02  0.55162683642E+01 -0.13154576344E+03  0.14171286259E+03  0.10000000000E+01 0.  0.
    9000005    1    3    3    0    0  0.52410097600E+02 -0.55162683642E+01 -0.24217579832E+02  0.58006367926E+02  0.10000000000E+01 0.  0.
<mgrwt>
<rscale>  0 0.12500221E+03</rscale>
<asrwt>0</asrwt>
<pdfrwt beam="2">  1        4 0.27344812E-01 0.12500221E+03</pdfrwt>
<pdfrwt beam="1">  1       -4 0.33812222E-02 0.12500221E+03</pdfrwt>
<totfact> 0.90178427E+03</totfact>
</mgrwt>
</event>
<event>
 5    1  0.3273105E-002  0.1249835E+03  0.7818608E-02  0.1235095E+00
         -4   -1    0    0    0  501 -0.00000000000E+00  0.00000000000E+00  0.18761543324E+02  0.18804478400E+02  0.12700000000E+01 0.  1.
          4   -1    0    0  501    0  0.00000000000E+00 -0.00000000000E+00 -0.20786749164E+03  0.20787137124E+03  0.12700000000E+01 0.  1.
         25    2    1    2    0    0  0.00000000000E+00  0.00000000000E+00 -0.18910594832E+03  0.22667584964E+03  0.12498352340E+03 0.  0.
    9000005    1    3    3    0    0  0.39301115804E+02 -0.42982515489E+02 -0.53509004743E+02  0.79096699866E+02  0.10000000000E+01 0.  0.
    9000005    1    3    3    0    0 -0.39301115804E+02  0.42982515489E+02 -0.13559694357E+03  0.14757914977E+03  0.10000000000E+01 0.  0.
<mgrwt>
<rscale>  0 0.12498352E+03</rscale>
<asrwt>0</asrwt>
<pdfrwt beam="2">  1        4 0.31983214E-01 0.12498352E+03</pdfrwt>
<pdfrwt beam="1">  1       -4 0.28899926E-02 0.12498352E+03</pdfrwt>
<totfact> 0.85854218E+03</totfact>
</mgrwt>
</event>
<event>
 5    1  0.3273105E-002  0.1250001E+03  0.7818608E-02  0.1235069E+00
          4   -1    0    0  501    0  0.00000000000E+00  0.00000000000E+00  0.69500518279E+02  0.69512120821E+02  0.12700000000E+01 0. -1.
         -4   -1    0    0    0  501 -0.00000000000E+00 -0.00000000000E+00 -0.56181246364E+02  0.56195598965E+02  0.12700000000E+01 0. -1.
         25    2    1    2    0    0  0.00000000000E+00  0.00000000000E+00  0.13319271915E+02  0.12570771979E+03  0.12500011124E+03 0.  0.
    9000005    1    3    3    0    0 -0.50220128994E+02 -0.30879532679E+01 -0.30613093550E+02  0.58904654386E+02  0.10000000000E+01 0.  0.
    9000005    1    3    3    0    0  0.50220128994E+02  0.30879532679E+01  0.43932365465E+02  0.66803065401E+02  0.10000000000E+01 0.  0.
<mgrwt>
<rscale>  0 0.12500011E+03</rscale>
<asrwt>0</asrwt>
<pdfrwt beam="1">  1        4 0.10694384E-01 0.12500011E+03</pdfrwt>
<pdfrwt beam="2">  1       -4 0.86452653E-02 0.12500011E+03</pdfrwt>
<totfact> 0.10437348E+04</totfact>
</mgrwt>
</event>
<event>
 5    1  0.3273105E-002  0.1249877E+03  0.7818608E-02  0.1235089E+00
          4   -1    0    0  501    0  0.00000000000E+00  0.00000000000E+00  0.48346496684E+03  0.48346663490E+03  0.12700000000E+01 0. -1.
         -4   -1    0    0    0  501 -0.00000000000E+00 -0.00000000000E+00 -0.80264951051E+01  0.81263474988E+01  0.12700000000E+01 0. -1.
         25    2    1    2    0    0  0.00000000000E+00  0.00000000000E+00  0.47543847174E+03  0.49159298240E+03  0.12498767915E+03 0.  0.
    9000005    1    3    3    0    0 -0.36189889318E+02  0.43790476794E+02  0.34006881356E+03  0.34478270244E+03  0.10000000000E+01 0.  0.
    9000005    1    3    3    0    0  0.36189889318E+02 -0.43790476794E+02  0.13536965817E+03  0.14681027996E+03  0.10000000000E+01 0.  0.
<mgrwt>
<rscale>  0 0.12498768E+03</rscale>
<asrwt>0</asrwt>
<pdfrwt beam="1">  1        4 0.74387037E-01 0.12498768E+03</pdfrwt>
<pdfrwt beam="2">  1       -4 0.12426546E-02 0.12498768E+03</pdfrwt>
<totfact> 0.56537916E+03</totfact>
</mgrwt>
</event>
<event>
 5    1  0.3273105E-002  0.1250012E+03  0.7818608E-02  0.1235067E+00
          4   -1    0    0  501    0  0.00000000000E+00  0.00000000000E+00  0.33880010076E+03  0.33880248106E+03  0.12700000000E+01 0.  1.
         -4   -1    0    0    0  501 -0.00000000000E+00 -0.00000000000E+00 -0.11492481784E+02  0.11562440813E+02  0.12700000000E+01 0.  1.
         25    2    1    2    0    0  0.00000000000E+00  0.00000000000E+00  0.32730761897E+03  0.35036492188E+03  0.12500120416E+03 0.  0.
    9000005    1    3    3    0    0  0.47780490404E+02  0.32195128742E+01  0.51118998909E+02  0.70053497956E+02  0.10000000000E+01 0.  0.
    9000005    1    3    3    0    0 -0.47780490404E+02 -0.32195128742E+01  0.27618862006E+03  0.28031142392E+03  0.10000000000E+01 0.  0.
<mgrwt>
<rscale>  0 0.12500120E+03</rscale>
<asrwt>0</asrwt>
<pdfrwt beam="1">  1        4 0.52128657E-01 0.12500120E+03</pdfrwt>
<pdfrwt beam="2">  1       -4 0.17736387E-02 0.12500120E+03</pdfrwt>
<totfact> 0.69682570E+03</totfact>
</mgrwt>
</event>
<event>
 5    1  0.3273105E-002  0.1249990E+03  0.7818608E-02  0.1235071E+00
          4   -1    0    0  501    0  0.00000000000E+00  0.00000000000E+00  0.62188094936E+02  0.62201061501E+02  0.12700000000E+01 0.  1.
         -4   -1    0    0    0  501 -0.00000000000E+00 -0.00000000000E+00 -0.62786535037E+02  0.62799378038E+02  0.12700000000E+01 0.  1.
         25    2    1    2    0    0  0.00000000000E+00  0.00000000000E+00 -0.59844010032E+00  0.12500043954E+03  0.12499900701E+03 0.  0.
    9000005    1    3    3    0    0  0.24414698658E+02  0.44252023188E+02  0.36455369250E+02  0.62324257027E+02  0.10000000000E+01 0.  0.
    9000005    1    3    3    0    0 -0.24414698658E+02 -0.44252023188E+02 -0.37053809351E+02  0.62676182511E+02  0.10000000000E+01 0.  0.
<mgrwt>
<rscale>  0 0.12499901E+03</rscale>
<asrwt>0</asrwt>
<pdfrwt beam="1">  1        4 0.95693846E-02 0.12499901E+03</pdfrwt>
<pdfrwt beam="2">  1       -4 0.96614523E-02 0.12499901E+03</pdfrwt>
<totfact> 0.10453088E+04</totfact>
</mgrwt>
</event>
<event>
 5    1  0.3273105E-002  0.1250024E+03  0.7818608E-02  0.1235065E+00
          4   -1    0    0  501    0  0.00000000000E+00  0.00000000000E+00  0.57562422725E+01  0.58946776926E+01  0.12700000000E+01 0. -1.
         -4   -1    0    0    0  501 -0.00000000000E+00 -0.00000000000E+00 -0.67043497119E+03  0.67043617406E+03  0.12700000000E+01 0. -1.
         25    2    1    2    0    0  0.00000000000E+00  0.00000000000E+00 -0.66467872892E+03  0.67633085176E+03  0.12500243343E+03 0.  0.
    9000005    1    3    3    0    0 -0.39998562255E+02 -0.45226276391E+02 -0.41959867338E+03  0.42392139338E+03  0.10000000000E+01 0.  0.
    9000005    1    3    3    0    0  0.39998562255E+02  0.45226276391E+02 -0.24508005553E+03  0.25240945838E+03  0.10000000000E+01 0.  0.
<mgrwt>
<rscale>  0 0.12500243E+03</rscale>
<asrwt>0</asrwt>
<pdfrwt beam="1">  1        4 0.89631767E-03 0.12500243E+03</pdfrwt>
<pdfrwt beam="2">  1       -4 0.10315452E+00 0.12500243E+03</pdfrwt>
<totfact> 0.44363615E+03</totfact>
</mgrwt>
</event>
<event>
 5    1  0.3273105E-002  0.1249996E+03  0.7818608E-02  0.1235070E+00
         -4   -1    0    0    0  501 -0.00000000000E+00  0.00000000000E+00  0.35686802291E+03  0.35687028270E+03  0.12700000000E+01 0. -1.
          4   -1    0    0  501    0  0.00000000000E+00 -0.00000000000E+00 -0.10906715480E+02  0.10980407213E+02  0.12700000000E+01 0. -1.
         25    2    1    2    0    0  0.00000000000E+00  0.00000000000E+00  0.34596130743E+03  0.36785068991E+03  0.12499961533E+03 0.  0.
    9000005    1    3    3    0    0 -0.34689198388E+02 -0.48546548026E+02  0.11831094032E+03  0.13250881635E+03  0.10000000000E+01 0.  0.
    9000005    1    3    3    0    0  0.34689198388E+02  0.48546548026E+02  0.22765036710E+03  0.23534187356E+03  0.10000000000E+01 0.  0.
<mgrwt>
<rscale>  0 0.12499962E+03</rscale>
<asrwt>0</asrwt>
<pdfrwt beam="2">  1        4 0.16837984E-02 0.12499962E+03</pdfrwt>
<pdfrwt beam="1">  1       -4 0.54908622E-01 0.12499962E+03</pdfrwt>
<totfact> 0.67804966E+03</totfact>
</mgrwt>
</event>
<event>
 5    1  0.3273105E-002  0.1250009E+03  0.7818608E-02  0.1235068E+00
         -4   -1    0    0    0  501 -0.00000000000E+00  0.00000000000E+00  0.12225697888E+03  0.12226357505E+03  0.12700000000E+01 0.  1.
          4   -1    0    0  501    0  0.00000000000E+00 -0.00000000000E+00 -0.31931528318E+02  0.31956773942E+02  0.12700000000E+01 0.  1.
         25    2    1    2    0    0  0.00000000000E+00  0.00000000000E+00  0.90325450561E+02  0.15422034899E+03  0.12500091610E+03 0.  0.
    9000005    1    3    3    0    0 -0.92598797044E+01  0.57741459140E+02  0.72346936930E+02  0.93031719101E+02  0.10000000000E+01 0.  0.
    9000005    1    3    3    0    0  0.92598797044E+01 -0.57741459140E+02  0.17978513631E+02  0.61188629893E+02  0.10000000000E+01 0.  0.
<mgrwt>
<rscale>  0 0.12500092E+03</rscale>
<asrwt>0</asrwt>
<pdfrwt beam="2">  1        4 0.49149923E-02 0.12500092E+03</pdfrwt>
<pdfrwt beam="1">  1       -4 0.18811215E-01 0.12500092E+03</pdfrwt>
<totfact> 0.98466743E+03</totfact>
</mgrwt>
</event>
<event>
 5    1  0.3273105E-002  0.1250009E+03  0.7818608E-02  0.1235068E+00
          4   -1    0    0  501    0  0.00000000000E+00  0.00000000000E+00  0.37189516185E+03  0.37189733033E+03  0.12700000000E+01 0.  1.
         -4   -1    0    0    0  501 -0.00000000000E+00 -0.00000000000E+00 -0.10463189295E+02  0.10539982459E+02  0.12700000000E+01 0.  1.
         25    2    1    2    0    0  0.00000000000E+00  0.00000000000E+00  0.36143197255E+03  0.38243731279E+03  0.12500090971E+03 0.  0.
    9000005    1    3    3    0    0 -0.56876068865E+02 -0.25768333067E+02  0.18846356763E+03  0.19854070243E+03  0.10000000000E+01 0.  0.
    9000005    1    3    3    0    0  0.56876068865E+02  0.25768333067E+02  0.17296840492E+03  0.18389661035E+03  0.10000000000E+01 0.  0.
<mgrwt>
<rscale>  0 0.12500091E+03</rscale>
<asrwt>0</asrwt>
<pdfrwt beam="1">  1        4 0.57220702E-01 0.12500091E+03</pdfrwt>
<pdfrwt beam="2">  1       -4 0.16157957E-02 0.12500091E+03</pdfrwt>
<totfact> 0.66296199E+03</totfact>
</mgrwt>
</event>
<event>
 5    1  0.3273105E-002  0.1249996E+03  0.7818608E-02  0.1235070E+00
         -4   -1    0    0    0  501 -0.00000000000E+00  0.00000000000E+00  0.21597553570E+02  0.21634861225E+02  0.12700000000E+01 0.  1.
          4   -1    0    0  501    0  0.00000000000E+00 -0.00000000000E+00 -0.18066847417E+03  0.18067293782E+03  0.12700000000E+01 0.  1.
         25    2    1    2    0    0  0.00000000000E+00  0.00000000000E+00 -0.15907092060E+03  0.20230779904E+03  0.12499955109E+03 0.  0.
    9000005    1    3    3    0    0 -0.25541889053E+02 -0.53507885298E+02 -0.47583927706E+02  0.76030994084E+02  0.10000000000E+01 0.  0.
    9000005    1    3    3    0    0  0.25541889053E+02  0.53507885298E+02 -0.11148699289E+03  0.12627680496E+03  0.10000000000E+01 0.  0.
<mgrwt>
<rscale>  0 0.12499955E+03</rscale>
<asrwt>0</asrwt>
<pdfrwt beam="2">  1        4 0.27798362E-01 0.12499955E+03</pdfrwt>
<pdfrwt beam="1">  1       -4 0.33259139E-02 0.12499955E+03</pdfrwt>
<totfact> 0.89748634E+03</totfact>
</mgrwt>
</event>
<event>
 5    1  0.3273105E-002  0.1250020E+03  0.7818608E-02  0.1235066E+00
          4   -1    0    0  501    0  0.00000000000E+00  0.00000000000E+00  0.13357784494E+03  0.13358388210E+03  0.12700000000E+01 0. -1.
         -4   -1    0    0    0  501 -0.00000000000E+00 -0.00000000000E+00 -0.29223674410E+02  0.29251257169E+02  0.12700000000E+01 0. -1.
         25    2    1    2    0    0  0.00000000000E+00  0.00000000000E+00  0.10435417053E+03  0.16283513927E+03  0.12500195869E+03 0.  0.
    9000005    1    3    3    0    0  0.56917350032E+02  0.90921641845E+01  0.83633582986E+02  0.10157671184E+03  0.10000000000E+01 0.  0.
    9000005    1    3    3    0    0 -0.56917350032E+02 -0.90921641845E+01  0.20720587542E+02  0.61258427439E+02  0.10000000000E+01 0.  0.
<mgrwt>
<rscale>  0 0.12500196E+03</rscale>
<asrwt>0</asrwt>
<pdfrwt beam="1">  1        4 0.20553024E-01 0.12500196E+03</pdfrwt>
<pdfrwt beam="2">  1       -4 0.44985360E-02 0.12500196E+03</pdfrwt>
<totfact> 0.96794700E+03</totfact>
</mgrwt>
</event>
<event>
 5    1  0.3273105E-002  0.1249934E+03  0.7818608E-02  0.1235080E+00
         -4   -1    0    0    0  501 -0.00000000000E+00  0.00000000000E+00  0.57390445178E+02  0.57404495449E+02  0.12700000000E+01 0.  1.
          4   -1    0    0  501    0  0.00000000000E+00 -0.00000000000E+00 -0.68028978700E+02  0.68040832174E+02  0.12700000000E+01 0.  1.
         25    2    1    2    0    0  0.00000000000E+00  0.00000000000E+00 -0.10638533522E+02  0.12544532762E+03  0.12499340713E+03 0.  0.
    9000005    1    3    3    0    0 -0.53257264055E+02 -0.25297128382E+02  0.15457201250E+02  0.60960691839E+02  0.10000000000E+01 0.  0.
    9000005    1    3    3    0    0  0.53257264055E+02  0.25297128382E+02 -0.26095734772E+02  0.64484635784E+02  0.10000000000E+01 0.  0.
<mgrwt>
<rscale>  0 0.12499341E+03</rscale>
<asrwt>0</asrwt>
<pdfrwt beam="2">  1        4 0.10467989E-01 0.12499341E+03</pdfrwt>
<pdfrwt beam="1">  1       -4 0.88312918E-02 0.12499341E+03</pdfrwt>
<totfact> 0.10444716E+04</totfact>
</mgrwt>
</event>
<event>
 5    1  0.3273105E-002  0.1249967E+03  0.7818608E-02  0.1235074E+00
          4   -1    0    0  501    0  0.00000000000E+00  0.00000000000E+00  0.41091588124E+03  0.41091784381E+03  0.12700000000E+01 0.  1.
         -4   -1    0    0    0  501 -0.00000000000E+00 -0.00000000000E+00 -0.94612922008E+01  0.95461484437E+01  0.12700000000E+01 0.  1.
         25    2    1    2    0    0  0.00000000000E+00  0.00000000000E+00  0.40145458904E+03  0.42046399225E+03  0.12499672682E+03 0.  0.
    9000005    1    3    3    0    0 -0.34908452192E+02  0.51262577501E+02  0.17497861001E+03  0.18564742349E+03  0.10000000000E+01 0.  0.
    9000005    1    3    3    0    0  0.34908452192E+02 -0.51262577501E+02  0.22647597903E+03  0.23481656876E+03  0.10000000000E+01 0.  0.
<mgrwt>
<rscale>  0 0.12499673E+03</rscale>
<asrwt>0</asrwt>
<pdfrwt beam="1">  1        4 0.63224511E-01 0.12499673E+03</pdfrwt>
<pdfrwt beam="2">  1       -4 0.14622617E-02 0.12499673E+03</pdfrwt>
<totfact> 0.62614503E+03</totfact>
</mgrwt>
</event>
<event>
 5    1  0.3273105E-002  0.1250004E+03  0.7818608E-02  0.1235069E+00
         -4   -1    0    0    0  501 -0.00000000000E+00  0.00000000000E+00  0.16890266428E+02  0.16937945567E+02  0.12700000000E+01 0.  1.
          4   -1    0    0  501    0  0.00000000000E+00 -0.00000000000E+00 -0.23089819048E+03  0.23090168312E+03  0.12700000000E+01 0.  1.
         25    2    1    2    0    0  0.00000000000E+00  0.00000000000E+00 -0.21400792405E+03  0.24783962869E+03  0.12500035996E+03 0.  0.
    9000005    1    3    3    0    0 -0.79954093668E+01  0.20678220283E+02  0.88406385254E+01  0.23888747446E+02  0.10000000000E+01 0.  0.
    9000005    1    3    3    0    0  0.79954093668E+01 -0.20678220283E+02 -0.22284856258E+03  0.22395088124E+03  0.10000000000E+01 0.  0.
<mgrwt>
<rscale>  0 0.12500036E+03</rscale>
<asrwt>0</asrwt>
<pdfrwt beam="2">  1        4 0.35526733E-01 0.12500036E+03</pdfrwt>
<pdfrwt beam="1">  1       -4 0.26024390E-02 0.12500036E+03</pdfrwt>
<totfact> 0.82642813E+03</totfact>
</mgrwt>
</event>
<event>
 5    1  0.3273105E-002  0.1250007E+03  0.7818608E-02  0.1235068E+00
         -4   -1    0    0    0  501 -0.00000000000E+00  0.00000000000E+00  0.13704936867E+02  0.13763654839E+02  0.12700000000E+01 0. -1.
          4   -1    0    0  501    0  0.00000000000E+00 -0.00000000000E+00 -0.28435897067E+03  0.28436180669E+03  0.12700000000E+01 0. -1.
         25    2    1    2    0    0  0.00000000000E+00  0.00000000000E+00 -0.27065403381E+03  0.29812546153E+03  0.12500073918E+03 0.  0.
    9000005    1    3    3    0    0 -0.41978899833E+02  0.27872341238E+02 -0.47172666594E+02  0.69031557355E+02  0.10000000000E+01 0.  0.
    9000005    1    3    3    0    0  0.41978899833E+02 -0.27872341238E+02 -0.22348136721E+03  0.22909390417E+03  0.10000000000E+01 0.  0.
<mgrwt>
<rscale>  0 0.12500074E+03</rscale>
<asrwt>0</asrwt>
<pdfrwt beam="2">  1        4 0.43752265E-01 0.12500074E+03</pdfrwt>
<pdfrwt beam="1">  1       -4 0.21131870E-02 0.12500074E+03</pdfrwt>
<totfact> 0.75833338E+03</totfact>
</mgrwt>
</event>
<event>
 5    1  0.3273105E-002  0.1249988E+03  0.7818608E-02  0.1235071E+00
          4   -1    0    0  501    0  0.00000000000E+00  0.00000000000E+00  0.12216878414E+03  0.12217538508E+03  0.12700000000E+01 0.  1.
         -4   -1    0    0    0  501 -0.00000000000E+00 -0.00000000000E+00 -0.31953490789E+02  0.31978719074E+02  0.12700000000E+01 0.  1.
         25    2    1    2    0    0  0.00000000000E+00  0.00000000000E+00  0.90215293355E+02  0.15415410415E+03  0.12499875468E+03 0.  0.
    9000005    1    3    3    0    0  0.54283602317E+01 -0.54618844401E+02  0.81950251927E+02  0.98638375136E+02  0.10000000000E+01 0.  0.
    9000005    1    3    3    0    0 -0.54283602317E+01  0.54618844401E+02  0.82650414277E+01  0.55515729018E+02  0.10000000000E+01 0.  0.
<mgrwt>
<rscale>  0 0.12499875E+03</rscale>
<asrwt>0</asrwt>
<pdfrwt beam="1">  1        4 0.18797646E-01 0.12499875E+03</pdfrwt>
<pdfrwt beam="2">  1       -4 0.49183700E-02 0.12499875E+03</pdfrwt>
<totfact> 0.98484573E+03</totfact>
</mgrwt>
</event>
<event>
 5    1  0.3273105E-002  0.1249989E+03  0.7818608E-02  0.1235071E+00
         -4   -1    0    0    0  501 -0.00000000000E+00  0.00000000000E+00  0.12524397069E+04  0.12524403508E+04  0.12700000000E+01 0.  1.
          4   -1    0    0  501    0  0.00000000000E+00 -0.00000000000E+00 -0.29888995285E+01  0.32475252718E+01  0.12700000000E+01 0.  1.
         25    2    1    2    0    0  0.00000000000E+00  0.00000000000E+00  0.12494508074E+04  0.12556878761E+04  0.12499888832E+03 0.  0.
    9000005    1    3    3    0    0 -0.29526603498E+02  0.99870004690E+01  0.80626962859E+02  0.86448063208E+02  0.10000000000E+01 0.  0.
    9000005    1    3    3    0    0  0.29526603498E+02 -0.99870004690E+01  0.11688238445E+04  0.11692398129E+04  0.10000000000E+01 0.  0.
<mgrwt>
<rscale>  0 0.12499889E+03</rscale>
<asrwt>0</asrwt>
<pdfrwt beam="2">  1        4 0.47977591E-03 0.12499889E+03</pdfrwt>
<pdfrwt beam="1">  1       -4 0.19270242E+00 0.12499889E+03</pdfrwt>
<totfact> 0.23299760E+03</totfact>
</mgrwt>
</event>
<event>
 5    1  0.3273105E-002  0.1249946E+03  0.7818608E-02  0.1235078E+00
         -4   -1    0    0    0  501 -0.00000000000E+00  0.00000000000E+00  0.65562680617E+02  0.65574979906E+02  0.12700000000E+01 0.  1.
          4   -1    0    0  501    0  0.00000000000E+00 -0.00000000000E+00 -0.59550584179E+02  0.59564124908E+02  0.12700000000E+01 0.  1.
         25    2    1    2    0    0  0.00000000000E+00  0.00000000000E+00  0.60120964379E+01  0.12513910481E+03  0.12499460088E+03 0.  0.
    9000005    1    3    3    0    0 -0.35594142628E+00  0.24887577804E+02 -0.54378575999E+02  0.59812605285E+02  0.10000000000E+01 0.  0.
    9000005    1    3    3    0    0  0.35594142628E+00 -0.24887577804E+02  0.60390672437E+02  0.65326499529E+02  0.10000000000E+01 0.  0.
<mgrwt>
<rscale>  0 0.12499460E+03</rscale>
<asrwt>0</asrwt>
<pdfrwt beam="2">  1        4 0.91636160E-02 0.12499460E+03</pdfrwt>
<pdfrwt beam="1">  1       -4 0.10088554E-01 0.12499460E+03</pdfrwt>
<totfact> 0.10451117E+04</totfact>
</mgrwt>
</event>
<event>
 5    1  0.3273105E-002  0.1249987E+03  0.7818608E-02  0.1235071E+00
          4   -1    0    0  501    0  0.00000000000E+00  0.00000000000E+00  0.34866855809E+02  0.34889977558E+02  0.12700000000E+01 0.  1.
         -4   -1    0    0    0  501 -0.00000000000E+00 -0.00000000000E+00 -0.11196714954E+03  0.11197435187E+03  0.12700000000E+01 0.  1.
         25    2    1    2    0    0  0.00000000000E+00  0.00000000000E+00 -0.77100293734E+02  0.14686432943E+03  0.12499870385E+03 0.  0.
    9000005    1    3    3    0    0  0.31664745167E+02 -0.59661513677E+01 -0.10145996770E+03  0.10645833032E+03  0.10000000000E+01 0.  0.
    9000005    1    3    3    0    0 -0.31664745167E+02  0.59661513677E+01  0.24359673964E+02  0.40405999112E+02  0.10000000000E+01 0.  0.
<mgrwt>
<rscale>  0 0.12499870E+03</rscale>
<asrwt>0</asrwt>
<pdfrwt beam="1">  1        4 0.53664643E-02 0.12499870E+03</pdfrwt>
<pdfrwt beam="2">  1       -4 0.17228048E-01 0.12499870E+03</pdfrwt>
<totfact> 0.99935376E+03</totfact>
</mgrwt>
</event>
<event>
 5    1  0.3273105E-002  0.1250002E+03  0.7818608E-02  0.1235069E+00
          4   -1    0    0  501    0  0.00000000000E+00  0.00000000000E+00  0.16287791716E+03  0.16288286834E+03  0.12700000000E+01 0. -1.
         -4   -1    0    0    0  501 -0.00000000000E+00 -0.00000000000E+00 -0.23960611710E+02  0.23994245425E+02  0.12700000000E+01 0. -1.
         25    2    1    2    0    0  0.00000000000E+00  0.00000000000E+00  0.13891730545E+03  0.18687711377E+03  0.12500015158E+03 0.  0.
    9000005    1    3    3    0    0 -0.23728028758E+02 -0.27635333896E+01  0.15578982679E+03  0.15761385281E+03  0.10000000000E+01 0.  0.
    9000005    1    3    3    0    0  0.23728028758E+02  0.27635333896E+01 -0.16872521339E+02  0.29263260958E+02  0.10000000000E+01 0.  0.
<mgrwt>
<rscale>  0 0.12500015E+03</rscale>
<asrwt>0</asrwt>
<pdfrwt beam="1">  1        4 0.25061108E-01 0.12500015E+03</pdfrwt>
<pdfrwt beam="2">  1       -4 0.36892162E-02 0.12500015E+03</pdfrwt>
<totfact> 0.92393230E+03</totfact>
</mgrwt>
</event>
<event>
 5    1  0.3273105E-002  0.1250236E+03  0.7818608E-02  0.1235032E+00
          4   -1    0    0  501    0  0.00000000000E+00  0.00000000000E+00  0.98779335670E+02  0.98787499489E+02  0.12700000000E+01 0. -1.
         -4   -1    0    0    0  501 -0.00000000000E+00 -0.00000000000E+00 -0.39540160748E+02  0.39560551209E+02  0.12700000000E+01 0. -1.
         25    2    1    2    0    0  0.00000000000E+00  0.00000000000E+00  0.59239174922E+02  0.13834805070E+03  0.12502361092E+03 0.  0.
    9000005    1    3    3    0    0 -0.52403053857E+00 -0.47560959036E+02  0.74492636928E+02  0.88388191456E+02  0.10000000000E+01 0.  0.
    9000005    1    3    3    0    0  0.52403053857E+00  0.47560959036E+02 -0.15253462005E+02  0.49959859243E+02  0.10000000000E+01 0.  0.
<mgrwt>
<rscale>  0 0.12502361E+03</rscale>
<asrwt>0</asrwt>
<pdfrwt beam="1">  1        4 0.15199017E-01 0.12502361E+03</pdfrwt>
<pdfrwt beam="2">  1       -4 0.60852982E-02 0.12502361E+03</pdfrwt>
<totfact> 0.10162531E+04</totfact>
</mgrwt>
</event>
<event>
 5    1  0.3273105E-002  0.1249997E+03  0.7818608E-02  0.1235070E+00
          4   -1    0    0  501    0  0.00000000000E+00  0.00000000000E+00  0.22488900201E+02  0.22524731569E+02  0.12700000000E+01 0. -1.
         -4   -1    0    0    0  501 -0.00000000000E+00 -0.00000000000E+00 -0.17351943489E+03  0.17352408243E+03  0.12700000000E+01 0. -1.
         25    2    1    2    0    0  0.00000000000E+00  0.00000000000E+00 -0.15103053469E+03  0.19604881400E+03  0.12499966025E+03 0.  0.
    9000005    1    3    3    0    0  0.43597437849E+02 -0.29941750071E+02 -0.23309066669E+02  0.57806207048E+02  0.10000000000E+01 0.  0.
    9000005    1    3    3    0    0 -0.43597437849E+02  0.29941750071E+02 -0.12772146802E+03  0.13824260695E+03  0.10000000000E+01 0.  0.
<mgrwt>
<rscale>  0 0.12499966E+03</rscale>
<asrwt>0</asrwt>
<pdfrwt beam="1">  1        4 0.34629447E-02 0.12499966E+03</pdfrwt>
<pdfrwt beam="2">  1       -4 0.26698411E-01 0.12499966E+03</pdfrwt>
<totfact> 0.90806053E+03</totfact>
</mgrwt>
</event>
<event>
 5    1  0.3273105E-002  0.1250305E+03  0.7818608E-02  0.1235022E+00
         -4   -1    0    0    0  501 -0.00000000000E+00  0.00000000000E+00  0.59355757276E+02  0.59369342440E+02  0.12700000000E+01 0. -1.
          4   -1    0    0  501    0  0.00000000000E+00 -0.00000000000E+00 -0.65815712830E+02  0.65827964843E+02  0.12700000000E+01 0. -1.
         25    2    1    2    0    0  0.00000000000E+00  0.00000000000E+00 -0.64599555545E+01  0.12519730728E+03  0.12503053517E+03 0.  0.
    9000005    1    3    3    0    0  0.48482298619E+02  0.22389528133E+02  0.29299264873E+02  0.60920203312E+02  0.10000000000E+01 0.  0.
    9000005    1    3    3    0    0 -0.48482298619E+02 -0.22389528133E+02 -0.35759220427E+02  0.64277103972E+02  0.10000000000E+01 0.  0.
<mgrwt>
<rscale>  0 0.12503054E+03</rscale>
<asrwt>0</asrwt>
<pdfrwt beam="2">  1        4 0.10127482E-01 0.12503054E+03</pdfrwt>
<pdfrwt beam="1">  1       -4 0.91336424E-02 0.12503054E+03</pdfrwt>
<totfact> 0.10441371E+04</totfact>
</mgrwt>
</event>
<event>
 5    1  0.3273105E-002  0.1249992E+03  0.7818608E-02  0.1235071E+00
         -4   -1    0    0    0  501 -0.00000000000E+00  0.00000000000E+00  0.12963873439E+04  0.12963879660E+04  0.12700000000E+01 0. -1.
          4   -1    0    0  501    0  0.00000000000E+00 -0.00000000000E+00 -0.28786710202E+01  0.31463704236E+01  0.12700000000E+01 0. -1.
         25    2    1    2    0    0  0.00000000000E+00  0.00000000000E+00  0.12935086729E+04  0.12995343364E+04  0.12499921865E+03 0.  0.
    9000005    1    3    3    0    0  0.23680489772E+02  0.34634534239E+02  0.16526970769E+03  0.17051508096E+03  0.10000000000E+01 0.  0.
    9000005    1    3    3    0    0 -0.23680489772E+02 -0.34634534239E+02  0.11282389652E+04  0.11290192555E+04  0.10000000000E+01 0.  0.
<mgrwt>
<rscale>  0 0.12499922E+03</rscale>
<asrwt>0</asrwt>
<pdfrwt beam="2">  1        4 0.46351196E-03 0.12499922E+03</pdfrwt>
<pdfrwt beam="1">  1       -4 0.19946511E+00 0.12499922E+03</pdfrwt>
<totfact> 0.22239845E+03</totfact>
</mgrwt>
</event>
<event>
 5    1  0.3273105E-002  0.1250008E+03  0.7818608E-02  0.1235068E+00
         -4   -1    0    0    0  501 -0.00000000000E+00  0.00000000000E+00  0.15843114136E+02  0.15893934866E+02  0.12700000000E+01 0. -1.
          4   -1    0    0  501    0  0.00000000000E+00 -0.00000000000E+00 -0.24611403293E+03  0.24611730964E+03  0.12700000000E+01 0. -1.
         25    2    1    2    0    0  0.00000000000E+00  0.00000000000E+00 -0.23027091880E+03  0.26201124451E+03  0.12500078482E+03 0.  0.
    9000005    1    3    3    0    0 -0.36744925229E+02 -0.18422964324E+01 -0.92531724370E+01  0.37950030124E+02  0.10000000000E+01 0.  0.
    9000005    1    3    3    0    0  0.36744925229E+02  0.18422964324E+01 -0.22101774636E+03  0.22406121439E+03  0.10000000000E+01 0.  0.
<mgrwt>
<rscale>  0 0.12500078E+03</rscale>
<asrwt>0</asrwt>
<pdfrwt beam="2">  1        4 0.37867856E-01 0.12500078E+03</pdfrwt>
<pdfrwt beam="1">  1       -4 0.24415637E-02 0.12500078E+03</pdfrwt>
<totfact> 0.80623230E+03</totfact>
</mgrwt>
</event>
<event>
 5    1  0.3273105E-002  0.1249993E+03  0.7818608E-02  0.1235070E+00
          4   -1    0    0  501    0  0.00000000000E+00  0.00000000000E+00  0.13755335965E+03  0.13755922234E+03  0.12700000000E+01 0.  1.
         -4   -1    0    0    0  501 -0.00000000000E+00 -0.00000000000E+00 -0.28377097985E+02  0.28405502813E+02  0.12700000000E+01 0.  1.
         25    2    1    2    0    0  0.00000000000E+00  0.00000000000E+00  0.10917626167E+03  0.16596472516E+03  0.12499933554E+03 0.  0.
    9000005    1    3    3    0    0 -0.36236400224E+02  0.46667622329E+02  0.27564288334E+02  0.65205319310E+02  0.10000000000E+01 0.  0.
    9000005    1    3    3    0    0  0.36236400224E+02 -0.46667622329E+02  0.81611973335E+02  0.10075940585E+03  0.10000000000E+01 0.  0.
<mgrwt>
<rscale>  0 0.12499934E+03</rscale>
<asrwt>0</asrwt>
<pdfrwt beam="1">  1        4 0.21164691E-01 0.12499934E+03</pdfrwt>
<pdfrwt beam="2">  1       -4 0.43683433E-02 0.12499934E+03</pdfrwt>
<totfact> 0.96206436E+03</totfact>
</mgrwt>
</event>
<event>
 5    1  0.3273105E-002  0.1249939E+03  0.7818608E-02  0.1235079E+00
         -4   -1    0    0    0  501 -0.00000000000E+00  0.00000000000E+00  0.68938782501E+03  0.68938899481E+03  0.12700000000E+01 0. -1.
          4   -1    0    0  501    0  0.00000000000E+00 -0.00000000000E+00 -0.55933482363E+01  0.57357165631E+01  0.12700000000E+01 0. -1.
         25    2    1    2    0    0  0.00000000000E+00  0.00000000000E+00  0.68379447677E+03  0.69512471138E+03  0.12499391146E+03 0.  0.
    9000005    1    3    3    0    0  0.24964264215E+02  0.15847334348E+02  0.35748672059E+02  0.46403879662E+02  0.10000000000E+01 0.  0.
    9000005    1    3    3    0    0 -0.24964264215E+02 -0.15847334348E+02  0.64804580471E+03  0.64872083171E+03  0.10000000000E+01 0.  0.
<mgrwt>
<rscale>  0 0.12499391E+03</rscale>
<asrwt>0</asrwt>
<pdfrwt beam="2">  1        4 0.87155657E-03 0.12499391E+03</pdfrwt>
<pdfrwt beam="1">  1       -4 0.10607070E+00 0.12499391E+03</pdfrwt>
<totfact> 0.43351077E+03</totfact>
</mgrwt>
</event>
<event>
 5    1  0.3273105E-002  0.1250005E+03  0.7818608E-02  0.1235068E+00
          4   -1    0    0  501    0  0.00000000000E+00  0.00000000000E+00  0.12495519630E+03  0.12496165004E+03  0.12700000000E+01 0. -1.
         -4   -1    0    0    0  501 -0.00000000000E+00 -0.00000000000E+00 -0.31241299716E+02  0.31267102647E+02  0.12700000000E+01 0. -1.
         25    2    1    2    0    0  0.00000000000E+00  0.00000000000E+00  0.93713896582E+02  0.15622875269E+03  0.12500051502E+03 0.  0.
    9000005    1    3    3    0    0  0.22487269520E+02 -0.29253153595E+02 -0.16180059095E+02  0.40301595477E+02  0.10000000000E+01 0.  0.
    9000005    1    3    3    0    0 -0.22487269520E+02  0.29253153595E+02  0.10989395568E+03  0.11592715722E+03  0.10000000000E+01 0.  0.
<mgrwt>
<rscale>  0 0.12500052E+03</rscale>
<asrwt>0</asrwt>
<pdfrwt beam="1">  1        4 0.19226358E-01 0.12500052E+03</pdfrwt>
<pdfrwt beam="2">  1       -4 0.48088351E-02 0.12500052E+03</pdfrwt>
<totfact> 0.98073682E+03</totfact>
</mgrwt>
</event>
<event>
 5    1  0.3273105E-002  0.1249716E+03  0.7818608E-02  0.1235114E+00
          4   -1    0    0  501    0  0.00000000000E+00  0.00000000000E+00  0.13710096721E+02  0.13768792688E+02  0.12700000000E+01 0.  1.
         -4   -1    0    0    0  501 -0.00000000000E+00 -0.00000000000E+00 -0.28411976243E+03  0.28412260083E+03  0.12700000000E+01 0.  1.
         25    2    1    2    0    0  0.00000000000E+00  0.00000000000E+00 -0.27040966571E+03  0.29789139352E+03  0.12497157686E+03 0.  0.
    9000005    1    3    3    0    0 -0.22121939245E+02  0.52475464793E+01  0.35109539036E+01  0.23027021894E+02  0.10000000000E+01 0.  0.
    9000005    1    3    3    0    0  0.22121939245E+02 -0.52475464793E+01 -0.27392061961E+03  0.27486437162E+03  0.10000000000E+01 0.  0.
<mgrwt>
<rscale>  0 0.12497158E+03</rscale>
<asrwt>0</asrwt>
<pdfrwt beam="1">  1        4 0.21139793E-02 0.12497158E+03</pdfrwt>
<pdfrwt beam="2">  1       -4 0.43715462E-01 0.12497158E+03</pdfrwt>
<totfact> 0.75911998E+03</totfact>
</mgrwt>
</event>
<event>
 5    1  0.3273105E-002  0.1249994E+03  0.7818608E-02  0.1235070E+00
         -4   -1    0    0    0  501 -0.00000000000E+00  0.00000000000E+00  0.27800695854E+02  0.27829689003E+02  0.12700000000E+01 0.  1.
          4   -1    0    0  501    0  0.00000000000E+00 -0.00000000000E+00 -0.14040260498E+03  0.14040834870E+03  0.12700000000E+01 0.  1.
         25    2    1    2    0    0  0.00000000000E+00  0.00000000000E+00 -0.11260190912E+03  0.16823803770E+03  0.12499938956E+03 0.  0.
    9000005    1    3    3    0    0 -0.39555770147E+02  0.69077245933E+01 -0.12074797158E+03  0.12725348031E+03  0.10000000000E+01 0.  0.
    9000005    1    3    3    0    0  0.39555770147E+02 -0.69077245933E+01  0.81460624552E+01  0.40984557391E+02  0.10000000000E+01 0.  0.
<mgrwt>
<rscale>  0 0.12499939E+03</rscale>
<asrwt>0</asrwt>
<pdfrwt beam="2">  1        4 0.21603073E-01 0.12499939E+03</pdfrwt>
<pdfrwt beam="1">  1       -4 0.42797023E-02 0.12499939E+03</pdfrwt>
<totfact> 0.95778963E+03</totfact>
</mgrwt>
</event>
<event>
 5    1  0.3273105E-002  0.1250010E+03  0.7818608E-02  0.1235068E+00
         -4   -1    0    0    0  501 -0.00000000000E+00  0.00000000000E+00  0.82866923276E+02  0.82876654573E+02  0.12700000000E+01 0. -1.
          4   -1    0    0  501    0  0.00000000000E+00 -0.00000000000E+00 -0.47118552912E+02  0.47135665143E+02  0.12700000000E+01 0. -1.
         25    2    1    2    0    0  0.00000000000E+00  0.00000000000E+00  0.35748370364E+02  0.13001231972E+03  0.12500102917E+03 0.  0.
    9000005    1    3    3    0    0 -0.33104947103E+02 -0.44362679219E+02 -0.12294332741E+02  0.56710981721E+02  0.10000000000E+01 0.  0.
    9000005    1    3    3    0    0  0.33104947103E+02  0.44362679219E+02  0.48042703105E+02  0.73301337995E+02  0.10000000000E+01 0.  0.
<mgrwt>
<rscale>  0 0.12500103E+03</rscale>
<asrwt>0</asrwt>
<pdfrwt beam="2">  1        4 0.72510731E-02 0.12500103E+03</pdfrwt>
<pdfrwt beam="1">  1       -4 0.12750822E-01 0.12500103E+03</pdfrwt>
<totfact> 0.10344004E+04</totfact>
</mgrwt>
</event>
<event>
 5    1  0.3273105E-002  0.1249451E+03  0.7818608E-02  0.1235155E+00
         -4   -1    0    0    0  501 -0.00000000000E+00  0.00000000000E+00  0.42893108771E+02  0.42911906040E+02  0.12700000000E+01 0.  1.
          4   -1    0    0  501    0  0.00000000000E+00 -0.00000000000E+00 -0.90946231683E+02  0.90955098578E+02  0.12700000000E+01 0.  1.
         25    2    1    2    0    0  0.00000000000E+00  0.00000000000E+00 -0.48053122912E+02  0.13386700462E+03  0.12494507715E+03 0.  0.
    9000005    1    3    3    0    0 -0.12006168325E+02  0.75129284363E+01 -0.89208488044E+02  0.90331315227E+02  0.10000000000E+01 0.  0.
    9000005    1    3    3    0    0  0.12006168325E+02 -0.75129284363E+01  0.41155365133E+02  0.43535689391E+02  0.10000000000E+01 0.  0.
<mgrwt>
<rscale>  0 0.12494508E+03</rscale>
<asrwt>0</asrwt>
<pdfrwt beam="2">  1        4 0.13993856E-01 0.12494508E+03</pdfrwt>
<pdfrwt beam="1">  1       -4 0.66010678E-02 0.12494508E+03</pdfrwt>
<totfact> 0.10274730E+04</totfact>
</mgrwt>
</event>
<event>
 5    1  0.3273105E-002  0.1250007E+03  0.7818608E-02  0.1235068E+00
          4   -1    0    0  501    0  0.00000000000E+00  0.00000000000E+00  0.27675941632E+02  0.27705065335E+02  0.12700000000E+01 0. -1.
         -4   -1    0    0    0  501 -0.00000000000E+00 -0.00000000000E+00 -0.14103773628E+03  0.14104345413E+03  0.12700000000E+01 0. -1.
         25    2    1    2    0    0  0.00000000000E+00  0.00000000000E+00 -0.11336179464E+03  0.16874851947E+03  0.12500066535E+03 0.  0.
    9000005    1    3    3    0    0 -0.42691388521E+01  0.47366054116E+02 -0.19521467313E+01  0.47608607478E+02  0.10000000000E+01 0.  0.
    9000005    1    3    3    0    0  0.42691388521E+01 -0.47366054116E+02 -0.11140964791E+03  0.12113991199E+03  0.10000000000E+01 0.  0.
<mgrwt>
<rscale>  0 0.12500067E+03</rscale>
<asrwt>0</asrwt>
<pdfrwt beam="1">  1        4 0.42605174E-02 0.12500067E+03</pdfrwt>
<pdfrwt beam="2">  1       -4 0.21700793E-01 0.12500067E+03</pdfrwt>
<totfact> 0.95680725E+03</totfact>
</mgrwt>
</event>
<event>
 5    1  0.3273105E-002  0.1250037E+03  0.7818608E-02  0.1235063E+00
          4   -1    0    0  501    0  0.00000000000E+00  0.00000000000E+00  0.17104283703E+03  0.17104755186E+03  0.12700000000E+01 0.  1.
         -4   -1    0    0    0  501 -0.00000000000E+00 -0.00000000000E+00 -0.22816521357E+02  0.22851839025E+02  0.12700000000E+01 0.  1.
         25    2    1    2    0    0  0.00000000000E+00  0.00000000000E+00  0.14822631567E+03  0.19389939089E+03  0.12500373246E+03 0.  0.
    9000005    1    3    3    0    0 -0.41932825714E+02 -0.46314130355E+02  0.71853192330E+02  0.95222065672E+02  0.10000000000E+01 0.  0.
    9000005    1    3    3    0    0  0.41932825714E+02  0.46314130355E+02  0.76373123339E+02  0.98677325214E+02  0.10000000000E+01 0.  0.
<mgrwt>
<rscale>  0 0.12500373E+03</rscale>
<asrwt>0</asrwt>
<pdfrwt beam="1">  1        4 0.26317363E-01 0.12500373E+03</pdfrwt>
<pdfrwt beam="2">  1       -4 0.35133133E-02 0.12500373E+03</pdfrwt>
<totfact> 0.91165604E+03</totfact>
</mgrwt>
</event>
<event>
 5    1  0.3273105E-002  0.1250010E+03  0.7818608E-02  0.1235068E+00
          4   -1    0    0  501    0  0.00000000000E+00  0.00000000000E+00  0.57908894959E+01  0.59285159318E+01  0.12700000000E+01 0.  1.
         -4   -1    0    0    0  501 -0.00000000000E+00 -0.00000000000E+00 -0.66650187525E+03  0.66650308523E+03  0.12700000000E+01 0.  1.
         25    2    1    2    0    0  0.00000000000E+00  0.00000000000E+00 -0.66071098576E+03  0.67243160116E+03  0.12500100614E+03 0.  0.
    9000005    1    3    3    0    0  0.34609517526E+02 -0.18977792822E+02 -0.69726707297E+02  0.80129826121E+02  0.10000000000E+01 0.  0.
    9000005    1    3    3    0    0 -0.34609517526E+02  0.18977792822E+02 -0.59098427846E+03  0.59230177504E+03  0.10000000000E+01 0.  0.
<mgrwt>
<rscale>  0 0.12500101E+03</rscale>
<asrwt>0</asrwt>
<pdfrwt beam="1">  1        4 0.90158633E-03 0.12500101E+03</pdfrwt>
<pdfrwt beam="2">  1       -4 0.10254937E+00 0.12500101E+03</pdfrwt>
<totfact> 0.44581526E+03</totfact>
</mgrwt>
</event>
<event>
 5    1  0.3273105E-002  0.1250003E+03  0.7818608E-02  0.1235069E+00
         -4   -1    0    0    0  501 -0.00000000000E+00  0.00000000000E+00  0.16768893019E+03  0.16769373933E+03  0.12700000000E+01 0.  1.
          4   -1    0    0  501    0  0.00000000000E+00 -0.00000000000E+00 -0.23272260445E+02  0.23306887527E+02  0.12700000000E+01 0.  1.
         25    2    1    2    0    0  0.00000000000E+00  0.00000000000E+00  0.14441666975E+03  0.19100062685E+03  0.12500025983E+03 0.  0.
    9000005    1    3    3    0    0  0.56577326940E+02 -0.25351874108E+02  0.60220111649E+02  0.86435949069E+02  0.10000000000E+01 0.  0.
    9000005    1    3    3    0    0 -0.56577326940E+02  0.25351874108E+02  0.84196558099E+02  0.10456467778E+03  0.10000000000E+01 0.  0.
<mgrwt>
<rscale>  0 0.12500026E+03</rscale>
<asrwt>0</asrwt>
<pdfrwt beam="2">  1        4 0.35833813E-02 0.12500026E+03</pdfrwt>
<pdfrwt beam="1">  1       -4 0.25801331E-01 0.12500026E+03</pdfrwt>
<totfact> 0.91672966E+03</totfact>
</mgrwt>
</event>
<event>
 5    1  0.3273105E-002  0.1250118E+03  0.7818608E-02  0.1235051E+00
         -4   -1    0    0    0  501 -0.00000000000E+00  0.00000000000E+00  0.15106741890E+03  0.15107275715E+03  0.12700000000E+01 0.  1.
          4   -1    0    0  501    0  0.00000000000E+00 -0.00000000000E+00 -0.25841145955E+02  0.25872335115E+02  0.12700000000E+01 0.  1.
         25    2    1    2    0    0  0.00000000000E+00  0.00000000000E+00  0.12522627295E+03  0.17694509227E+03  0.12501178441E+03 0.  0.
    9000005    1    3    3    0    0 -0.61313247104E+02  0.16021364550E+01  0.79604481876E+02  0.10049753552E+03  0.10000000000E+01 0.  0.
    9000005    1    3    3    0    0  0.61313247104E+02 -0.16021364550E+01  0.45621791072E+02  0.76447556745E+02  0.10000000000E+01 0.  0.
<mgrwt>
<rscale>  0 0.12501178E+03</rscale>
<asrwt>0</asrwt>
<pdfrwt beam="2">  1        4 0.39783707E-02 0.12501178E+03</pdfrwt>
<pdfrwt beam="1">  1       -4 0.23243951E-01 0.12501178E+03</pdfrwt>
<totfact> 0.94144918E+03</totfact>
</mgrwt>
</event>
<event>
 5    1  0.3273105E-002  0.1250036E+03  0.7818608E-02  0.1235064E+00
         -4   -1    0    0    0  501 -0.00000000000E+00  0.00000000000E+00  0.40271634315E+02  0.40291654600E+02  0.12700000000E+01 0. -1.
          4   -1    0    0  501    0  0.00000000000E+00 -0.00000000000E+00 -0.96954809756E+02  0.96963127192E+02  0.12700000000E+01 0. -1.
         25    2    1    2    0    0  0.00000000000E+00  0.00000000000E+00 -0.56683175441E+02  0.13725478179E+03  0.12500357093E+03 0.  0.
    9000005    1    3    3    0    0  0.18850239790E+02 -0.38884175039E+02  0.21229046548E+02  0.48155820271E+02  0.10000000000E+01 0.  0.
    9000005    1    3    3    0    0 -0.18850239790E+02  0.38884175039E+02 -0.77912221989E+02  0.89098961520E+02  0.10000000000E+01 0.  0.
<mgrwt>
<rscale>  0 0.12500357E+03</rscale>
<asrwt>0</asrwt>
<pdfrwt beam="2">  1        4 0.14918304E-01 0.12500357E+03</pdfrwt>
<pdfrwt beam="1">  1       -4 0.61978159E-02 0.12500357E+03</pdfrwt>
<totfact> 0.10189941E+04</totfact>
</mgrwt>
</event>
<event>
 5    1  0.3273105E-002  0.1250005E+03  0.7818608E-02  0.1235068E+00
         -4   -1    0    0    0  501 -0.00000000000E+00  0.00000000000E+00  0.16731934317E+03  0.16732416293E+03  0.12700000000E+01 0. -1.
          4   -1    0    0  501    0  0.00000000000E+00 -0.00000000000E+00 -0.23323845163E+02  0.23358395775E+02  0.12700000000E+01 0. -1.
         25    2    1    2    0    0  0.00000000000E+00  0.00000000000E+00  0.14399549801E+03  0.19068255871E+03  0.12500053899E+03 0.  0.
    9000005    1    3    3    0    0 -0.45317552910E+02 -0.32100624536E+01  0.65399806442E+01  0.45910308750E+02  0.10000000000E+01 0.  0.
    9000005    1    3    3    0    0  0.45317552910E+02  0.32100624536E+01  0.13745551737E+03  0.14477224996E+03  0.10000000000E+01 0.  0.
<mgrwt>
<rscale>  0 0.12500054E+03</rscale>
<asrwt>0</asrwt>
<pdfrwt beam="2">  1        4 0.35913122E-02 0.12500054E+03</pdfrwt>
<pdfrwt beam="1">  1       -4 0.25744467E-01 0.12500054E+03</pdfrwt>
<totfact> 0.91727578E+03</totfact>
</mgrwt>
</event>
<event>
 5    1  0.3273105E-002  0.1249915E+03  0.7818608E-02  0.1235083E+00
         -4   -1    0    0    0  501 -0.00000000000E+00  0.00000000000E+00  0.24504494661E+03  0.24504823762E+03  0.12700000000E+01 0.  1.
          4   -1    0    0  501    0  0.00000000000E+00 -0.00000000000E+00 -0.15910071226E+02  0.15960678758E+02  0.12700000000E+01 0.  1.
         25    2    1    2    0    0  0.00000000000E+00  0.00000000000E+00  0.22913487539E+03  0.26100891638E+03  0.12499145295E+03 0.  0.
    9000005    1    3    3    0    0 -0.13682391883E+02  0.11271256621E+02  0.23969427917E+03  0.24035098614E+03  0.10000000000E+01 0.  0.
    9000005    1    3    3    0    0  0.13682391883E+02 -0.11271256621E+02 -0.10559403781E+02  0.20657930237E+02  0.10000000000E+01 0.  0.
<mgrwt>
<rscale>  0 0.12499145E+03</rscale>
<asrwt>0</asrwt>
<pdfrwt beam="2">  1        4 0.24518494E-02 0.12499145E+03</pdfrwt>
<pdfrwt beam="1">  1       -4 0.37703368E-01 0.12499145E+03</pdfrwt>
<totfact> 0.80780048E+03</totfact>
</mgrwt>
</event>
<event>
 5    1  0.3273105E-002  0.1250017E+03  0.7818608E-02  0.1235067E+00
         -4   -1    0    0    0  501 -0.00000000000E+00  0.00000000000E+00  0.64705972198E+02  0.64718434298E+02  0.12700000000E+01 0.  1.
          4   -1    0    0  501    0  0.00000000000E+00 -0.00000000000E+00 -0.60345910375E+02  0.60359272685E+02  0.12700000000E+01 0.  1.
         25    2    1    2    0    0  0.00000000000E+00  0.00000000000E+00  0.43600618224E+01  0.12507770698E+03  0.12500169057E+03 0.  0.
    9000005    1    3    3    0    0 -0.45847108963E+02  0.41463678244E+02 -0.69995137303E+01  0.62218865357E+02  0.10000000000E+01 0.  0.
    9000005    1    3    3    0    0  0.45847108963E+02 -0.41463678244E+02  0.11359575553E+02  0.62858841626E+02  0.10000000000E+01 0.  0.
<mgrwt>
<rscale>  0 0.12500169E+03</rscale>
<asrwt>0</asrwt>
<pdfrwt beam="2">  1        4 0.92859728E-02 0.12500169E+03</pdfrwt>
<pdfrwt beam="1">  1       -4 0.99567514E-02 0.12500169E+03</pdfrwt>
<totfact> 0.10450776E+04</totfact>
</mgrwt>
</event>
<event>
 5    1  0.3273105E-002  0.1249910E+03  0.7818608E-02  0.1235083E+00
         -4   -1    0    0    0  501 -0.00000000000E+00  0.00000000000E+00  0.25456734004E+02  0.25488393558E+02  0.12700000000E+01 0. -1.
          4   -1    0    0  501    0  0.00000000000E+00 -0.00000000000E+00 -0.15329482914E+03  0.15330008982E+03  0.12700000000E+01 0. -1.
         25    2    1    2    0    0  0.00000000000E+00  0.00000000000E+00 -0.12783809513E+03  0.17878848338E+03  0.12499097257E+03 0.  0.
    9000005    1    3    3    0    0  0.60572056659E+02  0.90622715748E+01 -0.46191930605E+02  0.76718923787E+02  0.10000000000E+01 0.  0.
    9000005    1    3    3    0    0 -0.60572056659E+02 -0.90622715748E+01 -0.81646164528E+02  0.10206955960E+03  0.10000000000E+01 0.  0.
<mgrwt>
<rscale>  0 0.12499097E+03</rscale>
<asrwt>0</asrwt>
<pdfrwt beam="2">  1        4 0.23586659E-01 0.12499097E+03</pdfrwt>
<pdfrwt beam="1">  1       -4 0.39192607E-02 0.12499097E+03</pdfrwt>
<totfact> 0.93854534E+03</totfact>
</mgrwt>
</event>
<event>
 5    1  0.3273105E-002  0.1249844E+03  0.7818608E-02  0.1235094E+00
          4   -1    0    0  501    0  0.00000000000E+00  0.00000000000E+00  0.26099056738E+02  0.26129938053E+02  0.12700000000E+01 0. -1.
         -4   -1    0    0    0  501 -0.00000000000E+00 -0.00000000000E+00 -0.14951083160E+03  0.14951622542E+03  0.12700000000E+01 0. -1.
         25    2    1    2    0    0  0.00000000000E+00  0.00000000000E+00 -0.12341177486E+03  0.17564616348E+03  0.12498443331E+03 0.  0.
    9000005    1    3    3    0    0  0.53014748481E+02  0.18868448227E+02 -0.99875806190E+02  0.11464187087E+03  0.10000000000E+01 0.  0.
    9000005    1    3    3    0    0 -0.53014748481E+02 -0.18868448227E+02 -0.23535968670E+02  0.61004292605E+02  0.10000000000E+01 0.  0.
<mgrwt>
<rscale>  0 0.12498443E+03</rscale>
<asrwt>0</asrwt>
<pdfrwt beam="1">  1        4 0.40180300E-02 0.12498443E+03</pdfrwt>
<pdfrwt beam="2">  1       -4 0.23004456E-01 0.12498443E+03</pdfrwt>
<totfact> 0.94439604E+03</totfact>
</mgrwt>
</event>
<event>
 5    1  0.3273105E-002  0.1250212E+03  0.7818608E-02  0.1235036E+00
          4   -1    0    0  501    0  0.00000000000E+00  0.00000000000E+00  0.29039210898E+02  0.29066968703E+02  0.12700000000E+01 0.  1.
         -4   -1    0    0    0  501 -0.00000000000E+00 -0.00000000000E+00 -0.13446696720E+03  0.13447296445E+03  0.12700000000E+01 0.  1.
         25    2    1    2    0    0  0.00000000000E+00  0.00000000000E+00 -0.10542775631E+03  0.16353993316E+03  0.12502118995E+03 0.  0.
    9000005    1    3    3    0    0 -0.13798328400E+02  0.18096988203E+02 -0.12886134212E+03  0.13085923866E+03  0.10000000000E+01 0.  0.
    9000005    1    3    3    0    0  0.13798328400E+02 -0.18096988203E+02  0.23433585816E+02  0.32680694498E+02  0.10000000000E+01 0.  0.
<mgrwt>
<rscale>  0 0.12502119E+03</rscale>
<asrwt>0</asrwt>
<pdfrwt beam="1">  1        4 0.44701675E-02 0.12502119E+03</pdfrwt>
<pdfrwt beam="2">  1       -4 0.20689822E-01 0.12502119E+03</pdfrwt>
<totfact> 0.96618614E+03</totfact>
</mgrwt>
</event>
<event>
 5    1  0.3273105E-002  0.1250002E+03  0.7818608E-02  0.1235069E+00
         -4   -1    0    0    0  501 -0.00000000000E+00  0.00000000000E+00  0.44994174241E+02  0.45012094104E+02  0.12700000000E+01 0. -1.
          4   -1    0    0  501    0  0.00000000000E+00 -0.00000000000E+00 -0.86777207256E+02  0.86786500098E+02  0.12700000000E+01 0. -1.
         25    2    1    2    0    0  0.00000000000E+00  0.00000000000E+00 -0.41783033015E+02  0.13179859420E+03  0.12500019034E+03 0.  0.
    9000005    1    3    3    0    0  0.35877003256E+02  0.38026388145E+02 -0.56989401610E+02  0.77343115103E+02  0.10000000000E+01 0.  0.
    9000005    1    3    3    0    0 -0.35877003256E+02 -0.38026388145E+02  0.15206368595E+02  0.54455479098E+02  0.10000000000E+01 0.  0.
<mgrwt>
<rscale>  0 0.12500019E+03</rscale>
<asrwt>0</asrwt>
<pdfrwt beam="2">  1        4 0.13352433E-01 0.12500019E+03</pdfrwt>
<pdfrwt beam="1">  1       -4 0.69242740E-02 0.12500019E+03</pdfrwt>
<totfact> 0.10305955E+04</totfact>
</mgrwt>
</event>
<event>
 5    1  0.3273105E-002  0.1249979E+03  0.7818608E-02  0.1235072E+00
         -4   -1    0    0    0  501 -0.00000000000E+00  0.00000000000E+00  0.43948931244E+01  0.45747115292E+01  0.12700000000E+01 0.  1.
          4   -1    0    0  501    0  0.00000000000E+00 -0.00000000000E+00 -0.87078823008E+03  0.87078915619E+03  0.12700000000E+01 0.  1.
         25    2    1    2    0    0  0.00000000000E+00  0.00000000000E+00 -0.86639333696E+03  0.87536386772E+03  0.12499794636E+03 0.  0.
    9000005    1    3    3    0    0 -0.22709468618E+02  0.65919648473E+01 -0.83828087530E+03  0.83861492943E+03  0.10000000000E+01 0.  0.
    9000005    1    3    3    0    0  0.22709468618E+02 -0.65919648473E+01 -0.28112461652E+02  0.36748938292E+02  0.10000000000E+01 0.  0.
<mgrwt>
<rscale>  0 0.12499795E+03</rscale>
<asrwt>0</asrwt>
<pdfrwt beam="2">  1        4 0.13398119E+00 0.12499795E+03</pdfrwt>
<pdfrwt beam="1">  1       -4 0.69004152E-03 0.12499795E+03</pdfrwt>
<totfact> 0.35112900E+03</totfact>
</mgrwt>
</event>
<event>
 5    1  0.3273105E-002  0.1250033E+03  0.7818608E-02  0.1235064E+00
          4   -1    0    0  501    0  0.00000000000E+00  0.00000000000E+00  0.10064245626E+03  0.10065046897E+03  0.12700000000E+01 0.  1.
         -4   -1    0    0    0  501 -0.00000000000E+00 -0.00000000000E+00 -0.38795225741E+02  0.38816007527E+02  0.12700000000E+01 0.  1.
         25    2    1    2    0    0  0.00000000000E+00  0.00000000000E+00  0.61847230523E+02  0.13946647649E+03  0.12500327252E+03 0.  0.
    9000005    1    3    3    0    0 -0.43367972243E+02  0.25410134472E+02  0.72355086596E+02  0.88106268260E+02  0.10000000000E+01 0.  0.
    9000005    1    3    3    0    0  0.43367972243E+02 -0.25410134472E+02 -0.10507856073E+02  0.51360208232E+02  0.10000000000E+01 0.  0.
<mgrwt>
<rscale>  0 0.12500327E+03</rscale>
<asrwt>0</asrwt>
<pdfrwt beam="1">  1        4 0.15485670E-01 0.12500327E+03</pdfrwt>
<pdfrwt beam="2">  1       -4 0.59707113E-02 0.12500327E+03</pdfrwt>
<totfact> 0.10143907E+04</totfact>
</mgrwt>
</event>
<event>
 5    1  0.3273105E-002  0.1250016E+03  0.7818608E-02  0.1235067E+00
         -4   -1    0    0    0  501 -0.00000000000E+00  0.00000000000E+00  0.12397315981E+02  0.12462196578E+02  0.12700000000E+01 0.  1.
          4   -1    0    0  501    0  0.00000000000E+00 -0.00000000000E+00 -0.31420805270E+03  0.31421061930E+03  0.12700000000E+01 0.  1.
         25    2    1    2    0    0  0.00000000000E+00  0.00000000000E+00 -0.30181073671E+03  0.32667281588E+03  0.12500163133E+03 0.  0.
    9000005    1    3    3    0    0  0.31495661980E+02  0.48460286925E+02 -0.88788114413E+02  0.10594671016E+03  0.10000000000E+01 0.  0.
    9000005    1    3    3    0    0 -0.31495661980E+02 -0.48460286925E+02 -0.21302262230E+03  0.22072610572E+03  0.10000000000E+01 0.  0.
<mgrwt>
<rscale>  0 0.12500163E+03</rscale>
<asrwt>0</asrwt>
<pdfrwt beam="2">  1        4 0.48344883E-01 0.12500163E+03</pdfrwt>
<pdfrwt beam="1">  1       -4 0.19124679E-02 0.12500163E+03</pdfrwt>
<totfact> 0.72366835E+03</totfact>
</mgrwt>
</event>
<event>
 5    1  0.3273105E-002  0.1249996E+03  0.7818608E-02  0.1235070E+00
          4   -1    0    0  501    0  0.00000000000E+00  0.00000000000E+00  0.88050393759E+03  0.88050485348E+03  0.12700000000E+01 0. -1.
         -4   -1    0    0    0  501 -0.00000000000E+00 -0.00000000000E+00 -0.43445233466E+01  0.45263432381E+01  0.12700000000E+01 0. -1.
         25    2    1    2    0    0  0.00000000000E+00  0.00000000000E+00  0.87615941424E+03  0.88503119672E+03  0.12499960003E+03 0.  0.
    9000005    1    3    3    0    0  0.77093789804E+01 -0.36094603878E+02  0.79512275294E+03  0.79597955200E+03  0.10000000000E+01 0.  0.
    9000005    1    3    3    0    0 -0.77093789804E+01  0.36094603878E+02  0.81036661302E+02  0.89051644725E+02  0.10000000000E+01 0.  0.
<mgrwt>
<rscale>  0 0.12499960E+03</rscale>
<asrwt>0</asrwt>
<pdfrwt beam="1">  1        4 0.13547645E+00 0.12499960E+03</pdfrwt>
<pdfrwt beam="2">  1       -4 0.68244353E-03 0.12499960E+03</pdfrwt>
<totfact> 0.34735316E+03</totfact>
</mgrwt>
</event>
<event>
 5    1  0.3273105E-002  0.1250032E+03  0.7818608E-02  0.1235064E+00
          4   -1    0    0  501    0  0.00000000000E+00  0.00000000000E+00  0.34615575349E+03  0.34615808322E+03  0.12700000000E+01 0.  1.
         -4   -1    0    0    0  501 -0.00000000000E+00 -0.00000000000E+00 -0.11247128963E+02  0.11318604592E+02  0.12700000000E+01 0.  1.
         25    2    1    2    0    0  0.00000000000E+00  0.00000000000E+00  0.33490862453E+03  0.35747668781E+03  0.12500318213E+03 0.  0.
    9000005    1    3    3    0    0  0.28943613358E+02 -0.54698813237E+02  0.14256372950E+03  0.15541914262E+03  0.10000000000E+01 0.  0.
    9000005    1    3    3    0    0 -0.28943613358E+02  0.54698813237E+02  0.19234489503E+03  0.20205754519E+03  0.10000000000E+01 0.  0.
<mgrwt>
<rscale>  0 0.12500318E+03</rscale>
<asrwt>0</asrwt>
<pdfrwt beam="1">  1        4 0.53260414E-01 0.12500318E+03</pdfrwt>
<pdfrwt beam="2">  1       -4 0.17360047E-02 0.12500318E+03</pdfrwt>
<totfact> 0.68904930E+03</totfact>
</mgrwt>
</event>
<event>
 5    1  0.3273105E-002  0.1249983E+03  0.7818608E-02  0.1235072E+00
         -4   -1    0    0    0  501 -0.00000000000E+00  0.00000000000E+00  0.21474394667E+03  0.21474770204E+03  0.12700000000E+01 0. -1.
          4   -1    0    0  501    0  0.00000000000E+00 -0.00000000000E+00 -0.18163694705E+02  0.18208039580E+02  0.12700000000E+01 0. -1.
         25    2    1    2    0    0  0.00000000000E+00  0.00000000000E+00  0.19658025197E+03  0.23295574162E+03  0.12499832835E+03 0.  0.
    9000005    1    3    3    0    0  0.12081158240E+02  0.49679222788E+01  0.21218025337E+03  0.21258432341E+03  0.10000000000E+01 0.  0.
    9000005    1    3    3    0    0 -0.12081158240E+02 -0.49679222788E+01 -0.15600001408E+02  0.20371418216E+02  0.10000000000E+01 0.  0.
<mgrwt>
<rscale>  0 0.12499833E+03</rscale>
<asrwt>0</asrwt>
<pdfrwt beam="2">  1        4 0.27981147E-02 0.12499833E+03</pdfrwt>
<pdfrwt beam="1">  1       -4 0.33041229E-01 0.12499833E+03</pdfrwt>
<totfact> 0.84860962E+03</totfact>
</mgrwt>
</event>
<event>
 5    1  0.3273105E-002  0.1250605E+03  0.7818608E-02  0.1234975E+00
         -4   -1    0    0    0  501 -0.00000000000E+00  0.00000000000E+00  0.76861429522E+01  0.77903590085E+01  0.12700000000E+01 0.  1.
          4   -1    0    0  501    0  0.00000000000E+00 -0.00000000000E+00 -0.50518091088E+03  0.50518250724E+03  0.12700000000E+01 0.  1.
         25    2    1    2    0    0  0.00000000000E+00  0.00000000000E+00 -0.49749476793E+03  0.51297286625E+03  0.12506045493E+03 0.  0.
    9000005    1    3    3    0    0  0.44512355536E+02  0.42900660210E+02 -0.21044156372E+03  0.21933642694E+03  0.10000000000E+01 0.  0.
    9000005    1    3    3    0    0 -0.44512355536E+02 -0.42900660210E+02 -0.28705320421E+03  0.29363643931E+03  0.10000000000E+01 0.  0.
<mgrwt>
<rscale>  0 0.12506045E+03</rscale>
<asrwt>0</asrwt>
<pdfrwt beam="2">  1        4 0.77728254E-01 0.12506045E+03</pdfrwt>
<pdfrwt beam="1">  1       -4 0.11906233E-02 0.12506045E+03</pdfrwt>
<totfact> 0.54798860E+03</totfact>
</mgrwt>
</event>
<event>
 5    1  0.3273105E-002  0.1249988E+03  0.7818608E-02  0.1235071E+00
          4   -1    0    0  501    0  0.00000000000E+00  0.00000000000E+00  0.15230831918E+03  0.15231361394E+03  0.12700000000E+01 0. -1.
         -4   -1    0    0    0  501 -0.00000000000E+00 -0.00000000000E+00 -0.25625011013E+02  0.25656462917E+02  0.12700000000E+01 0. -1.
         25    2    1    2    0    0  0.00000000000E+00  0.00000000000E+00  0.12668330817E+03  0.17797007686E+03  0.12499875075E+03 0.  0.
    9000005    1    3    3    0    0  0.16272397867E+02  0.91925932155E+01  0.14824302322E+03  0.14941984016E+03  0.10000000000E+01 0.  0.
    9000005    1    3    3    0    0 -0.16272397867E+02 -0.91925932155E+01 -0.21559715047E+02  0.28550236694E+02  0.10000000000E+01 0.  0.
<mgrwt>
<rscale>  0 0.12499875E+03</rscale>
<asrwt>0</asrwt>
<pdfrwt beam="1">  1        4 0.23434875E-01 0.12499875E+03</pdfrwt>
<pdfrwt beam="2">  1       -4 0.39451361E-02 0.12499875E+03</pdfrwt>
<totfact> 0.93986310E+03</totfact>
</mgrwt>
</event>
<event>
 5    1  0.3273105E-002  0.1250480E+03  0.7818608E-02  0.1234994E+00
          4   -1    0    0  501    0  0.00000000000E+00  0.00000000000E+00  0.98075611079E+01  0.98894466420E+01  0.12700000000E+01 0. -1.
         -4   -1    0    0    0  501 -0.00000000000E+00 -0.00000000000E+00 -0.39685559998E+03  0.39685763207E+03  0.12700000000E+01 0. -1.
         25    2    1    2    0    0  0.00000000000E+00  0.00000000000E+00 -0.38704803887E+03  0.40674707872E+03  0.12504799738E+03 0.  0.
    9000005    1    3    3    0    0 -0.59392370770E+02  0.40271273618E+01 -0.25563144071E+03  0.26247305565E+03  0.10000000000E+01 0.  0.
    9000005    1    3    3    0    0  0.59392370770E+02 -0.40271273618E+01 -0.13141659816E+03  0.14427402307E+03  0.10000000000E+01 0.  0.
<mgrwt>
<rscale>  0 0.12504800E+03</rscale>
<asrwt>0</asrwt>
<pdfrwt beam="1">  1        4 0.15153111E-02 0.12504800E+03</pdfrwt>
<pdfrwt beam="2">  1       -4 0.61061151E-01 0.12504800E+03</pdfrwt>
<totfact> 0.63834185E+03</totfact>
</mgrwt>
</event>
<event>
 5    1  0.3273105E-002  0.1249984E+03  0.7818608E-02  0.1235072E+00
         -4   -1    0    0    0  501 -0.00000000000E+00  0.00000000000E+00  0.15766996414E+02  0.15818061699E+02  0.12700000000E+01 0.  1.
          4   -1    0    0  501    0  0.00000000000E+00 -0.00000000000E+00 -0.24728896512E+03  0.24729222626E+03  0.12700000000E+01 0.  1.
         25    2    1    2    0    0  0.00000000000E+00  0.00000000000E+00 -0.23152196870E+03  0.26311028796E+03  0.12499840654E+03 0.  0.
    9000005    1    3    3    0    0 -0.24911773859E+02  0.56058823998E+02 -0.14084053149E+03  0.15362370759E+03  0.10000000000E+01 0.  0.
    9000005    1    3    3    0    0  0.24911773859E+02 -0.56058823998E+02 -0.90681437217E+02  0.10948658037E+03  0.10000000000E+01 0.  0.
<mgrwt>
<rscale>  0 0.12499841E+03</rscale>
<asrwt>0</asrwt>
<pdfrwt beam="2">  1        4 0.38048632E-01 0.12499841E+03</pdfrwt>
<pdfrwt beam="1">  1       -4 0.24298709E-02 0.12499841E+03</pdfrwt>
<totfact> 0.80474403E+03</totfact>
</mgrwt>
</event>
<event>
 5    1  0.3273105E-002  0.1250032E+03  0.7818608E-02  0.1235064E+00
          4   -1    0    0  501    0  0.00000000000E+00  0.00000000000E+00  0.42929623853E+03  0.42929811707E+03  0.12700000000E+01 0.  1.
         -4   -1    0    0    0  501 -0.00000000000E+00 -0.00000000000E+00 -0.90534336005E+01  0.91420763484E+01  0.12700000000E+01 0.  1.
         25    2    1    2    0    0  0.00000000000E+00  0.00000000000E+00  0.42024280493E+03  0.43844019342E+03  0.12500315238E+03 0.  0.
    9000005    1    3    3    0    0  0.53638255999E+02  0.31186625719E+02  0.18392604356E+03  0.19411197189E+03  0.10000000000E+01 0.  0.
    9000005    1    3    3    0    0 -0.53638255999E+02 -0.31186625719E+02  0.23631676137E+03  0.24432822153E+03  0.10000000000E+01 0.  0.
<mgrwt>
<rscale>  0 0.12500315E+03</rscale>
<asrwt>0</asrwt>
<pdfrwt beam="1">  1        4 0.66052554E-01 0.12500315E+03</pdfrwt>
<pdfrwt beam="2">  1       -4 0.13997988E-02 0.12500315E+03</pdfrwt>
<totfact> 0.60974073E+03</totfact>
</mgrwt>
</event>
<event>
 5    1  0.3273105E-002  0.1249993E+03  0.7818608E-02  0.1235070E+00
         -4   -1    0    0    0  501 -0.00000000000E+00  0.00000000000E+00  0.45727835742E+02  0.45745468209E+02  0.12700000000E+01 0. -1.
          4   -1    0    0  501    0  0.00000000000E+00 -0.00000000000E+00 -0.85384061604E+02  0.85393506053E+02  0.12700000000E+01 0. -1.
         25    2    1    2    0    0  0.00000000000E+00  0.00000000000E+00 -0.39656225862E+02  0.13113897426E+03  0.12499925728E+03 0.  0.
    9000005    1    3    3    0    0 -0.40150392537E+02  0.39798894214E+01 -0.69893252388E+02  0.80709108965E+02  0.10000000000E+01 0.  0.
    9000005    1    3    3    0    0  0.40150392537E+02 -0.39798894214E+01  0.30237026526E+02  0.50429865296E+02  0.10000000000E+01 0.  0.
<mgrwt>
<rscale>  0 0.12499926E+03</rscale>
<asrwt>0</asrwt>
<pdfrwt beam="2">  1        4 0.13138092E-01 0.12499926E+03</pdfrwt>
<pdfrwt beam="1">  1       -4 0.70371345E-02 0.12499926E+03</pdfrwt>
<totfact> 0.10320284E+04</totfact>
</mgrwt>
</event>
<event>
 5    1  0.3273105E-002  0.1250024E+03  0.7818608E-02  0.1235065E+00
          4   -1    0    0  501    0  0.00000000000E+00  0.00000000000E+00  0.37113429088E+04  0.37113431261E+04  0.12700000000E+01 0. -1.
         -4   -1    0    0    0  501 -0.00000000000E+00 -0.00000000000E+00 -0.66917046284E+00  0.14355100516E+01  0.12700000000E+01 0. -1.
         25    2    1    2    0    0  0.00000000000E+00  0.00000000000E+00  0.37106737384E+04  0.37127786362E+04  0.12500243449E+03 0.  0.
    9000005    1    3    3    0    0 -0.37583743717E+02 -0.39205444042E+02  0.93708137496E+03  0.93865441347E+03  0.10000000000E+01 0.  0.
    9000005    1    3    3    0    0  0.37583743717E+02  0.39205444042E+02  0.27735923634E+04  0.27741242227E+04  0.10000000000E+01 0.  0.
<mgrwt>
<rscale>  0 0.12500243E+03</rscale>
<asrwt>0</asrwt>
<pdfrwt beam="1">  1        4 0.57102576E+00 0.12500243E+03</pdfrwt>
<pdfrwt beam="2">  1       -4 0.16191778E-03 0.12500243E+03</pdfrwt>
<totfact> 0.33556784E+01</totfact>
</mgrwt>
</event>
<event>
 5    1  0.3273105E-002  0.1250044E+03  0.7818608E-02  0.1235062E+00
          4   -1    0    0  501    0  0.00000000000E+00  0.00000000000E+00  0.48800343704E+02  0.48816866405E+02  0.12700000000E+01 0. -1.
         -4   -1    0    0    0  501 -0.00000000000E+00 -0.00000000000E+00 -0.80016035332E+02  0.80026113302E+02  0.12700000000E+01 0. -1.
         25    2    1    2    0    0  0.00000000000E+00  0.00000000000E+00 -0.31215691628E+02  0.12884297971E+03  0.12500437599E+03 0.  0.
    9000005    1    3    3    0    0  0.36085158567E+02  0.49361546582E+02 -0.28920447155E+02  0.67646827076E+02  0.10000000000E+01 0.  0.
    9000005    1    3    3    0    0 -0.36085158567E+02 -0.49361546582E+02 -0.22952444728E+01  0.61196152632E+02  0.10000000000E+01 0.  0.
<mgrwt>
<rscale>  0 0.12500438E+03</rscale>
<asrwt>0</asrwt>
<pdfrwt beam="1">  1        4 0.75097914E-02 0.12500438E+03</pdfrwt>
<pdfrwt beam="2">  1       -4 0.12312205E-01 0.12500438E+03</pdfrwt>
<totfact> 0.10368298E+04</totfact>
</mgrwt>
</event>
<event>
 5    1  0.3273105E-002  0.1250003E+03  0.7818608E-02  0.1235069E+00
          4   -1    0    0  501    0  0.00000000000E+00  0.00000000000E+00  0.12652756110E+03  0.12653393465E+03  0.12700000000E+01 0. -1.
         -4   -1    0    0    0  501 -0.00000000000E+00 -0.00000000000E+00 -0.30852670684E+02  0.30878798363E+02  0.12700000000E+01 0. -1.
         25    2    1    2    0    0  0.00000000000E+00  0.00000000000E+00  0.95674890414E+02  0.15741273301E+03  0.12500033543E+03 0.  0.
    9000005    1    3    3    0    0 -0.39699707228E+02  0.45700491052E+02  0.67373598468E+02  0.90580369876E+02  0.10000000000E+01 0.  0.
    9000005    1    3    3    0    0  0.39699707228E+02 -0.45700491052E+02  0.28301291946E+02  0.66832363135E+02  0.10000000000E+01 0.  0.
<mgrwt>
<rscale>  0 0.12500034E+03</rscale>
<asrwt>0</asrwt>
<pdfrwt beam="1">  1        4 0.19468279E-01 0.12500034E+03</pdfrwt>
<pdfrwt beam="2">  1       -4 0.47490648E-02 0.12500034E+03</pdfrwt>
<totfact> 0.97843183E+03</totfact>
</mgrwt>
</event>
<event>
 5    1  0.3273105E-002  0.1250268E+03  0.7818608E-02  0.1235027E+00
         -4   -1    0    0    0  501 -0.00000000000E+00  0.00000000000E+00  0.42822972488E+01  0.44666508401E+01  0.12700000000E+01 0.  1.
          4   -1    0    0  501    0  0.00000000000E+00 -0.00000000000E+00 -0.89316200126E+03  0.89316290418E+03  0.12700000000E+01 0.  1.
         25    2    1    2    0    0  0.00000000000E+00  0.00000000000E+00 -0.88887970402E+03  0.89762955502E+03  0.12502675647E+03 0.  0.
    9000005    1    3    3    0    0  0.15273600101E+02 -0.42109162117E+02 -0.75742470803E+03  0.75874874150E+03  0.10000000000E+01 0.  0.
    9000005    1    3    3    0    0 -0.15273600101E+02  0.42109162117E+02 -0.13145499599E+03  0.13888081352E+03  0.10000000000E+01 0.  0.
<mgrwt>
<rscale>  0 0.12502676E+03</rscale>
<asrwt>0</asrwt>
<pdfrwt beam="2">  1        4 0.13742364E+00 0.12502676E+03</pdfrwt>
<pdfrwt beam="1">  1       -4 0.67306617E-03 0.12502676E+03</pdfrwt>
<totfact> 0.34230886E+03</totfact>
</mgrwt>
</event>
<event>
 5    1  0.3273105E-002  0.1250005E+03  0.7818608E-02  0.1235069E+00
          4   -1    0    0  501    0  0.00000000000E+00  0.00000000000E+00  0.55836104461E+02  0.55850545757E+02  0.12700000000E+01 0. -1.
         -4   -1    0    0    0  501 -0.00000000000E+00 -0.00000000000E+00 -0.69930500315E+02  0.69942031528E+02  0.12700000000E+01 0. -1.
         25    2    1    2    0    0  0.00000000000E+00  0.00000000000E+00 -0.14094395854E+02  0.12579257729E+03  0.12500048202E+03 0.  0.
    9000005    1    3    3    0    0 -0.15055082649E+02  0.18038179160E+02  0.51226987330E+02  0.56366973060E+02  0.10000000000E+01 0.  0.
    9000005    1    3    3    0    0  0.15055082649E+02 -0.18038179160E+02 -0.65321383184E+02  0.69425604226E+02  0.10000000000E+01 0.  0.
<mgrwt>
<rscale>  0 0.12500048E+03</rscale>
<asrwt>0</asrwt>
<pdfrwt beam="1">  1        4 0.85921678E-02 0.12500048E+03</pdfrwt>
<pdfrwt beam="2">  1       -4 0.10760536E-01 0.12500048E+03</pdfrwt>
<totfact> 0.10435395E+04</totfact>
</mgrwt>
</event>
<event>
 4    1  0.3273105E-002  0.1250629E+03  0.7818608E-02  0.1234971E+00
         -4   -1    0    0    0  501 -0.00000000000E+00  0.00000000000E+00  0.86359299296E+02  0.86368637102E+02  0.12700000000E+01 0.  1.
          4   -1    0    0  501    0  0.00000000000E+00 -0.00000000000E+00 -0.45257340149E+02  0.45275155852E+02  0.12700000000E+01 0.  1.
    9000005    1    1    2    0    0 -0.43790183515E+02  0.40108950624E+02 -0.45756601431E-01  0.59391162526E+02  0.10000000000E+01 0.  0.
    9000005    1    1    2    0    0  0.43790183515E+02 -0.40108950624E+02  0.41147715748E+02  0.72252630428E+02  0.10000000000E+01 0.  0.
<mgrwt>
<rscale>  0 0.12506285E+03</rscale>
<asrwt>0</asrwt>
<pdfrwt beam="2">  1        4 0.69647565E-02 0.12506285E+03</pdfrwt>
<pdfrwt beam="1">  1       -4 0.13288135E-01 0.12506285E+03</pdfrwt>
<totfact> 0.10294703E+04</totfact>
</mgrwt>
</event>
<event>
 5    1  0.3273105E-002  0.1249953E+03  0.7818608E-02  0.1235077E+00
         -4   -1    0    0    0  501 -0.00000000000E+00  0.00000000000E+00  0.78746632065E+01  0.79764165273E+01  0.12700000000E+01 0. -1.
          4   -1    0    0  501    0  0.00000000000E+00 -0.00000000000E+00 -0.49272861319E+03  0.49273024989E+03  0.12700000000E+01 0. -1.
         25    2    1    2    0    0  0.00000000000E+00  0.00000000000E+00 -0.48485394998E+03  0.50070666642E+03  0.12499525183E+03 0.  0.
    9000005    1    3    3    0    0 -0.35562210486E+02 -0.83518324249E+01 -0.39331082935E+02  0.53687596373E+02  0.10000000000E+01 0.  0.
    9000005    1    3    3    0    0  0.35562210486E+02  0.83518324249E+01 -0.44552286705E+03  0.44701907004E+03  0.10000000000E+01 0.  0.
<mgrwt>
<rscale>  0 0.12499525E+03</rscale>
<asrwt>0</asrwt>
<pdfrwt beam="2">  1        4 0.75812331E-01 0.12499525E+03</pdfrwt>
<pdfrwt beam="1">  1       -4 0.12194401E-02 0.12499525E+03</pdfrwt>
<totfact> 0.55815417E+03</totfact>
</mgrwt>
</event>
<event>
 5    1  0.3273105E-002  0.1250000E+03  0.7818608E-02  0.1235069E+00
          4   -1    0    0  501    0  0.00000000000E+00  0.00000000000E+00  0.57142236995E+03  0.57142378125E+03  0.12700000000E+01 0.  1.
         -4   -1    0    0    0  501 -0.00000000000E+00 -0.00000000000E+00 -0.67755901450E+01  0.68935855557E+01  0.12700000000E+01 0.  1.
         25    2    1    2    0    0  0.00000000000E+00  0.00000000000E+00  0.56464677981E+03  0.57831736681E+03  0.12499996322E+03 0.  0.
    9000005    1    3    3    0    0  0.10538175534E+02 -0.30779820117E+02  0.52917423393E+03  0.53017433012E+03  0.10000000000E+01 0.  0.
    9000005    1    3    3    0    0 -0.10538175534E+02  0.30779820117E+02  0.35472545880E+02  0.48143036685E+02  0.10000000000E+01 0.  0.
<mgrwt>
<rscale>  0 0.12499996E+03</rscale>
<asrwt>0</asrwt>
<pdfrwt beam="1">  1        4 0.87920364E-01 0.12499996E+03</pdfrwt>
<pdfrwt beam="2">  1       -4 0.10515831E-02 0.12499996E+03</pdfrwt>
<totfact> 0.50265543E+03</totfact>
</mgrwt>
</event>
<event>
 5    1  0.3273105E-002  0.1249980E+03  0.7818608E-02  0.1235072E+00
         -4   -1    0    0    0  501 -0.00000000000E+00  0.00000000000E+00  0.10302571111E+03  0.10303353847E+03  0.12700000000E+01 0. -1.
          4   -1    0    0  501    0  0.00000000000E+00 -0.00000000000E+00 -0.37894164138E+02  0.37915439807E+02  0.12700000000E+01 0. -1.
         25    2    1    2    0    0  0.00000000000E+00  0.00000000000E+00  0.65131546967E+02  0.14094897827E+03  0.12499798425E+03 0.  0.
    9000005    1    3    3    0    0 -0.47238255151E+02 -0.39989465025E+02  0.22832078646E+02  0.65976616145E+02  0.10000000000E+01 0.  0.
    9000005    1    3    3    0    0  0.47238255151E+02  0.39989465025E+02  0.42299468321E+02  0.74972362127E+02  0.10000000000E+01 0.  0.
<mgrwt>
<rscale>  0 0.12499798E+03</rscale>
<asrwt>0</asrwt>
<pdfrwt beam="2">  1        4 0.58321101E-02 0.12499798E+03</pdfrwt>
<pdfrwt beam="1">  1       -4 0.15852348E-01 0.12499798E+03</pdfrwt>
<totfact> 0.10114415E+04</totfact>
</mgrwt>
</event>
<event>
 5    1  0.3273105E-002  0.1249996E+03  0.7818608E-02  0.1235070E+00
          4   -1    0    0  501    0  0.00000000000E+00  0.00000000000E+00  0.30047009967E+01  0.32620741990E+01  0.12700000000E+01 0.  1.
         -4   -1    0    0    0  501 -0.00000000000E+00 -0.00000000000E+00 -0.12463881736E+04  0.12463888206E+04  0.12700000000E+01 0.  1.
         25    2    1    2    0    0  0.00000000000E+00  0.00000000000E+00 -0.12433834726E+04  0.12496508948E+04  0.12499959601E+03 0.  0.
    9000005    1    3    3    0    0  0.60227707199E+00 -0.12794162984E+02 -0.12331740474E+04  0.12332409677E+04  0.10000000000E+01 0.  0.
    9000005    1    3    3    0    0 -0.60227707199E+00  0.12794162984E+02 -0.10209425222E+02  0.16409927102E+02  0.10000000000E+01 0.  0.
<mgrwt>
<rscale>  0 0.12499960E+03</rscale>
<asrwt>0</asrwt>
<pdfrwt beam="1">  1        4 0.48211040E-03 0.12499960E+03</pdfrwt>
<pdfrwt beam="2">  1       -4 0.19177148E+00 0.12499960E+03</pdfrwt>
<totfact> 0.23449101E+03</totfact>
</mgrwt>
</event>
<event>
 5    1  0.3273105E-002  0.1249974E+03  0.7818608E-02  0.1235073E+00
         -4   -1    0    0    0  501 -0.00000000000E+00  0.00000000000E+00  0.30694538842E+03  0.30694801575E+03  0.12700000000E+01 0.  1.
          4   -1    0    0  501    0  0.00000000000E+00 -0.00000000000E+00 -0.12691303335E+02  0.12754688563E+02  0.12700000000E+01 0.  1.
         25    2    1    2    0    0  0.00000000000E+00  0.00000000000E+00  0.29425408509E+03  0.31970270431E+03  0.12499741020E+03 0.  0.
    9000005    1    3    3    0    0  0.78220605812E+01 -0.26923523807E+02  0.42853827401E+01  0.28380015348E+02  0.10000000000E+01 0.  0.
    9000005    1    3    3    0    0 -0.78220605812E+01  0.26923523807E+02  0.28996870235E+03  0.29132268896E+03  0.10000000000E+01 0.  0.
<mgrwt>
<rscale>  0 0.12499741E+03</rscale>
<asrwt>0</asrwt>
<pdfrwt beam="2">  1        4 0.19575862E-02 0.12499741E+03</pdfrwt>
<pdfrwt beam="1">  1       -4 0.47227444E-01 0.12499741E+03</pdfrwt>
<totfact> 0.73195700E+03</totfact>
</mgrwt>
</event>
<event>
 5    1  0.3273105E-002  0.1249985E+03  0.7818608E-02  0.1235072E+00
         -4   -1    0    0    0  501 -0.00000000000E+00  0.00000000000E+00  0.77218890990E+01  0.78256291286E+01  0.12700000000E+01 0.  1.
          4   -1    0    0  501    0  0.00000000000E+00 -0.00000000000E+00 -0.50237539122E+03  0.50237699649E+03  0.12700000000E+01 0.  1.
         25    2    1    2    0    0  0.00000000000E+00  0.00000000000E+00 -0.49465350212E+03  0.51020262562E+03  0.12499852811E+03 0.  0.
    9000005    1    3    3    0    0  0.43826085187E+02 -0.44188621915E+02 -0.27034315139E+03  0.27741625683E+03  0.10000000000E+01 0.  0.
    9000005    1    3    3    0    0 -0.43826085187E+02  0.44188621915E+02 -0.22431035073E+03  0.23278636879E+03  0.10000000000E+01 0.  0.
<mgrwt>
<rscale>  0 0.12499853E+03</rscale>
<asrwt>0</asrwt>
<pdfrwt beam="2">  1        4 0.77296600E-01 0.12499853E+03</pdfrwt>
<pdfrwt beam="1">  1       -4 0.11960868E-02 0.12499853E+03</pdfrwt>
<totfact> 0.55083161E+03</totfact>
</mgrwt>
</event>
<event>
 5    1  0.3273105E-002  0.1250059E+03  0.7818608E-02  0.1235060E+00
          4   -1    0    0  501    0  0.00000000000E+00  0.00000000000E+00  0.17138198550E+02  0.17185189831E+02  0.12700000000E+01 0. -1.
         -4   -1    0    0    0  501 -0.00000000000E+00 -0.00000000000E+00 -0.22758705053E+03  0.22759059398E+03  0.12700000000E+01 0. -1.
         25    2    1    2    0    0  0.00000000000E+00  0.00000000000E+00 -0.21044885198E+03  0.24477578381E+03  0.12500586003E+03 0.  0.
    9000005    1    3    3    0    0  0.58059627555E+02  0.68487893248E+01 -0.61977571907E+02  0.85205901712E+02  0.10000000000E+01 0.  0.
    9000005    1    3    3    0    0 -0.58059627555E+02 -0.68487893248E+01 -0.14847128007E+03  0.15956988210E+03  0.10000000000E+01 0.  0.
<mgrwt>
<rscale>  0 0.12500586E+03</rscale>
<asrwt>0</asrwt>
<pdfrwt beam="1">  1        4 0.26405334E-02 0.12500586E+03</pdfrwt>
<pdfrwt beam="2">  1       -4 0.35017277E-01 0.12500586E+03</pdfrwt>
<totfact> 0.83080352E+03</totfact>
</mgrwt>
</event>
<event>
 5    1  0.3273105E-002  0.1249989E+03  0.7818608E-02  0.1235071E+00
          4   -1    0    0  501    0  0.00000000000E+00  0.00000000000E+00  0.99534913733E+02  0.99543015585E+02  0.12700000000E+01 0.  1.
         -4   -1    0    0    0  501 -0.00000000000E+00 -0.00000000000E+00 -0.39224340551E+02  0.39244895104E+02  0.12700000000E+01 0.  1.
         25    2    1    2    0    0  0.00000000000E+00  0.00000000000E+00  0.60310573181E+02  0.13878791069E+03  0.12499887566E+03 0.  0.
    9000005    1    3    3    0    0  0.31354529495E+02  0.38501520428E+02  0.72284413497E+02  0.87701254437E+02  0.10000000000E+01 0.  0.
    9000005    1    3    3    0    0 -0.31354529495E+02 -0.38501520428E+02 -0.11973840316E+02  0.51086656252E+02  0.10000000000E+01 0.  0.
<mgrwt>
<rscale>  0 0.12499888E+03</rscale>
<asrwt>0</asrwt>
<pdfrwt beam="1">  1        4 0.15315268E-01 0.12499888E+03</pdfrwt>
<pdfrwt beam="2">  1       -4 0.60367184E-02 0.12499888E+03</pdfrwt>
<totfact> 0.10159026E+04</totfact>
</mgrwt>
</event>
<event>
 5    1  0.3273105E-002  0.1250001E+03  0.7818608E-02  0.1235069E+00
         -4   -1    0    0    0  501 -0.00000000000E+00  0.00000000000E+00  0.95525888788E+02  0.95534330629E+02  0.12700000000E+01 0.  1.
          4   -1    0    0  501    0  0.00000000000E+00 -0.00000000000E+00 -0.40871985781E+02  0.40891712140E+02  0.12700000000E+01 0.  1.
         25    2    1    2    0    0  0.00000000000E+00  0.00000000000E+00  0.54653903006E+02  0.13642604277E+03  0.12500006413E+03 0.  0.
    9000005    1    3    3    0    0  0.43756046348E+02 -0.16317383629E+02  0.72648708115E+02  0.86369458672E+02  0.10000000000E+01 0.  0.
    9000005    1    3    3    0    0 -0.43756046348E+02  0.16317383629E+02 -0.17994805108E+02  0.50056584096E+02  0.10000000000E+01 0.  0.
<mgrwt>
<rscale>  0 0.12500006E+03</rscale>
<asrwt>0</asrwt>
<pdfrwt beam="2">  1        4 0.62901647E-02 0.12500006E+03</pdfrwt>
<pdfrwt beam="1">  1       -4 0.14698457E-01 0.12500006E+03</pdfrwt>
<totfact> 0.10208085E+04</totfact>
</mgrwt>
</event>
<event>
 5    1  0.3273105E-002  0.1250037E+03  0.7818608E-02  0.1235064E+00
          4   -1    0    0  501    0  0.00000000000E+00  0.00000000000E+00  0.27370025976E+01  0.30172973369E+01  0.12700000000E+01 0. -1.
         -4   -1    0    0    0  501 -0.00000000000E+00 -0.00000000000E+00 -0.13574793984E+04  0.13574799924E+04  0.12700000000E+01 0. -1.
         25    2    1    2    0    0  0.00000000000E+00  0.00000000000E+00 -0.13547423958E+04  0.13604972898E+04  0.12500366639E+03 0.  0.
    9000005    1    3    3    0    0  0.60588164131E+02  0.15258312671E+02 -0.66302533636E+03  0.66596346626E+03  0.10000000000E+01 0.  0.
    9000005    1    3    3    0    0 -0.60588164131E+02 -0.15258312671E+02 -0.69171705940E+03  0.69453382351E+03  0.10000000000E+01 0.  0.
<mgrwt>
<rscale>  0 0.12500367E+03</rscale>
<asrwt>0</asrwt>
<pdfrwt beam="1">  1        4 0.44268524E-03 0.12500367E+03</pdfrwt>
<pdfrwt beam="2">  1       -4 0.20886408E+00 0.12500367E+03</pdfrwt>
<totfact> 0.20842427E+03</totfact>
</mgrwt>
</event>
<event>
 5    1  0.3273105E-002  0.1249994E+03  0.7818608E-02  0.1235070E+00
          4   -1    0    0  501    0  0.00000000000E+00  0.00000000000E+00  0.15378641662E+04  0.15378646906E+04  0.12700000000E+01 0. -1.
         -4   -1    0    0    0  501 -0.00000000000E+00 -0.00000000000E+00 -0.23807194194E+01  0.26982818522E+01  0.12700000000E+01 0. -1.
         25    2    1    2    0    0  0.00000000000E+00  0.00000000000E+00  0.15354834468E+04  0.15405629725E+04  0.12499942696E+03 0.  0.
    9000005    1    3    3    0    0 -0.16034299463E+02 -0.24725022921E+01  0.15115166482E+04  0.15116040453E+04  0.10000000000E+01 0.  0.
    9000005    1    3    3    0    0  0.16034299463E+02  0.24725022921E+01  0.23966798616E+02  0.28958927169E+02  0.10000000000E+01 0.  0.
<mgrwt>
<rscale>  0 0.12499943E+03</rscale>
<asrwt>0</asrwt>
<pdfrwt beam="1">  1        4 0.23661923E+00 0.12499943E+03</pdfrwt>
<pdfrwt beam="2">  1       -4 0.39073229E-03 0.12499943E+03</pdfrwt>
<totfact> 0.17146872E+03</totfact>
</mgrwt>
</event>
<event>
 5    1  0.3273105E-002  0.1249958E+03  0.7818608E-02  0.1235076E+00
         -4   -1    0    0    0  501 -0.00000000000E+00  0.00000000000E+00  0.17365134322E+02  0.17411513145E+02  0.12700000000E+01 0. -1.
          4   -1    0    0  501    0  0.00000000000E+00 -0.00000000000E+00 -0.22458456135E+03  0.22458815217E+03  0.12700000000E+01 0. -1.
         25    2    1    2    0    0  0.00000000000E+00  0.00000000000E+00 -0.20721942703E+03  0.24199966532E+03  0.12499578823E+03 0.  0.
    9000005    1    3    3    0    0 -0.25079770038E+02 -0.34823791577E+02 -0.19155247432E+03  0.19630344302E+03  0.10000000000E+01 0.  0.
    9000005    1    3    3    0    0  0.25079770038E+02  0.34823791577E+02 -0.15666952710E+02  0.45696222296E+02  0.10000000000E+01 0.  0.
<mgrwt>
<rscale>  0 0.12499579E+03</rscale>
<asrwt>0</asrwt>
<pdfrwt beam="2">  1        4 0.34555313E-01 0.12499579E+03</pdfrwt>
<pdfrwt beam="1">  1       -4 0.26754031E-02 0.12499579E+03</pdfrwt>
<totfact> 0.83508292E+03</totfact>
</mgrwt>
</event>
<event>
 5    1  0.3273105E-002  0.1249972E+03  0.7818608E-02  0.1235074E+00
         -4   -1    0    0    0  501 -0.00000000000E+00  0.00000000000E+00  0.53767514421E+02  0.53782511163E+02  0.12700000000E+01 0.  1.
          4   -1    0    0  501    0  0.00000000000E+00 -0.00000000000E+00 -0.72616783789E+02  0.72627888499E+02  0.12700000000E+01 0.  1.
         25    2    1    2    0    0  0.00000000000E+00  0.00000000000E+00 -0.18849269368E+02  0.12641039966E+03  0.12499717672E+03 0.  0.
    9000005    1    3    3    0    0  0.89294280571E+01 -0.40507760851E+01  0.52989664800E+02  0.53898497641E+02  0.10000000000E+01 0.  0.
    9000005    1    3    3    0    0 -0.89294280571E+01  0.40507760851E+01 -0.71838934168E+02  0.72511902021E+02  0.10000000000E+01 0.  0.
<mgrwt>
<rscale>  0 0.12499718E+03</rscale>
<asrwt>0</asrwt>
<pdfrwt beam="2">  1        4 0.11173821E-01 0.12499718E+03</pdfrwt>
<pdfrwt beam="1">  1       -4 0.82739330E-02 0.12499718E+03</pdfrwt>
<totfact> 0.10422647E+04</totfact>
</mgrwt>
</event>
<event>
 5    1  0.3273105E-002  0.1249989E+03  0.7818608E-02  0.1235071E+00
          4   -1    0    0  501    0  0.00000000000E+00  0.00000000000E+00  0.71146356516E+02  0.71157690698E+02  0.12700000000E+01 0.  1.
         -4   -1    0    0    0  501 -0.00000000000E+00 -0.00000000000E+00 -0.54880388021E+02  0.54895080739E+02  0.12700000000E+01 0.  1.
         25    2    1    2    0    0  0.00000000000E+00  0.00000000000E+00  0.16265968495E+02  0.12605277144E+03  0.12499887782E+03 0.  0.
    9000005    1    3    3    0    0  0.58432419628E+02  0.72845878026E+01  0.29232271517E+02  0.65749057644E+02  0.10000000000E+01 0.  0.
    9000005    1    3    3    0    0 -0.58432419628E+02 -0.72845878026E+01 -0.12966303022E+02  0.60303713792E+02  0.10000000000E+01 0.  0.
<mgrwt>
<rscale>  0 0.12499888E+03</rscale>
<asrwt>0</asrwt>
<pdfrwt beam="1">  1        4 0.10947595E-01 0.12499888E+03</pdfrwt>
<pdfrwt beam="2">  1       -4 0.84451387E-02 0.12499888E+03</pdfrwt>
<totfact> 0.10430065E+04</totfact>
</mgrwt>
</event>
<event>
 5    1  0.3273105E-002  0.1250012E+03  0.7818608E-02  0.1235067E+00
         -4   -1    0    0    0  501 -0.00000000000E+00  0.00000000000E+00  0.54152949659E+02  0.54167839691E+02  0.12700000000E+01 0. -1.
          4   -1    0    0  501    0  0.00000000000E+00 -0.00000000000E+00 -0.72104631488E+02  0.72115815062E+02  0.12700000000E+01 0. -1.
         25    2    1    2    0    0  0.00000000000E+00  0.00000000000E+00 -0.17951681829E+02  0.12628365475E+03  0.12500119430E+03 0.  0.
    9000005    1    3    3    0    0  0.52278013187E+02 -0.31309002171E+02 -0.22977337716E+02  0.65132191182E+02  0.10000000000E+01 0.  0.
    9000005    1    3    3    0    0 -0.52278013187E+02  0.31309002171E+02  0.50256558870E+01  0.61151463570E+02  0.10000000000E+01 0.  0.
<mgrwt>
<rscale>  0 0.12500119E+03</rscale>
<asrwt>0</asrwt>
<pdfrwt beam="2">  1        4 0.11095026E-01 0.12500119E+03</pdfrwt>
<pdfrwt beam="1">  1       -4 0.83332287E-02 0.12500119E+03</pdfrwt>
<totfact> 0.10424469E+04</totfact>
</mgrwt>
</event>
<event>
 5    1  0.3273105E-002  0.1249999E+03  0.7818608E-02  0.1235070E+00
          4   -1    0    0  501    0  0.00000000000E+00  0.00000000000E+00  0.29607540520E+04  0.29607543244E+04  0.12700000000E+01 0. -1.
         -4   -1    0    0    0  501 -0.00000000000E+00 -0.00000000000E+00 -0.10133778720E+01  0.16247568161E+01  0.12700000000E+01 0. -1.
         25    2    1    2    0    0  0.00000000000E+00  0.00000000000E+00  0.29597406741E+04  0.29623790812E+04  0.12499985048E+03 0.  0.
    9000005    1    3    3    0    0  0.37677047169E+02  0.53415779197E+01  0.26546240456E+04  0.26548969690E+04  0.10000000000E+01 0.  0.
    9000005    1    3    3    0    0 -0.37677047169E+02 -0.53415779197E+01  0.30511662851E+03  0.30748211221E+03  0.10000000000E+01 0.  0.
<mgrwt>
<rscale>  0 0.12499985E+03</rscale>
<asrwt>0</asrwt>
<pdfrwt beam="1">  1        4 0.45554239E+00 0.12499985E+03</pdfrwt>
<pdfrwt beam="2">  1       -4 0.20295675E-03 0.12499985E+03</pdfrwt>
<totfact> 0.19657132E+02</totfact>
</mgrwt>
</event>
<event>
 5    1  0.3273105E-002  0.1249990E+03  0.7818608E-02  0.1235071E+00
          4   -1    0    0  501    0  0.00000000000E+00  0.00000000000E+00  0.52458031033E+02  0.52473402023E+02  0.12700000000E+01 0. -1.
         -4   -1    0    0    0  501 -0.00000000000E+00 -0.00000000000E+00 -0.74431385194E+02  0.74442219217E+02  0.12700000000E+01 0. -1.
         25    2    1    2    0    0  0.00000000000E+00  0.00000000000E+00 -0.21973354161E+02  0.12691562124E+03  0.12499898648E+03 0.  0.
    9000005    1    3    3    0    0 -0.70500734995E+01 -0.59940716365E+02 -0.27439888963E+02  0.66306413875E+02  0.10000000000E+01 0.  0.
    9000005    1    3    3    0    0  0.70500734995E+01  0.59940716365E+02  0.54665348019E+01  0.60609207365E+02  0.10000000000E+01 0.  0.
<mgrwt>
<rscale>  0 0.12499899E+03</rscale>
<asrwt>0</asrwt>
<pdfrwt beam="1">  1        4 0.80724821E-02 0.12499899E+03</pdfrwt>
<pdfrwt beam="2">  1       -4 0.11452998E-01 0.12499899E+03</pdfrwt>
<totfact> 0.10411218E+04</totfact>
</mgrwt>
</event>
<event>
 5    1  0.3273105E-002  0.1249992E+03  0.7818608E-02  0.1235071E+00
          4   -1    0    0  501    0  0.00000000000E+00  0.00000000000E+00  0.60335352036E+02  0.60348716683E+02  0.12700000000E+01 0.  1.
         -4   -1    0    0    0  501 -0.00000000000E+00 -0.00000000000E+00 -0.64714705708E+02  0.64727166127E+02  0.12700000000E+01 0.  1.
         25    2    1    2    0    0  0.00000000000E+00  0.00000000000E+00 -0.43793536719E+01  0.12507588281E+03  0.12499919089E+03 0.  0.
    9000005    1    3    3    0    0 -0.60381303644E+02  0.52659337150E+00 -0.18293658829E+02  0.63101799370E+02  0.10000000000E+01 0.  0.
    9000005    1    3    3    0    0  0.60381303644E+02 -0.52659337150E+00  0.13914305157E+02  0.61974083441E+02  0.10000000000E+01 0.  0.
<mgrwt>
<rscale>  0 0.12499919E+03</rscale>
<asrwt>0</asrwt>
<pdfrwt beam="1">  1        4 0.92843483E-02 0.12499919E+03</pdfrwt>
<pdfrwt beam="2">  1       -4 0.99580952E-02 0.12499919E+03</pdfrwt>
<totfact> 0.10451406E+04</totfact>
</mgrwt>
</event>
<event>
 5    1  0.3273105E-002  0.1249978E+03  0.7818608E-02  0.1235073E+00
          4   -1    0    0  501    0  0.00000000000E+00  0.00000000000E+00  0.26819450038E+03  0.26819750732E+03  0.12700000000E+01 0. -1.
         -4   -1    0    0    0  501 -0.00000000000E+00 -0.00000000000E+00 -0.14533688338E+02  0.14589071140E+02  0.12700000000E+01 0. -1.
         25    2    1    2    0    0  0.00000000000E+00  0.00000000000E+00  0.25366081204E+03  0.28278657846E+03  0.12499776555E+03 0.  0.
    9000005    1    3    3    0    0  0.26843534002E+02 -0.23993531250E+02  0.24238327234E+03  0.24504472157E+03  0.10000000000E+01 0.  0.
    9000005    1    3    3    0    0 -0.26843534002E+02  0.23993531250E+02  0.11277539696E+02  0.37741856885E+02  0.10000000000E+01 0.  0.
<mgrwt>
<rscale>  0 0.12499777E+03</rscale>
<asrwt>0</asrwt>
<pdfrwt beam="1">  1        4 0.41265183E-01 0.12499777E+03</pdfrwt>
<pdfrwt beam="2">  1       -4 0.22404436E-02 0.12499777E+03</pdfrwt>
<totfact> 0.77813934E+03</totfact>
</mgrwt>
</event>
<event>
 5    1  0.3273105E-002  0.1250008E+03  0.7818608E-02  0.1235068E+00
         -4   -1    0    0    0  501 -0.00000000000E+00  0.00000000000E+00  0.41300873440E+03  0.41301068702E+03  0.12700000000E+01 0. -1.
          4   -1    0    0  501    0  0.00000000000E+00 -0.00000000000E+00 -0.94135340723E+01  0.94988169648E+01  0.12700000000E+01 0. -1.
         25    2    1    2    0    0  0.00000000000E+00  0.00000000000E+00  0.40359520033E+03  0.42250950398E+03  0.12500078091E+03 0.  0.
    9000005    1    3    3    0    0  0.56261889410E+02  0.50435753182E-01  0.10985662313E+03  0.12342965766E+03  0.10000000000E+01 0.  0.
    9000005    1    3    3    0    0 -0.56261889410E+02 -0.50435753182E-01  0.29373857720E+03  0.29907984633E+03  0.10000000000E+01 0.  0.
<mgrwt>
<rscale>  0 0.12500078E+03</rscale>
<asrwt>0</asrwt>
<pdfrwt beam="2">  1        4 0.14549469E-02 0.12500078E+03</pdfrwt>
<pdfrwt beam="1">  1       -4 0.63546495E-01 0.12500078E+03</pdfrwt>
<totfact> 0.62419812E+03</totfact>
</mgrwt>
</event>
<event>
 5    1  0.3273105E-002  0.1250081E+03  0.7818608E-02  0.1235057E+00
         -4   -1    0    0    0  501 -0.00000000000E+00  0.00000000000E+00  0.13533967447E+02  0.13593423956E+02  0.12700000000E+01 0.  1.
          4   -1    0    0  501    0  0.00000000000E+00 -0.00000000000E+00 -0.28796973400E+03  0.28797253445E+03  0.12700000000E+01 0.  1.
         25    2    1    2    0    0  0.00000000000E+00  0.00000000000E+00 -0.27443576655E+03  0.30156595841E+03  0.12500814897E+03 0.  0.
    9000005    1    3    3    0    0 -0.28710169834E+02  0.39907787646E+02 -0.44134954110E+02  0.66074197241E+02  0.10000000000E+01 0.  0.
    9000005    1    3    3    0    0  0.28710169834E+02 -0.39907787646E+02 -0.23030081244E+03  0.23549176117E+03  0.10000000000E+01 0.  0.
<mgrwt>
<rscale>  0 0.12500815E+03</rscale>
<asrwt>0</asrwt>
<pdfrwt beam="2">  1        4 0.44307821E-01 0.12500815E+03</pdfrwt>
<pdfrwt beam="1">  1       -4 0.20869380E-02 0.12500815E+03</pdfrwt>
<totfact> 0.75389191E+03</totfact>
</mgrwt>
</event>
<event>
 5    1  0.3273105E-002  0.1250004E+03  0.7818608E-02  0.1235069E+00
         -4   -1    0    0    0  501 -0.00000000000E+00  0.00000000000E+00  0.23959428199E+02  0.23993063573E+02  0.12700000000E+01 0.  1.
          4   -1    0    0  501    0  0.00000000000E+00 -0.00000000000E+00 -0.16288656095E+03  0.16289151186E+03  0.12700000000E+01 0.  1.
         25    2    1    2    0    0  0.00000000000E+00  0.00000000000E+00 -0.13892713275E+03  0.18688457544E+03  0.12500038529E+03 0.  0.
    9000005    1    3    3    0    0 -0.36651901111E+02 -0.49230231975E+02 -0.87045542181E+02  0.10651245941E+03  0.10000000000E+01 0.  0.
    9000005    1    3    3    0    0  0.36651901111E+02  0.49230231975E+02 -0.51881590568E+02  0.80372116030E+02  0.10000000000E+01 0.  0.
<mgrwt>
<rscale>  0 0.12500039E+03</rscale>
<asrwt>0</asrwt>
<pdfrwt beam="2">  1        4 0.25062438E-01 0.12500039E+03</pdfrwt>
<pdfrwt beam="1">  1       -4 0.36890342E-02 0.12500039E+03</pdfrwt>
<totfact> 0.92391434E+03</totfact>
</mgrwt>
</event>
<event>
 5    1  0.3273105E-002  0.1249970E+03  0.7818608E-02  0.1235074E+00
          4   -1    0    0  501    0  0.00000000000E+00  0.00000000000E+00  0.11220173021E+03  0.11220891748E+03  0.12700000000E+01 0. -1.
         -4   -1    0    0    0  501 -0.00000000000E+00 -0.00000000000E+00 -0.34792952578E+02  0.34816123407E+02  0.12700000000E+01 0. -1.
         25    2    1    2    0    0  0.00000000000E+00  0.00000000000E+00  0.77408777634E+02  0.14702504089E+03  0.12499697514E+03 0.  0.
    9000005    1    3    3    0    0  0.42179832694E+02  0.27993737041E+02 -0.43891628482E+01  0.50823738057E+02  0.10000000000E+01 0.  0.
    9000005    1    3    3    0    0 -0.42179832694E+02 -0.27993737041E+02  0.81797940482E+02  0.96201302833E+02  0.10000000000E+01 0.  0.
<mgrwt>
<rscale>  0 0.12499698E+03</rscale>
<asrwt>0</asrwt>
<pdfrwt beam="1">  1        4 0.17264141E-01 0.12499698E+03</pdfrwt>
<pdfrwt beam="2">  1       -4 0.53550970E-02 0.12499698E+03</pdfrwt>
<totfact> 0.99906855E+03</totfact>
</mgrwt>
</event>
<event>
 5    1  0.3273105E-002  0.1249971E+03  0.7818608E-02  0.1235074E+00
          4   -1    0    0  501    0  0.00000000000E+00  0.00000000000E+00  0.96461124819E+02  0.96469484819E+02  0.12700000000E+01 0.  1.
         -4   -1    0    0    0  501 -0.00000000000E+00 -0.00000000000E+00 -0.40473635561E+02  0.40493555975E+02  0.12700000000E+01 0.  1.
         25    2    1    2    0    0  0.00000000000E+00  0.00000000000E+00  0.55987489258E+02  0.13696304079E+03  0.12499710233E+03 0.  0.
    9000005    1    3    3    0    0 -0.24997908222E+02  0.26529180425E+02 -0.27623321083E+02  0.45746482894E+02  0.10000000000E+01 0.  0.
    9000005    1    3    3    0    0  0.24997908222E+02 -0.26529180425E+02  0.83610810340E+02  0.91216557901E+02  0.10000000000E+01 0.  0.
<mgrwt>
<rscale>  0 0.12499710E+03</rscale>
<asrwt>0</asrwt>
<pdfrwt beam="1">  1        4 0.14842348E-01 0.12499710E+03</pdfrwt>
<pdfrwt beam="2">  1       -4 0.62288886E-02 0.12499710E+03</pdfrwt>
<totfact> 0.10197525E+04</totfact>
</mgrwt>
</event>
<event>
 5    1  0.3273105E-002  0.1250000E+03  0.7818608E-02  0.1235069E+00
          4   -1    0    0  501    0  0.00000000000E+00  0.00000000000E+00  0.31268916059E+03  0.31269173965E+03  0.12700000000E+01 0.  1.
         -4   -1    0    0    0  501 -0.00000000000E+00 -0.00000000000E+00 -0.12457527512E+02  0.12522096139E+02  0.12700000000E+01 0.  1.
         25    2    1    2    0    0  0.00000000000E+00  0.00000000000E+00  0.30023163307E+03  0.32521383579E+03  0.12500002197E+03 0.  0.
    9000005    1    3    3    0    0  0.53681457001E+02 -0.28317106992E+02  0.18885370045E+03  0.19836904382E+03  0.10000000000E+01 0.  0.
    9000005    1    3    3    0    0 -0.53681457001E+02  0.28317106992E+02  0.11137793263E+03  0.12684479197E+03  0.10000000000E+01 0.  0.
<mgrwt>
<rscale>  0 0.12500002E+03</rscale>
<asrwt>0</asrwt>
<pdfrwt beam="1">  1        4 0.48111184E-01 0.12500002E+03</pdfrwt>
<pdfrwt beam="2">  1       -4 0.19217082E-02 0.12500002E+03</pdfrwt>
<totfact> 0.72540237E+03</totfact>
</mgrwt>
</event>
<event>
 5    1  0.3273105E-002  0.1250010E+03  0.7818608E-02  0.1235068E+00
         -4   -1    0    0    0  501 -0.00000000000E+00  0.00000000000E+00  0.12670781918E+03  0.12671418367E+03  0.12700000000E+01 0.  1.
          4   -1    0    0  501    0  0.00000000000E+00 -0.00000000000E+00 -0.30809060996E+02  0.30835225626E+02  0.12700000000E+01 0.  1.
         25    2    1    2    0    0  0.00000000000E+00  0.00000000000E+00  0.95898758188E+02  0.15754940929E+03  0.12500097818E+03 0.  0.
    9000005    1    3    3    0    0 -0.60692364893E+02  0.29554553760E+01  0.29554086884E+02  0.67577673269E+02  0.10000000000E+01 0.  0.
    9000005    1    3    3    0    0  0.60692364893E+02 -0.29554553760E+01  0.66344671304E+02  0.89971736024E+02  0.10000000000E+01 0.  0.
<mgrwt>
<rscale>  0 0.12500098E+03</rscale>
<asrwt>0</asrwt>
<pdfrwt beam="2">  1        4 0.47423578E-02 0.12500098E+03</pdfrwt>
<pdfrwt beam="1">  1       -4 0.19496013E-01 0.12500098E+03</pdfrwt>
<totfact> 0.97815179E+03</totfact>
</mgrwt>
</event>
<event>
 5    1  0.3273105E-002  0.1250003E+03  0.7818608E-02  0.1235069E+00
          4   -1    0    0  501    0  0.00000000000E+00  0.00000000000E+00  0.46815224117E+02  0.46832447183E+02  0.12700000000E+01 0. -1.
         -4   -1    0    0    0  501 -0.00000000000E+00 -0.00000000000E+00 -0.83402681508E+02  0.83412350301E+02  0.12700000000E+01 0. -1.
         25    2    1    2    0    0  0.00000000000E+00  0.00000000000E+00 -0.36587457391E+02  0.13024479748E+03  0.12500026093E+03 0.  0.
    9000005    1    3    3    0    0  0.37834219915E+02  0.31081170780E+02  0.22165833708E+02  0.53756781503E+02  0.10000000000E+01 0.  0.
    9000005    1    3    3    0    0 -0.37834219915E+02 -0.31081170780E+02 -0.58753291099E+02  0.76488015980E+02  0.10000000000E+01 0.  0.
<mgrwt>
<rscale>  0 0.12500026E+03</rscale>
<asrwt>0</asrwt>
<pdfrwt beam="1">  1        4 0.72044108E-02 0.12500026E+03</pdfrwt>
<pdfrwt beam="2">  1       -4 0.12833250E-01 0.12500026E+03</pdfrwt>
<totfact> 0.10339213E+04</totfact>
</mgrwt>
</event>
<event>
 5    1  0.3273105E-002  0.1249989E+03  0.7818608E-02  0.1235071E+00
          4   -1    0    0  501    0  0.00000000000E+00  0.00000000000E+00  0.68389618349E+02  0.68401409327E+02  0.12700000000E+01 0. -1.
         -4   -1    0    0    0  501 -0.00000000000E+00 -0.00000000000E+00 -0.57092790938E+02  0.57106914442E+02  0.12700000000E+01 0. -1.
         25    2    1    2    0    0  0.00000000000E+00  0.00000000000E+00  0.11296827411E+02  0.12550832377E+03  0.12499888410E+03 0.  0.
    9000005    1    3    3    0    0  0.13921528161E+02  0.71789400863E+01  0.66391533655E+02  0.68221564539E+02  0.10000000000E+01 0.  0.
    9000005    1    3    3    0    0 -0.13921528161E+02 -0.71789400863E+01 -0.55094706243E+02  0.57286759231E+02  0.10000000000E+01 0.  0.
<mgrwt>
<rscale>  0 0.12499888E+03</rscale>
<asrwt>0</asrwt>
<pdfrwt beam="1">  1        4 0.10523473E-01 0.12499888E+03</pdfrwt>
<pdfrwt beam="2">  1       -4 0.87854998E-02 0.12499888E+03</pdfrwt>
<totfact> 0.10442033E+04</totfact>
</mgrwt>
</event>
<event>
 5    1  0.3273105E-002  0.1249918E+03  0.7818608E-02  0.1235082E+00
         -4   -1    0    0    0  501 -0.00000000000E+00  0.00000000000E+00  0.77444852213E+02  0.77455264730E+02  0.12700000000E+01 0.  1.
          4   -1    0    0  501    0  0.00000000000E+00 -0.00000000000E+00 -0.50410720176E+02  0.50426715228E+02  0.12700000000E+01 0.  1.
         25    2    1    2    0    0  0.00000000000E+00  0.00000000000E+00  0.27034132037E+02  0.12788197996E+03  0.12499182574E+03 0.  0.
    9000005    1    3    3    0    0  0.31467520430E+01  0.33307544216E+02 -0.40480601513E+02  0.52525933109E+02  0.10000000000E+01 0.  0.
    9000005    1    3    3    0    0 -0.31467520430E+01 -0.33307544216E+02  0.67514733551E+02  0.75356046848E+02  0.10000000000E+01 0.  0.
<mgrwt>
<rscale>  0 0.12499183E+03</rscale>
<asrwt>0</asrwt>
<pdfrwt beam="2">  1        4 0.77575268E-02 0.12499183E+03</pdfrwt>
<pdfrwt beam="1">  1       -4 0.11916624E-01 0.12499183E+03</pdfrwt>
<totfact> 0.10391955E+04</totfact>
</mgrwt>
</event>
<event>
 5    1  0.3273105E-002  0.1250006E+03  0.7818608E-02  0.1235068E+00
          4   -1    0    0  501    0  0.00000000000E+00  0.00000000000E+00  0.14219047474E+03  0.14219614624E+03  0.12700000000E+01 0.  1.
         -4   -1    0    0    0  501 -0.00000000000E+00 -0.00000000000E+00 -0.27451303015E+02  0.27480664789E+02  0.12700000000E+01 0.  1.
         25    2    1    2    0    0  0.00000000000E+00  0.00000000000E+00  0.11473917172E+03  0.16967681103E+03  0.12500057070E+03 0.  0.
    9000005    1    3    3    0    0 -0.39746621187E+02  0.39420981583E+01 -0.78701119778E+01  0.40721894556E+02  0.10000000000E+01 0.  0.
    9000005    1    3    3    0    0  0.39746621187E+02 -0.39420981583E+01  0.12260928370E+03  0.12895491648E+03  0.10000000000E+01 0.  0.
<mgrwt>
<rscale>  0 0.12500057E+03</rscale>
<asrwt>0</asrwt>
<pdfrwt beam="1">  1        4 0.21878153E-01 0.12500057E+03</pdfrwt>
<pdfrwt beam="2">  1       -4 0.42259722E-02 0.12500057E+03</pdfrwt>
<totfact> 0.95507685E+03</totfact>
</mgrwt>
</event>
<event>
 5    1  0.3273105E-002  0.1250010E+03  0.7818608E-02  0.1235068E+00
         -4   -1    0    0    0  501 -0.00000000000E+00  0.00000000000E+00  0.38964627792E+02  0.38985319275E+02  0.12700000000E+01 0.  1.
          4   -1    0    0  501    0  0.00000000000E+00 -0.00000000000E+00 -0.10020147081E+03  0.10020951877E+03  0.12700000000E+01 0.  1.
         25    2    1    2    0    0  0.00000000000E+00  0.00000000000E+00 -0.61236843017E+02  0.13919483805E+03  0.12500100798E+03 0.  0.
    9000005    1    3    3    0    0  0.39327158117E+02 -0.30383327461E+02 -0.72809188666E+02  0.88158663257E+02  0.10000000000E+01 0.  0.
    9000005    1    3    3    0    0 -0.39327158117E+02  0.30383327461E+02  0.11572345649E+02  0.51036174788E+02  0.10000000000E+01 0.  0.
<mgrwt>
<rscale>  0 0.12500101E+03</rscale>
<asrwt>0</asrwt>
<pdfrwt beam="2">  1        4 0.15417821E-01 0.12500101E+03</pdfrwt>
<pdfrwt beam="1">  1       -4 0.59967689E-02 0.12500101E+03</pdfrwt>
<totfact> 0.10150070E+04</totfact>
</mgrwt>
</event>
<event>
 5    1  0.3273105E-002  0.1249903E+03  0.7818608E-02  0.1235084E+00
         -4   -1    0    0    0  501 -0.00000000000E+00  0.00000000000E+00  0.13388753606E+03  0.13389355926E+03  0.12700000000E+01 0. -1.
          4   -1    0    0  501    0  0.00000000000E+00 -0.00000000000E+00 -0.29150572854E+02  0.29178224718E+02  0.12700000000E+01 0. -1.
         25    2    1    2    0    0  0.00000000000E+00  0.00000000000E+00  0.10473696320E+03  0.16307178398E+03  0.12499030070E+03 0.  0.
    9000005    1    3    3    0    0 -0.49317851037E+02  0.31180104336E+02  0.81547585926E+02  0.10027690715E+03  0.10000000000E+01 0.  0.
    9000005    1    3    3    0    0  0.49317851037E+02 -0.31180104336E+02  0.23189377278E+02  0.62794876829E+02  0.10000000000E+01 0.  0.
<mgrwt>
<rscale>  0 0.12499030E+03</rscale>
<asrwt>0</asrwt>
<pdfrwt beam="2">  1        4 0.44872939E-02 0.12499030E+03</pdfrwt>
<pdfrwt beam="1">  1       -4 0.20600673E-01 0.12499030E+03</pdfrwt>
<totfact> 0.96774906E+03</totfact>
</mgrwt>
</event>
<event>
 5    1  0.3273105E-002  0.1249982E+03  0.7818608E-02  0.1235072E+00
          4   -1    0    0  501    0  0.00000000000E+00  0.00000000000E+00  0.90497025814E+02  0.90505936717E+02  0.12700000000E+01 0.  1.
         -4   -1    0    0    0  501 -0.00000000000E+00 -0.00000000000E+00 -0.43142809653E+02  0.43161498175E+02  0.12700000000E+01 0.  1.
         25    2    1    2    0    0  0.00000000000E+00  0.00000000000E+00  0.47354216161E+02  0.13366743489E+03  0.12499824544E+03 0.  0.
    9000005    1    3    3    0    0 -0.36741221042E+02  0.47515089328E+02  0.42122754000E+02  0.73368436279E+02  0.10000000000E+01 0.  0.
    9000005    1    3    3    0    0  0.36741221042E+02 -0.47515089328E+02  0.52314621611E+01  0.60298998614E+02  0.10000000000E+01 0.  0.
<mgrwt>
<rscale>  0 0.12499825E+03</rscale>
<asrwt>0</asrwt>
<pdfrwt beam="1">  1        4 0.13924742E-01 0.12499825E+03</pdfrwt>
<pdfrwt beam="2">  1       -4 0.66394784E-02 0.12499825E+03</pdfrwt>
<totfact> 0.10266641E+04</totfact>
</mgrwt>
</event>
<event>
 5    1  0.3273105E-002  0.1249981E+03  0.7818608E-02  0.1235072E+00
         -4   -1    0    0    0  501 -0.00000000000E+00  0.00000000000E+00  0.87024912905E+02  0.87034179298E+02  0.12700000000E+01 0. -1.
          4   -1    0    0  501    0  0.00000000000E+00 -0.00000000000E+00 -0.44864575460E+02  0.44882547067E+02  0.12700000000E+01 0. -1.
         25    2    1    2    0    0  0.00000000000E+00  0.00000000000E+00  0.42160337444E+02  0.13191672637E+03  0.12499811455E+03 0.  0.
    9000005    1    3    3    0    0 -0.42569109684E+02 -0.29450424549E+02 -0.15867255356E+02  0.54150035992E+02  0.10000000000E+01 0.  0.
    9000005    1    3    3    0    0  0.42569109684E+02  0.29450424549E+02  0.58027592800E+02  0.77766690373E+02  0.10000000000E+01 0.  0.
<mgrwt>
<rscale>  0 0.12499811E+03</rscale>
<asrwt>0</asrwt>
<pdfrwt beam="2">  1        4 0.69043377E-02 0.12499811E+03</pdfrwt>
<pdfrwt beam="1">  1       -4 0.13390543E-01 0.12499811E+03</pdfrwt>
<totfact> 0.10303914E+04</totfact>
</mgrwt>
</event>
<event>
 5    1  0.3273105E-002  0.1249984E+03  0.7818608E-02  0.1235072E+00
         -4   -1    0    0    0  501 -0.00000000000E+00  0.00000000000E+00  0.40988240216E+03  0.40988436968E+03  0.12700000000E+01 0.  1.
          4   -1    0    0  501    0  0.00000000000E+00 -0.00000000000E+00 -0.94856177452E+01  0.95702583041E+01  0.12700000000E+01 0.  1.
         25    2    1    2    0    0  0.00000000000E+00  0.00000000000E+00  0.40039678442E+03  0.41945462798E+03  0.12499839983E+03 0.  0.
    9000005    1    3    3    0    0 -0.29255262091E+02  0.31243305300E+02  0.35298819900E+03  0.35557514413E+03  0.10000000000E+01 0.  0.
    9000005    1    3    3    0    0  0.29255262091E+02 -0.31243305300E+02  0.47408585419E+02  0.63879483854E+02  0.10000000000E+01 0.  0.
<mgrwt>
<rscale>  0 0.12499840E+03</rscale>
<asrwt>0</asrwt>
<pdfrwt beam="2">  1        4 0.14659881E-02 0.12499840E+03</pdfrwt>
<pdfrwt beam="1">  1       -4 0.63065488E-01 0.12499840E+03</pdfrwt>
<totfact> 0.62705851E+03</totfact>
</mgrwt>
</event>
<event>
 5    1  0.3273105E-002  0.1250118E+03  0.7818608E-02  0.1235051E+00
          4   -1    0    0  501    0  0.00000000000E+00  0.00000000000E+00  0.83092317647E+02  0.83102022550E+02  0.12700000000E+01 0. -1.
         -4   -1    0    0    0  501 -0.00000000000E+00 -0.00000000000E+00 -0.46998782416E+02  0.47015938240E+02  0.12700000000E+01 0. -1.
         25    2    1    2    0    0  0.00000000000E+00  0.00000000000E+00  0.36093535230E+02  0.13011796079E+03  0.12501176119E+03 0.  0.
    9000005    1    3    3    0    0 -0.60422465217E+02 -0.15949590040E+02  0.17162732700E+02  0.64813757175E+02  0.10000000000E+01 0.  0.
    9000005    1    3    3    0    0  0.60422465217E+02  0.15949590040E+02  0.18930802530E+02  0.65304203615E+02  0.10000000000E+01 0.  0.
<mgrwt>
<rscale>  0 0.12501176E+03</rscale>
<asrwt>0</asrwt>
<pdfrwt beam="1">  1        4 0.12785500E-01 0.12501176E+03</pdfrwt>
<pdfrwt beam="2">  1       -4 0.72326482E-02 0.12501176E+03</pdfrwt>
<totfact> 0.10339240E+04</totfact>
</mgrwt>
</event>
<event>
 5    1  0.3273105E-002  0.1250031E+03  0.7818608E-02  0.1235064E+00
          4   -1    0    0  501    0  0.00000000000E+00  0.00000000000E+00  0.41327288529E+02  0.41346797665E+02  0.12700000000E+01 0.  1.
         -4   -1    0    0    0  501 -0.00000000000E+00 -0.00000000000E+00 -0.94478539701E+02  0.94487075116E+02  0.12700000000E+01 0.  1.
         25    2    1    2    0    0  0.00000000000E+00  0.00000000000E+00 -0.53151251172E+02  0.13583387278E+03  0.12500314193E+03 0.  0.
    9000005    1    3    3    0    0  0.57852150936E+02  0.18295845823E+02 -0.42833101618E+02  0.74278421742E+02  0.10000000000E+01 0.  0.
    9000005    1    3    3    0    0 -0.57852150936E+02 -0.18295845823E+02 -0.10318149554E+02  0.61555451039E+02  0.10000000000E+01 0.  0.
<mgrwt>
<rscale>  0 0.12500314E+03</rscale>
<asrwt>0</asrwt>
<pdfrwt beam="1">  1        4 0.63602017E-02 0.12500314E+03</pdfrwt>
<pdfrwt beam="2">  1       -4 0.14537317E-01 0.12500314E+03</pdfrwt>
<totfact> 0.10219801E+04</totfact>
</mgrwt>
</event>
<event>
 5    1  0.3273105E-002  0.1249922E+03  0.7818608E-02  0.1235081E+00
         -4   -1    0    0    0  501 -0.00000000000E+00  0.00000000000E+00  0.85598274108E+03  0.85598368322E+03  0.12700000000E+01 0. -1.
          4   -1    0    0  501    0  0.00000000000E+00 -0.00000000000E+00 -0.44735684613E+01  0.46503456622E+01  0.12700000000E+01 0. -1.
         25    2    1    2    0    0  0.00000000000E+00  0.00000000000E+00  0.85150917262E+03  0.86063402888E+03  0.12499224218E+03 0.  0.
    9000005    1    3    3    0    0 -0.56603495992E+02 -0.14726595353E+02  0.57722568345E+03  0.58018214209E+03  0.10000000000E+01 0.  0.
    9000005    1    3    3    0    0  0.56603495992E+02  0.14726595353E+02  0.27428348918E+03  0.28045188679E+03  0.10000000000E+01 0.  0.
<mgrwt>
<rscale>  0 0.12499224E+03</rscale>
<asrwt>0</asrwt>
<pdfrwt beam="2">  1        4 0.70191150E-03 0.12499224E+03</pdfrwt>
<pdfrwt beam="1">  1       -4 0.13170342E+00 0.12499224E+03</pdfrwt>
<totfact> 0.35702099E+03</totfact>
</mgrwt>
</event>
<event>
 5    1  0.3273105E-002  0.1249634E+03  0.7818608E-02  0.1235127E+00
         -4   -1    0    0    0  501 -0.00000000000E+00  0.00000000000E+00  0.43487188193E+01  0.45303703346E+01  0.12700000000E+01 0.  1.
          4   -1    0    0  501    0  0.00000000000E+00 -0.00000000000E+00 -0.87917868136E+03  0.87917959864E+03  0.12700000000E+01 0.  1.
         25    2    1    2    0    0  0.00000000000E+00  0.00000000000E+00 -0.87482996254E+03  0.88370996897E+03  0.12496337823E+03 0.  0.
    9000005    1    3    3    0    0 -0.61616751443E+02 -0.66598616842E+01 -0.49309067038E+03  0.49697121349E+03  0.10000000000E+01 0.  0.
    9000005    1    3    3    0    0  0.61616751443E+02  0.66598616842E+01 -0.38173929216E+03  0.38673875548E+03  0.10000000000E+01 0.  0.
<mgrwt>
<rscale>  0 0.12496338E+03</rscale>
<asrwt>0</asrwt>
<pdfrwt beam="2">  1        4 0.13527216E+00 0.12496338E+03</pdfrwt>
<pdfrwt beam="1">  1       -4 0.68307812E-03 0.12496338E+03</pdfrwt>
<totfact> 0.34814010E+03</totfact>
</mgrwt>
</event>
<event>
 5    1  0.3273105E-002  0.1250000E+03  0.7818608E-02  0.1235069E+00
          4   -1    0    0  501    0  0.00000000000E+00  0.00000000000E+00  0.20064283465E+02  0.20104436599E+02  0.12700000000E+01 0. -1.
         -4   -1    0    0    0  501 -0.00000000000E+00 -0.00000000000E+00 -0.19444993990E+03  0.19445408720E+03  0.12700000000E+01 0. -1.
         25    2    1    2    0    0  0.00000000000E+00  0.00000000000E+00 -0.17438565643E+03  0.21455852380E+03  0.12500001185E+03 0.  0.
    9000005    1    3    3    0    0  0.28594693341E+02  0.54399289652E+02 -0.10663606544E+03  0.12308204441E+03  0.10000000000E+01 0.  0.
    9000005    1    3    3    0    0 -0.28594693341E+02 -0.54399289652E+02 -0.67749590991E+02  0.91476479388E+02  0.10000000000E+01 0.  0.
<mgrwt>
<rscale>  0 0.12500001E+03</rscale>
<asrwt>0</asrwt>
<pdfrwt beam="1">  1        4 0.30902207E-02 0.12500001E+03</pdfrwt>
<pdfrwt beam="2">  1       -4 0.29918782E-01 0.12500001E+03</pdfrwt>
<totfact> 0.87736761E+03</totfact>
</mgrwt>
</event>
<event>
 5    1  0.3273105E-002  0.1250016E+03  0.7818608E-02  0.1235067E+00
         -4   -1    0    0    0  501 -0.00000000000E+00  0.00000000000E+00  0.20339619142E+03  0.20340015631E+03  0.12700000000E+01 0. -1.
          4   -1    0    0  501    0  0.00000000000E+00 -0.00000000000E+00 -0.19180459920E+02  0.19222459331E+02  0.12700000000E+01 0. -1.
         25    2    1    2    0    0  0.00000000000E+00  0.00000000000E+00  0.18421573150E+03  0.22262261564E+03  0.12500157303E+03 0.  0.
    9000005    1    3    3    0    0 -0.37402134928E+02 -0.15847444466E+02  0.75303893194E+01  0.41325149202E+02  0.10000000000E+01 0.  0.
    9000005    1    3    3    0    0  0.37402134928E+02  0.15847444466E+02  0.17668534218E+03  0.18129746643E+03  0.10000000000E+01 0.  0.
<mgrwt>
<rscale>  0 0.12500157E+03</rscale>
<asrwt>0</asrwt>
<pdfrwt beam="2">  1        4 0.29543759E-02 0.12500157E+03</pdfrwt>
<pdfrwt beam="1">  1       -4 0.31295255E-01 0.12500157E+03</pdfrwt>
<totfact> 0.86452013E+03</totfact>
</mgrwt>
</event>
<event>
 5    1  0.3273105E-002  0.1250012E+03  0.7818608E-02  0.1235067E+00
          4   -1    0    0  501    0  0.00000000000E+00  0.00000000000E+00  0.41985458745E+03  0.41985650823E+03  0.12700000000E+01 0.  1.
         -4   -1    0    0    0  501 -0.00000000000E+00 -0.00000000000E+00 -0.92587110187E+01  0.93454068786E+01  0.12700000000E+01 0.  1.
         25    2    1    2    0    0  0.00000000000E+00  0.00000000000E+00  0.41059587643E+03  0.42920191511E+03  0.12500124075E+03 0.  0.
    9000005    1    3    3    0    0  0.33707195107E+01  0.51439165712E+02  0.32659514413E+03  0.33063989126E+03  0.10000000000E+01 0.  0.
    9000005    1    3    3    0    0 -0.33707195107E+01 -0.51439165712E+02  0.84000732302E+02  0.98562023855E+02  0.10000000000E+01 0.  0.
<mgrwt>
<rscale>  0 0.12500124E+03</rscale>
<asrwt>0</asrwt>
<pdfrwt beam="1">  1        4 0.64599811E-01 0.12500124E+03</pdfrwt>
<pdfrwt beam="2">  1       -4 0.14312342E-02 0.12500124E+03</pdfrwt>
<totfact> 0.61806718E+03</totfact>
</mgrwt>
</event>
<event>
 5    1  0.3273105E-002  0.1250013E+03  0.7818608E-02  0.1235067E+00
         -4   -1    0    0    0  501 -0.00000000000E+00  0.00000000000E+00  0.42949412221E+02  0.42968184860E+02  0.12700000000E+01 0. -1.
          4   -1    0    0  501    0  0.00000000000E+00 -0.00000000000E+00 -0.90908832827E+02  0.90917703370E+02  0.12700000000E+01 0. -1.
         25    2    1    2    0    0  0.00000000000E+00  0.00000000000E+00 -0.47959420606E+02  0.13388588823E+03  0.12500130016E+03 0.  0.
    9000005    1    3    3    0    0  0.39542970182E+02  0.36767422649E+02  0.97182086434E+01  0.54871973158E+02  0.10000000000E+01 0.  0.
    9000005    1    3    3    0    0 -0.39542970182E+02 -0.36767422649E+02 -0.57677629250E+02  0.79013915071E+02  0.10000000000E+01 0.  0.
<mgrwt>
<rscale>  0 0.12500130E+03</rscale>
<asrwt>0</asrwt>
<pdfrwt beam="2">  1        4 0.13988101E-01 0.12500130E+03</pdfrwt>
<pdfrwt beam="1">  1       -4 0.66097283E-02 0.12500130E+03</pdfrwt>
<totfact> 0.10261306E+04</totfact>
</mgrwt>
</event>
<event>
 5    1  0.3273105E-002  0.1249962E+03  0.7818608E-02  0.1235075E+00
          4   -1    0    0  501    0  0.00000000000E+00  0.00000000000E+00  0.11293761604E+02  0.11364943958E+02  0.12700000000E+01 0.  1.
         -4   -1    0    0    0  501 -0.00000000000E+00 -0.00000000000E+00 -0.34469707414E+03  0.34469941373E+03  0.12700000000E+01 0.  1.
         25    2    1    2    0    0  0.00000000000E+00  0.00000000000E+00 -0.33340331254E+03  0.35606435769E+03  0.12499623195E+03 0.  0.
    9000005    1    3    3    0    0  0.46931058967E+02  0.60480282059E+01 -0.28296894689E+03  0.28689985682E+03  0.10000000000E+01 0.  0.
    9000005    1    3    3    0    0 -0.46931058967E+02 -0.60480282059E+01 -0.50434365649E+02  0.69164500862E+02  0.10000000000E+01 0.  0.
<mgrwt>
<rscale>  0 0.12499623E+03</rscale>
<asrwt>0</asrwt>
<pdfrwt beam="1">  1        4 0.17431576E-02 0.12499623E+03</pdfrwt>
<pdfrwt beam="2">  1       -4 0.53035967E-01 0.12499623E+03</pdfrwt>
<totfact> 0.69068276E+03</totfact>
</mgrwt>
</event>
<event>
 5    1  0.3273105E-002  0.1250019E+03  0.7818608E-02  0.1235066E+00
         -4   -1    0    0    0  501 -0.00000000000E+00  0.00000000000E+00  0.48019871272E+01  0.49670897284E+01  0.12700000000E+01 0. -1.
          4   -1    0    0  501    0  0.00000000000E+00 -0.00000000000E+00 -0.79957584898E+03  0.79957685757E+03  0.12700000000E+01 0. -1.
         25    2    1    2    0    0  0.00000000000E+00  0.00000000000E+00 -0.79477386185E+03  0.80454394730E+03  0.12500188663E+03 0.  0.
    9000005    1    3    3    0    0 -0.94199045142E+01  0.57707825436E+02 -0.53934102820E+03  0.54250223264E+03  0.10000000000E+01 0.  0.
    9000005    1    3    3    0    0  0.94199045142E+01 -0.57707825436E+02 -0.25543283364E+03  0.26204171466E+03  0.10000000000E+01 0.  0.
<mgrwt>
<rscale>  0 0.12500189E+03</rscale>
<asrwt>0</asrwt>
<pdfrwt beam="2">  1        4 0.12302434E+00 0.12500189E+03</pdfrwt>
<pdfrwt beam="1">  1       -4 0.75154567E-03 0.12500189E+03</pdfrwt>
<totfact> 0.38061134E+03</totfact>
</mgrwt>
</event>
<event>
 5    1  0.3273105E-002  0.1250033E+03  0.7818608E-02  0.1235064E+00
         -4   -1    0    0    0  501 -0.00000000000E+00  0.00000000000E+00  0.11071291039E+03  0.11072019431E+03  0.12700000000E+01 0. -1.
          4   -1    0    0  501    0  0.00000000000E+00 -0.00000000000E+00 -0.35264672032E+02  0.35287533118E+02  0.12700000000E+01 0. -1.
         25    2    1    2    0    0  0.00000000000E+00  0.00000000000E+00  0.75448238360E+02  0.14600772743E+03  0.12500327914E+03 0.  0.
    9000005    1    3    3    0    0 -0.96508546177E+01  0.32303625429E+02  0.99185113324E+02  0.10476330424E+03  0.10000000000E+01 0.  0.
    9000005    1    3    3    0    0  0.96508546177E+01 -0.32303625429E+02 -0.23736874964E+02  0.41244423183E+02  0.10000000000E+01 0.  0.
<mgrwt>
<rscale>  0 0.12500328E+03</rscale>
<asrwt>0</asrwt>
<pdfrwt beam="2">  1        4 0.54276530E-02 0.12500328E+03</pdfrwt>
<pdfrwt beam="1">  1       -4 0.17035074E-01 0.12500328E+03</pdfrwt>
<totfact> 0.10009815E+04</totfact>
</mgrwt>
</event>
<event>
 5    1  0.3273105E-002  0.1250010E+03  0.7818608E-02  0.1235068E+00
          4   -1    0    0  501    0  0.00000000000E+00  0.00000000000E+00  0.68339444393E+01  0.69509493308E+01  0.12700000000E+01 0. -1.
         -4   -1    0    0    0  501 -0.00000000000E+00 -0.00000000000E+00 -0.56663507910E+03  0.56663650233E+03  0.12700000000E+01 0. -1.
         25    2    1    2    0    0  0.00000000000E+00  0.00000000000E+00 -0.55980113466E+03  0.57358745166E+03  0.12500101731E+03 0.  0.
    9000005    1    3    3    0    0  0.54603222712E+02 -0.22527304182E+02 -0.18627361462E+03  0.19541712020E+03  0.10000000000E+01 0.  0.
    9000005    1    3    3    0    0 -0.54603222712E+02  0.22527304182E+02 -0.37352752005E+03  0.37817033146E+03  0.10000000000E+01 0.  0.
<mgrwt>
<rscale>  0 0.12500102E+03</rscale>
<asrwt>0</asrwt>
<pdfrwt beam="1">  1        4 0.10604864E-02 0.12500102E+03</pdfrwt>
<pdfrwt beam="2">  1       -4 0.87183701E-01 0.12500102E+03</pdfrwt>
<totfact> 0.50577336E+03</totfact>
</mgrwt>
</event>
<event>
 5    1  0.3273105E-002  0.1249839E+03  0.7818608E-02  0.1235094E+00
         -4   -1    0    0    0  501 -0.00000000000E+00  0.00000000000E+00  0.11994406112E+02  0.12061454224E+02  0.12700000000E+01 0. -1.
          4   -1    0    0  501    0  0.00000000000E+00 -0.00000000000E+00 -0.32461299393E+03  0.32461547826E+03  0.12700000000E+01 0. -1.
         25    2    1    2    0    0  0.00000000000E+00  0.00000000000E+00 -0.31261858782E+03  0.33667693248E+03  0.12498390064E+03 0.  0.
    9000005    1    3    3    0    0 -0.10569542933E+02 -0.38727447813E+02 -0.28529279823E+03  0.28810503497E+03  0.10000000000E+01 0.  0.
    9000005    1    3    3    0    0  0.10569542933E+02  0.38727447813E+02 -0.27325789585E+02  0.48571897517E+02  0.10000000000E+01 0.  0.
<mgrwt>
<rscale>  0 0.12498390E+03</rscale>
<asrwt>0</asrwt>
<pdfrwt beam="2">  1        4 0.49945803E-01 0.12498390E+03</pdfrwt>
<pdfrwt beam="1">  1       -4 0.18506421E-02 0.12498390E+03</pdfrwt>
<totfact> 0.71240962E+03</totfact>
</mgrwt>
</event>
<event>
 5    1  0.3273105E-002  0.1250006E+03  0.7818608E-02  0.1235068E+00
          4   -1    0    0  501    0  0.00000000000E+00  0.00000000000E+00  0.50011424676E+02  0.50027547393E+02  0.12700000000E+01 0.  1.
         -4   -1    0    0    0  501 -0.00000000000E+00 -0.00000000000E+00 -0.78073988239E+02  0.78084316860E+02  0.12700000000E+01 0.  1.
         25    2    1    2    0    0  0.00000000000E+00  0.00000000000E+00 -0.28062563563E+02  0.12811186425E+03  0.12500056915E+03 0.  0.
    9000005    1    3    3    0    0 -0.36902168854E+02  0.48995386058E+02 -0.26285800274E+02  0.66740251851E+02  0.10000000000E+01 0.  0.
    9000005    1    3    3    0    0  0.36902168854E+02 -0.48995386058E+02 -0.17767632890E+01  0.61371612402E+02  0.10000000000E+01 0.  0.
<mgrwt>
<rscale>  0 0.12500057E+03</rscale>
<asrwt>0</asrwt>
<pdfrwt beam="1">  1        4 0.76961001E-02 0.12500057E+03</pdfrwt>
<pdfrwt beam="2">  1       -4 0.12013418E-01 0.12500057E+03</pdfrwt>
<totfact> 0.10384939E+04</totfact>
</mgrwt>
</event>
<event>
 5    1  0.3273105E-002  0.1249991E+03  0.7818608E-02  0.1235071E+00
         -4   -1    0    0    0  501 -0.00000000000E+00  0.00000000000E+00  0.51623954983E+03  0.51624111199E+03  0.12700000000E+01 0. -1.
          4   -1    0    0  501    0  0.00000000000E+00 -0.00000000000E+00 -0.75117580894E+01  0.76183600331E+01  0.12700000000E+01 0. -1.
         25    2    1    2    0    0  0.00000000000E+00  0.00000000000E+00  0.50872779174E+03  0.52385947203E+03  0.12499912135E+03 0.  0.
    9000005    1    3    3    0    0 -0.61462144392E+02 -0.11075969347E+02  0.24506537869E+03  0.25289980649E+03  0.10000000000E+01 0.  0.
    9000005    1    3    3    0    0  0.61462144392E+02  0.11075969347E+02  0.26366241305E+03  0.27095966554E+03  0.10000000000E+01 0.  0.
<mgrwt>
<rscale>  0 0.12499912E+03</rscale>
<asrwt>0</asrwt>
<pdfrwt beam="2">  1        4 0.11639752E-02 0.12499912E+03</pdfrwt>
<pdfrwt beam="1">  1       -4 0.79429802E-01 0.12499912E+03</pdfrwt>
<totfact> 0.54060585E+03</totfact>
</mgrwt>
</event>
<event>
 5    1  0.3273105E-002  0.1249932E+03  0.7818608E-02  0.1235080E+00
          4   -1    0    0  501    0  0.00000000000E+00  0.00000000000E+00  0.44269194202E+03  0.44269376371E+03  0.12700000000E+01 0.  1.
         -4   -1    0    0    0  501 -0.00000000000E+00 -0.00000000000E+00 -0.87753443442E+01  0.88667676387E+01  0.12700000000E+01 0.  1.
         25    2    1    2    0    0  0.00000000000E+00  0.00000000000E+00  0.43391659767E+03  0.45156053135E+03  0.12499319876E+03 0.  0.
    9000005    1    3    3    0    0 -0.32844763909E+01  0.61964301142E+02  0.19029717149E+03  0.20016087500E+03  0.10000000000E+01 0.  0.
    9000005    1    3    3    0    0  0.32844763909E+01 -0.61964301142E+02  0.24361942618E+03  0.25139965635E+03  0.10000000000E+01 0.  0.
<mgrwt>
<rscale>  0 0.12499320E+03</rscale>
<asrwt>0</asrwt>
<pdfrwt beam="1">  1        4 0.68113618E-01 0.12499320E+03</pdfrwt>
<pdfrwt beam="2">  1       -4 0.13572258E-02 0.12499320E+03</pdfrwt>
<totfact> 0.59837809E+03</totfact>
</mgrwt>
</event>
<event>
 5    1  0.3273105E-002  0.1250006E+03  0.7818608E-02  0.1235068E+00
          4   -1    0    0  501    0  0.00000000000E+00  0.00000000000E+00  0.10009320419E+03  0.10010126086E+03  0.12700000000E+01 0.  1.
         -4   -1    0    0    0  501 -0.00000000000E+00 -0.00000000000E+00 -0.39006565767E+02  0.39027235016E+02  0.12700000000E+01 0.  1.
         25    2    1    2    0    0  0.00000000000E+00  0.00000000000E+00  0.61086638422E+02  0.13912849587E+03  0.12500064388E+03 0.  0.
    9000005    1    3    3    0    0  0.37696041476E+02 -0.34442457835E+02 -0.95566305925E+01  0.51957710044E+02  0.10000000000E+01 0.  0.
    9000005    1    3    3    0    0 -0.37696041476E+02  0.34442457835E+02  0.70643269014E+02  0.87170785827E+02  0.10000000000E+01 0.  0.
<mgrwt>
<rscale>  0 0.12500064E+03</rscale>
<asrwt>0</asrwt>
<pdfrwt beam="1">  1        4 0.15401164E-01 0.12500064E+03</pdfrwt>
<pdfrwt beam="2">  1       -4 0.60032198E-02 0.12500064E+03</pdfrwt>
<totfact> 0.10151533E+04</totfact>
</mgrwt>
</event>
<event>
 5    1  0.3273105E-002  0.1250017E+03  0.7818608E-02  0.1235067E+00
          4   -1    0    0  501    0  0.00000000000E+00  0.00000000000E+00  0.66054422109E+03  0.66054544198E+03  0.12700000000E+01 0. -1.
         -4   -1    0    0    0  501 -0.00000000000E+00 -0.00000000000E+00 -0.58444172464E+01  0.59808120645E+01  0.12700000000E+01 0. -1.
         25    2    1    2    0    0  0.00000000000E+00  0.00000000000E+00  0.65469980385E+03  0.66652625404E+03  0.12500165668E+03 0.  0.
    9000005    1    3    3    0    0 -0.34056358794E+02  0.39390759005E+02  0.51158948195E+03  0.51423366820E+03  0.10000000000E+01 0.  0.
    9000005    1    3    3    0    0  0.34056358794E+02 -0.39390759005E+02  0.14311032189E+03  0.15229258584E+03  0.10000000000E+01 0.  0.
<mgrwt>
<rscale>  0 0.12500166E+03</rscale>
<asrwt>0</asrwt>
<pdfrwt beam="1">  1        4 0.10163271E+00 0.12500166E+03</pdfrwt>
<pdfrwt beam="2">  1       -4 0.90972749E-03 0.12500166E+03</pdfrwt>
<totfact> 0.44911952E+03</totfact>
</mgrwt>
</event>
<event>
 5    1  0.3273105E-002  0.1250007E+03  0.7818608E-02  0.1235068E+00
          4   -1    0    0  501    0  0.00000000000E+00  0.00000000000E+00  0.34804252361E+03  0.34804484070E+03  0.12700000000E+01 0.  1.
         -4   -1    0    0    0  501 -0.00000000000E+00 -0.00000000000E+00 -0.11185313864E+02  0.11257181985E+02  0.12700000000E+01 0.  1.
         25    2    1    2    0    0  0.00000000000E+00  0.00000000000E+00  0.33685720974E+03  0.35930202269E+03  0.12500065500E+03 0.  0.
    9000005    1    3    3    0    0 -0.22095937352E+02  0.50328146709E+02  0.82959838423E+02  0.99521292143E+02  0.10000000000E+01 0.  0.
    9000005    1    3    3    0    0  0.22095937352E+02 -0.50328146709E+02  0.25389737132E+03  0.25978073054E+03  0.10000000000E+01 0.  0.
<mgrwt>
<rscale>  0 0.12500066E+03</rscale>
<asrwt>0</asrwt>
<pdfrwt beam="1">  1        4 0.53550711E-01 0.12500066E+03</pdfrwt>
<pdfrwt beam="2">  1       -4 0.17265241E-02 0.12500066E+03</pdfrwt>
<totfact> 0.68712200E+03</totfact>
</mgrwt>
</event>
<event>
 5    1  0.3273105E-002  0.1250009E+03  0.7818608E-02  0.1235068E+00
         -4   -1    0    0    0  501 -0.00000000000E+00  0.00000000000E+00  0.78060022293E+02  0.78070352762E+02  0.12700000000E+01 0.  1.
          4   -1    0    0  501    0  0.00000000000E+00 -0.00000000000E+00 -0.50020675569E+02  0.50036795305E+02  0.12700000000E+01 0.  1.
         25    2    1    2    0    0  0.00000000000E+00  0.00000000000E+00  0.28039346724E+02  0.12810714807E+03  0.12500094568E+03 0.  0.
    9000005    1    3    3    0    0 -0.10605154823E+02  0.57095174191E+02 -0.96403886946E+01  0.58874997400E+02  0.10000000000E+01 0.  0.
    9000005    1    3    3    0    0  0.10605154823E+02 -0.57095174191E+02  0.37679735419E+02  0.69232150666E+02  0.10000000000E+01 0.  0.
<mgrwt>
<rscale>  0 0.12500095E+03</rscale>
<asrwt>0</asrwt>
<pdfrwt beam="2">  1        4 0.76975232E-02 0.12500095E+03</pdfrwt>
<pdfrwt beam="1">  1       -4 0.12011269E-01 0.12500095E+03</pdfrwt>
<totfact> 0.10384953E+04</totfact>
</mgrwt>
</event>
<event>
 5    1  0.3273105E-002  0.1250202E+03  0.7818608E-02  0.1235038E+00
         -4   -1    0    0    0  501 -0.00000000000E+00  0.00000000000E+00  0.57829558752E+02  0.57843502361E+02  0.12700000000E+01 0.  1.
          4   -1    0    0  501    0  0.00000000000E+00 -0.00000000000E+00 -0.67541459986E+02  0.67553399005E+02  0.12700000000E+01 0.  1.
         25    2    1    2    0    0  0.00000000000E+00  0.00000000000E+00 -0.97119012347E+01  0.12539690137E+03  0.12502024575E+03 0.  0.
    9000005    1    3    3    0    0  0.51008626658E+02  0.34211858217E+02 -0.16474641264E+02  0.63598310048E+02  0.10000000000E+01 0.  0.
    9000005    1    3    3    0    0 -0.51008626658E+02 -0.34211858217E+02  0.67627400291E+01  0.61798591318E+02  0.10000000000E+01 0.  0.
<mgrwt>
<rscale>  0 0.12502025E+03</rscale>
<asrwt>0</asrwt>
<pdfrwt beam="2">  1        4 0.10392985E-01 0.12502025E+03</pdfrwt>
<pdfrwt beam="1">  1       -4 0.88988462E-02 0.12502025E+03</pdfrwt>
<totfact> 0.10439469E+04</totfact>
</mgrwt>
</event>
<event>
 5    1  0.3273105E-002  0.1249996E+03  0.7818608E-02  0.1235070E+00
          4   -1    0    0  501    0  0.00000000000E+00  0.00000000000E+00  0.83866245867E+02  0.83875861222E+02  0.12700000000E+01 0. -1.
         -4   -1    0    0    0  501 -0.00000000000E+00 -0.00000000000E+00 -0.46555896101E+02  0.46573215068E+02  0.12700000000E+01 0. -1.
         25    2    1    2    0    0  0.00000000000E+00  0.00000000000E+00  0.37310349766E+02  0.13044907629E+03  0.12499959722E+03 0.  0.
    9000005    1    3    3    0    0  0.23336694191E+02 -0.22069269365E+02 -0.37287515897E+02  0.49224107791E+02  0.10000000000E+01 0.  0.
    9000005    1    3    3    0    0 -0.23336694191E+02  0.22069269365E+02  0.74597865663E+02  0.81224968498E+02  0.10000000000E+01 0.  0.
<mgrwt>
<rscale>  0 0.12499960E+03</rscale>
<asrwt>0</asrwt>
<pdfrwt beam="1">  1        4 0.12904571E-01 0.12499960E+03</pdfrwt>
<pdfrwt beam="2">  1       -4 0.71645174E-02 0.12499960E+03</pdfrwt>
<totfact> 0.10335004E+04</totfact>
</mgrwt>
</event>
<event>
 5    1  0.3273105E-002  0.1250001E+03  0.7818608E-02  0.1235069E+00
          4   -1    0    0  501    0  0.00000000000E+00  0.00000000000E+00  0.49767464873E+02  0.49783666598E+02  0.12700000000E+01 0. -1.
         -4   -1    0    0    0  501 -0.00000000000E+00 -0.00000000000E+00 -0.78456048106E+02  0.78466326437E+02  0.12700000000E+01 0. -1.
         25    2    1    2    0    0  0.00000000000E+00  0.00000000000E+00 -0.28688583233E+02  0.12824999303E+03  0.12500010362E+03 0.  0.
    9000005    1    3    3    0    0  0.25846615069E+02  0.12716855226E+02 -0.71243231681E+02  0.76852872280E+02  0.10000000000E+01 0.  0.
    9000005    1    3    3    0    0 -0.25846615069E+02 -0.12716855226E+02  0.42554648447E+02  0.51397120755E+02  0.10000000000E+01 0.  0.
<mgrwt>
<rscale>  0 0.12500010E+03</rscale>
<asrwt>0</asrwt>
<pdfrwt beam="1">  1        4 0.76585700E-02 0.12500010E+03</pdfrwt>
<pdfrwt beam="2">  1       -4 0.12072198E-01 0.12500010E+03</pdfrwt>
<totfact> 0.10382068E+04</totfact>
</mgrwt>
</event>
<event>
 5    1  0.3273105E-002  0.1249993E+03  0.7818608E-02  0.1235070E+00
         -4   -1    0    0    0  501 -0.00000000000E+00  0.00000000000E+00  0.59821348607E+03  0.59821483416E+03  0.12700000000E+01 0.  1.
          4   -1    0    0  501    0  0.00000000000E+00 -0.00000000000E+00 -0.64666683368E+01  0.65901972185E+01  0.12700000000E+01 0.  1.
         25    2    1    2    0    0  0.00000000000E+00  0.00000000000E+00  0.59174681773E+03  0.60480503138E+03  0.12499931876E+03 0.  0.
    9000005    1    3    3    0    0 -0.24930231854E+02  0.24476906656E+02  0.45178636661E+02  0.57120439689E+02  0.10000000000E+01 0.  0.
    9000005    1    3    3    0    0  0.24930231854E+02 -0.24476906656E+02  0.54656818107E+03  0.54768459169E+03  0.10000000000E+01 0.  0.
<mgrwt>
<rscale>  0 0.12499932E+03</rscale>
<asrwt>0</asrwt>
<pdfrwt beam="2">  1        4 0.10044777E-02 0.12499932E+03</pdfrwt>
<pdfrwt beam="1">  1       -4 0.92042478E-01 0.12499932E+03</pdfrwt>
<totfact> 0.48566415E+03</totfact>
</mgrwt>
</event>
<event>
 5    1  0.3273105E-002  0.1249987E+03  0.7818608E-02  0.1235071E+00
          4   -1    0    0  501    0  0.00000000000E+00  0.00000000000E+00  0.27567655348E+02  0.27596893329E+02  0.12700000000E+01 0.  1.
         -4   -1    0    0    0  501 -0.00000000000E+00 -0.00000000000E+00 -0.14158682362E+03  0.14159251930E+03  0.12700000000E+01 0.  1.
         25    2    1    2    0    0  0.00000000000E+00  0.00000000000E+00 -0.11401916827E+03  0.16918941263E+03  0.12499874645E+03 0.  0.
    9000005    1    3    3    0    0  0.55278587783E+02  0.16144118768E+02 -0.24165464379E+02  0.62460583625E+02  0.10000000000E+01 0.  0.
    9000005    1    3    3    0    0 -0.55278587783E+02 -0.16144118768E+02 -0.89853703889E+02  0.10672882900E+03  0.10000000000E+01 0.  0.
<mgrwt>
<rscale>  0 0.12499875E+03</rscale>
<asrwt>0</asrwt>
<pdfrwt beam="1">  1        4 0.42438650E-02 0.12499875E+03</pdfrwt>
<pdfrwt beam="2">  1       -4 0.21785275E-01 0.12499875E+03</pdfrwt>
<totfact> 0.95602505E+03</totfact>
</mgrwt>
</event>
<event>
 5    1  0.3273105E-002  0.1249960E+03  0.7818608E-02  0.1235076E+00
         -4   -1    0    0    0  501 -0.00000000000E+00  0.00000000000E+00  0.57305980530E+03  0.57306121257E+03  0.12700000000E+01 0. -1.
          4   -1    0    0  501    0  0.00000000000E+00 -0.00000000000E+00 -0.67554555786E+01  0.68737966274E+01  0.12700000000E+01 0. -1.
         25    2    1    2    0    0  0.00000000000E+00  0.00000000000E+00  0.56630434972E+03  0.57993500919E+03  0.12499599345E+03 0.  0.
    9000005    1    3    3    0    0 -0.12284893489E+02  0.40894874748E+02  0.71466590618E+02  0.83257329787E+02  0.10000000000E+01 0.  0.
    9000005    1    3    3    0    0  0.12284893489E+02 -0.40894874748E+02  0.49483775910E+03  0.49667767941E+03  0.10000000000E+01 0.  0.
<mgrwt>
<rscale>  0 0.12499599E+03</rscale>
<asrwt>0</asrwt>
<pdfrwt beam="2">  1        4 0.10485124E-02 0.12499599E+03</pdfrwt>
<pdfrwt beam="1">  1       -4 0.88172247E-01 0.12499599E+03</pdfrwt>
<totfact> 0.50163583E+03</totfact>
</mgrwt>
</event>
<event>
 5    1  0.3273105E-002  0.1250033E+03  0.7818608E-02  0.1235064E+00
         -4   -1    0    0    0  501 -0.00000000000E+00  0.00000000000E+00  0.27211587260E+01  0.30029327019E+01  0.12700000000E+01 0. -1.
          4   -1    0    0  501    0  0.00000000000E+00 -0.00000000000E+00 -0.13646349653E+04  0.13646355563E+04  0.12700000000E+01 0. -1.
         25    2    1    2    0    0  0.00000000000E+00  0.00000000000E+00 -0.13619138066E+04  0.13676384890E+04  0.12500327981E+03 0.  0.
    9000005    1    3    3    0    0  0.56730038065E+02 -0.45279255333E+01 -0.39846845536E+03  0.40251324108E+03  0.10000000000E+01 0.  0.
    9000005    1    3    3    0    0 -0.56730038065E+02  0.45279255333E+01 -0.96344535125E+03  0.96512524792E+03  0.10000000000E+01 0.  0.
<mgrwt>
<rscale>  0 0.12500328E+03</rscale>
<asrwt>0</asrwt>
<pdfrwt beam="2">  1        4 0.20996504E+00 0.12500328E+03</pdfrwt>
<pdfrwt beam="1">  1       -4 0.44036127E-03 0.12500328E+03</pdfrwt>
<totfact> 0.20684639E+03</totfact>
</mgrwt>
</event>
<event>
 5    1  0.3273105E-002  0.1250005E+03  0.7818608E-02  0.1235069E+00
          4   -1    0    0  501    0  0.00000000000E+00  0.00000000000E+00  0.18035338618E+03  0.18035785763E+03  0.12700000000E+01 0.  1.
         -4   -1    0    0    0  501 -0.00000000000E+00 -0.00000000000E+00 -0.21635661999E+02  0.21672904054E+02  0.12700000000E+01 0.  1.
         25    2    1    2    0    0  0.00000000000E+00  0.00000000000E+00  0.15871772418E+03  0.20203076168E+03  0.12500045078E+03 0.  0.
    9000005    1    3    3    0    0  0.42749948146E+01 -0.84995340155E+00  0.18011533948E+03  0.18017084536E+03  0.10000000000E+01 0.  0.
    9000005    1    3    3    0    0 -0.42749948146E+01  0.84995340155E+00 -0.21397615294E+02  0.21859916324E+02  0.10000000000E+01 0.  0.
<mgrwt>
<rscale>  0 0.12500045E+03</rscale>
<asrwt>0</asrwt>
<pdfrwt beam="1">  1        4 0.27749883E-01 0.12500045E+03</pdfrwt>
<pdfrwt beam="2">  1       -4 0.33317722E-02 0.12500045E+03</pdfrwt>
<totfact> 0.89793224E+03</totfact>
</mgrwt>
</event>
<event>
 5    1  0.3273105E-002  0.1250012E+03  0.7818608E-02  0.1235067E+00
          4   -1    0    0  501    0  0.00000000000E+00  0.00000000000E+00  0.15507894432E+02  0.15559810079E+02  0.12700000000E+01 0.  1.
         -4   -1    0    0    0  501 -0.00000000000E+00 -0.00000000000E+00 -0.25141819147E+03  0.25142139905E+03  0.12700000000E+01 0.  1.
         25    2    1    2    0    0  0.00000000000E+00  0.00000000000E+00 -0.23591029704E+03  0.26698120913E+03  0.12500119112E+03 0.  0.
    9000005    1    3    3    0    0 -0.61375872708E+02 -0.11655369876E+02 -0.12131801009E+03  0.13646210086E+03  0.10000000000E+01 0.  0.
    9000005    1    3    3    0    0  0.61375872708E+02  0.11655369876E+02 -0.11459228694E+03  0.13051910827E+03  0.10000000000E+01 0.  0.
<mgrwt>
<rscale>  0 0.12500119E+03</rscale>
<asrwt>0</asrwt>
<pdfrwt beam="1">  1        4 0.23900703E-02 0.12500119E+03</pdfrwt>
<pdfrwt beam="2">  1       -4 0.38683959E-01 0.12500119E+03</pdfrwt>
<totfact> 0.79934104E+03</totfact>
</mgrwt>
</event>
<event>
 5    1  0.3273105E-002  0.1250031E+03  0.7818608E-02  0.1235064E+00
         -4   -1    0    0    0  501 -0.00000000000E+00  0.00000000000E+00  0.16554476911E+01  0.20864819812E+01  0.12700000000E+01 0.  1.
          4   -1    0    0  501    0  0.00000000000E+00 -0.00000000000E+00 -0.20874991548E+04  0.20874995411E+04  0.12700000000E+01 0.  1.
         25    2    1    2    0    0  0.00000000000E+00  0.00000000000E+00 -0.20858437071E+04  0.20895860231E+04  0.12500310984E+03 0.  0.
    9000005    1    3    3    0    0  0.51605101415E+02  0.70264484899E+01 -0.46554778592E+03  0.46845298424E+03  0.10000000000E+01 0.  0.
    9000005    1    3    3    0    0 -0.51605101415E+02 -0.70264484899E+01 -0.16202959212E+04  0.16211330389E+04  0.10000000000E+01 0.  0.
<mgrwt>
<rscale>  0 0.12500311E+03</rscale>
<asrwt>0</asrwt>
<pdfrwt beam="2">  1        4 0.32118504E+00 0.12500311E+03</pdfrwt>
<pdfrwt beam="1">  1       -4 0.28787213E-03 0.12500311E+03</pdfrwt>
<totfact> 0.87364483E+02</totfact>
</mgrwt>
</event>
<event>
 5    1  0.3273105E-002  0.1250006E+03  0.7818608E-02  0.1235068E+00
          4   -1    0    0  501    0  0.00000000000E+00  0.00000000000E+00  0.47683974093E+01  0.49346239830E+01  0.12700000000E+01 0. -1.
         -4   -1    0    0    0  501 -0.00000000000E+00 -0.00000000000E+00 -0.80500305284E+03  0.80500405463E+03  0.12700000000E+01 0. -1.
         25    2    1    2    0    0  0.00000000000E+00  0.00000000000E+00 -0.80023465543E+03  0.80993867862E+03  0.12500063749E+03 0.  0.
    9000005    1    3    3    0    0  0.12644018614E+02  0.45943982262E+02 -0.66208129427E+03  0.66379466775E+03  0.10000000000E+01 0.  0.
    9000005    1    3    3    0    0 -0.12644018614E+02 -0.45943982262E+02 -0.13815336116E+03  0.14614401087E+03  0.10000000000E+01 0.  0.
<mgrwt>
<rscale>  0 0.12500064E+03</rscale>
<asrwt>0</asrwt>
<pdfrwt beam="1">  1        4 0.74646396E-03 0.12500064E+03</pdfrwt>
<pdfrwt beam="2">  1       -4 0.12385938E+00 0.12500064E+03</pdfrwt>
<totfact> 0.37824373E+03</totfact>
</mgrwt>
</event>
<event>
 5    1  0.3273105E-002  0.1249980E+03  0.7818608E-02  0.1235072E+00
         -4   -1    0    0    0  501 -0.00000000000E+00  0.00000000000E+00  0.12950099330E+02  0.13012223970E+02  0.12700000000E+01 0.  1.
          4   -1    0    0  501    0  0.00000000000E+00 -0.00000000000E+00 -0.30084354773E+03  0.30084622835E+03  0.12700000000E+01 0.  1.
         25    2    1    2    0    0  0.00000000000E+00  0.00000000000E+00 -0.28789344840E+03  0.31385845232E+03  0.12499796182E+03 0.  0.
    9000005    1    3    3    0    0 -0.10558430459E+02  0.57893618610E+02 -0.19673382696E+03  0.20534933699E+03  0.10000000000E+01 0.  0.
    9000005    1    3    3    0    0  0.10558430459E+02 -0.57893618610E+02 -0.91159621443E+02  0.10850911534E+03  0.10000000000E+01 0.  0.
<mgrwt>
<rscale>  0 0.12499796E+03</rscale>
<asrwt>0</asrwt>
<pdfrwt beam="2">  1        4 0.46288603E-01 0.12499796E+03</pdfrwt>
<pdfrwt beam="1">  1       -4 0.19973082E-02 0.12499796E+03</pdfrwt>
<totfact> 0.73895926E+03</totfact>
</mgrwt>
</event>
<event>
 5    1  0.3273105E-002  0.1249986E+03  0.7818608E-02  0.1235071E+00
         -4   -1    0    0    0  501 -0.00000000000E+00  0.00000000000E+00  0.10673496511E+03  0.10674252048E+03  0.12700000000E+01 0. -1.
          4   -1    0    0  501    0  0.00000000000E+00 -0.00000000000E+00 -0.36576990858E+02  0.36599032231E+02  0.12700000000E+01 0. -1.
         25    2    1    2    0    0  0.00000000000E+00  0.00000000000E+00  0.70157974256E+02  0.14334155271E+03  0.12499863752E+03 0.  0.
    9000005    1    3    3    0    0  0.50988970969E+02 -0.22231565929E+02  0.24209649554E+01  0.55686432418E+02  0.10000000000E+01 0.  0.
    9000005    1    3    3    0    0 -0.50988970969E+02  0.22231565929E+02  0.67737009300E+02  0.87655120290E+02  0.10000000000E+01 0.  0.
<mgrwt>
<rscale>  0 0.12499864E+03</rscale>
<asrwt>0</asrwt>
<pdfrwt beam="2">  1        4 0.56295060E-02 0.12499864E+03</pdfrwt>
<pdfrwt beam="1">  1       -4 0.16423041E-01 0.12499864E+03</pdfrwt>
<totfact> 0.10065103E+04</totfact>
</mgrwt>
</event>
<event>
 5    1  0.3273105E-002  0.1249995E+03  0.7818608E-02  0.1235070E+00
         -4   -1    0    0    0  501 -0.00000000000E+00  0.00000000000E+00  0.12700351583E+02  0.12763691877E+02  0.12700000000E+01 0.  1.
          4   -1    0    0  501    0  0.00000000000E+00 -0.00000000000E+00 -0.30673789233E+03  0.30674052144E+03  0.12700000000E+01 0.  1.
         25    2    1    2    0    0  0.00000000000E+00  0.00000000000E+00 -0.29403754075E+03  0.31950421332E+03  0.12499946782E+03 0.  0.
    9000005    1    3    3    0    0  0.13395573064E+01 -0.28169835285E+02 -0.44775639759E+01  0.28572409995E+02  0.10000000000E+01 0.  0.
    9000005    1    3    3    0    0 -0.13395573064E+01  0.28169835285E+02 -0.28955997677E+03  0.29093180332E+03  0.10000000000E+01 0.  0.
<mgrwt>
<rscale>  0 0.12499947E+03</rscale>
<asrwt>0</asrwt>
<pdfrwt beam="2">  1        4 0.47195514E-01 0.12499947E+03</pdfrwt>
<pdfrwt beam="1">  1       -4 0.19589750E-02 0.12499947E+03</pdfrwt>
<totfact> 0.73215997E+03</totfact>
</mgrwt>
</event>
<event>
 5    1  0.3273105E-002  0.1250035E+03  0.7818608E-02  0.1235064E+00
          4   -1    0    0  501    0  0.00000000000E+00  0.00000000000E+00  0.33813189023E+03  0.33813427524E+03  0.12700000000E+01 0. -1.
         -4   -1    0    0    0  501 -0.00000000000E+00 -0.00000000000E+00 -0.11515762776E+02  0.11585581225E+02  0.12700000000E+01 0. -1.
         25    2    1    2    0    0  0.00000000000E+00  0.00000000000E+00  0.32661612746E+03  0.34971985647E+03  0.12500353311E+03 0.  0.
    9000005    1    3    3    0    0 -0.29648009034E+01 -0.61638645518E+02  0.19091283644E+03  0.20064103215E+03  0.10000000000E+01 0.  0.
    9000005    1    3    3    0    0  0.29648009034E+01  0.61638645518E+02  0.13570329102E+03  0.14907882431E+03  0.10000000000E+01 0.  0.
<mgrwt>
<rscale>  0 0.12500353E+03</rscale>
<asrwt>0</asrwt>
<pdfrwt beam="1">  1        4 0.52025843E-01 0.12500353E+03</pdfrwt>
<pdfrwt beam="2">  1       -4 0.17772100E-02 0.12500353E+03</pdfrwt>
<totfact> 0.69749931E+03</totfact>
</mgrwt>
</event>
<event>
 5    1  0.3273105E-002  0.1249809E+03  0.7818608E-02  0.1235099E+00
         -4   -1    0    0    0  501 -0.00000000000E+00  0.00000000000E+00  0.37622771902E+03  0.37622986253E+03  0.12700000000E+01 0. -1.
          4   -1    0    0  501    0  0.00000000000E+00 -0.00000000000E+00 -0.10338470950E+02  0.10416183638E+02  0.12700000000E+01 0. -1.
         25    2    1    2    0    0  0.00000000000E+00  0.00000000000E+00  0.36588924807E+03  0.38664604617E+03  0.12498089120E+03 0.  0.
    9000005    1    3    3    0    0  0.34948997858E+02  0.19439297357E+02  0.34426091731E+02  0.52777594914E+02  0.10000000000E+01 0.  0.
    9000005    1    3    3    0    0 -0.34948997858E+02 -0.19439297357E+02  0.33146315634E+03  0.33386845126E+03  0.10000000000E+01 0.  0.
<mgrwt>
<rscale>  0 0.12498089E+03</rscale>
<asrwt>0</asrwt>
<pdfrwt beam="2">  1        4 0.15966770E-02 0.12498089E+03</pdfrwt>
<pdfrwt beam="1">  1       -4 0.57887322E-01 0.12498089E+03</pdfrwt>
<totfact> 0.65900453E+03</totfact>
</mgrwt>
</event>
<event>
 5    1  0.3273105E-002  0.1249976E+03  0.7818608E-02  0.1235073E+00
         -4   -1    0    0    0  501 -0.00000000000E+00  0.00000000000E+00  0.29235218572E+03  0.29235494420E+03  0.12700000000E+01 0. -1.
          4   -1    0    0  501    0  0.00000000000E+00 -0.00000000000E+00 -0.13327933695E+02  0.13388305216E+02  0.12700000000E+01 0. -1.
         25    2    1    2    0    0  0.00000000000E+00  0.00000000000E+00  0.27902425203E+03  0.30574324942E+03  0.12499760535E+03 0.  0.
    9000005    1    3    3    0    0  0.20041865221E+02 -0.55822858888E+02  0.91379336958E+02  0.10894517501E+03  0.10000000000E+01 0.  0.
    9000005    1    3    3    0    0 -0.20041865221E+02  0.55822858888E+02  0.18764491507E+03  0.19679807440E+03  0.10000000000E+01 0.  0.
<mgrwt>
<rscale>  0 0.12499761E+03</rscale>
<asrwt>0</asrwt>
<pdfrwt beam="2">  1        4 0.20553075E-02 0.12499761E+03</pdfrwt>
<pdfrwt beam="1">  1       -4 0.44982114E-01 0.12499761E+03</pdfrwt>
<totfact> 0.74887997E+03</totfact>
</mgrwt>
</event>
<event>
 5    1  0.3273105E-002  0.1249997E+03  0.7818608E-02  0.1235070E+00
          4   -1    0    0  501    0  0.00000000000E+00  0.00000000000E+00  0.50328241570E+02  0.50344262826E+02  0.12700000000E+01 0. -1.
         -4   -1    0    0    0  501 -0.00000000000E+00 -0.00000000000E+00 -0.77581577640E+02  0.77591971809E+02  0.12700000000E+01 0. -1.
         25    2    1    2    0    0  0.00000000000E+00  0.00000000000E+00 -0.27253336070E+02  0.12793623463E+03  0.12499974322E+03 0.  0.
    9000005    1    3    3    0    0 -0.59511325066E+02  0.62930570021E+01 -0.32050478159E+02  0.67892809102E+02  0.10000000000E+01 0.  0.
    9000005    1    3    3    0    0  0.59511325066E+02 -0.62930570021E+01  0.47971420891E+01  0.60043425533E+02  0.10000000000E+01 0.  0.
<mgrwt>
<rscale>  0 0.12499974E+03</rscale>
<asrwt>0</asrwt>
<pdfrwt beam="1">  1        4 0.77448384E-02 0.12499974E+03</pdfrwt>
<pdfrwt beam="2">  1       -4 0.11937659E-01 0.12499974E+03</pdfrwt>
<totfact> 0.10388925E+04</totfact>
</mgrwt>
</event>
<event>
 5    1  0.3273105E-002  0.1249994E+03  0.7818608E-02  0.1235070E+00
         -4   -1    0    0    0  501 -0.00000000000E+00  0.00000000000E+00  0.63730709086E+02  0.63743361855E+02  0.12700000000E+01 0. -1.
          4   -1    0    0  501    0  0.00000000000E+00 -0.00000000000E+00 -0.61267135243E+02  0.61280296678E+02  0.12700000000E+01 0. -1.
         25    2    1    2    0    0  0.00000000000E+00  0.00000000000E+00  0.24635738431E+01  0.12502365853E+03  0.12499938399E+03 0.  0.
    9000005    1    3    3    0    0 -0.54916780832E+02 -0.78028061284E+00 -0.28585910235E+02  0.61924275682E+02  0.10000000000E+01 0.  0.
    9000005    1    3    3    0    0  0.54916780832E+02  0.78028061284E+00  0.31049484078E+02  0.63099382851E+02  0.10000000000E+01 0.  0.
<mgrwt>
<rscale>  0 0.12499938E+03</rscale>
<asrwt>0</asrwt>
<pdfrwt beam="2">  1        4 0.94276988E-02 0.12499938E+03</pdfrwt>
<pdfrwt beam="1">  1       -4 0.98067102E-02 0.12499938E+03</pdfrwt>
<totfact> 0.10452494E+04</totfact>
</mgrwt>
</event>
<event>
 5    1  0.3273105E-002  0.1249911E+03  0.7818608E-02  0.1235083E+00
         -4   -1    0    0    0  501 -0.00000000000E+00  0.00000000000E+00  0.51979183273E+01  0.53508181559E+01  0.12700000000E+01 0.  1.
          4   -1    0    0  501    0  0.00000000000E+00 -0.00000000000E+00 -0.74035132558E+03  0.74035241486E+03  0.12700000000E+01 0.  1.
         25    2    1    2    0    0  0.00000000000E+00  0.00000000000E+00 -0.73515340725E+03  0.74570323301E+03  0.12499111782E+03 0.  0.
    9000005    1    3    3    0    0  0.21379986567E+02  0.58180655143E+02 -0.41478110044E+03  0.41938818980E+03  0.10000000000E+01 0.  0.
    9000005    1    3    3    0    0 -0.21379986567E+02 -0.58180655143E+02 -0.32037230681E+03  0.32631504322E+03  0.10000000000E+01 0.  0.
<mgrwt>
<rscale>  0 0.12499112E+03</rscale>
<asrwt>0</asrwt>
<pdfrwt beam="2">  1        4 0.11391197E+00 0.12499112E+03</pdfrwt>
<pdfrwt beam="1">  1       -4 0.81152564E-03 0.12499112E+03</pdfrwt>
<totfact> 0.40788442E+03</totfact>
</mgrwt>
</event>
<event>
 5    1  0.3273105E-002  0.1249989E+03  0.7818608E-02  0.1235071E+00
          4   -1    0    0  501    0  0.00000000000E+00  0.00000000000E+00  0.78075658410E+01  0.79101823216E+01  0.12700000000E+01 0. -1.
         -4   -1    0    0    0  501 -0.00000000000E+00 -0.00000000000E+00 -0.49693760358E+03  0.49693922642E+03  0.12700000000E+01 0. -1.
         25    2    1    2    0    0  0.00000000000E+00  0.00000000000E+00 -0.48913003774E+03  0.50484940874E+03  0.12499892674E+03 0.  0.
    9000005    1    3    3    0    0 -0.33823864917E+02 -0.22027777823E+02 -0.43724328814E+03  0.43910359809E+03  0.10000000000E+01 0.  0.
    9000005    1    3    3    0    0  0.33823864917E+02  0.22027777823E+02 -0.51886749602E+02  0.65745810649E+02  0.10000000000E+01 0.  0.
<mgrwt>
<rscale>  0 0.12499893E+03</rscale>
<asrwt>0</asrwt>
<pdfrwt beam="1">  1        4 0.12091828E-02 0.12499893E+03</pdfrwt>
<pdfrwt beam="2">  1       -4 0.76459933E-01 0.12499893E+03</pdfrwt>
<totfact> 0.55491386E+03</totfact>
</mgrwt>
</event>
<event>
 5    1  0.3273105E-002  0.1250071E+03  0.7818608E-02  0.1235058E+00
          4   -1    0    0  501    0  0.00000000000E+00  0.00000000000E+00  0.53637101555E+03  0.53637251908E+03  0.12700000000E+01 0.  1.
         -4   -1    0    0    0  501 -0.00000000000E+00 -0.00000000000E+00 -0.72266752957E+01  0.73374202435E+01  0.12700000000E+01 0.  1.
         25    2    1    2    0    0  0.00000000000E+00  0.00000000000E+00  0.52914434026E+03  0.54370993932E+03  0.12500706098E+03 0.  0.
    9000005    1    3    3    0    0  0.31637241161E+02  0.11784513914E+02  0.49331689347E+03  0.49447178603E+03  0.10000000000E+01 0.  0.
    9000005    1    3    3    0    0 -0.31637241161E+02 -0.11784513914E+02  0.35827446782E+02  0.49238153290E+02  0.10000000000E+01 0.  0.
<mgrwt>
<rscale>  0 0.12500706E+03</rscale>
<asrwt>0</asrwt>
<pdfrwt beam="1">  1        4 0.82527247E-01 0.12500706E+03</pdfrwt>
<pdfrwt beam="2">  1       -4 0.11204308E-02 0.12500706E+03</pdfrwt>
<totfact> 0.52617490E+03</totfact>
</mgrwt>
</event>
