<event>
 5    1  0.3281209E-002  0.1250005E+03  0.7818608E-02  0.1235069E+00
          4   -1    0    0  501    0  0.00000000000E+00  0.00000000000E+00  0.11072881363E+02  0.11145474493E+02  0.12700000000E+01 0.  1.
         -4   -1    0    0    0  501 -0.00000000000E+00 -0.00000000000E+00 -0.35155267299E+03  0.35155496695E+03  0.12700000000E+01 0.  1.
         25    2    1    2    0    0  0.00000000000E+00  0.00000000000E+00 -0.34047979163E+03  0.36270044144E+03  0.12500048686E+03 0.  0.
    9000005    1    3    3    0    0  0.45518251168E+02  0.37647368074E+02 -0.22942419230E+03  0.23690862273E+03  0.10000000000E+01 0.  0.
    9000005    1    3    3    0    0 -0.45518251168E+02 -0.37647368074E+02 -0.11105559933E+03  0.12579181871E+03  0.10000000000E+01 0.  0.
<mgrwt>
<rscale>  0 0.12500049E+03</rscale>
<asrwt>0</asrwt>
<pdfrwt beam="1">  1        4 0.17092810E-02 0.12500049E+03</pdfrwt>
<pdfrwt beam="2">  1       -4 0.54090779E-01 0.12500049E+03</pdfrwt>
<totfact> 0.68348853E+03</totfact>
</mgrwt>
</event>
<event>
 5    1  0.3281209E-002  0.1249976E+03  0.7818608E-02  0.1235073E+00
          4   -1    0    0  501    0  0.00000000000E+00  0.00000000000E+00  0.21740194255E+02  0.21777257546E+02  0.12700000000E+01 0.  1.
         -4   -1    0    0    0  501 -0.00000000000E+00 -0.00000000000E+00 -0.17947940730E+03  0.17948390052E+03  0.12700000000E+01 0.  1.
         25    2    1    2    0    0  0.00000000000E+00  0.00000000000E+00 -0.15773921305E+03  0.20126115806E+03  0.12499757763E+03 0.  0.
    9000005    1    3    3    0    0 -0.12813111817E+02 -0.51966626096E+02 -0.26934983267E+02  0.59926616673E+02  0.10000000000E+01 0.  0.
    9000005    1    3    3    0    0  0.12813111817E+02  0.51966626096E+02 -0.13080422978E+03  0.14133454139E+03  0.10000000000E+01 0.  0.
<mgrwt>
<rscale>  0 0.12499758E+03</rscale>
<asrwt>0</asrwt>
<pdfrwt beam="1">  1        4 0.33478420E-02 0.12499758E+03</pdfrwt>
<pdfrwt beam="2">  1       -4 0.27615412E-01 0.12499758E+03</pdfrwt>
<totfact> 0.89928111E+03</totfact>
</mgrwt>
</event>
<event>
 5    1  0.3281209E-002  0.1250007E+03  0.7818608E-02  0.1235068E+00
          4   -1    0    0  501    0  0.00000000000E+00  0.00000000000E+00  0.55766381807E+02  0.55780841154E+02  0.12700000000E+01 0. -1.
         -4   -1    0    0    0  501 -0.00000000000E+00 -0.00000000000E+00 -0.70018136701E+02  0.70029653484E+02  0.12700000000E+01 0. -1.
         25    2    1    2    0    0  0.00000000000E+00  0.00000000000E+00 -0.14251754895E+02  0.12581049464E+03  0.12500067217E+03 0.  0.
    9000005    1    3    3    0    0 -0.50136475962E+01 -0.38354300292E+02  0.42274720478E+02  0.57309170336E+02  0.10000000000E+01 0.  0.
    9000005    1    3    3    0    0  0.50136475962E+01  0.38354300292E+02 -0.56526475373E+02  0.68501324302E+02  0.10000000000E+01 0.  0.
<mgrwt>
<rscale>  0 0.12500067E+03</rscale>
<asrwt>0</asrwt>
<pdfrwt beam="1">  1        4 0.85814415E-02 0.12500067E+03</pdfrwt>
<pdfrwt beam="2">  1       -4 0.10774019E-01 0.12500067E+03</pdfrwt>
<totfact> 0.10434956E+04</totfact>
</mgrwt>
</event>
<event>
 5    1  0.3281209E-002  0.1250031E+03  0.7818608E-02  0.1235064E+00
          4   -1    0    0  501    0  0.00000000000E+00  0.00000000000E+00  0.24591042298E+01  0.27676874125E+01  0.12700000000E+01 0. -1.
         -4   -1    0    0    0  501 -0.00000000000E+00 -0.00000000000E+00 -0.14944680165E+04  0.14944685561E+04  0.12700000000E+01 0. -1.
         25    2    1    2    0    0  0.00000000000E+00  0.00000000000E+00 -0.14920089123E+04  0.14972362435E+04  0.12500309862E+03 0.  0.
    9000005    1    3    3    0    0  0.91271203123E+00 -0.89798138631E+00 -0.14943696309E+04  0.14943705140E+04  0.10000000000E+01 0.  0.
    9000005    1    3    3    0    0 -0.91271203123E+00  0.89798138631E+00  0.23607185716E+01  0.28657295749E+01  0.10000000000E+01 0.  0.
<mgrwt>
<rscale>  0 0.12500310E+03</rscale>
<asrwt>0</asrwt>
<pdfrwt beam="1">  1        4 0.40210360E-03 0.12500310E+03</pdfrwt>
<pdfrwt beam="2">  1       -4 0.22994125E+00 0.12500310E+03</pdfrwt>
<totfact> 0.17983715E+03</totfact>
</mgrwt>
</event>
<event>
 5    1  0.3281209E-002  0.1250029E+03  0.7818608E-02  0.1235065E+00
          4   -1    0    0  501    0  0.00000000000E+00  0.00000000000E+00  0.93047284583E+03  0.93047371254E+03  0.12700000000E+01 0.  1.
         -4   -1    0    0    0  501 -0.00000000000E+00 -0.00000000000E+00 -0.41013951120E+01  0.42935232461E+01  0.12700000000E+01 0.  1.
         25    2    1    2    0    0  0.00000000000E+00  0.00000000000E+00  0.92637145072E+03  0.93476723579E+03  0.12500288154E+03 0.  0.
    9000005    1    3    3    0    0 -0.15495085918E+02 -0.53479368006E+02  0.25097882358E+03  0.25708269171E+03  0.10000000000E+01 0.  0.
    9000005    1    3    3    0    0  0.15495085918E+02  0.53479368006E+02  0.67539262714E+03  0.67768454408E+03  0.10000000000E+01 0.  0.
<mgrwt>
<rscale>  0 0.12500288E+03</rscale>
<asrwt>0</asrwt>
<pdfrwt beam="1">  1        4 0.14316437E+00 0.12500288E+03</pdfrwt>
<pdfrwt beam="2">  1       -4 0.64583026E-03 0.12500288E+03</pdfrwt>
<totfact> 0.32861011E+03</totfact>
</mgrwt>
</event>
<event>
 5    1  0.3281209E-002  0.1249981E+03  0.7818608E-02  0.1235072E+00
         -4   -1    0    0    0  501 -0.00000000000E+00  0.00000000000E+00  0.14578291564E+02  0.14633505558E+02  0.12700000000E+01 0.  1.
          4   -1    0    0  501    0  0.00000000000E+00 -0.00000000000E+00 -0.26737835351E+03  0.26738136963E+03  0.12700000000E+01 0.  1.
         25    2    1    2    0    0  0.00000000000E+00  0.00000000000E+00 -0.25280006195E+03  0.28201487519E+03  0.12499807402E+03 0.  0.
    9000005    1    3    3    0    0  0.78952478766E+01 -0.37158519253E+02 -0.23834798759E+03  0.24135835117E+03  0.10000000000E+01 0.  0.
    9000005    1    3    3    0    0 -0.78952478766E+01  0.37158519253E+02 -0.14452074359E+02  0.40656524020E+02  0.10000000000E+01 0.  0.
<mgrwt>
<rscale>  0 0.12499807E+03</rscale>
<asrwt>0</asrwt>
<pdfrwt beam="2">  1        4 0.41139607E-01 0.12499807E+03</pdfrwt>
<pdfrwt beam="1">  1       -4 0.22472935E-02 0.12499807E+03</pdfrwt>
<totfact> 0.77915041E+03</totfact>
</mgrwt>
</event>
<event>
 5    1  0.3281209E-002  0.1249946E+03  0.7818608E-02  0.1235078E+00
          4   -1    0    0  501    0  0.00000000000E+00  0.00000000000E+00  0.35573805681E+02  0.35596468232E+02  0.12700000000E+01 0. -1.
         -4   -1    0    0    0  501 -0.00000000000E+00 -0.00000000000E+00 -0.10973617451E+03  0.10974352325E+03  0.12700000000E+01 0. -1.
         25    2    1    2    0    0  0.00000000000E+00  0.00000000000E+00 -0.74162368830E+02  0.14533999149E+03  0.12499462458E+03 0.  0.
    9000005    1    3    3    0    0 -0.45748697905E+02 -0.34151992950E+02 -0.66625886257E+02  0.87745716146E+02  0.10000000000E+01 0.  0.
    9000005    1    3    3    0    0  0.45748697905E+02  0.34151992950E+02 -0.75364825732E+01  0.57594275341E+02  0.10000000000E+01 0.  0.
<mgrwt>
<rscale>  0 0.12499462E+03</rscale>
<asrwt>0</asrwt>
<pdfrwt beam="1">  1        4 0.54752018E-02 0.12499462E+03</pdfrwt>
<pdfrwt beam="2">  1       -4 0.16884797E-01 0.12499462E+03</pdfrwt>
<totfact> 0.10025299E+04</totfact>
</mgrwt>
</event>
<event>
 5    1  0.3281209E-002  0.1250050E+03  0.7818608E-02  0.1235061E+00
         -4   -1    0    0    0  501 -0.00000000000E+00  0.00000000000E+00  0.26571303955E+03  0.26571607457E+03  0.12700000000E+01 0. -1.
          4   -1    0    0  501    0  0.00000000000E+00 -0.00000000000E+00 -0.14671639660E+02  0.14726503669E+02  0.12700000000E+01 0. -1.
         25    2    1    2    0    0  0.00000000000E+00  0.00000000000E+00  0.25104139989E+03  0.28044257824E+03  0.12500502083E+03 0.  0.
    9000005    1    3    3    0    0  0.29707770118E+02  0.54040953951E+02  0.14824359774E+03  0.16056195247E+03  0.10000000000E+01 0.  0.
    9000005    1    3    3    0    0 -0.29707770118E+02 -0.54040953951E+02  0.10279780215E+03  0.11988062577E+03  0.10000000000E+01 0.  0.
<mgrwt>
<rscale>  0 0.12500502E+03</rscale>
<asrwt>0</asrwt>
<pdfrwt beam="2">  1        4 0.22616293E-02 0.12500502E+03</pdfrwt>
<pdfrwt beam="1">  1       -4 0.40883380E-01 0.12500502E+03</pdfrwt>
<totfact> 0.78110743E+03</totfact>
</mgrwt>
</event>
<event>
 5    1  0.3281209E-002  0.1250007E+03  0.7818608E-02  0.1235068E+00
          4   -1    0    0  501    0  0.00000000000E+00  0.00000000000E+00  0.70895651290E+01  0.72024186020E+01  0.12700000000E+01 0. -1.
         -4   -1    0    0    0  501 -0.00000000000E+00 -0.00000000000E+00 -0.54652727487E+03  0.54652875045E+03  0.12700000000E+01 0. -1.
         25    2    1    2    0    0  0.00000000000E+00  0.00000000000E+00 -0.53943770974E+03  0.55373116905E+03  0.12500065959E+03 0.  0.
    9000005    1    3    3    0    0 -0.34938988563E+02  0.50020506812E+02 -0.20987402072E+03  0.21856552472E+03  0.10000000000E+01 0.  0.
    9000005    1    3    3    0    0  0.34938988563E+02 -0.50020506812E+02 -0.32956368901E+03  0.33516564433E+03  0.10000000000E+01 0.  0.
<mgrwt>
<rscale>  0 0.12500066E+03</rscale>
<asrwt>0</asrwt>
<pdfrwt beam="1">  1        4 0.10994973E-02 0.12500066E+03</pdfrwt>
<pdfrwt beam="2">  1       -4 0.84089881E-01 0.12500066E+03</pdfrwt>
<totfact> 0.51924113E+03</totfact>
</mgrwt>
</event>
<event>
 5    1  0.3281209E-002  0.1250001E+03  0.7818608E-02  0.1235069E+00
          4   -1    0    0  501    0  0.00000000000E+00  0.00000000000E+00  0.26837392418E+02  0.26867425105E+02  0.12700000000E+01 0.  1.
         -4   -1    0    0    0  501 -0.00000000000E+00 -0.00000000000E+00 -0.14543845344E+03  0.14544399829E+03  0.12700000000E+01 0.  1.
         25    2    1    2    0    0  0.00000000000E+00  0.00000000000E+00 -0.11860106102E+03  0.17231142340E+03  0.12500005983E+03 0.  0.
    9000005    1    3    3    0    0  0.34745159438E+02 -0.48360682270E+02 -0.33171965288E+02  0.68171555469E+02  0.10000000000E+01 0.  0.
    9000005    1    3    3    0    0 -0.34745159438E+02  0.48360682270E+02 -0.85429095734E+02  0.10413986793E+03  0.10000000000E+01 0.  0.
<mgrwt>
<rscale>  0 0.12500006E+03</rscale>
<asrwt>0</asrwt>
<pdfrwt beam="1">  1        4 0.41315664E-02 0.12500006E+03</pdfrwt>
<pdfrwt beam="2">  1       -4 0.22377883E-01 0.12500006E+03</pdfrwt>
<totfact> 0.95019439E+03</totfact>
</mgrwt>
</event>
<event>
 5    1  0.3281209E-002  0.1250003E+03  0.7818608E-02  0.1235069E+00
         -4   -1    0    0    0  501 -0.00000000000E+00  0.00000000000E+00  0.25479183838E+02  0.25510815531E+02  0.12700000000E+01 0.  1.
          4   -1    0    0  501    0  0.00000000000E+00 -0.00000000000E+00 -0.15318278902E+03  0.15318805355E+03  0.12700000000E+01 0.  1.
         25    2    1    2    0    0  0.00000000000E+00  0.00000000000E+00 -0.12770360518E+03  0.17869886909E+03  0.12500030014E+03 0.  0.
    9000005    1    3    3    0    0  0.23964984599E+02 -0.17697255736E+02  0.14681302089E+02  0.33227307722E+02  0.10000000000E+01 0.  0.
    9000005    1    3    3    0    0 -0.23964984599E+02  0.17697255736E+02 -0.14238490727E+03  0.14547156136E+03  0.10000000000E+01 0.  0.
<mgrwt>
<rscale>  0 0.12500030E+03</rscale>
<asrwt>0</asrwt>
<pdfrwt beam="2">  1        4 0.23569421E-01 0.12500030E+03</pdfrwt>
<pdfrwt beam="1">  1       -4 0.39227127E-02 0.12500030E+03</pdfrwt>
<totfact> 0.93851105E+03</totfact>
</mgrwt>
</event>
<event>
 5    1  0.3281209E-002  0.1250023E+03  0.7818608E-02  0.1235066E+00
          4   -1    0    0  501    0  0.00000000000E+00  0.00000000000E+00  0.38784145027E+02  0.38804932746E+02  0.12700000000E+01 0. -1.
         -4   -1    0    0    0  501 -0.00000000000E+00 -0.00000000000E+00 -0.10066956976E+03  0.10067758030E+03  0.12700000000E+01 0. -1.
         25    2    1    2    0    0  0.00000000000E+00  0.00000000000E+00 -0.61885424731E+02  0.13948251305E+03  0.12500226259E+03 0.  0.
    9000005    1    3    3    0    0  0.44761111027E+02 -0.37005041325E+02 -0.51945700487E+01  0.58317353351E+02  0.10000000000E+01 0.  0.
    9000005    1    3    3    0    0 -0.44761111027E+02  0.37005041325E+02 -0.56690854682E+02  0.81165159696E+02  0.10000000000E+01 0.  0.
<mgrwt>
<rscale>  0 0.12500226E+03</rscale>
<asrwt>0</asrwt>
<pdfrwt beam="1">  1        4 0.59690068E-02 0.12500226E+03</pdfrwt>
<pdfrwt beam="2">  1       -4 0.15489841E-01 0.12500226E+03</pdfrwt>
<totfact> 0.10143805E+04</totfact>
</mgrwt>
</event>
<event>
 5    1  0.3281209E-002  0.1250011E+03  0.7818608E-02  0.1235067E+00
         -4   -1    0    0    0  501 -0.00000000000E+00  0.00000000000E+00  0.17060003519E+03  0.17060476226E+03  0.12700000000E+01 0. -1.
          4   -1    0    0  501    0  0.00000000000E+00 -0.00000000000E+00 -0.22874885359E+02  0.22910113055E+02  0.12700000000E+01 0. -1.
         25    2    1    2    0    0  0.00000000000E+00  0.00000000000E+00  0.14772514983E+03  0.19351487531E+03  0.12500114830E+03 0.  0.
    9000005    1    3    3    0    0  0.51940887206E+02 -0.34631395778E+02  0.69447779676E+02  0.93387276645E+02  0.10000000000E+01 0.  0.
    9000005    1    3    3    0    0 -0.51940887206E+02  0.34631395778E+02  0.78277370152E+02  0.10012759867E+03  0.10000000000E+01 0.  0.
<mgrwt>
<rscale>  0 0.12500115E+03</rscale>
<asrwt>0</asrwt>
<pdfrwt beam="2">  1        4 0.35222867E-02 0.12500115E+03</pdfrwt>
<pdfrwt beam="1">  1       -4 0.26249232E-01 0.12500115E+03</pdfrwt>
<totfact> 0.91236964E+03</totfact>
</mgrwt>
</event>
<event>
 5    1  0.3281209E-002  0.1249906E+03  0.7818608E-02  0.1235084E+00
          4   -1    0    0  501    0  0.00000000000E+00  0.00000000000E+00  0.22197471005E+03  0.22197834310E+03  0.12700000000E+01 0. -1.
         -4   -1    0    0    0  501 -0.00000000000E+00 -0.00000000000E+00 -0.17568391431E+02  0.17614235081E+02  0.12700000000E+01 0. -1.
         25    2    1    2    0    0  0.00000000000E+00  0.00000000000E+00  0.20440631862E+03  0.23959257818E+03  0.12499064135E+03 0.  0.
    9000005    1    3    3    0    0  0.13221212257E+02 -0.27966908942E+02 -0.18699984742E+01  0.31007182129E+02  0.10000000000E+01 0.  0.
    9000005    1    3    3    0    0 -0.13221212257E+02  0.27966908942E+02  0.20627631710E+03  0.20858539605E+03  0.10000000000E+01 0.  0.
<mgrwt>
<rscale>  0 0.12499064E+03</rscale>
<asrwt>0</asrwt>
<pdfrwt beam="1">  1        4 0.34153762E-01 0.12499064E+03</pdfrwt>
<pdfrwt beam="2">  1       -4 0.27066353E-02 0.12499064E+03</pdfrwt>
<totfact> 0.83875580E+03</totfact>
</mgrwt>
</event>
<event>
 5    1  0.3281209E-002  0.1249997E+03  0.7818608E-02  0.1235070E+00
          4   -1    0    0  501    0  0.00000000000E+00  0.00000000000E+00  0.40377552093E+02  0.40397519887E+02  0.12700000000E+01 0. -1.
         -4   -1    0    0    0  501 -0.00000000000E+00 -0.00000000000E+00 -0.96694665914E+02  0.96703005725E+02  0.12700000000E+01 0. -1.
         25    2    1    2    0    0  0.00000000000E+00  0.00000000000E+00 -0.56317113821E+02  0.13710052561E+03  0.12499974725E+03 0.  0.
    9000005    1    3    3    0    0 -0.26616838496E+02 -0.30883794629E+02 -0.80103306088E+02  0.89887732803E+02  0.10000000000E+01 0.  0.
    9000005    1    3    3    0    0  0.26616838496E+02  0.30883794629E+02  0.23786192268E+02  0.47212792808E+02  0.10000000000E+01 0.  0.
<mgrwt>
<rscale>  0 0.12499975E+03</rscale>
<asrwt>0</asrwt>
<pdfrwt beam="1">  1        4 0.62141086E-02 0.12499975E+03</pdfrwt>
<pdfrwt beam="2">  1       -4 0.14878280E-01 0.12499975E+03</pdfrwt>
<totfact> 0.10194042E+04</totfact>
</mgrwt>
</event>
<event>
 5    1  0.3281209E-002  0.1250326E+03  0.7818608E-02  0.1235018E+00
          4   -1    0    0  501    0  0.00000000000E+00  0.00000000000E+00  0.27524650644E+02  0.27553934258E+02  0.12700000000E+01 0. -1.
         -4   -1    0    0    0  501 -0.00000000000E+00 -0.00000000000E+00 -0.14188476077E+03  0.14189044449E+03  0.12700000000E+01 0. -1.
         25    2    1    2    0    0  0.00000000000E+00  0.00000000000E+00 -0.11436011012E+03  0.16944437875E+03  0.12503264655E+03 0.  0.
    9000005    1    3    3    0    0  0.27215020339E+02  0.27260105579E+02 -0.12389560110E+03  0.12974933780E+03  0.10000000000E+01 0.  0.
    9000005    1    3    3    0    0 -0.27215020339E+02 -0.27260105579E+02  0.95354909704E+01  0.39695040953E+02  0.10000000000E+01 0.  0.
<mgrwt>
<rscale>  0 0.12503265E+03</rscale>
<asrwt>0</asrwt>
<pdfrwt beam="1">  1        4 0.42372515E-02 0.12503265E+03</pdfrwt>
<pdfrwt beam="2">  1       -4 0.21831114E-01 0.12503265E+03</pdfrwt>
<totfact> 0.95482246E+03</totfact>
</mgrwt>
</event>
<event>
 5    1  0.3281209E-002  0.1250025E+03  0.7818608E-02  0.1235065E+00
         -4   -1    0    0    0  501 -0.00000000000E+00  0.00000000000E+00  0.10125523854E+03  0.10126320275E+03  0.12700000000E+01 0. -1.
          4   -1    0    0  501    0  0.00000000000E+00 -0.00000000000E+00 -0.38559832226E+02  0.38580740809E+02  0.12700000000E+01 0. -1.
         25    2    1    2    0    0  0.00000000000E+00  0.00000000000E+00  0.62695406312E+02  0.13984394356E+03  0.12500245829E+03 0.  0.
    9000005    1    3    3    0    0  0.11401779852E+02  0.52488185429E+02 -0.43885437332E+01  0.53900552033E+02  0.10000000000E+01 0.  0.
    9000005    1    3    3    0    0 -0.11401779852E+02 -0.52488185429E+02  0.67083950045E+02  0.85943391526E+02  0.10000000000E+01 0.  0.
<mgrwt>
<rscale>  0 0.12500246E+03</rscale>
<asrwt>0</asrwt>
<pdfrwt beam="2">  1        4 0.59345029E-02 0.12500246E+03</pdfrwt>
<pdfrwt beam="1">  1       -4 0.15579950E-01 0.12500246E+03</pdfrwt>
<totfact> 0.10136260E+04</totfact>
</mgrwt>
</event>
<event>
 5    1  0.3281209E-002  0.1250004E+03  0.7818608E-02  0.1235069E+00
         -4   -1    0    0    0  501 -0.00000000000E+00  0.00000000000E+00  0.12597715560E+02  0.12661569308E+02  0.12700000000E+01 0.  1.
          4   -1    0    0  501    0  0.00000000000E+00 -0.00000000000E+00 -0.30922901168E+03  0.30923161961E+03  0.12700000000E+01 0.  1.
         25    2    1    2    0    0  0.00000000000E+00  0.00000000000E+00 -0.29663129612E+03  0.32189318891E+03  0.12500039693E+03 0.  0.
    9000005    1    3    3    0    0  0.60425453068E+02  0.15927246237E+02 -0.14676573009E+03  0.15951831268E+03  0.10000000000E+01 0.  0.
    9000005    1    3    3    0    0 -0.60425453068E+02 -0.15927246237E+02 -0.14986556603E+03  0.16237487623E+03  0.10000000000E+01 0.  0.
<mgrwt>
<rscale>  0 0.12500040E+03</rscale>
<asrwt>0</asrwt>
<pdfrwt beam="2">  1        4 0.47578801E-01 0.12500040E+03</pdfrwt>
<pdfrwt beam="1">  1       -4 0.19432228E-02 0.12500040E+03</pdfrwt>
<totfact> 0.72930881E+03</totfact>
</mgrwt>
</event>
<event>
 5    1  0.3281209E-002  0.1250020E+03  0.7818608E-02  0.1235066E+00
          4   -1    0    0  501    0  0.00000000000E+00  0.00000000000E+00  0.38849454199E+02  0.38870206991E+02  0.12700000000E+01 0.  1.
         -4   -1    0    0    0  501 -0.00000000000E+00 -0.00000000000E+00 -0.10049998995E+03  0.10050801401E+03  0.12700000000E+01 0.  1.
         25    2    1    2    0    0  0.00000000000E+00  0.00000000000E+00 -0.61650535749E+02  0.13937822100E+03  0.12500199971E+03 0.  0.
    9000005    1    3    3    0    0  0.25799731601E+02  0.51772378255E+02 -0.44542181217E+01  0.58024523780E+02  0.10000000000E+01 0.  0.
    9000005    1    3    3    0    0 -0.25799731601E+02 -0.51772378255E+02 -0.57196317628E+02  0.81353697218E+02  0.10000000000E+01 0.  0.
<mgrwt>
<rscale>  0 0.12500200E+03</rscale>
<asrwt>0</asrwt>
<pdfrwt beam="1">  1        4 0.59790527E-02 0.12500200E+03</pdfrwt>
<pdfrwt beam="2">  1       -4 0.15463750E-01 0.12500200E+03</pdfrwt>
<totfact> 0.10146032E+04</totfact>
</mgrwt>
</event>
<event>
 5    1  0.3281209E-002  0.1250036E+03  0.7818608E-02  0.1235064E+00
         -4   -1    0    0    0  501 -0.00000000000E+00  0.00000000000E+00  0.10571284930E+02  0.10647298487E+02  0.12700000000E+01 0.  1.
          4   -1    0    0  501    0  0.00000000000E+00 -0.00000000000E+00 -0.36813544220E+03  0.36813763283E+03  0.12700000000E+01 0.  1.
         25    2    1    2    0    0  0.00000000000E+00  0.00000000000E+00 -0.35756415727E+03  0.37878493132E+03  0.12500359046E+03 0.  0.
    9000005    1    3    3    0    0 -0.20528703091E+02  0.58602566966E+02 -0.15740130610E+03  0.16920951412E+03  0.10000000000E+01 0.  0.
    9000005    1    3    3    0    0  0.20528703091E+02 -0.58602566966E+02 -0.20016285117E+03  0.20957541720E+03  0.10000000000E+01 0.  0.
<mgrwt>
<rscale>  0 0.12500359E+03</rscale>
<asrwt>0</asrwt>
<pdfrwt beam="2">  1        4 0.56642228E-01 0.12500359E+03</pdfrwt>
<pdfrwt beam="1">  1       -4 0.16323675E-02 0.12500359E+03</pdfrwt>
<totfact> 0.66664489E+03</totfact>
</mgrwt>
</event>
<event>
 5    1  0.3281209E-002  0.1250020E+03  0.7818608E-02  0.1235066E+00
          4   -1    0    0  501    0  0.00000000000E+00  0.00000000000E+00  0.70412372128E+01  0.71548530024E+01  0.12700000000E+01 0. -1.
         -4   -1    0    0    0  501 -0.00000000000E+00 -0.00000000000E+00 -0.55023089685E+03  0.55023236251E+03  0.12700000000E+01 0. -1.
         25    2    1    2    0    0  0.00000000000E+00  0.00000000000E+00 -0.54318965964E+03  0.55738721551E+03  0.12500200668E+03 0.  0.
    9000005    1    3    3    0    0 -0.42237850700E+02  0.91397986770E+01 -0.70305308616E+02  0.82531256935E+02  0.10000000000E+01 0.  0.
    9000005    1    3    3    0    0  0.42237850700E+02 -0.91397986770E+01 -0.47288435102E+03  0.47485595858E+03  0.10000000000E+01 0.  0.
<mgrwt>
<rscale>  0 0.12500201E+03</rscale>
<asrwt>0</asrwt>
<pdfrwt beam="1">  1        4 0.10921201E-02 0.12500201E+03</pdfrwt>
<pdfrwt beam="2">  1       -4 0.84659726E-01 0.12500201E+03</pdfrwt>
<totfact> 0.51670624E+03</totfact>
</mgrwt>
</event>
<event>
 5    1  0.3281209E-002  0.1249970E+03  0.7818608E-02  0.1235074E+00
         -4   -1    0    0    0  501 -0.00000000000E+00  0.00000000000E+00  0.19982903538E+02  0.20023219866E+02  0.12700000000E+01 0. -1.
          4   -1    0    0  501    0  0.00000000000E+00 -0.00000000000E+00 -0.19523081502E+03  0.19523494573E+03  0.12700000000E+01 0. -1.
         25    2    1    2    0    0  0.00000000000E+00  0.00000000000E+00 -0.17524791148E+03  0.21525816559E+03  0.12499698947E+03 0.  0.
    9000005    1    3    3    0    0  0.54431445463E+02  0.25296627935E+02 -0.11756882329E+03  0.13200806737E+03  0.10000000000E+01 0.  0.
    9000005    1    3    3    0    0 -0.54431445463E+02 -0.25296627935E+02 -0.57679088185E+02  0.83250098222E+02  0.10000000000E+01 0.  0.
<mgrwt>
<rscale>  0 0.12499699E+03</rscale>
<asrwt>0</asrwt>
<pdfrwt beam="2">  1        4 0.30038928E-01 0.12499699E+03</pdfrwt>
<pdfrwt beam="1">  1       -4 0.30777120E-02 0.12499699E+03</pdfrwt>
<totfact> 0.87630185E+03</totfact>
</mgrwt>
</event>
<event>
 5    1  0.3281209E-002  0.1250040E+03  0.7818608E-02  0.1235063E+00
         -4   -1    0    0    0  501 -0.00000000000E+00  0.00000000000E+00  0.10894784876E+03  0.10895525068E+03  0.12700000000E+01 0. -1.
          4   -1    0    0  501    0  0.00000000000E+00 -0.00000000000E+00 -0.35836742102E+02  0.35859238482E+02  0.12700000000E+01 0. -1.
         25    2    1    2    0    0  0.00000000000E+00  0.00000000000E+00  0.73111106661E+02  0.14481448916E+03  0.12500400935E+03 0.  0.
    9000005    1    3    3    0    0  0.40676962260E+02 -0.36860647955E+01 -0.18240592898E+02  0.44742838105E+02  0.10000000000E+01 0.  0.
    9000005    1    3    3    0    0 -0.40676962260E+02  0.36860647955E+01  0.91351699559E+02  0.10007165105E+03  0.10000000000E+01 0.  0.
<mgrwt>
<rscale>  0 0.12500401E+03</rscale>
<asrwt>0</asrwt>
<pdfrwt beam="2">  1        4 0.55156448E-02 0.12500401E+03</pdfrwt>
<pdfrwt beam="1">  1       -4 0.16763507E-01 0.12500401E+03</pdfrwt>
<totfact> 0.10033853E+04</totfact>
</mgrwt>
</event>
<event>
 5    1  0.3281209E-002  0.1250104E+03  0.7818608E-02  0.1235053E+00
         -4   -1    0    0    0  501 -0.00000000000E+00  0.00000000000E+00  0.20050351313E+03  0.20050753521E+03  0.12700000000E+01 0.  1.
          4   -1    0    0  501    0  0.00000000000E+00 -0.00000000000E+00 -0.19460515240E+02  0.19501911532E+02  0.12700000000E+01 0.  1.
         25    2    1    2    0    0  0.00000000000E+00  0.00000000000E+00  0.18104299789E+03  0.22000944674E+03  0.12501035786E+03 0.  0.
    9000005    1    3    3    0    0  0.39821079811E+02  0.32497845490E+02  0.15309359838E+03  0.16149451453E+03  0.10000000000E+01 0.  0.
    9000005    1    3    3    0    0 -0.39821079811E+02 -0.32497845490E+02  0.27949399505E+02  0.58514932209E+02  0.10000000000E+01 0.  0.
<mgrwt>
<rscale>  0 0.12501036E+03</rscale>
<asrwt>0</asrwt>
<pdfrwt beam="2">  1        4 0.29974188E-02 0.12501036E+03</pdfrwt>
<pdfrwt beam="1">  1       -4 0.30850191E-01 0.12501036E+03</pdfrwt>
<totfact> 0.86846757E+03</totfact>
</mgrwt>
</event>
<event>
 5    1  0.3281209E-002  0.1250007E+03  0.7818608E-02  0.1235068E+00
         -4   -1    0    0    0  501 -0.00000000000E+00  0.00000000000E+00  0.85633574516E+03  0.85633668691E+03  0.12700000000E+01 0.  1.
          4   -1    0    0  501    0  0.00000000000E+00 -0.00000000000E+00 -0.44722770596E+01  0.46491033650E+01  0.12700000000E+01 0.  1.
         25    2    1    2    0    0  0.00000000000E+00  0.00000000000E+00  0.85186346810E+03  0.86098579027E+03  0.12500065105E+03 0.  0.
    9000005    1    3    3    0    0 -0.35458664320E+02 -0.50078854064E+02  0.50745379897E+03  0.51115121695E+03  0.10000000000E+01 0.  0.
    9000005    1    3    3    0    0  0.35458664320E+02  0.50078854064E+02  0.34440966913E+03  0.34983457332E+03  0.10000000000E+01 0.  0.
<mgrwt>
<rscale>  0 0.12500065E+03</rscale>
<asrwt>0</asrwt>
<pdfrwt beam="2">  1        4 0.70171674E-03 0.12500065E+03</pdfrwt>
<pdfrwt beam="1">  1       -4 0.13175770E+00 0.12500065E+03</pdfrwt>
<totfact> 0.35681420E+03</totfact>
</mgrwt>
</event>
<event>
 5    1  0.3281209E-002  0.1250004E+03  0.7818608E-02  0.1235069E+00
          4   -1    0    0  501    0  0.00000000000E+00  0.00000000000E+00  0.11480458311E+04  0.11480465335E+04  0.12700000000E+01 0. -1.
         -4   -1    0    0    0  501 -0.00000000000E+00 -0.00000000000E+00 -0.32833054643E+01  0.35203685563E+01  0.12700000000E+01 0. -1.
         25    2    1    2    0    0  0.00000000000E+00  0.00000000000E+00  0.11447625256E+04  0.11515669021E+04  0.12500035975E+03 0.  0.
    9000005    1    3    3    0    0 -0.50482763648E+02 -0.77660548926E+01  0.90408933482E+03  0.90553152699E+03  0.10000000000E+01 0.  0.
    9000005    1    3    3    0    0  0.50482763648E+02  0.77660548926E+01  0.24067319080E+03  0.24603537511E+03  0.10000000000E+01 0.  0.
<mgrwt>
<rscale>  0 0.12500036E+03</rscale>
<asrwt>0</asrwt>
<pdfrwt beam="1">  1        4 0.17664094E+00 0.12500036E+03</pdfrwt>
<pdfrwt beam="2">  1       -4 0.52341294E-03 0.12500036E+03</pdfrwt>
<totfact> 0.26016553E+03</totfact>
</mgrwt>
</event>
<event>
 5    1  0.3281209E-002  0.1249983E+03  0.7818608E-02  0.1235072E+00
          4   -1    0    0  501    0  0.00000000000E+00  0.00000000000E+00  0.89113832902E+02  0.89122882104E+02  0.12700000000E+01 0.  1.
         -4   -1    0    0    0  501 -0.00000000000E+00 -0.00000000000E+00 -0.43812720764E+02  0.43831123654E+02  0.12700000000E+01 0.  1.
         25    2    1    2    0    0  0.00000000000E+00  0.00000000000E+00  0.45301112138E+02  0.13295400576E+03  0.12499830753E+03 0.  0.
    9000005    1    3    3    0    0  0.72869968672E+01 -0.57354771214E+02  0.47876566170E+02  0.75072203196E+02  0.10000000000E+01 0.  0.
    9000005    1    3    3    0    0 -0.72869968672E+01  0.57354771214E+02 -0.25754540323E+01  0.57881802562E+02  0.10000000000E+01 0.  0.
<mgrwt>
<rscale>  0 0.12499831E+03</rscale>
<asrwt>0</asrwt>
<pdfrwt beam="1">  1        4 0.13711932E-01 0.12499831E+03</pdfrwt>
<pdfrwt beam="2">  1       -4 0.67425304E-02 0.12499831E+03</pdfrwt>
<totfact> 0.10281770E+04</totfact>
</mgrwt>
</event>
<event>
 5    1  0.3281209E-002  0.1250001E+03  0.7818608E-02  0.1235069E+00
         -4   -1    0    0    0  501 -0.00000000000E+00  0.00000000000E+00  0.81812589893E+02  0.81822446584E+02  0.12700000000E+01 0. -1.
          4   -1    0    0  501    0  0.00000000000E+00 -0.00000000000E+00 -0.47725204641E+02  0.47742099430E+02  0.12700000000E+01 0. -1.
         25    2    1    2    0    0  0.00000000000E+00  0.00000000000E+00  0.34087385252E+02  0.12956454601E+03  0.12500008700E+03 0.  0.
    9000005    1    3    3    0    0  0.99956257457E+01  0.60706611018E+02  0.28400531262E+02  0.67770165496E+02  0.10000000000E+01 0.  0.
    9000005    1    3    3    0    0 -0.99956257457E+01 -0.60706611018E+02  0.56868539900E+01  0.61794380519E+02  0.10000000000E+01 0.  0.
<mgrwt>
<rscale>  0 0.12500009E+03</rscale>
<asrwt>0</asrwt>
<pdfrwt beam="2">  1        4 0.73443970E-02 0.12500009E+03</pdfrwt>
<pdfrwt beam="1">  1       -4 0.12588610E-01 0.12500009E+03</pdfrwt>
<totfact> 0.10353811E+04</totfact>
</mgrwt>
</event>
<event>
 5    1  0.3281209E-002  0.1250005E+03  0.7818608E-02  0.1235069E+00
         -4   -1    0    0    0  501 -0.00000000000E+00  0.00000000000E+00  0.84114406064E+02  0.84123993055E+02  0.12700000000E+01 0. -1.
          4   -1    0    0  501    0  0.00000000000E+00 -0.00000000000E+00 -0.46419161772E+02  0.46436531736E+02  0.12700000000E+01 0. -1.
         25    2    1    2    0    0  0.00000000000E+00  0.00000000000E+00  0.37695244292E+02  0.13056052479E+03  0.12500047676E+03 0.  0.
    9000005    1    3    3    0    0  0.43892288211E+02 -0.44471853760E+02  0.19892654012E+02  0.65581982472E+02  0.10000000000E+01 0.  0.
    9000005    1    3    3    0    0 -0.43892288211E+02  0.44471853760E+02  0.17802590280E+02  0.64978542320E+02  0.10000000000E+01 0.  0.
<mgrwt>
<rscale>  0 0.12500048E+03</rscale>
<asrwt>0</asrwt>
<pdfrwt beam="2">  1        4 0.71434832E-02 0.12500048E+03</pdfrwt>
<pdfrwt beam="1">  1       -4 0.12942751E-01 0.12500048E+03</pdfrwt>
<totfact> 0.10332409E+04</totfact>
</mgrwt>
</event>
<event>
 5    1  0.3281209E-002  0.1250012E+03  0.7818608E-02  0.1235067E+00
         -4   -1    0    0    0  501 -0.00000000000E+00  0.00000000000E+00  0.16185983185E+02  0.16235730709E+02  0.12700000000E+01 0.  1.
          4   -1    0    0  501    0  0.00000000000E+00 -0.00000000000E+00 -0.24091821646E+03  0.24092156384E+03  0.12700000000E+01 0.  1.
         25    2    1    2    0    0  0.00000000000E+00  0.00000000000E+00 -0.22473223328E+03  0.25715729455E+03  0.12500118986E+03 0.  0.
    9000005    1    3    3    0    0 -0.12270306945E+02  0.14436318051E+02  0.10145115066E+02  0.21514903465E+02  0.10000000000E+01 0.  0.
    9000005    1    3    3    0    0  0.12270306945E+02 -0.14436318051E+02 -0.23487734834E+03  0.23564239108E+03  0.10000000000E+01 0.  0.
<mgrwt>
<rscale>  0 0.12500119E+03</rscale>
<asrwt>0</asrwt>
<pdfrwt beam="2">  1        4 0.37068423E-01 0.12500119E+03</pdfrwt>
<pdfrwt beam="1">  1       -4 0.24942357E-02 0.12500119E+03</pdfrwt>
<totfact> 0.81304504E+03</totfact>
</mgrwt>
</event>
<event>
 5    1  0.3281209E-002  0.1249967E+03  0.7818608E-02  0.1235074E+00
          4   -1    0    0  501    0  0.00000000000E+00  0.00000000000E+00  0.32371463755E+02  0.32396366550E+02  0.12700000000E+01 0.  1.
         -4   -1    0    0    0  501 -0.00000000000E+00 -0.00000000000E+00 -0.12058858137E+03  0.12059526880E+03  0.12700000000E+01 0.  1.
         25    2    1    2    0    0  0.00000000000E+00  0.00000000000E+00 -0.88217117616E+02  0.15299163535E+03  0.12499672254E+03 0.  0.
    9000005    1    3    3    0    0 -0.14479460337E+02  0.51943545061E+02 -0.54564727323E+01  0.54208484021E+02  0.10000000000E+01 0.  0.
    9000005    1    3    3    0    0  0.14479460337E+02 -0.51943545061E+02 -0.82760644883E+02  0.98783151330E+02  0.10000000000E+01 0.  0.
<mgrwt>
<rscale>  0 0.12499672E+03</rscale>
<asrwt>0</asrwt>
<pdfrwt beam="1">  1        4 0.49826553E-02 0.12499672E+03</pdfrwt>
<pdfrwt beam="2">  1       -4 0.18554519E-01 0.12499672E+03</pdfrwt>
<totfact> 0.98717948E+03</totfact>
</mgrwt>
</event>
<event>
 5    1  0.3281209E-002  0.1249994E+03  0.7818608E-02  0.1235070E+00
          4   -1    0    0  501    0  0.00000000000E+00  0.00000000000E+00  0.42271042532E+02  0.42290116301E+02  0.12700000000E+01 0.  1.
         -4   -1    0    0    0  501 -0.00000000000E+00 -0.00000000000E+00 -0.92364385401E+02  0.92373116168E+02  0.12700000000E+01 0.  1.
         25    2    1    2    0    0  0.00000000000E+00  0.00000000000E+00 -0.50093342869E+02  0.13466323247E+03  0.12499937271E+03 0.  0.
    9000005    1    3    3    0    0  0.39613226365E+02  0.33137524988E+02 -0.62950694159E+02  0.81431524365E+02  0.10000000000E+01 0.  0.
    9000005    1    3    3    0    0 -0.39613226365E+02 -0.33137524988E+02  0.12857351290E+02  0.53231708103E+02  0.10000000000E+01 0.  0.
<mgrwt>
<rscale>  0 0.12499937E+03</rscale>
<asrwt>0</asrwt>
<pdfrwt beam="1">  1        4 0.65053761E-02 0.12499937E+03</pdfrwt>
<pdfrwt beam="2">  1       -4 0.14212044E-01 0.12499937E+03</pdfrwt>
<totfact> 0.10245319E+04</totfact>
</mgrwt>
</event>
<event>
 5    1  0.3281209E-002  0.1250014E+03  0.7818608E-02  0.1235067E+00
         -4   -1    0    0    0  501 -0.00000000000E+00  0.00000000000E+00  0.16313151917E+02  0.16362512810E+02  0.12700000000E+01 0.  1.
          4   -1    0    0  501    0  0.00000000000E+00 -0.00000000000E+00 -0.23904654623E+03  0.23904991981E+03  0.12700000000E+01 0.  1.
         25    2    1    2    0    0  0.00000000000E+00  0.00000000000E+00 -0.22273339431E+03  0.25541243262E+03  0.12500138318E+03 0.  0.
    9000005    1    3    3    0    0 -0.63296243929E+01  0.57888785102E+02 -0.65035158512E+02  0.87302619824E+02  0.10000000000E+01 0.  0.
    9000005    1    3    3    0    0  0.63296243929E+01 -0.57888785102E+02 -0.15769823580E+03  0.16810981280E+03  0.10000000000E+01 0.  0.
<mgrwt>
<rscale>  0 0.12500138E+03</rscale>
<asrwt>0</asrwt>
<pdfrwt beam="2">  1        4 0.36780446E-01 0.12500138E+03</pdfrwt>
<pdfrwt beam="1">  1       -4 0.25137724E-02 0.12500138E+03</pdfrwt>
<totfact> 0.81551692E+03</totfact>
</mgrwt>
</event>
<event>
 5    1  0.3281209E-002  0.1249966E+03  0.7818608E-02  0.1235075E+00
          4   -1    0    0  501    0  0.00000000000E+00  0.00000000000E+00  0.27111032554E+01  0.29938237860E+01  0.12700000000E+01 0.  1.
         -4   -1    0    0    0  501 -0.00000000000E+00 -0.00000000000E+00 -0.13690738660E+04  0.13690744551E+04  0.12700000000E+01 0.  1.
         25    2    1    2    0    0  0.00000000000E+00  0.00000000000E+00 -0.13663627628E+04  0.13720682789E+04  0.12499664942E+03 0.  0.
    9000005    1    3    3    0    0 -0.24866658285E+02 -0.20017263305E+02 -0.12728736656E+04  0.12732742871E+04  0.10000000000E+01 0.  0.
    9000005    1    3    3    0    0  0.24866658285E+02  0.20017263305E+02 -0.93489097138E+02  0.98793991762E+02  0.10000000000E+01 0.  0.
<mgrwt>
<rscale>  0 0.12499665E+03</rscale>
<asrwt>0</asrwt>
<pdfrwt beam="1">  1        4 0.43888695E-03 0.12499665E+03</pdfrwt>
<pdfrwt beam="2">  1       -4 0.21064802E+00 0.12499665E+03</pdfrwt>
<totfact> 0.20589931E+03</totfact>
</mgrwt>
</event>
<event>
 5    1  0.3281209E-002  0.1249986E+03  0.7818608E-02  0.1235071E+00
         -4   -1    0    0    0  501 -0.00000000000E+00  0.00000000000E+00  0.47782629781E+02  0.47799504274E+02  0.12700000000E+01 0. -1.
          4   -1    0    0  501    0  0.00000000000E+00 -0.00000000000E+00 -0.81712366181E+02  0.81722234960E+02  0.12700000000E+01 0. -1.
         25    2    1    2    0    0  0.00000000000E+00  0.00000000000E+00 -0.33929736399E+02  0.12952173923E+03  0.12499861568E+03 0.  0.
    9000005    1    3    3    0    0  0.10112837009E+02 -0.55938930284E+02  0.99306821361E+01  0.57715265237E+02  0.10000000000E+01 0.  0.
    9000005    1    3    3    0    0 -0.10112837009E+02  0.55938930284E+02 -0.43860418535E+02  0.71806473996E+02  0.10000000000E+01 0.  0.
<mgrwt>
<rscale>  0 0.12499862E+03</rscale>
<asrwt>0</asrwt>
<pdfrwt beam="2">  1        4 0.12573190E-01 0.12499862E+03</pdfrwt>
<pdfrwt beam="1">  1       -4 0.73532310E-02 0.12499862E+03</pdfrwt>
<totfact> 0.10355073E+04</totfact>
</mgrwt>
</event>
<event>
 5    1  0.3281209E-002  0.1249953E+03  0.7818608E-02  0.1235077E+00
         -4   -1    0    0    0  501 -0.00000000000E+00  0.00000000000E+00  0.12785586296E+03  0.12786217030E+03  0.12700000000E+01 0.  1.
          4   -1    0    0  501    0  0.00000000000E+00 -0.00000000000E+00 -0.30529439620E+02  0.30555843689E+02  0.12700000000E+01 0.  1.
         25    2    1    2    0    0  0.00000000000E+00  0.00000000000E+00  0.97326423338E+02  0.15841801399E+03  0.12499533781E+03 0.  0.
    9000005    1    3    3    0    0 -0.27556595006E+02 -0.19469910902E+02  0.11532504983E+03  0.12016368202E+03  0.10000000000E+01 0.  0.
    9000005    1    3    3    0    0  0.27556595006E+02  0.19469910902E+02 -0.17998626487E+02  0.38254331967E+02  0.10000000000E+01 0.  0.
<mgrwt>
<rscale>  0 0.12499534E+03</rscale>
<asrwt>0</asrwt>
<pdfrwt beam="2">  1        4 0.46993531E-02 0.12499534E+03</pdfrwt>
<pdfrwt beam="1">  1       -4 0.19672649E-01 0.12499534E+03</pdfrwt>
<totfact> 0.97658884E+03</totfact>
</mgrwt>
</event>
<event>
 5    1  0.3281209E-002  0.1250002E+03  0.7818608E-02  0.1235069E+00
         -4   -1    0    0    0  501 -0.00000000000E+00  0.00000000000E+00  0.97290731593E+02  0.97299020313E+02  0.12700000000E+01 0.  1.
          4   -1    0    0  501    0  0.00000000000E+00 -0.00000000000E+00 -0.40130348627E+02  0.40150439362E+02  0.12700000000E+01 0.  1.
         25    2    1    2    0    0  0.00000000000E+00  0.00000000000E+00  0.57160382966E+02  0.13744945968E+03  0.12500017834E+03 0.  0.
    9000005    1    3    3    0    0  0.16708470706E+02 -0.28862900333E+02 -0.29532302672E+02  0.44557792922E+02  0.10000000000E+01 0.  0.
    9000005    1    3    3    0    0 -0.16708470706E+02  0.28862900333E+02  0.86692685638E+02  0.92891666753E+02  0.10000000000E+01 0.  0.
<mgrwt>
<rscale>  0 0.12500018E+03</rscale>
<asrwt>0</asrwt>
<pdfrwt beam="2">  1        4 0.61760829E-02 0.12500018E+03</pdfrwt>
<pdfrwt beam="1">  1       -4 0.14969988E-01 0.12500018E+03</pdfrwt>
<totfact> 0.10186656E+04</totfact>
</mgrwt>
</event>
<event>
 5    1  0.3281209E-002  0.1250005E+03  0.7818608E-02  0.1235069E+00
          4   -1    0    0  501    0  0.00000000000E+00  0.00000000000E+00  0.12611023913E+02  0.12674810616E+02  0.12700000000E+01 0. -1.
         -4   -1    0    0    0  501 -0.00000000000E+00 -0.00000000000E+00 -0.30890482611E+03  0.30890743677E+03  0.12700000000E+01 0. -1.
         25    2    1    2    0    0  0.00000000000E+00  0.00000000000E+00 -0.29629380219E+03  0.32158224739E+03  0.12500049846E+03 0.  0.
    9000005    1    3    3    0    0  0.24923906038E+02 -0.37097483935E+02 -0.35776171075E+02  0.57256954366E+02  0.10000000000E+01 0.  0.
    9000005    1    3    3    0    0 -0.24923906038E+02  0.37097483935E+02 -0.26051763112E+03  0.26432529302E+03  0.10000000000E+01 0.  0.
<mgrwt>
<rscale>  0 0.12500050E+03</rscale>
<asrwt>0</asrwt>
<pdfrwt beam="1">  1        4 0.19452653E-02 0.12500050E+03</pdfrwt>
<pdfrwt beam="2">  1       -4 0.47528921E-01 0.12500050E+03</pdfrwt>
<totfact> 0.72967528E+03</totfact>
</mgrwt>
</event>
<event>
 5    1  0.3281209E-002  0.1250019E+03  0.7818608E-02  0.1235066E+00
         -4   -1    0    0    0  501 -0.00000000000E+00  0.00000000000E+00  0.20016314538E+01  0.23705333739E+01  0.12700000000E+01 0. -1.
          4   -1    0    0  501    0  0.00000000000E+00 -0.00000000000E+00 -0.17865571156E+04  0.17865575670E+04  0.12700000000E+01 0. -1.
         25    2    1    2    0    0  0.00000000000E+00  0.00000000000E+00 -0.17845554842E+04  0.17889281004E+04  0.12500188921E+03 0.  0.
    9000005    1    3    3    0    0 -0.60216988422E+02 -0.20633288708E+01 -0.65494238604E+03  0.65770880491E+03  0.10000000000E+01 0.  0.
    9000005    1    3    3    0    0  0.60216988422E+02  0.20633288708E+01 -0.11296130981E+04  0.11312192955E+04  0.10000000000E+01 0.  0.
<mgrwt>
<rscale>  0 0.12500189E+03</rscale>
<asrwt>0</asrwt>
<pdfrwt beam="2">  1        4 0.27488218E+00 0.12500189E+03</pdfrwt>
<pdfrwt beam="1">  1       -4 0.33635652E-03 0.12500189E+03</pdfrwt>
<totfact> 0.12874424E+03</totfact>
</mgrwt>
</event>
<event>
 5    1  0.3281209E-002  0.1250087E+03  0.7818608E-02  0.1235056E+00
          4   -1    0    0  501    0  0.00000000000E+00  0.00000000000E+00  0.77793404869E+01  0.78823244295E+01  0.12700000000E+01 0. -1.
         -4   -1    0    0    0  501 -0.00000000000E+00 -0.00000000000E+00 -0.49879549838E+03  0.49879711517E+03  0.12700000000E+01 0. -1.
         25    2    1    2    0    0  0.00000000000E+00  0.00000000000E+00 -0.49101615789E+03  0.50667943960E+03  0.12500874851E+03 0.  0.
    9000005    1    3    3    0    0 -0.43663115631E+02  0.32761030864E+02 -0.12216673305E+03  0.13381129800E+03  0.10000000000E+01 0.  0.
    9000005    1    3    3    0    0  0.43663115631E+02 -0.32761030864E+02 -0.36884942484E+03  0.37286814160E+03  0.10000000000E+01 0.  0.
<mgrwt>
<rscale>  0 0.12500875E+03</rscale>
<asrwt>0</asrwt>
<pdfrwt beam="1">  1        4 0.12048682E-02 0.12500875E+03</pdfrwt>
<pdfrwt beam="2">  1       -4 0.76745790E-01 0.12500875E+03</pdfrwt>
<totfact> 0.55339190E+03</totfact>
</mgrwt>
</event>
<event>
 5    1  0.3281209E-002  0.1249972E+03  0.7818608E-02  0.1235074E+00
         -4   -1    0    0    0  501 -0.00000000000E+00  0.00000000000E+00  0.45102570379E+03  0.45102749182E+03  0.12700000000E+01 0. -1.
          4   -1    0    0  501    0  0.00000000000E+00 -0.00000000000E+00 -0.86120569077E+01  0.87051952408E+01  0.12700000000E+01 0. -1.
         25    2    1    2    0    0  0.00000000000E+00  0.00000000000E+00  0.44241364688E+03  0.45973268706E+03  0.12499723439E+03 0.  0.
    9000005    1    3    3    0    0 -0.85443876517E+01  0.73593786406E+01 -0.48568553769E+01  0.12318930898E+02  0.10000000000E+01 0.  0.
    9000005    1    3    3    0    0  0.85443876517E+01 -0.73593786406E+01  0.44727050225E+03  0.44741375616E+03  0.10000000000E+01 0.  0.
<mgrwt>
<rscale>  0 0.12499723E+03</rscale>
<asrwt>0</asrwt>
<pdfrwt beam="2">  1        4 0.13322340E-02 0.12499723E+03</pdfrwt>
<pdfrwt beam="1">  1       -4 0.69395866E-01 0.12499723E+03</pdfrwt>
<totfact> 0.59133432E+03</totfact>
</mgrwt>
</event>
<event>
 5    1  0.3281209E-002  0.1249993E+03  0.7818608E-02  0.1235070E+00
          4   -1    0    0  501    0  0.00000000000E+00  0.00000000000E+00  0.84073482710E+02  0.84083074367E+02  0.12700000000E+01 0.  1.
         -4   -1    0    0    0  501 -0.00000000000E+00 -0.00000000000E+00 -0.46440870212E+02  0.46458232059E+02  0.12700000000E+01 0.  1.
         25    2    1    2    0    0  0.00000000000E+00  0.00000000000E+00  0.37632612497E+02  0.13054130643E+03  0.12499927664E+03 0.  0.
    9000005    1    3    3    0    0 -0.28997491687E+02 -0.23053116025E+01 -0.38944431950E+02  0.48619314739E+02  0.10000000000E+01 0.  0.
    9000005    1    3    3    0    0  0.28997491687E+02  0.23053116025E+01  0.76577044448E+02  0.81921991688E+02  0.10000000000E+01 0.  0.
<mgrwt>
<rscale>  0 0.12499928E+03</rscale>
<asrwt>0</asrwt>
<pdfrwt beam="1">  1        4 0.12936455E-01 0.12499928E+03</pdfrwt>
<pdfrwt beam="2">  1       -4 0.71468226E-02 0.12499928E+03</pdfrwt>
<totfact> 0.10333102E+04</totfact>
</mgrwt>
</event>
<event>
 5    1  0.3281209E-002  0.1250044E+03  0.7818608E-02  0.1235062E+00
         -4   -1    0    0    0  501 -0.00000000000E+00  0.00000000000E+00  0.52899239912E+02  0.52914482736E+02  0.12700000000E+01 0.  1.
          4   -1    0    0  501    0  0.00000000000E+00 -0.00000000000E+00 -0.73817031875E+02  0.73827956052E+02  0.12700000000E+01 0.  1.
         25    2    1    2    0    0  0.00000000000E+00  0.00000000000E+00 -0.20917791964E+02  0.12674243879E+03  0.12500436700E+03 0.  0.
    9000005    1    3    3    0    0  0.57201552275E+02  0.26345838144E+01  0.14920407974E+02  0.59182575043E+02  0.10000000000E+01 0.  0.
    9000005    1    3    3    0    0 -0.57201552275E+02 -0.26345838144E+01 -0.35838199937E+02  0.67559863746E+02  0.10000000000E+01 0.  0.
<mgrwt>
<rscale>  0 0.12500437E+03</rscale>
<asrwt>0</asrwt>
<pdfrwt beam="2">  1        4 0.11358479E-01 0.12500437E+03</pdfrwt>
<pdfrwt beam="1">  1       -4 0.81403574E-02 0.12500437E+03</pdfrwt>
<totfact> 0.10413720E+04</totfact>
</mgrwt>
</event>
<event>
 5    1  0.3281209E-002  0.1249993E+03  0.7818608E-02  0.1235070E+00
          4   -1    0    0  501    0  0.00000000000E+00  0.00000000000E+00  0.86191638671E+02  0.86200994640E+02  0.12700000000E+01 0. -1.
         -4   -1    0    0    0  501 -0.00000000000E+00 -0.00000000000E+00 -0.45299301764E+02  0.45317100969E+02  0.12700000000E+01 0. -1.
         25    2    1    2    0    0  0.00000000000E+00  0.00000000000E+00  0.40892336908E+02  0.13151809561E+03  0.12499930502E+03 0.  0.
    9000005    1    3    3    0    0  0.20416277448E+02  0.53773075096E+02  0.46150502417E+02  0.73751182115E+02  0.10000000000E+01 0.  0.
    9000005    1    3    3    0    0 -0.20416277448E+02 -0.53773075096E+02 -0.52581655087E+01  0.57766913494E+02  0.10000000000E+01 0.  0.
<mgrwt>
<rscale>  0 0.12499931E+03</rscale>
<asrwt>0</asrwt>
<pdfrwt beam="1">  1        4 0.13262341E-01 0.12499931E+03</pdfrwt>
<pdfrwt beam="2">  1       -4 0.69712122E-02 0.12499931E+03</pdfrwt>
<totfact> 0.10312157E+04</totfact>
</mgrwt>
</event>
<event>
 5    1  0.3281209E-002  0.1250034E+03  0.7818608E-02  0.1235064E+00
          4   -1    0    0  501    0  0.00000000000E+00  0.00000000000E+00  0.16916532970E+01  0.21153228778E+01  0.12700000000E+01 0.  1.
         -4   -1    0    0    0  501 -0.00000000000E+00 -0.00000000000E+00 -0.20518409999E+04  0.20518413929E+04  0.12700000000E+01 0.  1.
         25    2    1    2    0    0  0.00000000000E+00  0.00000000000E+00 -0.20501493466E+04  0.20539567158E+04  0.12500338821E+03 0.  0.
    9000005    1    3    3    0    0 -0.44137087867E+01  0.51479625498E+02 -0.16027033037E+04  0.16035362523E+04  0.10000000000E+01 0.  0.
    9000005    1    3    3    0    0  0.44137087867E+01 -0.51479625498E+02 -0.44744604289E+03  0.45042046353E+03  0.10000000000E+01 0.  0.
<mgrwt>
<rscale>  0 0.12500339E+03</rscale>
<asrwt>0</asrwt>
<pdfrwt beam="1">  1        4 0.29287620E-03 0.12500339E+03</pdfrwt>
<pdfrwt beam="2">  1       -4 0.31569870E+00 0.12500339E+03</pdfrwt>
<totfact> 0.91727805E+02</totfact>
</mgrwt>
</event>
<event>
 5    1  0.3281209E-002  0.1250009E+03  0.7818608E-02  0.1235068E+00
         -4   -1    0    0    0  501 -0.00000000000E+00  0.00000000000E+00  0.40599510597E+02  0.40619369280E+02  0.12700000000E+01 0.  1.
          4   -1    0    0  501    0  0.00000000000E+00 -0.00000000000E+00 -0.96168084510E+02  0.96176469982E+02  0.12700000000E+01 0.  1.
         25    2    1    2    0    0  0.00000000000E+00  0.00000000000E+00 -0.55568573913E+02  0.13679583926E+03  0.12500094093E+03 0.  0.
    9000005    1    3    3    0    0 -0.59780270279E+02  0.10334662127E+02 -0.11375373189E+02  0.61732366479E+02  0.10000000000E+01 0.  0.
    9000005    1    3    3    0    0  0.59780270279E+02 -0.10334662127E+02 -0.44193200724E+02  0.75063472783E+02  0.10000000000E+01 0.  0.
<mgrwt>
<rscale>  0 0.12500094E+03</rscale>
<asrwt>0</asrwt>
<pdfrwt beam="2">  1        4 0.14797262E-01 0.12500094E+03</pdfrwt>
<pdfrwt beam="1">  1       -4 0.62482512E-02 0.12500094E+03</pdfrwt>
<totfact> 0.10200140E+04</totfact>
</mgrwt>
</event>
<event>
 5    1  0.3281209E-002  0.1250048E+03  0.7818608E-02  0.1235062E+00
         -4   -1    0    0    0  501 -0.00000000000E+00  0.00000000000E+00  0.21157711412E+01  0.24676684384E+01  0.12700000000E+01 0. -1.
          4   -1    0    0  501    0  0.00000000000E+00 -0.00000000000E+00 -0.17042835085E+04  0.17042839817E+04  0.12700000000E+01 0. -1.
         25    2    1    2    0    0  0.00000000000E+00  0.00000000000E+00 -0.17021677374E+04  0.17067516502E+04  0.12500475635E+03 0.  0.
    9000005    1    3    3    0    0  0.18248285356E+02  0.56457870575E+02 -0.58316342172E+03  0.58617494615E+03  0.10000000000E+01 0.  0.
    9000005    1    3    3    0    0 -0.18248285356E+02 -0.56457870575E+02 -0.11190043157E+04  0.11205767040E+04  0.10000000000E+01 0.  0.
<mgrwt>
<rscale>  0 0.12500476E+03</rscale>
<asrwt>0</asrwt>
<pdfrwt beam="2">  1        4 0.26222355E+00 0.12500476E+03</pdfrwt>
<pdfrwt beam="1">  1       -4 0.35261004E-03 0.12500476E+03</pdfrwt>
<totfact> 0.14194210E+03</totfact>
</mgrwt>
</event>
<event>
 5    1  0.3281209E-002  0.1250006E+03  0.7818608E-02  0.1235068E+00
         -4   -1    0    0    0  501 -0.00000000000E+00  0.00000000000E+00  0.57645205003E+02  0.57659193194E+02  0.12700000000E+01 0.  1.
          4   -1    0    0  501    0  0.00000000000E+00 -0.00000000000E+00 -0.67736099603E+02  0.67748004321E+02  0.12700000000E+01 0.  1.
         25    2    1    2    0    0  0.00000000000E+00  0.00000000000E+00 -0.10090894601E+02  0.12540719751E+03  0.12500055614E+03 0.  0.
    9000005    1    3    3    0    0 -0.10983245790E+02 -0.59762687855E+02  0.95991003653E+01  0.61525224710E+02  0.10000000000E+01 0.  0.
    9000005    1    3    3    0    0  0.10983245790E+02  0.59762687855E+02 -0.19689994966E+02  0.63881972805E+02  0.10000000000E+01 0.  0.
<mgrwt>
<rscale>  0 0.12500056E+03</rscale>
<asrwt>0</asrwt>
<pdfrwt beam="2">  1        4 0.10422930E-01 0.12500056E+03</pdfrwt>
<pdfrwt beam="1">  1       -4 0.88704848E-02 0.12500056E+03</pdfrwt>
<totfact> 0.10443876E+04</totfact>
</mgrwt>
</event>
<event>
 5    1  0.3281209E-002  0.1250014E+03  0.7818608E-02  0.1235067E+00
         -4   -1    0    0    0  501 -0.00000000000E+00  0.00000000000E+00  0.29759983212E+02  0.29787069355E+02  0.12700000000E+01 0.  1.
          4   -1    0    0  501    0  0.00000000000E+00 -0.00000000000E+00 -0.13117156898E+03  0.13117771689E+03  0.12700000000E+01 0.  1.
         25    2    1    2    0    0  0.00000000000E+00  0.00000000000E+00 -0.10141158577E+03  0.16096478625E+03  0.12500141073E+03 0.  0.
    9000005    1    3    3    0    0 -0.55193490509E+02 -0.17677278826E+02 -0.80809723215E+02  0.99448574386E+02  0.10000000000E+01 0.  0.
    9000005    1    3    3    0    0  0.55193490509E+02  0.17677278826E+02 -0.20601862557E+02  0.61516211864E+02  0.10000000000E+01 0.  0.
<mgrwt>
<rscale>  0 0.12500141E+03</rscale>
<asrwt>0</asrwt>
<pdfrwt beam="2">  1        4 0.20182798E-01 0.12500141E+03</pdfrwt>
<pdfrwt beam="1">  1       -4 0.45810155E-02 0.12500141E+03</pdfrwt>
<totfact> 0.97154023E+03</totfact>
</mgrwt>
</event>
<event>
 5    1  0.3281209E-002  0.1250019E+03  0.7818608E-02  0.1235066E+00
         -4   -1    0    0    0  501 -0.00000000000E+00  0.00000000000E+00  0.26102418943E+03  0.26102727897E+03  0.12700000000E+01 0.  1.
          4   -1    0    0  501    0  0.00000000000E+00 -0.00000000000E+00 -0.14935404907E+02  0.14989303511E+02  0.12700000000E+01 0.  1.
         25    2    1    2    0    0  0.00000000000E+00  0.00000000000E+00  0.24608878452E+03  0.27601658248E+03  0.12500185574E+03 0.  0.
    9000005    1    3    3    0    0 -0.12721619077E+01  0.28886973279E+02  0.24537572348E+03  0.24707553763E+03  0.10000000000E+01 0.  0.
    9000005    1    3    3    0    0  0.12721619077E+01 -0.28886973279E+02  0.71306104213E+00  0.28941044854E+02  0.10000000000E+01 0.  0.
<mgrwt>
<rscale>  0 0.12500186E+03</rscale>
<asrwt>0</asrwt>
<pdfrwt beam="2">  1        4 0.23021384E-02 0.12500186E+03</pdfrwt>
<pdfrwt beam="1">  1       -4 0.40161950E-01 0.12500186E+03</pdfrwt>
<totfact> 0.78706011E+03</totfact>
</mgrwt>
</event>
<event>
 5    1  0.3281209E-002  0.1250012E+03  0.7818608E-02  0.1235067E+00
         -4   -1    0    0    0  501 -0.00000000000E+00  0.00000000000E+00  0.42049677969E+02  0.42068852104E+02  0.12700000000E+01 0. -1.
          4   -1    0    0  501    0  0.00000000000E+00 -0.00000000000E+00 -0.92853135981E+02  0.92861820796E+02  0.12700000000E+01 0. -1.
         25    2    1    2    0    0  0.00000000000E+00  0.00000000000E+00 -0.50803458012E+02  0.13493067290E+03  0.12500118057E+03 0.  0.
    9000005    1    3    3    0    0  0.24858532800E+00 -0.11530557175E+02  0.40896229844E+02  0.42503142930E+02  0.10000000000E+01 0.  0.
    9000005    1    3    3    0    0 -0.24858532800E+00  0.11530557175E+02 -0.91699687856E+02  0.92427529970E+02  0.10000000000E+01 0.  0.
<mgrwt>
<rscale>  0 0.12500118E+03</rscale>
<asrwt>0</asrwt>
<pdfrwt beam="2">  1        4 0.14287241E-01 0.12500118E+03</pdfrwt>
<pdfrwt beam="1">  1       -4 0.64713243E-02 0.12500118E+03</pdfrwt>
<totfact> 0.10239260E+04</totfact>
</mgrwt>
</event>
<event>
 5    1  0.3281209E-002  0.1250007E+03  0.7818608E-02  0.1235068E+00
          4   -1    0    0  501    0  0.00000000000E+00  0.00000000000E+00  0.17450786919E+03  0.17451249041E+03  0.12700000000E+01 0.  1.
         -4   -1    0    0    0  501 -0.00000000000E+00 -0.00000000000E+00 -0.22361681332E+02  0.22397716222E+02  0.12700000000E+01 0.  1.
         25    2    1    2    0    0  0.00000000000E+00  0.00000000000E+00  0.15214618785E+03  0.19691020663E+03  0.12500066798E+03 0.  0.
    9000005    1    3    3    0    0  0.51406138945E+02 -0.58716192905E+01  0.20866009729E+02  0.55798363742E+02  0.10000000000E+01 0.  0.
    9000005    1    3    3    0    0 -0.51406138945E+02  0.58716192905E+01  0.13128017813E+03  0.14111184289E+03  0.10000000000E+01 0.  0.
<mgrwt>
<rscale>  0 0.12500067E+03</rscale>
<asrwt>0</asrwt>
<pdfrwt beam="1">  1        4 0.26850492E-01 0.12500067E+03</pdfrwt>
<pdfrwt beam="2">  1       -4 0.34433860E-02 0.12500067E+03</pdfrwt>
<totfact> 0.90657312E+03</totfact>
</mgrwt>
</event>
<event>
 5    1  0.3281209E-002  0.1250034E+03  0.7818608E-02  0.1235064E+00
          4   -1    0    0  501    0  0.00000000000E+00  0.00000000000E+00  0.32791743362E+01  0.35165159359E+01  0.12700000000E+01 0. -1.
         -4   -1    0    0    0  501 -0.00000000000E+00 -0.00000000000E+00 -0.11494505113E+04  0.11494512129E+04  0.12700000000E+01 0. -1.
         25    2    1    2    0    0  0.00000000000E+00  0.00000000000E+00 -0.11461713370E+04  0.11529677289E+04  0.12500340015E+03 0.  0.
    9000005    1    3    3    0    0 -0.27129643905E+02 -0.55418161604E+02 -0.48165100252E+03  0.48558817783E+03  0.10000000000E+01 0.  0.
    9000005    1    3    3    0    0  0.27129643905E+02  0.55418161604E+02 -0.66452033446E+03  0.66737955103E+03  0.10000000000E+01 0.  0.
<mgrwt>
<rscale>  0 0.12500340E+03</rscale>
<asrwt>0</asrwt>
<pdfrwt beam="1">  1        4 0.52280029E-03 0.12500340E+03</pdfrwt>
<pdfrwt beam="2">  1       -4 0.17685654E+00 0.12500340E+03</pdfrwt>
<totfact> 0.25976160E+03</totfact>
</mgrwt>
</event>
<event>
 5    1  0.3281209E-002  0.1250036E+03  0.7818608E-02  0.1235064E+00
         -4   -1    0    0    0  501 -0.00000000000E+00  0.00000000000E+00  0.34748925365E+03  0.34749157444E+03  0.12700000000E+01 0.  1.
          4   -1    0    0  501    0  0.00000000000E+00 -0.00000000000E+00 -0.11203763887E+02  0.11275514411E+02  0.12700000000E+01 0.  1.
         25    2    1    2    0    0  0.00000000000E+00  0.00000000000E+00  0.33628548977E+03  0.35876708885E+03  0.12500357360E+03 0.  0.
    9000005    1    3    3    0    0  0.49604385267E+02  0.22112279246E+02  0.25687922007E+03  0.26255948209E+03  0.10000000000E+01 0.  0.
    9000005    1    3    3    0    0 -0.49604385267E+02 -0.22112279246E+02  0.79406269693E+02  0.96207606756E+02  0.10000000000E+01 0.  0.
<mgrwt>
<rscale>  0 0.12500357E+03</rscale>
<asrwt>0</asrwt>
<pdfrwt beam="2">  1        4 0.17293538E-02 0.12500357E+03</pdfrwt>
<pdfrwt beam="1">  1       -4 0.53465582E-01 0.12500357E+03</pdfrwt>
<totfact> 0.68765280E+03</totfact>
</mgrwt>
</event>
<event>
 5    1  0.3281209E-002  0.1250003E+03  0.7818608E-02  0.1235069E+00
         -4   -1    0    0    0  501 -0.00000000000E+00  0.00000000000E+00  0.23510491752E+03  0.23510834767E+03  0.12700000000E+01 0. -1.
          4   -1    0    0  501    0  0.00000000000E+00 -0.00000000000E+00 -0.16587185673E+02  0.16635733484E+02  0.12700000000E+01 0. -1.
         25    2    1    2    0    0  0.00000000000E+00  0.00000000000E+00  0.21851773185E+03  0.25174408115E+03  0.12500033305E+03 0.  0.
    9000005    1    3    3    0    0  0.35922431056E+02  0.29579070172E+02  0.25252193337E+02  0.52952957552E+02  0.10000000000E+01 0.  0.
    9000005    1    3    3    0    0 -0.35922431056E+02 -0.29579070172E+02  0.19326553851E+03  0.19879112360E+03  0.10000000000E+01 0.  0.
<mgrwt>
<rscale>  0 0.12500033E+03</rscale>
<asrwt>0</asrwt>
<pdfrwt beam="2">  1        4 0.25558731E-02 0.12500033E+03</pdfrwt>
<pdfrwt beam="1">  1       -4 0.36173984E-01 0.12500033E+03</pdfrwt>
<totfact> 0.82078197E+03</totfact>
</mgrwt>
</event>
<event>
 5    1  0.3281209E-002  0.1250012E+03  0.7818608E-02  0.1235067E+00
         -4   -1    0    0    0  501 -0.00000000000E+00  0.00000000000E+00  0.81824612283E+02  0.81834467526E+02  0.12700000000E+01 0. -1.
          4   -1    0    0  501    0  0.00000000000E+00 -0.00000000000E+00 -0.47719049325E+02  0.47735946293E+02  0.12700000000E+01 0. -1.
         25    2    1    2    0    0  0.00000000000E+00  0.00000000000E+00  0.34105562957E+02  0.12957041382E+03  0.12500121084E+03 0.  0.
    9000005    1    3    3    0    0  0.53849820059E+02  0.23188080775E+01  0.49833861588E+02  0.73413852589E+02  0.10000000000E+01 0.  0.
    9000005    1    3    3    0    0 -0.53849820059E+02 -0.23188080775E+01 -0.15728298630E+02  0.56156561229E+02  0.10000000000E+01 0.  0.
<mgrwt>
<rscale>  0 0.12500121E+03</rscale>
<asrwt>0</asrwt>
<pdfrwt beam="2">  1        4 0.73434502E-02 0.12500121E+03</pdfrwt>
<pdfrwt beam="1">  1       -4 0.12590460E-01 0.12500121E+03</pdfrwt>
<totfact> 0.10353423E+04</totfact>
</mgrwt>
</event>
<event>
 5    1  0.3281209E-002  0.1249812E+03  0.7818608E-02  0.1235099E+00
         -4   -1    0    0    0  501 -0.00000000000E+00  0.00000000000E+00  0.26076006598E+02  0.26106915178E+02  0.12700000000E+01 0.  1.
          4   -1    0    0  501    0  0.00000000000E+00 -0.00000000000E+00 -0.14963505790E+03  0.14964044725E+03  0.12700000000E+01 0.  1.
         25    2    1    2    0    0  0.00000000000E+00  0.00000000000E+00 -0.12355905131E+03  0.17574736243E+03  0.12498118355E+03 0.  0.
    9000005    1    3    3    0    0  0.29822067120E+02  0.35872540272E+02 -0.33273238873E+01  0.46778904616E+02  0.10000000000E+01 0.  0.
    9000005    1    3    3    0    0 -0.29822067120E+02 -0.35872540272E+02 -0.12023172742E+03  0.12896845781E+03  0.10000000000E+01 0.  0.
<mgrwt>
<rscale>  0 0.12498118E+03</rscale>
<asrwt>0</asrwt>
<pdfrwt beam="2">  1        4 0.23023570E-01 0.12498118E+03</pdfrwt>
<pdfrwt beam="1">  1       -4 0.40144856E-02 0.12498118E+03</pdfrwt>
<totfact> 0.94427992E+03</totfact>
</mgrwt>
</event>
<event>
 5    1  0.3281209E-002  0.1249927E+03  0.7818608E-02  0.1235081E+00
         -4   -1    0    0    0  501 -0.00000000000E+00  0.00000000000E+00  0.24985356230E+02  0.25017612315E+02  0.12700000000E+01 0. -1.
          4   -1    0    0  501    0  0.00000000000E+00 -0.00000000000E+00 -0.15618775917E+03  0.15619292242E+03  0.12700000000E+01 0. -1.
         25    2    1    2    0    0  0.00000000000E+00  0.00000000000E+00 -0.13120240294E+03  0.18121053474E+03  0.12499274924E+03 0.  0.
    9000005    1    3    3    0    0 -0.62461373627E+02 -0.38375358708E+00 -0.68205293194E+02  0.92490715652E+02  0.10000000000E+01 0.  0.
    9000005    1    3    3    0    0  0.62461373627E+02  0.38375358708E+00 -0.62997109747E+02  0.88719819086E+02  0.10000000000E+01 0.  0.
<mgrwt>
<rscale>  0 0.12499275E+03</rscale>
<asrwt>0</asrwt>
<pdfrwt beam="2">  1        4 0.24031764E-01 0.12499275E+03</pdfrwt>
<pdfrwt beam="1">  1       -4 0.38467795E-02 0.12499275E+03</pdfrwt>
<totfact> 0.93414740E+03</totfact>
</mgrwt>
</event>
<event>
 5    1  0.3281209E-002  0.1250024E+03  0.7818608E-02  0.1235066E+00
          4   -1    0    0  501    0  0.00000000000E+00  0.00000000000E+00  0.63093125222E+03  0.63093253040E+03  0.12700000000E+01 0. -1.
         -4   -1    0    0    0  501 -0.00000000000E+00 -0.00000000000E+00 -0.61250572946E+01  0.62553358713E+01  0.12700000000E+01 0. -1.
         25    2    1    2    0    0  0.00000000000E+00  0.00000000000E+00  0.62480619492E+03  0.63718786628E+03  0.12500238285E+03 0.  0.
    9000005    1    3    3    0    0 -0.42969093990E+02 -0.38725406379E+02  0.19184122974E+03  0.20037479274E+03  0.10000000000E+01 0.  0.
    9000005    1    3    3    0    0  0.42969093990E+02  0.38725406379E+02  0.43296496518E+03  0.43681307353E+03  0.10000000000E+01 0.  0.
<mgrwt>
<rscale>  0 0.12500238E+03</rscale>
<asrwt>0</asrwt>
<pdfrwt beam="1">  1        4 0.97076472E-01 0.12500238E+03</pdfrwt>
<pdfrwt beam="2">  1       -4 0.95243620E-03 0.12500238E+03</pdfrwt>
<totfact> 0.46598855E+03</totfact>
</mgrwt>
</event>
<event>
 5    1  0.3281209E-002  0.1250020E+03  0.7818608E-02  0.1235066E+00
          4   -1    0    0  501    0  0.00000000000E+00  0.00000000000E+00  0.62112365202E+03  0.62112495039E+03  0.12700000000E+01 0.  1.
         -4   -1    0    0    0  501 -0.00000000000E+00 -0.00000000000E+00 -0.62237765597E+01  0.63520307512E+01  0.12700000000E+01 0.  1.
         25    2    1    2    0    0  0.00000000000E+00  0.00000000000E+00  0.61489987546E+03  0.62747698114E+03  0.12500202007E+03 0.  0.
    9000005    1    3    3    0    0 -0.29203884255E+02  0.45496744267E+02  0.15010261849E+03  0.15954503023E+03  0.10000000000E+01 0.  0.
    9000005    1    3    3    0    0  0.29203884255E+02 -0.45496744267E+02  0.46479725697E+03  0.46793195091E+03  0.10000000000E+01 0.  0.
<mgrwt>
<rscale>  0 0.12500202E+03</rscale>
<asrwt>0</asrwt>
<pdfrwt beam="1">  1        4 0.95567402E-01 0.12500202E+03</pdfrwt>
<pdfrwt beam="2">  1       -4 0.96747016E-03 0.12500202E+03</pdfrwt>
<totfact> 0.47175812E+03</totfact>
</mgrwt>
</event>
<event>
 5    1  0.3281209E-002  0.1249975E+03  0.7818608E-02  0.1235073E+00
          4   -1    0    0  501    0  0.00000000000E+00  0.00000000000E+00  0.28808988583E+02  0.28836967996E+02  0.12700000000E+01 0. -1.
         -4   -1    0    0    0  501 -0.00000000000E+00 -0.00000000000E+00 -0.13548906835E+03  0.13549502036E+03  0.12700000000E+01 0. -1.
         25    2    1    2    0    0  0.00000000000E+00  0.00000000000E+00 -0.10668007977E+03  0.16433198836E+03  0.12499745189E+03 0.  0.
    9000005    1    3    3    0    0  0.33746645661E+02  0.17045041598E+02 -0.11875420740E+03  0.12463118113E+03  0.10000000000E+01 0.  0.
    9000005    1    3    3    0    0 -0.33746645661E+02 -0.17045041598E+02  0.12074127626E+02  0.39700807226E+02  0.10000000000E+01 0.  0.
<mgrwt>
<rscale>  0 0.12499745E+03</rscale>
<asrwt>0</asrwt>
<pdfrwt beam="1">  1        4 0.44347623E-02 0.12499745E+03</pdfrwt>
<pdfrwt beam="2">  1       -4 0.20847082E-01 0.12499745E+03</pdfrwt>
<totfact> 0.96519578E+03</totfact>
</mgrwt>
</event>
<event>
 5    1  0.3281209E-002  0.1249972E+03  0.7818608E-02  0.1235074E+00
         -4   -1    0    0    0  501 -0.00000000000E+00  0.00000000000E+00  0.38265625198E+03  0.38265835948E+03  0.12700000000E+01 0.  1.
          4   -1    0    0  501    0  0.00000000000E+00 -0.00000000000E+00 -0.10166138763E+02  0.10245158727E+02  0.12700000000E+01 0.  1.
         25    2    1    2    0    0  0.00000000000E+00  0.00000000000E+00  0.37249011322E+03  0.39290351821E+03  0.12499716066E+03 0.  0.
    9000005    1    3    3    0    0 -0.58034034137E+02  0.10138512130E+02  0.12073655256E+03  0.13434676650E+03  0.10000000000E+01 0.  0.
    9000005    1    3    3    0    0  0.58034034137E+02 -0.10138512130E+02  0.25175356066E+03  0.25855675170E+03  0.10000000000E+01 0.  0.
<mgrwt>
<rscale>  0 0.12499716E+03</rscale>
<asrwt>0</asrwt>
<pdfrwt beam="2">  1        4 0.15702618E-02 0.12499716E+03</pdfrwt>
<pdfrwt beam="1">  1       -4 0.58876438E-01 0.12499716E+03</pdfrwt>
<totfact> 0.65252973E+03</totfact>
</mgrwt>
</event>
<event>
 5    1  0.3281209E-002  0.1250002E+03  0.7818608E-02  0.1235069E+00
         -4   -1    0    0    0  501 -0.00000000000E+00  0.00000000000E+00  0.35022384203E+03  0.35022614469E+03  0.12700000000E+01 0.  1.
          4   -1    0    0  501    0  0.00000000000E+00 -0.00000000000E+00 -0.11115123217E+02  0.11187442251E+02  0.12700000000E+01 0.  1.
         25    2    1    2    0    0  0.00000000000E+00  0.00000000000E+00  0.33910871881E+03  0.36141358694E+03  0.12500023061E+03 0.  0.
    9000005    1    3    3    0    0 -0.62294055333E+02 -0.49555554382E+01  0.16840671385E+03  0.17962997559E+03  0.10000000000E+01 0.  0.
    9000005    1    3    3    0    0  0.62294055333E+02  0.49555554382E+01  0.17070200497E+03  0.18178361136E+03  0.10000000000E+01 0.  0.
<mgrwt>
<rscale>  0 0.12500023E+03</rscale>
<asrwt>0</asrwt>
<pdfrwt beam="2">  1        4 0.17157590E-02 0.12500023E+03</pdfrwt>
<pdfrwt beam="1">  1       -4 0.53886335E-01 0.12500023E+03</pdfrwt>
<totfact> 0.68486553E+03</totfact>
</mgrwt>
</event>
<event>
 5    1  0.3281209E-002  0.1249960E+03  0.7818608E-02  0.1235076E+00
          4   -1    0    0  501    0  0.00000000000E+00  0.00000000000E+00  0.12193166991E+02  0.12259128080E+02  0.12700000000E+01 0. -1.
         -4   -1    0    0    0  501 -0.00000000000E+00 -0.00000000000E+00 -0.31941197466E+03  0.31941449945E+03  0.12700000000E+01 0. -1.
         25    2    1    2    0    0  0.00000000000E+00  0.00000000000E+00 -0.30721880767E+03  0.33167362753E+03  0.12499599758E+03 0.  0.
    9000005    1    3    3    0    0  0.42524549746E+02  0.45000955179E+02 -0.17605857072E+03  0.18663076815E+03  0.10000000000E+01 0.  0.
    9000005    1    3    3    0    0 -0.42524549746E+02 -0.45000955179E+02 -0.13116023695E+03  0.14504285938E+03  0.10000000000E+01 0.  0.
<mgrwt>
<rscale>  0 0.12499600E+03</rscale>
<asrwt>0</asrwt>
<pdfrwt beam="1">  1        4 0.18811402E-02 0.12499600E+03</pdfrwt>
<pdfrwt beam="2">  1       -4 0.49145566E-01 0.12499600E+03</pdfrwt>
<totfact> 0.71795249E+03</totfact>
</mgrwt>
</event>
<event>
 5    1  0.3281209E-002  0.1249993E+03  0.7818608E-02  0.1235070E+00
         -4   -1    0    0    0  501 -0.00000000000E+00  0.00000000000E+00  0.12835982229E+04  0.12835988512E+04  0.12700000000E+01 0. -1.
          4   -1    0    0  501    0  0.00000000000E+00 -0.00000000000E+00 -0.29100120397E+01  0.31750700891E+01  0.12700000000E+01 0. -1.
         25    2    1    2    0    0  0.00000000000E+00  0.00000000000E+00  0.12806882109E+04  0.12867739213E+04  0.12499932401E+03 0.  0.
    9000005    1    3    3    0    0  0.52209498942E+02  0.28828905234E+02  0.83245532994E+03  0.83458960807E+03  0.10000000000E+01 0.  0.
    9000005    1    3    3    0    0 -0.52209498942E+02 -0.28828905234E+02  0.44823288095E+03  0.45218431322E+03  0.10000000000E+01 0.  0.
<mgrwt>
<rscale>  0 0.12499932E+03</rscale>
<asrwt>0</asrwt>
<pdfrwt beam="2">  1        4 0.46813252E-03 0.12499932E+03</pdfrwt>
<pdfrwt beam="1">  1       -4 0.19749668E+00 0.12499932E+03</pdfrwt>
<totfact> 0.22543237E+03</totfact>
</mgrwt>
</event>
<event>
 5    1  0.3281209E-002  0.1249978E+03  0.7818608E-02  0.1235073E+00
         -4   -1    0    0    0  501 -0.00000000000E+00  0.00000000000E+00  0.10956869018E+04  0.10956876378E+04  0.12700000000E+01 0.  1.
          4   -1    0    0  501    0  0.00000000000E+00 -0.00000000000E+00 -0.34511194660E+01  0.36773802589E+01  0.12700000000E+01 0.  1.
         25    2    1    2    0    0  0.00000000000E+00  0.00000000000E+00  0.10922357823E+04  0.10993650181E+04  0.12499775506E+03 0.  0.
    9000005    1    3    3    0    0 -0.90245342327E+01  0.60389622389E+02  0.66304976336E+03  0.66585609361E+03  0.10000000000E+01 0.  0.
    9000005    1    3    3    0    0  0.90245342327E+01 -0.60389622389E+02  0.42918601898E+03  0.43350892448E+03  0.10000000000E+01 0.  0.
<mgrwt>
<rscale>  0 0.12499776E+03</rscale>
<asrwt>0</asrwt>
<pdfrwt beam="2">  1        4 0.54840229E-03 0.12499776E+03</pdfrwt>
<pdfrwt beam="1">  1       -4 0.16858482E+00 0.12499776E+03</pdfrwt>
<totfact> 0.27503299E+03</totfact>
</mgrwt>
</event>
<event>
 5    1  0.3281209E-002  0.1249995E+03  0.7818608E-02  0.1235070E+00
         -4   -1    0    0    0  501 -0.00000000000E+00  0.00000000000E+00  0.40318948230E+02  0.40338945033E+02  0.12700000000E+01 0.  1.
          4   -1    0    0  501    0  0.00000000000E+00 -0.00000000000E+00 -0.96834705606E+02  0.96843033357E+02  0.12700000000E+01 0.  1.
         25    2    1    2    0    0  0.00000000000E+00  0.00000000000E+00 -0.56515757375E+02  0.13718197839E+03  0.12499945745E+03 0.  0.
    9000005    1    3    3    0    0 -0.57425964424E+02 -0.14146282959E+02 -0.61077258232E+01  0.59465645766E+02  0.10000000000E+01 0.  0.
    9000005    1    3    3    0    0  0.57425964424E+02  0.14146282959E+02 -0.50408031552E+02  0.77716332624E+02  0.10000000000E+01 0.  0.
<mgrwt>
<rscale>  0 0.12499946E+03</rscale>
<asrwt>0</asrwt>
<pdfrwt beam="2">  1        4 0.14899826E-01 0.12499946E+03</pdfrwt>
<pdfrwt beam="1">  1       -4 0.62050939E-02 0.12499946E+03</pdfrwt>
<totfact> 0.10192407E+04</totfact>
</mgrwt>
</event>
<event>
 5    1  0.3281209E-002  0.1250295E+03  0.7818608E-02  0.1235023E+00
         -4   -1    0    0    0  501 -0.00000000000E+00  0.00000000000E+00  0.20644976353E+01  0.24238503432E+01  0.12700000000E+01 0.  1.
          4   -1    0    0  501    0  0.00000000000E+00 -0.00000000000E+00 -0.17410791949E+04  0.17410796581E+04  0.12700000000E+01 0.  1.
         25    2    1    2    0    0  0.00000000000E+00  0.00000000000E+00 -0.17390146973E+04  0.17435035085E+04  0.12502946299E+03 0.  0.
    9000005    1    3    3    0    0  0.32064248923E+02  0.21561591057E+02 -0.18435729845E+03  0.18836568626E+03  0.10000000000E+01 0.  0.
    9000005    1    3    3    0    0 -0.32064248923E+02 -0.21561591057E+02 -0.15546573988E+04  0.15551378222E+04  0.10000000000E+01 0.  0.
<mgrwt>
<rscale>  0 0.12502946E+03</rscale>
<asrwt>0</asrwt>
<pdfrwt beam="2">  1        4 0.26788494E+00 0.12502946E+03</pdfrwt>
<pdfrwt beam="1">  1       -4 0.34529456E-03 0.12502946E+03</pdfrwt>
<totfact> 0.13585642E+03</totfact>
</mgrwt>
</event>
<event>
 5    1  0.3281209E-002  0.1249957E+03  0.7818608E-02  0.1235076E+00
         -4   -1    0    0    0  501 -0.00000000000E+00  0.00000000000E+00  0.49795660931E+03  0.49795822883E+03  0.12700000000E+01 0. -1.
          4   -1    0    0  501    0  0.00000000000E+00 -0.00000000000E+00 -0.77909758947E+01  0.78938080412E+01  0.12700000000E+01 0. -1.
         25    2    1    2    0    0  0.00000000000E+00  0.00000000000E+00  0.49016563342E+03  0.50585203687E+03  0.12499574001E+03 0.  0.
    9000005    1    3    3    0    0  0.45574245263E+02  0.24233147878E+02  0.38763251895E+03  0.39105527364E+03  0.10000000000E+01 0.  0.
    9000005    1    3    3    0    0 -0.45574245263E+02 -0.24233147878E+02  0.10253311446E+03  0.11479676323E+03  0.10000000000E+01 0.  0.
<mgrwt>
<rscale>  0 0.12499574E+03</rscale>
<asrwt>0</asrwt>
<pdfrwt beam="2">  1        4 0.12066464E-02 0.12499574E+03</pdfrwt>
<pdfrwt beam="1">  1       -4 0.76616747E-01 0.12499574E+03</pdfrwt>
<totfact> 0.55418349E+03</totfact>
</mgrwt>
</event>
<event>
 5    1  0.3281209E-002  0.1250009E+03  0.7818608E-02  0.1235068E+00
          4   -1    0    0  501    0  0.00000000000E+00  0.00000000000E+00  0.75258764473E+02  0.75269479406E+02  0.12700000000E+01 0.  1.
         -4   -1    0    0    0  501 -0.00000000000E+00 -0.00000000000E+00 -0.51882802989E+02  0.51898344347E+02  0.12700000000E+01 0.  1.
         25    2    1    2    0    0  0.00000000000E+00  0.00000000000E+00  0.23375961484E+02  0.12716782375E+03  0.12500087929E+03 0.  0.
    9000005    1    3    3    0    0 -0.35948021684E+02  0.44818774677E+02 -0.13321139811E+02  0.58986740819E+02  0.10000000000E+01 0.  0.
    9000005    1    3    3    0    0  0.35948021684E+02 -0.44818774677E+02  0.36697101295E+02  0.68181082934E+02  0.10000000000E+01 0.  0.
<mgrwt>
<rscale>  0 0.12500088E+03</rscale>
<asrwt>0</asrwt>
<pdfrwt beam="1">  1        4 0.11580291E-01 0.12500088E+03</pdfrwt>
<pdfrwt beam="2">  1       -4 0.79839894E-02 0.12500088E+03</pdfrwt>
<totfact> 0.10405295E+04</totfact>
</mgrwt>
</event>
<event>
 5    1  0.3281209E-002  0.1249998E+03  0.7818608E-02  0.1235070E+00
         -4   -1    0    0    0  501 -0.00000000000E+00  0.00000000000E+00  0.21512192127E+03  0.21512567004E+03  0.12700000000E+01 0.  1.
          4   -1    0    0  501    0  0.00000000000E+00 -0.00000000000E+00 -0.18132144894E+02  0.18176566740E+02  0.12700000000E+01 0.  1.
         25    2    1    2    0    0  0.00000000000E+00  0.00000000000E+00  0.19698977638E+03  0.23330223678E+03  0.12499984676E+03 0.  0.
    9000005    1    3    3    0    0 -0.48994554992E+02  0.36868456024E+00  0.26097075416E+02  0.55521704697E+02  0.10000000000E+01 0.  0.
    9000005    1    3    3    0    0  0.48994554992E+02 -0.36868456024E+00  0.17089270096E+03  0.17778053209E+03  0.10000000000E+01 0.  0.
<mgrwt>
<rscale>  0 0.12499985E+03</rscale>
<asrwt>0</asrwt>
<pdfrwt beam="2">  1        4 0.27932661E-02 0.12499985E+03</pdfrwt>
<pdfrwt beam="1">  1       -4 0.33099387E-01 0.12499985E+03</pdfrwt>
<totfact> 0.84805389E+03</totfact>
</mgrwt>
</event>
<event>
 5    1  0.3281209E-002  0.1249995E+03  0.7818608E-02  0.1235070E+00
         -4   -1    0    0    0  501 -0.00000000000E+00  0.00000000000E+00  0.42394975089E+03  0.42395165311E+03  0.12700000000E+01 0. -1.
          4   -1    0    0  501    0  0.00000000000E+00 -0.00000000000E+00 -0.91681722278E+01  0.92557161796E+01  0.12700000000E+01 0. -1.
         25    2    1    2    0    0  0.00000000000E+00  0.00000000000E+00  0.41478157866E+03  0.43320736929E+03  0.12499946726E+03 0.  0.
    9000005    1    3    3    0    0 -0.86062735840E+01  0.54897637212E+02  0.10830656616E+03  0.12173385227E+03  0.10000000000E+01 0.  0.
    9000005    1    3    3    0    0  0.86062735840E+01 -0.54897637212E+02  0.30647501250E+03  0.31147351702E+03  0.10000000000E+01 0.  0.
<mgrwt>
<rscale>  0 0.12499947E+03</rscale>
<asrwt>0</asrwt>
<pdfrwt beam="2">  1        4 0.14173686E-02 0.12499947E+03</pdfrwt>
<pdfrwt beam="1">  1       -4 0.65229915E-01 0.12499947E+03</pdfrwt>
<totfact> 0.61447057E+03</totfact>
</mgrwt>
</event>
<event>
 5    1  0.3281209E-002  0.1250015E+03  0.7818608E-02  0.1235067E+00
          4   -1    0    0  501    0  0.00000000000E+00  0.00000000000E+00  0.55678597259E+02  0.55693079397E+02  0.12700000000E+01 0.  1.
         -4   -1    0    0    0  501 -0.00000000000E+00 -0.00000000000E+00 -0.70129496876E+02  0.70140995375E+02  0.12700000000E+01 0.  1.
         25    2    1    2    0    0  0.00000000000E+00  0.00000000000E+00 -0.14450899617E+02  0.12583407477E+03  0.12500154349E+03 0.  0.
    9000005    1    3    3    0    0  0.41687101077E+02 -0.41673747014E+02 -0.28120157393E+02  0.65316604613E+02  0.10000000000E+01 0.  0.
    9000005    1    3    3    0    0 -0.41687101077E+02  0.41673747014E+02  0.13669257776E+02  0.60517470159E+02  0.10000000000E+01 0.  0.
<mgrwt>
<rscale>  0 0.12500154E+03</rscale>
<asrwt>0</asrwt>
<pdfrwt beam="1">  1        4 0.85679365E-02 0.12500154E+03</pdfrwt>
<pdfrwt beam="2">  1       -4 0.10791152E-01 0.12500154E+03</pdfrwt>
<totfact> 0.10434233E+04</totfact>
</mgrwt>
</event>
<event>
 5    1  0.3281209E-002  0.1249890E+03  0.7818608E-02  0.1235086E+00
         -4   -1    0    0    0  501 -0.00000000000E+00  0.00000000000E+00  0.25401463826E+02  0.25433192181E+02  0.12700000000E+01 0.  1.
          4   -1    0    0  501    0  0.00000000000E+00 -0.00000000000E+00 -0.15362319880E+03  0.15362844824E+03  0.12700000000E+01 0.  1.
         25    2    1    2    0    0  0.00000000000E+00  0.00000000000E+00 -0.12822173497E+03  0.17906164042E+03  0.12498903052E+03 0.  0.
    9000005    1    3    3    0    0 -0.64474306924E+01 -0.12568258640E+02  0.23091194679E+02  0.27087520364E+02  0.10000000000E+01 0.  0.
    9000005    1    3    3    0    0  0.64474306924E+01  0.12568258640E+02 -0.15131292965E+03  0.15197412006E+03  0.10000000000E+01 0.  0.
<mgrwt>
<rscale>  0 0.12498903E+03</rscale>
<asrwt>0</asrwt>
<pdfrwt beam="2">  1        4 0.23637182E-01 0.12498903E+03</pdfrwt>
<pdfrwt beam="1">  1       -4 0.39107620E-02 0.12498903E+03</pdfrwt>
<totfact> 0.93809258E+03</totfact>
</mgrwt>
</event>
<event>
 5    1  0.3281209E-002  0.1249982E+03  0.7818608E-02  0.1235072E+00
         -4   -1    0    0    0  501 -0.00000000000E+00  0.00000000000E+00  0.61871872522E+02  0.61884905343E+02  0.12700000000E+01 0. -1.
          4   -1    0    0  501    0  0.00000000000E+00 -0.00000000000E+00 -0.63106613654E+02  0.63119391528E+02  0.12700000000E+01 0. -1.
         25    2    1    2    0    0  0.00000000000E+00  0.00000000000E+00 -0.12347411327E+01  0.12500429687E+03  0.12499819859E+03 0.  0.
    9000005    1    3    3    0    0  0.25022874186E+02  0.42262335789E+02  0.38022425296E+02  0.62120480393E+02  0.10000000000E+01 0.  0.
    9000005    1    3    3    0    0 -0.25022874186E+02 -0.42262335789E+02 -0.39257166428E+02  0.62883816478E+02  0.10000000000E+01 0.  0.
<mgrwt>
<rscale>  0 0.12499820E+03</rscale>
<asrwt>0</asrwt>
<pdfrwt beam="2">  1        4 0.97106952E-02 0.12499820E+03</pdfrwt>
<pdfrwt beam="1">  1       -4 0.95207350E-02 0.12499820E+03</pdfrwt>
<totfact> 0.10453195E+04</totfact>
</mgrwt>
</event>
<event>
 5    1  0.3281209E-002  0.1250055E+03  0.7818608E-02  0.1235061E+00
         -4   -1    0    0    0  501 -0.00000000000E+00  0.00000000000E+00  0.36940103429E+02  0.36961928269E+02  0.12700000000E+01 0.  1.
          4   -1    0    0  501    0  0.00000000000E+00 -0.00000000000E+00 -0.10569794515E+03  0.10570557463E+03  0.12700000000E+01 0.  1.
         25    2    1    2    0    0  0.00000000000E+00  0.00000000000E+00 -0.68757841717E+02  0.14266750290E+03  0.12500550222E+03 0.  0.
    9000005    1    3    3    0    0  0.14931037356E+02 -0.27437744419E+02  0.27396684248E+02  0.41561328217E+02  0.10000000000E+01 0.  0.
    9000005    1    3    3    0    0 -0.14931037356E+02  0.27437744419E+02 -0.96154525966E+02  0.10110617468E+03  0.10000000000E+01 0.  0.
<mgrwt>
<rscale>  0 0.12500550E+03</rscale>
<asrwt>0</asrwt>
<pdfrwt beam="2">  1        4 0.16263488E-01 0.12500550E+03</pdfrwt>
<pdfrwt beam="1">  1       -4 0.56853586E-02 0.12500550E+03</pdfrwt>
<totfact> 0.10077348E+04</totfact>
</mgrwt>
</event>
<event>
 5    1  0.3281209E-002  0.1249988E+03  0.7818608E-02  0.1235071E+00
         -4   -1    0    0    0  501 -0.00000000000E+00  0.00000000000E+00  0.13695357158E+03  0.13695945995E+03  0.12700000000E+01 0. -1.
          4   -1    0    0  501    0  0.00000000000E+00 -0.00000000000E+00 -0.28501252492E+02  0.28529533709E+02  0.12700000000E+01 0. -1.
         25    2    1    2    0    0  0.00000000000E+00  0.00000000000E+00  0.10845231909E+03  0.16548899366E+03  0.12499880602E+03 0.  0.
    9000005    1    3    3    0    0 -0.51715691521E+02  0.32222217944E+02  0.35862638279E+02  0.70710062248E+02  0.10000000000E+01 0.  0.
    9000005    1    3    3    0    0  0.51715691521E+02 -0.32222217944E+02  0.72589680810E+02  0.94778931408E+02  0.10000000000E+01 0.  0.
<mgrwt>
<rscale>  0 0.12499881E+03</rscale>
<asrwt>0</asrwt>
<pdfrwt beam="2">  1        4 0.43874366E-02 0.12499881E+03</pdfrwt>
<pdfrwt beam="1">  1       -4 0.21072408E-01 0.12499881E+03</pdfrwt>
<totfact> 0.96297448E+03</totfact>
</mgrwt>
</event>
<event>
 5    1  0.3281209E-002  0.1250030E+03  0.7818608E-02  0.1235065E+00
         -4   -1    0    0    0  501 -0.00000000000E+00  0.00000000000E+00  0.35795673899E+03  0.35795899191E+03  0.12700000000E+01 0. -1.
          4   -1    0    0  501    0  0.00000000000E+00 -0.00000000000E+00 -0.10873903468E+02  0.10947816067E+02  0.12700000000E+01 0. -1.
         25    2    1    2    0    0  0.00000000000E+00  0.00000000000E+00  0.34708283552E+03  0.36890680798E+03  0.12500295299E+03 0.  0.
    9000005    1    3    3    0    0  0.35039039939E+01  0.49879633030E+02  0.62914123840E+02  0.80370654551E+02  0.10000000000E+01 0.  0.
    9000005    1    3    3    0    0 -0.35039039939E+01 -0.49879633030E+02  0.28416871168E+03  0.28853615343E+03  0.10000000000E+01 0.  0.
<mgrwt>
<rscale>  0 0.12500295E+03</rscale>
<asrwt>0</asrwt>
<pdfrwt beam="2">  1        4 0.16787671E-02 0.12500295E+03</pdfrwt>
<pdfrwt beam="1">  1       -4 0.55076126E-01 0.12500295E+03</pdfrwt>
<totfact> 0.67689039E+03</totfact>
</mgrwt>
</event>
<event>
 5    1  0.3281209E-002  0.1249994E+03  0.7818608E-02  0.1235070E+00
         -4   -1    0    0    0  501 -0.00000000000E+00  0.00000000000E+00  0.11432615319E+02  0.11502938452E+02  0.12700000000E+01 0. -1.
          4   -1    0    0  501    0  0.00000000000E+00 -0.00000000000E+00 -0.34055368074E+03  0.34055604878E+03  0.12700000000E+01 0. -1.
         25    2    1    2    0    0  0.00000000000E+00  0.00000000000E+00 -0.32912106542E+03  0.35205898723E+03  0.12499941917E+03 0.  0.
    9000005    1    3    3    0    0  0.57303194435E+02 -0.24495738649E+02 -0.15149605114E+03  0.16381621048E+03  0.10000000000E+01 0.  0.
    9000005    1    3    3    0    0 -0.57303194435E+02  0.24495738649E+02 -0.17762501427E+03  0.18824277675E+03  0.10000000000E+01 0.  0.
<mgrwt>
<rscale>  0 0.12499942E+03</rscale>
<asrwt>0</asrwt>
<pdfrwt beam="2">  1        4 0.52398458E-01 0.12499942E+03</pdfrwt>
<pdfrwt beam="1">  1       -4 0.17644558E-02 0.12499942E+03</pdfrwt>
<totfact> 0.69499531E+03</totfact>
</mgrwt>
</event>
<event>
 5    1  0.3281209E-002  0.1249942E+03  0.7818608E-02  0.1235078E+00
         -4   -1    0    0    0  501 -0.00000000000E+00  0.00000000000E+00  0.52888077550E+01  0.54391531941E+01  0.12700000000E+01 0. -1.
          4   -1    0    0  501    0  0.00000000000E+00 -0.00000000000E+00 -0.72801814541E+03  0.72801925314E+03  0.12700000000E+01 0. -1.
         25    2    1    2    0    0  0.00000000000E+00  0.00000000000E+00 -0.72272933765E+03  0.73345840634E+03  0.12499415314E+03 0.  0.
    9000005    1    3    3    0    0  0.79731960854E+00  0.27239343536E+02 -0.69134272641E+03  0.69188032412E+03  0.10000000000E+01 0.  0.
    9000005    1    3    3    0    0 -0.79731960854E+00 -0.27239343536E+02 -0.31386611248E+02  0.41578082213E+02  0.10000000000E+01 0.  0.
<mgrwt>
<rscale>  0 0.12499415E+03</rscale>
<asrwt>0</asrwt>
<pdfrwt beam="2">  1        4 0.11201436E+00 0.12499415E+03</pdfrwt>
<pdfrwt beam="1">  1       -4 0.82531355E-03 0.12499415E+03</pdfrwt>
<totfact> 0.41383409E+03</totfact>
</mgrwt>
</event>
<event>
 5    1  0.3281209E-002  0.1249928E+03  0.7818608E-02  0.1235081E+00
         -4   -1    0    0    0  501 -0.00000000000E+00  0.00000000000E+00  0.19026639438E+03  0.19027063286E+03  0.12700000000E+01 0. -1.
          4   -1    0    0  501    0  0.00000000000E+00 -0.00000000000E+00 -0.20503933732E+02  0.20543227558E+02  0.12700000000E+01 0. -1.
         25    2    1    2    0    0  0.00000000000E+00  0.00000000000E+00  0.16976246065E+03  0.21081386042E+03  0.12499276259E+03 0.  0.
    9000005    1    3    3    0    0  0.11120833433E+02 -0.60237510814E+02  0.10571388619E+03  0.12218288088E+03  0.10000000000E+01 0.  0.
    9000005    1    3    3    0    0 -0.11120833433E+02  0.60237510814E+02  0.64048574454E+02  0.88630979544E+02  0.10000000000E+01 0.  0.
<mgrwt>
<rscale>  0 0.12499276E+03</rscale>
<asrwt>0</asrwt>
<pdfrwt beam="2">  1        4 0.31577998E-02 0.12499276E+03</pdfrwt>
<pdfrwt beam="1">  1       -4 0.29275103E-01 0.12499276E+03</pdfrwt>
<totfact> 0.88357432E+03</totfact>
</mgrwt>
</event>
<event>
 5    1  0.3281209E-002  0.1250332E+03  0.7818608E-02  0.1235017E+00
          4   -1    0    0  501    0  0.00000000000E+00  0.00000000000E+00  0.22937708729E+03  0.22938060309E+03  0.12700000000E+01 0. -1.
         -4   -1    0    0    0  501 -0.00000000000E+00 -0.00000000000E+00 -0.17011544104E+02  0.17058884278E+02  0.12700000000E+01 0. -1.
         25    2    1    2    0    0  0.00000000000E+00  0.00000000000E+00  0.21236554319E+03  0.24643948737E+03  0.12503318360E+03 0.  0.
    9000005    1    3    3    0    0  0.25067587783E+02  0.18645473458E+02 -0.52944711839E+00  0.31262084895E+02  0.10000000000E+01 0.  0.
    9000005    1    3    3    0    0 -0.25067587783E+02 -0.18645473458E+02  0.21289499030E+03  0.21517740247E+03  0.10000000000E+01 0.  0.
<mgrwt>
<rscale>  0 0.12503318E+03</rscale>
<asrwt>0</asrwt>
<pdfrwt beam="1">  1        4 0.35292692E-01 0.12503318E+03</pdfrwt>
<pdfrwt beam="2">  1       -4 0.26210728E-02 0.12503318E+03</pdfrwt>
<totfact> 0.82786343E+03</totfact>
</mgrwt>
</event>
<event>
 5    1  0.3281209E-002  0.1250026E+03  0.7818608E-02  0.1235065E+00
         -4   -1    0    0    0  501 -0.00000000000E+00  0.00000000000E+00  0.18845912210E+02  0.18888655511E+02  0.12700000000E+01 0. -1.
          4   -1    0    0  501    0  0.00000000000E+00 -0.00000000000E+00 -0.20700204088E+03  0.20700593670E+03  0.12700000000E+01 0. -1.
         25    2    1    2    0    0  0.00000000000E+00  0.00000000000E+00 -0.18815612867E+03  0.22589459221E+03  0.12500255211E+03 0.  0.
    9000005    1    3    3    0    0 -0.59778839837E+02  0.75917418400E+01 -0.64150431696E+02  0.88019441734E+02  0.10000000000E+01 0.  0.
    9000005    1    3    3    0    0  0.59778839837E+02 -0.75917418400E+01 -0.12400569697E+03  0.13787515047E+03  0.10000000000E+01 0.  0.
<mgrwt>
<rscale>  0 0.12500255E+03</rscale>
<asrwt>0</asrwt>
<pdfrwt beam="2">  1        4 0.31850054E-01 0.12500255E+03</pdfrwt>
<pdfrwt beam="1">  1       -4 0.29029589E-02 0.12500255E+03</pdfrwt>
<totfact> 0.85939104E+03</totfact>
</mgrwt>
</event>
<event>
 5    1  0.3281209E-002  0.1250004E+03  0.7818608E-02  0.1235069E+00
          4   -1    0    0  501    0  0.00000000000E+00  0.00000000000E+00  0.39308153656E+03  0.39308358817E+03  0.12700000000E+01 0. -1.
         -4   -1    0    0    0  501 -0.00000000000E+00 -0.00000000000E+00 -0.98949099637E+01  0.99760785477E+01  0.12700000000E+01 0. -1.
         25    2    1    2    0    0  0.00000000000E+00  0.00000000000E+00  0.38318662660E+03  0.40305966671E+03  0.12500041651E+03 0.  0.
    9000005    1    3    3    0    0  0.47211010906E+02  0.33709891026E+02  0.11666072461E+03  0.13029183002E+03  0.10000000000E+01 0.  0.
    9000005    1    3    3    0    0 -0.47211010906E+02 -0.33709891026E+02  0.26652590199E+03  0.27276783669E+03  0.10000000000E+01 0.  0.
<mgrwt>
<rscale>  0 0.12500042E+03</rscale>
<asrwt>0</asrwt>
<pdfrwt beam="1">  1        4 0.60480492E-01 0.12500042E+03</pdfrwt>
<pdfrwt beam="2">  1       -4 0.15286952E-02 0.12500042E+03</pdfrwt>
<totfact> 0.64255696E+03</totfact>
</mgrwt>
</event>
<event>
 5    1  0.3281209E-002  0.1250019E+03  0.7818608E-02  0.1235066E+00
         -4   -1    0    0    0  501 -0.00000000000E+00  0.00000000000E+00  0.58385551299E+02  0.58399362158E+02  0.12700000000E+01 0.  1.
          4   -1    0    0  501    0  0.00000000000E+00 -0.00000000000E+00 -0.66878638800E+02  0.66890696123E+02  0.12700000000E+01 0.  1.
         25    2    1    2    0    0  0.00000000000E+00  0.00000000000E+00 -0.84930875015E+01  0.12529005828E+03  0.12500186466E+03 0.  0.
    9000005    1    3    3    0    0 -0.50247618644E+02 -0.13832385847E+02  0.30317863673E+02  0.60301997772E+02  0.10000000000E+01 0.  0.
    9000005    1    3    3    0    0  0.50247618644E+02  0.13832385847E+02 -0.38810951174E+02  0.64988060509E+02  0.10000000000E+01 0.  0.
<mgrwt>
<rscale>  0 0.12500186E+03</rscale>
<asrwt>0</asrwt>
<pdfrwt beam="2">  1        4 0.10291011E-01 0.12500186E+03</pdfrwt>
<pdfrwt beam="1">  1       -4 0.89843823E-02 0.12500186E+03</pdfrwt>
<totfact> 0.10446126E+04</totfact>
</mgrwt>
</event>
<event>
 5    1  0.3281209E-002  0.1250454E+03  0.7818608E-02  0.1234998E+00
          4   -1    0    0  501    0  0.00000000000E+00  0.00000000000E+00  0.30892559473E+03  0.30892820522E+03  0.12700000000E+01 0.  1.
         -4   -1    0    0    0  501 -0.00000000000E+00 -0.00000000000E+00 -0.12619272670E+02  0.12683017887E+02  0.12700000000E+01 0.  1.
         25    2    1    2    0    0  0.00000000000E+00  0.00000000000E+00  0.29630632206E+03  0.32161122310E+03  0.12504536111E+03 0.  0.
    9000005    1    3    3    0    0 -0.14513740424E+02 -0.53816101122E+02  0.75349792270E+02  0.93730531825E+02  0.10000000000E+01 0.  0.
    9000005    1    3    3    0    0  0.14513740424E+02  0.53816101122E+02  0.22095652979E+03  0.22788069128E+03  0.10000000000E+01 0.  0.
<mgrwt>
<rscale>  0 0.12504536E+03</rscale>
<asrwt>0</asrwt>
<pdfrwt beam="1">  1        4 0.47532118E-01 0.12504536E+03</pdfrwt>
<pdfrwt beam="2">  1       -4 0.19465309E-02 0.12504536E+03</pdfrwt>
<totfact> 0.72891587E+03</totfact>
</mgrwt>
</event>
<event>
 5    1  0.3281209E-002  0.1250072E+03  0.7818608E-02  0.1235058E+00
          4   -1    0    0  501    0  0.00000000000E+00  0.00000000000E+00  0.65722845811E+02  0.65735115132E+02  0.12700000000E+01 0.  1.
         -4   -1    0    0    0  501 -0.00000000000E+00 -0.00000000000E+00 -0.59417465271E+02  0.59431036330E+02  0.12700000000E+01 0.  1.
         25    2    1    2    0    0  0.00000000000E+00  0.00000000000E+00  0.63053805392E+01  0.12516615146E+03  0.12500723038E+03 0.  0.
    9000005    1    3    3    0    0  0.20413021425E+02 -0.47378738509E+02 -0.32166302838E+02  0.60803843174E+02  0.10000000000E+01 0.  0.
    9000005    1    3    3    0    0 -0.20413021425E+02  0.47378738509E+02  0.38471683378E+02  0.64362308289E+02  0.10000000000E+01 0.  0.
<mgrwt>
<rscale>  0 0.12500723E+03</rscale>
<asrwt>0</asrwt>
<pdfrwt beam="1">  1        4 0.10113195E-01 0.12500723E+03</pdfrwt>
<pdfrwt beam="2">  1       -4 0.91431362E-02 0.12500723E+03</pdfrwt>
<totfact> 0.10447548E+04</totfact>
</mgrwt>
</event>
<event>
 5    1  0.3281209E-002  0.1250012E+03  0.7818608E-02  0.1235067E+00
         -4   -1    0    0    0  501 -0.00000000000E+00  0.00000000000E+00  0.33667802070E+03  0.33668041600E+03  0.12700000000E+01 0.  1.
          4   -1    0    0  501    0  0.00000000000E+00 -0.00000000000E+00 -0.11565348804E+02  0.11634869700E+02  0.12700000000E+01 0.  1.
         25    2    1    2    0    0  0.00000000000E+00  0.00000000000E+00  0.32511267189E+03  0.34831528570E+03  0.12500115531E+03 0.  0.
    9000005    1    3    3    0    0  0.14790091123E+01 -0.36739020794E+02  0.30336071303E+03  0.30558250167E+03  0.10000000000E+01 0.  0.
    9000005    1    3    3    0    0 -0.14790091123E+01  0.36739020794E+02  0.21751958862E+02  0.42732784033E+02  0.10000000000E+01 0.  0.
<mgrwt>
<rscale>  0 0.12500116E+03</rscale>
<asrwt>0</asrwt>
<pdfrwt beam="2">  1        4 0.17848163E-02 0.12500116E+03</pdfrwt>
<pdfrwt beam="1">  1       -4 0.51802155E-01 0.12500116E+03</pdfrwt>
<totfact> 0.69908501E+03</totfact>
</mgrwt>
</event>
<event>
 5    1  0.3281209E-002  0.1250012E+03  0.7818608E-02  0.1235067E+00
         -4   -1    0    0    0  501 -0.00000000000E+00  0.00000000000E+00  0.10088100141E+03  0.10088899516E+03  0.12700000000E+01 0. -1.
          4   -1    0    0  501    0  0.00000000000E+00 -0.00000000000E+00 -0.38702175303E+02  0.38723007027E+02  0.12700000000E+01 0. -1.
         25    2    1    2    0    0  0.00000000000E+00  0.00000000000E+00  0.62178826102E+02  0.13961200219E+03  0.12500121895E+03 0.  0.
    9000005    1    3    3    0    0  0.17244208034E+02  0.55444030809E+02  0.52818028641E+01  0.58312097412E+02  0.10000000000E+01 0.  0.
    9000005    1    3    3    0    0 -0.17244208034E+02 -0.55444030809E+02  0.56897023238E+02  0.81299904775E+02  0.10000000000E+01 0.  0.
<mgrwt>
<rscale>  0 0.12500122E+03</rscale>
<asrwt>0</asrwt>
<pdfrwt beam="2">  1        4 0.59563982E-02 0.12500122E+03</pdfrwt>
<pdfrwt beam="1">  1       -4 0.15522371E-01 0.12500122E+03</pdfrwt>
<totfact> 0.10141355E+04</totfact>
</mgrwt>
</event>
<event>
 5    1  0.3281209E-002  0.1249995E+03  0.7818608E-02  0.1235070E+00
          4   -1    0    0  501    0  0.00000000000E+00  0.00000000000E+00  0.52209265464E+02  0.52224709671E+02  0.12700000000E+01 0.  1.
         -4   -1    0    0    0  501 -0.00000000000E+00 -0.00000000000E+00 -0.74786545331E+02  0.74797327910E+02  0.12700000000E+01 0.  1.
         25    2    1    2    0    0  0.00000000000E+00  0.00000000000E+00 -0.22577279867E+02  0.12702203758E+03  0.12499945786E+03 0.  0.
    9000005    1    3    3    0    0  0.52572275631E+02  0.25975319642E+02  0.10663091332E+02  0.59609251902E+02  0.10000000000E+01 0.  0.
    9000005    1    3    3    0    0 -0.52572275631E+02 -0.25975319642E+02 -0.33240371199E+02  0.67412785679E+02  0.10000000000E+01 0.  0.
<mgrwt>
<rscale>  0 0.12499946E+03</rscale>
<asrwt>0</asrwt>
<pdfrwt beam="1">  1        4 0.80342121E-02 0.12499946E+03</pdfrwt>
<pdfrwt beam="2">  1       -4 0.11507640E-01 0.12499946E+03</pdfrwt>
<totfact> 0.10408794E+04</totfact>
</mgrwt>
</event>
<event>
 5    1  0.3281209E-002  0.1250054E+03  0.7818608E-02  0.1235061E+00
          4   -1    0    0  501    0  0.00000000000E+00  0.00000000000E+00  0.16987109444E+01  0.21209712098E+01  0.12700000000E+01 0. -1.
         -4   -1    0    0    0  501 -0.00000000000E+00 -0.00000000000E+00 -0.20450824096E+04  0.20450828039E+04  0.12700000000E+01 0. -1.
         25    2    1    2    0    0  0.00000000000E+00  0.00000000000E+00 -0.20433836986E+04  0.20472037751E+04  0.12500542804E+03 0.  0.
    9000005    1    3    3    0    0  0.15404612581E+02  0.47704473713E+02 -0.16328319419E+04  0.16336015945E+04  0.10000000000E+01 0.  0.
    9000005    1    3    3    0    0 -0.15404612581E+02 -0.47704473713E+02 -0.41055175672E+03  0.41360218066E+03  0.10000000000E+01 0.  0.
<mgrwt>
<rscale>  0 0.12500543E+03</rscale>
<asrwt>0</asrwt>
<pdfrwt beam="1">  1        4 0.29385367E-03 0.12500543E+03</pdfrwt>
<pdfrwt beam="2">  1       -4 0.31465882E+00 0.12500543E+03</pdfrwt>
<totfact> 0.92566554E+02</totfact>
</mgrwt>
</event>
<event>
 5    1  0.3281209E-002  0.1250001E+03  0.7818608E-02  0.1235069E+00
          4   -1    0    0  501    0  0.00000000000E+00  0.00000000000E+00  0.50517543294E+01  0.52089463238E+01  0.12700000000E+01 0.  1.
         -4   -1    0    0    0  501 -0.00000000000E+00 -0.00000000000E+00 -0.76124421711E+03  0.76124527650E+03  0.12700000000E+01 0.  1.
         25    2    1    2    0    0  0.00000000000E+00  0.00000000000E+00 -0.75619246278E+03  0.76645422282E+03  0.12500013963E+03 0.  0.
    9000005    1    3    3    0    0 -0.53140614566E+02 -0.27469266912E+02 -0.26725561575E+03  0.27387049803E+03  0.10000000000E+01 0.  0.
    9000005    1    3    3    0    0  0.53140614566E+02  0.27469266912E+02 -0.48893684703E+03  0.49258372479E+03  0.10000000000E+01 0.  0.
<mgrwt>
<rscale>  0 0.12500014E+03</rscale>
<asrwt>0</asrwt>
<pdfrwt beam="1">  1        4 0.78936676E-03 0.12500014E+03</pdfrwt>
<pdfrwt beam="2">  1       -4 0.11712658E+00 0.12500014E+03</pdfrwt>
<totfact> 0.39799128E+03</totfact>
</mgrwt>
</event>
<event>
 5    1  0.3281209E-002  0.1249990E+03  0.7818608E-02  0.1235071E+00
         -4   -1    0    0    0  501 -0.00000000000E+00  0.00000000000E+00  0.25335082978E+02  0.25366894360E+02  0.12700000000E+01 0. -1.
          4   -1    0    0  501    0  0.00000000000E+00 -0.00000000000E+00 -0.15404972878E+03  0.15405496369E+03  0.12700000000E+01 0. -1.
         25    2    1    2    0    0  0.00000000000E+00  0.00000000000E+00 -0.12871464580E+03  0.17942185805E+03  0.12499897240E+03 0.  0.
    9000005    1    3    3    0    0 -0.62073522130E+02 -0.64811108583E+01 -0.59804900024E+02  0.86445086699E+02  0.10000000000E+01 0.  0.
    9000005    1    3    3    0    0  0.62073522130E+02  0.64811108583E+01 -0.68909745781E+02  0.92976771353E+02  0.10000000000E+01 0.  0.
<mgrwt>
<rscale>  0 0.12499897E+03</rscale>
<asrwt>0</asrwt>
<pdfrwt beam="2">  1        4 0.23702808E-01 0.12499897E+03</pdfrwt>
<pdfrwt beam="1">  1       -4 0.39005549E-02 0.12499897E+03</pdfrwt>
<totfact> 0.93723334E+03</totfact>
</mgrwt>
</event>
<event>
 5    1  0.3281209E-002  0.1249980E+03  0.7818608E-02  0.1235072E+00
         -4   -1    0    0    0  501 -0.00000000000E+00  0.00000000000E+00  0.19436034473E+02  0.19477482795E+02  0.12700000000E+01 0.  1.
          4   -1    0    0  501    0  0.00000000000E+00 -0.00000000000E+00 -0.20071584052E+03  0.20071985835E+03  0.12700000000E+01 0.  1.
         25    2    1    2    0    0  0.00000000000E+00  0.00000000000E+00 -0.18127980605E+03  0.22019734115E+03  0.12499800385E+03 0.  0.
    9000005    1    3    3    0    0  0.24136586148E+01  0.36645217329E+02 -0.17970873083E+03  0.18342553159E+03  0.10000000000E+01 0.  0.
    9000005    1    3    3    0    0 -0.24136586148E+01 -0.36645217329E+02 -0.15710752193E+01  0.36771809561E+02  0.10000000000E+01 0.  0.
<mgrwt>
<rscale>  0 0.12499800E+03</rscale>
<asrwt>0</asrwt>
<pdfrwt beam="2">  1        4 0.30882856E-01 0.12499800E+03</pdfrwt>
<pdfrwt beam="1">  1       -4 0.29936567E-02 0.12499800E+03</pdfrwt>
<totfact> 0.86841005E+03</totfact>
</mgrwt>
</event>
<event>
 5    1  0.3281209E-002  0.1249997E+03  0.7818608E-02  0.1235070E+00
          4   -1    0    0  501    0  0.00000000000E+00  0.00000000000E+00  0.11469635665E+03  0.11470338760E+03  0.12700000000E+01 0.  1.
         -4   -1    0    0    0  501 -0.00000000000E+00 -0.00000000000E+00 -0.34037224074E+02  0.34060909011E+02  0.12700000000E+01 0.  1.
         25    2    1    2    0    0  0.00000000000E+00  0.00000000000E+00  0.80659132571E+02  0.14876429661E+03  0.12499968112E+03 0.  0.
    9000005    1    3    3    0    0  0.28679065125E+02 -0.94490291902E+01  0.10544385942E+03  0.10968673766E+03  0.10000000000E+01 0.  0.
    9000005    1    3    3    0    0 -0.28679065125E+02  0.94490291902E+01 -0.24784726847E+02  0.39077558956E+02  0.10000000000E+01 0.  0.
<mgrwt>
<rscale>  0 0.12499968E+03</rscale>
<asrwt>0</asrwt>
<pdfrwt beam="1">  1        4 0.17647956E-01 0.12499968E+03</pdfrwt>
<pdfrwt beam="2">  1       -4 0.52388587E-02 0.12499968E+03</pdfrwt>
<totfact> 0.99551303E+03</totfact>
</mgrwt>
</event>
<event>
 5    1  0.3281209E-002  0.1250000E+03  0.7818608E-02  0.1235069E+00
         -4   -1    0    0    0  501 -0.00000000000E+00  0.00000000000E+00  0.33016633764E+03  0.33016878019E+03  0.12700000000E+01 0. -1.
          4   -1    0    0  501    0  0.00000000000E+00 -0.00000000000E+00 -0.11794582969E+02  0.11862760531E+02  0.12700000000E+01 0. -1.
         25    2    1    2    0    0  0.00000000000E+00  0.00000000000E+00  0.31837175467E+03  0.34203154072E+03  0.12500000270E+03 0.  0.
    9000005    1    3    3    0    0  0.11386036050E+00  0.61857001460E+02  0.13487345220E+03  0.14838513976E+03  0.10000000000E+01 0.  0.
    9000005    1    3    3    0    0 -0.11386036050E+00 -0.61857001460E+02  0.18349830247E+03  0.19364640096E+03  0.10000000000E+01 0.  0.
<mgrwt>
<rscale>  0 0.12500000E+03</rscale>
<asrwt>0</asrwt>
<pdfrwt beam="2">  1        4 0.18199834E-02 0.12500000E+03</pdfrwt>
<pdfrwt beam="1">  1       -4 0.50800257E-01 0.12500000E+03</pdfrwt>
<totfact> 0.70610163E+03</totfact>
</mgrwt>
</event>
<event>
 5    1  0.3281209E-002  0.1250014E+03  0.7818608E-02  0.1235067E+00
         -4   -1    0    0    0  501 -0.00000000000E+00  0.00000000000E+00  0.40822235830E+02  0.40841986217E+02  0.12700000000E+01 0.  1.
          4   -1    0    0  501    0  0.00000000000E+00 -0.00000000000E+00 -0.95644268116E+02  0.95652699510E+02  0.12700000000E+01 0.  1.
         25    2    1    2    0    0  0.00000000000E+00  0.00000000000E+00 -0.54822032287E+02  0.13649468573E+03  0.12500137602E+03 0.  0.
    9000005    1    3    3    0    0 -0.46145152636E+02  0.41916273764E+02 -0.32169052924E+02  0.70158371447E+02  0.10000000000E+01 0.  0.
    9000005    1    3    3    0    0  0.46145152636E+02 -0.41916273764E+02 -0.22652979363E+02  0.66336314279E+02  0.10000000000E+01 0.  0.
<mgrwt>
<rscale>  0 0.12500138E+03</rscale>
<asrwt>0</asrwt>
<pdfrwt beam="2">  1        4 0.14716671E-01 0.12500138E+03</pdfrwt>
<pdfrwt beam="1">  1       -4 0.62825118E-02 0.12500138E+03</pdfrwt>
<totfact> 0.10206345E+04</totfact>
</mgrwt>
</event>
<event>
 5    1  0.3281209E-002  0.1250037E+03  0.7818608E-02  0.1235063E+00
          4   -1    0    0  501    0  0.00000000000E+00  0.00000000000E+00  0.25560680767E+03  0.25560996270E+03  0.12700000000E+01 0.  1.
         -4   -1    0    0    0  501 -0.00000000000E+00 -0.00000000000E+00 -0.15253538651E+02  0.15306317041E+02  0.12700000000E+01 0.  1.
         25    2    1    2    0    0  0.00000000000E+00  0.00000000000E+00  0.24035326902E+03  0.27091627974E+03  0.12500374673E+03 0.  0.
    9000005    1    3    3    0    0  0.76765201626E+01 -0.14332573892E+02 -0.10600048163E+02  0.19434831032E+02  0.10000000000E+01 0.  0.
    9000005    1    3    3    0    0 -0.76765201626E+01  0.14332573892E+02  0.25095331719E+03  0.25148144871E+03  0.10000000000E+01 0.  0.
<mgrwt>
<rscale>  0 0.12500375E+03</rscale>
<asrwt>0</asrwt>
<pdfrwt beam="1">  1        4 0.39328426E-01 0.12500375E+03</pdfrwt>
<pdfrwt beam="2">  1       -4 0.23510009E-02 0.12500375E+03</pdfrwt>
<totfact> 0.79391493E+03</totfact>
</mgrwt>
</event>
<event>
 5    1  0.3281209E-002  0.1249981E+03  0.7818608E-02  0.1235072E+00
         -4   -1    0    0    0  501 -0.00000000000E+00  0.00000000000E+00  0.17687750901E+02  0.17733285988E+02  0.12700000000E+01 0.  1.
          4   -1    0    0  501    0  0.00000000000E+00 -0.00000000000E+00 -0.22050688333E+03  0.22051054056E+03  0.12700000000E+01 0.  1.
         25    2    1    2    0    0  0.00000000000E+00  0.00000000000E+00 -0.20281913243E+03  0.23824382655E+03  0.12499808161E+03 0.  0.
    9000005    1    3    3    0    0 -0.48089948156E+02 -0.39897598628E+02 -0.99851071494E+02  0.11779515257E+03  0.10000000000E+01 0.  0.
    9000005    1    3    3    0    0  0.48089948156E+02  0.39897598628E+02 -0.10296806094E+03  0.12044867398E+03  0.10000000000E+01 0.  0.
<mgrwt>
<rscale>  0 0.12499808E+03</rscale>
<asrwt>0</asrwt>
<pdfrwt beam="2">  1        4 0.33927918E-01 0.12499808E+03</pdfrwt>
<pdfrwt beam="1">  1       -4 0.27249766E-02 0.12499808E+03</pdfrwt>
<totfact> 0.84063212E+03</totfact>
</mgrwt>
</event>
<event>
 5    1  0.3281209E-002  0.1249994E+03  0.7818608E-02  0.1235070E+00
         -4   -1    0    0    0  501 -0.00000000000E+00  0.00000000000E+00  0.26965252704E+03  0.26965551773E+03  0.12700000000E+01 0. -1.
          4   -1    0    0  501    0  0.00000000000E+00 -0.00000000000E+00 -0.14455180580E+02  0.14510863021E+02  0.12700000000E+01 0. -1.
         25    2    1    2    0    0  0.00000000000E+00  0.00000000000E+00  0.25519734646E+03  0.28416638075E+03  0.12499938522E+03 0.  0.
    9000005    1    3    3    0    0 -0.61838467964E+02 -0.91836761797E+00  0.10721805466E+03  0.12378025192E+03  0.10000000000E+01 0.  0.
    9000005    1    3    3    0    0  0.61838467964E+02  0.91836761797E+00  0.14797929180E+03  0.16038612883E+03  0.10000000000E+01 0.  0.
<mgrwt>
<rscale>  0 0.12499939E+03</rscale>
<asrwt>0</asrwt>
<pdfrwt beam="2">  1        4 0.22283874E-02 0.12499939E+03</pdfrwt>
<pdfrwt beam="1">  1       -4 0.41489514E-01 0.12499939E+03</pdfrwt>
<totfact> 0.77629959E+03</totfact>
</mgrwt>
</event>
<event>
 5    1  0.3281209E-002  0.1249995E+03  0.7818608E-02  0.1235070E+00
         -4   -1    0    0    0  501 -0.00000000000E+00  0.00000000000E+00  0.49233708211E+02  0.49250085525E+02  0.12700000000E+01 0. -1.
          4   -1    0    0  501    0  0.00000000000E+00 -0.00000000000E+00 -0.79305660453E+02  0.79315828684E+02  0.12700000000E+01 0. -1.
         25    2    1    2    0    0  0.00000000000E+00  0.00000000000E+00 -0.30071952242E+02  0.12856591421E+03  0.12499948794E+03 0.  0.
    9000005    1    3    3    0    0  0.25234776656E+02 -0.40510250766E+02  0.26455342964E+02  0.54578013351E+02  0.10000000000E+01 0.  0.
    9000005    1    3    3    0    0 -0.25234776656E+02  0.40510250766E+02 -0.56527295205E+02  0.73987900857E+02  0.10000000000E+01 0.  0.
<mgrwt>
<rscale>  0 0.12499949E+03</rscale>
<asrwt>0</asrwt>
<pdfrwt beam="2">  1        4 0.12202913E-01 0.12499949E+03</pdfrwt>
<pdfrwt beam="1">  1       -4 0.75764586E-02 0.12499949E+03</pdfrwt>
<totfact> 0.10375404E+04</totfact>
</mgrwt>
</event>
<event>
 5    1  0.3281209E-002  0.1249977E+03  0.7818608E-02  0.1235073E+00
          4   -1    0    0  501    0  0.00000000000E+00  0.00000000000E+00  0.19641159749E+02  0.19682176106E+02  0.12700000000E+01 0. -1.
         -4   -1    0    0    0  501 -0.00000000000E+00 -0.00000000000E+00 -0.19862306797E+03  0.19862712813E+03  0.12700000000E+01 0. -1.
         25    2    1    2    0    0  0.00000000000E+00  0.00000000000E+00 -0.17898190822E+03  0.21830930423E+03  0.12499771536E+03 0.  0.
    9000005    1    3    3    0    0 -0.21589433651E+02  0.52631779338E+02 -0.44320904904E+02  0.72121775167E+02  0.10000000000E+01 0.  0.
    9000005    1    3    3    0    0  0.21589433651E+02 -0.52631779338E+02 -0.13466100331E+03  0.14618752907E+03  0.10000000000E+01 0.  0.
<mgrwt>
<rscale>  0 0.12499772E+03</rscale>
<asrwt>0</asrwt>
<pdfrwt beam="1">  1        4 0.30251844E-02 0.12499772E+03</pdfrwt>
<pdfrwt beam="2">  1       -4 0.30560861E-01 0.12499772E+03</pdfrwt>
<totfact> 0.87141037E+03</totfact>
</mgrwt>
</event>
<event>
 5    1  0.3281209E-002  0.1250005E+03  0.7818608E-02  0.1235068E+00
          4   -1    0    0  501    0  0.00000000000E+00  0.00000000000E+00  0.14701491908E+02  0.14756244926E+02  0.12700000000E+01 0. -1.
         -4   -1    0    0    0  501 -0.00000000000E+00 -0.00000000000E+00 -0.26515651937E+03  0.26515956076E+03  0.12700000000E+01 0. -1.
         25    2    1    2    0    0  0.00000000000E+00  0.00000000000E+00 -0.25045502746E+03  0.27991580569E+03  0.12500054997E+03 0.  0.
    9000005    1    3    3    0    0 -0.51802414143E+02  0.24231212891E+02 -0.68814395882E+02  0.89482193032E+02  0.10000000000E+01 0.  0.
    9000005    1    3    3    0    0  0.51802414143E+02 -0.24231212891E+02 -0.18164063158E+03  0.19043361266E+03  0.10000000000E+01 0.  0.
<mgrwt>
<rscale>  0 0.12500055E+03</rscale>
<asrwt>0</asrwt>
<pdfrwt beam="1">  1        4 0.22662139E-02 0.12500055E+03</pdfrwt>
<pdfrwt beam="2">  1       -4 0.40797753E-01 0.12500055E+03</pdfrwt>
<totfact> 0.78188316E+03</totfact>
</mgrwt>
</event>
<event>
 5    1  0.3281209E-002  0.1249972E+03  0.7818608E-02  0.1235074E+00
         -4   -1    0    0    0  501 -0.00000000000E+00  0.00000000000E+00  0.17942689736E+03  0.17943139189E+03  0.12700000000E+01 0. -1.
          4   -1    0    0  501    0  0.00000000000E+00 -0.00000000000E+00 -0.21746419061E+02  0.21783471762E+02  0.12700000000E+01 0. -1.
         25    2    1    2    0    0  0.00000000000E+00  0.00000000000E+00  0.15768047830E+03  0.20121486366E+03  0.12499715244E+03 0.  0.
    9000005    1    3    3    0    0  0.13402552512E+02  0.27797516959E+01  0.17699199640E+03  0.17752330051E+03  0.10000000000E+01 0.  0.
    9000005    1    3    3    0    0 -0.13402552512E+02 -0.27797516959E+01 -0.19311518097E+02  0.23691563151E+02  0.10000000000E+01 0.  0.
<mgrwt>
<rscale>  0 0.12499715E+03</rscale>
<asrwt>0</asrwt>
<pdfrwt beam="2">  1        4 0.33487989E-02 0.12499715E+03</pdfrwt>
<pdfrwt beam="1">  1       -4 0.27607333E-01 0.12499715E+03</pdfrwt>
<totfact> 0.89936744E+03</totfact>
</mgrwt>
</event>
<event>
 5    1  0.3281209E-002  0.1250011E+03  0.7818608E-02  0.1235068E+00
         -4   -1    0    0    0  501 -0.00000000000E+00  0.00000000000E+00  0.17467676781E+03  0.17468138456E+03  0.12700000000E+01 0.  1.
          4   -1    0    0  501    0  0.00000000000E+00 -0.00000000000E+00 -0.22340177011E+02  0.22376246532E+02  0.12700000000E+01 0.  1.
         25    2    1    2    0    0  0.00000000000E+00  0.00000000000E+00  0.15233659080E+03  0.19705763110E+03  0.12500109230E+03 0.  0.
    9000005    1    3    3    0    0 -0.18387703004E+02 -0.10495104056E+02 -0.16521756249E+02  0.26874211811E+02  0.10000000000E+01 0.  0.
    9000005    1    3    3    0    0  0.18387703004E+02  0.10495104056E+02  0.16885834705E+03  0.17018341928E+03  0.10000000000E+01 0.  0.
<mgrwt>
<rscale>  0 0.12500109E+03</rscale>
<asrwt>0</asrwt>
<pdfrwt beam="2">  1        4 0.34400798E-02 0.12500109E+03</pdfrwt>
<pdfrwt beam="1">  1       -4 0.26876480E-01 0.12500109E+03</pdfrwt>
<totfact> 0.90631386E+03</totfact>
</mgrwt>
</event>
<event>
 5    1  0.3281209E-002  0.1249998E+03  0.7818608E-02  0.1235070E+00
         -4   -1    0    0    0  501 -0.00000000000E+00  0.00000000000E+00  0.79837062359E+02  0.79847162919E+02  0.12700000000E+01 0.  1.
          4   -1    0    0  501    0  0.00000000000E+00 -0.00000000000E+00 -0.48906207515E+02  0.48922694463E+02  0.12700000000E+01 0.  1.
         25    2    1    2    0    0  0.00000000000E+00  0.00000000000E+00  0.30930854844E+02  0.12876985738E+03  0.12499983355E+03 0.  0.
    9000005    1    3    3    0    0  0.74873552736E+01  0.45889066389E+02  0.58478443829E+02  0.74716767166E+02  0.10000000000E+01 0.  0.
    9000005    1    3    3    0    0 -0.74873552736E+01 -0.45889066389E+02 -0.27547588984E+02  0.54053090216E+02  0.10000000000E+01 0.  0.
<mgrwt>
<rscale>  0 0.12499983E+03</rscale>
<asrwt>0</asrwt>
<pdfrwt beam="2">  1        4 0.75260771E-02 0.12499983E+03</pdfrwt>
<pdfrwt beam="1">  1       -4 0.12284670E-01 0.12499983E+03</pdfrwt>
<totfact> 0.10370934E+04</totfact>
</mgrwt>
</event>
<event>
 5    1  0.3281209E-002  0.1250361E+03  0.7818608E-02  0.1235013E+00
          4   -1    0    0  501    0  0.00000000000E+00  0.00000000000E+00  0.18812934940E+02  0.18855752996E+02  0.12700000000E+01 0. -1.
         -4   -1    0    0    0  501 -0.00000000000E+00 -0.00000000000E+00 -0.20747546728E+03  0.20747935421E+03  0.12700000000E+01 0. -1.
         25    2    1    2    0    0  0.00000000000E+00  0.00000000000E+00 -0.18866253234E+03  0.22633510721E+03  0.12503611336E+03 0.  0.
    9000005    1    3    3    0    0 -0.32318164208E+02  0.30137741792E+02 -0.14299352615E+02  0.46456632501E+02  0.10000000000E+01 0.  0.
    9000005    1    3    3    0    0  0.32318164208E+02 -0.30137741792E+02 -0.17436317973E+03  0.17987847471E+03  0.10000000000E+01 0.  0.
<mgrwt>
<rscale>  0 0.12503611E+03</rscale>
<asrwt>0</asrwt>
<pdfrwt beam="1">  1        4 0.28978905E-02 0.12503611E+03</pdfrwt>
<pdfrwt beam="2">  1       -4 0.31922894E-01 0.12503611E+03</pdfrwt>
<totfact> 0.85806362E+03</totfact>
</mgrwt>
</event>
<event>
 5    1  0.3281209E-002  0.1250027E+03  0.7818608E-02  0.1235065E+00
         -4   -1    0    0    0  501 -0.00000000000E+00  0.00000000000E+00  0.77876549643E+01  0.78905303905E+01  0.12700000000E+01 0.  1.
          4   -1    0    0  501    0  0.00000000000E+00 -0.00000000000E+00 -0.49822200445E+03  0.49822362310E+03  0.12700000000E+01 0.  1.
         25    2    1    2    0    0  0.00000000000E+00  0.00000000000E+00 -0.49043434949E+03  0.50611415349E+03  0.12500274082E+03 0.  0.
    9000005    1    3    3    0    0 -0.55182314478E+02 -0.23546455745E+02 -0.31603085901E+03  0.32167689885E+03  0.10000000000E+01 0.  0.
    9000005    1    3    3    0    0  0.55182314478E+02  0.23546455745E+02 -0.17440349048E+03  0.18443725464E+03  0.10000000000E+01 0.  0.
<mgrwt>
<rscale>  0 0.12500274E+03</rscale>
<asrwt>0</asrwt>
<pdfrwt beam="2">  1        4 0.76657553E-01 0.12500274E+03</pdfrwt>
<pdfrwt beam="1">  1       -4 0.12061392E-02 0.12500274E+03</pdfrwt>
<totfact> 0.55389758E+03</totfact>
</mgrwt>
</event>
<event>
 5    1  0.3281209E-002  0.1249987E+03  0.7818608E-02  0.1235071E+00
         -4   -1    0    0    0  501 -0.00000000000E+00  0.00000000000E+00  0.13949855022E+03  0.13950433116E+03  0.12700000000E+01 0. -1.
          4   -1    0    0  501    0  0.00000000000E+00 -0.00000000000E+00 -0.27980740494E+02  0.28009547276E+02  0.12700000000E+01 0. -1.
         25    2    1    2    0    0  0.00000000000E+00  0.00000000000E+00  0.11151780972E+03  0.16751387844E+03  0.12499871033E+03 0.  0.
    9000005    1    3    3    0    0 -0.42899238787E+02  0.36519433978E+02  0.91995733455E+02  0.10788062254E+03  0.10000000000E+01 0.  0.
    9000005    1    3    3    0    0  0.42899238787E+02 -0.36519433978E+02  0.19522076269E+02  0.59633255894E+02  0.10000000000E+01 0.  0.
<mgrwt>
<rscale>  0 0.12499871E+03</rscale>
<asrwt>0</asrwt>
<pdfrwt beam="2">  1        4 0.43073900E-02 0.12499871E+03</pdfrwt>
<pdfrwt beam="1">  1       -4 0.21463976E-01 0.12499871E+03</pdfrwt>
<totfact> 0.95916189E+03</totfact>
</mgrwt>
</event>
<event>
 5    1  0.3281209E-002  0.1249971E+03  0.7818608E-02  0.1235074E+00
          4   -1    0    0  501    0  0.00000000000E+00  0.00000000000E+00  0.12894015415E+03  0.12894640845E+03  0.12700000000E+01 0. -1.
         -4   -1    0    0    0  501 -0.00000000000E+00 -0.00000000000E+00 -0.30273371203E+02  0.30299998416E+02  0.12700000000E+01 0. -1.
         25    2    1    2    0    0  0.00000000000E+00  0.00000000000E+00  0.98666782948E+02  0.15924640687E+03  0.12499713614E+03 0.  0.
    9000005    1    3    3    0    0  0.31609189234E+02  0.24819307030E+02 -0.11631652004E+02  0.41850139472E+02  0.10000000000E+01 0.  0.
    9000005    1    3    3    0    0 -0.31609189234E+02 -0.24819307030E+02  0.11029843495E+03  0.11739626740E+03  0.10000000000E+01 0.  0.
<mgrwt>
<rscale>  0 0.12499714E+03</rscale>
<asrwt>0</asrwt>
<pdfrwt beam="1">  1        4 0.19839476E-01 0.12499714E+03</pdfrwt>
<pdfrwt beam="2">  1       -4 0.46599710E-02 0.12499714E+03</pdfrwt>
<totfact> 0.97494544E+03</totfact>
</mgrwt>
</event>
<event>
 5    1  0.3281209E-002  0.1249969E+03  0.7818608E-02  0.1235074E+00
          4   -1    0    0  501    0  0.00000000000E+00  0.00000000000E+00  0.14715105376E+02  0.14769807928E+02  0.12700000000E+01 0.  1.
         -4   -1    0    0    0  501 -0.00000000000E+00 -0.00000000000E+00 -0.26489666881E+03  0.26489971319E+03  0.12700000000E+01 0.  1.
         25    2    1    2    0    0  0.00000000000E+00  0.00000000000E+00 -0.25018156344E+03  0.27966952112E+03  0.12499690540E+03 0.  0.
    9000005    1    3    3    0    0 -0.34770481794E+02  0.45181907938E+02 -0.18233815513E+03  0.19104605210E+03  0.10000000000E+01 0.  0.
    9000005    1    3    3    0    0  0.34770481794E+02 -0.45181907938E+02 -0.67843408310E+02  0.88623469015E+02  0.10000000000E+01 0.  0.
<mgrwt>
<rscale>  0 0.12499691E+03</rscale>
<asrwt>0</asrwt>
<pdfrwt beam="1">  1        4 0.22683046E-02 0.12499691E+03</pdfrwt>
<pdfrwt beam="2">  1       -4 0.40757772E-01 0.12499691E+03</pdfrwt>
<totfact> 0.78227327E+03</totfact>
</mgrwt>
</event>
<event>
 5    1  0.3281209E-002  0.1249982E+03  0.7818608E-02  0.1235072E+00
          4   -1    0    0  501    0  0.00000000000E+00  0.00000000000E+00  0.18688930571E+03  0.18689362078E+03  0.12700000000E+01 0. -1.
         -4   -1    0    0    0  501 -0.00000000000E+00 -0.00000000000E+00 -0.20876942923E+02  0.20915535992E+02  0.12700000000E+01 0. -1.
         25    2    1    2    0    0  0.00000000000E+00  0.00000000000E+00  0.16601236278E+03  0.20780915677E+03  0.12499816415E+03 0.  0.
    9000005    1    3    3    0    0  0.54230501199E+02  0.93106265053E+01  0.13225373550E+03  0.14324693916E+03  0.10000000000E+01 0.  0.
    9000005    1    3    3    0    0 -0.54230501199E+02 -0.93106265053E+01  0.33758627286E+02  0.64562217608E+02  0.10000000000E+01 0.  0.
<mgrwt>
<rscale>  0 0.12499816E+03</rscale>
<asrwt>0</asrwt>
<pdfrwt beam="1">  1        4 0.28755501E-01 0.12499816E+03</pdfrwt>
<pdfrwt beam="2">  1       -4 0.32151381E-02 0.12499816E+03</pdfrwt>
<totfact> 0.88838576E+03</totfact>
</mgrwt>
</event>
<event>
 5    1  0.3281209E-002  0.1250026E+03  0.7818608E-02  0.1235065E+00
         -4   -1    0    0    0  501 -0.00000000000E+00  0.00000000000E+00  0.93992840296E+02  0.94001419814E+02  0.12700000000E+01 0. -1.
          4   -1    0    0  501    0  0.00000000000E+00 -0.00000000000E+00 -0.41540549303E+02  0.41559958330E+02  0.12700000000E+01 0. -1.
         25    2    1    2    0    0  0.00000000000E+00  0.00000000000E+00  0.52452290994E+02  0.13556137814E+03  0.12500257763E+03 0.  0.
    9000005    1    3    3    0    0  0.59162135197E+02 -0.13895526235E+02  0.42022473483E+02  0.73892707137E+02  0.10000000000E+01 0.  0.
    9000005    1    3    3    0    0 -0.59162135197E+02  0.13895526235E+02  0.10429817511E+02  0.61668671007E+02  0.10000000000E+01 0.  0.
<mgrwt>
<rscale>  0 0.12500258E+03</rscale>
<asrwt>0</asrwt>
<pdfrwt beam="2">  1        4 0.63930067E-02 0.12500258E+03</pdfrwt>
<pdfrwt beam="1">  1       -4 0.14462590E-01 0.12500258E+03</pdfrwt>
<totfact> 0.10225658E+04</totfact>
</mgrwt>
</event>
<event>
 5    1  0.3281209E-002  0.1250043E+03  0.7818608E-02  0.1235062E+00
         -4   -1    0    0    0  501 -0.00000000000E+00  0.00000000000E+00  0.11454486633E+03  0.11455190658E+03  0.12700000000E+01 0. -1.
          4   -1    0    0  501    0  0.00000000000E+00 -0.00000000000E+00 -0.34084814906E+02  0.34108466796E+02  0.12700000000E+01 0. -1.
         25    2    1    2    0    0  0.00000000000E+00  0.00000000000E+00  0.80460051421E+02  0.14866037338E+03  0.12500434688E+03 0.  0.
    9000005    1    3    3    0    0 -0.44739651108E+02  0.14480594056E+02  0.89179963896E+02  0.10082355849E+03  0.10000000000E+01 0.  0.
    9000005    1    3    3    0    0  0.44739651108E+02 -0.14480594056E+02 -0.87199124747E+01  0.47836814892E+02  0.10000000000E+01 0.  0.
<mgrwt>
<rscale>  0 0.12500435E+03</rscale>
<asrwt>0</asrwt>
<pdfrwt beam="2">  1        4 0.52461786E-02 0.12500435E+03</pdfrwt>
<pdfrwt beam="1">  1       -4 0.17624648E-01 0.12500435E+03</pdfrwt>
<totfact> 0.99561663E+03</totfact>
</mgrwt>
</event>
<event>
 5    1  0.3281209E-002  0.1249999E+03  0.7818608E-02  0.1235070E+00
          4   -1    0    0  501    0  0.00000000000E+00  0.00000000000E+00  0.18562778021E+03  0.18563212461E+03  0.12700000000E+01 0. -1.
         -4   -1    0    0    0  501 -0.00000000000E+00 -0.00000000000E+00 -0.21019649948E+02  0.21057981479E+02  0.12700000000E+01 0. -1.
         25    2    1    2    0    0  0.00000000000E+00  0.00000000000E+00  0.16460813026E+03  0.20669010609E+03  0.12499985362E+03 0.  0.
    9000005    1    3    3    0    0 -0.37186079681E+02 -0.32798551590E+02  0.19411671340E+02  0.53257511138E+02  0.10000000000E+01 0.  0.
    9000005    1    3    3    0    0  0.37186079681E+02  0.32798551590E+02  0.14519645892E+03  0.15343259495E+03  0.10000000000E+01 0.  0.
<mgrwt>
<rscale>  0 0.12499985E+03</rscale>
<asrwt>0</asrwt>
<pdfrwt beam="1">  1        4 0.28561404E-01 0.12499985E+03</pdfrwt>
<pdfrwt beam="2">  1       -4 0.32370749E-02 0.12499985E+03</pdfrwt>
<totfact> 0.89019589E+03</totfact>
</mgrwt>
</event>
<event>
 5    1  0.3281209E-002  0.1249994E+03  0.7818608E-02  0.1235070E+00
         -4   -1    0    0    0  501 -0.00000000000E+00  0.00000000000E+00  0.33416254938E+02  0.33440379694E+02  0.12700000000E+01 0.  1.
          4   -1    0    0  501    0  0.00000000000E+00 -0.00000000000E+00 -0.11682580795E+03  0.11683271076E+03  0.12700000000E+01 0.  1.
         25    2    1    2    0    0  0.00000000000E+00  0.00000000000E+00 -0.83409553009E+02  0.15027309045E+03  0.12499939272E+03 0.  0.
    9000005    1    3    3    0    0  0.47032467766E+02 -0.41121213090E+02 -0.43489879667E+02  0.76127372368E+02  0.10000000000E+01 0.  0.
    9000005    1    3    3    0    0 -0.47032467766E+02  0.41121213090E+02 -0.39919673343E+02  0.74145718083E+02  0.10000000000E+01 0.  0.
<mgrwt>
<rscale>  0 0.12499939E+03</rscale>
<asrwt>0</asrwt>
<pdfrwt beam="2">  1        4 0.17975588E-01 0.12499939E+03</pdfrwt>
<pdfrwt beam="1">  1       -4 0.51433491E-02 0.12499939E+03</pdfrwt>
<totfact> 0.99250646E+03</totfact>
</mgrwt>
</event>
<event>
 5    1  0.3281209E-002  0.1249979E+03  0.7818608E-02  0.1235073E+00
         -4   -1    0    0    0  501 -0.00000000000E+00  0.00000000000E+00  0.22002436676E+02  0.22039058956E+02  0.12700000000E+01 0.  1.
          4   -1    0    0  501    0  0.00000000000E+00 -0.00000000000E+00 -0.17734468722E+03  0.17734923452E+03  0.12700000000E+01 0.  1.
         25    2    1    2    0    0  0.00000000000E+00  0.00000000000E+00 -0.15534225054E+03  0.19938829347E+03  0.12499790707E+03 0.  0.
    9000005    1    3    3    0    0  0.15629299723E+02  0.60149724625E+02 -0.67228812322E+02  0.91558601936E+02  0.10000000000E+01 0.  0.
    9000005    1    3    3    0    0 -0.15629299723E+02 -0.60149724625E+02 -0.88113438219E+02  0.10782969154E+03  0.10000000000E+01 0.  0.
<mgrwt>
<rscale>  0 0.12499791E+03</rscale>
<asrwt>0</asrwt>
<pdfrwt beam="2">  1        4 0.27286964E-01 0.12499791E+03</pdfrwt>
<pdfrwt beam="1">  1       -4 0.33881573E-02 0.12499791E+03</pdfrwt>
<totfact> 0.90243005E+03</totfact>
</mgrwt>
</event>
<event>
 5    1  0.3281209E-002  0.1250013E+03  0.7818608E-02  0.1235067E+00
          4   -1    0    0  501    0  0.00000000000E+00  0.00000000000E+00  0.30833354446E+03  0.30833615996E+03  0.12700000000E+01 0. -1.
         -4   -1    0    0    0  501 -0.00000000000E+00 -0.00000000000E+00 -0.12634669546E+02  0.12698337472E+02  0.12700000000E+01 0. -1.
         25    2    1    2    0    0  0.00000000000E+00  0.00000000000E+00  0.29569887491E+03  0.32103449743E+03  0.12500129566E+03 0.  0.
    9000005    1    3    3    0    0 -0.15714800075E+02 -0.47832726205E+02  0.24292345979E+03  0.24808815360E+03  0.10000000000E+01 0.  0.
    9000005    1    3    3    0    0  0.15714800075E+02  0.47832726205E+02  0.52775415118E+02  0.72946343832E+02  0.10000000000E+01 0.  0.
<mgrwt>
<rscale>  0 0.12500130E+03</rscale>
<asrwt>0</asrwt>
<pdfrwt beam="1">  1        4 0.47441021E-01 0.12500130E+03</pdfrwt>
<pdfrwt beam="2">  1       -4 0.19488944E-02 0.12500130E+03</pdfrwt>
<totfact> 0.73031161E+03</totfact>
</mgrwt>
</event>
<event>
 5    1  0.3281209E-002  0.1249999E+03  0.7818608E-02  0.1235069E+00
          4   -1    0    0  501    0  0.00000000000E+00  0.00000000000E+00  0.16523272171E+04  0.16523277052E+04  0.12700000000E+01 0.  1.
         -4   -1    0    0    0  501 -0.00000000000E+00 -0.00000000000E+00 -0.21929997783E+01  0.25341957358E+01  0.12700000000E+01 0.  1.
         25    2    1    2    0    0  0.00000000000E+00  0.00000000000E+00  0.16501342173E+04  0.16548619009E+04  0.12499990356E+03 0.  0.
    9000005    1    3    3    0    0 -0.23060810182E+02  0.52382840219E+02  0.11572241109E+04  0.11586390317E+04  0.10000000000E+01 0.  0.
    9000005    1    3    3    0    0  0.23060810182E+02 -0.52382840219E+02  0.49291010643E+03  0.49622286922E+03  0.10000000000E+01 0.  0.
<mgrwt>
<rscale>  0 0.12499990E+03</rscale>
<asrwt>0</asrwt>
<pdfrwt beam="1">  1        4 0.25423059E+00 0.12499990E+03</pdfrwt>
<pdfrwt beam="2">  1       -4 0.36366779E-03 0.12499990E+03</pdfrwt>
<totfact> 0.15075089E+03</totfact>
</mgrwt>
</event>
<event>
 5    1  0.3281209E-002  0.1250055E+03  0.7818608E-02  0.1235061E+00
          4   -1    0    0  501    0  0.00000000000E+00  0.00000000000E+00  0.53299825979E+03  0.53299977284E+03  0.12700000000E+01 0. -1.
         -4   -1    0    0    0  501 -0.00000000000E+00 -0.00000000000E+00 -0.72729136155E+01  0.73829650181E+01  0.12700000000E+01 0. -1.
         25    2    1    2    0    0  0.00000000000E+00  0.00000000000E+00  0.52572534618E+03  0.54038273785E+03  0.12500545491E+03 0.  0.
    9000005    1    3    3    0    0 -0.57432407546E+02  0.23094374825E+02  0.22573642566E+03  0.23407213728E+03  0.10000000000E+01 0.  0.
    9000005    1    3    3    0    0  0.57432407546E+02 -0.23094374825E+02  0.29998892052E+03  0.30631060057E+03  0.10000000000E+01 0.  0.
<mgrwt>
<rscale>  0 0.12500545E+03</rscale>
<asrwt>0</asrwt>
<pdfrwt beam="1">  1        4 0.82008334E-01 0.12500545E+03</pdfrwt>
<pdfrwt beam="2">  1       -4 0.11274914E-02 0.12500545E+03</pdfrwt>
<totfact> 0.52855529E+03</totfact>
</mgrwt>
</event>
<event>
 5    1  0.3281209E-002  0.1249981E+03  0.7818608E-02  0.1235072E+00
         -4   -1    0    0    0  501 -0.00000000000E+00  0.00000000000E+00  0.67850863129E+02  0.67862747714E+02  0.12700000000E+01 0.  1.
          4   -1    0    0  501    0  0.00000000000E+00 -0.00000000000E+00 -0.57545462879E+02  0.57559475310E+02  0.12700000000E+01 0.  1.
         25    2    1    2    0    0  0.00000000000E+00  0.00000000000E+00  0.10305400250E+02  0.12542222302E+03  0.12499813100E+03 0.  0.
    9000005    1    3    3    0    0 -0.13742442588E+02  0.57469986206E+02  0.25555876313E+02  0.64387552033E+02  0.10000000000E+01 0.  0.
    9000005    1    3    3    0    0  0.13742442588E+02 -0.57469986206E+02 -0.15250476063E+02  0.61034670990E+02  0.10000000000E+01 0.  0.
<mgrwt>
<rscale>  0 0.12499813E+03</rscale>
<asrwt>0</asrwt>
<pdfrwt beam="2">  1        4 0.88551403E-02 0.12499813E+03</pdfrwt>
<pdfrwt beam="1">  1       -4 0.10440586E-01 0.12499813E+03</pdfrwt>
<totfact> 0.10444115E+04</totfact>
</mgrwt>
</event>
<event>
 5    1  0.3281209E-002  0.1249932E+03  0.7818608E-02  0.1235080E+00
         -4   -1    0    0    0  501 -0.00000000000E+00  0.00000000000E+00  0.56252734348E+03  0.56252877710E+03  0.12700000000E+01 0.  1.
          4   -1    0    0  501    0  0.00000000000E+00 -0.00000000000E+00 -0.68838204854E+01  0.69999917482E+01  0.12700000000E+01 0.  1.
         25    2    1    2    0    0  0.00000000000E+00  0.00000000000E+00  0.55564352299E+03  0.56952876885E+03  0.12499317540E+03 0.  0.
    9000005    1    3    3    0    0  0.30212286936E+02  0.54659086421E+02  0.26823639401E+03  0.27541271046E+03  0.10000000000E+01 0.  0.
    9000005    1    3    3    0    0 -0.30212286936E+02 -0.54659086421E+02  0.28740712899E+03  0.29411605839E+03  0.10000000000E+01 0.  0.
<mgrwt>
<rscale>  0 0.12499318E+03</rscale>
<asrwt>0</asrwt>
<pdfrwt beam="2">  1        4 0.10680955E-02 0.12499318E+03</pdfrwt>
<pdfrwt beam="1">  1       -4 0.86551745E-01 0.12499318E+03</pdfrwt>
<totfact> 0.50856923E+03</totfact>
</mgrwt>
</event>
<event>
 5    1  0.3281209E-002  0.1249991E+03  0.7818608E-02  0.1235071E+00
          4   -1    0    0  501    0  0.00000000000E+00  0.00000000000E+00  0.29315911738E+03  0.29316186826E+03  0.12700000000E+01 0. -1.
         -4   -1    0    0    0  501 -0.00000000000E+00 -0.00000000000E+00 -0.13291399148E+02  0.13351935864E+02  0.12700000000E+01 0. -1.
         25    2    1    2    0    0  0.00000000000E+00  0.00000000000E+00  0.27986771823E+03  0.30651380413E+03  0.12499908964E+03 0.  0.
    9000005    1    3    3    0    0 -0.93560328736E+00 -0.28595792929E+02  0.27616715065E+03  0.27764705981E+03  0.10000000000E+01 0.  0.
    9000005    1    3    3    0    0  0.93560328736E+00  0.28595792929E+02  0.37005675851E+01  0.28866744312E+02  0.10000000000E+01 0.  0.
<mgrwt>
<rscale>  0 0.12499909E+03</rscale>
<asrwt>0</asrwt>
<pdfrwt beam="1">  1        4 0.45106272E-01 0.12499909E+03</pdfrwt>
<pdfrwt beam="2">  1       -4 0.20496989E-02 0.12499909E+03</pdfrwt>
<totfact> 0.74790465E+03</totfact>
</mgrwt>
</event>
<event>
 5    1  0.3281209E-002  0.1250015E+03  0.7818608E-02  0.1235067E+00
          4   -1    0    0  501    0  0.00000000000E+00  0.00000000000E+00  0.18384631519E+02  0.18428444755E+02  0.12700000000E+01 0.  1.
         -4   -1    0    0    0  501 -0.00000000000E+00 -0.00000000000E+00 -0.21218000960E+03  0.21218381034E+03  0.12700000000E+01 0.  1.
         25    2    1    2    0    0  0.00000000000E+00  0.00000000000E+00 -0.19379537808E+03  0.23061225510E+03  0.12500145454E+03 0.  0.
    9000005    1    3    3    0    0  0.40191203508E+02 -0.58264278898E+01 -0.18452565213E+03  0.18894442673E+03  0.10000000000E+01 0.  0.
    9000005    1    3    3    0    0 -0.40191203508E+02  0.58264278898E+01 -0.92697259492E+01  0.41667828363E+02  0.10000000000E+01 0.  0.
<mgrwt>
<rscale>  0 0.12500145E+03</rscale>
<asrwt>0</asrwt>
<pdfrwt beam="1">  1        4 0.28320676E-02 0.12500145E+03</pdfrwt>
<pdfrwt beam="2">  1       -4 0.32646739E-01 0.12500145E+03</pdfrwt>
<totfact> 0.85212909E+03</totfact>
</mgrwt>
</event>
<event>
 5    1  0.3281209E-002  0.1249904E+03  0.7818608E-02  0.1235084E+00
         -4   -1    0    0    0  501 -0.00000000000E+00  0.00000000000E+00  0.20807261962E+01  0.24376877371E+01  0.12700000000E+01 0.  1.
          4   -1    0    0  501    0  0.00000000000E+00 -0.00000000000E+00 -0.17284137948E+04  0.17284142614E+04  0.12700000000E+01 0.  1.
         25    2    1    2    0    0  0.00000000000E+00  0.00000000000E+00 -0.17263330686E+04  0.17308519491E+04  0.12499042371E+03 0.  0.
    9000005    1    3    3    0    0 -0.12910792353E+02 -0.37853702914E+02 -0.19831555954E+03  0.20231078206E+03  0.10000000000E+01 0.  0.
    9000005    1    3    3    0    0  0.12910792353E+02  0.37853702914E+02 -0.15280175090E+04  0.15285411670E+04  0.10000000000E+01 0.  0.
<mgrwt>
<rscale>  0 0.12499042E+03</rscale>
<asrwt>0</asrwt>
<pdfrwt beam="2">  1        4 0.26593625E+00 0.12499042E+03</pdfrwt>
<pdfrwt beam="1">  1       -4 0.34760758E-03 0.12499042E+03</pdfrwt>
<totfact> 0.13802475E+03</totfact>
</mgrwt>
</event>
<event>
 5    1  0.3281209E-002  0.1249934E+03  0.7818608E-02  0.1235080E+00
         -4   -1    0    0    0  501 -0.00000000000E+00  0.00000000000E+00  0.11071904256E+04  0.11071911539E+04  0.12700000000E+01 0.  1.
          4   -1    0    0  501    0  0.00000000000E+00 -0.00000000000E+00 -0.34126441112E+01  0.36412964490E+01  0.12700000000E+01 0.  1.
         25    2    1    2    0    0  0.00000000000E+00  0.00000000000E+00  0.11037777815E+04  0.11108324504E+04  0.12499336785E+03 0.  0.
    9000005    1    3    3    0    0  0.28194125139E+02 -0.55622598943E+02  0.58749657209E+03  0.59079776948E+03  0.10000000000E+01 0.  0.
    9000005    1    3    3    0    0 -0.28194125139E+02  0.55622598943E+02  0.51628120937E+03  0.52003468092E+03  0.10000000000E+01 0.  0.
<mgrwt>
<rscale>  0 0.12499337E+03</rscale>
<asrwt>0</asrwt>
<pdfrwt beam="2">  1        4 0.54266602E-03 0.12499337E+03</pdfrwt>
<pdfrwt beam="1">  1       -4 0.17035489E+00 0.12499337E+03</pdfrwt>
<totfact> 0.27172387E+03</totfact>
</mgrwt>
</event>
<event>
 5    1  0.3281209E-002  0.1250131E+03  0.7818608E-02  0.1235049E+00
         -4   -1    0    0    0  501 -0.00000000000E+00  0.00000000000E+00  0.10480097834E+02  0.10556768000E+02  0.12700000000E+01 0. -1.
          4   -1    0    0  501    0  0.00000000000E+00 -0.00000000000E+00 -0.37137169359E+03  0.37137386513E+03  0.12700000000E+01 0. -1.
         25    2    1    2    0    0  0.00000000000E+00  0.00000000000E+00 -0.36089159576E+03  0.38193063313E+03  0.12501305786E+03 0.  0.
    9000005    1    3    3    0    0 -0.92432518304E+01  0.23877880799E+02 -0.35462750680E+03  0.35555204889E+03  0.10000000000E+01 0.  0.
    9000005    1    3    3    0    0  0.92432518304E+01 -0.23877880799E+02 -0.62640889626E+01  0.26378584237E+02  0.10000000000E+01 0.  0.
<mgrwt>
<rscale>  0 0.12501306E+03</rscale>
<asrwt>0</asrwt>
<pdfrwt beam="2">  1        4 0.57140161E-01 0.12501306E+03</pdfrwt>
<pdfrwt beam="1">  1       -4 0.16183878E-02 0.12501306E+03</pdfrwt>
<totfact> 0.66329833E+03</totfact>
</mgrwt>
</event>
<event>
 5    1  0.3281209E-002  0.1250004E+03  0.7818608E-02  0.1235069E+00
          4   -1    0    0  501    0  0.00000000000E+00  0.00000000000E+00  0.36806124687E+02  0.36828028925E+02  0.12700000000E+01 0.  1.
         -4   -1    0    0    0  501 -0.00000000000E+00 -0.00000000000E+00 -0.10607383393E+03  0.10608143638E+03  0.12700000000E+01 0.  1.
         25    2    1    2    0    0  0.00000000000E+00  0.00000000000E+00 -0.69267709246E+02  0.14290946531E+03  0.12500039892E+03 0.  0.
    9000005    1    3    3    0    0 -0.55968451475E+02  0.10448085143E+02 -0.64086036407E+02  0.85730100350E+02  0.10000000000E+01 0.  0.
    9000005    1    3    3    0    0  0.55968451475E+02 -0.10448085143E+02 -0.51816728393E+01  0.57179364959E+02  0.10000000000E+01 0.  0.
<mgrwt>
<rscale>  0 0.12500040E+03</rscale>
<asrwt>0</asrwt>
<pdfrwt beam="1">  1        4 0.56647505E-02 0.12500040E+03</pdfrwt>
<pdfrwt beam="2">  1       -4 0.16321321E-01 0.12500040E+03</pdfrwt>
<totfact> 0.10073547E+04</totfact>
</mgrwt>
</event>
<event>
 5    1  0.3281209E-002  0.1249988E+03  0.7818608E-02  0.1235071E+00
         -4   -1    0    0    0  501 -0.00000000000E+00  0.00000000000E+00  0.83333500304E+02  0.83343177123E+02  0.12700000000E+01 0.  1.
          4   -1    0    0  501    0  0.00000000000E+00 -0.00000000000E+00 -0.46853027831E+02  0.46870237006E+02  0.12700000000E+01 0.  1.
         25    2    1    2    0    0  0.00000000000E+00  0.00000000000E+00  0.36480472473E+02  0.13021341413E+03  0.12499883338E+03 0.  0.
    9000005    1    3    3    0    0 -0.57991566038E+02 -0.22881753104E+02  0.13749876299E+02  0.63848691881E+02  0.10000000000E+01 0.  0.
    9000005    1    3    3    0    0  0.57991566038E+02  0.22881753104E+02  0.22730596174E+02  0.66364722248E+02  0.10000000000E+01 0.  0.
<mgrwt>
<rscale>  0 0.12499883E+03</rscale>
<asrwt>0</asrwt>
<pdfrwt beam="2">  1        4 0.72102263E-02 0.12499883E+03</pdfrwt>
<pdfrwt beam="1">  1       -4 0.12822607E-01 0.12499883E+03</pdfrwt>
<totfact> 0.10340217E+04</totfact>
</mgrwt>
</event>
<event>
 5    1  0.3281209E-002  0.1249998E+03  0.7818608E-02  0.1235070E+00
          4   -1    0    0  501    0  0.00000000000E+00  0.00000000000E+00  0.98580348819E+01  0.99395046020E+01  0.12700000000E+01 0. -1.
         -4   -1    0    0    0  501 -0.00000000000E+00 -0.00000000000E+00 -0.39453611876E+03  0.39453816280E+03  0.12700000000E+01 0. -1.
         25    2    1    2    0    0  0.00000000000E+00  0.00000000000E+00 -0.38467808388E+03  0.40447766740E+03  0.12499982085E+03 0.  0.
    9000005    1    3    3    0    0 -0.37773436759E+02  0.85009981890E+01 -0.35106411702E+03  0.35319415872E+03  0.10000000000E+01 0.  0.
    9000005    1    3    3    0    0  0.37773436759E+02 -0.85009981890E+01 -0.33613966855E+02  0.51283508680E+02  0.10000000000E+01 0.  0.
<mgrwt>
<rscale>  0 0.12499982E+03</rscale>
<asrwt>0</asrwt>
<pdfrwt beam="1">  1        4 0.15230452E-02 0.12499982E+03</pdfrwt>
<pdfrwt beam="2">  1       -4 0.60704276E-01 0.12499982E+03</pdfrwt>
<totfact> 0.64119873E+03</totfact>
</mgrwt>
</event>
<event>
 5    1  0.3281209E-002  0.1250005E+03  0.7818608E-02  0.1235069E+00
         -4   -1    0    0    0  501 -0.00000000000E+00  0.00000000000E+00  0.17662422190E+02  0.17708022409E+02  0.12700000000E+01 0. -1.
          4   -1    0    0  501    0  0.00000000000E+00 -0.00000000000E+00 -0.22083075506E+03  0.22083440692E+03  0.12700000000E+01 0. -1.
         25    2    1    2    0    0  0.00000000000E+00  0.00000000000E+00 -0.20316833287E+03  0.23854242933E+03  0.12500047644E+03 0.  0.
    9000005    1    3    3    0    0  0.56303136547E-01  0.55464283003E+02 -0.15652921910E+03  0.16606831815E+03  0.10000000000E+01 0.  0.
    9000005    1    3    3    0    0 -0.56303136547E-01 -0.55464283003E+02 -0.46639113770E+02  0.72474111186E+02  0.10000000000E+01 0.  0.
<mgrwt>
<rscale>  0 0.12500048E+03</rscale>
<asrwt>0</asrwt>
<pdfrwt beam="2">  1        4 0.33977749E-01 0.12500048E+03</pdfrwt>
<pdfrwt beam="1">  1       -4 0.27210845E-02 0.12500048E+03</pdfrwt>
<totfact> 0.84014035E+03</totfact>
</mgrwt>
</event>
<event>
 5    1  0.3281209E-002  0.1249918E+03  0.7818608E-02  0.1235082E+00
          4   -1    0    0  501    0  0.00000000000E+00  0.00000000000E+00  0.90365533788E+03  0.90365623031E+03  0.12700000000E+01 0. -1.
         -4   -1    0    0    0  501 -0.00000000000E+00 -0.00000000000E+00 -0.42279484730E+01  0.44145722659E+01  0.12700000000E+01 0. -1.
         25    2    1    2    0    0  0.00000000000E+00  0.00000000000E+00  0.89942738940E+03  0.90807080257E+03  0.12499181444E+03 0.  0.
    9000005    1    3    3    0    0 -0.38183184043E+02  0.32841909619E+02  0.71844090189E+03  0.72020474594E+03  0.10000000000E+01 0.  0.
    9000005    1    3    3    0    0  0.38183184043E+02 -0.32841909619E+02  0.18098648751E+03  0.18786605663E+03  0.10000000000E+01 0.  0.
<mgrwt>
<rscale>  0 0.12499181E+03</rscale>
<asrwt>0</asrwt>
<pdfrwt beam="1">  1        4 0.13903842E+00 0.12499181E+03</pdfrwt>
<pdfrwt beam="2">  1       -4 0.66487745E-03 0.12499181E+03</pdfrwt>
<totfact> 0.33858781E+03</totfact>
</mgrwt>
</event>
<event>
 5    1  0.3281209E-002  0.1250009E+03  0.7818608E-02  0.1235068E+00
         -4   -1    0    0    0  501 -0.00000000000E+00  0.00000000000E+00  0.23361189666E+01  0.26590133182E+01  0.12700000000E+01 0. -1.
          4   -1    0    0  501    0  0.00000000000E+00 -0.00000000000E+00 -0.15637215322E+04  0.15637220480E+04  0.12700000000E+01 0. -1.
         25    2    1    2    0    0  0.00000000000E+00  0.00000000000E+00 -0.15613854133E+04  0.15663810613E+04  0.12500088145E+03 0.  0.
    9000005    1    3    3    0    0 -0.60961039525E+02  0.74978555114E+01 -0.63626616720E+03  0.63922460975E+03  0.10000000000E+01 0.  0.
    9000005    1    3    3    0    0  0.60961039525E+02 -0.74978555114E+01 -0.92511924607E+03  0.92715645153E+03  0.10000000000E+01 0.  0.
<mgrwt>
<rscale>  0 0.12500088E+03</rscale>
<asrwt>0</asrwt>
<pdfrwt beam="2">  1        4 0.24059664E+00 0.12500088E+03</pdfrwt>
<pdfrwt beam="1">  1       -4 0.38428187E-03 0.12500088E+03</pdfrwt>
<totfact> 0.16661617E+03</totfact>
</mgrwt>
</event>
<event>
 4    1  0.3281209E-002  0.1256144E+03  0.7818608E-02  0.1234112E+00
          4   -1    0    0  501    0  0.00000000000E+00  0.00000000000E+00  0.14352609565E+02  0.14408688397E+02  0.12700000000E+01 0.  1.
         -4   -1    0    0    0  501 -0.00000000000E+00 -0.00000000000E+00 -0.27425181059E+03  0.27425475112E+03  0.12700000000E+01 0.  1.
    9000005    1    1    2    0    0 -0.52185661603E+02 -0.28873310672E+02 -0.17514134858E+03  0.18502027815E+03  0.10000000000E+01 0.  0.
    9000005    1    1    2    0    0  0.52185661603E+02  0.28873310672E+02 -0.84757852449E+02  0.10364316137E+03  0.10000000000E+01 0.  0.
<mgrwt>
<rscale>  0 0.12561444E+03</rscale>
<asrwt>0</asrwt>
<pdfrwt beam="1">  1        4 0.22126339E-02 0.12561444E+03</pdfrwt>
<pdfrwt beam="2">  1       -4 0.42197122E-01 0.12561444E+03</pdfrwt>
<totfact> 0.76000993E+03</totfact>
</mgrwt>
</event>
<event>
 4    1  0.3281209E-002  0.1251009E+03  0.7818608E-02  0.1234912E+00
         -4   -1    0    0    0  501 -0.00000000000E+00  0.00000000000E+00  0.14230188236E+02  0.14286747609E+02  0.12700000000E+01 0.  1.
          4   -1    0    0  501    0  0.00000000000E+00 -0.00000000000E+00 -0.27434449176E+03  0.27434743130E+03  0.12700000000E+01 0.  1.
    9000005    1    1    2    0    0  0.24388724953E+01 -0.52253766555E+02 -0.50964720950E+02  0.73039763141E+02  0.10000000000E+01 0.  0.
    9000005    1    1    2    0    0 -0.24388724953E+01  0.52253766555E+02 -0.20914958258E+03  0.21559441577E+03  0.10000000000E+01 0.  0.
<mgrwt>
<rscale>  0 0.12510091E+03</rscale>
<asrwt>0</asrwt>
<pdfrwt beam="2">  1        4 0.42211418E-01 0.12510091E+03</pdfrwt>
<pdfrwt beam="1">  1       -4 0.21938368E-02 0.12510091E+03</pdfrwt>
<totfact> 0.76874560E+03</totfact>
</mgrwt>
</event>
<event>
 5    1  0.3281209E-002  0.1249979E+03  0.7818608E-02  0.1235073E+00
         -4   -1    0    0    0  501 -0.00000000000E+00  0.00000000000E+00  0.29853328287E+03  0.29853598423E+03  0.12700000000E+01 0. -1.
          4   -1    0    0  501    0  0.00000000000E+00 -0.00000000000E+00 -0.13050780885E+02  0.13112428521E+02  0.12700000000E+01 0. -1.
         25    2    1    2    0    0  0.00000000000E+00  0.00000000000E+00  0.28548250198E+03  0.31164841275E+03  0.12499789691E+03 0.  0.
    9000005    1    3    3    0    0 -0.33118823092E+02  0.51109141021E+02  0.17765694998E+03  0.18780839336E+03  0.10000000000E+01 0.  0.
    9000005    1    3    3    0    0  0.33118823092E+02 -0.51109141021E+02  0.10782555200E+03  0.12384001940E+03  0.10000000000E+01 0.  0.
<mgrwt>
<rscale>  0 0.12499790E+03</rscale>
<asrwt>0</asrwt>
<pdfrwt beam="2">  1        4 0.20127622E-02 0.12499790E+03</pdfrwt>
<pdfrwt beam="1">  1       -4 0.45933151E-01 0.12499790E+03</pdfrwt>
<totfact> 0.74163990E+03</totfact>
</mgrwt>
</event>
<event>
 5    1  0.3281209E-002  0.1250005E+03  0.7818608E-02  0.1235068E+00
          4   -1    0    0  501    0  0.00000000000E+00  0.00000000000E+00  0.31319905540E+02  0.31345643765E+02  0.12700000000E+01 0. -1.
         -4   -1    0    0    0  501 -0.00000000000E+00 -0.00000000000E+00 -0.12464187572E+03  0.12464834569E+03  0.12700000000E+01 0. -1.
         25    2    1    2    0    0  0.00000000000E+00  0.00000000000E+00 -0.93321970181E+02  0.15599398945E+03  0.12500053851E+03 0.  0.
    9000005    1    3    3    0    0 -0.54317354898E+02 -0.23974419582E+02 -0.22329681468E+02  0.63441016006E+02  0.10000000000E+01 0.  0.
    9000005    1    3    3    0    0  0.54317354898E+02  0.23974419582E+02 -0.70992288713E+02  0.92552973449E+02  0.10000000000E+01 0.  0.
<mgrwt>
<rscale>  0 0.12500054E+03</rscale>
<asrwt>0</asrwt>
<pdfrwt beam="1">  1        4 0.48209246E-02 0.12500054E+03</pdfrwt>
<pdfrwt beam="2">  1       -4 0.19178151E-01 0.12500054E+03</pdfrwt>
<totfact> 0.98119531E+03</totfact>
</mgrwt>
</event>
<event>
 5    1  0.3281209E-002  0.1249988E+03  0.7818608E-02  0.1235071E+00
          4   -1    0    0  501    0  0.00000000000E+00  0.00000000000E+00  0.50314362988E+01  0.51892438012E+01  0.12700000000E+01 0. -1.
         -4   -1    0    0    0  501 -0.00000000000E+00 -0.00000000000E+00 -0.76420859035E+03  0.76420964562E+03  0.12700000000E+01 0. -1.
         25    2    1    2    0    0  0.00000000000E+00  0.00000000000E+00 -0.75917715405E+03  0.76939888942E+03  0.12499879926E+03 0.  0.
    9000005    1    3    3    0    0 -0.58751946468E+02 -0.14101653938E+02 -0.47778885686E+03  0.48159509923E+03  0.10000000000E+01 0.  0.
    9000005    1    3    3    0    0  0.58751946468E+02  0.14101653938E+02 -0.28138829719E+03  0.28780379020E+03  0.10000000000E+01 0.  0.
<mgrwt>
<rscale>  0 0.12499880E+03</rscale>
<asrwt>0</asrwt>
<pdfrwt beam="1">  1        4 0.78628794E-03 0.12499880E+03</pdfrwt>
<pdfrwt beam="2">  1       -4 0.11758268E+00 0.12499880E+03</pdfrwt>
<totfact> 0.39664089E+03</totfact>
</mgrwt>
</event>
<event>
 5    1  0.3281209E-002  0.1250031E+03  0.7818608E-02  0.1235064E+00
          4   -1    0    0  501    0  0.00000000000E+00  0.00000000000E+00  0.10239795176E+03  0.10240582711E+03  0.12700000000E+01 0.  1.
         -4   -1    0    0    0  501 -0.00000000000E+00 -0.00000000000E+00 -0.38129725646E+02  0.38150869948E+02  0.12700000000E+01 0.  1.
         25    2    1    2    0    0  0.00000000000E+00  0.00000000000E+00  0.64268226119E+02  0.14055669706E+03  0.12500312076E+03 0.  0.
    9000005    1    3    3    0    0  0.47389274783E+02 -0.40351846367E+02  0.38437937671E+02  0.73160712969E+02  0.10000000000E+01 0.  0.
    9000005    1    3    3    0    0 -0.47389274783E+02  0.40351846367E+02  0.25830288448E+02  0.67395984087E+02  0.10000000000E+01 0.  0.
<mgrwt>
<rscale>  0 0.12500312E+03</rscale>
<asrwt>0</asrwt>
<pdfrwt beam="1">  1        4 0.15755763E-01 0.12500312E+03</pdfrwt>
<pdfrwt beam="2">  1       -4 0.58683440E-02 0.12500312E+03</pdfrwt>
<totfact> 0.10121349E+04</totfact>
</mgrwt>
</event>
<event>
 5    1  0.3281209E-002  0.1249981E+03  0.7818608E-02  0.1235072E+00
         -4   -1    0    0    0  501 -0.00000000000E+00  0.00000000000E+00  0.53084717735E+01  0.54582756040E+01  0.12700000000E+01 0. -1.
          4   -1    0    0  501    0  0.00000000000E+00 -0.00000000000E+00 -0.72544177393E+03  0.72544288560E+03  0.12700000000E+01 0. -1.
         25    2    1    2    0    0  0.00000000000E+00  0.00000000000E+00 -0.72013330216E+03  0.73090116121E+03  0.12499813826E+03 0.  0.
    9000005    1    3    3    0    0  0.33857783431E+02 -0.16359549924E+02 -0.68219819438E+02  0.77903325582E+02  0.10000000000E+01 0.  0.
    9000005    1    3    3    0    0 -0.33857783431E+02  0.16359549924E+02 -0.65191348272E+03  0.65299783562E+03  0.10000000000E+01 0.  0.
<mgrwt>
<rscale>  0 0.12499814E+03</rscale>
<asrwt>0</asrwt>
<pdfrwt beam="2">  1        4 0.11161796E+00 0.12499814E+03</pdfrwt>
<pdfrwt beam="1">  1       -4 0.82829743E-03 0.12499814E+03</pdfrwt>
<totfact> 0.41506430E+03</totfact>
</mgrwt>
</event>
<event>
 5    1  0.3281209E-002  0.1249999E+03  0.7818608E-02  0.1235069E+00
          4   -1    0    0  501    0  0.00000000000E+00  0.00000000000E+00  0.75116084537E+02  0.75126819819E+02  0.12700000000E+01 0.  1.
         -4   -1    0    0    0  501 -0.00000000000E+00 -0.00000000000E+00 -0.51980581137E+02  0.51996093270E+02  0.12700000000E+01 0.  1.
         25    2    1    2    0    0  0.00000000000E+00  0.00000000000E+00  0.23135503400E+02  0.12712291309E+03  0.12499993406E+03 0.  0.
    9000005    1    3    3    0    0  0.26877544763E+02 -0.24135092492E+02  0.63427354444E+02  0.72999550641E+02  0.10000000000E+01 0.  0.
    9000005    1    3    3    0    0 -0.26877544763E+02  0.24135092492E+02 -0.40291851045E+02  0.54123362448E+02  0.10000000000E+01 0.  0.
<mgrwt>
<rscale>  0 0.12499993E+03</rscale>
<asrwt>0</asrwt>
<pdfrwt beam="1">  1        4 0.11558340E-01 0.12499993E+03</pdfrwt>
<pdfrwt beam="2">  1       -4 0.79990315E-02 0.12499993E+03</pdfrwt>
<totfact> 0.10406492E+04</totfact>
</mgrwt>
</event>
<event>
 5    1  0.3281209E-002  0.1249990E+03  0.7818608E-02  0.1235071E+00
          4   -1    0    0  501    0  0.00000000000E+00  0.00000000000E+00  0.79157323886E+03  0.79157425766E+03  0.12700000000E+01 0.  1.
         -4   -1    0    0    0  501 -0.00000000000E+00 -0.00000000000E+00 -0.48519634296E+01  0.50154211311E+01  0.12700000000E+01 0.  1.
         25    2    1    2    0    0  0.00000000000E+00  0.00000000000E+00  0.78672127543E+03  0.79658967879E+03  0.12499900452E+03 0.  0.
    9000005    1    3    3    0    0 -0.34311604325E+02  0.52030727737E+02  0.42235845740E+03  0.42693342497E+03  0.10000000000E+01 0.  0.
    9000005    1    3    3    0    0  0.34311604325E+02 -0.52030727737E+02  0.36436281803E+03  0.36965625382E+03  0.10000000000E+01 0.  0.
<mgrwt>
<rscale>  0 0.12499900E+03</rscale>
<asrwt>0</asrwt>
<pdfrwt beam="1">  1        4 0.12179309E+00 0.12499900E+03</pdfrwt>
<pdfrwt beam="2">  1       -4 0.75910833E-03 0.12499900E+03</pdfrwt>
<totfact> 0.38418277E+03</totfact>
</mgrwt>
</event>
<event>
 5    1  0.3281209E-002  0.1249967E+03  0.7818608E-02  0.1235074E+00
          4   -1    0    0  501    0  0.00000000000E+00  0.00000000000E+00  0.71496095188E+01  0.72615298851E+01  0.12700000000E+01 0. -1.
         -4   -1    0    0    0  501 -0.00000000000E+00 -0.00000000000E+00 -0.54197400034E+03  0.54197548833E+03  0.12700000000E+01 0. -1.
         25    2    1    2    0    0  0.00000000000E+00  0.00000000000E+00 -0.53482439082E+03  0.54923701821E+03  0.12499669257E+03 0.  0.
    9000005    1    3    3    0    0 -0.29509301465E+02  0.28748674952E+01 -0.50912200350E+03  0.50998556665E+03  0.10000000000E+01 0.  0.
    9000005    1    3    3    0    0  0.29509301465E+02 -0.28748674952E+01 -0.25702387321E+02  0.39251451566E+02  0.10000000000E+01 0.  0.
<mgrwt>
<rscale>  0 0.12499669E+03</rscale>
<asrwt>0</asrwt>
<pdfrwt beam="1">  1        4 0.11086641E-02 0.12499669E+03</pdfrwt>
<pdfrwt beam="2">  1       -4 0.83389308E-01 0.12499669E+03</pdfrwt>
<totfact> 0.52240958E+03</totfact>
</mgrwt>
</event>
<event>
 5    1  0.3281209E-002  0.1249875E+03  0.7818608E-02  0.1235089E+00
          4   -1    0    0  501    0  0.00000000000E+00  0.00000000000E+00  0.43893211696E+02  0.43911580853E+02  0.12700000000E+01 0. -1.
         -4   -1    0    0    0  501 -0.00000000000E+00 -0.00000000000E+00 -0.88935137291E+02  0.88944204674E+02  0.12700000000E+01 0. -1.
         25    2    1    2    0    0  0.00000000000E+00  0.00000000000E+00 -0.45041925595E+02  0.13285578553E+03  0.12498753813E+03 0.  0.
    9000005    1    3    3    0    0 -0.45839150044E+02  0.42323256708E+02 -0.18841023242E+02  0.65180287603E+02  0.10000000000E+01 0.  0.
    9000005    1    3    3    0    0  0.45839150044E+02 -0.42323256708E+02 -0.26200902353E+02  0.67675497924E+02  0.10000000000E+01 0.  0.
<mgrwt>
<rscale>  0 0.12498754E+03</rscale>
<asrwt>0</asrwt>
<pdfrwt beam="1">  1        4 0.67549123E-02 0.12498754E+03</pdfrwt>
<pdfrwt beam="2">  1       -4 0.13684439E-01 0.12498754E+03</pdfrwt>
<totfact> 0.10286357E+04</totfact>
</mgrwt>
</event>
<event>
 5    1  0.3281209E-002  0.1250014E+03  0.7818608E-02  0.1235067E+00
         -4   -1    0    0    0  501 -0.00000000000E+00  0.00000000000E+00  0.61769149583E+01  0.63061222952E+01  0.12700000000E+01 0.  1.
          4   -1    0    0  501    0  0.00000000000E+00 -0.00000000000E+00 -0.62573381461E+03  0.62573510342E+03  0.12700000000E+01 0.  1.
         25    2    1    2    0    0  0.00000000000E+00  0.00000000000E+00 -0.61955689965E+03  0.63204122571E+03  0.12500143636E+03 0.  0.
    9000005    1    3    3    0    0 -0.29703802297E+02 -0.23313849228E+02 -0.56155277353E+03  0.56282179141E+03  0.10000000000E+01 0.  0.
    9000005    1    3    3    0    0  0.29703802297E+02  0.23313849228E+02 -0.58004126129E+02  0.69219434299E+02  0.10000000000E+01 0.  0.
<mgrwt>
<rscale>  0 0.12500144E+03</rscale>
<asrwt>0</asrwt>
<pdfrwt beam="2">  1        4 0.96276730E-01 0.12500144E+03</pdfrwt>
<pdfrwt beam="1">  1       -4 0.96033326E-03 0.12500144E+03</pdfrwt>
<totfact> 0.46904129E+03</totfact>
</mgrwt>
</event>
<event>
 5    1  0.3281209E-002  0.1249992E+03  0.7818608E-02  0.1235070E+00
          4   -1    0    0  501    0  0.00000000000E+00  0.00000000000E+00  0.38925697170E+02  0.38946409336E+02  0.12700000000E+01 0.  1.
         -4   -1    0    0    0  501 -0.00000000000E+00 -0.00000000000E+00 -0.10029879358E+03  0.10030683373E+03  0.12700000000E+01 0.  1.
         25    2    1    2    0    0  0.00000000000E+00  0.00000000000E+00 -0.61373096412E+02  0.13925324307E+03  0.12499923497E+03 0.  0.
    9000005    1    3    3    0    0  0.10244749483E+01 -0.27951329246E+02 -0.92941703595E+02  0.97064342694E+02  0.10000000000E+01 0.  0.
    9000005    1    3    3    0    0 -0.10244749483E+01  0.27951329246E+02  0.31568607183E+02  0.42188900377E+02  0.10000000000E+01 0.  0.
<mgrwt>
<rscale>  0 0.12499923E+03</rscale>
<asrwt>0</asrwt>
<pdfrwt beam="1">  1        4 0.59907806E-02 0.12499923E+03</pdfrwt>
<pdfrwt beam="2">  1       -4 0.15432795E-01 0.12499923E+03</pdfrwt>
<totfact> 0.10149261E+04</totfact>
</mgrwt>
</event>
<event>
 5    1  0.3281209E-002  0.1249981E+03  0.7818608E-02  0.1235072E+00
         -4   -1    0    0    0  501 -0.00000000000E+00  0.00000000000E+00  0.31450131204E+02  0.31475762942E+02  0.12700000000E+01 0. -1.
          4   -1    0    0  501    0  0.00000000000E+00 -0.00000000000E+00 -0.12412131078E+03  0.12412780789E+03  0.12700000000E+01 0. -1.
         25    2    1    2    0    0  0.00000000000E+00  0.00000000000E+00 -0.92671179580E+02  0.15560357083E+03  0.12499809490E+03 0.  0.
    9000005    1    3    3    0    0  0.52895025511E+02  0.80931669572E+01 -0.86514437090E+02  0.10173067826E+03  0.10000000000E+01 0.  0.
    9000005    1    3    3    0    0 -0.52895025511E+02 -0.80931669572E+01 -0.61567424903E+01  0.53872892564E+02  0.10000000000E+01 0.  0.
<mgrwt>
<rscale>  0 0.12499809E+03</rscale>
<asrwt>0</asrwt>
<pdfrwt beam="2">  1        4 0.19098057E-01 0.12499809E+03</pdfrwt>
<pdfrwt beam="1">  1       -4 0.48409533E-02 0.12499809E+03</pdfrwt>
<totfact> 0.98201348E+03</totfact>
</mgrwt>
</event>
<event>
 5    1  0.3281209E-002  0.1250006E+03  0.7818608E-02  0.1235068E+00
          4   -1    0    0  501    0  0.00000000000E+00  0.00000000000E+00  0.63644913153E+02  0.63657582975E+02  0.12700000000E+01 0. -1.
         -4   -1    0    0    0  501 -0.00000000000E+00 -0.00000000000E+00 -0.61350894027E+02  0.61364037497E+02  0.12700000000E+01 0. -1.
         25    2    1    2    0    0  0.00000000000E+00  0.00000000000E+00  0.22940191257E+01  0.12502162047E+03  0.12500057225E+03 0.  0.
    9000005    1    3    3    0    0 -0.45078087182E+02  0.30095549011E+02  0.32257065926E+02  0.63081648016E+02  0.10000000000E+01 0.  0.
    9000005    1    3    3    0    0  0.45078087182E+02 -0.30095549011E+02 -0.29963046800E+02  0.61939972456E+02  0.10000000000E+01 0.  0.
<mgrwt>
<rscale>  0 0.12500057E+03</rscale>
<asrwt>0</asrwt>
<pdfrwt beam="1">  1        4 0.97935107E-02 0.12500057E+03</pdfrwt>
<pdfrwt beam="2">  1       -4 0.94405848E-02 0.12500057E+03</pdfrwt>
<totfact> 0.10452258E+04</totfact>
</mgrwt>
</event>
<event>
 5    1  0.3281209E-002  0.1249893E+03  0.7818608E-02  0.1235086E+00
          4   -1    0    0  501    0  0.00000000000E+00  0.00000000000E+00  0.62860111011E+01  0.64130207830E+01  0.12700000000E+01 0.  1.
         -4   -1    0    0    0  501 -0.00000000000E+00 -0.00000000000E+00 -0.61497184821E+03  0.61497315957E+03  0.12700000000E+01 0.  1.
         25    2    1    2    0    0  0.00000000000E+00  0.00000000000E+00 -0.60868583711E+03  0.62138618036E+03  0.12498934689E+03 0.  0.
    9000005    1    3    3    0    0 -0.46315433859E+02  0.31440517102E+02 -0.44238266177E+03  0.44591147660E+03  0.10000000000E+01 0.  0.
    9000005    1    3    3    0    0  0.46315433859E+02 -0.31440517102E+02 -0.16630317534E+03  0.17547470376E+03  0.10000000000E+01 0.  0.
<mgrwt>
<rscale>  0 0.12498935E+03</rscale>
<asrwt>0</asrwt>
<pdfrwt beam="1">  1        4 0.97694997E-03 0.12498935E+03</pdfrwt>
<pdfrwt beam="2">  1       -4 0.94620877E-01 0.12498935E+03</pdfrwt>
<totfact> 0.47556013E+03</totfact>
</mgrwt>
</event>
<event>
 5    1  0.3281209E-002  0.1249970E+03  0.7818608E-02  0.1235074E+00
         -4   -1    0    0    0  501 -0.00000000000E+00  0.00000000000E+00  0.12081200934E+03  0.12081868441E+03  0.12700000000E+01 0.  1.
          4   -1    0    0  501    0  0.00000000000E+00 -0.00000000000E+00 -0.32311684399E+02  0.32336633230E+02  0.12700000000E+01 0.  1.
         25    2    1    2    0    0  0.00000000000E+00  0.00000000000E+00  0.88500324946E+02  0.15315531764E+03  0.12499697518E+03 0.  0.
    9000005    1    3    3    0    0  0.16392829567E+02  0.53263712270E+02  0.96091140797E+01  0.56560436521E+02  0.10000000000E+01 0.  0.
    9000005    1    3    3    0    0 -0.16392829567E+02 -0.53263712270E+02  0.78891210866E+02  0.96594881117E+02  0.10000000000E+01 0.  0.
<mgrwt>
<rscale>  0 0.12499698E+03</rscale>
<asrwt>0</asrwt>
<pdfrwt beam="2">  1        4 0.49734610E-02 0.12499698E+03</pdfrwt>
<pdfrwt beam="1">  1       -4 0.18588896E-01 0.12499698E+03</pdfrwt>
<totfact> 0.98685126E+03</totfact>
</mgrwt>
</event>
<event>
 4    1  0.3281209E-002  0.1252537E+03  0.7818608E-02  0.1234673E+00
         -4   -1    0    0    0  501 -0.00000000000E+00  0.00000000000E+00  0.99567339232E+03  0.99567420227E+03  0.12700000000E+01 0.  1.
          4   -1    0    0  501    0  0.00000000000E+00 -0.00000000000E+00 -0.38359714829E+01  0.40407396869E+01  0.12700000000E+01 0.  1.
    9000005    1    1    2    0    0  0.43356733748E+02  0.44315577898E+02  0.56615931475E+03  0.56954459569E+03  0.10000000000E+01 0.  0.
    9000005    1    1    2    0    0 -0.43356733748E+02 -0.44315577898E+02  0.42567810609E+03  0.43017034627E+03  0.10000000000E+01 0.  0.
<mgrwt>
<rscale>  0 0.12525373E+03</rscale>
<asrwt>0</asrwt>
<pdfrwt beam="2">  1        4 0.60596269E-03 0.12525373E+03</pdfrwt>
<pdfrwt beam="1">  1       -4 0.15319646E+00 0.12525373E+03</pdfrwt>
<totfact> 0.30445051E+03</totfact>
</mgrwt>
</event>
<event>
 5    1  0.3281209E-002  0.1250013E+03  0.7818608E-02  0.1235067E+00
          4   -1    0    0  501    0  0.00000000000E+00  0.00000000000E+00  0.80178359917E+02  0.80188417487E+02  0.12700000000E+01 0.  1.
         -4   -1    0    0    0  501 -0.00000000000E+00 -0.00000000000E+00 -0.48699152660E+02  0.48715709682E+02  0.12700000000E+01 0.  1.
         25    2    1    2    0    0  0.00000000000E+00  0.00000000000E+00  0.31479207257E+02  0.12890412717E+03  0.12500133404E+03 0.  0.
    9000005    1    3    3    0    0  0.28633904702E+01  0.11904836856E+02 -0.47455118626E+02  0.49019510701E+02  0.10000000000E+01 0.  0.
    9000005    1    3    3    0    0 -0.28633904702E+01 -0.11904836856E+02  0.78934325883E+02  0.79884616468E+02  0.10000000000E+01 0.  0.
<mgrwt>
<rscale>  0 0.12500133E+03</rscale>
<asrwt>0</asrwt>
<pdfrwt beam="1">  1        4 0.12337179E-01 0.12500133E+03</pdfrwt>
<pdfrwt beam="2">  1       -4 0.74942247E-02 0.12500133E+03</pdfrwt>
<totfact> 0.10367695E+04</totfact>
</mgrwt>
</event>
<event>
 5    1  0.3281209E-002  0.1249977E+03  0.7818608E-02  0.1235073E+00
          4   -1    0    0  501    0  0.00000000000E+00  0.00000000000E+00  0.28661845282E+03  0.28662126647E+03  0.12700000000E+01 0.  1.
         -4   -1    0    0    0  501 -0.00000000000E+00 -0.00000000000E+00 -0.13595779224E+02  0.13654966595E+02  0.12700000000E+01 0.  1.
         25    2    1    2    0    0  0.00000000000E+00  0.00000000000E+00  0.27302267359E+03  0.30027623307E+03  0.12499774338E+03 0.  0.
    9000005    1    3    3    0    0  0.13716273748E+02 -0.23988778449E+02  0.18669973953E+01  0.27714316450E+02  0.10000000000E+01 0.  0.
    9000005    1    3    3    0    0 -0.13716273748E+02  0.23988778449E+02  0.27115567620E+03  0.27256191662E+03  0.10000000000E+01 0.  0.
<mgrwt>
<rscale>  0 0.12499774E+03</rscale>
<asrwt>0</asrwt>
<pdfrwt beam="1">  1        4 0.44099915E-01 0.12499774E+03</pdfrwt>
<pdfrwt beam="2">  1       -4 0.20964277E-02 0.12499774E+03</pdfrwt>
<totfact> 0.75567986E+03</totfact>
</mgrwt>
</event>
<event>
 5    1  0.3281209E-002  0.1249987E+03  0.7818608E-02  0.1235071E+00
         -4   -1    0    0    0  501 -0.00000000000E+00  0.00000000000E+00  0.33098805146E+02  0.33123161112E+02  0.12700000000E+01 0. -1.
          4   -1    0    0  501    0  0.00000000000E+00 -0.00000000000E+00 -0.11794416070E+03  0.11795099806E+03  0.12700000000E+01 0. -1.
         25    2    1    2    0    0  0.00000000000E+00  0.00000000000E+00 -0.84845355553E+02  0.15107415917E+03  0.12499866883E+03 0.  0.
    9000005    1    3    3    0    0 -0.54209756096E+02 -0.44737258937E+01 -0.79604850593E+02  0.96419106599E+02  0.10000000000E+01 0.  0.
    9000005    1    3    3    0    0  0.54209756096E+02  0.44737258937E+01 -0.52405049600E+01  0.54655052572E+02  0.10000000000E+01 0.  0.
<mgrwt>
<rscale>  0 0.12499867E+03</rscale>
<asrwt>0</asrwt>
<pdfrwt beam="2">  1        4 0.18147655E-01 0.12499867E+03</pdfrwt>
<pdfrwt beam="1">  1       -4 0.50945234E-02 0.12499867E+03</pdfrwt>
<totfact> 0.99092979E+03</totfact>
</mgrwt>
</event>
<event>
 5    1  0.3281209E-002  0.1250003E+03  0.7818608E-02  0.1235069E+00
         -4   -1    0    0    0  501 -0.00000000000E+00  0.00000000000E+00  0.14660435710E+03  0.14660985786E+03  0.12700000000E+01 0.  1.
          4   -1    0    0  501    0  0.00000000000E+00 -0.00000000000E+00 -0.26623839952E+02  0.26654113262E+02  0.12700000000E+01 0.  1.
         25    2    1    2    0    0  0.00000000000E+00  0.00000000000E+00  0.11998051715E+03  0.17326397112E+03  0.12500031677E+03 0.  0.
    9000005    1    3    3    0    0  0.41262580766E+02  0.46463689328E+02  0.69163195939E+02  0.92983991471E+02  0.10000000000E+01 0.  0.
    9000005    1    3    3    0    0 -0.41262580766E+02 -0.46463689328E+02  0.50817321208E+02  0.80279979647E+02  0.10000000000E+01 0.  0.
<mgrwt>
<rscale>  0 0.12500032E+03</rscale>
<asrwt>0</asrwt>
<pdfrwt beam="2">  1        4 0.40987272E-02 0.12500032E+03</pdfrwt>
<pdfrwt beam="1">  1       -4 0.22557268E-01 0.12500032E+03</pdfrwt>
<totfact> 0.94843081E+03</totfact>
</mgrwt>
</event>
<event>
 5    1  0.3281209E-002  0.1250092E+03  0.7818608E-02  0.1235055E+00
         -4   -1    0    0    0  501 -0.00000000000E+00  0.00000000000E+00  0.14557540600E+02  0.14612833001E+02  0.12700000000E+01 0. -1.
          4   -1    0    0  501    0  0.00000000000E+00 -0.00000000000E+00 -0.26780568830E+03  0.26780869960E+03  0.12700000000E+01 0. -1.
         25    2    1    2    0    0  0.00000000000E+00  0.00000000000E+00 -0.25324814770E+03  0.28242153260E+03  0.12500919073E+03 0.  0.
    9000005    1    3    3    0    0 -0.22507451271E+02  0.55040446695E+02 -0.83179809390E+02  0.10225417754E+03  0.10000000000E+01 0.  0.
    9000005    1    3    3    0    0  0.22507451271E+02 -0.55040446695E+02 -0.17006833831E+03  0.18016735506E+03  0.10000000000E+01 0.  0.
<mgrwt>
<rscale>  0 0.12500919E+03</rscale>
<asrwt>0</asrwt>
<pdfrwt beam="2">  1        4 0.41205357E-01 0.12500919E+03</pdfrwt>
<pdfrwt beam="1">  1       -4 0.22441067E-02 0.12500919E+03</pdfrwt>
<totfact> 0.77842220E+03</totfact>
</mgrwt>
</event>
<event>
 5    1  0.3281209E-002  0.1250007E+03  0.7818608E-02  0.1235068E+00
          4   -1    0    0  501    0  0.00000000000E+00  0.00000000000E+00  0.14458071537E+02  0.14513742886E+02  0.12700000000E+01 0. -1.
         -4   -1    0    0    0  501 -0.00000000000E+00 -0.00000000000E+00 -0.26960469013E+03  0.26960768135E+03  0.12700000000E+01 0. -1.
         25    2    1    2    0    0  0.00000000000E+00  0.00000000000E+00 -0.25514661859E+03  0.28412142423E+03  0.12500074691E+03 0.  0.
    9000005    1    3    3    0    0  0.44516140443E+01  0.35206836472E+02 -0.24449171575E+03  0.24705573718E+03  0.10000000000E+01 0.  0.
    9000005    1    3    3    0    0 -0.44516140443E+01 -0.35206836472E+02 -0.10654902839E+02  0.37065687050E+02  0.10000000000E+01 0.  0.
<mgrwt>
<rscale>  0 0.12500075E+03</rscale>
<asrwt>0</asrwt>
<pdfrwt beam="1">  1        4 0.22288314E-02 0.12500075E+03</pdfrwt>
<pdfrwt beam="2">  1       -4 0.41482153E-01 0.12500075E+03</pdfrwt>
<totfact> 0.77633502E+03</totfact>
</mgrwt>
</event>
<event>
 5    1  0.3281209E-002  0.1250014E+03  0.7818608E-02  0.1235067E+00
          4   -1    0    0  501    0  0.00000000000E+00  0.00000000000E+00  0.11038452561E+02  0.11111270627E+02  0.12700000000E+01 0. -1.
         -4   -1    0    0    0  501 -0.00000000000E+00 -0.00000000000E+00 -0.35264741729E+03  0.35264970413E+03  0.12700000000E+01 0. -1.
         25    2    1    2    0    0  0.00000000000E+00  0.00000000000E+00 -0.34160896473E+03  0.36376097475E+03  0.12500144788E+03 0.  0.
    9000005    1    3    3    0    0  0.58139012104E+02 -0.19556766764E+02 -0.20557063420E+03  0.21452947933E+03  0.10000000000E+01 0.  0.
    9000005    1    3    3    0    0 -0.58139012104E+02  0.19556766764E+02 -0.13603833053E+03  0.14923149543E+03  0.10000000000E+01 0.  0.
<mgrwt>
<rscale>  0 0.12500145E+03</rscale>
<asrwt>0</asrwt>
<pdfrwt beam="1">  1        4 0.17040010E-02 0.12500145E+03</pdfrwt>
<pdfrwt beam="2">  1       -4 0.54259218E-01 0.12500145E+03</pdfrwt>
<totfact> 0.68234565E+03</totfact>
</mgrwt>
</event>
<event>
 5    1  0.3281209E-002  0.1250037E+03  0.7818608E-02  0.1235064E+00
          4   -1    0    0  501    0  0.00000000000E+00  0.00000000000E+00  0.38004653401E+02  0.38025867250E+02  0.12700000000E+01 0.  1.
         -4   -1    0    0    0  501 -0.00000000000E+00 -0.00000000000E+00 -0.10273568250E+03  0.10274353196E+03  0.12700000000E+01 0.  1.
         25    2    1    2    0    0  0.00000000000E+00  0.00000000000E+00 -0.64731029104E+02  0.14076939921E+03  0.12500367045E+03 0.  0.
    9000005    1    3    3    0    0  0.47404634674E+02 -0.31382049227E+01  0.13356037981E+02  0.49360221528E+02  0.10000000000E+01 0.  0.
    9000005    1    3    3    0    0 -0.47404634674E+02  0.31382049227E+01 -0.78087067085E+02  0.91409177683E+02  0.10000000000E+01 0.  0.
<mgrwt>
<rscale>  0 0.12500367E+03</rscale>
<asrwt>0</asrwt>
<pdfrwt beam="1">  1        4 0.58491054E-02 0.12500367E+03</pdfrwt>
<pdfrwt beam="2">  1       -4 0.15807725E-01 0.12500367E+03</pdfrwt>
<totfact> 0.10116828E+04</totfact>
</mgrwt>
</event>
<event>
 5    1  0.3281209E-002  0.1249980E+03  0.7818608E-02  0.1235072E+00
          4   -1    0    0  501    0  0.00000000000E+00  0.00000000000E+00  0.45781322454E+02  0.45798934329E+02  0.12700000000E+01 0.  1.
         -4   -1    0    0    0  501 -0.00000000000E+00 -0.00000000000E+00 -0.85282560753E+02  0.85292016441E+02  0.12700000000E+01 0.  1.
         25    2    1    2    0    0  0.00000000000E+00  0.00000000000E+00 -0.39501238299E+02  0.13109095077E+03  0.12499795817E+03 0.  0.
    9000005    1    3    3    0    0  0.12560491063E+02  0.45313659394E+02  0.23414225208E+02  0.52538743852E+02  0.10000000000E+01 0.  0.
    9000005    1    3    3    0    0 -0.12560491063E+02 -0.45313659394E+02 -0.62915463507E+02  0.78552206918E+02  0.10000000000E+01 0.  0.
<mgrwt>
<rscale>  0 0.12499796E+03</rscale>
<asrwt>0</asrwt>
<pdfrwt beam="1">  1        4 0.70453625E-02 0.12499796E+03</pdfrwt>
<pdfrwt beam="2">  1       -4 0.13122476E-01 0.12499796E+03</pdfrwt>
<totfact> 0.10321615E+04</totfact>
</mgrwt>
</event>
<event>
 5    1  0.3281209E-002  0.1249988E+03  0.7818608E-02  0.1235071E+00
          4   -1    0    0  501    0  0.00000000000E+00  0.00000000000E+00  0.45999356195E+03  0.45999531512E+03  0.12700000000E+01 0. -1.
         -4   -1    0    0    0  501 -0.00000000000E+00 -0.00000000000E+00 -0.84425404715E+01  0.85375283082E+01  0.12700000000E+01 0. -1.
         25    2    1    2    0    0  0.00000000000E+00  0.00000000000E+00  0.45155102148E+03  0.46853284343E+03  0.12499880150E+03 0.  0.
    9000005    1    3    3    0    0 -0.34480918275E+02  0.40489093645E+02  0.10277220864E+03  0.11572133468E+03  0.10000000000E+01 0.  0.
    9000005    1    3    3    0    0  0.34480918275E+02 -0.40489093645E+02  0.34877881283E+03  0.35281150876E+03  0.10000000000E+01 0.  0.
<mgrwt>
<rscale>  0 0.12499880E+03</rscale>
<asrwt>0</asrwt>
<pdfrwt beam="1">  1        4 0.70775688E-01 0.12499880E+03</pdfrwt>
<pdfrwt beam="2">  1       -4 0.13062939E-02 0.12499880E+03</pdfrwt>
<totfact> 0.58392791E+03</totfact>
</mgrwt>
</event>
<event>
 5    1  0.3281209E-002  0.1250012E+03  0.7818608E-02  0.1235067E+00
          4   -1    0    0  501    0  0.00000000000E+00  0.00000000000E+00  0.37367728968E+03  0.37367944782E+03  0.12700000000E+01 0.  1.
         -4   -1    0    0    0  501 -0.00000000000E+00 -0.00000000000E+00 -0.10412967208E+02  0.10490128029E+02  0.12700000000E+01 0.  1.
         25    2    1    2    0    0  0.00000000000E+00  0.00000000000E+00  0.36326432247E+03  0.38416957585E+03  0.12500118010E+03 0.  0.
    9000005    1    3    3    0    0 -0.16573255642E+02 -0.19983878061E+02  0.35633388806E+03  0.35727981746E+03  0.10000000000E+01 0.  0.
    9000005    1    3    3    0    0  0.16573255642E+02  0.19983878061E+02  0.69304344108E+01  0.26889758386E+02  0.10000000000E+01 0.  0.
<mgrwt>
<rscale>  0 0.12500118E+03</rscale>
<asrwt>0</asrwt>
<pdfrwt beam="1">  1        4 0.57494917E-01 0.12500118E+03</pdfrwt>
<pdfrwt beam="2">  1       -4 0.16080964E-02 0.12500118E+03</pdfrwt>
<totfact> 0.66120392E+03</totfact>
</mgrwt>
</event>
<event>
 5    1  0.3281209E-002  0.1249936E+03  0.7818608E-02  0.1235079E+00
         -4   -1    0    0    0  501 -0.00000000000E+00  0.00000000000E+00  0.27344493038E+02  0.27373969378E+02  0.12700000000E+01 0.  1.
          4   -1    0    0  501    0  0.00000000000E+00 -0.00000000000E+00 -0.14272935403E+03  0.14273500413E+03  0.12700000000E+01 0.  1.
         25    2    1    2    0    0  0.00000000000E+00  0.00000000000E+00 -0.11538486100E+03  0.17010897350E+03  0.12499358671E+03 0.  0.
    9000005    1    3    3    0    0  0.38416765391E+02 -0.26363342337E+02 -0.10214180361E+01  0.46614557566E+02  0.10000000000E+01 0.  0.
    9000005    1    3    3    0    0 -0.38416765391E+02  0.26363342337E+02 -0.11436344296E+03  0.12349441594E+03  0.10000000000E+01 0.  0.
<mgrwt>
<rscale>  0 0.12499359E+03</rscale>
<asrwt>0</asrwt>
<pdfrwt beam="2">  1        4 0.21961064E-01 0.12499359E+03</pdfrwt>
<pdfrwt beam="1">  1       -4 0.42095472E-02 0.12499359E+03</pdfrwt>
<totfact> 0.95442067E+03</totfact>
</mgrwt>
</event>
<event>
 5    1  0.3281209E-002  0.1250108E+03  0.7818608E-02  0.1235052E+00
         -4   -1    0    0    0  501 -0.00000000000E+00  0.00000000000E+00  0.39032147345E+02  0.39052803054E+02  0.12700000000E+01 0. -1.
          4   -1    0    0  501    0  0.00000000000E+00 -0.00000000000E+00 -0.10004391689E+03  0.10005197752E+03  0.12700000000E+01 0. -1.
         25    2    1    2    0    0  0.00000000000E+00  0.00000000000E+00 -0.61011769543E+02  0.13910478058E+03  0.12501081536E+03 0.  0.
    9000005    1    3    3    0    0  0.12375462372E+02 -0.21836908214E+02 -0.94194430783E+02  0.97486375559E+02  0.10000000000E+01 0.  0.
    9000005    1    3    3    0    0 -0.12375462372E+02  0.21836908214E+02  0.33182661240E+02  0.41618405017E+02  0.10000000000E+01 0.  0.
<mgrwt>
<rscale>  0 0.12501082E+03</rscale>
<asrwt>0</asrwt>
<pdfrwt beam="2">  1        4 0.15393581E-01 0.12501082E+03</pdfrwt>
<pdfrwt beam="1">  1       -4 0.60071547E-02 0.12501082E+03</pdfrwt>
<totfact> 0.10149700E+04</totfact>
</mgrwt>
</event>
<event>
 5    1  0.3281209E-002  0.1249842E+03  0.7818608E-02  0.1235094E+00
          4   -1    0    0  501    0  0.00000000000E+00  0.00000000000E+00  0.10922953930E+03  0.10923692213E+03  0.12700000000E+01 0. -1.
         -4   -1    0    0    0  501 -0.00000000000E+00 -0.00000000000E+00 -0.35732908296E+02  0.35755470005E+02  0.12700000000E+01 0. -1.
         25    2    1    2    0    0  0.00000000000E+00  0.00000000000E+00  0.73496631006E+02  0.14499239213E+03  0.12498415503E+03 0.  0.
    9000005    1    3    3    0    0  0.47333603922E+02  0.39979768189E+02  0.46130524823E+02  0.77252037158E+02  0.10000000000E+01 0.  0.
    9000005    1    3    3    0    0 -0.47333603922E+02 -0.39979768189E+02  0.27366106184E+02  0.67740354976E+02  0.10000000000E+01 0.  0.
<mgrwt>
<rscale>  0 0.12498416E+03</rscale>
<asrwt>0</asrwt>
<pdfrwt beam="1">  1        4 0.16806848E-01 0.12498416E+03</pdfrwt>
<pdfrwt beam="2">  1       -4 0.54996741E-02 0.12498416E+03</pdfrwt>
<totfact> 0.10034723E+04</totfact>
</mgrwt>
</event>
<event>
 5    1  0.3281209E-002  0.1250077E+03  0.7818608E-02  0.1235057E+00
         -4   -1    0    0    0  501 -0.00000000000E+00  0.00000000000E+00  0.77400692410E+02  0.77411110866E+02  0.12700000000E+01 0. -1.
          4   -1    0    0  501    0  0.00000000000E+00 -0.00000000000E+00 -0.50452304699E+02  0.50468286571E+02  0.12700000000E+01 0. -1.
         25    2    1    2    0    0  0.00000000000E+00  0.00000000000E+00  0.26948387710E+02  0.12787939744E+03  0.12500769852E+03 0.  0.
    9000005    1    3    3    0    0  0.86389615564E+00 -0.54261015379E+02  0.45181827714E+02  0.70621538231E+02  0.10000000000E+01 0.  0.
    9000005    1    3    3    0    0 -0.86389615564E+00  0.54261015379E+02 -0.18233440003E+02  0.57257859206E+02  0.10000000000E+01 0.  0.
<mgrwt>
<rscale>  0 0.12500770E+03</rscale>
<asrwt>0</asrwt>
<pdfrwt beam="2">  1        4 0.77639238E-02 0.12500770E+03</pdfrwt>
<pdfrwt beam="1">  1       -4 0.11909830E-01 0.12500770E+03</pdfrwt>
<totfact> 0.10388287E+04</totfact>
</mgrwt>
</event>
<event>
 5    1  0.3281209E-002  0.1249700E+03  0.7818608E-02  0.1235116E+00
         -4   -1    0    0    0  501 -0.00000000000E+00  0.00000000000E+00  0.23415563505E+03  0.23415907910E+03  0.12700000000E+01 0. -1.
          4   -1    0    0  501    0  0.00000000000E+00 -0.00000000000E+00 -0.16646530470E+02  0.16694905711E+02  0.12700000000E+01 0. -1.
         25    2    1    2    0    0  0.00000000000E+00  0.00000000000E+00  0.21750910458E+03  0.25085398481E+03  0.12497004089E+03 0.  0.
    9000005    1    3    3    0    0 -0.35025514015E+02 -0.49049488308E+02  0.14178316847E+03  0.15406526473E+03  0.10000000000E+01 0.  0.
    9000005    1    3    3    0    0  0.35025514015E+02  0.49049488308E+02  0.75725936109E+02  0.96788720081E+02  0.10000000000E+01 0.  0.
<mgrwt>
<rscale>  0 0.12497004E+03</rscale>
<asrwt>0</asrwt>
<pdfrwt beam="2">  1        4 0.25649908E-02 0.12497004E+03</pdfrwt>
<pdfrwt beam="1">  1       -4 0.36027929E-01 0.12497004E+03</pdfrwt>
<totfact> 0.82261840E+03</totfact>
</mgrwt>
</event>
<event>
 5    1  0.3281209E-002  0.1249979E+03  0.7818608E-02  0.1235073E+00
          4   -1    0    0  501    0  0.00000000000E+00  0.00000000000E+00  0.33535378640E+02  0.33559417762E+02  0.12700000000E+01 0. -1.
         -4   -1    0    0    0  501 -0.00000000000E+00 -0.00000000000E+00 -0.11640830568E+03  0.11641523324E+03  0.12700000000E+01 0. -1.
         25    2    1    2    0    0  0.00000000000E+00  0.00000000000E+00 -0.82872927040E+02  0.14997465101E+03  0.12499789562E+03 0.  0.
    9000005    1    3    3    0    0  0.49545061791E+02 -0.33125192490E+02 -0.63983039176E+02  0.87446102415E+02  0.10000000000E+01 0.  0.
    9000005    1    3    3    0    0 -0.49545061791E+02  0.33125192490E+02 -0.18889887864E+02  0.62528548592E+02  0.10000000000E+01 0.  0.
<mgrwt>
<rscale>  0 0.12499790E+03</rscale>
<asrwt>0</asrwt>
<pdfrwt beam="1">  1        4 0.51616711E-02 0.12499790E+03</pdfrwt>
<pdfrwt beam="2">  1       -4 0.17911352E-01 0.12499790E+03</pdfrwt>
<totfact> 0.99313455E+03</totfact>
</mgrwt>
</event>
<event>
 5    1  0.3281209E-002  0.1250090E+03  0.7818608E-02  0.1235055E+00
          4   -1    0    0  501    0  0.00000000000E+00  0.00000000000E+00  0.34930473967E+02  0.34953553633E+02  0.12700000000E+01 0. -1.
         -4   -1    0    0    0  501 -0.00000000000E+00 -0.00000000000E+00 -0.11178183743E+03  0.11178905170E+03  0.12700000000E+01 0. -1.
         25    2    1    2    0    0  0.00000000000E+00  0.00000000000E+00 -0.76851363463E+02  0.14674260533E+03  0.12500904028E+03 0.  0.
    9000005    1    3    3    0    0 -0.41024475531E+00 -0.35264244315E+02 -0.98991186383E+02  0.10509039066E+03  0.10000000000E+01 0.  0.
    9000005    1    3    3    0    0  0.41024475531E+00  0.35264244315E+02  0.22139822920E+02  0.41652214669E+02  0.10000000000E+01 0.  0.
<mgrwt>
<rscale>  0 0.12500904E+03</rscale>
<asrwt>0</asrwt>
<pdfrwt beam="1">  1        4 0.53762494E-02 0.12500904E+03</pdfrwt>
<pdfrwt beam="2">  1       -4 0.17199536E-01 0.12500904E+03</pdfrwt>
<totfact> 0.99936679E+03</totfact>
</mgrwt>
</event>
<event>
 5    1  0.3281209E-002  0.1250041E+03  0.7818608E-02  0.1235063E+00
         -4   -1    0    0    0  501 -0.00000000000E+00  0.00000000000E+00  0.20338168547E+02  0.20377782015E+02  0.12700000000E+01 0. -1.
          4   -1    0    0  501    0  0.00000000000E+00 -0.00000000000E+00 -0.19184909778E+03  0.19185330130E+03  0.12700000000E+01 0. -1.
         25    2    1    2    0    0  0.00000000000E+00  0.00000000000E+00 -0.17151092923E+03  0.21223108331E+03  0.12500413544E+03 0.  0.
    9000005    1    3    3    0    0  0.18078902323E+02 -0.18688624203E+02  0.10726321475E+02  0.28145432244E+02  0.10000000000E+01 0.  0.
    9000005    1    3    3    0    0 -0.18078902323E+02  0.18688624203E+02 -0.18223725071E+03  0.18408565107E+03  0.10000000000E+01 0.  0.
<mgrwt>
<rscale>  0 0.12500414E+03</rscale>
<asrwt>0</asrwt>
<pdfrwt beam="2">  1        4 0.29518615E-01 0.12500414E+03</pdfrwt>
<pdfrwt beam="1">  1       -4 0.31323197E-02 0.12500414E+03</pdfrwt>
<totfact> 0.88104663E+03</totfact>
</mgrwt>
</event>
<event>
 5    1  0.3281209E-002  0.1250002E+03  0.7818608E-02  0.1235069E+00
          4   -1    0    0  501    0  0.00000000000E+00  0.00000000000E+00  0.70982729848E+01  0.72109901793E+01  0.12700000000E+01 0.  1.
         -4   -1    0    0    0  501 -0.00000000000E+00 -0.00000000000E+00 -0.54586316966E+03  0.54586464704E+03  0.12700000000E+01 0.  1.
         25    2    1    2    0    0  0.00000000000E+00  0.00000000000E+00 -0.53876489667E+03  0.55307563722E+03  0.12500018640E+03 0.  0.
    9000005    1    3    3    0    0  0.46518678826E+02 -0.41342239558E+02 -0.24431663960E+03  0.25212058353E+03  0.10000000000E+01 0.  0.
    9000005    1    3    3    0    0 -0.46518678826E+02  0.41342239558E+02 -0.29444825707E+03  0.30095505369E+03  0.10000000000E+01 0.  0.
<mgrwt>
<rscale>  0 0.12500019E+03</rscale>
<asrwt>0</asrwt>
<pdfrwt beam="1">  1        4 0.11008266E-02 0.12500019E+03</pdfrwt>
<pdfrwt beam="2">  1       -4 0.83987701E-01 0.12500019E+03</pdfrwt>
<totfact> 0.51970027E+03</totfact>
</mgrwt>
</event>
<event>
 5    1  0.3281209E-002  0.1249978E+03  0.7818608E-02  0.1235073E+00
          4   -1    0    0  501    0  0.00000000000E+00  0.00000000000E+00  0.10636121723E+03  0.10636879914E+03  0.12700000000E+01 0. -1.
         -4   -1    0    0    0  501 -0.00000000000E+00 -0.00000000000E+00 -0.36705078841E+02  0.36727043343E+02  0.12700000000E+01 0. -1.
         25    2    1    2    0    0  0.00000000000E+00  0.00000000000E+00  0.69656138391E+02  0.14309584249E+03  0.12499777006E+03 0.  0.
    9000005    1    3    3    0    0  0.79420295963E+01 -0.61970906011E+02  0.36294828984E+02  0.72261910000E+02  0.10000000000E+01 0.  0.
    9000005    1    3    3    0    0 -0.79420295963E+01  0.61970906011E+02  0.33361309407E+02  0.70833932485E+02  0.10000000000E+01 0.  0.
<mgrwt>
<rscale>  0 0.12499777E+03</rscale>
<asrwt>0</asrwt>
<pdfrwt beam="1">  1        4 0.16365537E-01 0.12499777E+03</pdfrwt>
<pdfrwt beam="2">  1       -4 0.56492080E-02 0.12499777E+03</pdfrwt>
<totfact> 0.10070327E+04</totfact>
</mgrwt>
</event>
<event>
 5    1  0.3281209E-002  0.1250023E+03  0.7818608E-02  0.1235066E+00
         -4   -1    0    0    0  501 -0.00000000000E+00  0.00000000000E+00  0.29375995266E+02  0.29403435137E+02  0.12700000000E+01 0.  1.
          4   -1    0    0  501    0  0.00000000000E+00 -0.00000000000E+00 -0.13288651730E+03  0.13289258588E+03  0.12700000000E+01 0.  1.
         25    2    1    2    0    0  0.00000000000E+00  0.00000000000E+00 -0.10351052204E+03  0.16229602101E+03  0.12500228104E+03 0.  0.
    9000005    1    3    3    0    0 -0.52984778821E+02  0.19134388524E+02 -0.16630760474E+02  0.58746010970E+02  0.10000000000E+01 0.  0.
    9000005    1    3    3    0    0  0.52984778821E+02 -0.19134388524E+02 -0.86879761562E+02  0.10355001004E+03  0.10000000000E+01 0.  0.
<mgrwt>
<rscale>  0 0.12500228E+03</rscale>
<asrwt>0</asrwt>
<pdfrwt beam="2">  1        4 0.20446657E-01 0.12500228E+03</pdfrwt>
<pdfrwt beam="1">  1       -4 0.45219615E-02 0.12500228E+03</pdfrwt>
<totfact> 0.96896981E+03</totfact>
</mgrwt>
</event>
<event>
 5    1  0.3281209E-002  0.1249966E+03  0.7818608E-02  0.1235075E+00
          4   -1    0    0  501    0  0.00000000000E+00  0.00000000000E+00  0.13851258941E+02  0.13909359232E+02  0.12700000000E+01 0.  1.
         -4   -1    0    0    0  501 -0.00000000000E+00 -0.00000000000E+00 -0.28134905373E+03  0.28135192008E+03  0.12700000000E+01 0.  1.
         25    2    1    2    0    0  0.00000000000E+00  0.00000000000E+00 -0.26749779479E+03  0.29526127931E+03  0.12499661134E+03 0.  0.
    9000005    1    3    3    0    0 -0.29797833000E+02 -0.49535560248E+02 -0.18981489802E+03  0.19842474163E+03  0.10000000000E+01 0.  0.
    9000005    1    3    3    0    0  0.29797833000E+02  0.49535560248E+02 -0.77682896771E+02  0.96836537688E+02  0.10000000000E+01 0.  0.
<mgrwt>
<rscale>  0 0.12499661E+03</rscale>
<asrwt>0</asrwt>
<pdfrwt beam="1">  1        4 0.21356529E-02 0.12499661E+03</pdfrwt>
<pdfrwt beam="2">  1       -4 0.43289155E-01 0.12499661E+03</pdfrwt>
<totfact> 0.76202862E+03</totfact>
</mgrwt>
</event>
<event>
 5    1  0.3281209E-002  0.1250054E+03  0.7818608E-02  0.1235061E+00
          4   -1    0    0  501    0  0.00000000000E+00  0.00000000000E+00  0.71990940117E+03  0.71991052138E+03  0.12700000000E+01 0.  1.
         -4   -1    0    0    0  501 -0.00000000000E+00 -0.00000000000E+00 -0.53510523961E+01  0.54996965140E+01  0.12700000000E+01 0.  1.
         25    2    1    2    0    0  0.00000000000E+00  0.00000000000E+00  0.71455834877E+03  0.72541021789E+03  0.12500540157E+03 0.  0.
    9000005    1    3    3    0    0 -0.21234622655E+02 -0.58207353365E+02  0.30992757220E+03  0.31606186925E+03  0.10000000000E+01 0.  0.
    9000005    1    3    3    0    0  0.21234622655E+02  0.58207353365E+02  0.40463077657E+03  0.40934834864E+03  0.10000000000E+01 0.  0.
<mgrwt>
<rscale>  0 0.12500540E+03</rscale>
<asrwt>0</asrwt>
<pdfrwt beam="1">  1        4 0.11076681E+00 0.12500540E+03</pdfrwt>
<pdfrwt beam="2">  1       -4 0.83475920E-03 0.12500540E+03</pdfrwt>
<totfact> 0.41773833E+03</totfact>
</mgrwt>
</event>
<event>
 5    1  0.3281209E-002  0.1249971E+03  0.7818608E-02  0.1235074E+00
         -4   -1    0    0    0  501 -0.00000000000E+00  0.00000000000E+00  0.10768055038E+04  0.10768062528E+04  0.12700000000E+01 0. -1.
          4   -1    0    0  501    0  0.00000000000E+00 -0.00000000000E+00 -0.35155281534E+01  0.37378922132E+01  0.12700000000E+01 0. -1.
         25    2    1    2    0    0  0.00000000000E+00  0.00000000000E+00  0.10732899757E+04  0.10805441450E+04  0.12499710934E+03 0.  0.
    9000005    1    3    3    0    0  0.60610368944E+02  0.38206382130E+01  0.40934525241E+03  0.41382695631E+03  0.10000000000E+01 0.  0.
    9000005    1    3    3    0    0 -0.60610368944E+02 -0.38206382130E+01  0.66394472327E+03  0.66671718866E+03  0.10000000000E+01 0.  0.
<mgrwt>
<rscale>  0 0.12499711E+03</rscale>
<asrwt>0</asrwt>
<pdfrwt beam="2">  1        4 0.55801268E-03 0.12499711E+03</pdfrwt>
<pdfrwt beam="1">  1       -4 0.16567965E+00 0.12499711E+03</pdfrwt>
<totfact> 0.28061646E+03</totfact>
</mgrwt>
</event>
<event>
 5    1  0.3281209E-002  0.1249992E+03  0.7818608E-02  0.1235071E+00
          4   -1    0    0  501    0  0.00000000000E+00  0.00000000000E+00  0.15425750149E+03  0.15426272935E+03  0.12700000000E+01 0.  1.
         -4   -1    0    0    0  501 -0.00000000000E+00 -0.00000000000E+00 -0.25301004613E+02  0.25332858789E+02  0.12700000000E+01 0.  1.
         25    2    1    2    0    0  0.00000000000E+00  0.00000000000E+00  0.12895649688E+03  0.17959558814E+03  0.12499918876E+03 0.  0.
    9000005    1    3    3    0    0  0.34196859326E+02  0.47288491289E+02  0.32364735305E+02  0.66739064180E+02  0.10000000000E+01 0.  0.
    9000005    1    3    3    0    0 -0.34196859326E+02 -0.47288491289E+02  0.96591761577E+02  0.11285652396E+03  0.10000000000E+01 0.  0.
<mgrwt>
<rscale>  0 0.12499919E+03</rscale>
<asrwt>0</asrwt>
<pdfrwt beam="1">  1        4 0.23734776E-01 0.12499919E+03</pdfrwt>
<pdfrwt beam="2">  1       -4 0.38953147E-02 0.12499919E+03</pdfrwt>
<totfact> 0.93691553E+03</totfact>
</mgrwt>
</event>
<event>
 5    1  0.3281209E-002  0.1250020E+03  0.7818608E-02  0.1235066E+00
         -4   -1    0    0    0  501 -0.00000000000E+00  0.00000000000E+00  0.32900468080E+03  0.32900713197E+03  0.12700000000E+01 0.  1.
          4   -1    0    0  501    0  0.00000000000E+00 -0.00000000000E+00 -0.11836844115E+02  0.11904779654E+02  0.12700000000E+01 0.  1.
         25    2    1    2    0    0  0.00000000000E+00  0.00000000000E+00  0.31716783668E+03  0.34091191162E+03  0.12500197943E+03 0.  0.
    9000005    1    3    3    0    0 -0.56413759332E+02 -0.15436204741E+02  0.98548119412E+02  0.11460157284E+03  0.10000000000E+01 0.  0.
    9000005    1    3    3    0    0  0.56413759332E+02  0.15436204741E+02  0.21861971727E+03  0.22631033878E+03  0.10000000000E+01 0.  0.
<mgrwt>
<rscale>  0 0.12500198E+03</rscale>
<asrwt>0</asrwt>
<pdfrwt beam="2">  1        4 0.18264674E-02 0.12500198E+03</pdfrwt>
<pdfrwt beam="1">  1       -4 0.50621516E-01 0.12500198E+03</pdfrwt>
<totfact> 0.70732966E+03</totfact>
</mgrwt>
</event>
<event>
 5    1  0.3281209E-002  0.1250043E+03  0.7818608E-02  0.1235063E+00
         -4   -1    0    0    0  501 -0.00000000000E+00  0.00000000000E+00  0.63889783345E+01  0.65139806692E+01  0.12700000000E+01 0. -1.
          4   -1    0    0  501    0  0.00000000000E+00 -0.00000000000E+00 -0.60539687875E+03  0.60539821085E+03  0.12700000000E+01 0. -1.
         25    2    1    2    0    0  0.00000000000E+00  0.00000000000E+00 -0.59900790041E+03  0.61191219152E+03  0.12500426141E+03 0.  0.
    9000005    1    3    3    0    0 -0.21649340965E+02  0.55165574388E+02 -0.39661793639E+03  0.40102209668E+03  0.10000000000E+01 0.  0.
    9000005    1    3    3    0    0  0.21649340965E+02 -0.55165574388E+02 -0.20238996403E+03  0.21089009484E+03  0.10000000000E+01 0.  0.
<mgrwt>
<rscale>  0 0.12500426E+03</rscale>
<asrwt>0</asrwt>
<pdfrwt beam="2">  1        4 0.93147655E-01 0.12500426E+03</pdfrwt>
<pdfrwt beam="1">  1       -4 0.99263825E-03 0.12500426E+03</pdfrwt>
<totfact> 0.48119731E+03</totfact>
</mgrwt>
</event>
<event>
 5    1  0.3281209E-002  0.1249968E+03  0.7818608E-02  0.1235074E+00
          4   -1    0    0  501    0  0.00000000000E+00  0.00000000000E+00  0.91435627800E+02  0.91444447241E+02  0.12700000000E+01 0.  1.
         -4   -1    0    0    0  501 -0.00000000000E+00 -0.00000000000E+00 -0.42698773923E+02  0.42717656707E+02  0.12700000000E+01 0.  1.
         25    2    1    2    0    0  0.00000000000E+00  0.00000000000E+00  0.48736853878E+02  0.13416210395E+03  0.12499675680E+03 0.  0.
    9000005    1    3    3    0    0 -0.60388550893E+02 -0.93248390077E+01  0.38416996543E+02  0.72184453485E+02  0.10000000000E+01 0.  0.
    9000005    1    3    3    0    0  0.60388550893E+02  0.93248390077E+01  0.10319857335E+02  0.61977650463E+02  0.10000000000E+01 0.  0.
<mgrwt>
<rscale>  0 0.12499676E+03</rscale>
<asrwt>0</asrwt>
<pdfrwt beam="1">  1        4 0.14069150E-01 0.12499676E+03</pdfrwt>
<pdfrwt beam="2">  1       -4 0.65711732E-02 0.12499676E+03</pdfrwt>
<totfact> 0.10256512E+04</totfact>
</mgrwt>
</event>
<event>
 5    1  0.3281209E-002  0.1249991E+03  0.7818608E-02  0.1235071E+00
         -4   -1    0    0    0  501 -0.00000000000E+00  0.00000000000E+00  0.19016382775E+03  0.19016806852E+03  0.12700000000E+01 0.  1.
          4   -1    0    0  501    0  0.00000000000E+00 -0.00000000000E+00 -0.20517088240E+02  0.20556356920E+02  0.12700000000E+01 0.  1.
         25    2    1    2    0    0  0.00000000000E+00  0.00000000000E+00  0.16964673951E+03  0.21072442544E+03  0.12499906900E+03 0.  0.
    9000005    1    3    3    0    0 -0.45546656234E+02 -0.40516355207E+02  0.10800668510E+03  0.12402627528E+03  0.10000000000E+01 0.  0.
    9000005    1    3    3    0    0  0.45546656234E+02  0.40516355207E+02  0.61640054403E+02  0.86698150154E+02  0.10000000000E+01 0.  0.
<mgrwt>
<rscale>  0 0.12499907E+03</rscale>
<asrwt>0</asrwt>
<pdfrwt beam="2">  1        4 0.31598219E-02 0.12499907E+03</pdfrwt>
<pdfrwt beam="1">  1       -4 0.29259322E-01 0.12499907E+03</pdfrwt>
<totfact> 0.88359547E+03</totfact>
</mgrwt>
</event>
<event>
 5    1  0.3281209E-002  0.1249988E+03  0.7818608E-02  0.1235071E+00
          4   -1    0    0  501    0  0.00000000000E+00  0.00000000000E+00  0.11244738030E+02  0.11316228761E+02  0.12700000000E+01 0.  1.
         -4   -1    0    0    0  501 -0.00000000000E+00 -0.00000000000E+00 -0.34620439478E+03  0.34620672418E+03  0.12700000000E+01 0.  1.
         25    2    1    2    0    0  0.00000000000E+00  0.00000000000E+00 -0.33495965675E+03  0.35752295294E+03  0.12499876090E+03 0.  0.
    9000005    1    3    3    0    0  0.26699322238E+02 -0.39451568629E+02 -0.28316444162E+03  0.28714522645E+03  0.10000000000E+01 0.  0.
    9000005    1    3    3    0    0 -0.26699322238E+02  0.39451568629E+02 -0.51795215132E+02  0.70377726490E+02  0.10000000000E+01 0.  0.
<mgrwt>
<rscale>  0 0.12499876E+03</rscale>
<asrwt>0</asrwt>
<pdfrwt beam="1">  1        4 0.17356384E-02 0.12499876E+03</pdfrwt>
<pdfrwt beam="2">  1       -4 0.53267885E-01 0.12499876E+03</pdfrwt>
<totfact> 0.68906684E+03</totfact>
</mgrwt>
</event>
<event>
 5    1  0.3281209E-002  0.1250084E+03  0.7818608E-02  0.1235056E+00
         -4   -1    0    0    0  501 -0.00000000000E+00  0.00000000000E+00  0.81420554797E+02  0.81430458941E+02  0.12700000000E+01 0.  1.
          4   -1    0    0  501    0  0.00000000000E+00 -0.00000000000E+00 -0.47961465349E+02  0.47978276943E+02  0.12700000000E+01 0.  1.
         25    2    1    2    0    0  0.00000000000E+00  0.00000000000E+00  0.33459089447E+02  0.12940873588E+03  0.12500844074E+03 0.  0.
    9000005    1    3    3    0    0  0.26663679444E+02 -0.49879136653E+02 -0.10793880277E+02  0.57588088406E+02  0.10000000000E+01 0.  0.
    9000005    1    3    3    0    0 -0.26663679444E+02  0.49879136653E+02  0.44252969725E+02  0.71820647479E+02  0.10000000000E+01 0.  0.
<mgrwt>
<rscale>  0 0.12500844E+03</rscale>
<asrwt>0</asrwt>
<pdfrwt beam="2">  1        4 0.73807421E-02 0.12500844E+03</pdfrwt>
<pdfrwt beam="1">  1       -4 0.12528294E-01 0.12500844E+03</pdfrwt>
<totfact> 0.10355199E+04</totfact>
</mgrwt>
</event>
<event>
 5    1  0.3281209E-002  0.1249926E+03  0.7818608E-02  0.1235081E+00
         -4   -1    0    0    0  501 -0.00000000000E+00  0.00000000000E+00  0.19570652755E+01  0.23330247518E+01  0.12700000000E+01 0.  1.
          4   -1    0    0  501    0  0.00000000000E+00 -0.00000000000E+00 -0.18204661204E+04  0.18204665634E+04  0.12700000000E+01 0.  1.
         25    2    1    2    0    0  0.00000000000E+00  0.00000000000E+00 -0.18185090552E+04  0.18227995882E+04  0.12499261964E+03 0.  0.
    9000005    1    3    3    0    0 -0.53578354725E+01  0.40741987365E+02 -0.22272951902E+03  0.22649073839E+03  0.10000000000E+01 0.  0.
    9000005    1    3    3    0    0  0.53578354725E+01 -0.40741987365E+02 -0.15957795361E+04  0.15963088498E+04  0.10000000000E+01 0.  0.
<mgrwt>
<rscale>  0 0.12499262E+03</rscale>
<asrwt>0</asrwt>
<pdfrwt beam="2">  1        4 0.28009943E+00 0.12499262E+03</pdfrwt>
<pdfrwt beam="1">  1       -4 0.33004246E-03 0.12499262E+03</pdfrwt>
<totfact> 0.12357624E+03</totfact>
</mgrwt>
</event>
<event>
 5    1  0.3281209E-002  0.1250006E+03  0.7818608E-02  0.1235068E+00
          4   -1    0    0  501    0  0.00000000000E+00  0.00000000000E+00  0.10455893106E+04  0.10455900819E+04  0.12700000000E+01 0. -1.
         -4   -1    0    0    0  501 -0.00000000000E+00 -0.00000000000E+00 -0.36272410546E+01  0.38431468444E+01  0.12700000000E+01 0. -1.
         25    2    1    2    0    0  0.00000000000E+00  0.00000000000E+00  0.10419620696E+04  0.10494332288E+04  0.12500058878E+03 0.  0.
    9000005    1    3    3    0    0  0.29775229573E+02  0.50878422124E+02  0.69509429543E+03  0.69759032224E+03  0.10000000000E+01 0.  0.
    9000005    1    3    3    0    0 -0.29775229573E+02 -0.50878422124E+02  0.34686777415E+03  0.35184290653E+03  0.10000000000E+01 0.  0.
<mgrwt>
<rscale>  0 0.12500059E+03</rscale>
<asrwt>0</asrwt>
<pdfrwt beam="1">  1        4 0.16087656E+00 0.12500059E+03</pdfrwt>
<pdfrwt beam="2">  1       -4 0.57470455E-03 0.12500059E+03</pdfrwt>
<totfact> 0.29012097E+03</totfact>
</mgrwt>
</event>
<event>
 5    1  0.3281209E-002  0.1250234E+03  0.7818608E-02  0.1235033E+00
         -4   -1    0    0    0  501 -0.00000000000E+00  0.00000000000E+00  0.16494097688E+03  0.16494586613E+03  0.12700000000E+01 0.  1.
          4   -1    0    0  501    0  0.00000000000E+00 -0.00000000000E+00 -0.23669322698E+02  0.23703369739E+02  0.12700000000E+01 0.  1.
         25    2    1    2    0    0  0.00000000000E+00  0.00000000000E+00  0.14127165418E+03  0.18864923587E+03  0.12502341348E+03 0.  0.
    9000005    1    3    3    0    0  0.10103215769E+02  0.42085138098E+02  0.25928017823E+01  0.43369994681E+02  0.10000000000E+01 0.  0.
    9000005    1    3    3    0    0 -0.10103215769E+02 -0.42085138098E+02  0.13867885240E+03  0.14527924119E+03  0.10000000000E+01 0.  0.
<mgrwt>
<rscale>  0 0.12502341E+03</rscale>
<asrwt>0</asrwt>
<pdfrwt beam="2">  1        4 0.36444294E-02 0.12502341E+03</pdfrwt>
<pdfrwt beam="1">  1       -4 0.25378530E-01 0.12502341E+03</pdfrwt>
<totfact> 0.92034592E+03</totfact>
</mgrwt>
</event>
<event>
 4    1  0.3281209E-002  0.1250628E+03  0.7818608E-02  0.1234971E+00
         -4   -1    0    0    0  501 -0.00000000000E+00  0.00000000000E+00  0.45494057940E+02  0.45511780979E+02  0.12700000000E+01 0. -1.
          4   -1    0    0  501    0  0.00000000000E+00 -0.00000000000E+00 -0.85910012130E+02  0.85919398765E+02  0.12700000000E+01 0. -1.
    9000005    1    1    2    0    0 -0.27447949678E+02 -0.12397308932E+02 -0.77789390417E+02  0.83422254056E+02  0.10000000000E+01 0.  0.
    9000005    1    1    2    0    0  0.27447949678E+02  0.12397308932E+02  0.37373436227E+02  0.48008925688E+02  0.10000000000E+01 0.  0.
<mgrwt>
<rscale>  0 0.12506281E+03</rscale>
<asrwt>0</asrwt>
<pdfrwt beam="2">  1        4 0.13219010E-01 0.12506281E+03</pdfrwt>
<pdfrwt beam="1">  1       -4 0.70011712E-02 0.12506281E+03</pdfrwt>
<totfact> 0.10299254E+04</totfact>
</mgrwt>
</event>
<event>
 5    1  0.3281209E-002  0.1249982E+03  0.7818608E-02  0.1235072E+00
         -4   -1    0    0    0  501 -0.00000000000E+00  0.00000000000E+00  0.25332573331E+03  0.25332891674E+03  0.12700000000E+01 0.  1.
          4   -1    0    0  501    0  0.00000000000E+00 -0.00000000000E+00 -0.15389979265E+02  0.15442291339E+02  0.12700000000E+01 0.  1.
         25    2    1    2    0    0  0.00000000000E+00  0.00000000000E+00  0.23793575405E+03  0.26877120808E+03  0.12499815695E+03 0.  0.
    9000005    1    3    3    0    0 -0.18362341723E+02 -0.51671082552E+02  0.18340430157E+03  0.19142939743E+03  0.10000000000E+01 0.  0.
    9000005    1    3    3    0    0  0.18362341723E+02  0.51671082552E+02  0.54531452473E+02  0.77341810649E+02  0.10000000000E+01 0.  0.
<mgrwt>
<rscale>  0 0.12499816E+03</rscale>
<asrwt>0</asrwt>
<pdfrwt beam="2">  1        4 0.23719580E-02 0.12499816E+03</pdfrwt>
<pdfrwt beam="1">  1       -4 0.38977459E-01 0.12499816E+03</pdfrwt>
<totfact> 0.79693955E+03</totfact>
</mgrwt>
</event>
<event>
 5    1  0.3281209E-002  0.1250031E+03  0.7818608E-02  0.1235064E+00
          4   -1    0    0  501    0  0.00000000000E+00  0.00000000000E+00  0.15034416637E+03  0.15034953030E+03  0.12700000000E+01 0.  1.
         -4   -1    0    0    0  501 -0.00000000000E+00 -0.00000000000E+00 -0.25961976162E+02  0.25993020337E+02  0.12700000000E+01 0.  1.
         25    2    1    2    0    0  0.00000000000E+00  0.00000000000E+00  0.12438219020E+03  0.17634255063E+03  0.12500306366E+03 0.  0.
    9000005    1    3    3    0    0  0.40422878609E+01 -0.23572771136E+02  0.14363936444E+03  0.14562033734E+03  0.10000000000E+01 0.  0.
    9000005    1    3    3    0    0 -0.40422878609E+01  0.23572771136E+02 -0.19257174235E+02  0.30722213294E+02  0.10000000000E+01 0.  0.
<mgrwt>
<rscale>  0 0.12500306E+03</rscale>
<asrwt>0</asrwt>
<pdfrwt beam="1">  1        4 0.23132672E-01 0.12500306E+03</pdfrwt>
<pdfrwt beam="2">  1       -4 0.39969508E-02 0.12500306E+03</pdfrwt>
<totfact> 0.94273051E+03</totfact>
</mgrwt>
</event>
<event>
 5    1  0.3281209E-002  0.1249917E+03  0.7818608E-02  0.1235082E+00
         -4   -1    0    0    0  501 -0.00000000000E+00  0.00000000000E+00  0.23208853741E+03  0.23209201213E+03  0.12700000000E+01 0.  1.
          4   -1    0    0  501    0  0.00000000000E+00 -0.00000000000E+00 -0.16801047528E+02  0.16848979140E+02  0.12700000000E+01 0.  1.
         25    2    1    2    0    0  0.00000000000E+00  0.00000000000E+00  0.21528748988E+03  0.24894099127E+03  0.12499165507E+03 0.  0.
    9000005    1    3    3    0    0 -0.44485935768E+02  0.28792609927E+02  0.17360097438E+03  0.18151118746E+03  0.10000000000E+01 0.  0.
    9000005    1    3    3    0    0  0.44485935768E+02 -0.28792609927E+02  0.41686515496E+02  0.67429803809E+02  0.10000000000E+01 0.  0.
<mgrwt>
<rscale>  0 0.12499166E+03</rscale>
<asrwt>0</asrwt>
<pdfrwt beam="2">  1        4 0.25887310E-02 0.12499166E+03</pdfrwt>
<pdfrwt beam="1">  1       -4 0.35709882E-01 0.12499166E+03</pdfrwt>
<totfact> 0.82498865E+03</totfact>
</mgrwt>
</event>
<event>
 5    1  0.3281209E-002  0.1250021E+03  0.7818608E-02  0.1235066E+00
         -4   -1    0    0    0  501 -0.00000000000E+00  0.00000000000E+00  0.56964780756E+03  0.56964922326E+03  0.12700000000E+01 0.  1.
          4   -1    0    0  501    0  0.00000000000E+00 -0.00000000000E+00 -0.67973039884E+01  0.69149288869E+01  0.12700000000E+01 0.  1.
         25    2    1    2    0    0  0.00000000000E+00  0.00000000000E+00  0.56285050358E+03  0.57656415215E+03  0.12500212865E+03 0.  0.
    9000005    1    3    3    0    0 -0.23721671287E+02  0.55970404829E+02  0.34826245995E+03  0.35352955310E+03  0.10000000000E+01 0.  0.
    9000005    1    3    3    0    0  0.23721671287E+02 -0.55970404829E+02  0.21458804363E+03  0.22303459905E+03  0.10000000000E+01 0.  0.
<mgrwt>
<rscale>  0 0.12500213E+03</rscale>
<asrwt>0</asrwt>
<pdfrwt beam="2">  1        4 0.10548962E-02 0.12500213E+03</pdfrwt>
<pdfrwt beam="1">  1       -4 0.87647266E-01 0.12500213E+03</pdfrwt>
<totfact> 0.50378825E+03</totfact>
</mgrwt>
</event>
<event>
 5    1  0.3281209E-002  0.1249985E+03  0.7818608E-02  0.1235072E+00
          4   -1    0    0  501    0  0.00000000000E+00  0.00000000000E+00  0.42647743994E+02  0.42666649362E+02  0.12700000000E+01 0. -1.
         -4   -1    0    0    0  501 -0.00000000000E+00 -0.00000000000E+00 -0.91547510699E+02  0.91556319362E+02  0.12700000000E+01 0. -1.
         25    2    1    2    0    0  0.00000000000E+00  0.00000000000E+00 -0.48899766704E+02  0.13422296872E+03  0.12499847259E+03 0.  0.
    9000005    1    3    3    0    0  0.35916665619E+02  0.40067731709E+02 -0.58571027899E+02  0.79542411974E+02  0.10000000000E+01 0.  0.
    9000005    1    3    3    0    0 -0.35916665619E+02 -0.40067731709E+02  0.96712611944E+01  0.54680556751E+02  0.10000000000E+01 0.  0.
<mgrwt>
<rscale>  0 0.12499847E+03</rscale>
<asrwt>0</asrwt>
<pdfrwt beam="1">  1        4 0.65633232E-02 0.12499847E+03</pdfrwt>
<pdfrwt beam="2">  1       -4 0.14086364E-01 0.12499847E+03</pdfrwt>
<totfact> 0.10254828E+04</totfact>
</mgrwt>
</event>
<event>
 5    1  0.3281209E-002  0.1249976E+03  0.7818608E-02  0.1235073E+00
          4   -1    0    0  501    0  0.00000000000E+00  0.00000000000E+00  0.35512381226E+03  0.35512608315E+03  0.12700000000E+01 0. -1.
         -4   -1    0    0    0  501 -0.00000000000E+00 -0.00000000000E+00 -0.10960290946E+02  0.11033624863E+02  0.12700000000E+01 0. -1.
         25    2    1    2    0    0  0.00000000000E+00  0.00000000000E+00  0.34416352131E+03  0.36615970801E+03  0.12499760945E+03 0.  0.
    9000005    1    3    3    0    0  0.20373323195E+02 -0.56837053911E+02  0.12488605872E+03  0.13871932330E+03  0.10000000000E+01 0.  0.
    9000005    1    3    3    0    0 -0.20373323195E+02  0.56837053911E+02  0.21927746259E+03  0.22744038471E+03  0.10000000000E+01 0.  0.
<mgrwt>
<rscale>  0 0.12499761E+03</rscale>
<asrwt>0</asrwt>
<pdfrwt beam="1">  1        4 0.54640249E-01 0.12499761E+03</pdfrwt>
<pdfrwt beam="2">  1       -4 0.16920143E-02 0.12499761E+03</pdfrwt>
<totfact> 0.67986217E+03</totfact>
</mgrwt>
</event>
<event>
 5    1  0.3281209E-002  0.1250002E+03  0.7818608E-02  0.1235069E+00
          4   -1    0    0  501    0  0.00000000000E+00  0.00000000000E+00  0.10978627978E+02  0.11051840221E+02  0.12700000000E+01 0. -1.
         -4   -1    0    0    0  501 -0.00000000000E+00 -0.00000000000E+00 -0.35454924498E+03  0.35455151955E+03  0.12700000000E+01 0. -1.
         25    2    1    2    0    0  0.00000000000E+00  0.00000000000E+00 -0.34357061700E+03  0.36560335977E+03  0.12500019124E+03 0.  0.
    9000005    1    3    3    0    0 -0.28159809489E+02  0.54527909123E+02 -0.13730287929E+03  0.15039730185E+03  0.10000000000E+01 0.  0.
    9000005    1    3    3    0    0  0.28159809489E+02 -0.54527909123E+02 -0.20626773771E+03  0.21520605792E+03  0.10000000000E+01 0.  0.
<mgrwt>
<rscale>  0 0.12500019E+03</rscale>
<asrwt>0</asrwt>
<pdfrwt beam="1">  1        4 0.16948266E-02 0.12500019E+03</pdfrwt>
<pdfrwt beam="2">  1       -4 0.54551836E-01 0.12500019E+03</pdfrwt>
<totfact> 0.68041146E+03</totfact>
</mgrwt>
</event>
<event>
 5    1  0.3281209E-002  0.1250008E+03  0.7818608E-02  0.1235068E+00
          4   -1    0    0  501    0  0.00000000000E+00  0.00000000000E+00  0.45365036333E+03  0.45365214101E+03  0.12700000000E+01 0.  1.
         -4   -1    0    0    0  501 -0.00000000000E+00 -0.00000000000E+00 -0.85621878734E+01  0.86558628212E+01  0.12700000000E+01 0.  1.
         25    2    1    2    0    0  0.00000000000E+00  0.00000000000E+00  0.44508817545E+03  0.46230800384E+03  0.12500082592E+03 0.  0.
    9000005    1    3    3    0    0  0.15762888062E+02 -0.60341212222E+02  0.23723163767E+03  0.24529447700E+03  0.10000000000E+01 0.  0.
    9000005    1    3    3    0    0 -0.15762888062E+02  0.60341212222E+02  0.20785653778E+03  0.21701352684E+03  0.10000000000E+01 0.  0.
<mgrwt>
<rscale>  0 0.12500083E+03</rscale>
<asrwt>0</asrwt>
<pdfrwt beam="1">  1        4 0.69799723E-01 0.12500083E+03</pdfrwt>
<pdfrwt beam="2">  1       -4 0.13246019E-02 0.12500083E+03</pdfrwt>
<totfact> 0.58911106E+03</totfact>
</mgrwt>
</event>
<event>
 5    1  0.3281209E-002  0.1249923E+03  0.7818608E-02  0.1235081E+00
          4   -1    0    0  501    0  0.00000000000E+00  0.00000000000E+00  0.37657350289E+01  0.39741238415E+01  0.12700000000E+01 0.  1.
         -4   -1    0    0    0  501 -0.00000000000E+00 -0.00000000000E+00 -0.10090520072E+04  0.10090528064E+04  0.12700000000E+01 0.  1.
         25    2    1    2    0    0  0.00000000000E+00  0.00000000000E+00 -0.10052862722E+04  0.10130269302E+04  0.12499228940E+03 0.  0.
    9000005    1    3    3    0    0  0.53448852105E+02  0.32019682584E+02 -0.46400460082E+03  0.46817017147E+03  0.10000000000E+01 0.  0.
    9000005    1    3    3    0    0 -0.53448852105E+02 -0.32019682584E+02 -0.54128167133E+03  0.54485675877E+03  0.10000000000E+01 0.  0.
<mgrwt>
<rscale>  0 0.12499229E+03</rscale>
<asrwt>0</asrwt>
<pdfrwt beam="1">  1        4 0.59543604E-03 0.12499229E+03</pdfrwt>
<pdfrwt beam="2">  1       -4 0.15525465E+00 0.12499229E+03</pdfrwt>
<totfact> 0.30182949E+03</totfact>
</mgrwt>
</event>
<event>
 5    1  0.3281209E-002  0.1249993E+03  0.7818608E-02  0.1235070E+00
          4   -1    0    0  501    0  0.00000000000E+00  0.00000000000E+00  0.57688010679E+02  0.57701988494E+02  0.12700000000E+01 0.  1.
         -4   -1    0    0    0  501 -0.00000000000E+00 -0.00000000000E+00 -0.67684513788E+02  0.67696427577E+02  0.12700000000E+01 0.  1.
         25    2    1    2    0    0  0.00000000000E+00  0.00000000000E+00 -0.99965031088E+01  0.12539841607E+03  0.12499933071E+03 0.  0.
    9000005    1    3    3    0    0  0.17238592287E+02 -0.54010197825E+02 -0.31367866504E+02  0.64801339355E+02  0.10000000000E+01 0.  0.
    9000005    1    3    3    0    0 -0.17238592287E+02  0.54010197825E+02  0.21371363395E+02  0.60597076716E+02  0.10000000000E+01 0.  0.
<mgrwt>
<rscale>  0 0.12499933E+03</rscale>
<asrwt>0</asrwt>
<pdfrwt beam="1">  1        4 0.88770702E-02 0.12499933E+03</pdfrwt>
<pdfrwt beam="2">  1       -4 0.10414994E-01 0.12499933E+03</pdfrwt>
<totfact> 0.10444360E+04</totfact>
</mgrwt>
</event>
<event>
 5    1  0.3281209E-002  0.1249958E+03  0.7818608E-02  0.1235076E+00
          4   -1    0    0  501    0  0.00000000000E+00  0.00000000000E+00  0.80817549446E+01  0.81809328920E+01  0.12700000000E+01 0.  1.
         -4   -1    0    0    0  501 -0.00000000000E+00 -0.00000000000E+00 -0.48026162184E+03  0.48026330102E+03  0.12700000000E+01 0.  1.
         25    2    1    2    0    0  0.00000000000E+00  0.00000000000E+00 -0.47217986689E+03  0.48844423391E+03  0.12499577171E+03 0.  0.
    9000005    1    3    3    0    0 -0.59168113445E+02  0.19356212608E+02 -0.25729867096E+03  0.26472463938E+03  0.10000000000E+01 0.  0.
    9000005    1    3    3    0    0  0.59168113445E+02 -0.19356212608E+02 -0.21488119593E+03  0.22371959454E+03  0.10000000000E+01 0.  0.
<mgrwt>
<rscale>  0 0.12499577E+03</rscale>
<asrwt>0</asrwt>
<pdfrwt beam="1">  1        4 0.12511055E-02 0.12499577E+03</pdfrwt>
<pdfrwt beam="2">  1       -4 0.73894139E-01 0.12499577E+03</pdfrwt>
<totfact> 0.56777523E+03</totfact>
</mgrwt>
</event>
<event>
 5    1  0.3281209E-002  0.1249904E+03  0.7818608E-02  0.1235084E+00
         -4   -1    0    0    0  501 -0.00000000000E+00  0.00000000000E+00  0.75389978284E+02  0.75400674570E+02  0.12700000000E+01 0. -1.
          4   -1    0    0  501    0  0.00000000000E+00 -0.00000000000E+00 -0.51783834322E+02  0.51799405374E+02  0.12700000000E+01 0. -1.
         25    2    1    2    0    0  0.00000000000E+00  0.00000000000E+00  0.23606143962E+02  0.12720007994E+03  0.12499044085E+03 0.  0.
    9000005    1    3    3    0    0 -0.23872675637E+02  0.56013740534E+02  0.26094437792E+02  0.66252271314E+02  0.10000000000E+01 0.  0.
    9000005    1    3    3    0    0  0.23872675637E+02 -0.56013740534E+02 -0.24882938302E+01  0.60947808630E+02  0.10000000000E+01 0.  0.
<mgrwt>
<rscale>  0 0.12499044E+03</rscale>
<asrwt>0</asrwt>
<pdfrwt beam="2">  1        4 0.79687644E-02 0.12499044E+03</pdfrwt>
<pdfrwt beam="1">  1       -4 0.11600479E-01 0.12499044E+03</pdfrwt>
<totfact> 0.10407047E+04</totfact>
</mgrwt>
</event>
<event>
 5    1  0.3281209E-002  0.1249989E+03  0.7818608E-02  0.1235071E+00
         -4   -1    0    0    0  501 -0.00000000000E+00  0.00000000000E+00  0.17693075973E+03  0.17693531767E+03  0.12700000000E+01 0.  1.
          4   -1    0    0  501    0  0.00000000000E+00 -0.00000000000E+00 -0.22054349231E+02  0.22090885451E+02  0.12700000000E+01 0.  1.
         25    2    1    2    0    0  0.00000000000E+00  0.00000000000E+00  0.15487641050E+03  0.19902620312E+03  0.12499890799E+03 0.  0.
    9000005    1    3    3    0    0 -0.57115215293E+02  0.18899253494E+02  0.10435818755E+03  0.12046144989E+03  0.10000000000E+01 0.  0.
    9000005    1    3    3    0    0  0.57115215293E+02 -0.18899253494E+02  0.50518222954E+02  0.78564753235E+02  0.10000000000E+01 0.  0.
<mgrwt>
<rscale>  0 0.12499891E+03</rscale>
<asrwt>0</asrwt>
<pdfrwt beam="2">  1        4 0.33961380E-02 0.12499891E+03</pdfrwt>
<pdfrwt beam="1">  1       -4 0.27223277E-01 0.12499891E+03</pdfrwt>
<totfact> 0.90302212E+03</totfact>
</mgrwt>
</event>
<event>
 5    1  0.3281209E-002  0.1250036E+03  0.7818608E-02  0.1235064E+00
         -4   -1    0    0    0  501 -0.00000000000E+00  0.00000000000E+00  0.30600144640E+02  0.30626487752E+02  0.12700000000E+01 0. -1.
          4   -1    0    0  501    0  0.00000000000E+00 -0.00000000000E+00 -0.12757757889E+03  0.12758389999E+03  0.12700000000E+01 0. -1.
         25    2    1    2    0    0  0.00000000000E+00  0.00000000000E+00 -0.96977434250E+02  0.15821038774E+03  0.12500361608E+03 0.  0.
    9000005    1    3    3    0    0  0.26530767595E+02  0.52595428104E+02 -0.22082001095E+02  0.62918800521E+02  0.10000000000E+01 0.  0.
    9000005    1    3    3    0    0 -0.26530767595E+02 -0.52595428104E+02 -0.74895433156E+02  0.95291587216E+02  0.10000000000E+01 0.  0.
<mgrwt>
<rscale>  0 0.12500362E+03</rscale>
<asrwt>0</asrwt>
<pdfrwt beam="2">  1        4 0.19629832E-01 0.12500362E+03</pdfrwt>
<pdfrwt beam="1">  1       -4 0.47102273E-02 0.12500362E+03</pdfrwt>
<totfact> 0.97680980E+03</totfact>
</mgrwt>
</event>
<event>
 5    1  0.3281209E-002  0.1250002E+03  0.7818608E-02  0.1235069E+00
          4   -1    0    0  501    0  0.00000000000E+00  0.00000000000E+00  0.30478841927E+02  0.30505289791E+02  0.12700000000E+01 0.  1.
         -4   -1    0    0    0  501 -0.00000000000E+00 -0.00000000000E+00 -0.12807798659E+03  0.12808428299E+03  0.12700000000E+01 0.  1.
         25    2    1    2    0    0  0.00000000000E+00  0.00000000000E+00 -0.97599144668E+02  0.15858957278E+03  0.12500023822E+03 0.  0.
    9000005    1    3    3    0    0 -0.38756573521E+02  0.49962716941E+00 -0.11099171900E+03  0.11756905760E+03  0.10000000000E+01 0.  0.
    9000005    1    3    3    0    0  0.38756573521E+02 -0.49962716941E+00  0.13392574336E+02  0.41020515181E+02  0.10000000000E+01 0.  0.
<mgrwt>
<rscale>  0 0.12500024E+03</rscale>
<asrwt>0</asrwt>
<pdfrwt beam="1">  1        4 0.46915715E-02 0.12500024E+03</pdfrwt>
<pdfrwt beam="2">  1       -4 0.19706824E-01 0.12500024E+03</pdfrwt>
<totfact> 0.97614872E+03</totfact>
</mgrwt>
</event>
<event>
 5    1  0.3281209E-002  0.1250008E+03  0.7818608E-02  0.1235068E+00
         -4   -1    0    0    0  501 -0.00000000000E+00  0.00000000000E+00  0.32405770092E+02  0.32430646544E+02  0.12700000000E+01 0. -1.
          4   -1    0    0  501    0  0.00000000000E+00 -0.00000000000E+00 -0.12046895115E+03  0.12047564522E+03  0.12700000000E+01 0. -1.
         25    2    1    2    0    0  0.00000000000E+00  0.00000000000E+00 -0.88063181062E+02  0.15290629177E+03  0.12500084081E+03 0.  0.
    9000005    1    3    3    0    0  0.30506483490E+02 -0.52113296727E+02 -0.63712538025E+02  0.87787976011E+02  0.10000000000E+01 0.  0.
    9000005    1    3    3    0    0 -0.30506483490E+02  0.52113296727E+02 -0.24350643037E+02  0.65118315756E+02  0.10000000000E+01 0.  0.
<mgrwt>
<rscale>  0 0.12500084E+03</rscale>
<asrwt>0</asrwt>
<pdfrwt beam="2">  1        4 0.18536113E-01 0.12500084E+03</pdfrwt>
<pdfrwt beam="1">  1       -4 0.49879316E-02 0.12500084E+03</pdfrwt>
<totfact> 0.98725628E+03</totfact>
</mgrwt>
</event>
<event>
 5    1  0.3281209E-002  0.1249937E+03  0.7818608E-02  0.1235079E+00
         -4   -1    0    0    0  501 -0.00000000000E+00  0.00000000000E+00  0.21304082715E+03  0.21304461254E+03  0.12700000000E+01 0.  1.
          4   -1    0    0  501    0  0.00000000000E+00 -0.00000000000E+00 -0.18307884020E+02  0.18351880483E+02  0.12700000000E+01 0.  1.
         25    2    1    2    0    0  0.00000000000E+00  0.00000000000E+00  0.19473294313E+03  0.23139649303E+03  0.12499367121E+03 0.  0.
    9000005    1    3    3    0    0  0.17789447395E+02 -0.38324786628E+02  0.12135825379E+02  0.43971945219E+02  0.10000000000E+01 0.  0.
    9000005    1    3    3    0    0 -0.17789447395E+02  0.38324786628E+02  0.18259711775E+03  0.18742454781E+03  0.10000000000E+01 0.  0.
<mgrwt>
<rscale>  0 0.12499367E+03</rscale>
<asrwt>0</asrwt>
<pdfrwt beam="2">  1        4 0.28202732E-02 0.12499367E+03</pdfrwt>
<pdfrwt beam="1">  1       -4 0.32779186E-01 0.12499367E+03</pdfrwt>
<totfact> 0.85107640E+03</totfact>
</mgrwt>
</event>
<event>
 5    1  0.3281209E-002  0.1250006E+03  0.7818608E-02  0.1235068E+00
          4   -1    0    0  501    0  0.00000000000E+00  0.00000000000E+00  0.17449374746E+02  0.17495530259E+02  0.12700000000E+01 0. -1.
         -4   -1    0    0    0  501 -0.00000000000E+00 -0.00000000000E+00 -0.22352026409E+03  0.22352387201E+03  0.12700000000E+01 0. -1.
         25    2    1    2    0    0  0.00000000000E+00  0.00000000000E+00 -0.20607088934E+03  0.24101940227E+03  0.12500056334E+03 0.  0.
    9000005    1    3    3    0    0  0.56408092171E+02  0.25741778910E+02 -0.88004164770E+02  0.10765800045E+03  0.10000000000E+01 0.  0.
    9000005    1    3    3    0    0 -0.56408092171E+02 -0.25741778910E+02 -0.11806672457E+03  0.13336140182E+03  0.10000000000E+01 0.  0.
<mgrwt>
<rscale>  0 0.12500056E+03</rscale>
<asrwt>0</asrwt>
<pdfrwt beam="1">  1        4 0.26883473E-02 0.12500056E+03</pdfrwt>
<pdfrwt beam="2">  1       -4 0.34391559E-01 0.12500056E+03</pdfrwt>
<totfact> 0.83644730E+03</totfact>
</mgrwt>
</event>
<event>
 5    1  0.3281209E-002  0.1249859E+03  0.7818608E-02  0.1235091E+00
         -4   -1    0    0    0  501 -0.00000000000E+00  0.00000000000E+00  0.10648945026E+02  0.10724408150E+02  0.12700000000E+01 0.  1.
          4   -1    0    0  501    0  0.00000000000E+00 -0.00000000000E+00 -0.36536615985E+03  0.36536836708E+03  0.12700000000E+01 0.  1.
         25    2    1    2    0    0  0.00000000000E+00  0.00000000000E+00 -0.35471721482E+03  0.37609277523E+03  0.12498589156E+03 0.  0.
    9000005    1    3    3    0    0  0.25555917633E+02  0.54533300366E+02 -0.12724293923E+03  0.14077908708E+03  0.10000000000E+01 0.  0.
    9000005    1    3    3    0    0 -0.25555917633E+02 -0.54533300366E+02 -0.22747427559E+03  0.23531368815E+03  0.10000000000E+01 0.  0.
<mgrwt>
<rscale>  0 0.12498589E+03</rscale>
<asrwt>0</asrwt>
<pdfrwt beam="2">  1        4 0.56216144E-01 0.12498589E+03</pdfrwt>
<pdfrwt beam="1">  1       -4 0.16442742E-02 0.12498589E+03</pdfrwt>
<totfact> 0.66967183E+03</totfact>
</mgrwt>
</event>
<event>
 5    1  0.3281209E-002  0.1250021E+03  0.7818608E-02  0.1235066E+00
         -4   -1    0    0    0  501 -0.00000000000E+00  0.00000000000E+00  0.54596939628E+03  0.54597087338E+03  0.12700000000E+01 0. -1.
          4   -1    0    0  501    0  0.00000000000E+00 -0.00000000000E+00 -0.70970858819E+01  0.72098216354E+01  0.12700000000E+01 0. -1.
         25    2    1    2    0    0  0.00000000000E+00  0.00000000000E+00  0.53887231040E+03  0.55318069501E+03  0.12500205766E+03 0.  0.
    9000005    1    3    3    0    0  0.53021429349E+01 -0.55222824151E+02  0.14211874540E+03  0.15256608673E+03  0.10000000000E+01 0.  0.
    9000005    1    3    3    0    0 -0.53021429349E+01  0.55222824151E+02  0.39675356500E+03  0.40061460828E+03  0.10000000000E+01 0.  0.
<mgrwt>
<rscale>  0 0.12500206E+03</rscale>
<asrwt>0</asrwt>
<pdfrwt beam="2">  1        4 0.11006449E-02 0.12500206E+03</pdfrwt>
<pdfrwt beam="1">  1       -4 0.84004086E-01 0.12500206E+03</pdfrwt>
<totfact> 0.51960599E+03</totfact>
</mgrwt>
</event>
<event>
 5    1  0.3281209E-002  0.1249978E+03  0.7818608E-02  0.1235073E+00
         -4   -1    0    0    0  501 -0.00000000000E+00  0.00000000000E+00  0.16337462172E+02  0.16386749837E+02  0.12700000000E+01 0. -1.
          4   -1    0    0  501    0  0.00000000000E+00 -0.00000000000E+00 -0.23867807566E+03  0.23868145446E+03  0.12700000000E+01 0. -1.
         25    2    1    2    0    0  0.00000000000E+00  0.00000000000E+00 -0.22234061349E+03  0.25506820430E+03  0.12499776172E+03 0.  0.
    9000005    1    3    3    0    0  0.14151502067E+02 -0.27042236857E+02 -0.22244403147E+03  0.22453038708E+03  0.10000000000E+01 0.  0.
    9000005    1    3    3    0    0 -0.14151502067E+02  0.27042236857E+02  0.10341798099E+00  0.30537817215E+02  0.10000000000E+01 0.  0.
<mgrwt>
<rscale>  0 0.12499776E+03</rscale>
<asrwt>0</asrwt>
<pdfrwt beam="2">  1        4 0.36723753E-01 0.12499776E+03</pdfrwt>
<pdfrwt beam="1">  1       -4 0.25175072E-02 0.12499776E+03</pdfrwt>
<totfact> 0.81607257E+03</totfact>
</mgrwt>
</event>
<event>
 5    1  0.3281209E-002  0.1249997E+03  0.7818608E-02  0.1235070E+00
         -4   -1    0    0    0  501 -0.00000000000E+00  0.00000000000E+00  0.32298730113E+02  0.32323688944E+02  0.12700000000E+01 0. -1.
          4   -1    0    0  501    0  0.00000000000E+00 -0.00000000000E+00 -0.12086572698E+03  0.12087239908E+03  0.12700000000E+01 0. -1.
         25    2    1    2    0    0  0.00000000000E+00  0.00000000000E+00 -0.88566996866E+02  0.15319608802E+03  0.12499971380E+03 0.  0.
    9000005    1    3    3    0    0 -0.73736318284E+01 -0.34221278857E+02  0.19159992537E+02  0.39919565215E+02  0.10000000000E+01 0.  0.
    9000005    1    3    3    0    0  0.73736318284E+01  0.34221278857E+02 -0.10772698940E+03  0.11327652280E+03  0.10000000000E+01 0.  0.
<mgrwt>
<rscale>  0 0.12499971E+03</rscale>
<asrwt>0</asrwt>
<pdfrwt beam="2">  1        4 0.18597160E-01 0.12499971E+03</pdfrwt>
<pdfrwt beam="1">  1       -4 0.49714686E-02 0.12499971E+03</pdfrwt>
<totfact> 0.98671014E+03</totfact>
</mgrwt>
</event>
<event>
 4    1  0.3281209E-002  0.1248823E+03  0.7818608E-02  0.1235253E+00
          4   -1    0    0  501    0  0.00000000000E+00  0.00000000000E+00  0.40847372635E+02  0.40867110874E+02  0.12700000000E+01 0. -1.
         -4   -1    0    0    0  501 -0.00000000000E+00 -0.00000000000E+00 -0.95403353471E+02  0.95411806153E+02  0.12700000000E+01 0. -1.
    9000005    1    1    2    0    0  0.15701327751E+02 -0.42117850339E+02  0.20005793023E+02  0.49210535100E+02  0.10000000000E+01 0.  0.
    9000005    1    1    2    0    0 -0.15701327751E+02  0.42117850339E+02 -0.74561773859E+02  0.87068381927E+02  0.10000000000E+01 0.  0.
<mgrwt>
<rscale>  0 0.12488230E+03</rscale>
<asrwt>0</asrwt>
<pdfrwt beam="1">  1        4 0.62863797E-02 0.12488230E+03</pdfrwt>
<pdfrwt beam="2">  1       -4 0.14679608E-01 0.12488230E+03</pdfrwt>
<totfact> 0.10238333E+04</totfact>
</mgrwt>
</event>
<event>
 4    1  0.3281209E-002  0.1248900E+03  0.7818608E-02  0.1235241E+00
         -4   -1    0    0    0  501 -0.00000000000E+00  0.00000000000E+00  0.25228308453E+03  0.25228628112E+03  0.12700000000E+01 0. -1.
          4   -1    0    0  501    0  0.00000000000E+00 -0.00000000000E+00 -0.15426972902E+02  0.15479159956E+02  0.12700000000E+01 0. -1.
    9000005    1    1    2    0    0  0.29583802527E+02 -0.43224833222E+02  0.45569844211E+02  0.69434849179E+02  0.10000000000E+01 0.  0.
    9000005    1    1    2    0    0 -0.29583802527E+02  0.43224833222E+02  0.19128626742E+03  0.19833059190E+03  0.10000000000E+01 0.  0.
<mgrwt>
<rscale>  0 0.12489001E+03</rscale>
<asrwt>0</asrwt>
<pdfrwt beam="2">  1        4 0.23776407E-02 0.12489001E+03</pdfrwt>
<pdfrwt beam="1">  1       -4 0.38817043E-01 0.12489001E+03</pdfrwt>
<totfact> 0.80024153E+03</totfact>
</mgrwt>
</event>
<event>
 5    1  0.3281209E-002  0.1250005E+03  0.7818608E-02  0.1235069E+00
          4   -1    0    0  501    0  0.00000000000E+00  0.00000000000E+00  0.15398112291E+01  0.19959756064E+01  0.12700000000E+01 0. -1.
         -4   -1    0    0    0  501 -0.00000000000E+00 -0.00000000000E+00 -0.22091110647E+04  0.22091114298E+04  0.12700000000E+01 0. -1.
         25    2    1    2    0    0  0.00000000000E+00  0.00000000000E+00 -0.22075712535E+04  0.22111074054E+04  0.12500047560E+03 0.  0.
    9000005    1    3    3    0    0  0.46581980534E+02  0.40641927191E+02 -0.94202013175E+03  0.94404691397E+03  0.10000000000E+01 0.  0.
    9000005    1    3    3    0    0 -0.46581980534E+02 -0.40641927191E+02 -0.12655511217E+04  0.12670604914E+04  0.10000000000E+01 0.  0.
<mgrwt>
<rscale>  0 0.12500048E+03</rscale>
<asrwt>0</asrwt>
<pdfrwt beam="1">  1        4 0.27201345E-03 0.12500048E+03</pdfrwt>
<pdfrwt beam="2">  1       -4 0.33989615E+00 0.12500048E+03</pdfrwt>
<totfact> 0.73514653E+02</totfact>
</mgrwt>
</event>
<event>
 5    1  0.3281209E-002  0.1250001E+03  0.7818608E-02  0.1235069E+00
          4   -1    0    0  501    0  0.00000000000E+00  0.00000000000E+00  0.30839100827E+01  0.33351763669E+01  0.12700000000E+01 0.  1.
         -4   -1    0    0    0  501 -0.00000000000E+00 -0.00000000000E+00 -0.12168238632E+04  0.12168245260E+04  0.12700000000E+01 0.  1.
         25    2    1    2    0    0  0.00000000000E+00  0.00000000000E+00 -0.12137399531E+04  0.12201597023E+04  0.12500010146E+03 0.  0.
    9000005    1    3    3    0    0  0.30888840942E+02 -0.54033999055E+02 -0.66162260165E+03  0.66454440075E+03  0.10000000000E+01 0.  0.
    9000005    1    3    3    0    0 -0.30888840942E+02  0.54033999055E+02 -0.55211735150E+03  0.55561530160E+03  0.10000000000E+01 0.  0.
<mgrwt>
<rscale>  0 0.12500010E+03</rscale>
<asrwt>0</asrwt>
<pdfrwt beam="1">  1        4 0.49382783E-03 0.12500010E+03</pdfrwt>
<pdfrwt beam="2">  1       -4 0.18722268E+00 0.12500010E+03</pdfrwt>
<totfact> 0.24191099E+03</totfact>
</mgrwt>
</event>
<event>
 5    1  0.3281209E-002  0.1249977E+03  0.7818608E-02  0.1235073E+00
         -4   -1    0    0    0  501 -0.00000000000E+00  0.00000000000E+00  0.32770570861E+01  0.35145416693E+01  0.12700000000E+01 0. -1.
          4   -1    0    0  501    0  0.00000000000E+00 -0.00000000000E+00 -0.11500380046E+04  0.11500387059E+04  0.12700000000E+01 0. -1.
         25    2    1    2    0    0  0.00000000000E+00  0.00000000000E+00 -0.11467609476E+04  0.11535532476E+04  0.12499769634E+03 0.  0.
    9000005    1    3    3    0    0 -0.19894652016E+02 -0.38603824024E+02 -0.15870384161E+03  0.16454167178E+03  0.10000000000E+01 0.  0.
    9000005    1    3    3    0    0  0.19894652016E+02  0.38603824024E+02 -0.98805710595E+03  0.98901157578E+03  0.10000000000E+01 0.  0.
<mgrwt>
<rscale>  0 0.12499770E+03</rscale>
<asrwt>0</asrwt>
<pdfrwt beam="2">  1        4 0.17694694E+00 0.12499770E+03</pdfrwt>
<pdfrwt beam="1">  1       -4 0.52248553E-03 0.12499770E+03</pdfrwt>
<totfact> 0.25963208E+03</totfact>
</mgrwt>
</event>
<event>
 5    1  0.3281209E-002  0.1250013E+03  0.7818608E-02  0.1235067E+00
          4   -1    0    0  501    0  0.00000000000E+00  0.00000000000E+00  0.12953002537E+03  0.12953625119E+03  0.12700000000E+01 0. -1.
         -4   -1    0    0    0  501 -0.00000000000E+00 -0.00000000000E+00 -0.30137419414E+02  0.30164166637E+02  0.12700000000E+01 0. -1.
         25    2    1    2    0    0  0.00000000000E+00  0.00000000000E+00  0.99392605957E+02  0.15970041783E+03  0.12500133333E+03 0.  0.
    9000005    1    3    3    0    0  0.32912247652E+02 -0.31954250962E+02 -0.45229417942E+01  0.46105826123E+02  0.10000000000E+01 0.  0.
    9000005    1    3    3    0    0 -0.32912247652E+02  0.31954250962E+02  0.10391554775E+03  0.11359459170E+03  0.10000000000E+01 0.  0.
<mgrwt>
<rscale>  0 0.12500133E+03</rscale>
<asrwt>0</asrwt>
<pdfrwt beam="1">  1        4 0.19930232E-01 0.12500133E+03</pdfrwt>
<pdfrwt beam="2">  1       -4 0.46390625E-02 0.12500133E+03</pdfrwt>
<totfact> 0.97397654E+03</totfact>
</mgrwt>
</event>
<event>
 5    1  0.3281209E-002  0.1249955E+03  0.7818608E-02  0.1235076E+00
         -4   -1    0    0    0  501 -0.00000000000E+00  0.00000000000E+00  0.37181681446E+01  0.39290805987E+01  0.12700000000E+01 0. -1.
          4   -1    0    0  501    0  0.00000000000E+00 -0.00000000000E+00 -0.10213249350E+04  0.10213257246E+04  0.12700000000E+01 0. -1.
         25    2    1    2    0    0  0.00000000000E+00  0.00000000000E+00 -0.10176067668E+04  0.10252548052E+04  0.12499553454E+03 0.  0.
    9000005    1    3    3    0    0 -0.12808680476E+02  0.14474236635E+02 -0.21374697215E+02  0.28834762054E+02  0.10000000000E+01 0.  0.
    9000005    1    3    3    0    0  0.12808680476E+02 -0.14474236635E+02 -0.99623206962E+03  0.99642004314E+03  0.10000000000E+01 0.  0.
<mgrwt>
<rscale>  0 0.12499553E+03</rscale>
<asrwt>0</asrwt>
<pdfrwt beam="2">  1        4 0.15714298E+00 0.12499553E+03</pdfrwt>
<pdfrwt beam="1">  1       -4 0.58831145E-03 0.12499553E+03</pdfrwt>
<totfact> 0.29783101E+03</totfact>
</mgrwt>
</event>
<event>
 5    1  0.3281209E-002  0.1250003E+03  0.7818608E-02  0.1235069E+00
         -4   -1    0    0    0  501 -0.00000000000E+00  0.00000000000E+00  0.40356572838E+02  0.40376551007E+02  0.12700000000E+01 0.  1.
          4   -1    0    0  501    0  0.00000000000E+00 -0.00000000000E+00 -0.96745690795E+02  0.96754026207E+02  0.12700000000E+01 0.  1.
         25    2    1    2    0    0  0.00000000000E+00  0.00000000000E+00 -0.56389117957E+02  0.13713057721E+03  0.12500025033E+03 0.  0.
    9000005    1    3    3    0    0  0.29600953302E+02 -0.38034464997E+02 -0.71834634582E+02  0.86510413764E+02  0.10000000000E+01 0.  0.
    9000005    1    3    3    0    0 -0.29600953302E+02  0.38034464997E+02  0.15445516625E+02  0.50620163451E+02  0.10000000000E+01 0.  0.
<mgrwt>
<rscale>  0 0.12500025E+03</rscale>
<asrwt>0</asrwt>
<pdfrwt beam="2">  1        4 0.14886130E-01 0.12500025E+03</pdfrwt>
<pdfrwt beam="1">  1       -4 0.62108815E-02 0.12500025E+03</pdfrwt>
<totfact> 0.10193299E+04</totfact>
</mgrwt>
</event>
<event>
 5    1  0.3281209E-002  0.1249985E+03  0.7818608E-02  0.1235072E+00
         -4   -1    0    0    0  501 -0.00000000000E+00  0.00000000000E+00  0.62658429449E+02  0.62671298702E+02  0.12700000000E+01 0.  1.
          4   -1    0    0  501    0  0.00000000000E+00 -0.00000000000E+00 -0.62314722055E+02  0.62327662276E+02  0.12700000000E+01 0.  1.
         25    2    1    2    0    0  0.00000000000E+00  0.00000000000E+00  0.34370739352E+00  0.12499896098E+03  0.12499848843E+03 0.  0.
    9000005    1    3    3    0    0 -0.37047480863E+02  0.50311817266E+02 -0.99465527163E+00  0.62496272961E+02  0.10000000000E+01 0.  0.
    9000005    1    3    3    0    0  0.37047480863E+02 -0.50311817266E+02  0.13383626652E+01  0.62502688018E+02  0.10000000000E+01 0.  0.
<mgrwt>
<rscale>  0 0.12499849E+03</rscale>
<asrwt>0</asrwt>
<pdfrwt beam="2">  1        4 0.95888656E-02 0.12499849E+03</pdfrwt>
<pdfrwt beam="1">  1       -4 0.96417438E-02 0.12499849E+03</pdfrwt>
<totfact> 0.10453242E+04</totfact>
</mgrwt>
</event>
<event>
 5    1  0.3281209E-002  0.1250014E+03  0.7818608E-02  0.1235067E+00
          4   -1    0    0  501    0  0.00000000000E+00  0.00000000000E+00  0.82528300392E+02  0.82538071613E+02  0.12700000000E+01 0. -1.
         -4   -1    0    0    0  501 -0.00000000000E+00 -0.00000000000E+00 -0.47312200472E+02  0.47329242689E+02  0.12700000000E+01 0. -1.
         25    2    1    2    0    0  0.00000000000E+00  0.00000000000E+00  0.35216099919E+02  0.12986731430E+03  0.12500138251E+03 0.  0.
    9000005    1    3    3    0    0 -0.40954429899E+02 -0.17603189408E+01  0.66613835230E+02  0.78222548509E+02  0.10000000000E+01 0.  0.
    9000005    1    3    3    0    0  0.40954429899E+02  0.17603189408E+01 -0.31397735311E+02  0.51644765793E+02  0.10000000000E+01 0.  0.
<mgrwt>
<rscale>  0 0.12500138E+03</rscale>
<asrwt>0</asrwt>
<pdfrwt beam="1">  1        4 0.12698724E-01 0.12500138E+03</pdfrwt>
<pdfrwt beam="2">  1       -4 0.72808626E-02 0.12500138E+03</pdfrwt>
<totfact> 0.10347024E+04</totfact>
</mgrwt>
</event>
<event>
 5    1  0.3281209E-002  0.1250060E+03  0.7818608E-02  0.1235060E+00
          4   -1    0    0  501    0  0.00000000000E+00  0.00000000000E+00  0.34747836498E+01  0.36995974664E+01  0.12700000000E+01 0. -1.
         -4   -1    0    0    0  501 -0.00000000000E+00 -0.00000000000E+00 -0.10888236803E+04  0.10888244209E+04  0.12700000000E+01 0. -1.
         25    2    1    2    0    0  0.00000000000E+00  0.00000000000E+00 -0.10853488966E+04  0.10925240184E+04  0.12500601338E+03 0.  0.
    9000005    1    3    3    0    0 -0.61998691246E+02  0.52018707040E+01 -0.59417882855E+03  0.59742813582E+03  0.10000000000E+01 0.  0.
    9000005    1    3    3    0    0  0.61998691246E+02 -0.52018707040E+01 -0.49117006806E+03  0.49509588256E+03  0.10000000000E+01 0.  0.
<mgrwt>
<rscale>  0 0.12500601E+03</rscale>
<asrwt>0</asrwt>
<pdfrwt beam="1">  1        4 0.55193331E-03 0.12500601E+03</pdfrwt>
<pdfrwt beam="2">  1       -4 0.16752842E+00 0.12500601E+03</pdfrwt>
<totfact> 0.27699639E+03</totfact>
</mgrwt>
</event>
<event>
 5    1  0.3281209E-002  0.1250007E+03  0.7818608E-02  0.1235068E+00
         -4   -1    0    0    0  501 -0.00000000000E+00  0.00000000000E+00  0.22869336038E+03  0.22869688669E+03  0.12700000000E+01 0.  1.
          4   -1    0    0  501    0  0.00000000000E+00 -0.00000000000E+00 -0.17053643406E+02  0.17100867037E+02  0.12700000000E+01 0.  1.
         25    2    1    2    0    0  0.00000000000E+00  0.00000000000E+00  0.21163971698E+03  0.24579775373E+03  0.12500066375E+03 0.  0.
    9000005    1    3    3    0    0 -0.38488806698E+02 -0.49163509288E+02  0.11096732124E+03  0.12733100671E+03  0.10000000000E+01 0.  0.
    9000005    1    3    3    0    0  0.38488806698E+02  0.49163509288E+02  0.10067239574E+03  0.11846674702E+03  0.10000000000E+01 0.  0.
<mgrwt>
<rscale>  0 0.12500066E+03</rscale>
<asrwt>0</asrwt>
<pdfrwt beam="2">  1        4 0.26275415E-02 0.12500066E+03</pdfrwt>
<pdfrwt beam="1">  1       -4 0.35187495E-01 0.12500066E+03</pdfrwt>
<totfact> 0.82940176E+03</totfact>
</mgrwt>
</event>
<event>
 5    1  0.3281209E-002  0.1250230E+03  0.7818608E-02  0.1235033E+00
          4   -1    0    0  501    0  0.00000000000E+00  0.00000000000E+00  0.17486930097E+03  0.17487391263E+03  0.12700000000E+01 0. -1.
         -4   -1    0    0    0  501 -0.00000000000E+00 -0.00000000000E+00 -0.22323381244E+02  0.22359477860E+02  0.12700000000E+01 0. -1.
         25    2    1    2    0    0  0.00000000000E+00  0.00000000000E+00  0.15254591972E+03  0.19723339049E+03  0.12502300869E+03 0.  0.
    9000005    1    3    3    0    0  0.33958304020E+02  0.28264250628E+02  0.14601994338E+03  0.15256099809E+03  0.10000000000E+01 0.  0.
    9000005    1    3    3    0    0 -0.33958304020E+02 -0.28264250628E+02  0.65259763430E+01  0.44672392400E+02  0.10000000000E+01 0.  0.
<mgrwt>
<rscale>  0 0.12502301E+03</rscale>
<asrwt>0</asrwt>
<pdfrwt beam="1">  1        4 0.26906101E-01 0.12502301E+03</pdfrwt>
<pdfrwt beam="2">  1       -4 0.34374977E-02 0.12502301E+03</pdfrwt>
<totfact> 0.90557089E+03</totfact>
</mgrwt>
</event>
<event>
 5    1  0.3281209E-002  0.1250056E+03  0.7818608E-02  0.1235061E+00
         -4   -1    0    0    0  501 -0.00000000000E+00  0.00000000000E+00  0.48253365330E+02  0.48270075261E+02  0.12700000000E+01 0.  1.
          4   -1    0    0  501    0  0.00000000000E+00 -0.00000000000E+00 -0.80924431868E+02  0.80934396725E+02  0.12700000000E+01 0.  1.
         25    2    1    2    0    0  0.00000000000E+00  0.00000000000E+00 -0.32671066538E+02  0.12920447199E+03  0.12500558784E+03 0.  0.
    9000005    1    3    3    0    0 -0.10097783729E+02 -0.45831844521E+02  0.26318994511E+02  0.53816472204E+02  0.10000000000E+01 0.  0.
    9000005    1    3    3    0    0  0.10097783729E+02  0.45831844521E+02 -0.58990061049E+02  0.75387999781E+02  0.10000000000E+01 0.  0.
<mgrwt>
<rscale>  0 0.12500559E+03</rscale>
<asrwt>0</asrwt>
<pdfrwt beam="2">  1        4 0.12451964E-01 0.12500559E+03</pdfrwt>
<pdfrwt beam="1">  1       -4 0.74256466E-02 0.12500559E+03</pdfrwt>
<totfact> 0.10360248E+04</totfact>
</mgrwt>
</event>
<event>
 5    1  0.3281209E-002  0.1250006E+03  0.7818608E-02  0.1235068E+00
         -4   -1    0    0    0  501 -0.00000000000E+00  0.00000000000E+00  0.55608572223E+02  0.55623072593E+02  0.12700000000E+01 0.  1.
          4   -1    0    0  501    0  0.00000000000E+00 -0.00000000000E+00 -0.70216747914E+02  0.70228232126E+02  0.12700000000E+01 0.  1.
         25    2    1    2    0    0  0.00000000000E+00  0.00000000000E+00 -0.14608175691E+02  0.12585130472E+03  0.12500060841E+03 0.  0.
    9000005    1    3    3    0    0  0.41338006656E+02 -0.97549731739E+01  0.38847791559E+02  0.57568578277E+02  0.10000000000E+01 0.  0.
    9000005    1    3    3    0    0 -0.41338006656E+02  0.97549731739E+01 -0.53455967249E+02  0.68282726442E+02  0.10000000000E+01 0.  0.
<mgrwt>
<rscale>  0 0.12500061E+03</rscale>
<asrwt>0</asrwt>
<pdfrwt beam="2">  1        4 0.10804575E-01 0.12500061E+03</pdfrwt>
<pdfrwt beam="1">  1       -4 0.85571637E-02 0.12500061E+03</pdfrwt>
<totfact> 0.10434075E+04</totfact>
</mgrwt>
</event>
<event>
 5    1  0.3281209E-002  0.1250055E+03  0.7818608E-02  0.1235061E+00
         -4   -1    0    0    0  501 -0.00000000000E+00  0.00000000000E+00  0.49622922312E+01  0.51222303919E+01  0.12700000000E+01 0.  1.
          4   -1    0    0  501    0  0.00000000000E+00 -0.00000000000E+00 -0.77460995027E+03  0.77461099137E+03  0.12700000000E+01 0.  1.
         25    2    1    2    0    0  0.00000000000E+00  0.00000000000E+00 -0.76964765804E+03  0.77973322176E+03  0.12500551828E+03 0.  0.
    9000005    1    3    3    0    0  0.32418977758E+02 -0.29974148701E+01 -0.71756407047E+03  0.71830297914E+03  0.10000000000E+01 0.  0.
    9000005    1    3    3    0    0 -0.32418977758E+02  0.29974148701E+01 -0.52083587568E+02  0.61430242623E+02  0.10000000000E+01 0.  0.
<mgrwt>
<rscale>  0 0.12500552E+03</rscale>
<asrwt>0</asrwt>
<pdfrwt beam="2">  1        4 0.11918305E+00 0.12500552E+03</pdfrwt>
<pdfrwt beam="1">  1       -4 0.77581321E-03 0.12500552E+03</pdfrwt>
<totfact> 0.39180955E+03</totfact>
</mgrwt>
</event>
<event>
 5    1  0.3281209E-002  0.1249990E+03  0.7818608E-02  0.1235071E+00
          4   -1    0    0  501    0  0.00000000000E+00  0.00000000000E+00  0.52433959471E+03  0.52434113274E+03  0.12700000000E+01 0. -1.
         -4   -1    0    0    0  501 -0.00000000000E+00 -0.00000000000E+00 -0.73940402787E+01  0.75023150856E+01  0.12700000000E+01 0. -1.
         25    2    1    2    0    0  0.00000000000E+00  0.00000000000E+00  0.51694555443E+03  0.53184344782E+03  0.12499898698E+03 0.  0.
    9000005    1    3    3    0    0 -0.13548860850E+02  0.60761430879E+02  0.28164613972E+03  0.28844595878E+03  0.10000000000E+01 0.  0.
    9000005    1    3    3    0    0  0.13548860850E+02 -0.60761430879E+02  0.23529941471E+03  0.24339748905E+03  0.10000000000E+01 0.  0.
<mgrwt>
<rscale>  0 0.12499899E+03</rscale>
<asrwt>0</asrwt>
<pdfrwt beam="1">  1        4 0.80676105E-01 0.12499899E+03</pdfrwt>
<pdfrwt beam="2">  1       -4 0.11459914E-02 0.12499899E+03</pdfrwt>
<totfact> 0.53476845E+03</totfact>
</mgrwt>
</event>
<event>
 5    1  0.3281209E-002  0.1249996E+03  0.7818608E-02  0.1235070E+00
         -4   -1    0    0    0  501 -0.00000000000E+00  0.00000000000E+00  0.10957399099E+03  0.10958135061E+03  0.12700000000E+01 0.  1.
          4   -1    0    0  501    0  0.00000000000E+00 -0.00000000000E+00 -0.35629328516E+02  0.35651955773E+02  0.12700000000E+01 0.  1.
         25    2    1    2    0    0  0.00000000000E+00  0.00000000000E+00  0.73944662472E+02  0.14523330638E+03  0.12499960070E+03 0.  0.
    9000005    1    3    3    0    0  0.13755153960E+02  0.45030612489E+02  0.84711831852E+02  0.96922932153E+02  0.10000000000E+01 0.  0.
    9000005    1    3    3    0    0 -0.13755153960E+02 -0.45030612489E+02 -0.10767169379E+02  0.48310374228E+02  0.10000000000E+01 0.  0.
<mgrwt>
<rscale>  0 0.12499960E+03</rscale>
<asrwt>0</asrwt>
<pdfrwt beam="2">  1        4 0.54837418E-02 0.12499960E+03</pdfrwt>
<pdfrwt beam="1">  1       -4 0.16859844E-01 0.12499960E+03</pdfrwt>
<totfact> 0.10026340E+04</totfact>
</mgrwt>
</event>
<event>
 5    1  0.3281209E-002  0.1250005E+03  0.7818608E-02  0.1235069E+00
         -4   -1    0    0    0  501 -0.00000000000E+00  0.00000000000E+00  0.23178779991E+03  0.23179127914E+03  0.12700000000E+01 0. -1.
          4   -1    0    0  501    0  0.00000000000E+00 -0.00000000000E+00 -0.16825288864E+02  0.16873151613E+02  0.12700000000E+01 0. -1.
         25    2    1    2    0    0  0.00000000000E+00  0.00000000000E+00  0.21496251104E+03  0.24866443075E+03  0.12500047187E+03 0.  0.
    9000005    1    3    3    0    0 -0.19527202399E+02  0.47604838887E+02  0.17803152715E+03  0.18532068686E+03  0.10000000000E+01 0.  0.
    9000005    1    3    3    0    0  0.19527202399E+02 -0.47604838887E+02  0.36930983889E+02  0.63343743890E+02  0.10000000000E+01 0.  0.
<mgrwt>
<rscale>  0 0.12500047E+03</rscale>
<asrwt>0</asrwt>
<pdfrwt beam="2">  1        4 0.25924554E-02 0.12500047E+03</pdfrwt>
<pdfrwt beam="1">  1       -4 0.35663610E-01 0.12500047E+03</pdfrwt>
<totfact> 0.82522775E+03</totfact>
</mgrwt>
</event>
<event>
 5    1  0.3281209E-002  0.1249874E+03  0.7818608E-02  0.1235089E+00
         -4   -1    0    0    0  501 -0.00000000000E+00  0.00000000000E+00  0.76938528773E+02  0.76949009803E+02  0.12700000000E+01 0.  1.
          4   -1    0    0  501    0  0.00000000000E+00 -0.00000000000E+00 -0.50738907089E+02  0.50754798715E+02  0.12700000000E+01 0.  1.
         25    2    1    2    0    0  0.00000000000E+00  0.00000000000E+00  0.26199621683E+02  0.12770380852E+03  0.12498736950E+03 0.  0.
    9000005    1    3    3    0    0 -0.35080105424E+02 -0.49435137115E+02 -0.23960215072E+01  0.60672790418E+02  0.10000000000E+01 0.  0.
    9000005    1    3    3    0    0  0.35080105424E+02  0.49435137115E+02  0.28595643190E+02  0.67031018100E+02  0.10000000000E+01 0.  0.
<mgrwt>
<rscale>  0 0.12498737E+03</rscale>
<asrwt>0</asrwt>
<pdfrwt beam="2">  1        4 0.78080143E-02 0.12498737E+03</pdfrwt>
<pdfrwt beam="1">  1       -4 0.11838725E-01 0.12498737E+03</pdfrwt>
<totfact> 0.10396853E+04</totfact>
</mgrwt>
</event>
<event>
 5    1  0.3281209E-002  0.1250019E+03  0.7818608E-02  0.1235066E+00
         -4   -1    0    0    0  501 -0.00000000000E+00  0.00000000000E+00  0.46243994056E+03  0.46244168445E+03  0.12700000000E+01 0.  1.
          4   -1    0    0  501    0  0.00000000000E+00 -0.00000000000E+00 -0.83977892955E+01  0.84932776389E+01  0.12700000000E+01 0.  1.
         25    2    1    2    0    0  0.00000000000E+00  0.00000000000E+00  0.45404215126E+03  0.47093496209E+03  0.12500185359E+03 0.  0.
    9000005    1    3    3    0    0  0.17249543969E+02  0.60078180459E+01  0.45217706279E+03  0.45254694426E+03  0.10000000000E+01 0.  0.
    9000005    1    3    3    0    0 -0.17249543969E+02 -0.60078180459E+01  0.18650884681E+01  0.18388017832E+02  0.10000000000E+01 0.  0.
<mgrwt>
<rscale>  0 0.12500185E+03</rscale>
<asrwt>0</asrwt>
<pdfrwt beam="2">  1        4 0.12994468E-02 0.12500185E+03</pdfrwt>
<pdfrwt beam="1">  1       -4 0.71152098E-01 0.12500185E+03</pdfrwt>
<totfact> 0.58189767E+03</totfact>
</mgrwt>
</event>
<event>
 5    1  0.3281209E-002  0.1249954E+03  0.7818608E-02  0.1235077E+00
          4   -1    0    0  501    0  0.00000000000E+00  0.00000000000E+00  0.29753934951E+03  0.29754205990E+03  0.12700000000E+01 0. -1.
         -4   -1    0    0    0  501 -0.00000000000E+00 -0.00000000000E+00 -0.13094051302E+02  0.13155496171E+02  0.12700000000E+01 0. -1.
         25    2    1    2    0    0  0.00000000000E+00  0.00000000000E+00  0.28444529821E+03  0.31069755607E+03  0.12499537461E+03 0.  0.
    9000005    1    3    3    0    0  0.27682557827E+02 -0.24464665585E+02  0.26749948022E+03  0.27004039658E+03  0.10000000000E+01 0.  0.
    9000005    1    3    3    0    0 -0.27682557827E+02  0.24464665585E+02  0.16945817994E+02  0.40657159487E+02  0.10000000000E+01 0.  0.
<mgrwt>
<rscale>  0 0.12499537E+03</rscale>
<asrwt>0</asrwt>
<pdfrwt beam="1">  1        4 0.45780223E-01 0.12499537E+03</pdfrwt>
<pdfrwt beam="2">  1       -4 0.20194043E-02 0.12499537E+03</pdfrwt>
<totfact> 0.74283873E+03</totfact>
</mgrwt>
</event>
<event>
 5    1  0.3281209E-002  0.1249921E+03  0.7818608E-02  0.1235082E+00
         -4   -1    0    0    0  501 -0.00000000000E+00  0.00000000000E+00  0.45922746434E+03  0.45922922044E+03  0.12700000000E+01 0. -1.
          4   -1    0    0  501    0  0.00000000000E+00 -0.00000000000E+00 -0.84558721076E+01  0.85507118476E+01  0.12700000000E+01 0. -1.
         25    2    1    2    0    0  0.00000000000E+00  0.00000000000E+00  0.45077159223E+03  0.46777993228E+03  0.12499214649E+03 0.  0.
    9000005    1    3    3    0    0  0.21826789763E+01  0.61073537629E+02  0.27418429031E+03  0.28091416151E+03  0.10000000000E+01 0.  0.
    9000005    1    3    3    0    0 -0.21826789763E+01 -0.61073537629E+02  0.17658730192E+03  0.18686577077E+03  0.10000000000E+01 0.  0.
<mgrwt>
<rscale>  0 0.12499215E+03</rscale>
<asrwt>0</asrwt>
<pdfrwt beam="2">  1        4 0.13083334E-02 0.12499215E+03</pdfrwt>
<pdfrwt beam="1">  1       -4 0.70657832E-01 0.12499215E+03</pdfrwt>
<totfact> 0.58463974E+03</totfact>
</mgrwt>
</event>
<event>
 5    1  0.3281209E-002  0.1250087E+03  0.7818608E-02  0.1235056E+00
          4   -1    0    0  501    0  0.00000000000E+00  0.00000000000E+00  0.65216709735E+02  0.65229074259E+02  0.12700000000E+01 0.  1.
         -4   -1    0    0    0  501 -0.00000000000E+00 -0.00000000000E+00 -0.59880066639E+02  0.59893532879E+02  0.12700000000E+01 0.  1.
         25    2    1    2    0    0  0.00000000000E+00  0.00000000000E+00  0.53366430966E+01  0.12512260714E+03  0.12500874792E+03 0.  0.
    9000005    1    3    3    0    0 -0.25050253986E+02 -0.56133867652E+02 -0.86233738956E+01  0.62079697967E+02  0.10000000000E+01 0.  0.
    9000005    1    3    3    0    0  0.25050253986E+02  0.56133867652E+02  0.13960016992E+02  0.63042909171E+02  0.10000000000E+01 0.  0.
<mgrwt>
<rscale>  0 0.12500875E+03</rscale>
<asrwt>0</asrwt>
<pdfrwt beam="1">  1        4 0.10035327E-01 0.12500875E+03</pdfrwt>
<pdfrwt beam="2">  1       -4 0.92143049E-02 0.12500875E+03</pdfrwt>
<totfact> 0.10448134E+04</totfact>
</mgrwt>
</event>
<event>
 5    1  0.3281209E-002  0.1250018E+03  0.7818608E-02  0.1235066E+00
          4   -1    0    0  501    0  0.00000000000E+00  0.00000000000E+00  0.29353471230E+02  0.29380932137E+02  0.12700000000E+01 0. -1.
         -4   -1    0    0    0  501 -0.00000000000E+00 -0.00000000000E+00 -0.13298746849E+03  0.13299353246E+03  0.12700000000E+01 0. -1.
         25    2    1    2    0    0  0.00000000000E+00  0.00000000000E+00 -0.10363399726E+03  0.16237446460E+03  0.12500184544E+03 0.  0.
    9000005    1    3    3    0    0  0.12205649282E+02 -0.50118882521E+02 -0.59926653659E+01  0.51940276258E+02  0.10000000000E+01 0.  0.
    9000005    1    3    3    0    0 -0.12205649282E+02  0.50118882521E+02 -0.97641331898E+02  0.11043418834E+03  0.10000000000E+01 0.  0.
<mgrwt>
<rscale>  0 0.12500185E+03</rscale>
<asrwt>0</asrwt>
<pdfrwt beam="1">  1        4 0.45184975E-02 0.12500185E+03</pdfrwt>
<pdfrwt beam="2">  1       -4 0.20462189E-01 0.12500185E+03</pdfrwt>
<totfact> 0.96882933E+03</totfact>
</mgrwt>
</event>
<event>
 5    1  0.3281209E-002  0.1250014E+03  0.7818608E-02  0.1235067E+00
         -4   -1    0    0    0  501 -0.00000000000E+00  0.00000000000E+00  0.49472747566E+01  0.51076831849E+01  0.12700000000E+01 0. -1.
          4   -1    0    0  501    0  0.00000000000E+00 -0.00000000000E+00 -0.77683674538E+03  0.77683778350E+03  0.12700000000E+01 0. -1.
         25    2    1    2    0    0  0.00000000000E+00  0.00000000000E+00 -0.77188947063E+03  0.78194546669E+03  0.12500143203E+03 0.  0.
    9000005    1    3    3    0    0 -0.38293991648E+02  0.49058716532E+02 -0.42141510643E+03  0.42598694744E+03  0.10000000000E+01 0.  0.
    9000005    1    3    3    0    0  0.38293991648E+02 -0.49058716532E+02 -0.35047436420E+03  0.35595851925E+03  0.10000000000E+01 0.  0.
<mgrwt>
<rscale>  0 0.12500143E+03</rscale>
<asrwt>0</asrwt>
<pdfrwt beam="2">  1        4 0.11952567E+00 0.12500143E+03</pdfrwt>
<pdfrwt beam="1">  1       -4 0.77353877E-03 0.12500143E+03</pdfrwt>
<totfact> 0.39082350E+03</totfact>
</mgrwt>
</event>
<event>
 5    1  0.3281209E-002  0.1250013E+03  0.7818608E-02  0.1235067E+00
         -4   -1    0    0    0  501 -0.00000000000E+00  0.00000000000E+00  0.25155482403E+02  0.25187520619E+02  0.12700000000E+01 0.  1.
          4   -1    0    0  501    0  0.00000000000E+00 -0.00000000000E+00 -0.15515399182E+03  0.15515918947E+03  0.12700000000E+01 0.  1.
         25    2    1    2    0    0  0.00000000000E+00  0.00000000000E+00 -0.12999850941E+03  0.18034671009E+03  0.12500129355E+03 0.  0.
    9000005    1    3    3    0    0 -0.35113455167E+02 -0.15898862735E+02  0.59692589059E+01  0.39017439972E+02  0.10000000000E+01 0.  0.
    9000005    1    3    3    0    0  0.35113455167E+02  0.15898862735E+02 -0.13596776832E+03  0.14132927012E+03  0.10000000000E+01 0.  0.
<mgrwt>
<rscale>  0 0.12500129E+03</rscale>
<asrwt>0</asrwt>
<pdfrwt beam="2">  1        4 0.23872709E-01 0.12500129E+03</pdfrwt>
<pdfrwt beam="1">  1       -4 0.38729386E-02 0.12500129E+03</pdfrwt>
<totfact> 0.93551918E+03</totfact>
</mgrwt>
</event>
<event>
 5    1  0.3281209E-002  0.1249953E+03  0.7818608E-02  0.1235077E+00
         -4   -1    0    0    0  501 -0.00000000000E+00  0.00000000000E+00  0.10191553972E+04  0.10191561885E+04  0.12700000000E+01 0. -1.
          4   -1    0    0  501    0  0.00000000000E+00 -0.00000000000E+00 -0.37265199199E+01  0.39369849776E+01  0.12700000000E+01 0. -1.
         25    2    1    2    0    0  0.00000000000E+00  0.00000000000E+00  0.10154288773E+04  0.10230931735E+04  0.12499534706E+03 0.  0.
    9000005    1    3    3    0    0  0.48364649426E+02 -0.19551097395E+02  0.22612320198E+03  0.23206483404E+03  0.10000000000E+01 0.  0.
    9000005    1    3    3    0    0 -0.48364649426E+02  0.19551097395E+02  0.78930567532E+03  0.79102833945E+03  0.10000000000E+01 0.  0.
<mgrwt>
<rscale>  0 0.12499535E+03</rscale>
<asrwt>0</asrwt>
<pdfrwt beam="2">  1        4 0.58956093E-03 0.12499535E+03</pdfrwt>
<pdfrwt beam="1">  1       -4 0.15680947E+00 0.12499535E+03</pdfrwt>
<totfact> 0.29853001E+03</totfact>
</mgrwt>
</event>
<event>
 5    1  0.3281209E-002  0.1249999E+03  0.7818608E-02  0.1235069E+00
         -4   -1    0    0    0  501 -0.00000000000E+00  0.00000000000E+00  0.23345639785E+03  0.23345985221E+03  0.12700000000E+01 0.  1.
          4   -1    0    0  501    0  0.00000000000E+00 -0.00000000000E+00 -0.16704546594E+02  0.16752754308E+02  0.12700000000E+01 0.  1.
         25    2    1    2    0    0  0.00000000000E+00  0.00000000000E+00  0.21675185125E+03  0.25021260652E+03  0.12499993376E+03 0.  0.
    9000005    1    3    3    0    0  0.20253761328E+02  0.56932937716E+02  0.76494675590E+02  0.97488510290E+02  0.10000000000E+01 0.  0.
    9000005    1    3    3    0    0 -0.20253761328E+02 -0.56932937716E+02  0.14025717566E+03  0.15272409623E+03  0.10000000000E+01 0.  0.
<mgrwt>
<rscale>  0 0.12499993E+03</rscale>
<asrwt>0</asrwt>
<pdfrwt beam="2">  1        4 0.25739045E-02 0.12499993E+03</pdfrwt>
<pdfrwt beam="1">  1       -4 0.35920339E-01 0.12499993E+03</pdfrwt>
<totfact> 0.82299633E+03</totfact>
</mgrwt>
</event>
<event>
 5    1  0.3281209E-002  0.1250029E+03  0.7818608E-02  0.1235065E+00
          4   -1    0    0  501    0  0.00000000000E+00  0.00000000000E+00  0.23015571125E+02  0.23050583815E+02  0.12700000000E+01 0. -1.
         -4   -1    0    0    0  501 -0.00000000000E+00 -0.00000000000E+00 -0.16956354282E+03  0.16956829879E+03  0.12700000000E+01 0. -1.
         25    2    1    2    0    0  0.00000000000E+00  0.00000000000E+00 -0.14654797169E+03  0.19261888260E+03  0.12500290367E+03 0.  0.
    9000005    1    3    3    0    0  0.38904581051E+02 -0.47269131653E+02 -0.92611965812E+02  0.11102213043E+03  0.10000000000E+01 0.  0.
    9000005    1    3    3    0    0 -0.38904581051E+02  0.47269131653E+02 -0.53936005882E+02  0.81596752169E+02  0.10000000000E+01 0.  0.
<mgrwt>
<rscale>  0 0.12500290E+03</rscale>
<asrwt>0</asrwt>
<pdfrwt beam="1">  1        4 0.35439163E-02 0.12500290E+03</pdfrwt>
<pdfrwt beam="2">  1       -4 0.26089757E-01 0.12500290E+03</pdfrwt>
<totfact> 0.91387682E+03</totfact>
</mgrwt>
</event>
<event>
 5    1  0.3281209E-002  0.1250005E+03  0.7818608E-02  0.1235069E+00
         -4   -1    0    0    0  501 -0.00000000000E+00  0.00000000000E+00  0.77706289353E+03  0.77706393135E+03  0.12700000000E+01 0. -1.
          4   -1    0    0  501    0  0.00000000000E+00 -0.00000000000E+00 -0.49457102071E+01  0.51061677854E+01  0.12700000000E+01 0. -1.
         25    2    1    2    0    0  0.00000000000E+00  0.00000000000E+00  0.77211718332E+03  0.78217009913E+03  0.12500047678E+03 0.  0.
    9000005    1    3    3    0    0  0.15724490865E+02  0.38721323509E+02  0.67678441079E+03  0.67807428737E+03  0.10000000000E+01 0.  0.
    9000005    1    3    3    0    0 -0.15724490865E+02 -0.38721323509E+02  0.95332772531E+02  0.10409581176E+03  0.10000000000E+01 0.  0.
<mgrwt>
<rscale>  0 0.12500048E+03</rscale>
<asrwt>0</asrwt>
<pdfrwt beam="2">  1        4 0.77330120E-03 0.12500048E+03</pdfrwt>
<pdfrwt beam="1">  1       -4 0.11956056E+00 0.12500048E+03</pdfrwt>
<totfact> 0.39072790E+03</totfact>
</mgrwt>
</event>
<event>
 5    1  0.3281209E-002  0.1250001E+03  0.7818608E-02  0.1235069E+00
         -4   -1    0    0    0  501 -0.00000000000E+00  0.00000000000E+00  0.25216805923E+03  0.25217125727E+03  0.12700000000E+01 0. -1.
          4   -1    0    0  501    0  0.00000000000E+00 -0.00000000000E+00 -0.15461355115E+02  0.15513426507E+02  0.12700000000E+01 0. -1.
         25    2    1    2    0    0  0.00000000000E+00  0.00000000000E+00  0.23670670411E+03  0.26768468378E+03  0.12500010463E+03 0.  0.
    9000005    1    3    3    0    0  0.40307717252E+02 -0.15899333879E+02  0.21478530372E+03  0.21911464483E+03  0.10000000000E+01 0.  0.
    9000005    1    3    3    0    0 -0.40307717252E+02  0.15899333879E+02  0.21921400395E+02  0.48570038945E+02  0.10000000000E+01 0.  0.
<mgrwt>
<rscale>  0 0.12500010E+03</rscale>
<asrwt>0</asrwt>
<pdfrwt beam="2">  1        4 0.23829216E-02 0.12500010E+03</pdfrwt>
<pdfrwt beam="1">  1       -4 0.38799336E-01 0.12500010E+03</pdfrwt>
<totfact> 0.79839390E+03</totfact>
</mgrwt>
</event>
<event>
 5    1  0.3281209E-002  0.1250031E+03  0.7818608E-02  0.1235064E+00
         -4   -1    0    0    0  501 -0.00000000000E+00  0.00000000000E+00  0.12552192958E+03  0.12552835418E+03  0.12700000000E+01 0. -1.
          4   -1    0    0  501    0  0.00000000000E+00 -0.00000000000E+00 -0.31101420968E+02  0.31127339851E+02  0.12700000000E+01 0. -1.
         25    2    1    2    0    0  0.00000000000E+00  0.00000000000E+00  0.94420508608E+02  0.15665569404E+03  0.12500309607E+03 0.  0.
    9000005    1    3    3    0    0  0.33729424730E+02 -0.52227482857E+02  0.55142166540E+02  0.83108619222E+02  0.10000000000E+01 0.  0.
    9000005    1    3    3    0    0 -0.33729424730E+02  0.52227482857E+02  0.39278342068E+02  0.73547074815E+02  0.10000000000E+01 0.  0.
<mgrwt>
<rscale>  0 0.12500310E+03</rscale>
<asrwt>0</asrwt>
<pdfrwt beam="2">  1        4 0.47873220E-02 0.12500310E+03</pdfrwt>
<pdfrwt beam="1">  1       -4 0.19313554E-01 0.12500310E+03</pdfrwt>
<totfact> 0.97984621E+03</totfact>
</mgrwt>
</event>
<event>
 5    1  0.3281209E-002  0.1250013E+03  0.7818608E-02  0.1235067E+00
          4   -1    0    0  501    0  0.00000000000E+00  0.00000000000E+00  0.18825470067E+03  0.18825898445E+03  0.12700000000E+01 0. -1.
         -4   -1    0    0    0  501 -0.00000000000E+00 -0.00000000000E+00 -0.20726290592E+02  0.20765163657E+02  0.12700000000E+01 0. -1.
         25    2    1    2    0    0  0.00000000000E+00  0.00000000000E+00  0.16752841008E+03  0.20902414810E+03  0.12500130522E+03 0.  0.
    9000005    1    3    3    0    0 -0.19635966271E+02  0.48446486979E+02  0.26501077660E+02  0.58616895083E+02  0.10000000000E+01 0.  0.
    9000005    1    3    3    0    0  0.19635966271E+02 -0.48446486979E+02  0.14102733242E+03  0.15040725302E+03  0.10000000000E+01 0.  0.
<mgrwt>
<rscale>  0 0.12500131E+03</rscale>
<asrwt>0</asrwt>
<pdfrwt beam="1">  1        4 0.28965581E-01 0.12500131E+03</pdfrwt>
<pdfrwt beam="2">  1       -4 0.31919799E-02 0.12500131E+03</pdfrwt>
<totfact> 0.88632912E+03</totfact>
</mgrwt>
</event>
<event>
 5    1  0.3281209E-002  0.1249978E+03  0.7818608E-02  0.1235073E+00
          4   -1    0    0  501    0  0.00000000000E+00  0.00000000000E+00  0.14400541926E+03  0.14401101928E+03  0.12700000000E+01 0. -1.
         -4   -1    0    0    0  501 -0.00000000000E+00 -0.00000000000E+00 -0.27103769337E+02  0.27133507187E+02  0.12700000000E+01 0. -1.
         25    2    1    2    0    0  0.00000000000E+00  0.00000000000E+00  0.11690164992E+03  0.17114452647E+03  0.12499781273E+03 0.  0.
    9000005    1    3    3    0    0 -0.12017200746E+02  0.39471122247E+02 -0.58092609853E+01  0.41678892960E+02  0.10000000000E+01 0.  0.
    9000005    1    3    3    0    0  0.12017200746E+02 -0.39471122247E+02  0.12271091090E+03  0.12946563351E+03  0.10000000000E+01 0.  0.
<mgrwt>
<rscale>  0 0.12499781E+03</rscale>
<asrwt>0</asrwt>
<pdfrwt beam="1">  1        4 0.22157399E-01 0.12499781E+03</pdfrwt>
<pdfrwt beam="2">  1       -4 0.41725289E-02 0.12499781E+03</pdfrwt>
<totfact> 0.95240416E+03</totfact>
</mgrwt>
</event>
<event>
 5    1  0.3281209E-002  0.1249896E+03  0.7818608E-02  0.1235086E+00
          4   -1    0    0  501    0  0.00000000000E+00  0.00000000000E+00  0.33199716920E+03  0.33199959827E+03  0.12700000000E+01 0. -1.
         -4   -1    0    0    0  501 -0.00000000000E+00 -0.00000000000E+00 -0.11727201778E+02  0.11795768798E+02  0.12700000000E+01 0. -1.
         25    2    1    2    0    0  0.00000000000E+00  0.00000000000E+00  0.32026996742E+03  0.34379536707E+03  0.12498960913E+03 0.  0.
    9000005    1    3    3    0    0  0.34612219405E+02  0.26622036190E+02  0.37190553319E+02  0.57366155521E+02  0.10000000000E+01 0.  0.
    9000005    1    3    3    0    0 -0.34612219405E+02 -0.26622036190E+02  0.28307941410E+03  0.28642921155E+03  0.10000000000E+01 0.  0.
<mgrwt>
<rscale>  0 0.12498961E+03</rscale>
<asrwt>0</asrwt>
<pdfrwt beam="1">  1        4 0.51081948E-01 0.12498961E+03</pdfrwt>
<pdfrwt beam="2">  1       -4 0.18096461E-02 0.12498961E+03</pdfrwt>
<totfact> 0.70428776E+03</totfact>
</mgrwt>
</event>
<event>
 5    1  0.3281209E-002  0.1249992E+03  0.7818608E-02  0.1235071E+00
         -4   -1    0    0    0  501 -0.00000000000E+00  0.00000000000E+00  0.26429935243E+03  0.26430240369E+03  0.12700000000E+01 0.  1.
          4   -1    0    0  501    0  0.00000000000E+00 -0.00000000000E+00 -0.14749024960E+02  0.14803602172E+02  0.12700000000E+01 0.  1.
         25    2    1    2    0    0  0.00000000000E+00  0.00000000000E+00  0.24955032747E+03  0.27910600586E+03  0.12499918626E+03 0.  0.
    9000005    1    3    3    0    0 -0.24527007393E+02 -0.42977590493E+02  0.39558415510E+02  0.63360205286E+02  0.10000000000E+01 0.  0.
    9000005    1    3    3    0    0  0.24527007393E+02  0.42977590493E+02  0.20999191196E+03  0.21574580057E+03  0.10000000000E+01 0.  0.
<mgrwt>
<rscale>  0 0.12499919E+03</rscale>
<asrwt>0</asrwt>
<pdfrwt beam="2">  1        4 0.22735137E-02 0.12499919E+03</pdfrwt>
<pdfrwt beam="1">  1       -4 0.40665873E-01 0.12499919E+03</pdfrwt>
<totfact> 0.78298206E+03</totfact>
</mgrwt>
</event>
<event>
 5    1  0.3281209E-002  0.1250030E+03  0.7818608E-02  0.1235065E+00
         -4   -1    0    0    0  501 -0.00000000000E+00  0.00000000000E+00  0.59111978741E+02  0.59125619918E+02  0.12700000000E+01 0.  1.
          4   -1    0    0  501    0  0.00000000000E+00 -0.00000000000E+00 -0.66058022297E+02  0.66070229376E+02  0.12700000000E+01 0.  1.
         25    2    1    2    0    0  0.00000000000E+00  0.00000000000E+00 -0.69460435560E+01  0.12519584929E+03  0.12500301260E+03 0.  0.
    9000005    1    3    3    0    0  0.11194962380E+01 -0.61162510694E+02  0.93268463277E+01  0.61887769782E+02  0.10000000000E+01 0.  0.
    9000005    1    3    3    0    0 -0.11194962380E+01  0.61162510694E+02 -0.16272889884E+02  0.63308079511E+02  0.10000000000E+01 0.  0.
<mgrwt>
<rscale>  0 0.12500301E+03</rscale>
<asrwt>0</asrwt>
<pdfrwt beam="2">  1        4 0.10164761E-01 0.12500301E+03</pdfrwt>
<pdfrwt beam="1">  1       -4 0.90961389E-02 0.12500301E+03</pdfrwt>
<totfact> 0.10447899E+04</totfact>
</mgrwt>
</event>
<event>
 5    1  0.3281209E-002  0.1249987E+03  0.7818608E-02  0.1235071E+00
         -4   -1    0    0    0  501 -0.00000000000E+00  0.00000000000E+00  0.97912382021E+02  0.97920618120E+02  0.12700000000E+01 0. -1.
          4   -1    0    0  501    0  0.00000000000E+00 -0.00000000000E+00 -0.39874503039E+02  0.39894722616E+02  0.12700000000E+01 0. -1.
         25    2    1    2    0    0  0.00000000000E+00  0.00000000000E+00  0.58037878982E+02  0.13781534074E+03  0.12499869097E+03 0.  0.
    9000005    1    3    3    0    0  0.27038065363E+02 -0.78015960588E+01 -0.32498583326E+02  0.43000927872E+02  0.10000000000E+01 0.  0.
    9000005    1    3    3    0    0 -0.27038065363E+02  0.78015960588E+01  0.90536462308E+02  0.94814412865E+02  0.10000000000E+01 0.  0.
<mgrwt>
<rscale>  0 0.12499869E+03</rscale>
<asrwt>0</asrwt>
<pdfrwt beam="2">  1        4 0.61367279E-02 0.12499869E+03</pdfrwt>
<pdfrwt beam="1">  1       -4 0.15065632E-01 0.12499869E+03</pdfrwt>
<totfact> 0.10179366E+04</totfact>
</mgrwt>
</event>
<event>
 5    1  0.3281209E-002  0.1250002E+03  0.7818608E-02  0.1235069E+00
          4   -1    0    0  501    0  0.00000000000E+00  0.00000000000E+00  0.20008091843E+03  0.20008494901E+03  0.12700000000E+01 0.  1.
         -4   -1    0    0    0  501 -0.00000000000E+00 -0.00000000000E+00 -0.19498512921E+02  0.19539828713E+02  0.12700000000E+01 0.  1.
         25    2    1    2    0    0  0.00000000000E+00  0.00000000000E+00  0.18058240551E+03  0.21962477772E+03  0.12500015124E+03 0.  0.
    9000005    1    3    3    0    0  0.27180722365E+02  0.52572103569E+02  0.12554697059E+03  0.13880079094E+03  0.10000000000E+01 0.  0.
    9000005    1    3    3    0    0 -0.27180722365E+02 -0.52572103569E+02  0.55035434915E+02  0.80823986775E+02  0.10000000000E+01 0.  0.
<mgrwt>
<rscale>  0 0.12500015E+03</rscale>
<asrwt>0</asrwt>
<pdfrwt beam="1">  1        4 0.30785167E-01 0.12500015E+03</pdfrwt>
<pdfrwt beam="2">  1       -4 0.30032594E-02 0.12500015E+03</pdfrwt>
<totfact> 0.86927464E+03</totfact>
</mgrwt>
</event>
<event>
 5    1  0.3281209E-002  0.1249691E+03  0.7818608E-02  0.1235118E+00
          4   -1    0    0  501    0  0.00000000000E+00  0.00000000000E+00  0.43069319933E+02  0.43088040331E+02  0.12700000000E+01 0. -1.
         -4   -1    0    0    0  501 -0.00000000000E+00 -0.00000000000E+00 -0.90609143675E+02  0.90618043554E+02  0.12700000000E+01 0. -1.
         25    2    1    2    0    0  0.00000000000E+00  0.00000000000E+00 -0.47539823742E+02  0.13370608388E+03  0.12496912429E+03 0.  0.
    9000005    1    3    3    0    0 -0.30377912362E+02 -0.11340151722E+02 -0.80906708284E+02  0.87168297253E+02  0.10000000000E+01 0.  0.
    9000005    1    3    3    0    0  0.30377912362E+02  0.11340151722E+02  0.33366884542E+02  0.46537786632E+02  0.10000000000E+01 0.  0.
<mgrwt>
<rscale>  0 0.12496912E+03</rscale>
<asrwt>0</asrwt>
<pdfrwt beam="1">  1        4 0.66281739E-02 0.12496912E+03</pdfrwt>
<pdfrwt beam="2">  1       -4 0.13941993E-01 0.12496912E+03</pdfrwt>
<totfact> 0.10272568E+04</totfact>
</mgrwt>
</event>
<event>
 5    1  0.3281209E-002  0.1249990E+03  0.7818608E-02  0.1235071E+00
          4   -1    0    0  501    0  0.00000000000E+00  0.00000000000E+00  0.35933832652E+03  0.35934057078E+03  0.12700000000E+01 0.  1.
         -4   -1    0    0    0  501 -0.00000000000E+00 -0.00000000000E+00 -0.10831124547E+02  0.10905327090E+02  0.12700000000E+01 0.  1.
         25    2    1    2    0    0  0.00000000000E+00  0.00000000000E+00  0.34850720198E+03  0.37024589787E+03  0.12499902024E+03 0.  0.
    9000005    1    3    3    0    0  0.43546320088E+02 -0.43743812282E+02  0.14532514937E+03  0.15789300854E+03  0.10000000000E+01 0.  0.
    9000005    1    3    3    0    0 -0.43546320088E+02  0.43743812282E+02  0.20318205260E+03  0.21235288933E+03  0.10000000000E+01 0.  0.
<mgrwt>
<rscale>  0 0.12499902E+03</rscale>
<asrwt>0</asrwt>
<pdfrwt beam="1">  1        4 0.55288697E-01 0.12499902E+03</pdfrwt>
<pdfrwt beam="2">  1       -4 0.16722075E-02 0.12499902E+03</pdfrwt>
<totfact> 0.67554683E+03</totfact>
</mgrwt>
</event>
<event>
 5    1  0.3281209E-002  0.1249889E+03  0.7818608E-02  0.1235087E+00
          4   -1    0    0  501    0  0.00000000000E+00  0.00000000000E+00  0.11615743183E+03  0.11616437436E+03  0.12700000000E+01 0. -1.
         -4   -1    0    0    0  501 -0.00000000000E+00 -0.00000000000E+00 -0.33603034234E+02  0.33627024991E+02  0.12700000000E+01 0. -1.
         25    2    1    2    0    0  0.00000000000E+00  0.00000000000E+00  0.82554397600E+02  0.14979139935E+03  0.12498893854E+03 0.  0.
    9000005    1    3    3    0    0  0.20585230282E+02 -0.27080122306E+02  0.10409490739E+03  0.10951636624E+03  0.10000000000E+01 0.  0.
    9000005    1    3    3    0    0 -0.20585230282E+02  0.27080122306E+02 -0.21540509791E+02  0.40275033109E+02  0.10000000000E+01 0.  0.
<mgrwt>
<rscale>  0 0.12498894E+03</rscale>
<asrwt>0</asrwt>
<pdfrwt beam="1">  1        4 0.17872753E-01 0.12498894E+03</pdfrwt>
<pdfrwt beam="2">  1       -4 0.51720772E-02 0.12498894E+03</pdfrwt>
<totfact> 0.99370032E+03</totfact>
</mgrwt>
</event>
<event>
 5    1  0.3281209E-002  0.1249986E+03  0.7818608E-02  0.1235071E+00
         -4   -1    0    0    0  501 -0.00000000000E+00  0.00000000000E+00  0.40571053144E+03  0.40571251918E+03  0.12700000000E+01 0.  1.
          4   -1    0    0  501    0  0.00000000000E+00 -0.00000000000E+00 -0.95840523060E+01  0.96678311220E+01  0.12700000000E+01 0.  1.
         25    2    1    2    0    0  0.00000000000E+00  0.00000000000E+00  0.39612647913E+03  0.41538035030E+03  0.12499859178E+03 0.  0.
    9000005    1    3    3    0    0  0.27069612581E+02 -0.36006596210E+02  0.34199225101E+03  0.34494773321E+03  0.10000000000E+01 0.  0.
    9000005    1    3    3    0    0 -0.27069612581E+02  0.36006596210E+02  0.54134228118E+02  0.70432617088E+02  0.10000000000E+01 0.  0.
<mgrwt>
<rscale>  0 0.12499859E+03</rscale>
<asrwt>0</asrwt>
<pdfrwt beam="2">  1        4 0.14810670E-02 0.12499859E+03</pdfrwt>
<pdfrwt beam="1">  1       -4 0.62423601E-01 0.12499859E+03</pdfrwt>
<totfact> 0.63085866E+03</totfact>
</mgrwt>
</event>
<event>
 5    1  0.3281209E-002  0.1250018E+03  0.7818608E-02  0.1235066E+00
         -4   -1    0    0    0  501 -0.00000000000E+00  0.00000000000E+00  0.46350968622E+01  0.48059362170E+01  0.12700000000E+01 0. -1.
          4   -1    0    0  501    0  0.00000000000E+00 -0.00000000000E+00 -0.82735719152E+03  0.82735816625E+03  0.12700000000E+01 0. -1.
         25    2    1    2    0    0  0.00000000000E+00  0.00000000000E+00 -0.82272209466E+03  0.83216410247E+03  0.12500179357E+03 0.  0.
    9000005    1    3    3    0    0  0.89467351121E+01 -0.48032071178E+02 -0.67075669544E+03  0.67253451094E+03  0.10000000000E+01 0.  0.
    9000005    1    3    3    0    0 -0.89467351121E+01  0.48032071178E+02 -0.15196539922E+03  0.15962959153E+03  0.10000000000E+01 0.  0.
<mgrwt>
<rscale>  0 0.12500179E+03</rscale>
<asrwt>0</asrwt>
<pdfrwt beam="2">  1        4 0.12729882E+00 0.12500179E+03</pdfrwt>
<pdfrwt beam="1">  1       -4 0.72630895E-03 0.12500179E+03</pdfrwt>
<totfact> 0.36867090E+03</totfact>
</mgrwt>
</event>
<event>
 5    1  0.3281209E-002  0.1249933E+03  0.7818608E-02  0.1235080E+00
          4   -1    0    0  501    0  0.00000000000E+00  0.00000000000E+00  0.79092207640E+02  0.79102403310E+02  0.12700000000E+01 0. -1.
         -4   -1    0    0    0  501 -0.00000000000E+00 -0.00000000000E+00 -0.49361694833E+02  0.49378029698E+02  0.12700000000E+01 0. -1.
         25    2    1    2    0    0  0.00000000000E+00  0.00000000000E+00  0.29730512807E+02  0.12848043301E+03  0.12499327292E+03 0.  0.
    9000005    1    3    3    0    0 -0.46945174755E+02 -0.37024962784E+02 -0.38111939769E+01  0.59918465446E+02  0.10000000000E+01 0.  0.
    9000005    1    3    3    0    0  0.46945174755E+02  0.37024962784E+02  0.33541706784E+02  0.68561967561E+02  0.10000000000E+01 0.  0.
<mgrwt>
<rscale>  0 0.12499327E+03</rscale>
<asrwt>0</asrwt>
<pdfrwt beam="1">  1        4 0.12170073E-01 0.12499327E+03</pdfrwt>
<pdfrwt beam="2">  1       -4 0.75961479E-02 0.12499327E+03</pdfrwt>
<totfact> 0.10378701E+04</totfact>
</mgrwt>
</event>
<event>
 5    1  0.3281209E-002  0.1250077E+03  0.7818608E-02  0.1235057E+00
         -4   -1    0    0    0  501 -0.00000000000E+00  0.00000000000E+00  0.42060551737E+02  0.42079720917E+02  0.12700000000E+01 0.  1.
          4   -1    0    0  501    0  0.00000000000E+00 -0.00000000000E+00 -0.92838782149E+02  0.92847468306E+02  0.12700000000E+01 0.  1.
         25    2    1    2    0    0  0.00000000000E+00  0.00000000000E+00 -0.50778230411E+02  0.13492718922E+03  0.12500767060E+03 0.  0.
    9000005    1    3    3    0    0 -0.18600504137E+02  0.14817126633E+01  0.38989055851E+02  0.43235641579E+02  0.10000000000E+01 0.  0.
    9000005    1    3    3    0    0  0.18600504137E+02 -0.14817126633E+01 -0.89767286262E+02  0.91691547645E+02  0.10000000000E+01 0.  0.
<mgrwt>
<rscale>  0 0.12500767E+03</rscale>
<asrwt>0</asrwt>
<pdfrwt beam="2">  1        4 0.14285032E-01 0.12500767E+03</pdfrwt>
<pdfrwt beam="1">  1       -4 0.64729968E-02 0.12500767E+03</pdfrwt>
<totfact> 0.10237835E+04</totfact>
</mgrwt>
</event>
<event>
 5    1  0.3281209E-002  0.1249841E+03  0.7818608E-02  0.1235094E+00
          4   -1    0    0  501    0  0.00000000000E+00  0.00000000000E+00  0.13761512765E+02  0.13819990361E+02  0.12700000000E+01 0. -1.
         -4   -1    0    0    0  501 -0.00000000000E+00 -0.00000000000E+00 -0.28311953612E+03  0.28312238455E+03  0.12700000000E+01 0. -1.
         25    2    1    2    0    0  0.00000000000E+00  0.00000000000E+00 -0.26935802336E+03  0.29694237491E+03  0.12498411608E+03 0.  0.
    9000005    1    3    3    0    0 -0.13497158923E+02 -0.93166200110E+01 -0.27792635080E+03  0.27841161825E+03  0.10000000000E+01 0.  0.
    9000005    1    3    3    0    0  0.13497158923E+02  0.93166200110E+01  0.85683274411E+01  0.18530756665E+02  0.10000000000E+01 0.  0.
<mgrwt>
<rscale>  0 0.12498412E+03</rscale>
<asrwt>0</asrwt>
<pdfrwt beam="1">  1        4 0.21218734E-02 0.12498412E+03</pdfrwt>
<pdfrwt beam="2">  1       -4 0.43561565E-01 0.12498412E+03</pdfrwt>
<totfact> 0.76010795E+03</totfact>
</mgrwt>
</event>
<event>
 5    1  0.3281209E-002  0.1250094E+03  0.7818608E-02  0.1235055E+00
         -4   -1    0    0    0  501 -0.00000000000E+00  0.00000000000E+00  0.69352580767E+03  0.69352697049E+03  0.12700000000E+01 0.  1.
          4   -1    0    0  501    0  0.00000000000E+00 -0.00000000000E+00 -0.55605341351E+01  0.57037215805E+01  0.12700000000E+01 0.  1.
         25    2    1    2    0    0  0.00000000000E+00  0.00000000000E+00  0.68796527353E+03  0.69923069207E+03  0.12500937225E+03 0.  0.
    9000005    1    3    3    0    0  0.56733031758E+02 -0.18830289590E+02  0.24197058241E+03  0.24924682435E+03  0.10000000000E+01 0.  0.
    9000005    1    3    3    0    0 -0.56733031758E+02  0.18830289590E+02  0.44599469112E+03  0.44998386772E+03  0.10000000000E+01 0.  0.
<mgrwt>
<rscale>  0 0.12500937E+03</rscale>
<asrwt>0</asrwt>
<pdfrwt beam="2">  1        4 0.86657066E-03 0.12500937E+03</pdfrwt>
<pdfrwt beam="1">  1       -4 0.10670738E+00 0.12500937E+03</pdfrwt>
<totfact> 0.43118488E+03</totfact>
</mgrwt>
</event>
<event>
 5    1  0.3281209E-002  0.1249997E+03  0.7818608E-02  0.1235070E+00
          4   -1    0    0  501    0  0.00000000000E+00  0.00000000000E+00  0.15097998375E+02  0.15151318587E+02  0.12700000000E+01 0. -1.
         -4   -1    0    0    0  501 -0.00000000000E+00 -0.00000000000E+00 -0.25821423675E+03  0.25821735991E+03  0.12700000000E+01 0. -1.
         25    2    1    2    0    0  0.00000000000E+00  0.00000000000E+00 -0.24311623837E+03  0.27336867850E+03  0.12499971609E+03 0.  0.
    9000005    1    3    3    0    0  0.21486168667E+02  0.24743896146E+02 -0.23792621563E+03  0.24017451973E+03  0.10000000000E+01 0.  0.
    9000005    1    3    3    0    0 -0.21486168667E+02 -0.24743896146E+02 -0.51900227398E+01  0.33194158771E+02  0.10000000000E+01 0.  0.
<mgrwt>
<rscale>  0 0.12499972E+03</rscale>
<asrwt>0</asrwt>
<pdfrwt beam="1">  1        4 0.23271110E-02 0.12499972E+03</pdfrwt>
<pdfrwt beam="2">  1       -4 0.39729606E-01 0.12499972E+03</pdfrwt>
<totfact> 0.79066167E+03</totfact>
</mgrwt>
</event>
<event>
 5    1  0.3281209E-002  0.1250069E+03  0.7818608E-02  0.1235059E+00
          4   -1    0    0  501    0  0.00000000000E+00  0.00000000000E+00  0.28665152804E+03  0.28665434137E+03  0.12700000000E+01 0. -1.
         -4   -1    0    0    0  501 -0.00000000000E+00 -0.00000000000E+00 -0.13596202448E+02  0.13655387985E+02  0.12700000000E+01 0. -1.
         25    2    1    2    0    0  0.00000000000E+00  0.00000000000E+00  0.27305532559E+03  0.30030972936E+03  0.12500689066E+03 0.  0.
    9000005    1    3    3    0    0 -0.15081545791E+02  0.11132856009E+02 -0.66949877360E+01  0.19930287683E+02  0.10000000000E+01 0.  0.
    9000005    1    3    3    0    0  0.15081545791E+02 -0.11132856009E+02  0.27975031333E+03  0.28037944168E+03  0.10000000000E+01 0.  0.
<mgrwt>
<rscale>  0 0.12500689E+03</rscale>
<asrwt>0</asrwt>
<pdfrwt beam="1">  1        4 0.44105001E-01 0.12500689E+03</pdfrwt>
<pdfrwt beam="2">  1       -4 0.20964927E-02 0.12500689E+03</pdfrwt>
<totfact> 0.75548447E+03</totfact>
</mgrwt>
</event>
<event>
 4    1  0.3281209E-002  0.1248056E+03  0.7818608E-02  0.1235373E+00
          4   -1    0    0  501    0  0.00000000000E+00  0.00000000000E+00  0.31353292282E+01  0.33827783506E+01  0.12700000000E+01 0.  1.
         -4   -1    0    0    0  501 -0.00000000000E+00 -0.00000000000E+00 -0.11946115601E+04  0.11946122351E+04  0.12700000000E+01 0.  1.
    9000005    1    1    2    0    0 -0.12199681261E+02 -0.87037486944E+01 -0.11771267076E+04  0.11772225249E+04  0.10000000000E+01 0.  0.
    9000005    1    1    2    0    0  0.12199681261E+02  0.87037486944E+01 -0.14349523279E+02  0.20772488598E+02  0.10000000000E+01 0.  0.
<mgrwt>
<rscale>  0 0.12480562E+03</rscale>
<asrwt>0</asrwt>
<pdfrwt beam="1">  1        4 0.50144577E-03 0.12480562E+03</pdfrwt>
<pdfrwt beam="2">  1       -4 0.18380513E+00 0.12480562E+03</pdfrwt>
<totfact> 0.24870654E+03</totfact>
</mgrwt>
</event>
<event>
 5    1  0.3281209E-002  0.1249977E+03  0.7818608E-02  0.1235073E+00
          4   -1    0    0  501    0  0.00000000000E+00  0.00000000000E+00  0.62174412719E+03  0.62174542426E+03  0.12700000000E+01 0. -1.
         -4   -1    0    0    0  501 -0.00000000000E+00 -0.00000000000E+00 -0.62169937725E+01  0.63453850606E+01  0.12700000000E+01 0. -1.
         25    2    1    2    0    0  0.00000000000E+00  0.00000000000E+00  0.61552713341E+03  0.62809080932E+03  0.12499765112E+03 0.  0.
    9000005    1    3    3    0    0 -0.56035348460E+02  0.26575473579E+02  0.26920412320E+03  0.27625726419E+03  0.10000000000E+01 0.  0.
    9000005    1    3    3    0    0  0.56035348460E+02 -0.26575473579E+02  0.34632301022E+03  0.35183354513E+03  0.10000000000E+01 0.  0.
<mgrwt>
<rscale>  0 0.12499765E+03</rscale>
<asrwt>0</asrwt>
<pdfrwt beam="1">  1        4 0.95662937E-01 0.12499765E+03</pdfrwt>
<pdfrwt beam="2">  1       -4 0.96643642E-03 0.12499765E+03</pdfrwt>
<totfact> 0.47143545E+03</totfact>
</mgrwt>
</event>
<event>
 5    1  0.3281209E-002  0.1249990E+03  0.7818608E-02  0.1235071E+00
          4   -1    0    0  501    0  0.00000000000E+00  0.00000000000E+00  0.10232939042E+04  0.10232946923E+04  0.12700000000E+01 0.  1.
         -4   -1    0    0    0  501 -0.00000000000E+00 -0.00000000000E+00 -0.37108252301E+01  0.39221325690E+01  0.12700000000E+01 0.  1.
         25    2    1    2    0    0  0.00000000000E+00  0.00000000000E+00  0.10195830789E+04  0.10272168248E+04  0.12499900142E+03 0.  0.
    9000005    1    3    3    0    0  0.33587043864E+02 -0.39032116871E+02  0.21883128111E+03  0.22481042070E+03  0.10000000000E+01 0.  0.
    9000005    1    3    3    0    0 -0.33587043864E+02  0.39032116871E+02  0.80075179783E+03  0.80240640413E+03  0.10000000000E+01 0.  0.
<mgrwt>
<rscale>  0 0.12499900E+03</rscale>
<asrwt>0</asrwt>
<pdfrwt beam="1">  1        4 0.15744592E+00 0.12499900E+03</pdfrwt>
<pdfrwt beam="2">  1       -4 0.58721208E-03 0.12499900E+03</pdfrwt>
<totfact> 0.29717636E+03</totfact>
</mgrwt>
</event>
<event>
 5    1  0.3281209E-002  0.1249813E+03  0.7818608E-02  0.1235098E+00
         -4   -1    0    0    0  501 -0.00000000000E+00  0.00000000000E+00  0.93035359129E+01  0.93898179153E+01  0.12700000000E+01 0.  1.
          4   -1    0    0  501    0  0.00000000000E+00 -0.00000000000E+00 -0.41771720931E+03  0.41771913991E+03  0.12700000000E+01 0.  1.
         25    2    1    2    0    0  0.00000000000E+00  0.00000000000E+00 -0.40841367339E+03  0.42710895783E+03  0.12498133158E+03 0.  0.
    9000005    1    3    3    0    0  0.67222893087E+01 -0.55730760988E+02 -0.11043245272E+03  0.12388475898E+03  0.10000000000E+01 0.  0.
    9000005    1    3    3    0    0 -0.67222893087E+01  0.55730760988E+02 -0.29798122067E+03  0.30322419885E+03  0.10000000000E+01 0.  0.
<mgrwt>
<rscale>  0 0.12498133E+03</rscale>
<asrwt>0</asrwt>
<pdfrwt beam="2">  1        4 0.64270957E-01 0.12498133E+03</pdfrwt>
<pdfrwt beam="1">  1       -4 0.14380991E-02 0.12498133E+03</pdfrwt>
<totfact> 0.62024459E+03</totfact>
</mgrwt>
</event>
<event>
 5    1  0.3281209E-002  0.1250003E+03  0.7818608E-02  0.1235069E+00
          4   -1    0    0  501    0  0.00000000000E+00  0.00000000000E+00  0.83503859473E+01  0.84464102119E+01  0.12700000000E+01 0. -1.
         -4   -1    0    0    0  501 -0.00000000000E+00 -0.00000000000E+00 -0.46502402425E+03  0.46502575845E+03  0.12700000000E+01 0. -1.
         25    2    1    2    0    0  0.00000000000E+00  0.00000000000E+00 -0.45667363830E+03  0.47347216867E+03  0.12500033034E+03 0.  0.
    9000005    1    3    3    0    0 -0.31538778973E+02  0.15852159985E+02 -0.42366537732E+03  0.42513449342E+03  0.10000000000E+01 0.  0.
    9000005    1    3    3    0    0  0.31538778973E+02 -0.15852159985E+02 -0.33008260976E+02  0.48337675244E+02  0.10000000000E+01 0.  0.
<mgrwt>
<rscale>  0 0.12500033E+03</rscale>
<asrwt>0</asrwt>
<pdfrwt beam="1">  1        4 0.12921950E-02 0.12500033E+03</pdfrwt>
<pdfrwt beam="2">  1       -4 0.71549657E-01 0.12500033E+03</pdfrwt>
<totfact> 0.57982580E+03</totfact>
</mgrwt>
</event>
<event>
 5    1  0.3281209E-002  0.1249992E+03  0.7818608E-02  0.1235071E+00
          4   -1    0    0  501    0  0.00000000000E+00  0.00000000000E+00  0.77879895797E+01  0.78908606434E+01  0.12700000000E+01 0.  1.
         -4   -1    0    0    0  501 -0.00000000000E+00 -0.00000000000E+00 -0.49817230214E+03  0.49817392095E+03  0.12700000000E+01 0.  1.
         25    2    1    2    0    0  0.00000000000E+00  0.00000000000E+00 -0.49038431256E+03  0.50606478160E+03  0.12499915667E+03 0.  0.
    9000005    1    3    3    0    0 -0.37513041551E+02 -0.43221720027E+02 -0.34679790062E+03  0.35148987075E+03  0.10000000000E+01 0.  0.
    9000005    1    3    3    0    0  0.37513041551E+02  0.43221720027E+02 -0.14358641194E+03  0.15457491084E+03  0.10000000000E+01 0.  0.
<mgrwt>
<rscale>  0 0.12499916E+03</rscale>
<asrwt>0</asrwt>
<pdfrwt beam="1">  1        4 0.12061903E-02 0.12499916E+03</pdfrwt>
<pdfrwt beam="2">  1       -4 0.76649906E-01 0.12499916E+03</pdfrwt>
<totfact> 0.55397903E+03</totfact>
</mgrwt>
</event>
<event>
 5    1  0.3281209E-002  0.1249961E+03  0.7818608E-02  0.1235075E+00
         -4   -1    0    0    0  501 -0.00000000000E+00  0.00000000000E+00  0.41134709416E+03  0.41134905466E+03  0.12700000000E+01 0.  1.
          4   -1    0    0  501    0  0.00000000000E+00 -0.00000000000E+00 -0.94511826603E+01  0.95361288623E+01  0.12700000000E+01 0.  1.
         25    2    1    2    0    0  0.00000000000E+00  0.00000000000E+00  0.40189591150E+03  0.42088518352E+03  0.12499605607E+03 0.  0.
    9000005    1    3    3    0    0 -0.36130254525E+02 -0.50691561506E+02  0.18251316175E+03  0.19283952891E+03  0.10000000000E+01 0.  0.
    9000005    1    3    3    0    0  0.36130254525E+02  0.50691561506E+02  0.21938274975E+03  0.22804565461E+03  0.10000000000E+01 0.  0.
<mgrwt>
<rscale>  0 0.12499606E+03</rscale>
<asrwt>0</asrwt>
<pdfrwt beam="2">  1        4 0.14607135E-02 0.12499606E+03</pdfrwt>
<pdfrwt beam="1">  1       -4 0.63290840E-01 0.12499606E+03</pdfrwt>
<totfact> 0.62576423E+03</totfact>
</mgrwt>
</event>
<event>
 5    1  0.3281209E-002  0.1249992E+03  0.7818608E-02  0.1235071E+00
          4   -1    0    0  501    0  0.00000000000E+00  0.00000000000E+00  0.11617972358E+03  0.11618666477E+03  0.12700000000E+01 0.  1.
         -4   -1    0    0    0  501 -0.00000000000E+00 -0.00000000000E+00 -0.33602097777E+02  0.33626089202E+02  0.12700000000E+01 0.  1.
         25    2    1    2    0    0  0.00000000000E+00  0.00000000000E+00  0.82577625799E+02  0.14981275397E+03  0.12499918788E+03 0.  0.
    9000005    1    3    3    0    0 -0.60694662218E+01 -0.39721323547E+02 -0.16071837938E+02  0.43288866227E+02  0.10000000000E+01 0.  0.
    9000005    1    3    3    0    0  0.60694662218E+01  0.39721323547E+02  0.98649463737E+02  0.10652388774E+03  0.10000000000E+01 0.  0.
<mgrwt>
<rscale>  0 0.12499919E+03</rscale>
<asrwt>0</asrwt>
<pdfrwt beam="1">  1        4 0.17876183E-01 0.12499919E+03</pdfrwt>
<pdfrwt beam="2">  1       -4 0.51719330E-02 0.12499919E+03</pdfrwt>
<totfact> 0.99342851E+03</totfact>
</mgrwt>
</event>
<event>
 5    1  0.3281209E-002  0.1250000E+03  0.7818608E-02  0.1235069E+00
          4   -1    0    0  501    0  0.00000000000E+00  0.00000000000E+00  0.99813376558E+03  0.99813457354E+03  0.12700000000E+01 0.  1.
         -4   -1    0    0    0  501 -0.00000000000E+00 -0.00000000000E+00 -0.38096900840E+01  0.40157986175E+01  0.12700000000E+01 0.  1.
         25    2    1    2    0    0  0.00000000000E+00  0.00000000000E+00  0.99432407550E+03  0.10021503722E+04  0.12500000520E+03 0.  0.
    9000005    1    3    3    0    0 -0.38586920028E+02  0.67184531046E+01  0.10676770625E+03  0.11372964041E+03  0.10000000000E+01 0.  0.
    9000005    1    3    3    0    0  0.38586920028E+02 -0.67184531046E+01  0.88755636925E+03  0.88842073175E+03  0.10000000000E+01 0.  0.
<mgrwt>
<rscale>  0 0.12500001E+03</rscale>
<asrwt>0</asrwt>
<pdfrwt beam="1">  1        4 0.15357487E+00 0.12500001E+03</pdfrwt>
<pdfrwt beam="2">  1       -4 0.60202316E-03 0.12500001E+03</pdfrwt>
<totfact> 0.30533601E+03</totfact>
</mgrwt>
</event>
<event>
 5    1  0.3281209E-002  0.1250019E+03  0.7818608E-02  0.1235066E+00
         -4   -1    0    0    0  501 -0.00000000000E+00  0.00000000000E+00  0.10300498517E+02  0.10378495541E+02  0.12700000000E+01 0.  1.
          4   -1    0    0  501    0  0.00000000000E+00 -0.00000000000E+00 -0.37773147339E+03  0.37773360837E+03  0.12700000000E+01 0.  1.
         25    2    1    2    0    0  0.00000000000E+00  0.00000000000E+00 -0.36743097488E+03  0.38811210391E+03  0.12500193560E+03 0.  0.
    9000005    1    3    3    0    0 -0.35913890063E+02  0.42002134670E+02 -0.27431027940E+03  0.27982336608E+03  0.10000000000E+01 0.  0.
    9000005    1    3    3    0    0  0.35913890063E+02 -0.42002134670E+02 -0.93120695473E+02  0.10828873783E+03  0.10000000000E+01 0.  0.
<mgrwt>
<rscale>  0 0.12500194E+03</rscale>
<asrwt>0</asrwt>
<pdfrwt beam="2">  1        4 0.58118688E-01 0.12500194E+03</pdfrwt>
<pdfrwt beam="1">  1       -4 0.15908564E-02 0.12500194E+03</pdfrwt>
<totfact> 0.65722844E+03</totfact>
</mgrwt>
</event>
<event>
 5    1  0.3281209E-002  0.1249815E+03  0.7818608E-02  0.1235098E+00
          4   -1    0    0  501    0  0.00000000000E+00  0.00000000000E+00  0.14930753824E+01  0.19601464480E+01  0.12700000000E+01 0.  1.
         -4   -1    0    0    0  501 -0.00000000000E+00 -0.00000000000E+00 -0.22612436862E+04  0.22612440428E+04  0.12700000000E+01 0.  1.
         25    2    1    2    0    0  0.00000000000E+00  0.00000000000E+00 -0.22597506108E+04  0.22632041893E+04  0.12498151591E+03 0.  0.
    9000005    1    3    3    0    0  0.47980478038E+02  0.27442457795E+02 -0.16574708488E+04  0.16583925438E+04  0.10000000000E+01 0.  0.
    9000005    1    3    3    0    0 -0.47980478038E+02 -0.27442457795E+02 -0.60227976201E+03  0.60481164546E+03  0.10000000000E+01 0.  0.
<mgrwt>
<rscale>  0 0.12498152E+03</rscale>
<asrwt>0</asrwt>
<pdfrwt beam="1">  1        4 0.26566169E-03 0.12498152E+03</pdfrwt>
<pdfrwt beam="2">  1       -4 0.34791723E+00 0.12498152E+03</pdfrwt>
<totfact> 0.68080335E+02</totfact>
</mgrwt>
</event>
<event>
 5    1  0.3281209E-002  0.1249790E+03  0.7818608E-02  0.1235102E+00
          4   -1    0    0  501    0  0.00000000000E+00  0.00000000000E+00  0.24388528368E+02  0.24421572758E+02  0.12700000000E+01 0. -1.
         -4   -1    0    0    0  501 -0.00000000000E+00 -0.00000000000E+00 -0.15996973460E+03  0.15997477579E+03  0.12700000000E+01 0. -1.
         25    2    1    2    0    0  0.00000000000E+00  0.00000000000E+00 -0.13558120623E+03  0.18439634855E+03  0.12497899773E+03 0.  0.
    9000005    1    3    3    0    0 -0.34364963098E+01  0.35193403108E+02 -0.14379331843E+03  0.14808073323E+03  0.10000000000E+01 0.  0.
    9000005    1    3    3    0    0  0.34364963098E+01 -0.35193403108E+02  0.82121121940E+01  0.36315615317E+02  0.10000000000E+01 0.  0.
<mgrwt>
<rscale>  0 0.12497900E+03</rscale>
<asrwt>0</asrwt>
<pdfrwt beam="1">  1        4 0.37550110E-02 0.12497900E+03</pdfrwt>
<pdfrwt beam="2">  1       -4 0.24613657E-01 0.12497900E+03</pdfrwt>
<totfact> 0.92875289E+03</totfact>
</mgrwt>
</event>
<event>
 5    1  0.3281209E-002  0.1249840E+03  0.7818608E-02  0.1235094E+00
          4   -1    0    0  501    0  0.00000000000E+00  0.00000000000E+00  0.10929878502E+01  0.16755663045E+01  0.12700000000E+01 0. -1.
         -4   -1    0    0    0  501 -0.00000000000E+00 -0.00000000000E+00 -0.28205646929E+04  0.28205649788E+04  0.12700000000E+01 0. -1.
         25    2    1    2    0    0  0.00000000000E+00  0.00000000000E+00 -0.28194717051E+04  0.28222405451E+04  0.12498399480E+03 0.  0.
    9000005    1    3    3    0    0  0.51177039616E+02  0.84561114216E+01 -0.62307567356E+03  0.62523186914E+03  0.10000000000E+01 0.  0.
    9000005    1    3    3    0    0 -0.51177039616E+02 -0.84561114216E+01 -0.21963960315E+04  0.21970086760E+04  0.10000000000E+01 0.  0.
<mgrwt>
<rscale>  0 0.12498399E+03</rscale>
<asrwt>0</asrwt>
<pdfrwt beam="1">  1        4 0.21298996E-03 0.12498399E+03</pdfrwt>
<pdfrwt beam="2">  1       -4 0.43397326E+00 0.12498399E+03</pdfrwt>
<totfact> 0.26042246E+02</totfact>
</mgrwt>
</event>
<event>
 5    1  0.3281209E-002  0.1250004E+03  0.7818608E-02  0.1235069E+00
         -4   -1    0    0    0  501 -0.00000000000E+00  0.00000000000E+00  0.12178995046E+02  0.12245032476E+02  0.12700000000E+01 0. -1.
          4   -1    0    0  501    0  0.00000000000E+00 -0.00000000000E+00 -0.31980408675E+03  0.31980660844E+03  0.12700000000E+01 0. -1.
         25    2    1    2    0    0  0.00000000000E+00  0.00000000000E+00 -0.30762509170E+03  0.33205164092E+03  0.12500038076E+03 0.  0.
    9000005    1    3    3    0    0 -0.47580988469E+02  0.80634590536E+01 -0.48346107878E+02  0.68317757447E+02  0.10000000000E+01 0.  0.
    9000005    1    3    3    0    0  0.47580988469E+02 -0.80634590536E+01 -0.25927898383E+03  0.26373388347E+03  0.10000000000E+01 0.  0.
<mgrwt>
<rscale>  0 0.12500038E+03</rscale>
<asrwt>0</asrwt>
<pdfrwt beam="2">  1        4 0.49205896E-01 0.12500038E+03</pdfrwt>
<pdfrwt beam="1">  1       -4 0.18789656E-02 0.12500038E+03</pdfrwt>
<totfact> 0.71744701E+03</totfact>
</mgrwt>
</event>
<event>
 5    1  0.3281209E-002  0.1249956E+03  0.7818608E-02  0.1235076E+00
          4   -1    0    0  501    0  0.00000000000E+00  0.00000000000E+00  0.51270440782E+01  0.52819959277E+01  0.12700000000E+01 0.  1.
         -4   -1    0    0    0  501 -0.00000000000E+00 -0.00000000000E+00 -0.75034078844E+03  0.75034186322E+03  0.12700000000E+01 0.  1.
         25    2    1    2    0    0  0.00000000000E+00  0.00000000000E+00 -0.74521374436E+03  0.75562385915E+03  0.12499556682E+03 0.  0.
    9000005    1    3    3    0    0 -0.33042795646E+02  0.47884467121E+02 -0.51048850231E+03  0.51379398549E+03  0.10000000000E+01 0.  0.
    9000005    1    3    3    0    0  0.33042795646E+02 -0.47884467121E+02 -0.23472524205E+03  0.24182987366E+03  0.10000000000E+01 0.  0.
<mgrwt>
<rscale>  0 0.12499557E+03</rscale>
<asrwt>0</asrwt>
<pdfrwt beam="1">  1        4 0.80077866E-03 0.12499557E+03</pdfrwt>
<pdfrwt beam="2">  1       -4 0.11544896E+00 0.12499557E+03</pdfrwt>
<totfact> 0.40310514E+03</totfact>
</mgrwt>
</event>
<event>
 5    1  0.3281209E-002  0.1250004E+03  0.7818608E-02  0.1235069E+00
         -4   -1    0    0    0  501 -0.00000000000E+00  0.00000000000E+00  0.11422583188E+02  0.11492967706E+02  0.12700000000E+01 0. -1.
          4   -1    0    0  501    0  0.00000000000E+00 -0.00000000000E+00 -0.34085636446E+03  0.34085873041E+03  0.12700000000E+01 0. -1.
         25    2    1    2    0    0  0.00000000000E+00  0.00000000000E+00 -0.32943378128E+03  0.35235169812E+03  0.12500041167E+03 0.  0.
    9000005    1    3    3    0    0  0.54772536670E+02 -0.29536815031E+02 -0.18086583847E+03  0.19127442521E+03  0.10000000000E+01 0.  0.
    9000005    1    3    3    0    0 -0.54772536670E+02  0.29536815031E+02 -0.14856794281E+03  0.16107727290E+03  0.10000000000E+01 0.  0.
<mgrwt>
<rscale>  0 0.12500041E+03</rscale>
<asrwt>0</asrwt>
<pdfrwt beam="2">  1        4 0.52445029E-01 0.12500041E+03</pdfrwt>
<pdfrwt beam="1">  1       -4 0.17629169E-02 0.12500041E+03</pdfrwt>
<totfact> 0.69465984E+03</totfact>
</mgrwt>
</event>
<event>
 5    1  0.3281209E-002  0.1250063E+03  0.7818608E-02  0.1235059E+00
          4   -1    0    0  501    0  0.00000000000E+00  0.00000000000E+00  0.51246923399E+02  0.51262657538E+02  0.12700000000E+01 0. -1.
         -4   -1    0    0    0  501 -0.00000000000E+00 -0.00000000000E+00 -0.76199043156E+02  0.76209625887E+02  0.12700000000E+01 0. -1.
         25    2    1    2    0    0  0.00000000000E+00  0.00000000000E+00 -0.24952119757E+02  0.12747228343E+03  0.12500629889E+03 0.  0.
    9000005    1    3    3    0    0  0.23993941284E+02 -0.51581896274E+02  0.13903989750E+02  0.58572366970E+02  0.10000000000E+01 0.  0.
    9000005    1    3    3    0    0 -0.23993941284E+02  0.51581896274E+02 -0.38856109507E+02  0.68899916455E+02  0.10000000000E+01 0.  0.
<mgrwt>
<rscale>  0 0.12500630E+03</rscale>
<asrwt>0</asrwt>
<pdfrwt beam="1">  1        4 0.78861665E-02 0.12500630E+03</pdfrwt>
<pdfrwt beam="2">  1       -4 0.11724954E-01 0.12500630E+03</pdfrwt>
<totfact> 0.10397422E+04</totfact>
</mgrwt>
</event>
<event>
 5    1  0.3281209E-002  0.1249980E+03  0.7818608E-02  0.1235072E+00
         -4   -1    0    0    0  501 -0.00000000000E+00  0.00000000000E+00  0.77159118656E+02  0.77169569727E+02  0.12700000000E+01 0. -1.
          4   -1    0    0  501    0  0.00000000000E+00 -0.00000000000E+00 -0.50602396856E+02  0.50618331339E+02  0.12700000000E+01 0. -1.
         25    2    1    2    0    0  0.00000000000E+00  0.00000000000E+00  0.26556721800E+02  0.12778790107E+03  0.12499795273E+03 0.  0.
    9000005    1    3    3    0    0  0.21294403053E+02  0.45520155958E+02 -0.24693440606E+02  0.56002698228E+02  0.10000000000E+01 0.  0.
    9000005    1    3    3    0    0 -0.21294403053E+02 -0.45520155958E+02  0.51250162406E+02  0.71785202838E+02  0.10000000000E+01 0.  0.
<mgrwt>
<rscale>  0 0.12499795E+03</rscale>
<asrwt>0</asrwt>
<pdfrwt beam="2">  1        4 0.77870138E-02 0.12499795E+03</pdfrwt>
<pdfrwt beam="1">  1       -4 0.11872663E-01 0.12499795E+03</pdfrwt>
<totfact> 0.10392551E+04</totfact>
</mgrwt>
</event>
<event>
 5    1  0.3281209E-002  0.1249989E+03  0.7818608E-02  0.1235071E+00
         -4   -1    0    0    0  501 -0.00000000000E+00  0.00000000000E+00  0.70718340512E+02  0.70729743282E+02  0.12700000000E+01 0. -1.
          4   -1    0    0  501    0  0.00000000000E+00 -0.00000000000E+00 -0.55212603393E+02  0.55227207728E+02  0.12700000000E+01 0. -1.
         25    2    1    2    0    0  0.00000000000E+00  0.00000000000E+00  0.15505737119E+02  0.12595695101E+03  0.12499890249E+03 0.  0.
    9000005    1    3    3    0    0  0.10207787079E+02  0.61596772240E+02  0.10384424107E+02  0.63302429111E+02  0.10000000000E+01 0.  0.
    9000005    1    3    3    0    0 -0.10207787079E+02 -0.61596772240E+02  0.51213130119E+01  0.62654521899E+02  0.10000000000E+01 0.  0.
<mgrwt>
<rscale>  0 0.12499890E+03</rscale>
<asrwt>0</asrwt>
<pdfrwt beam="2">  1        4 0.84962472E-02 0.12499890E+03</pdfrwt>
<pdfrwt beam="1">  1       -4 0.10881745E-01 0.12499890E+03</pdfrwt>
<totfact> 0.10432159E+04</totfact>
</mgrwt>
</event>
<event>
 5    1  0.3281209E-002  0.1250008E+03  0.7818608E-02  0.1235068E+00
          4   -1    0    0  501    0  0.00000000000E+00  0.00000000000E+00  0.16937451505E+04  0.16937456266E+04  0.12700000000E+01 0. -1.
         -4   -1    0    0    0  501 -0.00000000000E+00 -0.00000000000E+00 -0.21309610897E+01  0.24807045705E+01  0.12700000000E+01 0. -1.
         25    2    1    2    0    0  0.00000000000E+00  0.00000000000E+00  0.16916141894E+04  0.16962263312E+04  0.12500080343E+03 0.  0.
    9000005    1    3    3    0    0 -0.14267752775E+02 -0.18989044817E+02  0.16301732185E+04  0.16303465505E+04  0.10000000000E+01 0.  0.
    9000005    1    3    3    0    0  0.14267752775E+02  0.18989044817E+02  0.61440970945E+02  0.65879780684E+02  0.10000000000E+01 0.  0.
<mgrwt>
<rscale>  0 0.12500080E+03</rscale>
<asrwt>0</asrwt>
<pdfrwt beam="1">  1        4 0.26060342E+00 0.12500080E+03</pdfrwt>
<pdfrwt beam="2">  1       -4 0.35477973E-03 0.12500080E+03</pdfrwt>
<totfact> 0.14370688E+03</totfact>
</mgrwt>
</event>
<event>
 4    1  0.3281209E-002  0.1249154E+03  0.7818608E-02  0.1235202E+00
         -4   -1    0    0    0  501 -0.00000000000E+00  0.00000000000E+00  0.16714122263E+02  0.16762302438E+02  0.12700000000E+01 0.  1.
          4   -1    0    0  501    0  0.00000000000E+00 -0.00000000000E+00 -0.23300757888E+03  0.23301103991E+03  0.12700000000E+01 0.  1.
    9000005    1    1    2    0    0  0.29440564902E+02  0.52826418577E+01  0.14694979633E+01  0.29963521005E+02  0.10000000000E+01 0.  0.
    9000005    1    1    2    0    0 -0.29440564902E+02 -0.52826418577E+01 -0.21776295459E+03  0.21980982134E+03  0.10000000000E+01 0.  0.
<mgrwt>
<rscale>  0 0.12491542E+03</rscale>
<asrwt>0</asrwt>
<pdfrwt beam="2">  1        4 0.35851290E-01 0.12491542E+03</pdfrwt>
<pdfrwt beam="1">  1       -4 0.25753760E-02 0.12491542E+03</pdfrwt>
<totfact> 0.82518370E+03</totfact>
</mgrwt>
</event>
<event>
 5    1  0.3281209E-002  0.1250037E+03  0.7818608E-02  0.1235064E+00
         -4   -1    0    0    0  501 -0.00000000000E+00  0.00000000000E+00  0.12596213058E+03  0.12596853274E+03  0.12700000000E+01 0.  1.
          4   -1    0    0  501    0  0.00000000000E+00 -0.00000000000E+00 -0.30992943966E+02  0.31018953491E+02  0.12700000000E+01 0.  1.
         25    2    1    2    0    0  0.00000000000E+00  0.00000000000E+00  0.94969186614E+02  0.15698748623E+03  0.12500369765E+03 0.  0.
    9000005    1    3    3    0    0  0.33315646619E+02 -0.36532121600E+02 -0.51751154878E+00  0.49454990006E+02  0.10000000000E+01 0.  0.
    9000005    1    3    3    0    0 -0.33315646619E+02  0.36532121600E+02  0.95486698163E+02  0.10753249622E+03  0.10000000000E+01 0.  0.
<mgrwt>
<rscale>  0 0.12500370E+03</rscale>
<asrwt>0</asrwt>
<pdfrwt beam="2">  1        4 0.47706384E-02 0.12500370E+03</pdfrwt>
<pdfrwt beam="1">  1       -4 0.19381283E-01 0.12500370E+03</pdfrwt>
<totfact> 0.97918596E+03</totfact>
</mgrwt>
</event>
<event>
 5    1  0.3281209E-002  0.1249982E+03  0.7818608E-02  0.1235072E+00
          4   -1    0    0  501    0  0.00000000000E+00  0.00000000000E+00  0.65582375463E+01  0.66800733314E+01  0.12700000000E+01 0.  1.
         -4   -1    0    0    0  501 -0.00000000000E+00 -0.00000000000E+00 -0.59000396274E+03  0.59000532960E+03  0.12700000000E+01 0.  1.
         25    2    1    2    0    0  0.00000000000E+00  0.00000000000E+00 -0.58344572520E+03  0.59668540293E+03  0.12499822326E+03 0.  0.
    9000005    1    3    3    0    0  0.56972554309E+02 -0.22258179221E+02 -0.35282440354E+03  0.35808847820E+03  0.10000000000E+01 0.  0.
    9000005    1    3    3    0    0 -0.56972554309E+02  0.22258179221E+02 -0.23062132166E+03  0.23859692473E+03  0.10000000000E+01 0.  0.
<mgrwt>
<rscale>  0 0.12499822E+03</rscale>
<asrwt>0</asrwt>
<pdfrwt beam="1">  1        4 0.10184372E-02 0.12499822E+03</pdfrwt>
<pdfrwt beam="2">  1       -4 0.90779276E-01 0.12499822E+03</pdfrwt>
<totfact> 0.49079437E+03</totfact>
</mgrwt>
</event>
<event>
 5    1  0.3281209E-002  0.1249974E+03  0.7818608E-02  0.1235073E+00
         -4   -1    0    0    0  501 -0.00000000000E+00  0.00000000000E+00  0.19238952452E+02  0.19280824449E+02  0.12700000000E+01 0. -1.
          4   -1    0    0  501    0  0.00000000000E+00 -0.00000000000E+00 -0.20276557075E+03  0.20276954796E+03  0.12700000000E+01 0. -1.
         25    2    1    2    0    0  0.00000000000E+00  0.00000000000E+00 -0.18352661830E+03  0.22205037241E+03  0.12499739303E+03 0.  0.
    9000005    1    3    3    0    0  0.58435405602E+02 -0.10862826024E+02 -0.57482644447E+02  0.82691910304E+02  0.10000000000E+01 0.  0.
    9000005    1    3    3    0    0 -0.58435405602E+02  0.10862826024E+02 -0.12604397385E+03  0.13935846211E+03  0.10000000000E+01 0.  0.
<mgrwt>
<rscale>  0 0.12499739E+03</rscale>
<asrwt>0</asrwt>
<pdfrwt beam="2">  1        4 0.31198229E-01 0.12499739E+03</pdfrwt>
<pdfrwt beam="1">  1       -4 0.29633658E-02 0.12499739E+03</pdfrwt>
<totfact> 0.86549981E+03</totfact>
</mgrwt>
</event>
<event>
 4    1  0.3281209E-002  0.1252495E+03  0.7818608E-02  0.1234680E+00
          4   -1    0    0  501    0  0.00000000000E+00  0.00000000000E+00  0.62113936164E+02  0.62126918206E+02  0.12700000000E+01 0.  1.
         -4   -1    0    0    0  501 -0.00000000000E+00 -0.00000000000E+00 -0.63113761531E+02  0.63126537958E+02  0.12700000000E+01 0.  1.
    9000005    1    1    2    0    0  0.56920698163E+02  0.34477523116E+01 -0.26365853865E+02  0.62833200821E+02  0.10000000000E+01 0.  0.
    9000005    1    1    2    0    0 -0.56920698163E+02 -0.34477523116E+01  0.25366028498E+02  0.62420255343E+02  0.10000000000E+01 0.  0.
<mgrwt>
<rscale>  0 0.12524947E+03</rscale>
<asrwt>0</asrwt>
<pdfrwt beam="1">  1        4 0.95579715E-02 0.12524947E+03</pdfrwt>
<pdfrwt beam="2">  1       -4 0.97117910E-02 0.12524947E+03</pdfrwt>
<totfact> 0.10388676E+04</totfact>
</mgrwt>
</event>
<event>
 5    1  0.3281209E-002  0.1249417E+03  0.7818608E-02  0.1235160E+00
          4   -1    0    0  501    0  0.00000000000E+00  0.00000000000E+00  0.33537275937E+01  0.35861384207E+01  0.12700000000E+01 0.  1.
         -4   -1    0    0    0  501 -0.00000000000E+00 -0.00000000000E+00 -0.11244602400E+04  0.11244609572E+04  0.12700000000E+01 0.  1.
         25    2    1    2    0    0  0.00000000000E+00  0.00000000000E+00 -0.11211065124E+04  0.11280470956E+04  0.12494173743E+03 0.  0.
    9000005    1    3    3    0    0 -0.10466076482E+02 -0.94723736052E+01 -0.11191879147E+02  0.18042249790E+02  0.10000000000E+01 0.  0.
    9000005    1    3    3    0    0  0.10466076482E+02  0.94723736052E+01 -0.11099146333E+04  0.11100048458E+04  0.10000000000E+01 0.  0.
<mgrwt>
<rscale>  0 0.12494174E+03</rscale>
<asrwt>0</asrwt>
<pdfrwt beam="1">  1        4 0.53389191E-03 0.12494174E+03</pdfrwt>
<pdfrwt beam="2">  1       -4 0.17301153E+00 0.12494174E+03</pdfrwt>
<totfact> 0.26710665E+03</totfact>
</mgrwt>
</event>
<event>
 5    1  0.3281209E-002  0.1250001E+03  0.7818608E-02  0.1235069E+00
          4   -1    0    0  501    0  0.00000000000E+00  0.00000000000E+00  0.31935533489E+02  0.31960775949E+02  0.12700000000E+01 0.  1.
         -4   -1    0    0    0  501 -0.00000000000E+00 -0.00000000000E+00 -0.12224010087E+03  0.12224669796E+03  0.12700000000E+01 0.  1.
         25    2    1    2    0    0  0.00000000000E+00  0.00000000000E+00 -0.90304567383E+02  0.15420747391E+03  0.12500012047E+03 0.  0.
    9000005    1    3    3    0    0  0.58206235847E+02  0.20674524102E+00 -0.17095054682E+02  0.60673301621E+02  0.10000000000E+01 0.  0.
    9000005    1    3    3    0    0 -0.58206235847E+02 -0.20674524102E+00 -0.73209512701E+02  0.93534172285E+02  0.10000000000E+01 0.  0.
<mgrwt>
<rscale>  0 0.12500012E+03</rscale>
<asrwt>0</asrwt>
<pdfrwt beam="1">  1        4 0.49156083E-02 0.12500012E+03</pdfrwt>
<pdfrwt beam="2">  1       -4 0.18808618E-01 0.12500012E+03</pdfrwt>
<totfact> 0.98471040E+03</totfact>
</mgrwt>
</event>
<event>
 5    1  0.3281209E-002  0.1250044E+03  0.7818608E-02  0.1235062E+00
         -4   -1    0    0    0  501 -0.00000000000E+00  0.00000000000E+00  0.24924746595E+02  0.24957081016E+02  0.12700000000E+01 0.  1.
          4   -1    0    0  501    0  0.00000000000E+00 -0.00000000000E+00 -0.15659632094E+03  0.15660147073E+03  0.12700000000E+01 0.  1.
         25    2    1    2    0    0  0.00000000000E+00  0.00000000000E+00 -0.13167157435E+03  0.18155855174E+03  0.12500441680E+03 0.  0.
    9000005    1    3    3    0    0 -0.38838194090E+02  0.48806632056E+02 -0.71467233956E+02  0.94863365859E+02  0.10000000000E+01 0.  0.
    9000005    1    3    3    0    0  0.38838194090E+02 -0.48806632056E+02 -0.60204340393E+02  0.86695185882E+02  0.10000000000E+01 0.  0.
<mgrwt>
<rscale>  0 0.12500442E+03</rscale>
<asrwt>0</asrwt>
<pdfrwt beam="2">  1        4 0.24094624E-01 0.12500442E+03</pdfrwt>
<pdfrwt beam="1">  1       -4 0.38374599E-02 0.12500442E+03</pdfrwt>
<totfact> 0.93327968E+03</totfact>
</mgrwt>
</event>
<event>
 5    1  0.3281209E-002  0.1249992E+03  0.7818608E-02  0.1235070E+00
         -4   -1    0    0    0  501 -0.00000000000E+00  0.00000000000E+00  0.13873740711E+03  0.13874321977E+03  0.12700000000E+01 0.  1.
          4   -1    0    0  501    0  0.00000000000E+00 -0.00000000000E+00 -0.28134641212E+02  0.28163290577E+02  0.12700000000E+01 0.  1.
         25    2    1    2    0    0  0.00000000000E+00  0.00000000000E+00  0.11060276590E+03  0.16690651035E+03  0.12499924548E+03 0.  0.
    9000005    1    3    3    0    0 -0.11119417345E+02 -0.57399260510E+02  0.25838200172E+02  0.63929094608E+02  0.10000000000E+01 0.  0.
    9000005    1    3    3    0    0  0.11119417345E+02  0.57399260510E+02  0.84764565728E+02  0.10297741574E+03  0.10000000000E+01 0.  0.
<mgrwt>
<rscale>  0 0.12499925E+03</rscale>
<asrwt>0</asrwt>
<pdfrwt beam="2">  1        4 0.43310573E-02 0.12499925E+03</pdfrwt>
<pdfrwt beam="1">  1       -4 0.21346867E-01 0.12499925E+03</pdfrwt>
<totfact> 0.96029170E+03</totfact>
</mgrwt>
</event>
<event>
 5    1  0.3281209E-002  0.1249974E+03  0.7818608E-02  0.1235073E+00
          4   -1    0    0  501    0  0.00000000000E+00  0.00000000000E+00  0.10387800973E+03  0.10388577287E+03  0.12700000000E+01 0.  1.
         -4   -1    0    0    0  501 -0.00000000000E+00 -0.00000000000E+00 -0.37582729819E+02  0.37604181691E+02  0.12700000000E+01 0.  1.
         25    2    1    2    0    0  0.00000000000E+00  0.00000000000E+00  0.66295279909E+02  0.14148995456E+03  0.12499737239E+03 0.  0.
    9000005    1    3    3    0    0 -0.37427013277E+02 -0.17467402442E+02  0.86230770178E+02  0.95617138613E+02  0.10000000000E+01 0.  0.
    9000005    1    3    3    0    0  0.37427013277E+02  0.17467402442E+02 -0.19935490269E+02  0.45872815950E+02  0.10000000000E+01 0.  0.
<mgrwt>
<rscale>  0 0.12499737E+03</rscale>
<asrwt>0</asrwt>
<pdfrwt beam="1">  1        4 0.15983479E-01 0.12499737E+03</pdfrwt>
<pdfrwt beam="2">  1       -4 0.57842058E-02 0.12499737E+03</pdfrwt>
<totfact> 0.10103397E+04</totfact>
</mgrwt>
</event>
<event>
 5    1  0.3281209E-002  0.1249991E+03  0.7818608E-02  0.1235071E+00
          4   -1    0    0  501    0  0.00000000000E+00  0.00000000000E+00  0.52901291742E+01  0.54404380963E+01  0.12700000000E+01 0.  1.
         -4   -1    0    0    0  501 -0.00000000000E+00 -0.00000000000E+00 -0.72789853332E+03  0.72789964124E+03  0.12700000000E+01 0.  1.
         25    2    1    2    0    0  0.00000000000E+00  0.00000000000E+00 -0.72260840415E+03  0.73334007933E+03  0.12499906484E+03 0.  0.
    9000005    1    3    3    0    0 -0.16370796314E+02  0.39830276971E+02 -0.95627356475E+02  0.10488110050E+03  0.10000000000E+01 0.  0.
    9000005    1    3    3    0    0  0.16370796314E+02 -0.39830276971E+02 -0.62698104767E+03  0.62845897884E+03  0.10000000000E+01 0.  0.
<mgrwt>
<rscale>  0 0.12499906E+03</rscale>
<asrwt>0</asrwt>
<pdfrwt beam="1">  1        4 0.82551405E-03 0.12499906E+03</pdfrwt>
<pdfrwt beam="2">  1       -4 0.11199596E+00 0.12499906E+03</pdfrwt>
<totfact> 0.41384809E+03</totfact>
</mgrwt>
</event>
<event>
 5    1  0.3281209E-002  0.1249966E+03  0.7818608E-02  0.1235075E+00
         -4   -1    0    0    0  501 -0.00000000000E+00  0.00000000000E+00  0.63426376849E+02  0.63439090316E+02  0.12700000000E+01 0. -1.
          4   -1    0    0  501    0  0.00000000000E+00 -0.00000000000E+00 -0.61558407849E+02  0.61571507022E+02  0.12700000000E+01 0. -1.
         25    2    1    2    0    0  0.00000000000E+00  0.00000000000E+00  0.18679689997E+01  0.12501059734E+03  0.12499664051E+03 0.  0.
    9000005    1    3    3    0    0 -0.17133736282E+02 -0.37315470725E+02  0.48045833661E+02  0.63209266778E+02  0.10000000000E+01 0.  0.
    9000005    1    3    3    0    0  0.17133736282E+02  0.37315470725E+02 -0.46177864661E+02  0.61801330561E+02  0.10000000000E+01 0.  0.
<mgrwt>
<rscale>  0 0.12499664E+03</rscale>
<asrwt>0</asrwt>
<pdfrwt beam="2">  1        4 0.94725098E-02 0.12499664E+03</pdfrwt>
<pdfrwt beam="1">  1       -4 0.97598897E-02 0.12499664E+03</pdfrwt>
<totfact> 0.10453426E+04</totfact>
</mgrwt>
</event>
<event>
 5    1  0.3281209E-002  0.1250010E+03  0.7818608E-02  0.1235068E+00
         -4   -1    0    0    0  501 -0.00000000000E+00  0.00000000000E+00  0.22441335335E+03  0.22441694691E+03  0.12700000000E+01 0.  1.
          4   -1    0    0  501    0  0.00000000000E+00 -0.00000000000E+00 -0.17379877024E+02  0.17426216611E+02  0.12700000000E+01 0.  1.
         25    2    1    2    0    0  0.00000000000E+00  0.00000000000E+00  0.20703347632E+03  0.24184316352E+03  0.12500102169E+03 0.  0.
    9000005    1    3    3    0    0 -0.15759030917E+02  0.46270474519E+02  0.17884731340E+03  0.18540945331E+03  0.10000000000E+01 0.  0.
    9000005    1    3    3    0    0  0.15759030917E+02 -0.46270474519E+02  0.28186162925E+02  0.56433710210E+02  0.10000000000E+01 0.  0.
<mgrwt>
<rscale>  0 0.12500102E+03</rscale>
<asrwt>0</asrwt>
<pdfrwt beam="2">  1        4 0.26776682E-02 0.12500102E+03</pdfrwt>
<pdfrwt beam="1">  1       -4 0.34528973E-01 0.12500102E+03</pdfrwt>
<totfact> 0.83521721E+03</totfact>
</mgrwt>
</event>
<event>
 5    1  0.3281209E-002  0.1250052E+03  0.7818608E-02  0.1235061E+00
         -4   -1    0    0    0  501 -0.00000000000E+00  0.00000000000E+00  0.41778893048E+03  0.41779086075E+03  0.12700000000E+01 0.  1.
          4   -1    0    0  501    0  0.00000000000E+00 -0.00000000000E+00 -0.93055138154E+01  0.93917776469E+01  0.12700000000E+01 0.  1.
         25    2    1    2    0    0  0.00000000000E+00  0.00000000000E+00  0.40848341666E+03  0.42718263840E+03  0.12500521934E+03 0.  0.
    9000005    1    3    3    0    0  0.71772805640E+01  0.29075320176E+01  0.41615979129E+03  0.41623303447E+03  0.10000000000E+01 0.  0.
    9000005    1    3    3    0    0 -0.71772805640E+01 -0.29075320176E+01 -0.76763746294E+01  0.10949603928E+02  0.10000000000E+01 0.  0.
<mgrwt>
<rscale>  0 0.12500522E+03</rscale>
<asrwt>0</asrwt>
<pdfrwt beam="2">  1        4 0.14384019E-02 0.12500522E+03</pdfrwt>
<pdfrwt beam="1">  1       -4 0.64281996E-01 0.12500522E+03</pdfrwt>
<totfact> 0.61985069E+03</totfact>
</mgrwt>
</event>
<event>
 5    1  0.3281209E-002  0.1249881E+03  0.7818608E-02  0.1235088E+00
         -4   -1    0    0    0  501 -0.00000000000E+00  0.00000000000E+00  0.97467713036E+02  0.97475986707E+02  0.12700000000E+01 0.  1.
          4   -1    0    0  501    0  0.00000000000E+00 -0.00000000000E+00 -0.40049711050E+02  0.40069842216E+02  0.12700000000E+01 0.  1.
         25    2    1    2    0    0  0.00000000000E+00  0.00000000000E+00  0.57418001986E+02  0.13754582892E+03  0.12498811184E+03 0.  0.
    9000005    1    3    3    0    0  0.40553769095E+02 -0.13404230409E+02 -0.21482931787E+02  0.47820476146E+02  0.10000000000E+01 0.  0.
    9000005    1    3    3    0    0 -0.40553769095E+02  0.13404230409E+02  0.78900933773E+02  0.89725352777E+02  0.10000000000E+01 0.  0.
<mgrwt>
<rscale>  0 0.12498811E+03</rscale>
<asrwt>0</asrwt>
<pdfrwt beam="2">  1        4 0.61636790E-02 0.12498811E+03</pdfrwt>
<pdfrwt beam="1">  1       -4 0.14997218E-01 0.12498811E+03</pdfrwt>
<totfact> 0.10187416E+04</totfact>
</mgrwt>
</event>
<event>
 5    1  0.3281209E-002  0.1249989E+03  0.7818608E-02  0.1235071E+00
         -4   -1    0    0    0  501 -0.00000000000E+00  0.00000000000E+00  0.72270178144E+03  0.72270289732E+03  0.12700000000E+01 0.  1.
          4   -1    0    0  501    0  0.00000000000E+00 -0.00000000000E+00 -0.53292330298E+01  0.54784691919E+01  0.12700000000E+01 0.  1.
         25    2    1    2    0    0  0.00000000000E+00  0.00000000000E+00  0.71737254841E+03  0.72818136651E+03  0.12499891729E+03 0.  0.
    9000005    1    3    3    0    0 -0.60689673382E+02  0.32721142673E+01  0.27401803856E+03  0.28067922731E+03  0.10000000000E+01 0.  0.
    9000005    1    3    3    0    0  0.60689673382E+02 -0.32721142673E+01  0.44335450985E+03  0.44750213920E+03  0.10000000000E+01 0.  0.
<mgrwt>
<rscale>  0 0.12499892E+03</rscale>
<asrwt>0</asrwt>
<pdfrwt beam="2">  1        4 0.83144791E-03 0.12499892E+03</pdfrwt>
<pdfrwt beam="1">  1       -4 0.11119641E+00 0.12499892E+03</pdfrwt>
<totfact> 0.41641089E+03</totfact>
</mgrwt>
</event>
<event>
 5    1  0.3281209E-002  0.1249852E+03  0.7818608E-02  0.1235092E+00
         -4   -1    0    0    0  501 -0.00000000000E+00  0.00000000000E+00  0.14079394248E+02  0.14136556950E+02  0.12700000000E+01 0.  1.
          4   -1    0    0  501    0  0.00000000000E+00 -0.00000000000E+00 -0.27675832687E+03  0.27676124076E+03  0.12700000000E+01 0.  1.
         25    2    1    2    0    0  0.00000000000E+00  0.00000000000E+00 -0.26267893262E+03  0.29089779771E+03  0.12498522742E+03 0.  0.
    9000005    1    3    3    0    0  0.14581311393E+02  0.36302716168E+02 -0.17941284463E+02  0.43051034033E+02  0.10000000000E+01 0.  0.
    9000005    1    3    3    0    0 -0.14581311393E+02 -0.36302716168E+02 -0.24473764816E+03  0.24784676368E+03  0.10000000000E+01 0.  0.
<mgrwt>
<rscale>  0 0.12498523E+03</rscale>
<asrwt>0</asrwt>
<pdfrwt beam="2">  1        4 0.42582821E-01 0.12498523E+03</pdfrwt>
<pdfrwt beam="1">  1       -4 0.21706821E-02 0.12498523E+03</pdfrwt>
<totfact> 0.76780167E+03</totfact>
</mgrwt>
</event>
<event>
 5    1  0.3281209E-002  0.1249990E+03  0.7818608E-02  0.1235071E+00
         -4   -1    0    0    0  501 -0.00000000000E+00  0.00000000000E+00  0.73934528221E+02  0.73945435040E+02  0.12700000000E+01 0.  1.
          4   -1    0    0  501    0  0.00000000000E+00 -0.00000000000E+00 -0.52810582105E+02  0.52825850511E+02  0.12700000000E+01 0.  1.
         25    2    1    2    0    0  0.00000000000E+00  0.00000000000E+00  0.21123946117E+02  0.12677128555E+03  0.12499895096E+03 0.  0.
    9000005    1    3    3    0    0  0.62482972329E+02 -0.82687031507E+00  0.11186240826E+02  0.63489664744E+02  0.10000000000E+01 0.  0.
    9000005    1    3    3    0    0 -0.62482972329E+02  0.82687031507E+00  0.99377052906E+01  0.63281620807E+02  0.10000000000E+01 0.  0.
<mgrwt>
<rscale>  0 0.12499895E+03</rscale>
<asrwt>0</asrwt>
<pdfrwt beam="2">  1        4 0.81267184E-02 0.12499895E+03</pdfrwt>
<pdfrwt beam="1">  1       -4 0.11376556E-01 0.12499895E+03</pdfrwt>
<totfact> 0.10414365E+04</totfact>
</mgrwt>
</event>
<event>
 5    1  0.3281209E-002  0.1249989E+03  0.7818608E-02  0.1235071E+00
          4   -1    0    0  501    0  0.00000000000E+00  0.00000000000E+00  0.72320744310E+02  0.72331894470E+02  0.12700000000E+01 0. -1.
         -4   -1    0    0    0  501 -0.00000000000E+00 -0.00000000000E+00 -0.53989158358E+02  0.54004093550E+02  0.12700000000E+01 0. -1.
         25    2    1    2    0    0  0.00000000000E+00  0.00000000000E+00  0.18331585952E+02  0.12633598802E+03  0.12499893930E+03 0.  0.
    9000005    1    3    3    0    0  0.52980351237E+02  0.70351689707E+01  0.41896952912E+02  0.67917345965E+02  0.10000000000E+01 0.  0.
    9000005    1    3    3    0    0 -0.52980351237E+02 -0.70351689707E+01 -0.23565366959E+02  0.58418642055E+02  0.10000000000E+01 0.  0.
<mgrwt>
<rscale>  0 0.12499894E+03</rscale>
<asrwt>0</asrwt>
<pdfrwt beam="1">  1        4 0.11128275E-01 0.12499894E+03</pdfrwt>
<pdfrwt beam="2">  1       -4 0.83080310E-02 0.12499894E+03</pdfrwt>
<totfact> 0.10423857E+04</totfact>
</mgrwt>
</event>
<event>
 5    1  0.3281209E-002  0.1249988E+03  0.7818608E-02  0.1235071E+00
         -4   -1    0    0    0  501 -0.00000000000E+00  0.00000000000E+00  0.18939646315E+03  0.18940072111E+03  0.12700000000E+01 0. -1.
          4   -1    0    0  501    0  0.00000000000E+00 -0.00000000000E+00 -0.20600280182E+02  0.20639390581E+02  0.12700000000E+01 0. -1.
         25    2    1    2    0    0  0.00000000000E+00  0.00000000000E+00  0.16879618297E+03  0.21004011169E+03  0.12499878852E+03 0.  0.
    9000005    1    3    3    0    0  0.58873662100E+02 -0.16675372023E+02  0.63077124622E+02  0.87885719954E+02  0.10000000000E+01 0.  0.
    9000005    1    3    3    0    0 -0.58873662100E+02  0.16675372023E+02  0.10571905835E+03  0.12215439173E+03  0.10000000000E+01 0.  0.
<mgrwt>
<rscale>  0 0.12499879E+03</rscale>
<asrwt>0</asrwt>
<pdfrwt beam="2">  1        4 0.31726098E-02 0.12499879E+03</pdfrwt>
<pdfrwt beam="1">  1       -4 0.29141254E-01 0.12499879E+03</pdfrwt>
<totfact> 0.88471725E+03</totfact>
</mgrwt>
</event>
<event>
 5    1  0.3281209E-002  0.1250001E+03  0.7818608E-02  0.1235069E+00
         -4   -1    0    0    0  501 -0.00000000000E+00  0.00000000000E+00  0.55951924215E+03  0.55952068347E+03  0.12700000000E+01 0. -1.
          4   -1    0    0  501    0  0.00000000000E+00 -0.00000000000E+00 -0.69222279307E+01  0.70377652365E+01  0.12700000000E+01 0. -1.
         25    2    1    2    0    0  0.00000000000E+00  0.00000000000E+00  0.55259701422E+03  0.56655844871E+03  0.12500006273E+03 0.  0.
    9000005    1    3    3    0    0  0.19246424568E+02 -0.28667729004E+01  0.71368160224E+01  0.20750358754E+02  0.10000000000E+01 0.  0.
    9000005    1    3    3    0    0 -0.19246424568E+02  0.28667729004E+01  0.54546019819E+03  0.54580808995E+03  0.10000000000E+01 0.  0.
<mgrwt>
<rscale>  0 0.12500006E+03</rscale>
<asrwt>0</asrwt>
<pdfrwt beam="2">  1        4 0.10739567E-02 0.12500006E+03</pdfrwt>
<pdfrwt beam="1">  1       -4 0.86088870E-01 0.12500006E+03</pdfrwt>
<totfact> 0.51048884E+03</totfact>
</mgrwt>
</event>
<event>
 5    1  0.3281209E-002  0.1250010E+03  0.7818608E-02  0.1235068E+00
          4   -1    0    0  501    0  0.00000000000E+00  0.00000000000E+00  0.15138911415E+02  0.15192088034E+02  0.12700000000E+01 0. -1.
         -4   -1    0    0    0  501 -0.00000000000E+00 -0.00000000000E+00 -0.25752400484E+03  0.25752713637E+03  0.12700000000E+01 0. -1.
         25    2    1    2    0    0  0.00000000000E+00  0.00000000000E+00 -0.24238509342E+03  0.27271922440E+03  0.12500096738E+03 0.  0.
    9000005    1    3    3    0    0 -0.95733500001E+01 -0.51322703723E+01  0.13074195151E+02  0.17027149152E+02  0.10000000000E+01 0.  0.
    9000005    1    3    3    0    0  0.95733500001E+01  0.51322703723E+01 -0.25545928857E+03  0.25569207525E+03  0.10000000000E+01 0.  0.
<mgrwt>
<rscale>  0 0.12500097E+03</rscale>
<asrwt>0</asrwt>
<pdfrwt beam="1">  1        4 0.23333949E-02 0.12500097E+03</pdfrwt>
<pdfrwt beam="2">  1       -4 0.39623406E-01 0.12500097E+03</pdfrwt>
<totfact> 0.79151792E+03</totfact>
</mgrwt>
</event>
<event>
 5    1  0.3281209E-002  0.1250016E+03  0.7818608E-02  0.1235067E+00
         -4   -1    0    0    0  501 -0.00000000000E+00  0.00000000000E+00  0.74525103026E+03  0.74525211238E+03  0.12700000000E+01 0.  1.
          4   -1    0    0  501    0  0.00000000000E+00 -0.00000000000E+00 -0.51636296652E+01  0.53175155213E+01  0.12700000000E+01 0.  1.
         25    2    1    2    0    0  0.00000000000E+00  0.00000000000E+00  0.74008740059E+03  0.75056962790E+03  0.12500162321E+03 0.  0.
    9000005    1    3    3    0    0  0.54368248566E+02 -0.61594250650E+01  0.55132592185E+03  0.55403530309E+03  0.10000000000E+01 0.  0.
    9000005    1    3    3    0    0 -0.54368248566E+02  0.61594250650E+01  0.18876147875E+03  0.19653432481E+03  0.10000000000E+01 0.  0.
<mgrwt>
<rscale>  0 0.12500162E+03</rscale>
<asrwt>0</asrwt>
<pdfrwt beam="2">  1        4 0.80632525E-03 0.12500162E+03</pdfrwt>
<pdfrwt beam="1">  1       -4 0.11466592E+00 0.12500162E+03</pdfrwt>
<totfact> 0.40545468E+03</totfact>
</mgrwt>
</event>
<event>
 5    1  0.3281209E-002  0.1250001E+03  0.7818608E-02  0.1235069E+00
          4   -1    0    0  501    0  0.00000000000E+00  0.00000000000E+00  0.26590302606E+02  0.26620614056E+02  0.12700000000E+01 0. -1.
         -4   -1    0    0    0  501 -0.00000000000E+00 -0.00000000000E+00 -0.14678857586E+03  0.14679406972E+03  0.12700000000E+01 0. -1.
         25    2    1    2    0    0  0.00000000000E+00  0.00000000000E+00 -0.12019827326E+03  0.17341468377E+03  0.12500011062E+03 0.  0.
    9000005    1    3    3    0    0 -0.62034725034E+02  0.50809639940E+01 -0.52358259037E+02  0.81341936260E+02  0.10000000000E+01 0.  0.
    9000005    1    3    3    0    0  0.62034725034E+02 -0.50809639940E+01 -0.67840014218E+02  0.92072747511E+02  0.10000000000E+01 0.  0.
<mgrwt>
<rscale>  0 0.12500011E+03</rscale>
<asrwt>0</asrwt>
<pdfrwt beam="1">  1        4 0.40935701E-02 0.12500011E+03</pdfrwt>
<pdfrwt beam="2">  1       -4 0.22585612E-01 0.12500011E+03</pdfrwt>
<totfact> 0.94815757E+03</totfact>
</mgrwt>
</event>
<event>
 5    1  0.3281209E-002  0.1250089E+03  0.7818608E-02  0.1235055E+00
         -4   -1    0    0    0  501 -0.00000000000E+00  0.00000000000E+00  0.67515532592E+01  0.68699615291E+01  0.12700000000E+01 0.  1.
          4   -1    0    0  501    0  0.00000000000E+00 -0.00000000000E+00 -0.57350336794E+03  0.57350477412E+03  0.12700000000E+01 0.  1.
         25    2    1    2    0    0  0.00000000000E+00  0.00000000000E+00 -0.56675181468E+03  0.58037473565E+03  0.12500885703E+03 0.  0.
    9000005    1    3    3    0    0 -0.53574378036E+02 -0.31379134018E+02 -0.31651154007E+03  0.32254522013E+03  0.10000000000E+01 0.  0.
    9000005    1    3    3    0    0  0.53574378036E+02  0.31379134018E+02 -0.25024027461E+03  0.25782951552E+03  0.10000000000E+01 0.  0.
<mgrwt>
<rscale>  0 0.12500886E+03</rscale>
<asrwt>0</asrwt>
<pdfrwt beam="2">  1        4 0.88240466E-01 0.12500886E+03</pdfrwt>
<pdfrwt beam="1">  1       -4 0.10479174E-02 0.12500886E+03</pdfrwt>
<totfact> 0.50120594E+03</totfact>
</mgrwt>
</event>
<event>
 5    1  0.3281209E-002  0.1249995E+03  0.7818608E-02  0.1235070E+00
          4   -1    0    0  501    0  0.00000000000E+00  0.00000000000E+00  0.54248551340E+01  0.55715305998E+01  0.12700000000E+01 0. -1.
         -4   -1    0    0    0  501 -0.00000000000E+00 -0.00000000000E+00 -0.71030787746E+03  0.71030901281E+03  0.12700000000E+01 0. -1.
         25    2    1    2    0    0  0.00000000000E+00  0.00000000000E+00 -0.70488302233E+03  0.71588054341E+03  0.12499950909E+03 0.  0.
    9000005    1    3    3    0    0 -0.73334313754E+01  0.19019521448E+02 -0.69076033952E+03  0.69106176864E+03  0.10000000000E+01 0.  0.
    9000005    1    3    3    0    0  0.73334313754E+01 -0.19019521448E+02 -0.14122682804E+02  0.24818774777E+02  0.10000000000E+01 0.  0.
<mgrwt>
<rscale>  0 0.12499951E+03</rscale>
<asrwt>0</asrwt>
<pdfrwt beam="1">  1        4 0.84596372E-03 0.12499951E+03</pdfrwt>
<pdfrwt beam="2">  1       -4 0.10928943E+00 0.12499951E+03</pdfrwt>
<totfact> 0.42262011E+03</totfact>
</mgrwt>
</event>
<event>
 5    1  0.3281209E-002  0.1250022E+03  0.7818608E-02  0.1235066E+00
          4   -1    0    0  501    0  0.00000000000E+00  0.00000000000E+00  0.13664484822E+02  0.13723375876E+02  0.12700000000E+01 0. -1.
         -4   -1    0    0    0  501 -0.00000000000E+00 -0.00000000000E+00 -0.28520373981E+03  0.28520656743E+03  0.12700000000E+01 0. -1.
         25    2    1    2    0    0  0.00000000000E+00  0.00000000000E+00 -0.27153925499E+03  0.29892994330E+03  0.12500217599E+03 0.  0.
    9000005    1    3    3    0    0 -0.60532539965E+02  0.89014234444E+01 -0.16620360880E+03  0.17711031397E+03  0.10000000000E+01 0.  0.
    9000005    1    3    3    0    0  0.60532539965E+02 -0.89014234444E+01 -0.10533564619E+03  0.12181962934E+03  0.10000000000E+01 0.  0.
<mgrwt>
<rscale>  0 0.12500218E+03</rscale>
<asrwt>0</asrwt>
<pdfrwt beam="1">  1        4 0.21069762E-02 0.12500218E+03</pdfrwt>
<pdfrwt beam="2">  1       -4 0.43882241E-01 0.12500218E+03</pdfrwt>
<totfact> 0.75729605E+03</totfact>
</mgrwt>
</event>
<event>
 5    1  0.3281209E-002  0.1250261E+03  0.7818608E-02  0.1235028E+00
         -4   -1    0    0    0  501 -0.00000000000E+00  0.00000000000E+00  0.14233817541E+02  0.14290362549E+02  0.12700000000E+01 0. -1.
          4   -1    0    0  501    0  0.00000000000E+00 -0.00000000000E+00 -0.27394687008E+03  0.27394981388E+03  0.12700000000E+01 0. -1.
         25    2    1    2    0    0  0.00000000000E+00  0.00000000000E+00 -0.25971305254E+03  0.28824017643E+03  0.12502611587E+03 0.  0.
    9000005    1    3    3    0    0 -0.27633020745E+02  0.26707821934E+02 -0.24350303341E+03  0.24651900305E+03  0.10000000000E+01 0.  0.
    9000005    1    3    3    0    0  0.27633020745E+02 -0.26707821934E+02 -0.16210019134E+02  0.41721173381E+02  0.10000000000E+01 0.  0.
<mgrwt>
<rscale>  0 0.12502612E+03</rscale>
<asrwt>0</asrwt>
<pdfrwt beam="2">  1        4 0.42150244E-01 0.12502612E+03</pdfrwt>
<pdfrwt beam="1">  1       -4 0.21943944E-02 0.12502612E+03</pdfrwt>
<totfact> 0.77053339E+03</totfact>
</mgrwt>
</event>
<event>
 5    1  0.3281209E-002  0.1249857E+03  0.7818608E-02  0.1235092E+00
         -4   -1    0    0    0  501 -0.00000000000E+00  0.00000000000E+00  0.82762827149E+01  0.83731568465E+01  0.12700000000E+01 0. -1.
          4   -1    0    0  501    0  0.00000000000E+00 -0.00000000000E+00 -0.46902998891E+03  0.46903170831E+03  0.12700000000E+01 0. -1.
         25    2    1    2    0    0  0.00000000000E+00  0.00000000000E+00 -0.46075370619E+03  0.47740486515E+03  0.12498570918E+03 0.  0.
    9000005    1    3    3    0    0  0.35156591335E+02  0.49879281794E+02 -0.17906960757E+03  0.18918470610E+03  0.10000000000E+01 0.  0.
    9000005    1    3    3    0    0 -0.35156591335E+02 -0.49879281794E+02 -0.28168409862E+03  0.28822015905E+03  0.10000000000E+01 0.  0.
<mgrwt>
<rscale>  0 0.12498571E+03</rscale>
<asrwt>0</asrwt>
<pdfrwt beam="2">  1        4 0.72166023E-01 0.12498571E+03</pdfrwt>
<pdfrwt beam="1">  1       -4 0.12808587E-02 0.12498571E+03</pdfrwt>
<totfact> 0.57679248E+03</totfact>
</mgrwt>
</event>
<event>
 5    1  0.3281209E-002  0.1250029E+03  0.7818608E-02  0.1235065E+00
         -4   -1    0    0    0  501 -0.00000000000E+00  0.00000000000E+00  0.14194789651E+04  0.14194795332E+04  0.12700000000E+01 0.  1.
          4   -1    0    0  501    0  0.00000000000E+00 -0.00000000000E+00 -0.26048989087E+01  0.28979990208E+01  0.12700000000E+01 0.  1.
         25    2    1    2    0    0  0.00000000000E+00  0.00000000000E+00  0.14168740661E+04  0.14223775322E+04  0.12500289920E+03 0.  0.
    9000005    1    3    3    0    0 -0.28356557458E+02 -0.13525604072E+01  0.13419290390E+04  0.13422296634E+04  0.10000000000E+01 0.  0.
    9000005    1    3    3    0    0  0.28356557458E+02  0.13525604072E+01  0.74945027187E+02  0.80147868784E+02  0.10000000000E+01 0.  0.
<mgrwt>
<rscale>  0 0.12500290E+03</rscale>
<asrwt>0</asrwt>
<pdfrwt beam="2">  1        4 0.42334412E-03 0.12500290E+03</pdfrwt>
<pdfrwt beam="1">  1       -4 0.21840367E+00 0.12500290E+03</pdfrwt>
<totfact> 0.19504556E+03</totfact>
</mgrwt>
</event>
<event>
 5    1  0.3281209E-002  0.1249992E+03  0.7818608E-02  0.1235070E+00
          4   -1    0    0  501    0  0.00000000000E+00  0.00000000000E+00  0.11228263859E+03  0.11228982069E+03  0.12700000000E+01 0. -1.
         -4   -1    0    0    0  501 -0.00000000000E+00 -0.00000000000E+00 -0.34769132189E+02  0.34792318882E+02  0.12700000000E+01 0. -1.
         25    2    1    2    0    0  0.00000000000E+00  0.00000000000E+00  0.77513506405E+02  0.14708213957E+03  0.12499924842E+03 0.  0.
    9000005    1    3    3    0    0 -0.14300206430E+02  0.59062803232E+02  0.55901053180E+02  0.82576257945E+02  0.10000000000E+01 0.  0.
    9000005    1    3    3    0    0  0.14300206430E+02 -0.59062803232E+02  0.21612453225E+02  0.64505881623E+02  0.10000000000E+01 0.  0.
<mgrwt>
<rscale>  0 0.12499925E+03</rscale>
<asrwt>0</asrwt>
<pdfrwt beam="1">  1        4 0.17276588E-01 0.12499925E+03</pdfrwt>
<pdfrwt beam="2">  1       -4 0.53514333E-02 0.12499925E+03</pdfrwt>
<totfact> 0.99890232E+03</totfact>
</mgrwt>
</event>
<event>
 5    1  0.3281209E-002  0.1250036E+03  0.7818608E-02  0.1235064E+00
          4   -1    0    0  501    0  0.00000000000E+00  0.00000000000E+00  0.33069361269E+02  0.33093738905E+02  0.12700000000E+01 0.  1.
         -4   -1    0    0    0  501 -0.00000000000E+00 -0.00000000000E+00 -0.11805840768E+03  0.11806523842E+03  0.12700000000E+01 0.  1.
         25    2    1    2    0    0  0.00000000000E+00  0.00000000000E+00 -0.84989046411E+02  0.15115897733E+03  0.12500359362E+03 0.  0.
    9000005    1    3    3    0    0  0.34429798309E+02 -0.47605964635E+02 -0.16736476071E+02  0.61097041759E+02  0.10000000000E+01 0.  0.
    9000005    1    3    3    0    0 -0.34429798309E+02  0.47605964635E+02 -0.68252570340E+02  0.90061935569E+02  0.10000000000E+01 0.  0.
<mgrwt>
<rscale>  0 0.12500359E+03</rscale>
<asrwt>0</asrwt>
<pdfrwt beam="1">  1        4 0.50899947E-02 0.12500359E+03</pdfrwt>
<pdfrwt beam="2">  1       -4 0.18165232E-01 0.12500359E+03</pdfrwt>
<totfact> 0.99065162E+03</totfact>
</mgrwt>
</event>
<event>
 5    1  0.3281209E-002  0.1250014E+03  0.7818608E-02  0.1235067E+00
          4   -1    0    0  501    0  0.00000000000E+00  0.00000000000E+00  0.23851248916E+03  0.23851587030E+03  0.12700000000E+01 0. -1.
         -4   -1    0    0    0  501 -0.00000000000E+00 -0.00000000000E+00 -0.16349800315E+02  0.16399050898E+02  0.12700000000E+01 0. -1.
         25    2    1    2    0    0  0.00000000000E+00  0.00000000000E+00  0.22216268884E+03  0.25491492120E+03  0.12500142693E+03 0.  0.
    9000005    1    3    3    0    0 -0.49224121148E+02  0.37111047209E+02  0.13198738759E+03  0.14567743274E+03  0.10000000000E+01 0.  0.
    9000005    1    3    3    0    0  0.49224121148E+02 -0.37111047209E+02  0.90175301252E+02  0.10923748845E+03  0.10000000000E+01 0.  0.
<mgrwt>
<rscale>  0 0.12500143E+03</rscale>
<asrwt>0</asrwt>
<pdfrwt beam="1">  1        4 0.36698276E-01 0.12500143E+03</pdfrwt>
<pdfrwt beam="2">  1       -4 0.25194026E-02 0.12500143E+03</pdfrwt>
<totfact> 0.81622425E+03</totfact>
</mgrwt>
</event>
<event>
 5    1  0.3281209E-002  0.1249777E+03  0.7818608E-02  0.1235104E+00
          4   -1    0    0  501    0  0.00000000000E+00  0.00000000000E+00  0.28751596586E+03  0.28751877074E+03  0.12700000000E+01 0. -1.
         -4   -1    0    0    0  501 -0.00000000000E+00 -0.00000000000E+00 -0.13548781373E+02  0.13608173157E+02  0.12700000000E+01 0. -1.
         25    2    1    2    0    0  0.00000000000E+00  0.00000000000E+00  0.27396718449E+03  0.30112694389E+03  0.12497767065E+03 0.  0.
    9000005    1    3    3    0    0 -0.40180404845E+02 -0.33921477976E+02  0.21829027176E+03  0.22453679953E+03  0.10000000000E+01 0.  0.
    9000005    1    3    3    0    0  0.40180404845E+02  0.33921477976E+02  0.55676912734E+02  0.76590144361E+02  0.10000000000E+01 0.  0.
<mgrwt>
<rscale>  0 0.12497767E+03</rscale>
<asrwt>0</asrwt>
<pdfrwt beam="1">  1        4 0.44238009E-01 0.12497767E+03</pdfrwt>
<pdfrwt beam="2">  1       -4 0.20892123E-02 0.12497767E+03</pdfrwt>
<totfact> 0.75495106E+03</totfact>
</mgrwt>
</event>
<event>
 5    1  0.3281209E-002  0.1249978E+03  0.7818608E-02  0.1235073E+00
          4   -1    0    0  501    0  0.00000000000E+00  0.00000000000E+00  0.96372803704E+03  0.96372887384E+03  0.12700000000E+01 0. -1.
         -4   -1    0    0    0  501 -0.00000000000E+00 -0.00000000000E+00 -0.39527850492E+01  0.41517959542E+01  0.12700000000E+01 0. -1.
         25    2    1    2    0    0  0.00000000000E+00  0.00000000000E+00  0.95977525199E+03  0.96788066980E+03  0.12499782651E+03 0.  0.
    9000005    1    3    3    0    0 -0.99585762929E+01 -0.45184994205E+02  0.15465035677E+03  0.16142673196E+03  0.10000000000E+01 0.  0.
    9000005    1    3    3    0    0  0.99585762929E+01  0.45184994205E+02  0.80512489522E+03  0.80645393784E+03  0.10000000000E+01 0.  0.
<mgrwt>
<rscale>  0 0.12499783E+03</rscale>
<asrwt>0</asrwt>
<pdfrwt beam="1">  1        4 0.14828141E+00 0.12499783E+03</pdfrwt>
<pdfrwt beam="2">  1       -4 0.62349291E-03 0.12499783E+03</pdfrwt>
<totfact> 0.31690984E+03</totfact>
</mgrwt>
</event>
<event>
 5    1  0.3281209E-002  0.1249992E+03  0.7818608E-02  0.1235070E+00
         -4   -1    0    0    0  501 -0.00000000000E+00  0.00000000000E+00  0.39911051087E+02  0.39931252157E+02  0.12700000000E+01 0.  1.
          4   -1    0    0  501    0  0.00000000000E+00 -0.00000000000E+00 -0.97823626687E+02  0.97831870258E+02  0.12700000000E+01 0.  1.
         25    2    1    2    0    0  0.00000000000E+00  0.00000000000E+00 -0.57912575600E+02  0.13776312242E+03  0.12499924594E+03 0.  0.
    9000005    1    3    3    0    0  0.26402697329E+01 -0.25139618939E+02  0.34030441827E+02  0.42403330478E+02  0.10000000000E+01 0.  0.
    9000005    1    3    3    0    0 -0.26402697329E+01  0.25139618939E+02 -0.91943017427E+02  0.95359791937E+02  0.10000000000E+01 0.  0.
<mgrwt>
<rscale>  0 0.12499925E+03</rscale>
<asrwt>0</asrwt>
<pdfrwt beam="2">  1        4 0.15051977E-01 0.12499925E+03</pdfrwt>
<pdfrwt beam="1">  1       -4 0.61423498E-02 0.12499925E+03</pdfrwt>
<totfact> 0.10180327E+04</totfact>
</mgrwt>
</event>
<event>
 5    1  0.3281209E-002  0.1250043E+03  0.7818608E-02  0.1235063E+00
         -4   -1    0    0    0  501 -0.00000000000E+00  0.00000000000E+00  0.24996431412E+02  0.25028673223E+02  0.12700000000E+01 0.  1.
          4   -1    0    0  501    0  0.00000000000E+00 -0.00000000000E+00 -0.15614747425E+03  0.15615263883E+03  0.12700000000E+01 0.  1.
         25    2    1    2    0    0  0.00000000000E+00  0.00000000000E+00 -0.13115104283E+03  0.18118131205E+03  0.12500428713E+03 0.  0.
    9000005    1    3    3    0    0  0.63840714897E+00  0.60271793442E+02 -0.41652885841E+02  0.73273866742E+02  0.10000000000E+01 0.  0.
    9000005    1    3    3    0    0 -0.63840714897E+00 -0.60271793442E+02 -0.89498156994E+02  0.10790744531E+03  0.10000000000E+01 0.  0.
<mgrwt>
<rscale>  0 0.12500429E+03</rscale>
<asrwt>0</asrwt>
<pdfrwt beam="2">  1        4 0.24025565E-01 0.12500429E+03</pdfrwt>
<pdfrwt beam="1">  1       -4 0.38484823E-02 0.12500429E+03</pdfrwt>
<totfact> 0.93395818E+03</totfact>
</mgrwt>
</event>
<event>
 5    1  0.3281209E-002  0.1250025E+03  0.7818608E-02  0.1235065E+00
          4   -1    0    0  501    0  0.00000000000E+00  0.00000000000E+00  0.28282896611E+03  0.28283181747E+03  0.12700000000E+01 0.  1.
         -4   -1    0    0    0  501 -0.00000000000E+00 -0.00000000000E+00 -0.13779783885E+02  0.13838184271E+02  0.12700000000E+01 0.  1.
         25    2    1    2    0    0  0.00000000000E+00  0.00000000000E+00  0.26904918223E+03  0.29667000174E+03  0.12500250987E+03 0.  0.
    9000005    1    3    3    0    0 -0.18088129228E+02  0.59754936048E+02  0.12799299249E+03  0.14241151262E+03  0.10000000000E+01 0.  0.
    9000005    1    3    3    0    0  0.18088129228E+02 -0.59754936048E+02  0.14105618974E+03  0.15425848912E+03  0.10000000000E+01 0.  0.
<mgrwt>
<rscale>  0 0.12500251E+03</rscale>
<asrwt>0</asrwt>
<pdfrwt beam="1">  1        4 0.43516855E-01 0.12500251E+03</pdfrwt>
<pdfrwt beam="2">  1       -4 0.21246787E-02 0.12500251E+03</pdfrwt>
<totfact> 0.76014222E+03</totfact>
</mgrwt>
</event>
<event>
 4    1  0.3281209E-002  0.1252207E+03  0.7818608E-02  0.1234725E+00
         -4   -1    0    0    0  501 -0.00000000000E+00  0.00000000000E+00  0.30626974226E+02  0.30653294281E+02  0.12700000000E+01 0.  1.
          4   -1    0    0  501    0  0.00000000000E+00 -0.00000000000E+00 -0.12790918881E+03  0.12791549352E+03  0.12700000000E+01 0.  1.
    9000005    1    1    2    0    0 -0.29724217516E+02  0.11440758750E+02 -0.11688871970E+03  0.12115441743E+03  0.10000000000E+01 0.  0.
    9000005    1    1    2    0    0  0.29724217516E+02 -0.11440758750E+02  0.19606505118E+02  0.37414370376E+02  0.10000000000E+01 0.  0.
<mgrwt>
<rscale>  0 0.12522073E+03</rscale>
<asrwt>0</asrwt>
<pdfrwt beam="2">  1        4 0.19680846E-01 0.12522073E+03</pdfrwt>
<pdfrwt beam="1">  1       -4 0.47143518E-02 0.12522073E+03</pdfrwt>
<totfact> 0.97136590E+03</totfact>
</mgrwt>
</event>
<event>
 5    1  0.3281209E-002  0.1249963E+03  0.7818608E-02  0.1235075E+00
          4   -1    0    0  501    0  0.00000000000E+00  0.00000000000E+00  0.34127056912E+03  0.34127293220E+03  0.12700000000E+01 0. -1.
         -4   -1    0    0    0  501 -0.00000000000E+00 -0.00000000000E+00 -0.11407886451E+02  0.11478361088E+02  0.12700000000E+01 0. -1.
         25    2    1    2    0    0  0.00000000000E+00  0.00000000000E+00  0.32986268267E+03  0.35275129328E+03  0.12499634192E+03 0.  0.
    9000005    1    3    3    0    0  0.27553784260E+02 -0.51040690508E+02  0.99311869256E+02  0.11501395780E+03  0.10000000000E+01 0.  0.
    9000005    1    3    3    0    0 -0.27553784260E+02  0.51040690508E+02  0.23055081342E+03  0.23773733548E+03  0.10000000000E+01 0.  0.
<mgrwt>
<rscale>  0 0.12499634E+03</rscale>
<asrwt>0</asrwt>
<pdfrwt beam="1">  1        4 0.52508761E-01 0.12499634E+03</pdfrwt>
<pdfrwt beam="2">  1       -4 0.17606626E-02 0.12499634E+03</pdfrwt>
<totfact> 0.69428559E+03</totfact>
</mgrwt>
</event>
<event>
 5    1  0.3281209E-002  0.1250057E+03  0.7818608E-02  0.1235060E+00
         -4   -1    0    0    0  501 -0.00000000000E+00  0.00000000000E+00  0.31849687569E+02  0.31874998011E+02  0.12700000000E+01 0. -1.
          4   -1    0    0  501    0  0.00000000000E+00 -0.00000000000E+00 -0.12258024657E+03  0.12258682535E+03  0.12700000000E+01 0. -1.
         25    2    1    2    0    0  0.00000000000E+00  0.00000000000E+00 -0.90730559002E+02  0.15446182336E+03  0.12500568203E+03 0.  0.
    9000005    1    3    3    0    0 -0.12548086713E+02 -0.61011889252E+02 -0.39101186852E+02  0.73551396475E+02  0.10000000000E+01 0.  0.
    9000005    1    3    3    0    0  0.12548086713E+02  0.61011889252E+02 -0.51629372150E+02  0.80910426886E+02  0.10000000000E+01 0.  0.
<mgrwt>
<rscale>  0 0.12500568E+03</rscale>
<asrwt>0</asrwt>
<pdfrwt beam="2">  1        4 0.18860952E-01 0.12500568E+03</pdfrwt>
<pdfrwt beam="1">  1       -4 0.49024050E-02 0.12500568E+03</pdfrwt>
<totfact> 0.98408677E+03</totfact>
</mgrwt>
</event>
<event>
 5    1  0.3281209E-002  0.1249970E+03  0.7818608E-02  0.1235074E+00
          4   -1    0    0  501    0  0.00000000000E+00  0.00000000000E+00  0.48379750884E+02  0.48396417178E+02  0.12700000000E+01 0. -1.
         -4   -1    0    0    0  501 -0.00000000000E+00 -0.00000000000E+00 -0.80701937828E+02  0.80711930154E+02  0.12700000000E+01 0. -1.
         25    2    1    2    0    0  0.00000000000E+00  0.00000000000E+00 -0.32322186944E+02  0.12910834733E+03  0.12499696629E+03 0.  0.
    9000005    1    3    3    0    0  0.51316620534E+02 -0.17652349586E+02 -0.48165067021E+02  0.72566346677E+02  0.10000000000E+01 0.  0.
    9000005    1    3    3    0    0 -0.51316620534E+02  0.17652349586E+02  0.15842880077E+02  0.56542000655E+02  0.10000000000E+01 0.  0.
<mgrwt>
<rscale>  0 0.12499697E+03</rscale>
<asrwt>0</asrwt>
<pdfrwt beam="1">  1        4 0.74450893E-02 0.12499697E+03</pdfrwt>
<pdfrwt beam="2">  1       -4 0.12417733E-01 0.12499697E+03</pdfrwt>
<totfact> 0.10364329E+04</totfact>
</mgrwt>
</event>
<event>
 5    1  0.3281209E-002  0.1249991E+03  0.7818608E-02  0.1235071E+00
         -4   -1    0    0    0  501 -0.00000000000E+00  0.00000000000E+00  0.57871778620E+01  0.59248905143E+01  0.12700000000E+01 0. -1.
          4   -1    0    0  501    0  0.00000000000E+00 -0.00000000000E+00 -0.66689950548E+03  0.66690071473E+03  0.12700000000E+01 0. -1.
         25    2    1    2    0    0  0.00000000000E+00  0.00000000000E+00 -0.66111232762E+03  0.67282560525E+03  0.12499914138E+03 0.  0.
    9000005    1    3    3    0    0 -0.43077913185E+02  0.48138829983E+01 -0.88258573028E+02  0.98333391006E+02  0.10000000000E+01 0.  0.
    9000005    1    3    3    0    0  0.43077913185E+02 -0.48138829983E+01 -0.57285375459E+03  0.57449221424E+03  0.10000000000E+01 0.  0.
<mgrwt>
<rscale>  0 0.12499914E+03</rscale>
<asrwt>0</asrwt>
<pdfrwt beam="2">  1        4 0.10261055E+00 0.12499914E+03</pdfrwt>
<pdfrwt beam="1">  1       -4 0.90102188E-03 0.12499914E+03</pdfrwt>
<totfact> 0.44561391E+03</totfact>
</mgrwt>
</event>
<event>
 5    1  0.3281209E-002  0.1249989E+03  0.7818608E-02  0.1235071E+00
          4   -1    0    0  501    0  0.00000000000E+00  0.00000000000E+00  0.31419742722E+02  0.31445399230E+02  0.12700000000E+01 0.  1.
         -4   -1    0    0    0  501 -0.00000000000E+00 -0.00000000000E+00 -0.12424277601E+03  0.12424926676E+03  0.12700000000E+01 0.  1.
         25    2    1    2    0    0  0.00000000000E+00  0.00000000000E+00 -0.92823033285E+02  0.15569466599E+03  0.12499885403E+03 0.  0.
    9000005    1    3    3    0    0 -0.90889034606E+01 -0.17913654461E+02 -0.12011794800E+03  0.12179010064E+03  0.10000000000E+01 0.  0.
    9000005    1    3    3    0    0  0.90889034606E+01  0.17913654461E+02  0.27294914714E+02  0.33904565349E+02  0.10000000000E+01 0.  0.
<mgrwt>
<rscale>  0 0.12499885E+03</rscale>
<asrwt>0</asrwt>
<pdfrwt beam="1">  1        4 0.48362795E-02 0.12499885E+03</pdfrwt>
<pdfrwt beam="2">  1       -4 0.19116746E-01 0.12499885E+03</pdfrwt>
<totfact> 0.98181830E+03</totfact>
</mgrwt>
</event>
<event>
 5    1  0.3281209E-002  0.1250034E+03  0.7818608E-02  0.1235064E+00
         -4   -1    0    0    0  501 -0.00000000000E+00  0.00000000000E+00  0.94162934651E+02  0.94171498672E+02  0.12700000000E+01 0. -1.
          4   -1    0    0  501    0  0.00000000000E+00 -0.00000000000E+00 -0.41466054421E+02  0.41485498300E+02  0.12700000000E+01 0. -1.
         25    2    1    2    0    0  0.00000000000E+00  0.00000000000E+00  0.52696880230E+02  0.13565699697E+03  0.12500343852E+03 0.  0.
    9000005    1    3    3    0    0 -0.83382369955E+01 -0.44816292932E+02 -0.20043404025E+02  0.49807272093E+02  0.10000000000E+01 0.  0.
    9000005    1    3    3    0    0  0.83382369955E+01  0.44816292932E+02  0.72740284255E+02  0.85849724880E+02  0.10000000000E+01 0.  0.
<mgrwt>
<rscale>  0 0.12500344E+03</rscale>
<asrwt>0</asrwt>
<pdfrwt beam="2">  1        4 0.63815475E-02 0.12500344E+03</pdfrwt>
<pdfrwt beam="1">  1       -4 0.14488760E-01 0.12500344E+03</pdfrwt>
<totfact> 0.10223449E+04</totfact>
</mgrwt>
</event>
<event>
 5    1  0.3281209E-002  0.1250048E+03  0.7818608E-02  0.1235062E+00
         -4   -1    0    0    0  501 -0.00000000000E+00  0.00000000000E+00  0.80942496279E+03  0.80942595912E+03  0.12700000000E+01 0.  1.
          4   -1    0    0  501    0  0.00000000000E+00 -0.00000000000E+00 -0.47417614860E+01  0.49088900976E+01  0.12700000000E+01 0.  1.
         25    2    1    2    0    0  0.00000000000E+00  0.00000000000E+00  0.80468320131E+03  0.81433484921E+03  0.12500476863E+03 0.  0.
    9000005    1    3    3    0    0 -0.30179729650E+02 -0.54419155868E+02  0.43992677976E+03  0.44430713719E+03  0.10000000000E+01 0.  0.
    9000005    1    3    3    0    0  0.30179729650E+02  0.54419155868E+02  0.36475642154E+03  0.37002771202E+03  0.10000000000E+01 0.  0.
<mgrwt>
<rscale>  0 0.12500477E+03</rscale>
<asrwt>0</asrwt>
<pdfrwt beam="2">  1        4 0.74243447E-03 0.12500477E+03</pdfrwt>
<pdfrwt beam="1">  1       -4 0.12453985E+00 0.12500477E+03</pdfrwt>
<totfact> 0.37628820E+03</totfact>
</mgrwt>
</event>
<event>
 5    1  0.3281209E-002  0.1249990E+03  0.7818608E-02  0.1235071E+00
          4   -1    0    0  501    0  0.00000000000E+00  0.00000000000E+00  0.71846708502E+01  0.72960534007E+01  0.12700000000E+01 0. -1.
         -4   -1    0    0    0  501 -0.00000000000E+00 -0.00000000000E+00 -0.53938925662E+03  0.53939075173E+03  0.12700000000E+01 0. -1.
         25    2    1    2    0    0  0.00000000000E+00  0.00000000000E+00 -0.53220458577E+03  0.54668680513E+03  0.12499896718E+03 0.  0.
    9000005    1    3    3    0    0 -0.96488965408E+01 -0.59905977894E+02 -0.20073914214E+03  0.20971177978E+03  0.10000000000E+01 0.  0.
    9000005    1    3    3    0    0  0.96488965408E+01  0.59905977894E+02 -0.33146544362E+03  0.33697502535E+03  0.10000000000E+01 0.  0.
<mgrwt>
<rscale>  0 0.12499897E+03</rscale>
<asrwt>0</asrwt>
<pdfrwt beam="1">  1        4 0.11140173E-02 0.12499897E+03</pdfrwt>
<pdfrwt beam="2">  1       -4 0.82991614E-01 0.12499897E+03</pdfrwt>
<totfact> 0.52416874E+03</totfact>
</mgrwt>
</event>
<event>
 5    1  0.3281209E-002  0.1250025E+03  0.7818608E-02  0.1235065E+00
         -4   -1    0    0    0  501 -0.00000000000E+00  0.00000000000E+00  0.81597869108E+02  0.81607751734E+02  0.12700000000E+01 0.  1.
          4   -1    0    0  501    0  0.00000000000E+00 -0.00000000000E+00 -0.47852653298E+02  0.47869503107E+02  0.12700000000E+01 0.  1.
         25    2    1    2    0    0  0.00000000000E+00  0.00000000000E+00  0.33745215810E+02  0.12947725484E+03  0.12500247970E+03 0.  0.
    9000005    1    3    3    0    0  0.47567196947E+01 -0.49811035259E+02 -0.21906069966E+02  0.54631872723E+02  0.10000000000E+01 0.  0.
    9000005    1    3    3    0    0 -0.47567196947E+01  0.49811035259E+02  0.55651285776E+02  0.74845382118E+02  0.10000000000E+01 0.  0.
<mgrwt>
<rscale>  0 0.12500248E+03</rscale>
<asrwt>0</asrwt>
<pdfrwt beam="2">  1        4 0.73640030E-02 0.12500248E+03</pdfrwt>
<pdfrwt beam="1">  1       -4 0.12555575E-01 0.12500248E+03</pdfrwt>
<totfact> 0.10355123E+04</totfact>
</mgrwt>
</event>
<event>
 5    1  0.3281209E-002  0.1249999E+03  0.7818608E-02  0.1235069E+00
         -4   -1    0    0    0  501 -0.00000000000E+00  0.00000000000E+00  0.14430125209E+02  0.14485903960E+02  0.12700000000E+01 0.  1.
          4   -1    0    0  501    0  0.00000000000E+00 -0.00000000000E+00 -0.27012136379E+03  0.27012434928E+03  0.12700000000E+01 0.  1.
         25    2    1    2    0    0  0.00000000000E+00  0.00000000000E+00 -0.25569123858E+03  0.28461025324E+03  0.12499994706E+03 0.  0.
    9000005    1    3    3    0    0  0.43565874556E+02 -0.13384839851E+02 -0.30494363669E+02  0.54845652327E+02  0.10000000000E+01 0.  0.
    9000005    1    3    3    0    0 -0.43565874556E+02  0.13384839851E+02 -0.22519687491E+03  0.22976460091E+03  0.10000000000E+01 0.  0.
<mgrwt>
<rscale>  0 0.12499995E+03</rscale>
<asrwt>0</asrwt>
<pdfrwt beam="2">  1        4 0.41561650E-01 0.12499995E+03</pdfrwt>
<pdfrwt beam="1">  1       -4 0.22245398E-02 0.12499995E+03</pdfrwt>
<totfact> 0.77570857E+03</totfact>
</mgrwt>
</event>
<event>
 5    1  0.3281209E-002  0.1249978E+03  0.7818608E-02  0.1235073E+00
          4   -1    0    0  501    0  0.00000000000E+00  0.00000000000E+00  0.42014856950E+02  0.42034046968E+02  0.12700000000E+01 0.  1.
         -4   -1    0    0    0  501 -0.00000000000E+00 -0.00000000000E+00 -0.92925057804E+02  0.92933735898E+02  0.12700000000E+01 0.  1.
         25    2    1    2    0    0  0.00000000000E+00  0.00000000000E+00 -0.50910200854E+02  0.13496778287E+03  0.12499781542E+03 0.  0.
    9000005    1    3    3    0    0 -0.11188870726E+02 -0.57597530688E+02 -0.22352873683E+01  0.58725317190E+02  0.10000000000E+01 0.  0.
    9000005    1    3    3    0    0  0.11188870726E+02  0.57597530688E+02 -0.48674913486E+02  0.76242465676E+02  0.10000000000E+01 0.  0.
<mgrwt>
<rscale>  0 0.12499782E+03</rscale>
<asrwt>0</asrwt>
<pdfrwt beam="1">  1        4 0.64659679E-02 0.12499782E+03</pdfrwt>
<pdfrwt beam="2">  1       -4 0.14298306E-01 0.12499782E+03</pdfrwt>
<totfact> 0.10239254E+04</totfact>
</mgrwt>
</event>
<event>
 5    1  0.3281209E-002  0.1250000E+03  0.7818608E-02  0.1235069E+00
         -4   -1    0    0    0  501 -0.00000000000E+00  0.00000000000E+00  0.53567481515E+01  0.55052384833E+01  0.12700000000E+01 0.  1.
          4   -1    0    0  501    0  0.00000000000E+00 -0.00000000000E+00 -0.71910210363E+03  0.71910322510E+03  0.12700000000E+01 0.  1.
         25    2    1    2    0    0  0.00000000000E+00  0.00000000000E+00 -0.71374535548E+03  0.72460846358E+03  0.12499997210E+03 0.  0.
    9000005    1    3    3    0    0  0.45405236238E+02  0.33600580207E+02 -0.51183609399E+03  0.51494448398E+03  0.10000000000E+01 0.  0.
    9000005    1    3    3    0    0 -0.45405236238E+02 -0.33600580207E+02 -0.20190926149E+03  0.20966397960E+03  0.10000000000E+01 0.  0.
<mgrwt>
<rscale>  0 0.12499997E+03</rscale>
<asrwt>0</asrwt>
<pdfrwt beam="2">  1        4 0.11064253E+00 0.12499997E+03</pdfrwt>
<pdfrwt beam="1">  1       -4 0.83562427E-03 0.12499997E+03</pdfrwt>
<totfact> 0.41819081E+03</totfact>
</mgrwt>
</event>
<event>
 5    1  0.3281209E-002  0.1249984E+03  0.7818608E-02  0.1235072E+00
         -4   -1    0    0    0  501 -0.00000000000E+00  0.00000000000E+00  0.20572255753E+03  0.20572647758E+03  0.12700000000E+01 0.  1.
          4   -1    0    0  501    0  0.00000000000E+00 -0.00000000000E+00 -0.18962126393E+02  0.19004608319E+02  0.12700000000E+01 0.  1.
         25    2    1    2    0    0  0.00000000000E+00  0.00000000000E+00  0.18676043114E+03  0.22473108590E+03  0.12499840931E+03 0.  0.
    9000005    1    3    3    0    0 -0.61277099135E+01 -0.59190187050E+02  0.12768723785E+03  0.14087603693E+03  0.10000000000E+01 0.  0.
    9000005    1    3    3    0    0  0.61277099135E+01  0.59190187050E+02  0.59073193285E+02  0.83855048964E+02  0.10000000000E+01 0.  0.
<mgrwt>
<rscale>  0 0.12499841E+03</rscale>
<asrwt>0</asrwt>
<pdfrwt beam="2">  1        4 0.29208195E-02 0.12499841E+03</pdfrwt>
<pdfrwt beam="1">  1       -4 0.31653194E-01 0.12499841E+03</pdfrwt>
<totfact> 0.86128267E+03</totfact>
</mgrwt>
</event>
<event>
 5    1  0.3281209E-002  0.1249986E+03  0.7818608E-02  0.1235071E+00
          4   -1    0    0  501    0  0.00000000000E+00  0.00000000000E+00  0.93258374414E+02  0.93267021494E+02  0.12700000000E+01 0.  1.
         -4   -1    0    0    0  501 -0.00000000000E+00 -0.00000000000E+00 -0.41865190723E+02  0.41884449314E+02  0.12700000000E+01 0.  1.
         25    2    1    2    0    0  0.00000000000E+00  0.00000000000E+00  0.51393183691E+02  0.13515147081E+03  0.12499864292E+03 0.  0.
    9000005    1    3    3    0    0 -0.11356611665E+02 -0.93353266935E+01  0.91367407357E+02  0.92547955569E+02  0.10000000000E+01 0.  0.
    9000005    1    3    3    0    0  0.11356611665E+02  0.93353266935E+01 -0.39974223666E+02  0.42603515238E+02  0.10000000000E+01 0.  0.
<mgrwt>
<rscale>  0 0.12499864E+03</rscale>
<asrwt>0</asrwt>
<pdfrwt beam="1">  1        4 0.14349589E-01 0.12499864E+03</pdfrwt>
<pdfrwt beam="2">  1       -4 0.64429452E-02 0.12499864E+03</pdfrwt>
<totfact> 0.10235193E+04</totfact>
</mgrwt>
</event>
<event>
 5    1  0.3281209E-002  0.1249529E+03  0.7818608E-02  0.1235143E+00
         -4   -1    0    0    0  501 -0.00000000000E+00  0.00000000000E+00  0.14685267681E+04  0.14685273173E+04  0.12700000000E+01 0.  1.
          4   -1    0    0  501    0  0.00000000000E+00 -0.00000000000E+00 -0.25056901620E+01  0.28091605842E+01  0.12700000000E+01 0.  1.
         25    2    1    2    0    0  0.00000000000E+00  0.00000000000E+00  0.14660210780E+04  0.14713364779E+04  0.12495291139E+03 0.  0.
    9000005    1    3    3    0    0 -0.43024347050E+02 -0.45268279327E+02  0.74964627237E+03  0.75224387351E+03  0.10000000000E+01 0.  0.
    9000005    1    3    3    0    0  0.43024347050E+02  0.45268279327E+02  0.71637480560E+03  0.71909260436E+03  0.10000000000E+01 0.  0.
<mgrwt>
<rscale>  0 0.12495291E+03</rscale>
<asrwt>0</asrwt>
<pdfrwt beam="2">  1        4 0.40887669E-03 0.12495291E+03</pdfrwt>
<pdfrwt beam="1">  1       -4 0.22595071E+00 0.12495291E+03</pdfrwt>
<totfact> 0.18518954E+03</totfact>
</mgrwt>
</event>
<event>
 5    1  0.3281209E-002  0.1249980E+03  0.7818608E-02  0.1235072E+00
         -4   -1    0    0    0  501 -0.00000000000E+00  0.00000000000E+00  0.29202942677E+02  0.29230545000E+02  0.12700000000E+01 0. -1.
          4   -1    0    0  501    0  0.00000000000E+00 -0.00000000000E+00 -0.13366415903E+03  0.13367019230E+03  0.12700000000E+01 0. -1.
         25    2    1    2    0    0  0.00000000000E+00  0.00000000000E+00 -0.10446121635E+03  0.16290073730E+03  0.12499801795E+03 0.  0.
    9000005    1    3    3    0    0  0.35647225734E+02 -0.45117577945E+01 -0.11886163277E+03  0.12417797069E+03  0.10000000000E+01 0.  0.
    9000005    1    3    3    0    0 -0.35647225734E+02  0.45117577945E+01  0.14400416413E+02  0.38722766609E+02  0.10000000000E+01 0.  0.
<mgrwt>
<rscale>  0 0.12499802E+03</rscale>
<asrwt>0</asrwt>
<pdfrwt beam="2">  1        4 0.20566304E-01 0.12499802E+03</pdfrwt>
<pdfrwt beam="1">  1       -4 0.44953479E-02 0.12499802E+03</pdfrwt>
<totfact> 0.96790754E+03</totfact>
</mgrwt>
</event>
<event>
 5    1  0.3281209E-002  0.1250015E+03  0.7818608E-02  0.1235067E+00
          4   -1    0    0  501    0  0.00000000000E+00  0.00000000000E+00  0.24642274527E+02  0.24674979106E+02  0.12700000000E+01 0. -1.
         -4   -1    0    0    0  501 -0.00000000000E+00 -0.00000000000E+00 -0.15838177815E+03  0.15838686988E+03  0.12700000000E+01 0. -1.
         25    2    1    2    0    0  0.00000000000E+00  0.00000000000E+00 -0.13373950363E+03  0.18306184899E+03  0.12500154289E+03 0.  0.
    9000005    1    3    3    0    0  0.42149789228E+01 -0.22309150428E+02  0.18396029063E+02  0.29238298948E+02  0.10000000000E+01 0.  0.
    9000005    1    3    3    0    0 -0.42149789228E+01  0.22309150428E+02 -0.15213553269E+03  0.15382355004E+03  0.10000000000E+01 0.  0.
<mgrwt>
<rscale>  0 0.12500154E+03</rscale>
<asrwt>0</asrwt>
<pdfrwt beam="1">  1        4 0.37940267E-02 0.12500154E+03</pdfrwt>
<pdfrwt beam="2">  1       -4 0.24369334E-01 0.12500154E+03</pdfrwt>
<totfact> 0.93065528E+03</totfact>
</mgrwt>
</event>
<event>
 5    1  0.3281209E-002  0.1249997E+03  0.7818608E-02  0.1235070E+00
         -4   -1    0    0    0  501 -0.00000000000E+00  0.00000000000E+00  0.41569677553E+02  0.41589072986E+02  0.12700000000E+01 0.  1.
          4   -1    0    0  501    0  0.00000000000E+00 -0.00000000000E+00 -0.93922608106E+02  0.93931194038E+02  0.12700000000E+01 0.  1.
         25    2    1    2    0    0  0.00000000000E+00  0.00000000000E+00 -0.52352930553E+02  0.13552026702E+03  0.12499965375E+03 0.  0.
    9000005    1    3    3    0    0  0.50277033905E+02  0.16326815129E+02 -0.62311598759E+02  0.81719522578E+02  0.10000000000E+01 0.  0.
    9000005    1    3    3    0    0 -0.50277033905E+02 -0.16326815129E+02  0.99586682065E+01  0.53800744446E+02  0.10000000000E+01 0.  0.
<mgrwt>
<rscale>  0 0.12499965E+03</rscale>
<asrwt>0</asrwt>
<pdfrwt beam="2">  1        4 0.14451784E-01 0.12499965E+03</pdfrwt>
<pdfrwt beam="1">  1       -4 0.63974874E-02 0.12499965E+03</pdfrwt>
<totfact> 0.10227196E+04</totfact>
</mgrwt>
</event>
<event>
 5    1  0.3281209E-002  0.1250005E+03  0.7818608E-02  0.1235068E+00
          4   -1    0    0  501    0  0.00000000000E+00  0.00000000000E+00  0.16300096710E+04  0.16300101657E+04  0.12700000000E+01 0.  1.
         -4   -1    0    0    0  501 -0.00000000000E+00 -0.00000000000E+00 -0.22276909387E+01  0.25642751254E+01  0.12700000000E+01 0.  1.
         25    2    1    2    0    0  0.00000000000E+00  0.00000000000E+00  0.16277819800E+04  0.16325744408E+04  0.12500052157E+03 0.  0.
    9000005    1    3    3    0    0 -0.51538152806E+02 -0.30815478885E+02  0.10399204972E+04  0.10416532127E+04  0.10000000000E+01 0.  0.
    9000005    1    3    3    0    0  0.51538152806E+02  0.30815478885E+02  0.58786148279E+03  0.59092122815E+03  0.10000000000E+01 0.  0.
<mgrwt>
<rscale>  0 0.12500052E+03</rscale>
<asrwt>0</asrwt>
<pdfrwt beam="1">  1        4 0.25079730E+00 0.12500052E+03</pdfrwt>
<pdfrwt beam="2">  1       -4 0.36864987E-03 0.12500052E+03</pdfrwt>
<totfact> 0.15464201E+03</totfact>
</mgrwt>
</event>
<event>
 5    1  0.3281209E-002  0.1250050E+03  0.7818608E-02  0.1235061E+00
         -4   -1    0    0    0  501 -0.00000000000E+00  0.00000000000E+00  0.42566351482E+03  0.42566540939E+03  0.12700000000E+01 0.  1.
          4   -1    0    0  501    0  0.00000000000E+00 -0.00000000000E+00 -0.91317286378E+01  0.92196186426E+01  0.12700000000E+01 0.  1.
         25    2    1    2    0    0  0.00000000000E+00  0.00000000000E+00  0.41653178618E+03  0.43488502803E+03  0.12500503472E+03 0.  0.
    9000005    1    3    3    0    0 -0.32727220994E+02  0.14947539070E+01  0.23120263827E+02  0.40110495917E+02  0.10000000000E+01 0.  0.
    9000005    1    3    3    0    0  0.32727220994E+02 -0.14947539070E+01  0.39341152236E+03  0.39477453211E+03  0.10000000000E+01 0.  0.
<mgrwt>
<rscale>  0 0.12500503E+03</rscale>
<asrwt>0</asrwt>
<pdfrwt beam="2">  1        4 0.14117880E-02 0.12500503E+03</pdfrwt>
<pdfrwt beam="1">  1       -4 0.65493595E-01 0.12500503E+03</pdfrwt>
<totfact> 0.61288876E+03</totfact>
</mgrwt>
</event>
<event>
 4    1  0.3281209E-002  0.1249386E+03  0.7818608E-02  0.1235165E+00
         -4   -1    0    0    0  501 -0.00000000000E+00  0.00000000000E+00  0.57430682347E+03  0.57430822768E+03  0.12700000000E+01 0. -1.
          4   -1    0    0  501    0  0.00000000000E+00 -0.00000000000E+00 -0.67342289038E+01  0.68529365187E+01  0.12700000000E+01 0. -1.
    9000005    1    1    2    0    0 -0.45917163795E+02 -0.55499769073E+01  0.47905407148E+03  0.48128265248E+03  0.10000000000E+01 0.  0.
    9000005    1    1    2    0    0  0.45917163795E+02  0.55499769073E+01  0.88518523083E+02  0.99878511721E+02  0.10000000000E+01 0.  0.
<mgrwt>
<rscale>  0 0.12493858E+03</rscale>
<asrwt>0</asrwt>
<pdfrwt beam="2">  1        4 0.10452746E-02 0.12493858E+03</pdfrwt>
<pdfrwt beam="1">  1       -4 0.88364131E-01 0.12493858E+03</pdfrwt>
<totfact> 0.50146320E+03</totfact>
</mgrwt>
</event>
<event>
 5    1  0.3281209E-002  0.1250001E+03  0.7818608E-02  0.1235069E+00
          4   -1    0    0  501    0  0.00000000000E+00  0.00000000000E+00  0.15563891636E+02  0.15615621117E+02  0.12700000000E+01 0.  1.
         -4   -1    0    0    0  501 -0.00000000000E+00 -0.00000000000E+00 -0.25051238193E+03  0.25051560111E+03  0.12700000000E+01 0.  1.
         25    2    1    2    0    0  0.00000000000E+00  0.00000000000E+00 -0.23494849029E+03  0.26613122222E+03  0.12500013741E+03 0.  0.
    9000005    1    3    3    0    0  0.50954317102E+02  0.36178349689E+02 -0.11791660922E+03  0.13345614317E+03  0.10000000000E+01 0.  0.
    9000005    1    3    3    0    0 -0.50954317102E+02 -0.36178349689E+02 -0.11703188107E+03  0.13267507906E+03  0.10000000000E+01 0.  0.
<mgrwt>
<rscale>  0 0.12500014E+03</rscale>
<asrwt>0</asrwt>
<pdfrwt beam="1">  1        4 0.23986719E-02 0.12500014E+03</pdfrwt>
<pdfrwt beam="2">  1       -4 0.38544590E-01 0.12500014E+03</pdfrwt>
<totfact> 0.80053013E+03</totfact>
</mgrwt>
</event>
<event>
 5    1  0.3281209E-002  0.1250045E+03  0.7818608E-02  0.1235062E+00
         -4   -1    0    0    0  501 -0.00000000000E+00  0.00000000000E+00  0.22999581406E+03  0.22999932041E+03  0.12700000000E+01 0. -1.
          4   -1    0    0  501    0  0.00000000000E+00 -0.00000000000E+00 -0.16957849404E+02  0.17005339056E+02  0.12700000000E+01 0. -1.
         25    2    1    2    0    0  0.00000000000E+00  0.00000000000E+00  0.21303796466E+03  0.24700465946E+03  0.12500450955E+03 0.  0.
    9000005    1    3    3    0    0  0.11010563018E+02 -0.17151366403E+01  0.22802655464E+03  0.22830086249E+03  0.10000000000E+01 0.  0.
    9000005    1    3    3    0    0 -0.11010563018E+02  0.17151366403E+01 -0.14988589979E+02  0.18703796974E+02  0.10000000000E+01 0.  0.
<mgrwt>
<rscale>  0 0.12500451E+03</rscale>
<asrwt>0</asrwt>
<pdfrwt beam="2">  1        4 0.26128229E-02 0.12500451E+03</pdfrwt>
<pdfrwt beam="1">  1       -4 0.35387891E-01 0.12500451E+03</pdfrwt>
<totfact> 0.82756770E+03</totfact>
</mgrwt>
</event>
<event>
 5    1  0.3281209E-002  0.1250019E+03  0.7818608E-02  0.1235066E+00
         -4   -1    0    0    0  501 -0.00000000000E+00  0.00000000000E+00  0.34998764044E+02  0.35021798706E+02  0.12700000000E+01 0.  1.
          4   -1    0    0  501    0  0.00000000000E+00 -0.00000000000E+00 -0.11155106739E+03  0.11155829658E+03  0.12700000000E+01 0.  1.
         25    2    1    2    0    0  0.00000000000E+00  0.00000000000E+00 -0.76552303345E+02  0.14658009529E+03  0.12500187673E+03 0.  0.
    9000005    1    3    3    0    0  0.31270945289E+02  0.49199781468E+02 -0.11875802863E+02  0.59502312640E+02  0.10000000000E+01 0.  0.
    9000005    1    3    3    0    0 -0.31270945289E+02 -0.49199781468E+02 -0.64676500483E+02  0.87077782646E+02  0.10000000000E+01 0.  0.
<mgrwt>
<rscale>  0 0.12500188E+03</rscale>
<asrwt>0</asrwt>
<pdfrwt beam="2">  1        4 0.17164031E-01 0.12500188E+03</pdfrwt>
<pdfrwt beam="1">  1       -4 0.53867533E-02 0.12500188E+03</pdfrwt>
<totfact> 0.99985602E+03</totfact>
</mgrwt>
</event>
<event>
 5    1  0.3281209E-002  0.1249993E+03  0.7818608E-02  0.1235070E+00
          4   -1    0    0  501    0  0.00000000000E+00  0.00000000000E+00  0.70947392800E+01  0.72075117378E+01  0.12700000000E+01 0.  1.
         -4   -1    0    0    0  501 -0.00000000000E+00 -0.00000000000E+00 -0.54612330096E+03  0.54612477764E+03  0.12700000000E+01 0.  1.
         25    2    1    2    0    0  0.00000000000E+00  0.00000000000E+00 -0.53902856168E+03  0.55333228938E+03  0.12499932864E+03 0.  0.
    9000005    1    3    3    0    0  0.58994983450E+02  0.19966214255E+02 -0.29215114721E+03  0.29871784446E+03  0.10000000000E+01 0.  0.
    9000005    1    3    3    0    0 -0.58994983450E+02 -0.19966214255E+02 -0.24687741447E+03  0.25461444492E+03  0.10000000000E+01 0.  0.
<mgrwt>
<rscale>  0 0.12499933E+03</rscale>
<asrwt>0</asrwt>
<pdfrwt beam="1">  1        4 0.11002872E-02 0.12499933E+03</pdfrwt>
<pdfrwt beam="2">  1       -4 0.84027725E-01 0.12499933E+03</pdfrwt>
<totfact> 0.51953233E+03</totfact>
</mgrwt>
</event>
<event>
 5    1  0.3281209E-002  0.1250030E+03  0.7818608E-02  0.1235065E+00
          4   -1    0    0  501    0  0.00000000000E+00  0.00000000000E+00  0.47935840298E+02  0.47952660876E+02  0.12700000000E+01 0.  1.
         -4   -1    0    0    0  501 -0.00000000000E+00 -0.00000000000E+00 -0.81456950290E+02  0.81466850009E+02  0.12700000000E+01 0.  1.
         25    2    1    2    0    0  0.00000000000E+00  0.00000000000E+00 -0.33521109992E+02  0.12941951089E+03  0.12500297990E+03 0.  0.
    9000005    1    3    3    0    0  0.17358615635E+02  0.20577680616E+02 -0.75150619056E+02  0.79833439240E+02  0.10000000000E+01 0.  0.
    9000005    1    3    3    0    0 -0.17358615635E+02 -0.20577680616E+02  0.41629509064E+02  0.49586071646E+02  0.10000000000E+01 0.  0.
<mgrwt>
<rscale>  0 0.12500298E+03</rscale>
<asrwt>0</asrwt>
<pdfrwt beam="1">  1        4 0.73768001E-02 0.12500298E+03</pdfrwt>
<pdfrwt beam="2">  1       -4 0.12533894E-01 0.12500298E+03</pdfrwt>
<totfact> 0.10356244E+04</totfact>
</mgrwt>
</event>
<event>
 5    1  0.3281209E-002  0.1249986E+03  0.7818608E-02  0.1235072E+00
         -4   -1    0    0    0  501 -0.00000000000E+00  0.00000000000E+00  0.20437053590E+02  0.20476475757E+02  0.12700000000E+01 0.  1.
          4   -1    0    0  501    0  0.00000000000E+00 -0.00000000000E+00 -0.19090561960E+03  0.19090984389E+03  0.12700000000E+01 0.  1.
         25    2    1    2    0    0  0.00000000000E+00  0.00000000000E+00 -0.17046856601E+03  0.21138631965E+03  0.12499857654E+03 0.  0.
    9000005    1    3    3    0    0  0.39222097439E+02 -0.48554746234E+02 -0.90370561020E+02  0.10983521570E+03  0.10000000000E+01 0.  0.
    9000005    1    3    3    0    0 -0.39222097439E+02  0.48554746234E+02 -0.80098004989E+02  0.10155110395E+03  0.10000000000E+01 0.  0.
<mgrwt>
<rscale>  0 0.12499858E+03</rscale>
<asrwt>0</asrwt>
<pdfrwt beam="2">  1        4 0.29373452E-01 0.12499858E+03</pdfrwt>
<pdfrwt beam="1">  1       -4 0.31475196E-02 0.12499858E+03</pdfrwt>
<totfact> 0.88252785E+03</totfact>
</mgrwt>
</event>
<event>
 5    1  0.3281209E-002  0.1250044E+03  0.7818608E-02  0.1235062E+00
          4   -1    0    0  501    0  0.00000000000E+00  0.00000000000E+00  0.25679496544E+02  0.25710881797E+02  0.12700000000E+01 0.  1.
         -4   -1    0    0    0  501 -0.00000000000E+00 -0.00000000000E+00 -0.15199927130E+03  0.15200457682E+03  0.12700000000E+01 0.  1.
         25    2    1    2    0    0  0.00000000000E+00  0.00000000000E+00 -0.12631977475E+03  0.17771545862E+03  0.12500439488E+03 0.  0.
    9000005    1    3    3    0    0 -0.89019409160E+01  0.17049101982E+02  0.21374224467E+02  0.28771060148E+02  0.10000000000E+01 0.  0.
    9000005    1    3    3    0    0  0.89019409160E+01 -0.17049101982E+02 -0.14769399922E+03  0.14894439847E+03  0.10000000000E+01 0.  0.
<mgrwt>
<rscale>  0 0.12500439E+03</rscale>
<asrwt>0</asrwt>
<pdfrwt beam="1">  1        4 0.39535142E-02 0.12500439E+03</pdfrwt>
<pdfrwt beam="2">  1       -4 0.23387325E-01 0.12500439E+03</pdfrwt>
<totfact> 0.94020585E+03</totfact>
</mgrwt>
</event>
<event>
 5    1  0.3281209E-002  0.1250001E+03  0.7818608E-02  0.1235069E+00
          4   -1    0    0  501    0  0.00000000000E+00  0.00000000000E+00  0.45967102622E+02  0.45984643344E+02  0.12700000000E+01 0. -1.
         -4   -1    0    0    0  501 -0.00000000000E+00 -0.00000000000E+00 -0.84940917542E+02  0.84950411258E+02  0.12700000000E+01 0. -1.
         25    2    1    2    0    0  0.00000000000E+00  0.00000000000E+00 -0.38973814920E+02  0.13093505460E+03  0.12500012110E+03 0.  0.
    9000005    1    3    3    0    0 -0.60222198729E+02 -0.14364669716E+02 -0.28387438960E+02  0.68116838201E+02  0.10000000000E+01 0.  0.
    9000005    1    3    3    0    0  0.60222198729E+02  0.14364669716E+02 -0.10586375960E+02  0.62818216401E+02  0.10000000000E+01 0.  0.
<mgrwt>
<rscale>  0 0.12500012E+03</rscale>
<asrwt>0</asrwt>
<pdfrwt beam="1">  1        4 0.70739415E-02 0.12500012E+03</pdfrwt>
<pdfrwt beam="2">  1       -4 0.13069913E-01 0.12500012E+03</pdfrwt>
<totfact> 0.10324454E+04</totfact>
</mgrwt>
</event>
<event>
 5    1  0.3281209E-002  0.1249978E+03  0.7818608E-02  0.1235073E+00
         -4   -1    0    0    0  501 -0.00000000000E+00  0.00000000000E+00  0.94687354033E+02  0.94695870627E+02  0.12700000000E+01 0.  1.
          4   -1    0    0  501    0  0.00000000000E+00 -0.00000000000E+00 -0.41232604712E+02  0.41252158627E+02  0.12700000000E+01 0.  1.
         25    2    1    2    0    0  0.00000000000E+00  0.00000000000E+00  0.53454749321E+02  0.13594802925E+03  0.12499782571E+03 0.  0.
    9000005    1    3    3    0    0 -0.22469274151E+02  0.50426799864E+02 -0.51188580735E+01  0.55452079613E+02  0.10000000000E+01 0.  0.
    9000005    1    3    3    0    0  0.22469274151E+02 -0.50426799864E+02  0.58573607394E+02  0.80495949641E+02  0.10000000000E+01 0.  0.
<mgrwt>
<rscale>  0 0.12499783E+03</rscale>
<asrwt>0</asrwt>
<pdfrwt beam="2">  1        4 0.63456369E-02 0.12499783E+03</pdfrwt>
<pdfrwt beam="1">  1       -4 0.14569445E-01 0.12499783E+03</pdfrwt>
<totfact> 0.10218628E+04</totfact>
</mgrwt>
</event>
<event>
 5    1  0.3281209E-002  0.1250226E+03  0.7818608E-02  0.1235034E+00
         -4   -1    0    0    0  501 -0.00000000000E+00  0.00000000000E+00  0.86870549739E+02  0.86879832597E+02  0.12700000000E+01 0.  1.
          4   -1    0    0  501    0  0.00000000000E+00 -0.00000000000E+00 -0.44961906473E+02  0.44979839191E+02  0.12700000000E+01 0.  1.
         25    2    1    2    0    0  0.00000000000E+00  0.00000000000E+00  0.41908643266E+02  0.13185967179E+03  0.12502255262E+03 0.  0.
    9000005    1    3    3    0    0 -0.57793642290E+02  0.17500962117E+02  0.37969497293E+02  0.71337728369E+02  0.10000000000E+01 0.  0.
    9000005    1    3    3    0    0  0.57793642290E+02 -0.17500962117E+02  0.39391459738E+01  0.60521943419E+02  0.10000000000E+01 0.  0.
<mgrwt>
<rscale>  0 0.12502255E+03</rscale>
<asrwt>0</asrwt>
<pdfrwt beam="2">  1        4 0.69193099E-02 0.12502255E+03</pdfrwt>
<pdfrwt beam="1">  1       -4 0.13366794E-01 0.12502255E+03</pdfrwt>
<totfact> 0.10299454E+04</totfact>
</mgrwt>
</event>
<event>
 5    1  0.3281209E-002  0.1250108E+03  0.7818608E-02  0.1235052E+00
         -4   -1    0    0    0  501 -0.00000000000E+00  0.00000000000E+00  0.23959345594E+02  0.23992981084E+02  0.12700000000E+01 0. -1.
          4   -1    0    0  501    0  0.00000000000E+00 -0.00000000000E+00 -0.16291422683E+03  0.16291917691E+03  0.12700000000E+01 0. -1.
         25    2    1    2    0    0  0.00000000000E+00  0.00000000000E+00 -0.13895488124E+03  0.18691215799E+03  0.12501078268E+03 0.  0.
    9000005    1    3    3    0    0  0.44792282717E+02  0.24656728847E+02 -0.12321248838E+03  0.13340397356E+03  0.10000000000E+01 0.  0.
    9000005    1    3    3    0    0 -0.44792282717E+02 -0.24656728847E+02 -0.15742392858E+02  0.53508184433E+02  0.10000000000E+01 0.  0.
<mgrwt>
<rscale>  0 0.12501078E+03</rscale>
<asrwt>0</asrwt>
<pdfrwt beam="2">  1        4 0.25066695E-01 0.12501078E+03</pdfrwt>
<pdfrwt beam="1">  1       -4 0.36890214E-02 0.12501078E+03</pdfrwt>
<totfact> 0.92365065E+03</totfact>
</mgrwt>
</event>
<event>
 5    1  0.3281209E-002  0.1249993E+03  0.7818608E-02  0.1235070E+00
          4   -1    0    0  501    0  0.00000000000E+00  0.00000000000E+00  0.11229244925E+02  0.11300833667E+02  0.12700000000E+01 0.  1.
         -4   -1    0    0    0  501 -0.00000000000E+00 -0.00000000000E+00 -0.34668222309E+03  0.34668454928E+03  0.12700000000E+01 0.  1.
         25    2    1    2    0    0  0.00000000000E+00  0.00000000000E+00 -0.33545297817E+03  0.35798538295E+03  0.12499933536E+03 0.  0.
    9000005    1    3    3    0    0 -0.58055285836E+02 -0.18496524588E+02 -0.20747909184E+03  0.21624317605E+03  0.10000000000E+01 0.  0.
    9000005    1    3    3    0    0  0.58055285836E+02  0.18496524588E+02 -0.12797388633E+03  0.14174220690E+03  0.10000000000E+01 0.  0.
<mgrwt>
<rscale>  0 0.12499934E+03</rscale>
<asrwt>0</asrwt>
<pdfrwt beam="1">  1        4 0.17332622E-02 0.12499934E+03</pdfrwt>
<pdfrwt beam="2">  1       -4 0.53341404E-01 0.12499934E+03</pdfrwt>
<totfact> 0.68855925E+03</totfact>
</mgrwt>
</event>
<event>
 5    1  0.3281209E-002  0.1250035E+03  0.7818608E-02  0.1235064E+00
         -4   -1    0    0    0  501 -0.00000000000E+00  0.00000000000E+00  0.96645861773E+01  0.97476728494E+01  0.12700000000E+01 0.  1.
          4   -1    0    0  501    0  0.00000000000E+00 -0.00000000000E+00 -0.40239003858E+03  0.40239204272E+03  0.12700000000E+01 0.  1.
         25    2    1    2    0    0  0.00000000000E+00  0.00000000000E+00 -0.39272545240E+03  0.41213971557E+03  0.12500345671E+03 0.  0.
    9000005    1    3    3    0    0  0.41047144285E+02  0.19314701543E+02 -0.33807889542E+03  0.34111034179E+03  0.10000000000E+01 0.  0.
    9000005    1    3    3    0    0 -0.41047144285E+02 -0.19314701543E+02 -0.54646556981E+02  0.71029373779E+02  0.10000000000E+01 0.  0.
<mgrwt>
<rscale>  0 0.12500346E+03</rscale>
<asrwt>0</asrwt>
<pdfrwt beam="2">  1        4 0.61912692E-01 0.12500346E+03</pdfrwt>
<pdfrwt beam="1">  1       -4 0.14934052E-02 0.12500346E+03</pdfrwt>
<totfact> 0.63384147E+03</totfact>
</mgrwt>
</event>
<event>
 5    1  0.3281209E-002  0.1249996E+03  0.7818608E-02  0.1235070E+00
          4   -1    0    0  501    0  0.00000000000E+00  0.00000000000E+00  0.13613035867E+02  0.13672148533E+02  0.12700000000E+01 0. -1.
         -4   -1    0    0    0  501 -0.00000000000E+00 -0.00000000000E+00 -0.28626542079E+03  0.28626823792E+03  0.12700000000E+01 0. -1.
         25    2    1    2    0    0  0.00000000000E+00  0.00000000000E+00 -0.27265238492E+03  0.29994038645E+03  0.12499964968E+03 0.  0.
    9000005    1    3    3    0    0 -0.16317594724E+02  0.43587594081E+02 -0.23639222050E+03  0.24093240581E+03  0.10000000000E+01 0.  0.
    9000005    1    3    3    0    0  0.16317594724E+02 -0.43587594081E+02 -0.36260164420E+02  0.59007980639E+02  0.10000000000E+01 0.  0.
<mgrwt>
<rscale>  0 0.12499965E+03</rscale>
<asrwt>0</asrwt>
<pdfrwt beam="1">  1        4 0.20990773E-02 0.12499965E+03</pdfrwt>
<pdfrwt beam="2">  1       -4 0.44045593E-01 0.12499965E+03</pdfrwt>
<totfact> 0.75606907E+03</totfact>
</mgrwt>
</event>
<event>
 5    1  0.3281209E-002  0.1249975E+03  0.7818608E-02  0.1235073E+00
          4   -1    0    0  501    0  0.00000000000E+00  0.00000000000E+00  0.80362610175E+02  0.80372644688E+02  0.12700000000E+01 0. -1.
         -4   -1    0    0    0  501 -0.00000000000E+00 -0.00000000000E+00 -0.48584459981E+02  0.48601056076E+02  0.12700000000E+01 0. -1.
         25    2    1    2    0    0  0.00000000000E+00  0.00000000000E+00  0.31778150194E+02  0.12897370076E+03  0.12499745861E+03 0.  0.
    9000005    1    3    3    0    0  0.27163543932E+02  0.55340914437E+02  0.26442648177E+02  0.67087171443E+02  0.10000000000E+01 0.  0.
    9000005    1    3    3    0    0 -0.27163543932E+02 -0.55340914437E+02  0.53355020168E+01  0.61886529321E+02  0.10000000000E+01 0.  0.
<mgrwt>
<rscale>  0 0.12499746E+03</rscale>
<asrwt>0</asrwt>
<pdfrwt beam="1">  1        4 0.12365527E-01 0.12499746E+03</pdfrwt>
<pdfrwt beam="2">  1       -4 0.74765808E-02 0.12499746E+03</pdfrwt>
<totfact> 0.10367107E+04</totfact>
</mgrwt>
</event>
<event>
 5    1  0.3281209E-002  0.1250004E+03  0.7818608E-02  0.1235069E+00
         -4   -1    0    0    0  501 -0.00000000000E+00  0.00000000000E+00  0.26600114271E+02  0.26630414553E+02  0.12700000000E+01 0. -1.
          4   -1    0    0  501    0  0.00000000000E+00 -0.00000000000E+00 -0.14673516377E+03  0.14674065962E+03  0.12700000000E+01 0. -1.
         25    2    1    2    0    0  0.00000000000E+00  0.00000000000E+00 -0.12013504949E+03  0.17337107417E+03  0.12500039697E+03 0.  0.
    9000005    1    3    3    0    0  0.59694261246E+02 -0.87500656093E+01 -0.82658712205E+02  0.10233978296E+03  0.10000000000E+01 0.  0.
    9000005    1    3    3    0    0 -0.59694261246E+02  0.87500656093E+01 -0.37476337288E+02  0.71031291206E+02  0.10000000000E+01 0.  0.
<mgrwt>
<rscale>  0 0.12500040E+03</rscale>
<asrwt>0</asrwt>
<pdfrwt beam="2">  1        4 0.22577394E-01 0.12500040E+03</pdfrwt>
<pdfrwt beam="1">  1       -4 0.40950789E-02 0.12500040E+03</pdfrwt>
<totfact> 0.94823179E+03</totfact>
</mgrwt>
</event>
<event>
 5    1  0.3281209E-002  0.1249948E+03  0.7818608E-02  0.1235077E+00
         -4   -1    0    0    0  501 -0.00000000000E+00  0.00000000000E+00  0.40055242395E+02  0.40075370782E+02  0.12700000000E+01 0. -1.
          4   -1    0    0  501    0  0.00000000000E+00 -0.00000000000E+00 -0.97464635666E+02  0.97472909598E+02  0.12700000000E+01 0. -1.
         25    2    1    2    0    0  0.00000000000E+00  0.00000000000E+00 -0.57409393271E+02  0.13754828038E+03  0.12499476389E+03 0.  0.
    9000005    1    3    3    0    0  0.61374011345E+02  0.89354525439E+01 -0.37107790595E+02  0.72281392512E+02  0.10000000000E+01 0.  0.
    9000005    1    3    3    0    0 -0.61374011345E+02 -0.89354525439E+01 -0.20301602677E+02  0.65266887868E+02  0.10000000000E+01 0.  0.
<mgrwt>
<rscale>  0 0.12499476E+03</rscale>
<asrwt>0</asrwt>
<pdfrwt beam="2">  1        4 0.14996744E-01 0.12499476E+03</pdfrwt>
<pdfrwt beam="1">  1       -4 0.61645298E-02 0.12499476E+03</pdfrwt>
<totfact> 0.10185837E+04</totfact>
</mgrwt>
</event>
<event>
 5    1  0.3281209E-002  0.1249956E+03  0.7818608E-02  0.1235076E+00
         -4   -1    0    0    0  501 -0.00000000000E+00  0.00000000000E+00  0.78816891350E+01  0.79833529059E+01  0.12700000000E+01 0. -1.
          4   -1    0    0  501    0  0.00000000000E+00 -0.00000000000E+00 -0.49229774164E+03  0.49229937977E+03  0.12700000000E+01 0. -1.
         25    2    1    2    0    0  0.00000000000E+00  0.00000000000E+00 -0.48441605251E+03  0.50028273268E+03  0.12499560269E+03 0.  0.
    9000005    1    3    3    0    0 -0.27226065152E+02  0.55863453110E+02 -0.21596521610E+03  0.22473085810E+03  0.10000000000E+01 0.  0.
    9000005    1    3    3    0    0  0.27226065152E+02 -0.55863453110E+02 -0.26845083641E+03  0.27555187458E+03  0.10000000000E+01 0.  0.
<mgrwt>
<rscale>  0 0.12499560E+03</rscale>
<asrwt>0</asrwt>
<pdfrwt beam="2">  1        4 0.75746036E-01 0.12499560E+03</pdfrwt>
<pdfrwt beam="1">  1       -4 0.12205143E-02 0.12499560E+03</pdfrwt>
<totfact> 0.55847847E+03</totfact>
</mgrwt>
</event>
<event>
 5    1  0.3281209E-002  0.1250079E+03  0.7818608E-02  0.1235057E+00
          4   -1    0    0  501    0  0.00000000000E+00  0.00000000000E+00  0.11735014547E+03  0.11735701744E+03  0.12700000000E+01 0. -1.
         -4   -1    0    0    0  501 -0.00000000000E+00 -0.00000000000E+00 -0.33271383970E+02  0.33295613694E+02  0.12700000000E+01 0. -1.
         25    2    1    2    0    0  0.00000000000E+00  0.00000000000E+00  0.84078761503E+02  0.15065263113E+03  0.12500790828E+03 0.  0.
    9000005    1    3    3    0    0 -0.74848154527E+01  0.54614193579E+02  0.65538171902E+01  0.55521933705E+02  0.10000000000E+01 0.  0.
    9000005    1    3    3    0    0  0.74848154527E+01 -0.54614193579E+02  0.77524944313E+02  0.95130697429E+02  0.10000000000E+01 0.  0.
<mgrwt>
<rscale>  0 0.12500791E+03</rscale>
<asrwt>0</asrwt>
<pdfrwt beam="1">  1        4 0.18056261E-01 0.12500791E+03</pdfrwt>
<pdfrwt beam="2">  1       -4 0.51210669E-02 0.12500791E+03</pdfrwt>
<totfact> 0.99156117E+03</totfact>
</mgrwt>
</event>
<event>
 5    1  0.3281209E-002  0.1250000E+03  0.7818608E-02  0.1235069E+00
         -4   -1    0    0    0  501 -0.00000000000E+00  0.00000000000E+00  0.19672250275E+02  0.19713201944E+02  0.12700000000E+01 0.  1.
          4   -1    0    0  501    0  0.00000000000E+00 -0.00000000000E+00 -0.19831703223E+03  0.19832109866E+03  0.12700000000E+01 0.  1.
         25    2    1    2    0    0  0.00000000000E+00  0.00000000000E+00 -0.17864478196E+03  0.21803430060E+03  0.12499999248E+03 0.  0.
    9000005    1    3    3    0    0  0.51128531038E+02 -0.37037771481E+01 -0.15166415967E+03  0.16009641464E+03  0.10000000000E+01 0.  0.
    9000005    1    3    3    0    0 -0.51128531038E+02  0.37037771481E+01 -0.26980622288E+02  0.57937885967E+02  0.10000000000E+01 0.  0.
<mgrwt>
<rscale>  0 0.12499999E+03</rscale>
<asrwt>0</asrwt>
<pdfrwt beam="2">  1        4 0.30513774E-01 0.12499999E+03</pdfrwt>
<pdfrwt beam="1">  1       -4 0.30299631E-02 0.12499999E+03</pdfrwt>
<totfact> 0.87180370E+03</totfact>
</mgrwt>
</event>
<event>
 5    1  0.3281209E-002  0.1250021E+03  0.7818608E-02  0.1235066E+00
          4   -1    0    0  501    0  0.00000000000E+00  0.00000000000E+00  0.30042943650E+03  0.30043212081E+03  0.12700000000E+01 0. -1.
         -4   -1    0    0    0  501 -0.00000000000E+00 -0.00000000000E+00 -0.12968904520E+02  0.13030939508E+02  0.12700000000E+01 0. -1.
         25    2    1    2    0    0  0.00000000000E+00  0.00000000000E+00  0.28746053198E+03  0.31346306032E+03  0.12500213094E+03 0.  0.
    9000005    1    3    3    0    0  0.48887316932E+02  0.19198803409E+02  0.58808999286E+02  0.78854690451E+02  0.10000000000E+01 0.  0.
    9000005    1    3    3    0    0 -0.48887316932E+02 -0.19198803409E+02  0.22865153269E+03  0.23460836987E+03  0.10000000000E+01 0.  0.
<mgrwt>
<rscale>  0 0.12500213E+03</rscale>
<asrwt>0</asrwt>
<pdfrwt beam="1">  1        4 0.46224892E-01 0.12500213E+03</pdfrwt>
<pdfrwt beam="2">  1       -4 0.20001945E-02 0.12500213E+03</pdfrwt>
<totfact> 0.73936917E+03</totfact>
</mgrwt>
</event>
<event>
 5    1  0.3281209E-002  0.1250045E+03  0.7818608E-02  0.1235062E+00
          4   -1    0    0  501    0  0.00000000000E+00  0.00000000000E+00  0.12125224614E+02  0.12191553303E+02  0.12700000000E+01 0.  1.
         -4   -1    0    0    0  501 -0.00000000000E+00 -0.00000000000E+00 -0.32123577987E+03  0.32123829032E+03  0.12700000000E+01 0.  1.
         25    2    1    2    0    0  0.00000000000E+00  0.00000000000E+00 -0.30911055526E+03  0.33342984363E+03  0.12500450091E+03 0.  0.
    9000005    1    3    3    0    0  0.59938739867E+02  0.98595908652E+01 -0.19372684162E+03  0.20302943933E+03  0.10000000000E+01 0.  0.
    9000005    1    3    3    0    0 -0.59938739867E+02 -0.98595908652E+01 -0.11538371363E+03  0.13040040430E+03  0.10000000000E+01 0.  0.
<mgrwt>
<rscale>  0 0.12500450E+03</rscale>
<asrwt>0</asrwt>
<pdfrwt beam="1">  1        4 0.18707147E-02 0.12500450E+03</pdfrwt>
<pdfrwt beam="2">  1       -4 0.49426178E-01 0.12500450E+03</pdfrwt>
<totfact> 0.71579654E+03</totfact>
</mgrwt>
</event>
<event>
 5    1  0.3281209E-002  0.1250004E+03  0.7818608E-02  0.1235069E+00
         -4   -1    0    0    0  501 -0.00000000000E+00  0.00000000000E+00  0.45482104396E+03  0.45482281707E+03  0.12700000000E+01 0.  1.
          4   -1    0    0  501    0  0.00000000000E+00 -0.00000000000E+00 -0.85398544776E+01  0.86337717423E+01  0.12700000000E+01 0.  1.
         25    2    1    2    0    0  0.00000000000E+00  0.00000000000E+00  0.44628118948E+03  0.46345658882E+03  0.12500043852E+03 0.  0.
    9000005    1    3    3    0    0  0.40214356230E+02  0.29508849481E+02  0.83558385864E+02  0.97318911280E+02  0.10000000000E+01 0.  0.
    9000005    1    3    3    0    0 -0.40214356230E+02 -0.29508849481E+02  0.36272280362E+03  0.36613767754E+03  0.10000000000E+01 0.  0.
<mgrwt>
<rscale>  0 0.12500044E+03</rscale>
<asrwt>0</asrwt>
<pdfrwt beam="2">  1        4 0.13211840E-02 0.12500044E+03</pdfrwt>
<pdfrwt beam="1">  1       -4 0.69979857E-01 0.12500044E+03</pdfrwt>
<totfact> 0.58814939E+03</totfact>
</mgrwt>
</event>
<event>
 5    1  0.3281209E-002  0.1249979E+03  0.7818608E-02  0.1235073E+00
         -4   -1    0    0    0  501 -0.00000000000E+00  0.00000000000E+00  0.13223581150E+03  0.13224190993E+03  0.12700000000E+01 0. -1.
          4   -1    0    0  501    0  0.00000000000E+00 -0.00000000000E+00 -0.29518593452E+02  0.29545900890E+02  0.12700000000E+01 0. -1.
         25    2    1    2    0    0  0.00000000000E+00  0.00000000000E+00  0.10271721804E+03  0.16178781082E+03  0.12499787537E+03 0.  0.
    9000005    1    3    3    0    0  0.61483106738E+02 -0.57749930108E+01  0.38971291194E+02  0.73029339966E+02  0.10000000000E+01 0.  0.
    9000005    1    3    3    0    0 -0.61483106738E+02  0.57749930108E+01  0.63745926850E+02  0.88758470854E+02  0.10000000000E+01 0.  0.
<mgrwt>
<rscale>  0 0.12499788E+03</rscale>
<asrwt>0</asrwt>
<pdfrwt beam="2">  1        4 0.45438918E-02 0.12499788E+03</pdfrwt>
<pdfrwt beam="1">  1       -4 0.20346540E-01 0.12499788E+03</pdfrwt>
<totfact> 0.97003844E+03</totfact>
</mgrwt>
</event>
<event>
 5    1  0.3281209E-002  0.1249910E+03  0.7818608E-02  0.1235083E+00
          4   -1    0    0  501    0  0.00000000000E+00  0.00000000000E+00  0.53364745372E+02  0.53379855270E+02  0.12700000000E+01 0.  1.
         -4   -1    0    0    0  501 -0.00000000000E+00 -0.00000000000E+00 -0.73157611147E+02  0.73168633777E+02  0.12700000000E+01 0.  1.
         25    2    1    2    0    0  0.00000000000E+00  0.00000000000E+00 -0.19792865775E+02  0.12654848905E+03  0.12499104986E+03 0.  0.
    9000005    1    3    3    0    0  0.34961387638E+02 -0.10081347321E+00  0.42540628915E+02  0.55072805425E+02  0.10000000000E+01 0.  0.
    9000005    1    3    3    0    0 -0.34961387638E+02  0.10081347321E+00 -0.62333494690E+02  0.71475683622E+02  0.10000000000E+01 0.  0.
<mgrwt>
<rscale>  0 0.12499105E+03</rscale>
<asrwt>0</asrwt>
<pdfrwt beam="1">  1        4 0.82119710E-02 0.12499105E+03</pdfrwt>
<pdfrwt beam="2">  1       -4 0.11257027E-01 0.12499105E+03</pdfrwt>
<totfact> 0.10421076E+04</totfact>
</mgrwt>
</event>
<event>
 5    1  0.3281209E-002  0.1250011E+03  0.7818608E-02  0.1235068E+00
          4   -1    0    0  501    0  0.00000000000E+00  0.00000000000E+00  0.12393659576E+02  0.12458559214E+02  0.12700000000E+01 0. -1.
         -4   -1    0    0    0  501 -0.00000000000E+00 -0.00000000000E+00 -0.31429763683E+03  0.31430020270E+03  0.12700000000E+01 0. -1.
         25    2    1    2    0    0  0.00000000000E+00  0.00000000000E+00 -0.30190397726E+03  0.32675876192E+03  0.12500110802E+03 0.  0.
    9000005    1    3    3    0    0 -0.55294145637E+02  0.47708631476E+01 -0.75863948042E+02  0.94002884473E+02  0.10000000000E+01 0.  0.
    9000005    1    3    3    0    0  0.55294145637E+02 -0.47708631476E+01 -0.22604002921E+03  0.23275587744E+03  0.10000000000E+01 0.  0.
<mgrwt>
<rscale>  0 0.12500111E+03</rscale>
<asrwt>0</asrwt>
<pdfrwt beam="1">  1        4 0.19119067E-02 0.12500111E+03</pdfrwt>
<pdfrwt beam="2">  1       -4 0.48358667E-01 0.12500111E+03</pdfrwt>
<totfact> 0.72357632E+03</totfact>
</mgrwt>
</event>
<event>
 5    1  0.3281209E-002  0.1249999E+03  0.7818608E-02  0.1235069E+00
          4   -1    0    0  501    0  0.00000000000E+00  0.00000000000E+00  0.80153224987E+02  0.80163285709E+02  0.12700000000E+01 0. -1.
         -4   -1    0    0    0  501 -0.00000000000E+00 -0.00000000000E+00 -0.48713300899E+02  0.48729853114E+02  0.12700000000E+01 0. -1.
         25    2    1    2    0    0  0.00000000000E+00  0.00000000000E+00  0.31439924088E+02  0.12889313882E+03  0.12499988964E+03 0.  0.
    9000005    1    3    3    0    0  0.16177179664E+02  0.17254171416E+02 -0.43924821186E+02  0.49897870589E+02  0.10000000000E+01 0.  0.
    9000005    1    3    3    0    0 -0.16177179664E+02 -0.17254171416E+02  0.75364745274E+02  0.78995268234E+02  0.10000000000E+01 0.  0.
<mgrwt>
<rscale>  0 0.12499989E+03</rscale>
<asrwt>0</asrwt>
<pdfrwt beam="1">  1        4 0.12333312E-01 0.12499989E+03</pdfrwt>
<pdfrwt beam="2">  1       -4 0.74964012E-02 0.12499989E+03</pdfrwt>
<totfact> 0.10368269E+04</totfact>
</mgrwt>
</event>
<event>
 5    1  0.3281209E-002  0.1249995E+03  0.7818608E-02  0.1235070E+00
         -4   -1    0    0    0  501 -0.00000000000E+00  0.00000000000E+00  0.52345851417E+02  0.52361255338E+02  0.12700000000E+01 0.  1.
          4   -1    0    0  501    0  0.00000000000E+00 -0.00000000000E+00 -0.74591468794E+02  0.74602279569E+02  0.12700000000E+01 0.  1.
         25    2    1    2    0    0  0.00000000000E+00  0.00000000000E+00 -0.22245617378E+02  0.12696353491E+03  0.12499948681E+03 0.  0.
    9000005    1    3    3    0    0  0.29740238504E+02  0.46307538255E+02  0.18945505902E+02  0.58213418379E+02  0.10000000000E+01 0.  0.
    9000005    1    3    3    0    0 -0.29740238504E+02 -0.46307538255E+02 -0.41191123279E+02  0.68750116527E+02  0.10000000000E+01 0.  0.
<mgrwt>
<rscale>  0 0.12499949E+03</rscale>
<asrwt>0</asrwt>
<pdfrwt beam="2">  1        4 0.11477627E-01 0.12499949E+03</pdfrwt>
<pdfrwt beam="1">  1       -4 0.80552244E-02 0.12499949E+03</pdfrwt>
<totfact> 0.10410059E+04</totfact>
</mgrwt>
</event>
<event>
 5    1  0.3281209E-002  0.1249941E+03  0.7818608E-02  0.1235078E+00
         -4   -1    0    0    0  501 -0.00000000000E+00  0.00000000000E+00  0.61764794601E+02  0.61777850012E+02  0.12700000000E+01 0. -1.
          4   -1    0    0  501    0  0.00000000000E+00 -0.00000000000E+00 -0.63211883626E+02  0.63224640224E+02  0.12700000000E+01 0. -1.
         25    2    1    2    0    0  0.00000000000E+00  0.00000000000E+00 -0.14470890243E+01  0.12500249024E+03  0.12499411386E+03 0.  0.
    9000005    1    3    3    0    0  0.11880962063E+01 -0.60091309788E+02 -0.17827469365E+02  0.62699248389E+02  0.10000000000E+01 0.  0.
    9000005    1    3    3    0    0 -0.11880962063E+01  0.60091309788E+02  0.16380380341E+02  0.62303241848E+02  0.10000000000E+01 0.  0.
<mgrwt>
<rscale>  0 0.12499411E+03</rscale>
<asrwt>0</asrwt>
<pdfrwt beam="2">  1        4 0.97268907E-02 0.12499411E+03</pdfrwt>
<pdfrwt beam="1">  1       -4 0.95042616E-02 0.12499411E+03</pdfrwt>
<totfact> 0.10454199E+04</totfact>
</mgrwt>
</event>
<event>
 5    1  0.3281209E-002  0.1250043E+03  0.7818608E-02  0.1235063E+00
         -4   -1    0    0    0  501 -0.00000000000E+00  0.00000000000E+00  0.55229128053E+02  0.55243728020E+02  0.12700000000E+01 0. -1.
          4   -1    0    0  501    0  0.00000000000E+00 -0.00000000000E+00 -0.70703250094E+02  0.70714655297E+02  0.12700000000E+01 0. -1.
         25    2    1    2    0    0  0.00000000000E+00  0.00000000000E+00 -0.15474122041E+02  0.12595838332E+03  0.12500426343E+03 0.  0.
    9000005    1    3    3    0    0  0.25836010420E+02 -0.53849687792E+02  0.10794292163E+02  0.60702595110E+02  0.10000000000E+01 0.  0.
    9000005    1    3    3    0    0 -0.25836010420E+02  0.53849687792E+02 -0.26268414204E+02  0.65255788207E+02  0.10000000000E+01 0.  0.
<mgrwt>
<rscale>  0 0.12500426E+03</rscale>
<asrwt>0</asrwt>
<pdfrwt beam="2">  1        4 0.10879424E-01 0.12500426E+03</pdfrwt>
<pdfrwt beam="1">  1       -4 0.84987892E-02 0.12500426E+03</pdfrwt>
<totfact> 0.10430866E+04</totfact>
</mgrwt>
</event>
<event>
 5    1  0.3281209E-002  0.1250245E+03  0.7818608E-02  0.1235031E+00
          4   -1    0    0  501    0  0.00000000000E+00  0.00000000000E+00  0.15041631964E+04  0.15041637325E+04  0.12700000000E+01 0. -1.
         -4   -1    0    0    0  501 -0.00000000000E+00 -0.00000000000E+00 -0.24421992281E+01  0.27526781632E+01  0.12700000000E+01 0. -1.
         25    2    1    2    0    0  0.00000000000E+00  0.00000000000E+00  0.15017209972E+04  0.15069164107E+04  0.12502445967E+03 0.  0.
    9000005    1    3    3    0    0  0.28017061435E+02  0.48471558633E+02  0.41589818145E+03  0.41965074176E+03  0.10000000000E+01 0.  0.
    9000005    1    3    3    0    0 -0.28017061435E+02 -0.48471558633E+02  0.10858228157E+04  0.10872656689E+04  0.10000000000E+01 0.  0.
<mgrwt>
<rscale>  0 0.12502446E+03</rscale>
<asrwt>0</asrwt>
<pdfrwt beam="1">  1        4 0.23143448E+00 0.12502446E+03</pdfrwt>
<pdfrwt beam="2">  1       -4 0.39964576E-03 0.12502446E+03</pdfrwt>
<totfact> 0.17785242E+03</totfact>
</mgrwt>
</event>
<event>
 5    1  0.3281209E-002  0.1250058E+03  0.7818608E-02  0.1235060E+00
         -4   -1    0    0    0  501 -0.00000000000E+00  0.00000000000E+00  0.33470914683E+02  0.33495000071E+02  0.12700000000E+01 0.  1.
          4   -1    0    0  501    0  0.00000000000E+00 -0.00000000000E+00 -0.11664705214E+03  0.11665396553E+03  0.12700000000E+01 0.  1.
         25    2    1    2    0    0  0.00000000000E+00  0.00000000000E+00 -0.83176137458E+02  0.15014896560E+03  0.12500576798E+03 0.  0.
    9000005    1    3    3    0    0  0.43543877924E+02 -0.29606791916E+02 -0.82018021730E+02  0.97470956293E+02  0.10000000000E+01 0.  0.
    9000005    1    3    3    0    0 -0.43543877924E+02  0.29606791916E+02 -0.11581157280E+01  0.52678009304E+02  0.10000000000E+01 0.  0.
<mgrwt>
<rscale>  0 0.12500577E+03</rscale>
<asrwt>0</asrwt>
<pdfrwt beam="2">  1        4 0.17948085E-01 0.12500577E+03</pdfrwt>
<pdfrwt beam="1">  1       -4 0.51517561E-02 0.12500577E+03</pdfrwt>
<totfact> 0.99261127E+03</totfact>
</mgrwt>
</event>
<event>
 5    1  0.3281209E-002  0.1250034E+03  0.7818608E-02  0.1235064E+00
         -4   -1    0    0    0  501 -0.00000000000E+00  0.00000000000E+00  0.56099405608E+02  0.56113779142E+02  0.12700000000E+01 0.  1.
          4   -1    0    0  501    0  0.00000000000E+00 -0.00000000000E+00 -0.69605562247E+02  0.69617147282E+02  0.12700000000E+01 0.  1.
         25    2    1    2    0    0  0.00000000000E+00  0.00000000000E+00 -0.13506156639E+02  0.12573092642E+03  0.12500339832E+03 0.  0.
    9000005    1    3    3    0    0  0.24863399478E+02 -0.28113622060E+02  0.43506714979E+02  0.57466500043E+02  0.10000000000E+01 0.  0.
    9000005    1    3    3    0    0 -0.24863399478E+02  0.28113622060E+02 -0.57012871618E+02  0.68264426381E+02  0.10000000000E+01 0.  0.
<mgrwt>
<rscale>  0 0.12500340E+03</rscale>
<asrwt>0</asrwt>
<pdfrwt beam="2">  1        4 0.10710545E-01 0.12500340E+03</pdfrwt>
<pdfrwt beam="1">  1       -4 0.86326746E-02 0.12500340E+03</pdfrwt>
<totfact> 0.10436064E+04</totfact>
</mgrwt>
</event>
<event>
 5    1  0.3281209E-002  0.1249986E+03  0.7818608E-02  0.1235072E+00
         -4   -1    0    0    0  501 -0.00000000000E+00  0.00000000000E+00  0.71418390606E+02  0.71429681623E+02  0.12700000000E+01 0.  1.
          4   -1    0    0  501    0  0.00000000000E+00 -0.00000000000E+00 -0.54671039168E+02  0.54685788133E+02  0.12700000000E+01 0.  1.
         25    2    1    2    0    0  0.00000000000E+00  0.00000000000E+00  0.16747351438E+02  0.12611546976E+03  0.12499855172E+03 0.  0.
    9000005    1    3    3    0    0 -0.12230249289E+01  0.79116711287E+01 -0.54156470438E+02  0.54754119666E+02  0.10000000000E+01 0.  0.
    9000005    1    3    3    0    0  0.12230249289E+01 -0.79116711287E+01  0.70903821877E+02  0.71361350090E+02  0.10000000000E+01 0.  0.
<mgrwt>
<rscale>  0 0.12499855E+03</rscale>
<asrwt>0</asrwt>
<pdfrwt beam="2">  1        4 0.84129322E-02 0.12499855E+03</pdfrwt>
<pdfrwt beam="1">  1       -4 0.10989448E-01 0.12499855E+03</pdfrwt>
<totfact> 0.10428769E+04</totfact>
</mgrwt>
</event>
<event>
 5    1  0.3281209E-002  0.1249861E+03  0.7818608E-02  0.1235091E+00
          4   -1    0    0  501    0  0.00000000000E+00  0.00000000000E+00  0.80569907719E+02  0.80579916418E+02  0.12700000000E+01 0. -1.
         -4   -1    0    0    0  501 -0.00000000000E+00 -0.00000000000E+00 -0.48450652797E+02  0.48467294709E+02  0.12700000000E+01 0. -1.
         25    2    1    2    0    0  0.00000000000E+00  0.00000000000E+00  0.32119254922E+02  0.12904721113E+03  0.12498614388E+03 0.  0.
    9000005    1    3    3    0    0  0.26007070789E+02 -0.17950437924E+01 -0.42572783296E+02  0.49930269285E+02  0.10000000000E+01 0.  0.
    9000005    1    3    3    0    0 -0.26007070789E+02  0.17950437924E+01  0.74692038219E+02  0.79116941842E+02  0.10000000000E+01 0.  0.
<mgrwt>
<rscale>  0 0.12498614E+03</rscale>
<asrwt>0</asrwt>
<pdfrwt beam="1">  1        4 0.12397421E-01 0.12498614E+03</pdfrwt>
<pdfrwt beam="2">  1       -4 0.74559966E-02 0.12498614E+03</pdfrwt>
<totfact> 0.10368175E+04</totfact>
</mgrwt>
</event>
<event>
 5    1  0.3281209E-002  0.1250086E+03  0.7818608E-02  0.1235056E+00
         -4   -1    0    0    0  501 -0.00000000000E+00  0.00000000000E+00  0.71324550018E+02  0.71335855888E+02  0.12700000000E+01 0. -1.
          4   -1    0    0  501    0  0.00000000000E+00 -0.00000000000E+00 -0.54751751049E+02  0.54766478278E+02  0.12700000000E+01 0. -1.
         25    2    1    2    0    0  0.00000000000E+00  0.00000000000E+00  0.16572798969E+02  0.12610233417E+03  0.12500856377E+03 0.  0.
    9000005    1    3    3    0    0 -0.29256785495E+02  0.55054979841E+02  0.12657318590E+02  0.63625608183E+02  0.10000000000E+01 0.  0.
    9000005    1    3    3    0    0  0.29256785495E+02 -0.55054979841E+02  0.39154803787E+01  0.62476725982E+02  0.10000000000E+01 0.  0.
<mgrwt>
<rscale>  0 0.12500856E+03</rscale>
<asrwt>0</asrwt>
<pdfrwt beam="2">  1        4 0.84253489E-02 0.12500856E+03</pdfrwt>
<pdfrwt beam="1">  1       -4 0.10975010E-01 0.12500856E+03</pdfrwt>
<totfact> 0.10426700E+04</totfact>
</mgrwt>
</event>
<event>
 5    1  0.3281209E-002  0.1249985E+03  0.7818608E-02  0.1235072E+00
          4   -1    0    0  501    0  0.00000000000E+00  0.00000000000E+00  0.40953683968E+03  0.40953880885E+03  0.12700000000E+01 0. -1.
         -4   -1    0    0    0  501 -0.00000000000E+00 -0.00000000000E+00 -0.94937157138E+01  0.95782847136E+01  0.12700000000E+01 0. -1.
         25    2    1    2    0    0  0.00000000000E+00  0.00000000000E+00  0.40004312396E+03  0.41911709356E+03  0.12499854833E+03 0.  0.
    9000005    1    3    3    0    0  0.37271369751E+02 -0.45248138654E+02  0.27260479033E+03  0.27883852095E+03  0.10000000000E+01 0.  0.
    9000005    1    3    3    0    0 -0.37271369751E+02  0.45248138654E+02  0.12743833364E+03  0.14027857261E+03  0.10000000000E+01 0.  0.
<mgrwt>
<rscale>  0 0.12499855E+03</rscale>
<asrwt>0</asrwt>
<pdfrwt beam="1">  1        4 0.63012328E-01 0.12499855E+03</pdfrwt>
<pdfrwt beam="2">  1       -4 0.14672284E-02 0.12499855E+03</pdfrwt>
<totfact> 0.62737008E+03</totfact>
</mgrwt>
</event>
<event>
 5    1  0.3281209E-002  0.1250035E+03  0.7818608E-02  0.1235064E+00
          4   -1    0    0  501    0  0.00000000000E+00  0.00000000000E+00  0.76298982830E+02  0.76309551702E+02  0.12700000000E+01 0.  1.
         -4   -1    0    0    0  501 -0.00000000000E+00 -0.00000000000E+00 -0.51177454603E+02  0.51193210093E+02  0.12700000000E+01 0.  1.
         25    2    1    2    0    0  0.00000000000E+00  0.00000000000E+00  0.25121528227E+02  0.12750276180E+03  0.12500345229E+03 0.  0.
    9000005    1    3    3    0    0 -0.62410301776E+02  0.31149017169E+01  0.11696840224E+02  0.63581164284E+02  0.10000000000E+01 0.  0.
    9000005    1    3    3    0    0  0.62410301776E+02 -0.31149017169E+01  0.13424688003E+02  0.63921597511E+02  0.10000000000E+01 0.  0.
<mgrwt>
<rscale>  0 0.12500345E+03</rscale>
<asrwt>0</asrwt>
<pdfrwt beam="1">  1        4 0.11740330E-01 0.12500345E+03</pdfrwt>
<pdfrwt beam="2">  1       -4 0.78754795E-02 0.12500345E+03</pdfrwt>
<totfact> 0.10397430E+04</totfact>
</mgrwt>
</event>
<event>
 5    1  0.3281209E-002  0.1249995E+03  0.7818608E-02  0.1235070E+00
          4   -1    0    0  501    0  0.00000000000E+00  0.00000000000E+00  0.18405798822E+03  0.18406236967E+03  0.12700000000E+01 0. -1.
         -4   -1    0    0    0  501 -0.00000000000E+00 -0.00000000000E+00 -0.21199115490E+02  0.21237123100E+02  0.12700000000E+01 0. -1.
         25    2    1    2    0    0  0.00000000000E+00  0.00000000000E+00  0.16285887273E+03  0.20529949277E+03  0.12499947721E+03 0.  0.
    9000005    1    3    3    0    0  0.18207950336E+02  0.59772039508E+02  0.83064566585E+02  0.10394685365E+03  0.10000000000E+01 0.  0.
    9000005    1    3    3    0    0 -0.18207950336E+02 -0.59772039508E+02  0.79794306146E+02  0.10135263912E+03  0.10000000000E+01 0.  0.
<mgrwt>
<rscale>  0 0.12499948E+03</rscale>
<asrwt>0</asrwt>
<pdfrwt beam="1">  1        4 0.28319875E-01 0.12499948E+03</pdfrwt>
<pdfrwt beam="2">  1       -4 0.32646630E-02 0.12499948E+03</pdfrwt>
<totfact> 0.89250378E+03</totfact>
</mgrwt>
</event>
<event>
 5    1  0.3281209E-002  0.1250022E+03  0.7818608E-02  0.1235066E+00
         -4   -1    0    0    0  501 -0.00000000000E+00  0.00000000000E+00  0.68386532686E+02  0.68398324196E+02  0.12700000000E+01 0. -1.
          4   -1    0    0  501    0  0.00000000000E+00 -0.00000000000E+00 -0.57098422896E+02  0.57112545007E+02  0.12700000000E+01 0. -1.
         25    2    1    2    0    0  0.00000000000E+00  0.00000000000E+00  0.11288109790E+02  0.12551086920E+03  0.12500222744E+03 0.  0.
    9000005    1    3    3    0    0  0.15117168997E+02 -0.42076960146E+02 -0.38195833821E+02  0.58812592996E+02  0.10000000000E+01 0.  0.
    9000005    1    3    3    0    0 -0.15117168997E+02  0.42076960146E+02  0.49483943611E+02  0.66698276207E+02  0.10000000000E+01 0.  0.
<mgrwt>
<rscale>  0 0.12500223E+03</rscale>
<asrwt>0</asrwt>
<pdfrwt beam="2">  1        4 0.87863661E-02 0.12500223E+03</pdfrwt>
<pdfrwt beam="1">  1       -4 0.10522998E-01 0.12500223E+03</pdfrwt>
<totfact> 0.10441189E+04</totfact>
</mgrwt>
</event>
<event>
 5    1  0.3281209E-002  0.1249988E+03  0.7818608E-02  0.1235071E+00
         -4   -1    0    0    0  501 -0.00000000000E+00  0.00000000000E+00  0.62127665418E+03  0.62127795223E+03  0.12700000000E+01 0.  1.
          4   -1    0    0  501    0  0.00000000000E+00 -0.00000000000E+00 -0.62218808613E+01  0.63501733403E+01  0.12700000000E+01 0.  1.
         25    2    1    2    0    0  0.00000000000E+00  0.00000000000E+00  0.61505477332E+03  0.62762812557E+03  0.12499875930E+03 0.  0.
    9000005    1    3    3    0    0 -0.22375101726E+01 -0.40552914733E+02  0.54599551759E+03  0.54750493200E+03  0.10000000000E+01 0.  0.
    9000005    1    3    3    0    0  0.22375101726E+01  0.40552914733E+02  0.69059255735E+02  0.80123193570E+02  0.10000000000E+01 0.  0.
<mgrwt>
<rscale>  0 0.12499876E+03</rscale>
<asrwt>0</asrwt>
<pdfrwt beam="2">  1        4 0.96718046E-03 0.12499876E+03</pdfrwt>
<pdfrwt beam="1">  1       -4 0.95591040E-01 0.12499876E+03</pdfrwt>
<totfact> 0.47170091E+03</totfact>
</mgrwt>
</event>
<event>
 5    1  0.3281209E-002  0.1250130E+03  0.7818608E-02  0.1235049E+00
          4   -1    0    0  501    0  0.00000000000E+00  0.00000000000E+00  0.34910378448E+03  0.34910609453E+03  0.12700000000E+01 0. -1.
         -4   -1    0    0    0  501 -0.00000000000E+00 -0.00000000000E+00 -0.11153302283E+02  0.11225375353E+02  0.12700000000E+01 0. -1.
         25    2    1    2    0    0  0.00000000000E+00  0.00000000000E+00  0.33795048220E+03  0.36033146988E+03  0.12501295841E+03 0.  0.
    9000005    1    3    3    0    0 -0.38321783727E+01 -0.51645124165E+02  0.68127667190E+02  0.85582027774E+02  0.10000000000E+01 0.  0.
    9000005    1    3    3    0    0  0.38321783727E+01  0.51645124165E+02  0.26982281501E+03  0.27474944211E+03  0.10000000000E+01 0.  0.
<mgrwt>
<rscale>  0 0.12501296E+03</rscale>
<asrwt>0</asrwt>
<pdfrwt beam="1">  1        4 0.53713992E-01 0.12501296E+03</pdfrwt>
<pdfrwt beam="2">  1       -4 0.17216146E-02 0.12501296E+03</pdfrwt>
<totfact> 0.68583067E+03</totfact>
</mgrwt>
</event>
<event>
 5    1  0.3281209E-002  0.1250024E+03  0.7818608E-02  0.1235066E+00
         -4   -1    0    0    0  501 -0.00000000000E+00  0.00000000000E+00  0.64816592445E+01  0.66049077633E+01  0.12700000000E+01 0. -1.
          4   -1    0    0  501    0  0.00000000000E+00 -0.00000000000E+00 -0.59688515524E+03  0.59688650634E+03  0.12700000000E+01 0. -1.
         25    2    1    2    0    0  0.00000000000E+00  0.00000000000E+00 -0.59040349600E+03  0.60349141410E+03  0.12500239521E+03 0.  0.
    9000005    1    3    3    0    0 -0.26378252145E+02 -0.81847183246E+01 -0.56584497875E+03  0.56651949814E+03  0.10000000000E+01 0.  0.
    9000005    1    3    3    0    0  0.26378252145E+02  0.81847183246E+01 -0.24558517252E+02  0.36971915962E+02  0.10000000000E+01 0.  0.
<mgrwt>
<rscale>  0 0.12500240E+03</rscale>
<asrwt>0</asrwt>
<pdfrwt beam="2">  1        4 0.91838027E-01 0.12500240E+03</pdfrwt>
<pdfrwt beam="1">  1       -4 0.10067634E-02 0.12500240E+03</pdfrwt>
<totfact> 0.48645423E+03</totfact>
</mgrwt>
</event>
<event>
 5    1  0.3281209E-002  0.1249928E+03  0.7818608E-02  0.1235080E+00
          4   -1    0    0  501    0  0.00000000000E+00  0.00000000000E+00  0.32310889109E+02  0.32335838554E+02  0.12700000000E+01 0.  1.
         -4   -1    0    0    0  501 -0.00000000000E+00 -0.00000000000E+00 -0.12080696609E+03  0.12081364143E+03  0.12700000000E+01 0.  1.
         25    2    1    2    0    0  0.00000000000E+00  0.00000000000E+00 -0.88496076980E+02  0.15314947998E+03  0.12499283011E+03 0.  0.
    9000005    1    3    3    0    0 -0.46750821748E+02  0.13339561391E+02 -0.92349974314E+02  0.10437001958E+03  0.10000000000E+01 0.  0.
    9000005    1    3    3    0    0  0.46750821748E+02 -0.13339561391E+02  0.38538973337E+01  0.48779460400E+02  0.10000000000E+01 0.  0.
<mgrwt>
<rscale>  0 0.12499283E+03</rscale>
<asrwt>0</asrwt>
<pdfrwt beam="1">  1        4 0.49733387E-02 0.12499283E+03</pdfrwt>
<pdfrwt beam="2">  1       -4 0.18588120E-01 0.12499283E+03</pdfrwt>
<totfact> 0.98695480E+03</totfact>
</mgrwt>
</event>
<event>
 5    1  0.3281209E-002  0.1249997E+03  0.7818608E-02  0.1235070E+00
          4   -1    0    0  501    0  0.00000000000E+00  0.00000000000E+00  0.96040194734E+03  0.96040278704E+03  0.12700000000E+01 0.  1.
         -4   -1    0    0    0  501 -0.00000000000E+00 -0.00000000000E+00 -0.39672867652E+01  0.41656049113E+01  0.12700000000E+01 0.  1.
         25    2    1    2    0    0  0.00000000000E+00  0.00000000000E+00  0.95643466057E+03  0.96456839195E+03  0.12499969121E+03 0.  0.
    9000005    1    3    3    0    0  0.39069697027E+02  0.20382313395E+02  0.13629848718E+03  0.14324858649E+03  0.10000000000E+01 0.  0.
    9000005    1    3    3    0    0 -0.39069697027E+02 -0.20382313395E+02  0.82013617339E+03  0.82131980545E+03  0.10000000000E+01 0.  0.
<mgrwt>
<rscale>  0 0.12499969E+03</rscale>
<asrwt>0</asrwt>
<pdfrwt beam="1">  1        4 0.14776945E+00 0.12499969E+03</pdfrwt>
<pdfrwt beam="2">  1       -4 0.62567171E-03 0.12499969E+03</pdfrwt>
<totfact> 0.31804534E+03</totfact>
</mgrwt>
</event>
<event>
 5    1  0.3281209E-002  0.1250009E+03  0.7818608E-02  0.1235068E+00
          4   -1    0    0  501    0  0.00000000000E+00  0.00000000000E+00  0.40406853383E+02  0.40426806705E+02  0.12700000000E+01 0.  1.
         -4   -1    0    0    0  501 -0.00000000000E+00 -0.00000000000E+00 -0.96626301634E+02  0.96634647345E+02  0.12700000000E+01 0.  1.
         25    2    1    2    0    0  0.00000000000E+00  0.00000000000E+00 -0.56219448250E+02  0.13706145405E+03  0.12500086330E+03 0.  0.
    9000005    1    3    3    0    0 -0.23800545205E+02 -0.38350925850E+02  0.19281282126E+02  0.49092028946E+02  0.10000000000E+01 0.  0.
    9000005    1    3    3    0    0  0.23800545205E+02  0.38350925850E+02 -0.75500730376E+02  0.87969425103E+02  0.10000000000E+01 0.  0.
<mgrwt>
<rscale>  0 0.12500086E+03</rscale>
<asrwt>0</asrwt>
<pdfrwt beam="1">  1        4 0.62186158E-02 0.12500086E+03</pdfrwt>
<pdfrwt beam="2">  1       -4 0.14867762E-01 0.12500086E+03</pdfrwt>
<totfact> 0.10194603E+04</totfact>
</mgrwt>
</event>
<event>
 5    1  0.3281209E-002  0.1250027E+03  0.7818608E-02  0.1235065E+00
          4   -1    0    0  501    0  0.00000000000E+00  0.00000000000E+00  0.19218106634E+02  0.19260023951E+02  0.12700000000E+01 0.  1.
         -4   -1    0    0    0  501 -0.00000000000E+00 -0.00000000000E+00 -0.20300218193E+03  0.20300615450E+03  0.12700000000E+01 0.  1.
         25    2    1    2    0    0  0.00000000000E+00  0.00000000000E+00 -0.18378407529E+03  0.22226617845E+03  0.12500267099E+03 0.  0.
    9000005    1    3    3    0    0  0.15294531161E+02 -0.27746220348E+02 -0.18767228791E+03  0.19033040503E+03  0.10000000000E+01 0.  0.
    9000005    1    3    3    0    0 -0.15294531161E+02  0.27746220348E+02  0.38882126215E+01  0.31935773428E+02  0.10000000000E+01 0.  0.
<mgrwt>
<rscale>  0 0.12500267E+03</rscale>
<asrwt>0</asrwt>
<pdfrwt beam="1">  1        4 0.29601619E-02 0.12500267E+03</pdfrwt>
<pdfrwt beam="2">  1       -4 0.31234633E-01 0.12500267E+03</pdfrwt>
<totfact> 0.86505863E+03</totfact>
</mgrwt>
</event>
<event>
 5    1  0.3281209E-002  0.1249974E+03  0.7818608E-02  0.1235073E+00
          4   -1    0    0  501    0  0.00000000000E+00  0.00000000000E+00  0.74916207887E+03  0.74916315534E+03  0.12700000000E+01 0. -1.
         -4   -1    0    0    0  501 -0.00000000000E+00 -0.00000000000E+00 -0.51355136311E+01  0.52902174109E+01  0.12700000000E+01 0. -1.
         25    2    1    2    0    0  0.00000000000E+00  0.00000000000E+00  0.74402656524E+03  0.75445337275E+03  0.12499744746E+03 0.  0.
    9000005    1    3    3    0    0 -0.92757127770E+00  0.53893313233E+02  0.56285573242E+03  0.56543162727E+03  0.10000000000E+01 0.  0.
    9000005    1    3    3    0    0  0.92757127770E+00 -0.53893313233E+02  0.18117083282E+03  0.18902174548E+03  0.10000000000E+01 0.  0.
<mgrwt>
<rscale>  0 0.12499745E+03</rscale>
<asrwt>0</asrwt>
<pdfrwt beam="1">  1        4 0.11526771E+00 0.12499745E+03</pdfrwt>
<pdfrwt beam="2">  1       -4 0.80206196E-03 0.12499745E+03</pdfrwt>
<totfact> 0.40364277E+03</totfact>
</mgrwt>
</event>
<event>
 5    1  0.3281209E-002  0.1250004E+03  0.7818608E-02  0.1235069E+00
          4   -1    0    0  501    0  0.00000000000E+00  0.00000000000E+00  0.50875578321E+02  0.50891427269E+02  0.12700000000E+01 0.  1.
         -4   -1    0    0    0  501 -0.00000000000E+00 -0.00000000000E+00 -0.76747904794E+02  0.76758411854E+02  0.12700000000E+01 0.  1.
         25    2    1    2    0    0  0.00000000000E+00  0.00000000000E+00 -0.25872326473E+02  0.12764983912E+03  0.12500041660E+03 0.  0.
    9000005    1    3    3    0    0 -0.37553675980E+02 -0.45546932270E+02 -0.33876255984E+02  0.68069099732E+02  0.10000000000E+01 0.  0.
    9000005    1    3    3    0    0  0.37553675980E+02  0.45546932270E+02  0.80039295112E+01  0.59580739391E+02  0.10000000000E+01 0.  0.
<mgrwt>
<rscale>  0 0.12500042E+03</rscale>
<asrwt>0</asrwt>
<pdfrwt beam="1">  1        4 0.78290394E-02 0.12500042E+03</pdfrwt>
<pdfrwt beam="2">  1       -4 0.11809397E-01 0.12500042E+03</pdfrwt>
<totfact> 0.10394959E+04</totfact>
</mgrwt>
</event>
<event>
 5    1  0.3281209E-002  0.1249999E+03  0.7818608E-02  0.1235069E+00
         -4   -1    0    0    0  501 -0.00000000000E+00  0.00000000000E+00  0.29152589809E+02  0.29180239762E+02  0.12700000000E+01 0.  1.
          4   -1    0    0  501    0  0.00000000000E+00 -0.00000000000E+00 -0.13389881700E+03  0.13390483970E+03  0.12700000000E+01 0.  1.
         25    2    1    2    0    0  0.00000000000E+00  0.00000000000E+00 -0.10474622719E+03  0.16308507946E+03  0.12499988413E+03 0.  0.
    9000005    1    3    3    0    0 -0.58144800489E+02  0.25343868002E+01 -0.82067220036E+02  0.10061445992E+03  0.10000000000E+01 0.  0.
    9000005    1    3    3    0    0  0.58144800489E+02 -0.25343868002E+01 -0.22679007158E+02  0.62470619543E+02  0.10000000000E+01 0.  0.
<mgrwt>
<rscale>  0 0.12499988E+03</rscale>
<asrwt>0</asrwt>
<pdfrwt beam="2">  1        4 0.20602408E-01 0.12499988E+03</pdfrwt>
<pdfrwt beam="1">  1       -4 0.44876041E-02 0.12499988E+03</pdfrwt>
<totfact> 0.96751534E+03</totfact>
</mgrwt>
</event>
<event>
 5    1  0.3281209E-002  0.1249996E+03  0.7818608E-02  0.1235070E+00
          4   -1    0    0  501    0  0.00000000000E+00  0.00000000000E+00  0.14757045930E+03  0.14757592405E+03  0.12700000000E+01 0.  1.
         -4   -1    0    0    0  501 -0.00000000000E+00 -0.00000000000E+00 -0.26449032945E+02  0.26479506108E+02  0.12700000000E+01 0.  1.
         25    2    1    2    0    0  0.00000000000E+00  0.00000000000E+00  0.12112142636E+03  0.17405543016E+03  0.12499957137E+03 0.  0.
    9000005    1    3    3    0    0 -0.53073409283E+02  0.32766927879E+02  0.55210218383E+02  0.83304420948E+02  0.10000000000E+01 0.  0.
    9000005    1    3    3    0    0  0.53073409283E+02 -0.32766927879E+02  0.65911207975E+02  0.90751009208E+02  0.10000000000E+01 0.  0.
<mgrwt>
<rscale>  0 0.12499957E+03</rscale>
<asrwt>0</asrwt>
<pdfrwt beam="1">  1        4 0.22705912E-01 0.12499957E+03</pdfrwt>
<pdfrwt beam="2">  1       -4 0.40718465E-02 0.12499957E+03</pdfrwt>
<totfact> 0.94699032E+03</totfact>
</mgrwt>
</event>
<event>
 5    1  0.3281209E-002  0.1250013E+03  0.7818608E-02  0.1235067E+00
          4   -1    0    0  501    0  0.00000000000E+00  0.00000000000E+00  0.93809546685E+01  0.94665310696E+01  0.12700000000E+01 0. -1.
         -4   -1    0    0    0  501 -0.00000000000E+00 -0.00000000000E+00 -0.41443328085E+03  0.41443522676E+03  0.12700000000E+01 0. -1.
         25    2    1    2    0    0  0.00000000000E+00  0.00000000000E+00 -0.40505232618E+03  0.42390175783E+03  0.12500125336E+03 0.  0.
    9000005    1    3    3    0    0 -0.37852000227E+02  0.14031984921E+02 -0.40753800123E+02  0.57371968298E+02  0.10000000000E+01 0.  0.
    9000005    1    3    3    0    0  0.37852000227E+02 -0.14031984921E+02 -0.36429852606E+03  0.36652978953E+03  0.10000000000E+01 0.  0.
<mgrwt>
<rscale>  0 0.12500125E+03</rscale>
<asrwt>0</asrwt>
<pdfrwt beam="1">  1        4 0.14499566E-02 0.12500125E+03</pdfrwt>
<pdfrwt beam="2">  1       -4 0.63765685E-01 0.12500125E+03</pdfrwt>
<totfact> 0.62290961E+03</totfact>
</mgrwt>
</event>
<event>
 5    1  0.3281209E-002  0.1250051E+03  0.7818608E-02  0.1235061E+00
          4   -1    0    0  501    0  0.00000000000E+00  0.00000000000E+00  0.65458569965E+02  0.65470888812E+02  0.12700000000E+01 0. -1.
         -4   -1    0    0    0  501 -0.00000000000E+00 -0.00000000000E+00 -0.59655358073E+02  0.59668875026E+02  0.12700000000E+01 0. -1.
         25    2    1    2    0    0  0.00000000000E+00  0.00000000000E+00  0.58032118919E+01  0.12513976384E+03  0.12500513280E+03 0.  0.
    9000005    1    3    3    0    0  0.27003503683E+02  0.41434928831E+02  0.41146524520E+02  0.64343445808E+02  0.10000000000E+01 0.  0.
    9000005    1    3    3    0    0 -0.27003503683E+02 -0.41434928831E+02 -0.35343312628E+02  0.60796318029E+02  0.10000000000E+01 0.  0.
<mgrwt>
<rscale>  0 0.12500513E+03</rscale>
<asrwt>0</asrwt>
<pdfrwt beam="1">  1        4 0.10072537E-01 0.12500513E+03</pdfrwt>
<pdfrwt beam="2">  1       -4 0.91797348E-02 0.12500513E+03</pdfrwt>
<totfact> 0.10448616E+04</totfact>
</mgrwt>
</event>
<event>
 5    1  0.3281209E-002  0.1249528E+03  0.7818608E-02  0.1235143E+00
          4   -1    0    0  501    0  0.00000000000E+00  0.00000000000E+00  0.29590326747E+03  0.29590599284E+03  0.12700000000E+01 0.  1.
         -4   -1    0    0    0  501 -0.00000000000E+00 -0.00000000000E+00 -0.13157783161E+02  0.13218931792E+02  0.12700000000E+01 0.  1.
         25    2    1    2    0    0  0.00000000000E+00  0.00000000000E+00  0.28274548431E+03  0.30912492463E+03  0.12495283163E+03 0.  0.
    9000005    1    3    3    0    0  0.84847256677E+00  0.41293601168E+02  0.25429423346E+02  0.48513265968E+02  0.10000000000E+01 0.  0.
    9000005    1    3    3    0    0 -0.84847256677E+00 -0.41293601168E+02  0.25731606096E+03  0.26061165866E+03  0.10000000000E+01 0.  0.
<mgrwt>
<rscale>  0 0.12495283E+03</rscale>
<asrwt>0</asrwt>
<pdfrwt beam="1">  1        4 0.45528492E-01 0.12495283E+03</pdfrwt>
<pdfrwt beam="2">  1       -4 0.20291878E-02 0.12495283E+03</pdfrwt>
<totfact> 0.74546281E+03</totfact>
</mgrwt>
</event>
<event>
 5    1  0.3281209E-002  0.1250038E+03  0.7818608E-02  0.1235063E+00
         -4   -1    0    0    0  501 -0.00000000000E+00  0.00000000000E+00  0.11167889585E+03  0.11168611676E+03  0.12700000000E+01 0. -1.
          4   -1    0    0  501    0  0.00000000000E+00 -0.00000000000E+00 -0.34959735704E+02  0.34982796064E+02  0.12700000000E+01 0. -1.
         25    2    1    2    0    0  0.00000000000E+00  0.00000000000E+00  0.76719160145E+02  0.14666891283E+03  0.12500376177E+03 0.  0.
    9000005    1    3    3    0    0 -0.79887075495E+01  0.57451479400E+02  0.11069118212E+02  0.59059438801E+02  0.10000000000E+01 0.  0.
    9000005    1    3    3    0    0  0.79887075495E+01 -0.57451479400E+02  0.65650041933E+02  0.87609474028E+02  0.10000000000E+01 0.  0.
<mgrwt>
<rscale>  0 0.12500376E+03</rscale>
<asrwt>0</asrwt>
<pdfrwt beam="2">  1        4 0.53807503E-02 0.12500376E+03</pdfrwt>
<pdfrwt beam="1">  1       -4 0.17183698E-01 0.12500376E+03</pdfrwt>
<totfact> 0.99963428E+03</totfact>
</mgrwt>
</event>
<event>
 5    1  0.3281209E-002  0.1250010E+03  0.7818608E-02  0.1235068E+00
          4   -1    0    0  501    0  0.00000000000E+00  0.00000000000E+00  0.76003863263E+03  0.76003969370E+03  0.12700000000E+01 0. -1.
         -4   -1    0    0    0  501 -0.00000000000E+00 -0.00000000000E+00 -0.50600894984E+01  0.52170303557E+01  0.12700000000E+01 0. -1.
         25    2    1    2    0    0  0.00000000000E+00  0.00000000000E+00  0.75497854314E+03  0.76525672405E+03  0.12500101245E+03 0.  0.
    9000005    1    3    3    0    0  0.56419142610E+02 -0.23409722477E+02  0.45828546879E+03  0.46233938364E+03  0.10000000000E+01 0.  0.
    9000005    1    3    3    0    0 -0.56419142610E+02  0.23409722477E+02  0.29669307435E+03  0.30291734042E+03  0.10000000000E+01 0.  0.
<mgrwt>
<rscale>  0 0.12500101E+03</rscale>
<asrwt>0</asrwt>
<pdfrwt beam="1">  1        4 0.11694123E+00 0.12500101E+03</pdfrwt>
<pdfrwt beam="2">  1       -4 0.79062890E-03 0.12500101E+03</pdfrwt>
<totfact> 0.39853922E+03</totfact>
</mgrwt>
</event>
<event>
 5    1  0.3281209E-002  0.1250020E+03  0.7818608E-02  0.1235066E+00
         -4   -1    0    0    0  501 -0.00000000000E+00  0.00000000000E+00  0.23241312490E+02  0.23275985613E+02  0.12700000000E+01 0.  1.
          4   -1    0    0  501    0  0.00000000000E+00 -0.00000000000E+00 -0.16791658910E+03  0.16792139171E+03  0.12700000000E+01 0.  1.
         25    2    1    2    0    0  0.00000000000E+00  0.00000000000E+00 -0.14467527661E+03  0.19119737733E+03  0.12500200572E+03 0.  0.
    9000005    1    3    3    0    0 -0.44933049963E+02  0.25630094056E+02 -0.12597016681E+03  0.13618136300E+03  0.10000000000E+01 0.  0.
    9000005    1    3    3    0    0  0.44933049963E+02 -0.25630094056E+02 -0.18705109794E+02  0.55016014329E+02  0.10000000000E+01 0.  0.
<mgrwt>
<rscale>  0 0.12500201E+03</rscale>
<asrwt>0</asrwt>
<pdfrwt beam="2">  1        4 0.25836357E-01 0.12500201E+03</pdfrwt>
<pdfrwt beam="1">  1       -4 0.35786232E-02 0.12500201E+03</pdfrwt>
<totfact> 0.91635275E+03</totfact>
</mgrwt>
</event>
<event>
 5    1  0.3281209E-002  0.1249978E+03  0.7818608E-02  0.1235073E+00
         -4   -1    0    0    0  501 -0.00000000000E+00  0.00000000000E+00  0.70142838743E+02  0.70154335054E+02  0.12700000000E+01 0.  1.
          4   -1    0    0  501    0  0.00000000000E+00 -0.00000000000E+00 -0.55664685999E+02  0.55679171756E+02  0.12700000000E+01 0.  1.
         25    2    1    2    0    0  0.00000000000E+00  0.00000000000E+00  0.14478152743E+02  0.12583350681E+03  0.12499781810E+03 0.  0.
    9000005    1    3    3    0    0 -0.18981470120E+02 -0.32256821436E+02 -0.43138623652E+02  0.57120395549E+02  0.10000000000E+01 0.  0.
    9000005    1    3    3    0    0  0.18981470120E+02  0.32256821436E+02  0.57616776395E+02  0.68713111261E+02  0.10000000000E+01 0.  0.
<mgrwt>
<rscale>  0 0.12499782E+03</rscale>
<asrwt>0</asrwt>
<pdfrwt beam="2">  1        4 0.85657964E-02 0.12499782E+03</pdfrwt>
<pdfrwt beam="1">  1       -4 0.10793205E-01 0.12499782E+03</pdfrwt>
<totfact> 0.10435123E+04</totfact>
</mgrwt>
</event>
<event>
 5    1  0.3281209E-002  0.1249987E+03  0.7818608E-02  0.1235071E+00
         -4   -1    0    0    0  501 -0.00000000000E+00  0.00000000000E+00  0.11840135272E+04  0.11840142083E+04  0.12700000000E+01 0. -1.
          4   -1    0    0  501    0  0.00000000000E+00 -0.00000000000E+00 -0.31761589648E+01  0.34206557514E+01  0.12700000000E+01 0. -1.
         25    2    1    2    0    0  0.00000000000E+00  0.00000000000E+00  0.11808373682E+04  0.11874348641E+04  0.12499866472E+03 0.  0.
    9000005    1    3    3    0    0  0.45987654058E+02  0.14219643820E+02  0.96898667057E+03  0.97018206041E+03  0.10000000000E+01 0.  0.
    9000005    1    3    3    0    0 -0.45987654058E+02 -0.14219643820E+02  0.21185069767E+03  0.21725280366E+03  0.10000000000E+01 0.  0.
<mgrwt>
<rscale>  0 0.12499866E+03</rscale>
<asrwt>0</asrwt>
<pdfrwt beam="2">  1        4 0.50750032E-03 0.12499866E+03</pdfrwt>
<pdfrwt beam="1">  1       -4 0.18217456E+00 0.12499866E+03</pdfrwt>
<totfact> 0.25044797E+03</totfact>
</mgrwt>
</event>
<event>
 5    1  0.3281209E-002  0.1250018E+03  0.7818608E-02  0.1235066E+00
         -4   -1    0    0    0  501 -0.00000000000E+00  0.00000000000E+00  0.17500774194E+02  0.17546794504E+02  0.12700000000E+01 0.  1.
          4   -1    0    0  501    0  0.00000000000E+00 -0.00000000000E+00 -0.22286993194E+03  0.22287355039E+03  0.12700000000E+01 0.  1.
         25    2    1    2    0    0  0.00000000000E+00  0.00000000000E+00 -0.20536915774E+03  0.24042034489E+03  0.12500180513E+03 0.  0.
    9000005    1    3    3    0    0 -0.56467124427E+02  0.77018783727E+01 -0.15200256899E+03  0.16233803020E+03  0.10000000000E+01 0.  0.
    9000005    1    3    3    0    0  0.56467124427E+02 -0.77018783727E+01 -0.53366588758E+02  0.78082314688E+02  0.10000000000E+01 0.  0.
<mgrwt>
<rscale>  0 0.12500181E+03</rscale>
<asrwt>0</asrwt>
<pdfrwt beam="2">  1        4 0.34291498E-01 0.12500181E+03</pdfrwt>
<pdfrwt beam="1">  1       -4 0.26962453E-02 0.12500181E+03</pdfrwt>
<totfact> 0.83731436E+03</totfact>
</mgrwt>
</event>
<event>
 5    1  0.3281209E-002  0.1250030E+03  0.7818608E-02  0.1235065E+00
         -4   -1    0    0    0  501 -0.00000000000E+00  0.00000000000E+00  0.11167083044E+02  0.11239067742E+02  0.12700000000E+01 0. -1.
          4   -1    0    0  501    0  0.00000000000E+00 -0.00000000000E+00 -0.34862019128E+03  0.34862250453E+03  0.12700000000E+01 0. -1.
         25    2    1    2    0    0  0.00000000000E+00  0.00000000000E+00 -0.33745310824E+03  0.35986157228E+03  0.12500300374E+03 0.  0.
    9000005    1    3    3    0    0 -0.22972196637E+02 -0.58117585438E+02 -0.16944441677E+03  0.18060394771E+03  0.10000000000E+01 0.  0.
    9000005    1    3    3    0    0  0.22972196637E+02  0.58117585438E+02 -0.16800869147E+03  0.17925762456E+03  0.10000000000E+01 0.  0.
<mgrwt>
<rscale>  0 0.12500300E+03</rscale>
<asrwt>0</asrwt>
<pdfrwt beam="2">  1        4 0.53639583E-01 0.12500300E+03</pdfrwt>
<pdfrwt beam="1">  1       -4 0.17237283E-02 0.12500300E+03</pdfrwt>
<totfact> 0.68648558E+03</totfact>
</mgrwt>
</event>
<event>
 5    1  0.3281209E-002  0.1250017E+03  0.7818608E-02  0.1235067E+00
         -4   -1    0    0    0  501 -0.00000000000E+00  0.00000000000E+00  0.10915056317E+02  0.10988692115E+02  0.12700000000E+01 0. -1.
          4   -1    0    0  501    0  0.00000000000E+00 -0.00000000000E+00 -0.35660900913E+03  0.35661127057E+03  0.12700000000E+01 0. -1.
         25    2    1    2    0    0  0.00000000000E+00  0.00000000000E+00 -0.34569395282E+03  0.36759996268E+03  0.12500169419E+03 0.  0.
    9000005    1    3    3    0    0 -0.29866813914E+01  0.60046768701E+02 -0.22299716647E+03  0.23096162225E+03  0.10000000000E+01 0.  0.
    9000005    1    3    3    0    0  0.29866813914E+01 -0.60046768701E+02 -0.12269678634E+03  0.13663834043E+03  0.10000000000E+01 0.  0.
<mgrwt>
<rscale>  0 0.12500169E+03</rscale>
<asrwt>0</asrwt>
<pdfrwt beam="2">  1        4 0.54868754E-01 0.12500169E+03</pdfrwt>
<pdfrwt beam="1">  1       -4 0.16850780E-02 0.12500169E+03</pdfrwt>
<totfact> 0.67828238E+03</totfact>
</mgrwt>
</event>
<event>
 5    1  0.3281209E-002  0.1249983E+03  0.7818608E-02  0.1235072E+00
         -4   -1    0    0    0  501 -0.00000000000E+00  0.00000000000E+00  0.79860726916E+01  0.80864242429E+01  0.12700000000E+01 0. -1.
          4   -1    0    0  501    0  0.00000000000E+00 -0.00000000000E+00 -0.48596426025E+03  0.48596591973E+03  0.12700000000E+01 0. -1.
         25    2    1    2    0    0  0.00000000000E+00  0.00000000000E+00 -0.47797818756E+03  0.49405234397E+03  0.12499828321E+03 0.  0.
    9000005    1    3    3    0    0  0.36979990579E+02  0.12976748327E+02 -0.46603630894E+02  0.60900033768E+02  0.10000000000E+01 0.  0.
    9000005    1    3    3    0    0 -0.36979990579E+02 -0.12976748327E+02 -0.43137455666E+03  0.43315231021E+03  0.10000000000E+01 0.  0.
<mgrwt>
<rscale>  0 0.12499828E+03</rscale>
<asrwt>0</asrwt>
<pdfrwt beam="2">  1        4 0.74771556E-01 0.12499828E+03</pdfrwt>
<pdfrwt beam="1">  1       -4 0.12364739E-02 0.12499828E+03</pdfrwt>
<totfact> 0.56330939E+03</totfact>
</mgrwt>
</event>
<event>
 5    1  0.3281209E-002  0.1249838E+03  0.7818608E-02  0.1235095E+00
         -4   -1    0    0    0  501 -0.00000000000E+00  0.00000000000E+00  0.13752124008E+03  0.13752710414E+03  0.12700000000E+01 0.  1.
          4   -1    0    0  501    0  0.00000000000E+00 -0.00000000000E+00 -0.28376670821E+02  0.28405076076E+02  0.12700000000E+01 0.  1.
         25    2    1    2    0    0  0.00000000000E+00  0.00000000000E+00  0.10914456926E+03  0.16593218022E+03  0.12498380468E+03 0.  0.
    9000005    1    3    3    0    0 -0.55149087126E+02 -0.26841560552E+02  0.38732453715E+02  0.72547185710E+02  0.10000000000E+01 0.  0.
    9000005    1    3    3    0    0  0.55149087126E+02  0.26841560552E+02  0.70412115547E+02  0.93384994510E+02  0.10000000000E+01 0.  0.
<mgrwt>
<rscale>  0 0.12498380E+03</rscale>
<asrwt>0</asrwt>
<pdfrwt beam="2">  1        4 0.43682779E-02 0.12498380E+03</pdfrwt>
<pdfrwt beam="1">  1       -4 0.21159750E-01 0.12498380E+03</pdfrwt>
<totfact> 0.96246152E+03</totfact>
</mgrwt>
</event>
<event>
 5    1  0.3281209E-002  0.1249952E+03  0.7818608E-02  0.1235077E+00
          4   -1    0    0  501    0  0.00000000000E+00  0.00000000000E+00  0.22426851110E+02  0.22462781455E+02  0.12700000000E+01 0.  1.
         -4   -1    0    0    0  501 -0.00000000000E+00 -0.00000000000E+00 -0.17398636320E+03  0.17399099827E+03  0.12700000000E+01 0.  1.
         25    2    1    2    0    0  0.00000000000E+00  0.00000000000E+00 -0.15155951209E+03  0.19645377973E+03  0.12499520736E+03 0.  0.
    9000005    1    3    3    0    0  0.13485118846E+01 -0.48999020633E+02 -0.14863255318E+02  0.51231229401E+02  0.10000000000E+01 0.  0.
    9000005    1    3    3    0    0 -0.13485118846E+01  0.48999020633E+02 -0.13669625677E+03  0.14522255033E+03  0.10000000000E+01 0.  0.
<mgrwt>
<rscale>  0 0.12499521E+03</rscale>
<asrwt>0</asrwt>
<pdfrwt beam="1">  1        4 0.34534053E-02 0.12499521E+03</pdfrwt>
<pdfrwt beam="2">  1       -4 0.26770252E-01 0.12499521E+03</pdfrwt>
<totfact> 0.90746082E+03</totfact>
</mgrwt>
</event>
<event>
 5    1  0.3281209E-002  0.1250002E+03  0.7818608E-02  0.1235069E+00
          4   -1    0    0  501    0  0.00000000000E+00  0.00000000000E+00  0.17121667944E+03  0.17122138948E+03  0.12700000000E+01 0. -1.
         -4   -1    0    0    0  501 -0.00000000000E+00 -0.00000000000E+00 -0.22792036571E+02  0.22827392121E+02  0.12700000000E+01 0. -1.
         25    2    1    2    0    0  0.00000000000E+00  0.00000000000E+00  0.14842464286E+03  0.19404878161E+03  0.12500022013E+03 0.  0.
    9000005    1    3    3    0    0 -0.20940804128E+02 -0.19960341606E+02  0.16020297773E+03  0.16279719466E+03  0.10000000000E+01 0.  0.
    9000005    1    3    3    0    0  0.20940804128E+02  0.19960341606E+02 -0.11778334866E+02  0.31251586948E+02  0.10000000000E+01 0.  0.
<mgrwt>
<rscale>  0 0.12500022E+03</rscale>
<asrwt>0</asrwt>
<pdfrwt beam="1">  1        4 0.26344110E-01 0.12500022E+03</pdfrwt>
<pdfrwt beam="2">  1       -4 0.35095491E-02 0.12500022E+03</pdfrwt>
<totfact> 0.91147123E+03</totfact>
</mgrwt>
</event>
<event>
 5    1  0.3281209E-002  0.1250000E+03  0.7818608E-02  0.1235069E+00
         -4   -1    0    0    0  501 -0.00000000000E+00  0.00000000000E+00  0.15809740638E+02  0.15860668304E+02  0.12700000000E+01 0.  1.
          4   -1    0    0  501    0  0.00000000000E+00 -0.00000000000E+00 -0.24662862531E+03  0.24663189518E+03  0.12700000000E+01 0.  1.
         25    2    1    2    0    0  0.00000000000E+00  0.00000000000E+00 -0.23081888467E+03  0.26249256349E+03  0.12499995346E+03 0.  0.
    9000005    1    3    3    0    0  0.32806876173E+02  0.52683530210E+02 -0.10006382600E+03  0.11775234500E+03  0.10000000000E+01 0.  0.
    9000005    1    3    3    0    0 -0.32806876173E+02 -0.52683530210E+02 -0.13075505867E+03  0.14474021849E+03  0.10000000000E+01 0.  0.
<mgrwt>
<rscale>  0 0.12499995E+03</rscale>
<asrwt>0</asrwt>
<pdfrwt beam="2">  1        4 0.37947032E-01 0.12499995E+03</pdfrwt>
<pdfrwt beam="1">  1       -4 0.24364370E-02 0.12499995E+03</pdfrwt>
<totfact> 0.80557617E+03</totfact>
</mgrwt>
</event>
<event>
 5    1  0.3281209E-002  0.1249921E+03  0.7818608E-02  0.1235082E+00
          4   -1    0    0  501    0  0.00000000000E+00  0.00000000000E+00  0.68986229492E+02  0.68997918516E+02  0.12700000000E+01 0. -1.
         -4   -1    0    0    0  501 -0.00000000000E+00 -0.00000000000E+00 -0.56592822792E+02  0.56607071038E+02  0.12700000000E+01 0. -1.
         25    2    1    2    0    0  0.00000000000E+00  0.00000000000E+00  0.12393406700E+02  0.12560498955E+03  0.12499206723E+03 0.  0.
    9000005    1    3    3    0    0  0.51041511549E+02 -0.32374349405E+02 -0.97372739476E+01  0.61230294010E+02  0.10000000000E+01 0.  0.
    9000005    1    3    3    0    0 -0.51041511549E+02  0.32374349405E+02  0.22130680648E+02  0.64374695545E+02  0.10000000000E+01 0.  0.
<mgrwt>
<rscale>  0 0.12499207E+03</rscale>
<asrwt>0</asrwt>
<pdfrwt beam="1">  1        4 0.10615261E-01 0.12499207E+03</pdfrwt>
<pdfrwt beam="2">  1       -4 0.87085834E-02 0.12499207E+03</pdfrwt>
<totfact> 0.10441505E+04</totfact>
</mgrwt>
</event>
<event>
 5    1  0.3281209E-002  0.1250037E+03  0.7818608E-02  0.1235064E+00
          4   -1    0    0  501    0  0.00000000000E+00  0.00000000000E+00  0.45510090720E+01  0.47248897948E+01  0.12700000000E+01 0.  1.
         -4   -1    0    0    0  501 -0.00000000000E+00 -0.00000000000E+00 -0.84211170388E+03  0.84211266153E+03  0.12700000000E+01 0.  1.
         25    2    1    2    0    0  0.00000000000E+00  0.00000000000E+00 -0.83756069481E+03  0.84683755133E+03  0.12500368334E+03 0.  0.
    9000005    1    3    3    0    0 -0.88397611629E+01 -0.23770600370E+02 -0.80571628895E+03  0.80611594768E+03  0.10000000000E+01 0.  0.
    9000005    1    3    3    0    0  0.88397611629E+01  0.23770600370E+02 -0.31844405859E+02  0.40721603650E+02  0.10000000000E+01 0.  0.
<mgrwt>
<rscale>  0 0.12500368E+03</rscale>
<asrwt>0</asrwt>
<pdfrwt beam="1">  1        4 0.71360501E-03 0.12500368E+03</pdfrwt>
<pdfrwt beam="2">  1       -4 0.12956897E+00 0.12500368E+03</pdfrwt>
<totfact> 0.36254199E+03</totfact>
</mgrwt>
</event>
<event>
 5    1  0.3281209E-002  0.1250024E+03  0.7818608E-02  0.1235066E+00
          4   -1    0    0  501    0  0.00000000000E+00  0.00000000000E+00  0.11899466711E+03  0.11900144411E+03  0.12700000000E+01 0.  1.
         -4   -1    0    0    0  501 -0.00000000000E+00 -0.00000000000E+00 -0.32808353298E+02  0.32832924727E+02  0.12700000000E+01 0.  1.
         25    2    1    2    0    0  0.00000000000E+00  0.00000000000E+00  0.86186313812E+02  0.15183436884E+03  0.12500237947E+03 0.  0.
    9000005    1    3    3    0    0  0.55241219743E+02 -0.15620402711E+02  0.73088156339E+02  0.92943358754E+02  0.10000000000E+01 0.  0.
    9000005    1    3    3    0    0 -0.55241219743E+02  0.15620402711E+02  0.13098157474E+02  0.58891010085E+02  0.10000000000E+01 0.  0.
<mgrwt>
<rscale>  0 0.12500238E+03</rscale>
<asrwt>0</asrwt>
<pdfrwt beam="1">  1        4 0.18309284E-01 0.12500238E+03</pdfrwt>
<pdfrwt beam="2">  1       -4 0.50498503E-02 0.12500238E+03</pdfrwt>
<totfact> 0.98933996E+03</totfact>
</mgrwt>
</event>
<event>
 5    1  0.3281209E-002  0.1249940E+03  0.7818608E-02  0.1235079E+00
          4   -1    0    0  501    0  0.00000000000E+00  0.00000000000E+00  0.40368059888E+02  0.40388032375E+02  0.12700000000E+01 0. -1.
         -4   -1    0    0    0  501 -0.00000000000E+00 -0.00000000000E+00 -0.96708571712E+02  0.96716910324E+02  0.12700000000E+01 0. -1.
         25    2    1    2    0    0  0.00000000000E+00  0.00000000000E+00 -0.56340511824E+02  0.13710494270E+03  0.12499404802E+03 0.  0.
    9000005    1    3    3    0    0  0.47711470188E+02  0.39982948444E+02 -0.34163889376E+02  0.71015434175E+02  0.10000000000E+01 0.  0.
    9000005    1    3    3    0    0 -0.47711470188E+02 -0.39982948444E+02 -0.22176622448E+02  0.66089508524E+02  0.10000000000E+01 0.  0.
<mgrwt>
<rscale>  0 0.12499405E+03</rscale>
<asrwt>0</asrwt>
<pdfrwt beam="1">  1        4 0.62126485E-02 0.12499405E+03</pdfrwt>
<pdfrwt beam="2">  1       -4 0.14880420E-01 0.12499405E+03</pdfrwt>
<totfact> 0.10195260E+04</totfact>
</mgrwt>
</event>
<event>
 5    1  0.3281209E-002  0.1250049E+03  0.7818608E-02  0.1235062E+00
         -4   -1    0    0    0  501 -0.00000000000E+00  0.00000000000E+00  0.69731511949E+01  0.70878584627E+01  0.12700000000E+01 0. -1.
          4   -1    0    0  501    0  0.00000000000E+00 -0.00000000000E+00 -0.55554226185E+03  0.55554371349E+03  0.12700000000E+01 0. -1.
         25    2    1    2    0    0  0.00000000000E+00  0.00000000000E+00 -0.54856911065E+03  0.56263157195E+03  0.12500486629E+03 0.  0.
    9000005    1    3    3    0    0 -0.45010888131E+02 -0.39014597743E+02 -0.18919115545E+03  0.19834921776E+03  0.10000000000E+01 0.  0.
    9000005    1    3    3    0    0  0.45010888131E+02  0.39014597743E+02 -0.35937795520E+03  0.36428235419E+03  0.10000000000E+01 0.  0.
<mgrwt>
<rscale>  0 0.12500487E+03</rscale>
<asrwt>0</asrwt>
<pdfrwt beam="2">  1        4 0.85476941E-01 0.12500487E+03</pdfrwt>
<pdfrwt beam="1">  1       -4 0.10817282E-02 0.12500487E+03</pdfrwt>
<totfact> 0.51309228E+03</totfact>
</mgrwt>
</event>
<event>
 5    1  0.3281209E-002  0.1249990E+03  0.7818608E-02  0.1235071E+00
          4   -1    0    0  501    0  0.00000000000E+00  0.00000000000E+00  0.32238063017E+02  0.32263068780E+02  0.12700000000E+01 0.  1.
         -4   -1    0    0    0  501 -0.00000000000E+00 -0.00000000000E+00 -0.12109154318E+03  0.12109820283E+03  0.12700000000E+01 0.  1.
         25    2    1    2    0    0  0.00000000000E+00  0.00000000000E+00 -0.88853480163E+02  0.15336127161E+03  0.12499895477E+03 0.  0.
    9000005    1    3    3    0    0  0.76760731705E+01  0.58670327747E+02 -0.19764661440E+02  0.62392077214E+02  0.10000000000E+01 0.  0.
    9000005    1    3    3    0    0 -0.76760731705E+01 -0.58670327747E+02 -0.69088818723E+02  0.90969194400E+02  0.10000000000E+01 0.  0.
<mgrwt>
<rscale>  0 0.12499895E+03</rscale>
<asrwt>0</asrwt>
<pdfrwt beam="1">  1        4 0.49621379E-02 0.12499895E+03</pdfrwt>
<pdfrwt beam="2">  1       -4 0.18631904E-01 0.12499895E+03</pdfrwt>
<totfact> 0.98640169E+03</totfact>
</mgrwt>
</event>
<event>
 5    1  0.3281209E-002  0.1250054E+03  0.7818608E-02  0.1235061E+00
          4   -1    0    0  501    0  0.00000000000E+00  0.00000000000E+00  0.11279429632E+03  0.11280144583E+03  0.12700000000E+01 0.  1.
         -4   -1    0    0    0  501 -0.00000000000E+00 -0.00000000000E+00 -0.34614748456E+02  0.34638038494E+02  0.12700000000E+01 0.  1.
         25    2    1    2    0    0  0.00000000000E+00  0.00000000000E+00  0.78179547862E+02  0.14743948433E+03  0.12500543922E+03 0.  0.
    9000005    1    3    3    0    0 -0.56838405816E+01  0.19612807429E+02 -0.30574775374E+02  0.36780227680E+02  0.10000000000E+01 0.  0.
    9000005    1    3    3    0    0  0.56838405816E+01 -0.19612807429E+02  0.10875432324E+03  0.11065925665E+03  0.10000000000E+01 0.  0.
<mgrwt>
<rscale>  0 0.12500544E+03</rscale>
<asrwt>0</asrwt>
<pdfrwt beam="1">  1        4 0.17355310E-01 0.12500544E+03</pdfrwt>
<pdfrwt beam="2">  1       -4 0.53276874E-02 0.12500544E+03</pdfrwt>
<totfact> 0.99804347E+03</totfact>
</mgrwt>
</event>
<event>
 5    1  0.3281209E-002  0.1250022E+03  0.7818608E-02  0.1235066E+00
          4   -1    0    0  501    0  0.00000000000E+00  0.00000000000E+00  0.99825120499E+03  0.99825201285E+03  0.12700000000E+01 0. -1.
         -4   -1    0    0    0  501 -0.00000000000E+00 -0.00000000000E+00 -0.38093557245E+01  0.40154814202E+01  0.12700000000E+01 0. -1.
         25    2    1    2    0    0  0.00000000000E+00  0.00000000000E+00  0.99444184926E+03  0.10022674943E+04  0.12500215400E+03 0.  0.
    9000005    1    3    3    0    0 -0.50448095109E+02 -0.17765139330E+02  0.75638652625E+03  0.75827579915E+03  0.10000000000E+01 0.  0.
    9000005    1    3    3    0    0  0.50448095109E+02  0.17765139330E+02  0.23805532301E+03  0.24399169512E+03  0.10000000000E+01 0.  0.
<mgrwt>
<rscale>  0 0.12500215E+03</rscale>
<asrwt>0</asrwt>
<pdfrwt beam="1">  1        4 0.15359308E+00 0.12500215E+03</pdfrwt>
<pdfrwt beam="2">  1       -4 0.60197249E-03 0.12500215E+03</pdfrwt>
<totfact> 0.30528285E+03</totfact>
</mgrwt>
</event>
<event>
 5    1  0.3281209E-002  0.1249958E+03  0.7818608E-02  0.1235076E+00
          4   -1    0    0  501    0  0.00000000000E+00  0.00000000000E+00  0.15105835374E+02  0.15159128020E+02  0.12700000000E+01 0.  1.
         -4   -1    0    0    0  501 -0.00000000000E+00 -0.00000000000E+00 -0.25806468222E+03  0.25806780719E+03  0.12700000000E+01 0.  1.
         25    2    1    2    0    0  0.00000000000E+00  0.00000000000E+00 -0.24295884685E+03  0.27322693521E+03  0.12499582739E+03 0.  0.
    9000005    1    3    3    0    0  0.36636960899E+02  0.31744643872E+02 -0.35282219680E+02  0.59965192771E+02  0.10000000000E+01 0.  0.
    9000005    1    3    3    0    0 -0.36636960899E+02 -0.31744643872E+02 -0.20767662717E+03  0.21326174244E+03  0.10000000000E+01 0.  0.
<mgrwt>
<rscale>  0 0.12499583E+03</rscale>
<asrwt>0</asrwt>
<pdfrwt beam="1">  1        4 0.23283147E-02 0.12499583E+03</pdfrwt>
<pdfrwt beam="2">  1       -4 0.39706595E-01 0.12499583E+03</pdfrwt>
<totfact> 0.79092162E+03</totfact>
</mgrwt>
</event>
<event>
 5    1  0.3281209E-002  0.1249920E+03  0.7818608E-02  0.1235082E+00
         -4   -1    0    0    0  501 -0.00000000000E+00  0.00000000000E+00  0.58134097524E+03  0.58134236246E+03  0.12700000000E+01 0.  1.
          4   -1    0    0  501    0  0.00000000000E+00 -0.00000000000E+00 -0.66570893099E+01  0.67771482262E+01  0.12700000000E+01 0.  1.
         25    2    1    2    0    0  0.00000000000E+00  0.00000000000E+00  0.57468388593E+03  0.58811951068E+03  0.12499196016E+03 0.  0.
    9000005    1    3    3    0    0 -0.52501379097E+02  0.24363161245E+02  0.39816942483E+03  0.40235537688E+03  0.10000000000E+01 0.  0.
    9000005    1    3    3    0    0  0.52501379097E+02 -0.24363161245E+02  0.17651446110E+03  0.18576413381E+03  0.10000000000E+01 0.  0.
<mgrwt>
<rscale>  0 0.12499196E+03</rscale>
<asrwt>0</asrwt>
<pdfrwt beam="2">  1        4 0.10335095E-02 0.12499196E+03</pdfrwt>
<pdfrwt beam="1">  1       -4 0.89446421E-01 0.12499196E+03</pdfrwt>
<totfact> 0.49634982E+03</totfact>
</mgrwt>
</event>
<event>
 5    1  0.3281209E-002  0.1250080E+03  0.7818608E-02  0.1235057E+00
          4   -1    0    0  501    0  0.00000000000E+00  0.00000000000E+00  0.86744153156E+02  0.86753449538E+02  0.12700000000E+01 0.  1.
         -4   -1    0    0    0  501 -0.00000000000E+00 -0.00000000000E+00 -0.45016919226E+02  0.45034830038E+02  0.12700000000E+01 0.  1.
         25    2    1    2    0    0  0.00000000000E+00  0.00000000000E+00  0.41727233931E+02  0.13178827958E+03  0.12500795408E+03 0.  0.
    9000005    1    3    3    0    0 -0.36709762608E+02  0.32687739796E+01 -0.32346284180E+02  0.49046647738E+02  0.10000000000E+01 0.  0.
    9000005    1    3    3    0    0  0.36709762608E+02 -0.32687739796E+01  0.74073518111E+02  0.82741631839E+02  0.10000000000E+01 0.  0.
<mgrwt>
<rscale>  0 0.12500795E+03</rscale>
<asrwt>0</asrwt>
<pdfrwt beam="1">  1        4 0.13347347E-01 0.12500795E+03</pdfrwt>
<pdfrwt beam="2">  1       -4 0.69277729E-02 0.12500795E+03</pdfrwt>
<totfact> 0.10304370E+04</totfact>
</mgrwt>
</event>
<event>
 5    1  0.3281209E-002  0.1250036E+03  0.7818608E-02  0.1235064E+00
          4   -1    0    0  501    0  0.00000000000E+00  0.00000000000E+00  0.10557014751E+02  0.10633130322E+02  0.12700000000E+01 0.  1.
         -4   -1    0    0    0  501 -0.00000000000E+00 -0.00000000000E+00 -0.36862978745E+03  0.36863197514E+03  0.12700000000E+01 0.  1.
         25    2    1    2    0    0  0.00000000000E+00  0.00000000000E+00 -0.35807277270E+03  0.37926510547E+03  0.12500363864E+03 0.  0.
    9000005    1    3    3    0    0  0.10286743071E+02  0.12917924070E+02  0.38326742279E+01  0.16981732451E+02  0.10000000000E+01 0.  0.
    9000005    1    3    3    0    0 -0.10286743071E+02 -0.12917924070E+02 -0.36190544693E+03  0.36228337302E+03  0.10000000000E+01 0.  0.
<mgrwt>
<rscale>  0 0.12500364E+03</rscale>
<asrwt>0</asrwt>
<pdfrwt beam="1">  1        4 0.16301797E-02 0.12500364E+03</pdfrwt>
<pdfrwt beam="2">  1       -4 0.56718289E-01 0.12500364E+03</pdfrwt>
<totfact> 0.66615293E+03</totfact>
</mgrwt>
</event>
<event>
 5    1  0.3281209E-002  0.1249990E+03  0.7818608E-02  0.1235071E+00
         -4   -1    0    0    0  501 -0.00000000000E+00  0.00000000000E+00  0.36312411410E+02  0.36334613282E+02  0.12700000000E+01 0. -1.
          4   -1    0    0  501    0  0.00000000000E+00 -0.00000000000E+00 -0.10751287436E+03  0.10752037506E+03  0.12700000000E+01 0. -1.
         25    2    1    2    0    0  0.00000000000E+00  0.00000000000E+00 -0.71200462948E+02  0.14385498834E+03  0.12499900698E+03 0.  0.
    9000005    1    3    3    0    0  0.29983049686E+01 -0.60242119888E+02 -0.16792206631E+02  0.62618535952E+02  0.10000000000E+01 0.  0.
    9000005    1    3    3    0    0 -0.29983049686E+01  0.60242119888E+02 -0.54408256317E+02  0.81236452389E+02  0.10000000000E+01 0.  0.
<mgrwt>
<rscale>  0 0.12499901E+03</rscale>
<asrwt>0</asrwt>
<pdfrwt beam="2">  1        4 0.16542727E-01 0.12499901E+03</pdfrwt>
<pdfrwt beam="1">  1       -4 0.55888097E-02 0.12499901E+03</pdfrwt>
<totfact> 0.10054529E+04</totfact>
</mgrwt>
</event>
<event>
 5    1  0.3281209E-002  0.1250075E+03  0.7818608E-02  0.1235058E+00
         -4   -1    0    0    0  501 -0.00000000000E+00  0.00000000000E+00  0.47775649385E+02  0.47792526342E+02  0.12700000000E+01 0.  1.
          4   -1    0    0  501    0  0.00000000000E+00 -0.00000000000E+00 -0.81735933632E+02  0.81745799566E+02  0.12700000000E+01 0.  1.
         25    2    1    2    0    0  0.00000000000E+00  0.00000000000E+00 -0.33960284247E+02  0.12953832591E+03  0.12500750767E+03 0.  0.
    9000005    1    3    3    0    0 -0.12466760572E+02  0.39816998207E+01  0.46344862258E+02  0.48167627203E+02  0.10000000000E+01 0.  0.
    9000005    1    3    3    0    0  0.12466760572E+02 -0.39816998207E+01 -0.80305146505E+02  0.81370698705E+02  0.10000000000E+01 0.  0.
<mgrwt>
<rscale>  0 0.12500751E+03</rscale>
<asrwt>0</asrwt>
<pdfrwt beam="2">  1        4 0.12576816E-01 0.12500751E+03</pdfrwt>
<pdfrwt beam="1">  1       -4 0.73521570E-02 0.12500751E+03</pdfrwt>
<totfact> 0.10352639E+04</totfact>
</mgrwt>
</event>
<event>
 5    1  0.3281209E-002  0.1249995E+03  0.7818608E-02  0.1235070E+00
          4   -1    0    0  501    0  0.00000000000E+00  0.00000000000E+00  0.35337471004E+02  0.35360285024E+02  0.12700000000E+01 0. -1.
         -4   -1    0    0    0  501 -0.00000000000E+00 -0.00000000000E+00 -0.11047830008E+03  0.11048559946E+03  0.12700000000E+01 0. -1.
         25    2    1    2    0    0  0.00000000000E+00  0.00000000000E+00 -0.75140829075E+02  0.14584588449E+03  0.12499951131E+03 0.  0.
    9000005    1    3    3    0    0 -0.18743602195E+02 -0.59049524476E+02 -0.47124450034E+02  0.77845248764E+02  0.10000000000E+01 0.  0.
    9000005    1    3    3    0    0  0.18743602195E+02  0.59049524476E+02 -0.28016379041E+02  0.68000635722E+02  0.10000000000E+01 0.  0.
<mgrwt>
<rscale>  0 0.12499951E+03</rscale>
<asrwt>0</asrwt>
<pdfrwt beam="1">  1        4 0.54388505E-02 0.12499951E+03</pdfrwt>
<pdfrwt beam="2">  1       -4 0.16998978E-01 0.12499951E+03</pdfrwt>
<totfact> 0.10013940E+04</totfact>
</mgrwt>
</event>
<event>
 5    1  0.3281209E-002  0.1249992E+03  0.7818608E-02  0.1235070E+00
         -4   -1    0    0    0  501 -0.00000000000E+00  0.00000000000E+00  0.60895405070E+02  0.60908646830E+02  0.12700000000E+01 0. -1.
          4   -1    0    0  501    0  0.00000000000E+00 -0.00000000000E+00 -0.64119592548E+02  0.64132168594E+02  0.12700000000E+01 0. -1.
         25    2    1    2    0    0  0.00000000000E+00  0.00000000000E+00 -0.32241874784E+01  0.12504081542E+03  0.12499924055E+03 0.  0.
    9000005    1    3    3    0    0  0.25880608007E+02  0.17346905286E+02 -0.55800966105E+02  0.63917672142E+02  0.10000000000E+01 0.  0.
    9000005    1    3    3    0    0 -0.25880608007E+02 -0.17346905286E+02  0.52576778627E+02  0.61123143281E+02  0.10000000000E+01 0.  0.
<mgrwt>
<rscale>  0 0.12499924E+03</rscale>
<asrwt>0</asrwt>
<pdfrwt beam="2">  1        4 0.98665387E-02 0.12499924E+03</pdfrwt>
<pdfrwt beam="1">  1       -4 0.93705099E-02 0.12499924E+03</pdfrwt>
<totfact> 0.10452156E+04</totfact>
</mgrwt>
</event>
<event>
 5    1  0.3281209E-002  0.1249812E+03  0.7818608E-02  0.1235099E+00
         -4   -1    0    0    0  501 -0.00000000000E+00  0.00000000000E+00  0.46097273012E+02  0.46114764221E+02  0.12700000000E+01 0. -1.
          4   -1    0    0  501    0  0.00000000000E+00 -0.00000000000E+00 -0.84675479900E+02  0.84685003373E+02  0.12700000000E+01 0. -1.
         25    2    1    2    0    0  0.00000000000E+00  0.00000000000E+00 -0.38578206888E+02  0.13079976759E+03  0.12498120321E+03 0.  0.
    9000005    1    3    3    0    0  0.83397828558E+01 -0.95331701273E+01  0.44744718671E+02  0.46513687874E+02  0.10000000000E+01 0.  0.
    9000005    1    3    3    0    0 -0.83397828558E+01  0.95331701273E+01 -0.83322925558E+02  0.84286079719E+02  0.10000000000E+01 0.  0.
<mgrwt>
<rscale>  0 0.12498120E+03</rscale>
<asrwt>0</asrwt>
<pdfrwt beam="2">  1        4 0.13029075E-01 0.12498120E+03</pdfrwt>
<pdfrwt beam="1">  1       -4 0.70939662E-02 0.12498120E+03</pdfrwt>
<totfact> 0.10331765E+04</totfact>
</mgrwt>
</event>
<event>
 5    1  0.3281209E-002  0.1250161E+03  0.7818608E-02  0.1235044E+00
          4   -1    0    0  501    0  0.00000000000E+00  0.00000000000E+00  0.72693243898E+02  0.72704336930E+02  0.12700000000E+01 0. -1.
         -4   -1    0    0    0  501 -0.00000000000E+00 -0.00000000000E+00 -0.53727261554E+02  0.53742269529E+02  0.12700000000E+01 0. -1.
         25    2    1    2    0    0  0.00000000000E+00  0.00000000000E+00  0.18965982344E+02  0.12644660646E+03  0.12501614215E+03 0.  0.
    9000005    1    3    3    0    0  0.39249991872E+02  0.48615480380E+02  0.10994126204E+02  0.63449961430E+02  0.10000000000E+01 0.  0.
    9000005    1    3    3    0    0 -0.39249991872E+02 -0.48615480380E+02  0.79718561407E+01  0.62996645028E+02  0.10000000000E+01 0.  0.
<mgrwt>
<rscale>  0 0.12501614E+03</rscale>
<asrwt>0</asrwt>
<pdfrwt beam="1">  1        4 0.11185584E-01 0.12501614E+03</pdfrwt>
<pdfrwt beam="2">  1       -4 0.82677403E-02 0.12501614E+03</pdfrwt>
<totfact> 0.10417397E+04</totfact>
</mgrwt>
</event>
<event>
 5    1  0.3281209E-002  0.1249994E+03  0.7818608E-02  0.1235070E+00
         -4   -1    0    0    0  501 -0.00000000000E+00  0.00000000000E+00  0.12301900215E+04  0.12301906771E+04  0.12700000000E+01 0.  1.
          4   -1    0    0  501    0  0.00000000000E+00 -0.00000000000E+00 -0.30476195197E+01  0.33016487906E+01  0.12700000000E+01 0.  1.
         25    2    1    2    0    0  0.00000000000E+00  0.00000000000E+00  0.12271424020E+04  0.12334923259E+04  0.12499937267E+03 0.  0.
    9000005    1    3    3    0    0 -0.10981506365E+02 -0.27159662050E+02  0.11582778949E+04  0.11586487486E+04  0.10000000000E+01 0.  0.
    9000005    1    3    3    0    0  0.10981506365E+02  0.27159662050E+02  0.68864507085E+02  0.74843577284E+02  0.10000000000E+01 0.  0.
<mgrwt>
<rscale>  0 0.12499937E+03</rscale>
<asrwt>0</asrwt>
<pdfrwt beam="2">  1        4 0.48845600E-03 0.12499937E+03</pdfrwt>
<pdfrwt beam="1">  1       -4 0.18927947E+00 0.12499937E+03</pdfrwt>
<totfact> 0.23852888E+03</totfact>
</mgrwt>
</event>
<event>
 5    1  0.3281209E-002  0.1249987E+03  0.7818608E-02  0.1235071E+00
          4   -1    0    0  501    0  0.00000000000E+00  0.00000000000E+00  0.13196138699E+03  0.13196749811E+03  0.12700000000E+01 0. -1.
         -4   -1    0    0    0  501 -0.00000000000E+00 -0.00000000000E+00 -0.29580432787E+02  0.29607683190E+02  0.12700000000E+01 0. -1.
         25    2    1    2    0    0  0.00000000000E+00  0.00000000000E+00  0.10238095420E+03  0.16157518130E+03  0.12499871770E+03 0.  0.
    9000005    1    3    3    0    0  0.49395722633E+02  0.37529206760E+02  0.41449350959E+02  0.74615195968E+02  0.10000000000E+01 0.  0.
    9000005    1    3    3    0    0 -0.49395722633E+02 -0.37529206760E+02  0.60931603246E+02  0.86959985330E+02  0.10000000000E+01 0.  0.
<mgrwt>
<rscale>  0 0.12499872E+03</rscale>
<asrwt>0</asrwt>
<pdfrwt beam="1">  1        4 0.20304319E-01 0.12499872E+03</pdfrwt>
<pdfrwt beam="2">  1       -4 0.45534019E-02 0.12499872E+03</pdfrwt>
<totfact> 0.97042755E+03</totfact>
</mgrwt>
</event>
<event>
 5    1  0.3281209E-002  0.1250008E+03  0.7818608E-02  0.1235068E+00
          4   -1    0    0  501    0  0.00000000000E+00  0.00000000000E+00  0.23403322199E+02  0.23437755651E+02  0.12700000000E+01 0. -1.
         -4   -1    0    0    0  501 -0.00000000000E+00 -0.00000000000E+00 -0.16675267426E+03  0.16675751039E+03  0.12700000000E+01 0. -1.
         25    2    1    2    0    0  0.00000000000E+00  0.00000000000E+00 -0.14334935206E+03  0.19019526604E+03  0.12500080995E+03 0.  0.
    9000005    1    3    3    0    0 -0.67341625765E+01 -0.61103612199E+02 -0.88774395522E+02  0.10798561788E+03  0.10000000000E+01 0.  0.
    9000005    1    3    3    0    0  0.67341625765E+01  0.61103612199E+02 -0.54574956537E+02  0.82209648159E+02  0.10000000000E+01 0.  0.
<mgrwt>
<rscale>  0 0.12500081E+03</rscale>
<asrwt>0</asrwt>
<pdfrwt beam="1">  1        4 0.36035319E-02 0.12500081E+03</pdfrwt>
<pdfrwt beam="2">  1       -4 0.25657278E-01 0.12500081E+03</pdfrwt>
<totfact> 0.91811685E+03</totfact>
</mgrwt>
</event>
<event>
 5    1  0.3281209E-002  0.1250041E+03  0.7818608E-02  0.1235063E+00
          4   -1    0    0  501    0  0.00000000000E+00  0.00000000000E+00  0.25560150515E+04  0.25560153670E+04  0.12700000000E+01 0. -1.
         -4   -1    0    0    0  501 -0.00000000000E+00 -0.00000000000E+00 -0.12641602791E+01  0.17919266757E+01  0.12700000000E+01 0. -1.
         25    2    1    2    0    0  0.00000000000E+00  0.00000000000E+00  0.25547508912E+04  0.25578072937E+04  0.12500414169E+03 0.  0.
    9000005    1    3    3    0    0  0.14351436453E+02 -0.38952829129E+01  0.35365281900E+02  0.38377599210E+02  0.10000000000E+01 0.  0.
    9000005    1    3    3    0    0 -0.14351436453E+02  0.38952829129E+01  0.25193856093E+04  0.25194296945E+04  0.10000000000E+01 0.  0.
<mgrwt>
<rscale>  0 0.12500414E+03</rscale>
<asrwt>0</asrwt>
<pdfrwt beam="1">  1        4 0.39327301E+00 0.12500414E+03</pdfrwt>
<pdfrwt beam="2">  1       -4 0.23510830E-03 0.12500414E+03</pdfrwt>
<totfact> 0.42305852E+02</totfact>
</mgrwt>
</event>
<event>
 5    1  0.3281209E-002  0.1249994E+03  0.7818608E-02  0.1235070E+00
         -4   -1    0    0    0  501 -0.00000000000E+00  0.00000000000E+00  0.24888508322E+02  0.24920889762E+02  0.12700000000E+01 0. -1.
          4   -1    0    0  501    0  0.00000000000E+00 -0.00000000000E+00 -0.15681152705E+03  0.15681666976E+03  0.12700000000E+01 0. -1.
         25    2    1    2    0    0  0.00000000000E+00  0.00000000000E+00 -0.13192301872E+03  0.18173755952E+03  0.12499943069E+03 0.  0.
    9000005    1    3    3    0    0 -0.47310164754E+02  0.18982024812E+02 -0.13406327993E+02  0.52719053342E+02  0.10000000000E+01 0.  0.
    9000005    1    3    3    0    0  0.47310164754E+02 -0.18982024812E+02 -0.11851669073E+03  0.12901850618E+03  0.10000000000E+01 0.  0.
<mgrwt>
<rscale>  0 0.12499943E+03</rscale>
<asrwt>0</asrwt>
<pdfrwt beam="2">  1        4 0.24127736E-01 0.12499943E+03</pdfrwt>
<pdfrwt beam="1">  1       -4 0.38318878E-02 0.12499943E+03</pdfrwt>
<totfact> 0.93306360E+03</totfact>
</mgrwt>
</event>
<event>
 5    1  0.3281209E-002  0.1249990E+03  0.7818608E-02  0.1235071E+00
         -4   -1    0    0    0  501 -0.00000000000E+00  0.00000000000E+00  0.16512588692E+03  0.16513077070E+03  0.12700000000E+01 0. -1.
          4   -1    0    0  501    0  0.00000000000E+00 -0.00000000000E+00 -0.23633547733E+02  0.23667646238E+02  0.12700000000E+01 0. -1.
         25    2    1    2    0    0  0.00000000000E+00  0.00000000000E+00  0.14149233919E+03  0.18879841694E+03  0.12499904075E+03 0.  0.
    9000005    1    3    3    0    0 -0.59233070182E+02  0.18593575026E+02  0.81523309068E+02  0.10247598527E+03  0.10000000000E+01 0.  0.
    9000005    1    3    3    0    0  0.59233070182E+02 -0.18593575026E+02  0.59969030121E+02  0.86322431668E+02  0.10000000000E+01 0.  0.
<mgrwt>
<rscale>  0 0.12499904E+03</rscale>
<asrwt>0</asrwt>
<pdfrwt beam="2">  1        4 0.36389289E-02 0.12499904E+03</pdfrwt>
<pdfrwt beam="1">  1       -4 0.25406982E-01 0.12499904E+03</pdfrwt>
<totfact> 0.92058784E+03</totfact>
</mgrwt>
</event>
<event>
 5    1  0.3281209E-002  0.1249983E+03  0.7818608E-02  0.1235072E+00
         -4   -1    0    0    0  501 -0.00000000000E+00  0.00000000000E+00  0.81983480799E+01  0.82961323060E+01  0.12700000000E+01 0. -1.
          4   -1    0    0  501    0  0.00000000000E+00 -0.00000000000E+00 -0.47353204508E+03  0.47353374813E+03  0.12700000000E+01 0. -1.
         25    2    1    2    0    0  0.00000000000E+00  0.00000000000E+00 -0.46533369700E+03  0.48182988044E+03  0.12499833646E+03 0.  0.
    9000005    1    3    3    0    0  0.25883038833E+02 -0.53848753975E+02 -0.30327463582E+03  0.30910536187E+03  0.10000000000E+01 0.  0.
    9000005    1    3    3    0    0 -0.25883038833E+02  0.53848753975E+02 -0.16205906118E+03  0.17272451857E+03  0.10000000000E+01 0.  0.
<mgrwt>
<rscale>  0 0.12499834E+03</rscale>
<asrwt>0</asrwt>
<pdfrwt beam="2">  1        4 0.72858716E-01 0.12499834E+03</pdfrwt>
<pdfrwt beam="1">  1       -4 0.12689376E-02 0.12499834E+03</pdfrwt>
<totfact> 0.57304335E+03</totfact>
</mgrwt>
</event>
<event>
 5    1  0.3281209E-002  0.1249996E+03  0.7818608E-02  0.1235070E+00
         -4   -1    0    0    0  501 -0.00000000000E+00  0.00000000000E+00  0.12083406082E+02  0.12149963068E+02  0.12700000000E+01 0.  1.
          4   -1    0    0  501    0  0.00000000000E+00 -0.00000000000E+00 -0.32231642119E+03  0.32231892322E+03  0.12700000000E+01 0.  1.
         25    2    1    2    0    0  0.00000000000E+00  0.00000000000E+00 -0.31023301511E+03  0.33446888629E+03  0.12499964894E+03 0.  0.
    9000005    1    3    3    0    0 -0.62012301106E+02  0.55796604307E+01 -0.14081434385E+03  0.15396862515E+03  0.10000000000E+01 0.  0.
    9000005    1    3    3    0    0  0.62012301106E+02 -0.55796604307E+01 -0.16941867126E+03  0.18050026114E+03  0.10000000000E+01 0.  0.
<mgrwt>
<rscale>  0 0.12499965E+03</rscale>
<asrwt>0</asrwt>
<pdfrwt beam="2">  1        4 0.49592448E-01 0.12499965E+03</pdfrwt>
<pdfrwt beam="1">  1       -4 0.18642980E-02 0.12499965E+03</pdfrwt>
<totfact> 0.71468216E+03</totfact>
</mgrwt>
</event>
<event>
 5    1  0.3281209E-002  0.1250012E+03  0.7818608E-02  0.1235067E+00
         -4   -1    0    0    0  501 -0.00000000000E+00  0.00000000000E+00  0.22865810426E+02  0.22901052081E+02  0.12700000000E+01 0.  1.
          4   -1    0    0  501    0  0.00000000000E+00 -0.00000000000E+00 -0.17066770545E+03  0.17067243064E+03  0.12700000000E+01 0.  1.
         25    2    1    2    0    0  0.00000000000E+00  0.00000000000E+00 -0.14780189502E+03  0.19357348273E+03  0.12500117217E+03 0.  0.
    9000005    1    3    3    0    0  0.33352783571E+02  0.51558395576E+02 -0.91870200098E+02  0.11050705856E+03  0.10000000000E+01 0.  0.
    9000005    1    3    3    0    0 -0.33352783571E+02 -0.51558395576E+02 -0.55931694923E+02  0.83066424163E+02  0.10000000000E+01 0.  0.
<mgrwt>
<rscale>  0 0.12500117E+03</rscale>
<asrwt>0</asrwt>
<pdfrwt beam="2">  1        4 0.26259644E-01 0.12500117E+03</pdfrwt>
<pdfrwt beam="1">  1       -4 0.35208915E-02 0.12500117E+03</pdfrwt>
<totfact> 0.91226837E+03</totfact>
</mgrwt>
</event>
<event>
 5    1  0.3281209E-002  0.1250556E+03  0.7818608E-02  0.1234982E+00
         -4   -1    0    0    0  501 -0.00000000000E+00  0.00000000000E+00  0.25550046627E+02  0.25581590698E+02  0.12700000000E+01 0. -1.
          4   -1    0    0  501    0  0.00000000000E+00 -0.00000000000E+00 -0.15289371376E+03  0.15289898825E+03  0.12700000000E+01 0. -1.
         25    2    1    2    0    0  0.00000000000E+00  0.00000000000E+00 -0.12734366713E+03  0.17848057895E+03  0.12505561764E+03 0.  0.
    9000005    1    3    3    0    0 -0.21985408761E+02  0.40141037242E+02 -0.28843340414E+01  0.45869166682E+02  0.10000000000E+01 0.  0.
    9000005    1    3    3    0    0  0.21985408761E+02 -0.40141037242E+02 -0.12445933309E+03  0.13261141227E+03  0.10000000000E+01 0.  0.
<mgrwt>
<rscale>  0 0.12505562E+03</rscale>
<asrwt>0</asrwt>
<pdfrwt beam="2">  1        4 0.23524941E-01 0.12505562E+03</pdfrwt>
<pdfrwt beam="1">  1       -4 0.39336087E-02 0.12505562E+03</pdfrwt>
<totfact> 0.93774212E+03</totfact>
</mgrwt>
</event>
<event>
 5    1  0.3281209E-002  0.1250089E+03  0.7818608E-02  0.1235055E+00
         -4   -1    0    0    0  501 -0.00000000000E+00  0.00000000000E+00  0.27168360801E+02  0.27198028028E+02  0.12700000000E+01 0.  1.
          4   -1    0    0  501    0  0.00000000000E+00 -0.00000000000E+00 -0.14368888071E+03  0.14369449307E+03  0.12700000000E+01 0.  1.
         25    2    1    2    0    0  0.00000000000E+00  0.00000000000E+00 -0.11652051990E+03  0.17089252110E+03  0.12500888852E+03 0.  0.
    9000005    1    3    3    0    0  0.12469103276E+02  0.65489466205E+01 -0.14149777949E+03  0.14220052335E+03  0.10000000000E+01 0.  0.
    9000005    1    3    3    0    0 -0.12469103276E+02 -0.65489466205E+01  0.24977259590E+02  0.28691997751E+02  0.10000000000E+01 0.  0.
<mgrwt>
<rscale>  0 0.12500889E+03</rscale>
<asrwt>0</asrwt>
<pdfrwt beam="2">  1        4 0.22108695E-01 0.12500889E+03</pdfrwt>
<pdfrwt beam="1">  1       -4 0.41824617E-02 0.12500889E+03</pdfrwt>
<totfact> 0.95263539E+03</totfact>
</mgrwt>
</event>
<event>
 5    1  0.3281209E-002  0.1250014E+03  0.7818608E-02  0.1235067E+00
         -4   -1    0    0    0  501 -0.00000000000E+00  0.00000000000E+00  0.12783158556E+02  0.12846090560E+02  0.12700000000E+01 0.  1.
          4   -1    0    0  501    0  0.00000000000E+00 -0.00000000000E+00 -0.30477024461E+03  0.30477289070E+03  0.12700000000E+01 0.  1.
         25    2    1    2    0    0  0.00000000000E+00  0.00000000000E+00 -0.29198708606E+03  0.31761898126E+03  0.12500143531E+03 0.  0.
    9000005    1    3    3    0    0 -0.62392611659E+02  0.35157992444E+01 -0.14694722945E+03  0.15968621442E+03  0.10000000000E+01 0.  0.
    9000005    1    3    3    0    0  0.62392611659E+02 -0.35157992444E+01 -0.14503985661E+03  0.15793276683E+03  0.10000000000E+01 0.  0.
<mgrwt>
<rscale>  0 0.12500144E+03</rscale>
<asrwt>0</asrwt>
<pdfrwt beam="2">  1        4 0.46892769E-01 0.12500144E+03</pdfrwt>
<pdfrwt beam="1">  1       -4 0.19716845E-02 0.12500144E+03</pdfrwt>
<totfact> 0.73437879E+03</totfact>
</mgrwt>
</event>
<event>
 5    1  0.3281209E-002  0.1249952E+03  0.7818608E-02  0.1235077E+00
          4   -1    0    0  501    0  0.00000000000E+00  0.00000000000E+00  0.13408451345E+03  0.13409052780E+03  0.12700000000E+01 0.  1.
         -4   -1    0    0    0  501 -0.00000000000E+00 -0.00000000000E+00 -0.29109988902E+02  0.29137679281E+02  0.12700000000E+01 0.  1.
         25    2    1    2    0    0  0.00000000000E+00  0.00000000000E+00  0.10497452454E+03  0.16322820708E+03  0.12499518704E+03 0.  0.
    9000005    1    3    3    0    0 -0.52108468301E+02 -0.28449583520E+02  0.27021746467E+02  0.65236845826E+02  0.10000000000E+01 0.  0.
    9000005    1    3    3    0    0  0.52108468301E+02  0.28449583520E+02  0.77952778076E+02  0.97991361257E+02  0.10000000000E+01 0.  0.
<mgrwt>
<rscale>  0 0.12499519E+03</rscale>
<asrwt>0</asrwt>
<pdfrwt beam="1">  1        4 0.20630980E-01 0.12499519E+03</pdfrwt>
<pdfrwt beam="2">  1       -4 0.44810524E-02 0.12499519E+03</pdfrwt>
<totfact> 0.96734458E+03</totfact>
</mgrwt>
</event>
<event>
 5    1  0.3281209E-002  0.1249990E+03  0.7818608E-02  0.1235071E+00
         -4   -1    0    0    0  501 -0.00000000000E+00  0.00000000000E+00  0.63019998383E+03  0.63020126350E+03  0.12700000000E+01 0.  1.
          4   -1    0    0  501    0  0.00000000000E+00 -0.00000000000E+00 -0.61319736158E+01  0.62621083051E+01  0.12700000000E+01 0.  1.
         25    2    1    2    0    0  0.00000000000E+00  0.00000000000E+00  0.62406801021E+03  0.63646337181E+03  0.12499896911E+03 0.  0.
    9000005    1    3    3    0    0  0.58820533589E+02 -0.12575943778E+02  0.39832015325E+03  0.40283737913E+03  0.10000000000E+01 0.  0.
    9000005    1    3    3    0    0 -0.58820533589E+02  0.12575943778E+02  0.22574785696E+03  0.23362599268E+03  0.10000000000E+01 0.  0.
<mgrwt>
<rscale>  0 0.12499897E+03</rscale>
<asrwt>0</asrwt>
<pdfrwt beam="2">  1        4 0.95348906E-03 0.12499897E+03</pdfrwt>
<pdfrwt beam="1">  1       -4 0.96963982E-01 0.12499897E+03</pdfrwt>
<totfact> 0.46645000E+03</totfact>
</mgrwt>
</event>
<event>
 5    1  0.3281209E-002  0.1250034E+03  0.7818608E-02  0.1235064E+00
         -4   -1    0    0    0  501 -0.00000000000E+00  0.00000000000E+00  0.51907968142E+03  0.51908123503E+03  0.12700000000E+01 0. -1.
          4   -1    0    0  501    0  0.00000000000E+00 -0.00000000000E+00 -0.74705873098E+01  0.75777684547E+01  0.12700000000E+01 0. -1.
         25    2    1    2    0    0  0.00000000000E+00  0.00000000000E+00  0.51160909411E+03  0.52665900349E+03  0.12500336307E+03 0.  0.
    9000005    1    3    3    0    0 -0.30311183413E+02  0.53814059170E+02  0.21567116642E+03  0.22434298034E+03  0.10000000000E+01 0.  0.
    9000005    1    3    3    0    0  0.30311183413E+02 -0.53814059170E+02  0.29593792769E+03  0.30231602314E+03  0.10000000000E+01 0.  0.
<mgrwt>
<rscale>  0 0.12500336E+03</rscale>
<asrwt>0</asrwt>
<pdfrwt beam="2">  1        4 0.11576853E-02 0.12500336E+03</pdfrwt>
<pdfrwt beam="1">  1       -4 0.79866778E-01 0.12500336E+03</pdfrwt>
<totfact> 0.53849719E+03</totfact>
</mgrwt>
</event>
<event>
 4    1  0.3281209E-002  0.1249077E+03  0.7818608E-02  0.1235214E+00
         -4   -1    0    0    0  501 -0.00000000000E+00  0.00000000000E+00  0.78738591266E+03  0.78738693687E+03  0.12700000000E+01 0.  1.
          4   -1    0    0  501    0  0.00000000000E+00 -0.00000000000E+00 -0.48712678860E+01  0.50340988088E+01  0.12700000000E+01 0.  1.
    9000005    1    1    2    0    0  0.36295216845E+01 -0.28862428220E+02  0.40707796793E+02  0.50043360301E+02  0.10000000000E+01 0.  0.
    9000005    1    1    2    0    0 -0.36295216845E+01  0.28862428220E+02  0.74180684798E+03  0.74237767538E+03  0.10000000000E+01 0.  0.
<mgrwt>
<rscale>  0 0.12490768E+03</rscale>
<asrwt>0</asrwt>
<pdfrwt beam="2">  1        4 0.76203002E-03 0.12490768E+03</pdfrwt>
<pdfrwt beam="1">  1       -4 0.12114891E+00 0.12490768E+03</pdfrwt>
<totfact> 0.38683290E+03</totfact>
</mgrwt>
</event>
<event>
 5    1  0.3281209E-002  0.1249985E+03  0.7818608E-02  0.1235072E+00
         -4   -1    0    0    0  501 -0.00000000000E+00  0.00000000000E+00  0.56730637017E+02  0.56744850660E+02  0.12700000000E+01 0.  1.
          4   -1    0    0  501    0  0.00000000000E+00 -0.00000000000E+00 -0.68825774596E+02  0.68837490866E+02  0.12700000000E+01 0.  1.
         25    2    1    2    0    0  0.00000000000E+00  0.00000000000E+00 -0.12095137579E+02  0.12558234153E+03  0.12499852859E+03 0.  0.
    9000005    1    3    3    0    0  0.24968558597E+02  0.48674489838E+02 -0.36396655259E+02  0.65714164329E+02  0.10000000000E+01 0.  0.
    9000005    1    3    3    0    0 -0.24968558597E+02 -0.48674489838E+02  0.24301517680E+02  0.59868177197E+02  0.10000000000E+01 0.  0.
<mgrwt>
<rscale>  0 0.12499853E+03</rscale>
<asrwt>0</asrwt>
<pdfrwt beam="2">  1        4 0.10590575E-01 0.12499853E+03</pdfrwt>
<pdfrwt beam="1">  1       -4 0.87297849E-02 0.12499853E+03</pdfrwt>
<totfact> 0.10440483E+04</totfact>
</mgrwt>
</event>
<event>
 5    1  0.3281209E-002  0.1250033E+03  0.7818608E-02  0.1235064E+00
         -4   -1    0    0    0  501 -0.00000000000E+00  0.00000000000E+00  0.84587799156E+03  0.84587894495E+03  0.12700000000E+01 0. -1.
          4   -1    0    0  501    0  0.00000000000E+00 -0.00000000000E+00 -0.45299423468E+01  0.47046017542E+01  0.12700000000E+01 0. -1.
         25    2    1    2    0    0  0.00000000000E+00  0.00000000000E+00  0.84134804921E+03  0.85058354670E+03  0.12500331998E+03 0.  0.
    9000005    1    3    3    0    0  0.20952060999E+02 -0.20684999793E+02  0.79576114838E+03  0.79630626228E+03  0.10000000000E+01 0.  0.
    9000005    1    3    3    0    0 -0.20952060999E+02  0.20684999793E+02  0.45586900833E+02  0.54277284421E+02  0.10000000000E+01 0.  0.
<mgrwt>
<rscale>  0 0.12500332E+03</rscale>
<asrwt>0</asrwt>
<pdfrwt beam="2">  1        4 0.71042358E-03 0.12500332E+03</pdfrwt>
<pdfrwt beam="1">  1       -4 0.13014846E+00 0.12500332E+03</pdfrwt>
<totfact> 0.36100870E+03</totfact>
</mgrwt>
</event>
<event>
 5    1  0.3281209E-002  0.1250010E+03  0.7818608E-02  0.1235068E+00
          4   -1    0    0  501    0  0.00000000000E+00  0.00000000000E+00  0.24354182550E+04  0.24354185861E+04  0.12700000000E+01 0.  1.
         -4   -1    0    0    0  501 -0.00000000000E+00 -0.00000000000E+00 -0.13521839034E+01  0.18550744752E+01  0.12700000000E+01 0.  1.
         25    2    1    2    0    0  0.00000000000E+00  0.00000000000E+00  0.24340660711E+04  0.24372736606E+04  0.12500103294E+03 0.  0.
    9000005    1    3    3    0    0  0.72464890249E+01 -0.24914639554E+02  0.23255201488E+04  0.23256651120E+04  0.10000000000E+01 0.  0.
    9000005    1    3    3    0    0 -0.72464890249E+01  0.24914639554E+02  0.10854592229E+03  0.11160854856E+03  0.10000000000E+01 0.  0.
<mgrwt>
<rscale>  0 0.12500103E+03</rscale>
<asrwt>0</asrwt>
<pdfrwt beam="1">  1        4 0.37471919E+00 0.12500103E+03</pdfrwt>
<pdfrwt beam="2">  1       -4 0.24673716E-03 0.12500103E+03</pdfrwt>
<totfact> 0.51809253E+02</totfact>
</mgrwt>
</event>
<event>
 5    1  0.3281209E-002  0.1250004E+03  0.7818608E-02  0.1235069E+00
         -4   -1    0    0    0  501 -0.00000000000E+00  0.00000000000E+00  0.17928414882E+02  0.17973340262E+02  0.12700000000E+01 0.  1.
          4   -1    0    0  501    0  0.00000000000E+00 -0.00000000000E+00 -0.21756237647E+03  0.21756608319E+03  0.12700000000E+01 0.  1.
         25    2    1    2    0    0  0.00000000000E+00  0.00000000000E+00 -0.19963396159E+03  0.23553942345E+03  0.12500040552E+03 0.  0.
    9000005    1    3    3    0    0  0.49335227542E+02 -0.81465225993E+01 -0.17044577993E+03  0.17763190705E+03  0.10000000000E+01 0.  0.
    9000005    1    3    3    0    0 -0.49335227542E+02  0.81465225993E+01 -0.29188181656E+02  0.57907516399E+02  0.10000000000E+01 0.  0.
<mgrwt>
<rscale>  0 0.12500041E+03</rscale>
<asrwt>0</asrwt>
<pdfrwt beam="2">  1        4 0.33474874E-01 0.12500041E+03</pdfrwt>
<pdfrwt beam="1">  1       -4 0.27619588E-02 0.12500041E+03</pdfrwt>
<totfact> 0.84465445E+03</totfact>
</mgrwt>
</event>
<event>
 5    1  0.3281209E-002  0.1249971E+03  0.7818608E-02  0.1235074E+00
         -4   -1    0    0    0  501 -0.00000000000E+00  0.00000000000E+00  0.19288805652E+03  0.19289223740E+03  0.12700000000E+01 0.  1.
          4   -1    0    0  501    0  0.00000000000E+00 -0.00000000000E+00 -0.20226117193E+02  0.20265949687E+02  0.12700000000E+01 0.  1.
         25    2    1    2    0    0  0.00000000000E+00  0.00000000000E+00  0.17266193933E+03  0.21315818709E+03  0.12499706968E+03 0.  0.
    9000005    1    3    3    0    0 -0.13842133605E+02 -0.29747919073E+02 -0.43637665604E+01  0.33114737059E+02  0.10000000000E+01 0.  0.
    9000005    1    3    3    0    0  0.13842133605E+02  0.29747919073E+02  0.17702570589E+03  0.18004345003E+03  0.10000000000E+01 0.  0.
<mgrwt>
<rscale>  0 0.12499707E+03</rscale>
<asrwt>0</asrwt>
<pdfrwt beam="2">  1        4 0.31150959E-02 0.12499707E+03</pdfrwt>
<pdfrwt beam="1">  1       -4 0.29678472E-01 0.12499707E+03</pdfrwt>
<totfact> 0.87968451E+03</totfact>
</mgrwt>
</event>
<event>
 5    1  0.3281209E-002  0.1249997E+03  0.7818608E-02  0.1235070E+00
          4   -1    0    0  501    0  0.00000000000E+00  0.00000000000E+00  0.22945617896E+01  0.26225777026E+01  0.12700000000E+01 0. -1.
         -4   -1    0    0    0  501 -0.00000000000E+00 -0.00000000000E+00 -0.15884948118E+04  0.15884953195E+04  0.12700000000E+01 0. -1.
         25    2    1    2    0    0  0.00000000000E+00  0.00000000000E+00 -0.15862002500E+04  0.15911178972E+04  0.12499971843E+03 0.  0.
    9000005    1    3    3    0    0  0.45002962214E+02  0.33330822500E+02 -0.44010986141E+03  0.44365966736E+03  0.10000000000E+01 0.  0.
    9000005    1    3    3    0    0 -0.45002962214E+02 -0.33330822500E+02 -0.11460903886E+04  0.11474582298E+04  0.10000000000E+01 0.  0.
<mgrwt>
<rscale>  0 0.12499972E+03</rscale>
<asrwt>0</asrwt>
<pdfrwt beam="1">  1        4 0.37828182E-03 0.12499972E+03</pdfrwt>
<pdfrwt beam="2">  1       -4 0.24440827E+00 0.12499972E+03</pdfrwt>
<totfact> 0.16207321E+03</totfact>
</mgrwt>
</event>
<event>
 5    1  0.3281209E-002  0.1250015E+03  0.7818608E-02  0.1235067E+00
          4   -1    0    0  501    0  0.00000000000E+00  0.00000000000E+00  0.56273556340E+01  0.57688847650E+01  0.12700000000E+01 0. -1.
         -4   -1    0    0    0  501 -0.00000000000E+00 -0.00000000000E+00 -0.68540793846E+03  0.68540911506E+03  0.12700000000E+01 0. -1.
         25    2    1    2    0    0  0.00000000000E+00  0.00000000000E+00 -0.67978058282E+03  0.69117799982E+03  0.12500154660E+03 0.  0.
    9000005    1    3    3    0    0 -0.29439213485E+02 -0.51541458133E+02 -0.23179775846E+03  0.23927889590E+03  0.10000000000E+01 0.  0.
    9000005    1    3    3    0    0  0.29439213485E+02  0.51541458133E+02 -0.44798282436E+03  0.45189910392E+03  0.10000000000E+01 0.  0.
<mgrwt>
<rscale>  0 0.12500155E+03</rscale>
<asrwt>0</asrwt>
<pdfrwt beam="1">  1        4 0.87672493E-03 0.12500155E+03</pdfrwt>
<pdfrwt beam="2">  1       -4 0.10545829E+00 0.12500155E+03</pdfrwt>
<totfact> 0.43555048E+03</totfact>
</mgrwt>
</event>
<event>
 5    1  0.3281209E-002  0.1249996E+03  0.7818608E-02  0.1235070E+00
          4   -1    0    0  501    0  0.00000000000E+00  0.00000000000E+00  0.14290151841E+02  0.14346474816E+02  0.12700000000E+01 0. -1.
         -4   -1    0    0    0  501 -0.00000000000E+00 -0.00000000000E+00 -0.27275542860E+03  0.27275838526E+03  0.12700000000E+01 0. -1.
         25    2    1    2    0    0  0.00000000000E+00  0.00000000000E+00 -0.25846527676E+03  0.28710486007E+03  0.12499960556E+03 0.  0.
    9000005    1    3    3    0    0  0.36499073500E+02  0.46077555707E+02 -0.17795078823E+03  0.18741079621E+03  0.10000000000E+01 0.  0.
    9000005    1    3    3    0    0 -0.36499073500E+02 -0.46077555707E+02 -0.80514488529E+02  0.99694063863E+02  0.10000000000E+01 0.  0.
<mgrwt>
<rscale>  0 0.12499961E+03</rscale>
<asrwt>0</asrwt>
<pdfrwt beam="1">  1        4 0.22030451E-02 0.12499961E+03</pdfrwt>
<pdfrwt beam="2">  1       -4 0.41966929E-01 0.12499961E+03</pdfrwt>
<totfact> 0.77246065E+03</totfact>
</mgrwt>
</event>
<event>
 4    1  0.3281209E-002  0.1250760E+03  0.7818608E-02  0.1234951E+00
         -4   -1    0    0    0  501 -0.00000000000E+00  0.00000000000E+00  0.14453622499E+02  0.14509310919E+02  0.12700000000E+01 0. -1.
          4   -1    0    0  501    0  0.00000000000E+00 -0.00000000000E+00 -0.27001217560E+03  0.27001516230E+03  0.12700000000E+01 0. -1.
    9000005    1    1    2    0    0  0.15196766832E+02 -0.60632457882E+02 -0.12399748739E+03  0.13886545124E+03  0.10000000000E+01 0.  0.
    9000005    1    1    2    0    0 -0.15196766832E+02  0.60632457882E+02 -0.13156106571E+03  0.14565902197E+03  0.10000000000E+01 0.  0.
<mgrwt>
<rscale>  0 0.12507598E+03</rscale>
<asrwt>0</asrwt>
<pdfrwt beam="2">  1        4 0.41544845E-01 0.12507598E+03</pdfrwt>
<pdfrwt beam="1">  1       -4 0.22281479E-02 0.12507598E+03</pdfrwt>
<totfact> 0.77451144E+03</totfact>
</mgrwt>
</event>
<event>
 5    1  0.3281209E-002  0.1250136E+03  0.7818608E-02  0.1235048E+00
         -4   -1    0    0    0  501 -0.00000000000E+00  0.00000000000E+00  0.51050738526E+01  0.52606728696E+01  0.12700000000E+01 0.  1.
          4   -1    0    0  501    0  0.00000000000E+00 -0.00000000000E+00 -0.75369207181E+03  0.75369314180E+03  0.12700000000E+01 0.  1.
         25    2    1    2    0    0  0.00000000000E+00  0.00000000000E+00 -0.74858699795E+03  0.75895381467E+03  0.12501359647E+03 0.  0.
    9000005    1    3    3    0    0 -0.54443388303E+02 -0.25627605951E+02 -0.27176002324E+03  0.27834397236E+03  0.10000000000E+01 0.  0.
    9000005    1    3    3    0    0  0.54443388303E+02  0.25627605951E+02 -0.47682697471E+03  0.48060984231E+03  0.10000000000E+01 0.  0.
<mgrwt>
<rscale>  0 0.12501360E+03</rscale>
<asrwt>0</asrwt>
<pdfrwt beam="2">  1        4 0.11596459E+00 0.12501360E+03</pdfrwt>
<pdfrwt beam="1">  1       -4 0.79744803E-03 0.12501360E+03</pdfrwt>
<totfact> 0.40137590E+03</totfact>
</mgrwt>
</event>
<event>
 5    1  0.3281209E-002  0.1250000E+03  0.7818608E-02  0.1235069E+00
         -4   -1    0    0    0  501 -0.00000000000E+00  0.00000000000E+00  0.26824357146E+01  0.29678883677E+01  0.12700000000E+01 0.  1.
          4   -1    0    0  501    0  0.00000000000E+00 -0.00000000000E+00 -0.13823787150E+04  0.13823792984E+04  0.12700000000E+01 0.  1.
         25    2    1    2    0    0  0.00000000000E+00  0.00000000000E+00 -0.13796962793E+04  0.13853471868E+04  0.12500001901E+03 0.  0.
    9000005    1    3    3    0    0  0.61486806929E+02 -0.11157008863E+02 -0.68562918445E+03  0.68847184753E+03  0.10000000000E+01 0.  0.
    9000005    1    3    3    0    0 -0.61486806929E+02  0.11157008863E+02 -0.69406709484E+03  0.69687533922E+03  0.10000000000E+01 0.  0.
<mgrwt>
<rscale>  0 0.12500002E+03</rscale>
<asrwt>0</asrwt>
<pdfrwt beam="2">  1        4 0.21269511E+00 0.12500002E+03</pdfrwt>
<pdfrwt beam="1">  1       -4 0.43468629E-03 0.12500002E+03</pdfrwt>
<totfact> 0.20297630E+03</totfact>
</mgrwt>
</event>
<event>
 5    1  0.3281209E-002  0.1249996E+03  0.7818608E-02  0.1235070E+00
         -4   -1    0    0    0  501 -0.00000000000E+00  0.00000000000E+00  0.17222228169E+02  0.17268990796E+02  0.12700000000E+01 0.  1.
          4   -1    0    0  501    0  0.00000000000E+00 -0.00000000000E+00 -0.22645688484E+03  0.22646044597E+03  0.12700000000E+01 0.  1.
         25    2    1    2    0    0  0.00000000000E+00  0.00000000000E+00 -0.20923465667E+03  0.24372943677E+03  0.12499958718E+03 0.  0.
    9000005    1    3    3    0    0 -0.55925019425E+01  0.57212624248E+02 -0.56829739663E+02  0.80840458692E+02  0.10000000000E+01 0.  0.
    9000005    1    3    3    0    0  0.55925019425E+01 -0.57212624248E+02 -0.15240491700E+03  0.16288897808E+03  0.10000000000E+01 0.  0.
<mgrwt>
<rscale>  0 0.12499959E+03</rscale>
<asrwt>0</asrwt>
<pdfrwt beam="2">  1        4 0.34843390E-01 0.12499959E+03</pdfrwt>
<pdfrwt beam="1">  1       -4 0.26534448E-02 0.12499959E+03</pdfrwt>
<totfact> 0.83245817E+03</totfact>
</mgrwt>
</event>
<event>
 5    1  0.3281209E-002  0.1250043E+03  0.7818608E-02  0.1235063E+00
         -4   -1    0    0    0  501 -0.00000000000E+00  0.00000000000E+00  0.95225075866E+02  0.95233544372E+02  0.12700000000E+01 0.  1.
          4   -1    0    0  501    0  0.00000000000E+00 -0.00000000000E+00 -0.41003943713E+02  0.41023606618E+02  0.12700000000E+01 0.  1.
         25    2    1    2    0    0  0.00000000000E+00  0.00000000000E+00  0.54221132154E+02  0.13625715099E+03  0.12500432002E+03 0.  0.
    9000005    1    3    3    0    0  0.40944408537E+02 -0.35523902945E+02  0.61008731991E+02  0.81617753278E+02  0.10000000000E+01 0.  0.
    9000005    1    3    3    0    0 -0.40944408537E+02  0.35523902945E+02 -0.67875998374E+01  0.54639397713E+02  0.10000000000E+01 0.  0.
<mgrwt>
<rscale>  0 0.12500432E+03</rscale>
<asrwt>0</asrwt>
<pdfrwt beam="2">  1        4 0.63104630E-02 0.12500432E+03</pdfrwt>
<pdfrwt beam="1">  1       -4 0.14652176E-01 0.12500432E+03</pdfrwt>
<totfact> 0.10210646E+04</totfact>
</mgrwt>
</event>
<event>
 5    1  0.3281209E-002  0.1250018E+03  0.7818608E-02  0.1235066E+00
         -4   -1    0    0    0  501 -0.00000000000E+00  0.00000000000E+00  0.93333700299E+02  0.93342340401E+02  0.12700000000E+01 0. -1.
          4   -1    0    0  501    0  0.00000000000E+00 -0.00000000000E+00 -0.41833537443E+02  0.41852810599E+02  0.12700000000E+01 0. -1.
         25    2    1    2    0    0  0.00000000000E+00  0.00000000000E+00  0.51500162856E+02  0.13519515100E+03  0.12500184830E+03 0.  0.
    9000005    1    3    3    0    0  0.10196709997E+02  0.59084486462E+02  0.44805425233E+02  0.74856366233E+02  0.10000000000E+01 0.  0.
    9000005    1    3    3    0    0 -0.10196709997E+02 -0.59084486462E+02  0.66947376232E+01  0.60338784767E+02  0.10000000000E+01 0.  0.
<mgrwt>
<rscale>  0 0.12500185E+03</rscale>
<asrwt>0</asrwt>
<pdfrwt beam="2">  1        4 0.64380761E-02 0.12500185E+03</pdfrwt>
<pdfrwt beam="1">  1       -4 0.14361178E-01 0.12500185E+03</pdfrwt>
<totfact> 0.10233533E+04</totfact>
</mgrwt>
</event>
<event>
 5    1  0.3281209E-002  0.1249991E+03  0.7818608E-02  0.1235071E+00
         -4   -1    0    0    0  501 -0.00000000000E+00  0.00000000000E+00  0.13091301805E+03  0.13091917810E+03  0.12700000000E+01 0.  1.
          4   -1    0    0  501    0  0.00000000000E+00 -0.00000000000E+00 -0.29817697829E+02  0.29844731592E+02  0.12700000000E+01 0.  1.
         25    2    1    2    0    0  0.00000000000E+00  0.00000000000E+00  0.10109532022E+03  0.16076390969E+03  0.12499908355E+03 0.  0.
    9000005    1    3    3    0    0  0.28410035020E+02  0.42001052363E+02  0.35738864390E+01  0.50842808279E+02  0.10000000000E+01 0.  0.
    9000005    1    3    3    0    0 -0.28410035020E+02 -0.42001052363E+02  0.97521433779E+02  0.10992110141E+03  0.10000000000E+01 0.  0.
<mgrwt>
<rscale>  0 0.12499908E+03</rscale>
<asrwt>0</asrwt>
<pdfrwt beam="2">  1        4 0.45898915E-02 0.12499908E+03</pdfrwt>
<pdfrwt beam="1">  1       -4 0.20143018E-01 0.12499908E+03</pdfrwt>
<totfact> 0.97197713E+03</totfact>
</mgrwt>
</event>
<event>
 5    1  0.3281209E-002  0.1249902E+03  0.7818608E-02  0.1235085E+00
         -4   -1    0    0    0  501 -0.00000000000E+00  0.00000000000E+00  0.10491217763E+03  0.10491986425E+03  0.12700000000E+01 0. -1.
          4   -1    0    0  501    0  0.00000000000E+00 -0.00000000000E+00 -0.37207783719E+02  0.37229451638E+02  0.12700000000E+01 0. -1.
         25    2    1    2    0    0  0.00000000000E+00  0.00000000000E+00  0.67704393908E+02  0.14214931589E+03  0.12499017183E+03 0.  0.
    9000005    1    3    3    0    0  0.44859101003E+02 -0.14596214700E+02  0.80456524181E+02  0.93271864513E+02  0.10000000000E+01 0.  0.
    9000005    1    3    3    0    0 -0.44859101003E+02  0.14596214700E+02 -0.12752130274E+02  0.48877451375E+02  0.10000000000E+01 0.  0.
<mgrwt>
<rscale>  0 0.12499017E+03</rscale>
<asrwt>0</asrwt>
<pdfrwt beam="2">  1        4 0.57265327E-02 0.12499017E+03</pdfrwt>
<pdfrwt beam="1">  1       -4 0.16142593E-01 0.12499017E+03</pdfrwt>
<totfact> 0.10091467E+04</totfact>
</mgrwt>
</event>
<event>
 5    1  0.3281209E-002  0.1249987E+03  0.7818608E-02  0.1235071E+00
          4   -1    0    0  501    0  0.00000000000E+00  0.00000000000E+00  0.66343752963E+02  0.66355907477E+02  0.12700000000E+01 0. -1.
         -4   -1    0    0    0  501 -0.00000000000E+00 -0.00000000000E+00 -0.58853310128E+02  0.58867011245E+02  0.12700000000E+01 0. -1.
         25    2    1    2    0    0  0.00000000000E+00  0.00000000000E+00  0.74904428350E+01  0.12522291872E+03  0.12499869055E+03 0.  0.
    9000005    1    3    3    0    0  0.20299295041E+02  0.16567546218E+02 -0.53089459606E+02  0.59211786733E+02  0.10000000000E+01 0.  0.
    9000005    1    3    3    0    0 -0.20299295041E+02 -0.16567546218E+02  0.60579902441E+02  0.66011131990E+02  0.10000000000E+01 0.  0.
<mgrwt>
<rscale>  0 0.12499869E+03</rscale>
<asrwt>0</asrwt>
<pdfrwt beam="1">  1        4 0.10208720E-01 0.12499869E+03</pdfrwt>
<pdfrwt beam="2">  1       -4 0.90563443E-02 0.12499869E+03</pdfrwt>
<totfact> 0.10448332E+04</totfact>
</mgrwt>
</event>
<event>
 5    1  0.3281209E-002  0.1250019E+03  0.7818608E-02  0.1235066E+00
          4   -1    0    0  501    0  0.00000000000E+00  0.00000000000E+00  0.52389494568E+01  0.53906856161E+01  0.12700000000E+01 0. -1.
         -4   -1    0    0    0  501 -0.00000000000E+00 -0.00000000000E+00 -0.73484367334E+03  0.73484477078E+03  0.12700000000E+01 0. -1.
         25    2    1    2    0    0  0.00000000000E+00  0.00000000000E+00 -0.72960472388E+03  0.74023545640E+03  0.12500191118E+03 0.  0.
    9000005    1    3    3    0    0 -0.19339400128E+02 -0.59145088322E+02 -0.33067331596E+03  0.33647881918E+03  0.10000000000E+01 0.  0.
    9000005    1    3    3    0    0  0.19339400128E+02  0.59145088322E+02 -0.39893140792E+03  0.40375663722E+03  0.10000000000E+01 0.  0.
<mgrwt>
<rscale>  0 0.12500191E+03</rscale>
<asrwt>0</asrwt>
<pdfrwt beam="1">  1        4 0.81774924E-03 0.12500191E+03</pdfrwt>
<pdfrwt beam="2">  1       -4 0.11306455E+00 0.12500191E+03</pdfrwt>
<totfact> 0.41043895E+03</totfact>
</mgrwt>
</event>
<event>
 5    1  0.3281209E-002  0.1249925E+03  0.7818608E-02  0.1235081E+00
          4   -1    0    0  501    0  0.00000000000E+00  0.00000000000E+00  0.94475897343E+02  0.94484432997E+02  0.12700000000E+01 0.  1.
         -4   -1    0    0    0  501 -0.00000000000E+00 -0.00000000000E+00 -0.41321407375E+02  0.41340919287E+02  0.12700000000E+01 0.  1.
         25    2    1    2    0    0  0.00000000000E+00  0.00000000000E+00  0.53154489968E+02  0.13582535228E+03  0.12499250585E+03 0.  0.
    9000005    1    3    3    0    0 -0.15940027639E+02  0.46519126651E+02 -0.15321774773E+02  0.51515729711E+02  0.10000000000E+01 0.  0.
    9000005    1    3    3    0    0  0.15940027639E+02 -0.46519126651E+02  0.68476264741E+02  0.84309622572E+02  0.10000000000E+01 0.  0.
<mgrwt>
<rscale>  0 0.12499251E+03</rscale>
<asrwt>0</asrwt>
<pdfrwt beam="1">  1        4 0.14536911E-01 0.12499251E+03</pdfrwt>
<pdfrwt beam="2">  1       -4 0.63592971E-02 0.12499251E+03</pdfrwt>
<totfact> 0.10222431E+04</totfact>
</mgrwt>
</event>
<event>
 5    1  0.3281209E-002  0.1250013E+03  0.7818608E-02  0.1235067E+00
         -4   -1    0    0    0  501 -0.00000000000E+00  0.00000000000E+00  0.16500084001E+03  0.16500572749E+03  0.12700000000E+01 0. -1.
          4   -1    0    0  501    0  0.00000000000E+00 -0.00000000000E+00 -0.23652337017E+02  0.23686408474E+02  0.12700000000E+01 0. -1.
         25    2    1    2    0    0  0.00000000000E+00  0.00000000000E+00  0.14134850299E+03  0.18869213596E+03  0.12500129150E+03 0.  0.
    9000005    1    3    3    0    0  0.45208123308E+02 -0.40886070012E+02  0.91475303454E+02  0.10992805045E+03  0.10000000000E+01 0.  0.
    9000005    1    3    3    0    0 -0.45208123308E+02  0.40886070012E+02  0.49873199538E+02  0.78764085510E+02  0.10000000000E+01 0.  0.
<mgrwt>
<rscale>  0 0.12500129E+03</rscale>
<asrwt>0</asrwt>
<pdfrwt beam="2">  1        4 0.36418181E-02 0.12500129E+03</pdfrwt>
<pdfrwt beam="1">  1       -4 0.25387740E-01 0.12500129E+03</pdfrwt>
<totfact> 0.92072714E+03</totfact>
</mgrwt>
</event>
<event>
 5    1  0.3281209E-002  0.1250037E+03  0.7818608E-02  0.1235063E+00
         -4   -1    0    0    0  501 -0.00000000000E+00  0.00000000000E+00  0.36893460375E+01  0.39018167800E+01  0.12700000000E+01 0.  1.
          4   -1    0    0  501    0  0.00000000000E+00 -0.00000000000E+00 -0.10290059594E+04  0.10290067431E+04  0.12700000000E+01 0.  1.
         25    2    1    2    0    0  0.00000000000E+00  0.00000000000E+00 -0.10253166134E+04  0.10329085599E+04  0.12500374183E+03 0.  0.
    9000005    1    3    3    0    0 -0.40347336156E+02 -0.24086033355E+02 -0.17222190334E+03  0.17852010679E+03  0.10000000000E+01 0.  0.
    9000005    1    3    3    0    0  0.40347336156E+02  0.24086033355E+02 -0.85309471004E+03  0.85438845312E+03  0.10000000000E+01 0.  0.
<mgrwt>
<rscale>  0 0.12500374E+03</rscale>
<asrwt>0</asrwt>
<pdfrwt beam="2">  1        4 0.15832479E+00 0.12500374E+03</pdfrwt>
<pdfrwt beam="1">  1       -4 0.58399671E-03 0.12500374E+03</pdfrwt>
<totfact> 0.29532121E+03</totfact>
</mgrwt>
</event>
<event>
 5    1  0.3281209E-002  0.1250005E+03  0.7818608E-02  0.1235068E+00
         -4   -1    0    0    0  501 -0.00000000000E+00  0.00000000000E+00  0.18852744823E+02  0.18895472668E+02  0.12700000000E+01 0.  1.
          4   -1    0    0  501    0  0.00000000000E+00 -0.00000000000E+00 -0.20692050147E+03  0.20692439883E+03  0.12700000000E+01 0.  1.
         25    2    1    2    0    0  0.00000000000E+00  0.00000000000E+00 -0.18806775665E+03  0.22581987149E+03  0.12500053308E+03 0.  0.
    9000005    1    3    3    0    0 -0.58911002805E+02  0.15512220352E+02 -0.11920582757E+03  0.13387368882E+03  0.10000000000E+01 0.  0.
    9000005    1    3    3    0    0  0.58911002805E+02 -0.15512220352E+02 -0.68861929082E+02  0.91946182675E+02  0.10000000000E+01 0.  0.
<mgrwt>
<rscale>  0 0.12500053E+03</rscale>
<asrwt>0</asrwt>
<pdfrwt beam="2">  1        4 0.31837508E-01 0.12500053E+03</pdfrwt>
<pdfrwt beam="1">  1       -4 0.29040090E-02 0.12500053E+03</pdfrwt>
<totfact> 0.85954598E+03</totfact>
</mgrwt>
</event>
<event>
 5    1  0.3281209E-002  0.1250052E+03  0.7818608E-02  0.1235061E+00
         -4   -1    0    0    0  501 -0.00000000000E+00  0.00000000000E+00  0.53249141845E+02  0.53264284537E+02  0.12700000000E+01 0.  1.
          4   -1    0    0  501    0  0.00000000000E+00 -0.00000000000E+00 -0.73333027606E+02  0.73344023873E+02  0.12700000000E+01 0.  1.
         25    2    1    2    0    0  0.00000000000E+00  0.00000000000E+00 -0.20083885761E+02  0.12660830841E+03  0.12500520506E+03 0.  0.
    9000005    1    3    3    0    0 -0.55060830868E+02  0.11774846098E+02 -0.37504860368E+02  0.67660598932E+02  0.10000000000E+01 0.  0.
    9000005    1    3    3    0    0  0.55060830868E+02 -0.11774846098E+02  0.17420974607E+02  0.58947709479E+02  0.10000000000E+01 0.  0.
<mgrwt>
<rscale>  0 0.12500521E+03</rscale>
<asrwt>0</asrwt>
<pdfrwt beam="2">  1        4 0.11284015E-01 0.12500521E+03</pdfrwt>
<pdfrwt beam="1">  1       -4 0.81941863E-02 0.12500521E+03</pdfrwt>
<totfact> 0.10416443E+04</totfact>
</mgrwt>
</event>
<event>
 5    1  0.3281209E-002  0.1250053E+03  0.7818608E-02  0.1235061E+00
          4   -1    0    0  501    0  0.00000000000E+00  0.00000000000E+00  0.51400374762E+02  0.51416061943E+02  0.12700000000E+01 0. -1.
         -4   -1    0    0    0  501 -0.00000000000E+00 -0.00000000000E+00 -0.75970348876E+02  0.75980963460E+02  0.12700000000E+01 0. -1.
         25    2    1    2    0    0  0.00000000000E+00  0.00000000000E+00 -0.24569974114E+02  0.12739702540E+03  0.12500527370E+03 0.  0.
    9000005    1    3    3    0    0 -0.28638687928E+02 -0.47790390391E+02 -0.41137145875E+02  0.69262981676E+02  0.10000000000E+01 0.  0.
    9000005    1    3    3    0    0  0.28638687928E+02  0.47790390391E+02  0.16567171760E+02  0.58134043727E+02  0.10000000000E+01 0.  0.
<mgrwt>
<rscale>  0 0.12500527E+03</rscale>
<asrwt>0</asrwt>
<pdfrwt beam="1">  1        4 0.79097732E-02 0.12500527E+03</pdfrwt>
<pdfrwt beam="2">  1       -4 0.11689769E-01 0.12500527E+03</pdfrwt>
<totfact> 0.10399293E+04</totfact>
</mgrwt>
</event>
<event>
 5    1  0.3281209E-002  0.1249988E+03  0.7818608E-02  0.1235071E+00
          4   -1    0    0  501    0  0.00000000000E+00  0.00000000000E+00  0.45932204376E+03  0.45932379950E+03  0.12700000000E+01 0.  1.
         -4   -1    0    0    0  501 -0.00000000000E+00 -0.00000000000E+00 -0.84550207325E+01  0.85498699164E+01  0.12700000000E+01 0.  1.
         25    2    1    2    0    0  0.00000000000E+00  0.00000000000E+00  0.45086702303E+03  0.46787366941E+03  0.12499879230E+03 0.  0.
    9000005    1    3    3    0    0  0.38601463112E+02  0.48299445101E+02  0.19148421484E+03  0.20122155423E+03  0.10000000000E+01 0.  0.
    9000005    1    3    3    0    0 -0.38601463112E+02 -0.48299445101E+02  0.25938280818E+03  0.26665211519E+03  0.10000000000E+01 0.  0.
<mgrwt>
<rscale>  0 0.12499879E+03</rscale>
<asrwt>0</asrwt>
<pdfrwt beam="1">  1        4 0.70672376E-01 0.12499879E+03</pdfrwt>
<pdfrwt beam="2">  1       -4 0.13082033E-02 0.12499879E+03</pdfrwt>
<totfact> 0.58447623E+03</totfact>
</mgrwt>
</event>
<event>
 5    1  0.3281209E-002  0.1249901E+03  0.7818608E-02  0.1235085E+00
          4   -1    0    0  501    0  0.00000000000E+00  0.00000000000E+00  0.15957378421E+03  0.15957883791E+03  0.12700000000E+01 0.  1.
         -4   -1    0    0    0  501 -0.00000000000E+00 -0.00000000000E+00 -0.24453472393E+02  0.24486429141E+02  0.12700000000E+01 0.  1.
         25    2    1    2    0    0  0.00000000000E+00  0.00000000000E+00  0.13512031182E+03  0.18406526705E+03  0.12499009508E+03 0.  0.
    9000005    1    3    3    0    0  0.58974066902E+02  0.16688472203E+02  0.85486791983E+02  0.10519238221E+03  0.10000000000E+01 0.  0.
    9000005    1    3    3    0    0 -0.58974066902E+02 -0.16688472203E+02  0.49633519837E+02  0.78872884839E+02  0.10000000000E+01 0.  0.
<mgrwt>
<rscale>  0 0.12499010E+03</rscale>
<asrwt>0</asrwt>
<pdfrwt beam="1">  1        4 0.24552736E-01 0.12499010E+03</pdfrwt>
<pdfrwt beam="2">  1       -4 0.37649968E-02 0.12499010E+03</pdfrwt>
<totfact> 0.92910943E+03</totfact>
</mgrwt>
</event>
<event>
 5    1  0.3281209E-002  0.1249974E+03  0.7818608E-02  0.1235073E+00
          4   -1    0    0  501    0  0.00000000000E+00  0.00000000000E+00  0.66806529543E+02  0.66818599877E+02  0.12700000000E+01 0.  1.
         -4   -1    0    0    0  501 -0.00000000000E+00 -0.00000000000E+00 -0.58444393629E+02  0.58458190587E+02  0.12700000000E+01 0.  1.
         25    2    1    2    0    0  0.00000000000E+00  0.00000000000E+00  0.83621359139E+01  0.12527679046E+03  0.12499739562E+03 0.  0.
    9000005    1    3    3    0    0 -0.53483797814E+02 -0.22923063229E+00  0.36572312080E+02  0.64800487546E+02  0.10000000000E+01 0.  0.
    9000005    1    3    3    0    0  0.53483797814E+02  0.22923063229E+00 -0.28210176166E+02  0.60476302918E+02  0.10000000000E+01 0.  0.
<mgrwt>
<rscale>  0 0.12499740E+03</rscale>
<asrwt>0</asrwt>
<pdfrwt beam="1">  1        4 0.10279917E-01 0.12499740E+03</pdfrwt>
<pdfrwt beam="2">  1       -4 0.89934350E-02 0.12499740E+03</pdfrwt>
<totfact> 0.10447469E+04</totfact>
</mgrwt>
</event>
<event>
 5    1  0.3281209E-002  0.1249962E+03  0.7818608E-02  0.1235075E+00
         -4   -1    0    0    0  501 -0.00000000000E+00  0.00000000000E+00  0.56630447589E+03  0.56630589994E+03  0.12700000000E+01 0.  1.
          4   -1    0    0  501    0  0.00000000000E+00 -0.00000000000E+00 -0.68374670794E+01  0.69544127044E+01  0.12700000000E+01 0.  1.
         25    2    1    2    0    0  0.00000000000E+00  0.00000000000E+00  0.55946700881E+03  0.57326031265E+03  0.12499620839E+03 0.  0.
    9000005    1    3    3    0    0 -0.28762159536E+02  0.21868272136E+02  0.51356469648E+03  0.51483510042E+03  0.10000000000E+01 0.  0.
    9000005    1    3    3    0    0  0.28762159536E+02 -0.21868272136E+02  0.45902312324E+02  0.58425212230E+02  0.10000000000E+01 0.  0.
<mgrwt>
<rscale>  0 0.12499621E+03</rscale>
<asrwt>0</asrwt>
<pdfrwt beam="2">  1        4 0.10610233E-02 0.12499621E+03</pdfrwt>
<pdfrwt beam="1">  1       -4 0.87132881E-01 0.12499621E+03</pdfrwt>
<totfact> 0.50604407E+03</totfact>
</mgrwt>
</event>
<event>
 5    1  0.3281209E-002  0.1250175E+03  0.7818608E-02  0.1235042E+00
          4   -1    0    0  501    0  0.00000000000E+00  0.00000000000E+00  0.74342204881E+02  0.74353051898E+02  0.12700000000E+01 0.  1.
         -4   -1    0    0    0  501 -0.00000000000E+00 -0.00000000000E+00 -0.52536510001E+02  0.52551858036E+02  0.12700000000E+01 0.  1.
         25    2    1    2    0    0  0.00000000000E+00  0.00000000000E+00  0.21805694880E+02  0.12690490993E+03  0.12501747012E+03 0.  0.
    9000005    1    3    3    0    0 -0.31345101279E+02  0.11798564656E+01 -0.43972857699E+02  0.54023325053E+02  0.10000000000E+01 0.  0.
    9000005    1    3    3    0    0  0.31345101279E+02 -0.11798564656E+01  0.65778552579E+02  0.72881584882E+02  0.10000000000E+01 0.  0.
<mgrwt>
<rscale>  0 0.12501747E+03</rscale>
<asrwt>0</asrwt>
<pdfrwt beam="1">  1        4 0.11439277E-01 0.12501747E+03</pdfrwt>
<pdfrwt beam="2">  1       -4 0.80845551E-02 0.12501747E+03</pdfrwt>
<totfact> 0.10407108E+04</totfact>
</mgrwt>
</event>
<event>
 5    1  0.3281209E-002  0.1249991E+03  0.7818608E-02  0.1235071E+00
          4   -1    0    0  501    0  0.00000000000E+00  0.00000000000E+00  0.17884441416E+02  0.17929476980E+02  0.12700000000E+01 0.  1.
         -4   -1    0    0    0  501 -0.00000000000E+00 -0.00000000000E+00 -0.21809158408E+03  0.21809528180E+03  0.12700000000E+01 0.  1.
         25    2    1    2    0    0  0.00000000000E+00  0.00000000000E+00 -0.20020714266E+03  0.23602475878E+03  0.12499914714E+03 0.  0.
    9000005    1    3    3    0    0  0.62234282935E+02 -0.56642296909E+01 -0.10026408187E+03  0.11814853187E+03  0.10000000000E+01 0.  0.
    9000005    1    3    3    0    0 -0.62234282935E+02  0.56642296909E+01 -0.99943060796E+02  0.11787622692E+03  0.10000000000E+01 0.  0.
<mgrwt>
<rscale>  0 0.12499915E+03</rscale>
<asrwt>0</asrwt>
<pdfrwt beam="1">  1        4 0.27552014E-02 0.12499915E+03</pdfrwt>
<pdfrwt beam="2">  1       -4 0.33556298E-01 0.12499915E+03</pdfrwt>
<totfact> 0.84394600E+03</totfact>
</mgrwt>
</event>
<event>
 5    1  0.3281209E-002  0.1250000E+03  0.7818608E-02  0.1235069E+00
          4   -1    0    0  501    0  0.00000000000E+00  0.00000000000E+00  0.19088991570E+03  0.19089414034E+03  0.12700000000E+01 0.  1.
         -4   -1    0    0    0  501 -0.00000000000E+00 -0.00000000000E+00 -0.20439220569E+02  0.20478638564E+02  0.12700000000E+01 0.  1.
         25    2    1    2    0    0  0.00000000000E+00  0.00000000000E+00  0.17045069514E+03  0.21137277891E+03  0.12500004876E+03 0.  0.
    9000005    1    3    3    0    0 -0.14842385112E+02 -0.20504042257E+01 -0.17365160874E+02  0.22957555739E+02  0.10000000000E+01 0.  0.
    9000005    1    3    3    0    0  0.14842385112E+02  0.20504042257E+01  0.18781585601E+03  0.18841522317E+03  0.10000000000E+01 0.  0.
<mgrwt>
<rscale>  0 0.12500005E+03</rscale>
<asrwt>0</asrwt>
<pdfrwt beam="1">  1        4 0.29371035E-01 0.12500005E+03</pdfrwt>
<pdfrwt beam="2">  1       -4 0.31478527E-02 0.12500005E+03</pdfrwt>
<totfact> 0.88252082E+03</totfact>
</mgrwt>
</event>
<event>
 4    1  0.3281209E-002  0.1250969E+03  0.7818608E-02  0.1234918E+00
         -4   -1    0    0    0  501 -0.00000000000E+00  0.00000000000E+00  0.37907211249E+02  0.37928479599E+02  0.12700000000E+01 0.  1.
          4   -1    0    0  501    0  0.00000000000E+00 -0.00000000000E+00 -0.10315341529E+03  0.10316123296E+03  0.12700000000E+01 0.  1.
    9000005    1    1    2    0    0  0.22209346282E+02  0.49631638300E+02 -0.67472460053E+02  0.86660760719E+02  0.10000000000E+01 0.  0.
    9000005    1    1    2    0    0 -0.22209346282E+02 -0.49631638300E+02  0.22262560131E+01  0.54428951841E+02  0.10000000000E+01 0.  0.
<mgrwt>
<rscale>  0 0.12509692E+03</rscale>
<asrwt>0</asrwt>
<pdfrwt beam="2">  1        4 0.15871994E-01 0.12509692E+03</pdfrwt>
<pdfrwt beam="1">  1       -4 0.58341161E-02 0.12509692E+03</pdfrwt>
<totfact> 0.10089006E+04</totfact>
</mgrwt>
</event>
<event>
 5    1  0.3281209E-002  0.1250034E+03  0.7818608E-02  0.1235064E+00
          4   -1    0    0  501    0  0.00000000000E+00  0.00000000000E+00  0.29286787008E+01  0.31921871707E+01  0.12700000000E+01 0. -1.
         -4   -1    0    0    0  501 -0.00000000000E+00 -0.00000000000E+00 -0.12761769337E+04  0.12761775656E+04  0.12700000000E+01 0. -1.
         25    2    1    2    0    0  0.00000000000E+00  0.00000000000E+00 -0.12732482550E+04  0.12793697528E+04  0.12500338201E+03 0.  0.
    9000005    1    3    3    0    0 -0.77807361823E+01 -0.31458764423E+02 -0.11835112901E+04  0.11839553064E+04  0.10000000000E+01 0.  0.
    9000005    1    3    3    0    0  0.77807361823E+01  0.31458764423E+02 -0.89736964820E+02  0.95414446336E+02  0.10000000000E+01 0.  0.
<mgrwt>
<rscale>  0 0.12500338E+03</rscale>
<asrwt>0</asrwt>
<pdfrwt beam="1">  1        4 0.47088546E-03 0.12500338E+03</pdfrwt>
<pdfrwt beam="2">  1       -4 0.19635481E+00 0.12500338E+03</pdfrwt>
<totfact> 0.22719113E+03</totfact>
</mgrwt>
</event>
<event>
 5    1  0.3281209E-002  0.1249906E+03  0.7818608E-02  0.1235084E+00
          4   -1    0    0  501    0  0.00000000000E+00  0.00000000000E+00  0.52766242818E+02  0.52781524051E+02  0.12700000000E+01 0.  1.
         -4   -1    0    0    0  501 -0.00000000000E+00 -0.00000000000E+00 -0.73986703749E+02  0.73997602878E+02  0.12700000000E+01 0.  1.
         25    2    1    2    0    0  0.00000000000E+00  0.00000000000E+00 -0.21220460931E+02  0.12677912693E+03  0.12499055589E+03 0.  0.
    9000005    1    3    3    0    0  0.96381751535E+01  0.27621122446E+01  0.51950034452E+02  0.52918142106E+02  0.10000000000E+01 0.  0.
    9000005    1    3    3    0    0 -0.96381751535E+01 -0.27621122446E+01 -0.73170495384E+02  0.73860984823E+02  0.10000000000E+01 0.  0.
<mgrwt>
<rscale>  0 0.12499056E+03</rscale>
<asrwt>0</asrwt>
<pdfrwt beam="1">  1        4 0.81198974E-02 0.12499056E+03</pdfrwt>
<pdfrwt beam="2">  1       -4 0.11384584E-01 0.12499056E+03</pdfrwt>
<totfact> 0.10416168E+04</totfact>
</mgrwt>
</event>
<event>
 5    1  0.3281209E-002  0.1250035E+03  0.7818608E-02  0.1235064E+00
         -4   -1    0    0    0  501 -0.00000000000E+00  0.00000000000E+00  0.13758085671E+03  0.13758671823E+03  0.12700000000E+01 0. -1.
          4   -1    0    0  501    0  0.00000000000E+00 -0.00000000000E+00 -0.28373334153E+02  0.28401742745E+02  0.12700000000E+01 0. -1.
         25    2    1    2    0    0  0.00000000000E+00  0.00000000000E+00  0.10920752256E+03  0.16598846098E+03  0.12500354472E+03 0.  0.
    9000005    1    3    3    0    0  0.49489731539E+02  0.34927245136E+02  0.34190569072E+02  0.69563934578E+02  0.10000000000E+01 0.  0.
    9000005    1    3    3    0    0 -0.49489731539E+02 -0.34927245136E+02  0.75016953487E+02  0.96424526398E+02  0.10000000000E+01 0.  0.
<mgrwt>
<rscale>  0 0.12500354E+03</rscale>
<asrwt>0</asrwt>
<pdfrwt beam="2">  1        4 0.43677645E-02 0.12500354E+03</pdfrwt>
<pdfrwt beam="1">  1       -4 0.21168922E-01 0.12500354E+03</pdfrwt>
<totfact> 0.96192861E+03</totfact>
</mgrwt>
</event>
<event>
 5    1  0.3281209E-002  0.1250046E+03  0.7818608E-02  0.1235062E+00
         -4   -1    0    0    0  501 -0.00000000000E+00  0.00000000000E+00  0.61931679139E+02  0.61944699377E+02  0.12700000000E+01 0. -1.
          4   -1    0    0  501    0  0.00000000000E+00 -0.00000000000E+00 -0.63052087961E+02  0.63064876883E+02  0.12700000000E+01 0. -1.
         25    2    1    2    0    0  0.00000000000E+00  0.00000000000E+00 -0.11204088225E+01  0.12500957626E+03  0.12500455528E+03 0.  0.
    9000005    1    3    3    0    0 -0.24917814729E+02 -0.30057406419E+02  0.48239189335E+02  0.62067419467E+02  0.10000000000E+01 0.  0.
    9000005    1    3    3    0    0  0.24917814729E+02  0.30057406419E+02 -0.49359598158E+02  0.62942156794E+02  0.10000000000E+01 0.  0.
<mgrwt>
<rscale>  0 0.12500456E+03</rscale>
<asrwt>0</asrwt>
<pdfrwt beam="2">  1        4 0.97023065E-02 0.12500456E+03</pdfrwt>
<pdfrwt beam="1">  1       -4 0.95299360E-02 0.12500456E+03</pdfrwt>
<totfact> 0.10451578E+04</totfact>
</mgrwt>
</event>
<event>
 5    1  0.3281209E-002  0.1249971E+03  0.7818608E-02  0.1235074E+00
         -4   -1    0    0    0  501 -0.00000000000E+00  0.00000000000E+00  0.19777437870E+02  0.19818172183E+02  0.12700000000E+01 0. -1.
          4   -1    0    0  501    0  0.00000000000E+00 -0.00000000000E+00 -0.19725515210E+03  0.19725924042E+03  0.12700000000E+01 0. -1.
         25    2    1    2    0    0  0.00000000000E+00  0.00000000000E+00 -0.17747771423E+03  0.21707741260E+03  0.12499705602E+03 0.  0.
    9000005    1    3    3    0    0 -0.47924056068E+02  0.86379976729E+01 -0.20726138251E+02  0.52933004454E+02  0.10000000000E+01 0.  0.
    9000005    1    3    3    0    0  0.47924056068E+02 -0.86379976729E+01 -0.15675157598E+03  0.16414440815E+03  0.10000000000E+01 0.  0.
<mgrwt>
<rscale>  0 0.12499706E+03</rscale>
<asrwt>0</asrwt>
<pdfrwt beam="2">  1        4 0.30350393E-01 0.12499706E+03</pdfrwt>
<pdfrwt beam="1">  1       -4 0.30461308E-02 0.12499706E+03</pdfrwt>
<totfact> 0.87338679E+03</totfact>
</mgrwt>
</event>
<event>
 5    1  0.3281209E-002  0.1250004E+03  0.7818608E-02  0.1235069E+00
         -4   -1    0    0    0  501 -0.00000000000E+00  0.00000000000E+00  0.11944475471E+03  0.11945150617E+03  0.12700000000E+01 0. -1.
          4   -1    0    0  501    0  0.00000000000E+00 -0.00000000000E+00 -0.32683619554E+02  0.32708284687E+02  0.12700000000E+01 0. -1.
         25    2    1    2    0    0  0.00000000000E+00  0.00000000000E+00  0.86761135154E+02  0.15215979086E+03  0.12500042953E+03 0.  0.
    9000005    1    3    3    0    0 -0.34284851612E+02 -0.18712743140E+02 -0.16000194235E+02  0.42221132403E+02  0.10000000000E+01 0.  0.
    9000005    1    3    3    0    0  0.34284851612E+02  0.18712743140E+02  0.10276132939E+03  0.10993865846E+03  0.10000000000E+01 0.  0.
<mgrwt>
<rscale>  0 0.12500043E+03</rscale>
<asrwt>0</asrwt>
<pdfrwt beam="2">  1        4 0.50306658E-02 0.12500043E+03</pdfrwt>
<pdfrwt beam="1">  1       -4 0.18378533E-01 0.12500043E+03</pdfrwt>
<totfact> 0.98873950E+03</totfact>
</mgrwt>
</event>
<event>
 5    1  0.3281209E-002  0.1250006E+03  0.7818608E-02  0.1235068E+00
         -4   -1    0    0    0  501 -0.00000000000E+00  0.00000000000E+00  0.14500989087E+02  0.14556496299E+02  0.12700000000E+01 0.  1.
          4   -1    0    0  501    0  0.00000000000E+00 -0.00000000000E+00 -0.26880908296E+03  0.26881208303E+03  0.12700000000E+01 0.  1.
         25    2    1    2    0    0  0.00000000000E+00  0.00000000000E+00 -0.25430809388E+03  0.28336857933E+03  0.12500058056E+03 0.  0.
    9000005    1    3    3    0    0 -0.11580808556E+02  0.40954889272E+02 -0.23421668995E+02  0.48590046929E+02  0.10000000000E+01 0.  0.
    9000005    1    3    3    0    0  0.11580808556E+02 -0.40954889272E+02 -0.23088642488E+03  0.23477853240E+03  0.10000000000E+01 0.  0.
<mgrwt>
<rscale>  0 0.12500058E+03</rscale>
<asrwt>0</asrwt>
<pdfrwt beam="2">  1        4 0.41359740E-01 0.12500058E+03</pdfrwt>
<pdfrwt beam="1">  1       -4 0.22354222E-02 0.12500058E+03</pdfrwt>
<totfact> 0.77732565E+03</totfact>
</mgrwt>
</event>
<event>
 5    1  0.3281209E-002  0.1250094E+03  0.7818608E-02  0.1235055E+00
          4   -1    0    0  501    0  0.00000000000E+00  0.00000000000E+00  0.25094722940E+03  0.25095044300E+03  0.12700000000E+01 0.  1.
         -4   -1    0    0    0  501 -0.00000000000E+00 -0.00000000000E+00 -0.15539148332E+02  0.15590959909E+02  0.12700000000E+01 0.  1.
         25    2    1    2    0    0  0.00000000000E+00  0.00000000000E+00  0.23540808107E+03  0.26654140291E+03  0.12500941898E+03 0.  0.
    9000005    1    3    3    0    0 -0.26416414925E+02  0.16385892796E+01  0.23841816727E+03  0.23988483578E+03  0.10000000000E+01 0.  0.
    9000005    1    3    3    0    0  0.26416414925E+02 -0.16385892796E+01 -0.30100862025E+01  0.26656567132E+02  0.10000000000E+01 0.  0.
<mgrwt>
<rscale>  0 0.12500942E+03</rscale>
<asrwt>0</asrwt>
<pdfrwt beam="1">  1        4 0.38611498E-01 0.12500942E+03</pdfrwt>
<pdfrwt beam="2">  1       -4 0.23948710E-02 0.12500942E+03</pdfrwt>
<totfact> 0.79979980E+03</totfact>
</mgrwt>
</event>
<event>
 5    1  0.3281209E-002  0.1250022E+03  0.7818608E-02  0.1235066E+00
          4   -1    0    0  501    0  0.00000000000E+00  0.00000000000E+00  0.15558720467E+02  0.15610467084E+02  0.12700000000E+01 0.  1.
         -4   -1    0    0    0  501 -0.00000000000E+00 -0.00000000000E+00 -0.25060368803E+03  0.25060690604E+03  0.12700000000E+01 0.  1.
         25    2    1    2    0    0  0.00000000000E+00  0.00000000000E+00 -0.23504496757E+03  0.26621737313E+03  0.12500221188E+03 0.  0.
    9000005    1    3    3    0    0 -0.56789961096E+02 -0.80691582720E+01 -0.17034496876E+03  0.17974598570E+03  0.10000000000E+01 0.  0.
    9000005    1    3    3    0    0  0.56789961096E+02  0.80691582720E+01 -0.64699998812E+02  0.86471387422E+02  0.10000000000E+01 0.  0.
<mgrwt>
<rscale>  0 0.12500221E+03</rscale>
<asrwt>0</asrwt>
<pdfrwt beam="1">  1        4 0.23978775E-02 0.12500221E+03</pdfrwt>
<pdfrwt beam="2">  1       -4 0.38558639E-01 0.12500221E+03</pdfrwt>
<totfact> 0.80037444E+03</totfact>
</mgrwt>
</event>
<event>
 5    1  0.3281209E-002  0.1250018E+03  0.7818608E-02  0.1235066E+00
         -4   -1    0    0    0  501 -0.00000000000E+00  0.00000000000E+00  0.20697931093E+02  0.20736857321E+02  0.12700000000E+01 0.  1.
          4   -1    0    0  501    0  0.00000000000E+00 -0.00000000000E+00 -0.18851378301E+03  0.18851806090E+03  0.12700000000E+01 0.  1.
         25    2    1    2    0    0  0.00000000000E+00  0.00000000000E+00 -0.16781585192E+03  0.20925491822E+03  0.12500184256E+03 0.  0.
    9000005    1    3    3    0    0 -0.20351891277E+02 -0.19647458756E+02 -0.17719040205E+03  0.17943706611E+03  0.10000000000E+01 0.  0.
    9000005    1    3    3    0    0  0.20351891277E+02  0.19647458756E+02  0.93745501374E+01  0.29817852109E+02  0.10000000000E+01 0.  0.
<mgrwt>
<rscale>  0 0.12500184E+03</rscale>
<asrwt>0</asrwt>
<pdfrwt beam="2">  1        4 0.29005443E-01 0.12500184E+03</pdfrwt>
<pdfrwt beam="1">  1       -4 0.31876206E-02 0.12500184E+03</pdfrwt>
<totfact> 0.88594058E+03</totfact>
</mgrwt>
</event>
<event>
 5    1  0.3281209E-002  0.1250050E+03  0.7818608E-02  0.1235061E+00
         -4   -1    0    0    0  501 -0.00000000000E+00  0.00000000000E+00  0.20478222276E+03  0.20478616081E+03  0.12700000000E+01 0. -1.
          4   -1    0    0  501    0  0.00000000000E+00 -0.00000000000E+00 -0.19051417559E+02  0.19093700820E+02  0.12700000000E+01 0. -1.
         25    2    1    2    0    0  0.00000000000E+00  0.00000000000E+00  0.18573080521E+03  0.22387986163E+03  0.12500504167E+03 0.  0.
    9000005    1    3    3    0    0 -0.54363155220E+01  0.52239480904E+02  0.15352204102E+03  0.16226069755E+03  0.10000000000E+01 0.  0.
    9000005    1    3    3    0    0  0.54363155220E+01 -0.52239480904E+02  0.32208764188E+02  0.61619164082E+02  0.10000000000E+01 0.  0.
<mgrwt>
<rscale>  0 0.12500504E+03</rscale>
<asrwt>0</asrwt>
<pdfrwt beam="2">  1        4 0.29345429E-02 0.12500504E+03</pdfrwt>
<pdfrwt beam="1">  1       -4 0.31508512E-01 0.12500504E+03</pdfrwt>
<totfact> 0.86248402E+03</totfact>
</mgrwt>
</event>
<event>
 5    1  0.3281209E-002  0.1250040E+03  0.7818608E-02  0.1235063E+00
         -4   -1    0    0    0  501 -0.00000000000E+00  0.00000000000E+00  0.25762375931E+03  0.25762688963E+03  0.12700000000E+01 0. -1.
          4   -1    0    0  501    0  0.00000000000E+00 -0.00000000000E+00 -0.15133763495E+02  0.15186958139E+02  0.12700000000E+01 0. -1.
         25    2    1    2    0    0  0.00000000000E+00  0.00000000000E+00  0.24248999581E+03  0.27281384777E+03  0.12500398979E+03 0.  0.
    9000005    1    3    3    0    0 -0.27010634074E+02 -0.43906382557E+02  0.19834896510E+03  0.20494061759E+03  0.10000000000E+01 0.  0.
    9000005    1    3    3    0    0  0.27010634074E+02  0.43906382557E+02  0.44141030716E+02  0.67873230179E+02  0.10000000000E+01 0.  0.
<mgrwt>
<rscale>  0 0.12500399E+03</rscale>
<asrwt>0</asrwt>
<pdfrwt beam="2">  1        4 0.23326040E-02 0.12500399E+03</pdfrwt>
<pdfrwt beam="1">  1       -4 0.39638757E-01 0.12500399E+03</pdfrwt>
<totfact> 0.79133665E+03</totfact>
</mgrwt>
</event>
<event>
 5    1  0.3281209E-002  0.1250046E+03  0.7818608E-02  0.1235062E+00
         -4   -1    0    0    0  501 -0.00000000000E+00  0.00000000000E+00  0.17186667658E+03  0.17187136882E+03  0.12700000000E+01 0. -1.
          4   -1    0    0  501    0  0.00000000000E+00 -0.00000000000E+00 -0.22707293787E+02  0.22742781078E+02  0.12700000000E+01 0. -1.
         25    2    1    2    0    0  0.00000000000E+00  0.00000000000E+00  0.14915938280E+03  0.19461414990E+03  0.12500458337E+03 0.  0.
    9000005    1    3    3    0    0  0.30041179746E+02 -0.35414508090E+02  0.13968674775E+03  0.14720749764E+03  0.10000000000E+01 0.  0.
    9000005    1    3    3    0    0 -0.30041179746E+02  0.35414508090E+02  0.94726350462E+01  0.47406652260E+02  0.10000000000E+01 0.  0.
<mgrwt>
<rscale>  0 0.12500458E+03</rscale>
<asrwt>0</asrwt>
<pdfrwt beam="2">  1        4 0.34965206E-02 0.12500458E+03</pdfrwt>
<pdfrwt beam="1">  1       -4 0.26444118E-01 0.12500458E+03</pdfrwt>
<totfact> 0.91041265E+03</totfact>
</mgrwt>
</event>
<event>
 5    1  0.3281209E-002  0.1250072E+03  0.7818608E-02  0.1235058E+00
         -4   -1    0    0    0  501 -0.00000000000E+00  0.00000000000E+00  0.18192986110E+02  0.18237259762E+02  0.12700000000E+01 0. -1.
          4   -1    0    0  501    0  0.00000000000E+00 -0.00000000000E+00 -0.21442938887E+03  0.21443314975E+03  0.12700000000E+01 0. -1.
         25    2    1    2    0    0  0.00000000000E+00  0.00000000000E+00 -0.19623640276E+03  0.23267040951E+03  0.12500717457E+03 0.  0.
    9000005    1    3    3    0    0  0.23422971173E+02 -0.22868064287E+02 -0.19720479749E+03  0.19990576804E+03  0.10000000000E+01 0.  0.
    9000005    1    3    3    0    0 -0.23422971173E+02  0.22868064287E+02  0.96839472334E+00  0.32764641477E+02  0.10000000000E+01 0.  0.
<mgrwt>
<rscale>  0 0.12500717E+03</rscale>
<asrwt>0</asrwt>
<pdfrwt beam="2">  1        4 0.32992830E-01 0.12500717E+03</pdfrwt>
<pdfrwt beam="1">  1       -4 0.28026161E-02 0.12500717E+03</pdfrwt>
<totfact> 0.84887647E+03</totfact>
</mgrwt>
</event>
<event>
 5    1  0.3281209E-002  0.1250025E+03  0.7818608E-02  0.1235065E+00
         -4   -1    0    0    0  501 -0.00000000000E+00  0.00000000000E+00  0.48113186014E+03  0.48113353629E+03  0.12700000000E+01 0.  1.
          4   -1    0    0  501    0  0.00000000000E+00 -0.00000000000E+00 -0.80678373547E+01  0.81671843117E+01  0.12700000000E+01 0.  1.
         25    2    1    2    0    0  0.00000000000E+00  0.00000000000E+00  0.47306402278E+03  0.48930072060E+03  0.12500250208E+03 0.  0.
    9000005    1    3    3    0    0  0.28043428907E+00 -0.39616818756E+02  0.47350684070E+02  0.61746726663E+02  0.10000000000E+01 0.  0.
    9000005    1    3    3    0    0 -0.28043428907E+00  0.39616818756E+02  0.42571333871E+03  0.42755399393E+03  0.10000000000E+01 0.  0.
<mgrwt>
<rscale>  0 0.12500250E+03</rscale>
<asrwt>0</asrwt>
<pdfrwt beam="2">  1        4 0.12489768E-02 0.12500250E+03</pdfrwt>
<pdfrwt beam="1">  1       -4 0.74028056E-01 0.12500250E+03</pdfrwt>
<totfact> 0.56701039E+03</totfact>
</mgrwt>
</event>
<event>
 5    1  0.3281209E-002  0.1250028E+03  0.7818608E-02  0.1235065E+00
          4   -1    0    0  501    0  0.00000000000E+00  0.00000000000E+00  0.78003042057E+03  0.78003145444E+03  0.12700000000E+01 0. -1.
         -4   -1    0    0    0  501 -0.00000000000E+00 -0.00000000000E+00 -0.49264744410E+01  0.50875387387E+01  0.12700000000E+01 0. -1.
         25    2    1    2    0    0  0.00000000000E+00  0.00000000000E+00  0.77510394613E+03  0.78511899318E+03  0.12500282454E+03 0.  0.
    9000005    1    3    3    0    0 -0.53329055792E+02 -0.19688707981E+02  0.22451768769E+03  0.23160489092E+03  0.10000000000E+01 0.  0.
    9000005    1    3    3    0    0  0.53329055792E+02  0.19688707981E+02  0.55058625845E+03  0.55351410226E+03  0.10000000000E+01 0.  0.
<mgrwt>
<rscale>  0 0.12500282E+03</rscale>
<asrwt>0</asrwt>
<pdfrwt beam="1">  1        4 0.12001706E+00 0.12500282E+03</pdfrwt>
<pdfrwt beam="2">  1       -4 0.77038878E-03 0.12500282E+03</pdfrwt>
<totfact> 0.38935371E+03</totfact>
</mgrwt>
</event>
<event>
 5    1  0.3281209E-002  0.1250016E+03  0.7818608E-02  0.1235067E+00
         -4   -1    0    0    0  501 -0.00000000000E+00  0.00000000000E+00  0.90677818327E+01  0.91562856752E+01  0.12700000000E+01 0.  1.
          4   -1    0    0  501    0  0.00000000000E+00 -0.00000000000E+00 -0.42861274999E+03  0.42861463152E+03  0.12700000000E+01 0.  1.
         25    2    1    2    0    0  0.00000000000E+00  0.00000000000E+00 -0.41954496816E+03  0.43777091720E+03  0.12500158254E+03 0.  0.
    9000005    1    3    3    0    0 -0.40122342357E+02  0.26304497193E+02 -0.69529183416E+02  0.84480981737E+02  0.10000000000E+01 0.  0.
    9000005    1    3    3    0    0  0.40122342357E+02 -0.26304497193E+02 -0.35001578474E+03  0.35328993546E+03  0.10000000000E+01 0.  0.
<mgrwt>
<rscale>  0 0.12500158E+03</rscale>
<asrwt>0</asrwt>
<pdfrwt beam="2">  1        4 0.65947360E-01 0.12500158E+03</pdfrwt>
<pdfrwt beam="1">  1       -4 0.14019964E-02 0.12500158E+03</pdfrwt>
<totfact> 0.61035745E+03</totfact>
</mgrwt>
</event>
<event>
 5    1  0.3281209E-002  0.1249970E+03  0.7818608E-02  0.1235074E+00
         -4   -1    0    0    0  501 -0.00000000000E+00  0.00000000000E+00  0.28756087542E+03  0.28756367986E+03  0.12700000000E+01 0.  1.
          4   -1    0    0  501    0  0.00000000000E+00 -0.00000000000E+00 -0.13550855823E+02  0.13610238556E+02  0.12700000000E+01 0.  1.
         25    2    1    2    0    0  0.00000000000E+00  0.00000000000E+00  0.27401001960E+03  0.30117391842E+03  0.12499695313E+03 0.  0.
    9000005    1    3    3    0    0 -0.36195270971E+02  0.19065069157E+02  0.23185967986E+02  0.47033643428E+02  0.10000000000E+01 0.  0.
    9000005    1    3    3    0    0  0.36195270971E+02 -0.19065069157E+02  0.25082405162E+03  0.25414027499E+03  0.10000000000E+01 0.  0.
<mgrwt>
<rscale>  0 0.12499695E+03</rscale>
<asrwt>0</asrwt>
<pdfrwt beam="2">  1        4 0.20895307E-02 0.12499695E+03</pdfrwt>
<pdfrwt beam="1">  1       -4 0.44244918E-01 0.12499695E+03</pdfrwt>
<totfact> 0.75456922E+03</totfact>
</mgrwt>
</event>
<event>
 5    1  0.3281209E-002  0.1250006E+03  0.7818608E-02  0.1235068E+00
          4   -1    0    0  501    0  0.00000000000E+00  0.00000000000E+00  0.54939495054E+03  0.54939641842E+03  0.12700000000E+01 0.  1.
         -4   -1    0    0    0  501 -0.00000000000E+00 -0.00000000000E+00 -0.70519612708E+01  0.71654070202E+01  0.12700000000E+01 0.  1.
         25    2    1    2    0    0  0.00000000000E+00  0.00000000000E+00  0.54234298927E+03  0.55656182544E+03  0.12500059013E+03 0.  0.
    9000005    1    3    3    0    0 -0.91142099073E+01 -0.26130766228E+02  0.52064518745E+03  0.52138114368E+03  0.10000000000E+01 0.  0.
    9000005    1    3    3    0    0  0.91142099073E+01  0.26130766228E+02  0.21697801815E+02  0.35180681766E+02  0.10000000000E+01 0.  0.
<mgrwt>
<rscale>  0 0.12500059E+03</rscale>
<asrwt>0</asrwt>
<pdfrwt beam="1">  1        4 0.84531147E-01 0.12500059E+03</pdfrwt>
<pdfrwt beam="2">  1       -4 0.10937565E-02 0.12500059E+03</pdfrwt>
<totfact> 0.51728933E+03</totfact>
</mgrwt>
</event>
<event>
 5    1  0.3281209E-002  0.1249995E+03  0.7818608E-02  0.1235070E+00
         -4   -1    0    0    0  501 -0.00000000000E+00  0.00000000000E+00  0.42550405948E+02  0.42569354544E+02  0.12700000000E+01 0.  1.
          4   -1    0    0  501    0  0.00000000000E+00 -0.00000000000E+00 -0.91758385627E+02  0.91767174049E+02  0.12700000000E+01 0.  1.
         25    2    1    2    0    0  0.00000000000E+00  0.00000000000E+00 -0.49207979679E+02  0.13433652859E+03  0.12499951060E+03 0.  0.
    9000005    1    3    3    0    0 -0.20473921796E+02  0.28499315692E+02  0.30967553273E+02  0.46812197388E+02  0.10000000000E+01 0.  0.
    9000005    1    3    3    0    0  0.20473921796E+02 -0.28499315692E+02 -0.80175532953E+02  0.87524331205E+02  0.10000000000E+01 0.  0.
<mgrwt>
<rscale>  0 0.12499951E+03</rscale>
<asrwt>0</asrwt>
<pdfrwt beam="2">  1        4 0.14118808E-01 0.12499951E+03</pdfrwt>
<pdfrwt beam="1">  1       -4 0.65483499E-02 0.12499951E+03</pdfrwt>
<totfact> 0.10252187E+04</totfact>
</mgrwt>
</event>
<event>
 5    1  0.3281209E-002  0.1250010E+03  0.7818608E-02  0.1235068E+00
          4   -1    0    0  501    0  0.00000000000E+00  0.00000000000E+00  0.45557236597E+03  0.45557413616E+03  0.12700000000E+01 0. -1.
         -4   -1    0    0    0  501 -0.00000000000E+00 -0.00000000000E+00 -0.85256986177E+01  0.86197701199E+01  0.12700000000E+01 0. -1.
         25    2    1    2    0    0  0.00000000000E+00  0.00000000000E+00  0.44704666735E+03  0.46419390628E+03  0.12500103933E+03 0.  0.
    9000005    1    3    3    0    0 -0.58626535531E+02 -0.20930945994E+02  0.20313621171E+03  0.21246292777E+03  0.10000000000E+01 0.  0.
    9000005    1    3    3    0    0  0.58626535531E+02  0.20930945994E+02  0.24391045564E+03  0.25173097850E+03  0.10000000000E+01 0.  0.
<mgrwt>
<rscale>  0 0.12500104E+03</rscale>
<asrwt>0</asrwt>
<pdfrwt beam="1">  1        4 0.70095429E-01 0.12500104E+03</pdfrwt>
<pdfrwt beam="2">  1       -4 0.13190184E-02 0.12500104E+03</pdfrwt>
<totfact> 0.58752255E+03</totfact>
</mgrwt>
</event>
<event>
 5    1  0.3281209E-002  0.1249991E+03  0.7818608E-02  0.1235071E+00
          4   -1    0    0  501    0  0.00000000000E+00  0.00000000000E+00  0.43335254027E+02  0.43353859593E+02  0.12700000000E+01 0. -1.
         -4   -1    0    0    0  501 -0.00000000000E+00 -0.00000000000E+00 -0.90096573954E+02  0.90105524460E+02  0.12700000000E+01 0. -1.
         25    2    1    2    0    0  0.00000000000E+00  0.00000000000E+00 -0.46761319927E+02  0.13345938405E+03  0.12499914460E+03 0.  0.
    9000005    1    3    3    0    0 -0.24845106717E+02 -0.19064462657E+02 -0.81119117254E+02  0.86960015226E+02  0.10000000000E+01 0.  0.
    9000005    1    3    3    0    0  0.24845106717E+02  0.19064462657E+02  0.34357797327E+02  0.46499368827E+02  0.10000000000E+01 0.  0.
<mgrwt>
<rscale>  0 0.12499914E+03</rscale>
<asrwt>0</asrwt>
<pdfrwt beam="1">  1        4 0.66690819E-02 0.12499914E+03</pdfrwt>
<pdfrwt beam="2">  1       -4 0.13863131E-01 0.12499914E+03</pdfrwt>
<totfact> 0.10270844E+04</totfact>
</mgrwt>
</event>
<event>
 5    1  0.3281209E-002  0.1249989E+03  0.7818608E-02  0.1235071E+00
         -4   -1    0    0    0  501 -0.00000000000E+00  0.00000000000E+00  0.16350357054E+03  0.16350850277E+03  0.12700000000E+01 0.  1.
          4   -1    0    0  501    0  0.00000000000E+00 -0.00000000000E+00 -0.23868327333E+02  0.23902090906E+02  0.12700000000E+01 0.  1.
         25    2    1    2    0    0  0.00000000000E+00  0.00000000000E+00  0.13963524321E+03  0.18741059368E+03  0.12499891791E+03 0.  0.
    9000005    1    3    3    0    0  0.13278102501E+02  0.16868144868E+02  0.15780915660E+03  0.15926572834E+03  0.10000000000E+01 0.  0.
    9000005    1    3    3    0    0 -0.13278102501E+02 -0.16868144868E+02 -0.18173913388E+02  0.28144865343E+02  0.10000000000E+01 0.  0.
<mgrwt>
<rscale>  0 0.12499892E+03</rscale>
<asrwt>0</asrwt>
<pdfrwt beam="2">  1        4 0.36750271E-02 0.12499892E+03</pdfrwt>
<pdfrwt beam="1">  1       -4 0.25157371E-01 0.12499892E+03</pdfrwt>
<totfact> 0.92302063E+03</totfact>
</mgrwt>
</event>
<event>
 5    1  0.3281209E-002  0.1250018E+03  0.7818608E-02  0.1235066E+00
          4   -1    0    0  501    0  0.00000000000E+00  0.00000000000E+00  0.16056132540E+02  0.16106281140E+02  0.12700000000E+01 0. -1.
         -4   -1    0    0    0  501 -0.00000000000E+00 -0.00000000000E+00 -0.24286303213E+03  0.24286635271E+03  0.12700000000E+01 0. -1.
         25    2    1    2    0    0  0.00000000000E+00  0.00000000000E+00 -0.22680689959E+03  0.25897263385E+03  0.12500182150E+03 0.  0.
    9000005    1    3    3    0    0 -0.60859457429E+02  0.56523503188E+01 -0.14037930282E+03  0.15311163013E+03  0.10000000000E+01 0.  0.
    9000005    1    3    3    0    0  0.60859457429E+02 -0.56523503188E+01 -0.86427596774E+02  0.10586100371E+03  0.10000000000E+01 0.  0.
<mgrwt>
<rscale>  0 0.12500182E+03</rscale>
<asrwt>0</asrwt>
<pdfrwt beam="1">  1        4 0.24742874E-02 0.12500182E+03</pdfrwt>
<pdfrwt beam="2">  1       -4 0.37367654E-01 0.12500182E+03</pdfrwt>
<totfact> 0.81047168E+03</totfact>
</mgrwt>
</event>
<event>
 5    1  0.3281209E-002  0.1250008E+03  0.7818608E-02  0.1235068E+00
         -4   -1    0    0    0  501 -0.00000000000E+00  0.00000000000E+00  0.10893402768E+03  0.10894143053E+03  0.12700000000E+01 0. -1.
          4   -1    0    0  501    0  0.00000000000E+00 -0.00000000000E+00 -0.35839470743E+02  0.35861965411E+02  0.12700000000E+01 0. -1.
         25    2    1    2    0    0  0.00000000000E+00  0.00000000000E+00  0.73094556932E+02  0.14480339594E+03  0.12500083689E+03 0.  0.
    9000005    1    3    3    0    0  0.15412451532E+02  0.30607268267E+02  0.97084571998E+02  0.10296000511E+03  0.10000000000E+01 0.  0.
    9000005    1    3    3    0    0 -0.15412451532E+02 -0.30607268267E+02 -0.23990015066E+02  0.41843390826E+02  0.10000000000E+01 0.  0.
<mgrwt>
<rscale>  0 0.12500084E+03</rscale>
<asrwt>0</asrwt>
<pdfrwt beam="2">  1        4 0.55160647E-02 0.12500084E+03</pdfrwt>
<pdfrwt beam="1">  1       -4 0.16761381E-01 0.12500084E+03</pdfrwt>
<totfact> 0.10034795E+04</totfact>
</mgrwt>
</event>
<event>
 5    1  0.3281209E-002  0.1249994E+03  0.7818608E-02  0.1235070E+00
          4   -1    0    0  501    0  0.00000000000E+00  0.00000000000E+00  0.19031096475E+02  0.19073424785E+02  0.12700000000E+01 0.  1.
         -4   -1    0    0    0  501 -0.00000000000E+00 -0.00000000000E+00 -0.20498184510E+03  0.20498577931E+03  0.12700000000E+01 0.  1.
         25    2    1    2    0    0  0.00000000000E+00  0.00000000000E+00 -0.18595074862E+03  0.22405920410E+03  0.12499938410E+03 0.  0.
    9000005    1    3    3    0    0  0.47187521641E+02  0.33805528113E+02 -0.51486642520E+02  0.77597360056E+02  0.10000000000E+01 0.  0.
    9000005    1    3    3    0    0 -0.47187521641E+02 -0.33805528113E+02 -0.13446410610E+03  0.14646184404E+03  0.10000000000E+01 0.  0.
<mgrwt>
<rscale>  0 0.12499938E+03</rscale>
<asrwt>0</asrwt>
<pdfrwt beam="1">  1        4 0.29314198E-02 0.12499938E+03</pdfrwt>
<pdfrwt beam="2">  1       -4 0.31539226E-01 0.12499938E+03</pdfrwt>
<totfact> 0.86231268E+03</totfact>
</mgrwt>
</event>
<event>
 5    1  0.3281209E-002  0.1250001E+03  0.7818608E-02  0.1235069E+00
         -4   -1    0    0    0  501 -0.00000000000E+00  0.00000000000E+00  0.16323659383E+04  0.16323664323E+04  0.12700000000E+01 0. -1.
          4   -1    0    0  501    0  0.00000000000E+00 -0.00000000000E+00 -0.22239732160E+01  0.25610460491E+01  0.12700000000E+01 0. -1.
         25    2    1    2    0    0  0.00000000000E+00  0.00000000000E+00  0.16301419650E+04  0.16349274783E+04  0.12500013302E+03 0.  0.
    9000005    1    3    3    0    0  0.49920728149E+01  0.49138653129E+02  0.13158141701E+04  0.13167412267E+04  0.10000000000E+01 0.  0.
    9000005    1    3    3    0    0 -0.49920728149E+01 -0.49138653129E+02  0.31432779497E+03  0.31818625161E+03  0.10000000000E+01 0.  0.
<mgrwt>
<rscale>  0 0.12500013E+03</rscale>
<asrwt>0</asrwt>
<pdfrwt beam="2">  1        4 0.36811631E-03 0.12500013E+03</pdfrwt>
<pdfrwt beam="1">  1       -4 0.25115926E+00 0.12500013E+03</pdfrwt>
<totfact> 0.15422954E+03</totfact>
</mgrwt>
</event>
<event>
 5    1  0.3281209E-002  0.1249995E+03  0.7818608E-02  0.1235070E+00
         -4   -1    0    0    0  501 -0.00000000000E+00  0.00000000000E+00  0.17847177183E+02  0.17892306542E+02  0.12700000000E+01 0. -1.
          4   -1    0    0  501    0  0.00000000000E+00 -0.00000000000E+00 -0.21854721377E+03  0.21855090378E+03  0.12700000000E+01 0. -1.
         25    2    1    2    0    0  0.00000000000E+00  0.00000000000E+00 -0.20070003658E+03  0.23644321033E+03  0.12499954810E+03 0.  0.
    9000005    1    3    3    0    0  0.23381935540E+02 -0.23527373538E+02 -0.20053035321E+03  0.20325765613E+03  0.10000000000E+01 0.  0.
    9000005    1    3    3    0    0 -0.23381935540E+02  0.23527373538E+02 -0.16968337288E+00  0.33185554201E+02  0.10000000000E+01 0.  0.
<mgrwt>
<rscale>  0 0.12499955E+03</rscale>
<asrwt>0</asrwt>
<pdfrwt beam="2">  1        4 0.33626402E-01 0.12499955E+03</pdfrwt>
<pdfrwt beam="1">  1       -4 0.27494751E-02 0.12499955E+03</pdfrwt>
<totfact> 0.84330806E+03</totfact>
</mgrwt>
</event>
<event>
 5    1  0.3281209E-002  0.1249954E+03  0.7818608E-02  0.1235076E+00
          4   -1    0    0  501    0  0.00000000000E+00  0.00000000000E+00  0.44297372241E+03  0.44297554295E+03  0.12700000000E+01 0.  1.
         -4   -1    0    0    0  501 -0.00000000000E+00 -0.00000000000E+00 -0.87700166375E+01  0.88614948977E+01  0.12700000000E+01 0.  1.
         25    2    1    2    0    0  0.00000000000E+00  0.00000000000E+00  0.43420370578E+03  0.45183703784E+03  0.12499540255E+03 0.  0.
    9000005    1    3    3    0    0  0.34012998877E+02 -0.13962645918E+02  0.39975353035E+03  0.40144205634E+03  0.10000000000E+01 0.  0.
    9000005    1    3    3    0    0 -0.34012998877E+02  0.13962645918E+02  0.34450175425E+02  0.50394981500E+02  0.10000000000E+01 0.  0.
<mgrwt>
<rscale>  0 0.12499540E+03</rscale>
<asrwt>0</asrwt>
<pdfrwt beam="1">  1        4 0.68156965E-01 0.12499540E+03</pdfrwt>
<pdfrwt beam="2">  1       -4 0.13564105E-02 0.12499540E+03</pdfrwt>
<totfact> 0.59811045E+03</totfact>
</mgrwt>
</event>
<event>
 5    1  0.3281209E-002  0.1250015E+03  0.7818608E-02  0.1235067E+00
         -4   -1    0    0    0  501 -0.00000000000E+00  0.00000000000E+00  0.53130751344E+03  0.53130903129E+03  0.12700000000E+01 0.  1.
          4   -1    0    0  501    0  0.00000000000E+00 -0.00000000000E+00 -0.72959422045E+01  0.74056513996E+01  0.12700000000E+01 0.  1.
         25    2    1    2    0    0  0.00000000000E+00  0.00000000000E+00  0.52401157123E+03  0.53871468269E+03  0.12500153025E+03 0.  0.
    9000005    1    3    3    0    0  0.47214075656E+02  0.38043133110E+02  0.32720813904E+03  0.33278013037E+03  0.10000000000E+01 0.  0.
    9000005    1    3    3    0    0 -0.47214075656E+02 -0.38043133110E+02  0.19680343219E+03  0.20593455232E+03  0.10000000000E+01 0.  0.
<mgrwt>
<rscale>  0 0.12500153E+03</rscale>
<asrwt>0</asrwt>
<pdfrwt beam="2">  1        4 0.11310085E-02 0.12500153E+03</pdfrwt>
<pdfrwt beam="1">  1       -4 0.81748176E-01 0.12500153E+03</pdfrwt>
<totfact> 0.52979131E+03</totfact>
</mgrwt>
</event>
<event>
 5    1  0.3281209E-002  0.1250010E+03  0.7818608E-02  0.1235068E+00
          4   -1    0    0  501    0  0.00000000000E+00  0.00000000000E+00  0.12279563279E+02  0.12345062750E+02  0.12700000000E+01 0. -1.
         -4   -1    0    0    0  501 -0.00000000000E+00 -0.00000000000E+00 -0.31720220574E+03  0.31720474812E+03  0.12700000000E+01 0. -1.
         25    2    1    2    0    0  0.00000000000E+00  0.00000000000E+00 -0.30492264246E+03  0.32954981087E+03  0.12500103982E+03 0.  0.
    9000005    1    3    3    0    0 -0.66736508994E+01  0.23204949369E+01 -0.31615870934E+03  0.31623923192E+03  0.10000000000E+01 0.  0.
    9000005    1    3    3    0    0  0.66736508994E+01 -0.23204949369E+01  0.11236066877E+02  0.13310578948E+02  0.10000000000E+01 0.  0.
<mgrwt>
<rscale>  0 0.12500104E+03</rscale>
<asrwt>0</asrwt>
<pdfrwt beam="1">  1        4 0.18943978E-02 0.12500104E+03</pdfrwt>
<pdfrwt beam="2">  1       -4 0.48805567E-01 0.12500104E+03</pdfrwt>
<totfact> 0.72032859E+03</totfact>
</mgrwt>
</event>
<event>
 5    1  0.3281209E-002  0.1250039E+03  0.7818608E-02  0.1235063E+00
         -4   -1    0    0    0  501 -0.00000000000E+00  0.00000000000E+00  0.12888427017E+02  0.12950847501E+02  0.12700000000E+01 0.  1.
          4   -1    0    0  501    0  0.00000000000E+00 -0.00000000000E+00 -0.30230497075E+03  0.30230763841E+03  0.12700000000E+01 0.  1.
         25    2    1    2    0    0  0.00000000000E+00  0.00000000000E+00 -0.28941654373E+03  0.31525848591E+03  0.12500390855E+03 0.  0.
    9000005    1    3    3    0    0 -0.26940376820E+02  0.56358295768E+02 -0.14939461527E+03  0.16193144375E+03  0.10000000000E+01 0.  0.
    9000005    1    3    3    0    0  0.26940376820E+02 -0.56358295768E+02 -0.14002192846E+03  0.15332704215E+03  0.10000000000E+01 0.  0.
<mgrwt>
<rscale>  0 0.12500391E+03</rscale>
<asrwt>0</asrwt>
<pdfrwt beam="2">  1        4 0.46513458E-01 0.12500391E+03</pdfrwt>
<pdfrwt beam="1">  1       -4 0.19878419E-02 0.12500391E+03</pdfrwt>
<totfact> 0.73717250E+03</totfact>
</mgrwt>
</event>
<event>
 5    1  0.3281209E-002  0.1249988E+03  0.7818608E-02  0.1235071E+00
          4   -1    0    0  501    0  0.00000000000E+00  0.00000000000E+00  0.78398946823E+02  0.78409232638E+02  0.12700000000E+01 0.  1.
         -4   -1    0    0    0  501 -0.00000000000E+00 -0.00000000000E+00 -0.49802716255E+02  0.49818906515E+02  0.12700000000E+01 0.  1.
         25    2    1    2    0    0  0.00000000000E+00  0.00000000000E+00  0.28596230568E+02  0.12822813915E+03  0.12499884507E+03 0.  0.
    9000005    1    3    3    0    0  0.38414930636E+01 -0.45832542094E+02  0.57697088022E+02  0.73792499280E+02  0.10000000000E+01 0.  0.
    9000005    1    3    3    0    0 -0.38414930636E+01  0.45832542094E+02 -0.29100857454E+02  0.54435639873E+02  0.10000000000E+01 0.  0.
<mgrwt>
<rscale>  0 0.12499885E+03</rscale>
<asrwt>0</asrwt>
<pdfrwt beam="1">  1        4 0.12063413E-01 0.12499885E+03</pdfrwt>
<pdfrwt beam="2">  1       -4 0.76639930E-02 0.12499885E+03</pdfrwt>
<totfact> 0.10382834E+04</totfact>
</mgrwt>
</event>
<event>
 5    1  0.3281209E-002  0.1249992E+03  0.7818608E-02  0.1235071E+00
         -4   -1    0    0    0  501 -0.00000000000E+00  0.00000000000E+00  0.26573934999E+03  0.26574238471E+03  0.12700000000E+01 0. -1.
          4   -1    0    0  501    0  0.00000000000E+00 -0.00000000000E+00 -0.14668808033E+02  0.14723682593E+02  0.12700000000E+01 0. -1.
         25    2    1    2    0    0  0.00000000000E+00  0.00000000000E+00  0.25107054196E+03  0.28046606731E+03  0.12499919148E+03 0.  0.
    9000005    1    3    3    0    0  0.50441114040E+02 -0.16862056828E+02  0.51915721957E+02  0.74329517235E+02  0.10000000000E+01 0.  0.
    9000005    1    3    3    0    0 -0.50441114040E+02  0.16862056828E+02  0.19915482000E+03  0.20613655007E+03  0.10000000000E+01 0.  0.
<mgrwt>
<rscale>  0 0.12499919E+03</rscale>
<asrwt>0</asrwt>
<pdfrwt beam="2">  1        4 0.22611946E-02 0.12499919E+03</pdfrwt>
<pdfrwt beam="1">  1       -4 0.40887425E-01 0.12499919E+03</pdfrwt>
<totfact> 0.78117757E+03</totfact>
</mgrwt>
</event>
<event>
 5    1  0.3281209E-002  0.1250000E+03  0.7818608E-02  0.1235069E+00
         -4   -1    0    0    0  501 -0.00000000000E+00  0.00000000000E+00  0.19157324534E+03  0.19157745491E+03  0.12700000000E+01 0. -1.
          4   -1    0    0  501    0  0.00000000000E+00 -0.00000000000E+00 -0.20366155629E+02  0.20405714766E+02  0.12700000000E+01 0. -1.
         25    2    1    2    0    0  0.00000000000E+00  0.00000000000E+00  0.17120708971E+03  0.21198316968E+03  0.12499998664E+03 0.  0.
    9000005    1    3    3    0    0  0.50310641026E+02 -0.35793485889E+02  0.69256691290E+02  0.92789134714E+02  0.10000000000E+01 0.  0.
    9000005    1    3    3    0    0 -0.50310641026E+02  0.35793485889E+02  0.10195039842E+03  0.11919403496E+03  0.10000000000E+01 0.  0.
<mgrwt>
<rscale>  0 0.12499999E+03</rscale>
<asrwt>0</asrwt>
<pdfrwt beam="2">  1        4 0.31366218E-02 0.12499999E+03</pdfrwt>
<pdfrwt beam="1">  1       -4 0.29476172E-01 0.12499999E+03</pdfrwt>
<totfact> 0.88153052E+03</totfact>
</mgrwt>
</event>
<event>
 5    1  0.3281209E-002  0.1249905E+03  0.7818608E-02  0.1235084E+00
         -4   -1    0    0    0  501 -0.00000000000E+00  0.00000000000E+00  0.23621607050E+02  0.23655722767E+02  0.12700000000E+01 0. -1.
          4   -1    0    0  501    0  0.00000000000E+00 -0.00000000000E+00 -0.16518666426E+03  0.16519154624E+03  0.12700000000E+01 0. -1.
         25    2    1    2    0    0  0.00000000000E+00  0.00000000000E+00 -0.14156505721E+03  0.18884726901E+03  0.12499050199E+03 0.  0.
    9000005    1    3    3    0    0  0.90669059769E+01  0.43793908447E+02 -0.13671948278E+03  0.14385177154E+03  0.10000000000E+01 0.  0.
    9000005    1    3    3    0    0 -0.90669059769E+01 -0.43793908447E+02 -0.48455744236E+01  0.44995497470E+02  0.10000000000E+01 0.  0.
<mgrwt>
<rscale>  0 0.12499050E+03</rscale>
<asrwt>0</asrwt>
<pdfrwt beam="2">  1        4 0.25416332E-01 0.12499050E+03</pdfrwt>
<pdfrwt beam="1">  1       -4 0.36370933E-02 0.12499050E+03</pdfrwt>
<totfact> 0.92067862E+03</totfact>
</mgrwt>
</event>
<event>
 5    1  0.3281209E-002  0.1249993E+03  0.7818608E-02  0.1235070E+00
         -4   -1    0    0    0  501 -0.00000000000E+00  0.00000000000E+00  0.13426066310E+03  0.13426666956E+03  0.12700000000E+01 0. -1.
          4   -1    0    0  501    0  0.00000000000E+00 -0.00000000000E+00 -0.29073671072E+02  0.29101396007E+02  0.12700000000E+01 0. -1.
         25    2    1    2    0    0  0.00000000000E+00  0.00000000000E+00  0.10518699203E+03  0.16336806557E+03  0.12499928622E+03 0.  0.
    9000005    1    3    3    0    0  0.62211298283E+02 -0.17300891014E+01  0.45204124621E+02  0.76926274609E+02  0.10000000000E+01 0.  0.
    9000005    1    3    3    0    0 -0.62211298283E+02  0.17300891014E+01  0.59982867404E+02  0.86441790960E+02  0.10000000000E+01 0.  0.
<mgrwt>
<rscale>  0 0.12499929E+03</rscale>
<asrwt>0</asrwt>
<pdfrwt beam="2">  1        4 0.44754673E-02 0.12499929E+03</pdfrwt>
<pdfrwt beam="1">  1       -4 0.20658081E-01 0.12499929E+03</pdfrwt>
<totfact> 0.96698901E+03</totfact>
</mgrwt>
</event>
<event>
 5    1  0.3281209E-002  0.1250014E+03  0.7818608E-02  0.1235067E+00
         -4   -1    0    0    0  501 -0.00000000000E+00  0.00000000000E+00  0.51108395858E+03  0.51108553650E+03  0.12700000000E+01 0. -1.
          4   -1    0    0  501    0  0.00000000000E+00 -0.00000000000E+00 -0.75888829168E+01  0.76944164123E+01  0.12700000000E+01 0. -1.
         25    2    1    2    0    0  0.00000000000E+00  0.00000000000E+00  0.50349507567E+03  0.51877995291E+03  0.12500139329E+03 0.  0.
    9000005    1    3    3    0    0  0.55517168373E+02 -0.50971160728E+00  0.13269258123E+03  0.14384275062E+03  0.10000000000E+01 0.  0.
    9000005    1    3    3    0    0 -0.55517168373E+02  0.50971160728E+00  0.37080249443E+03  0.37493720230E+03  0.10000000000E+01 0.  0.
<mgrwt>
<rscale>  0 0.12500139E+03</rscale>
<asrwt>0</asrwt>
<pdfrwt beam="2">  1        4 0.11757599E-02 0.12500139E+03</pdfrwt>
<pdfrwt beam="1">  1       -4 0.78636532E-01 0.12500139E+03</pdfrwt>
<totfact> 0.54434492E+03</totfact>
</mgrwt>
</event>
<event>
 5    1  0.3281209E-002  0.1250015E+03  0.7818608E-02  0.1235067E+00
          4   -1    0    0  501    0  0.00000000000E+00  0.00000000000E+00  0.36402149918E+03  0.36402371457E+03  0.12700000000E+01 0.  1.
         -4   -1    0    0    0  501 -0.00000000000E+00 -0.00000000000E+00 -0.10691254452E+02  0.10766421028E+02  0.12700000000E+01 0.  1.
         25    2    1    2    0    0  0.00000000000E+00  0.00000000000E+00  0.35333024473E+03  0.37479013560E+03  0.12500153558E+03 0.  0.
    9000005    1    3    3    0    0  0.12351562516E+02 -0.53342038893E+02  0.86346977938E+02  0.10224839759E+03  0.10000000000E+01 0.  0.
    9000005    1    3    3    0    0 -0.12351562516E+02  0.53342038893E+02  0.26698326679E+03  0.27254173801E+03  0.10000000000E+01 0.  0.
<mgrwt>
<rscale>  0 0.12500154E+03</rscale>
<asrwt>0</asrwt>
<pdfrwt beam="1">  1        4 0.56009257E-01 0.12500154E+03</pdfrwt>
<pdfrwt beam="2">  1       -4 0.16507609E-02 0.12500154E+03</pdfrwt>
<totfact> 0.67078482E+03</totfact>
</mgrwt>
</event>
<event>
 5    1  0.3281209E-002  0.1249959E+03  0.7818608E-02  0.1235076E+00
         -4   -1    0    0    0  501 -0.00000000000E+00  0.00000000000E+00  0.49722436148E+02  0.49738652540E+02  0.12700000000E+01 0.  1.
          4   -1    0    0  501    0  0.00000000000E+00 -0.00000000000E+00 -0.78521776360E+02  0.78532046087E+02  0.12700000000E+01 0.  1.
         25    2    1    2    0    0  0.00000000000E+00  0.00000000000E+00 -0.28799340212E+02  0.12827069863E+03  0.12499588045E+03 0.  0.
    9000005    1    3    3    0    0 -0.51166575222E+00  0.47540635000E+02 -0.56016057669E+02  0.73479061608E+02  0.10000000000E+01 0.  0.
    9000005    1    3    3    0    0  0.51166575222E+00 -0.47540635000E+02  0.27216717457E+02  0.54791637019E+02  0.10000000000E+01 0.  0.
<mgrwt>
<rscale>  0 0.12499588E+03</rscale>
<asrwt>0</asrwt>
<pdfrwt beam="2">  1        4 0.12082311E-01 0.12499588E+03</pdfrwt>
<pdfrwt beam="1">  1       -4 0.76516430E-02 0.12499588E+03</pdfrwt>
<totfact> 0.10382611E+04</totfact>
</mgrwt>
</event>
<event>
 5    1  0.3281209E-002  0.1249984E+03  0.7818608E-02  0.1235072E+00
          4   -1    0    0  501    0  0.00000000000E+00  0.00000000000E+00  0.14413115547E+03  0.14413675061E+03  0.12700000000E+01 0. -1.
         -4   -1    0    0    0  501 -0.00000000000E+00 -0.00000000000E+00 -0.27080354347E+02  0.27110117882E+02  0.12700000000E+01 0. -1.
         25    2    1    2    0    0  0.00000000000E+00  0.00000000000E+00  0.11705080112E+03  0.17124686850E+03  0.12499839969E+03 0.  0.
    9000005    1    3    3    0    0  0.95419127923E+00 -0.61685656611E+02  0.72164862265E+02  0.94946290387E+02  0.10000000000E+01 0.  0.
    9000005    1    3    3    0    0 -0.95419127923E+00  0.61685656611E+02  0.44885938859E+02  0.76300578109E+02  0.10000000000E+01 0.  0.
<mgrwt>
<rscale>  0 0.12499840E+03</rscale>
<asrwt>0</asrwt>
<pdfrwt beam="1">  1        4 0.22176744E-01 0.12499840E+03</pdfrwt>
<pdfrwt beam="2">  1       -4 0.41689283E-02 0.12499840E+03</pdfrwt>
<totfact> 0.95220166E+03</totfact>
</mgrwt>
</event>
<event>
 5    1  0.3281209E-002  0.1250014E+03  0.7818608E-02  0.1235067E+00
          4   -1    0    0  501    0  0.00000000000E+00  0.00000000000E+00  0.59213460482E+01  0.60560085058E+01  0.12700000000E+01 0.  1.
         -4   -1    0    0    0  501 -0.00000000000E+00 -0.00000000000E+00 -0.65215196174E+03  0.65215319834E+03  0.12700000000E+01 0.  1.
         25    2    1    2    0    0  0.00000000000E+00  0.00000000000E+00 -0.64623061570E+03  0.65820920685E+03  0.12500140525E+03 0.  0.
    9000005    1    3    3    0    0 -0.14245304418E+02  0.60496410020E+02 -0.35748065616E+03  0.36284454502E+03  0.10000000000E+01 0.  0.
    9000005    1    3    3    0    0  0.14245304418E+02 -0.60496410020E+02 -0.28874995954E+03  0.29536466183E+03  0.10000000000E+01 0.  0.
<mgrwt>
<rscale>  0 0.12500141E+03</rscale>
<asrwt>0</asrwt>
<pdfrwt beam="1">  1        4 0.92143060E-03 0.12500141E+03</pdfrwt>
<pdfrwt beam="2">  1       -4 0.10034147E+00 0.12500141E+03</pdfrwt>
<totfact> 0.45384896E+03</totfact>
</mgrwt>
</event>
<event>
 5    1  0.3281209E-002  0.1250031E+03  0.7818608E-02  0.1235064E+00
         -4   -1    0    0    0  501 -0.00000000000E+00  0.00000000000E+00  0.99898022813E+02  0.99906095219E+02  0.12700000000E+01 0. -1.
          4   -1    0    0  501    0  0.00000000000E+00 -0.00000000000E+00 -0.39084347708E+02  0.39104975844E+02  0.12700000000E+01 0. -1.
         25    2    1    2    0    0  0.00000000000E+00  0.00000000000E+00  0.60813675105E+02  0.13901107106E+03  0.12500309916E+03 0.  0.
    9000005    1    3    3    0    0  0.53826141909E+01 -0.61873428646E+02  0.22690224606E+02  0.66129721008E+02  0.10000000000E+01 0.  0.
    9000005    1    3    3    0    0 -0.53826141909E+01  0.61873428646E+02  0.38123450499E+02  0.72881350055E+02  0.10000000000E+01 0.  0.
<mgrwt>
<rscale>  0 0.12500310E+03</rscale>
<asrwt>0</asrwt>
<pdfrwt beam="2">  1        4 0.60151842E-02 0.12500310E+03</pdfrwt>
<pdfrwt beam="1">  1       -4 0.15371134E-01 0.12500310E+03</pdfrwt>
<totfact> 0.10153414E+04</totfact>
</mgrwt>
</event>
<event>
 5    1  0.3281209E-002  0.1249651E+03  0.7818608E-02  0.1235124E+00
          4   -1    0    0  501    0  0.00000000000E+00  0.00000000000E+00  0.19626386103E+02  0.19667433271E+02  0.12700000000E+01 0.  1.
         -4   -1    0    0    0  501 -0.00000000000E+00 -0.00000000000E+00 -0.19866842778E+03  0.19867248701E+03  0.12700000000E+01 0.  1.
         25    2    1    2    0    0  0.00000000000E+00  0.00000000000E+00 -0.17904204167E+03  0.21833992028E+03  0.12496506753E+03 0.  0.
    9000005    1    3    3    0    0 -0.52328804668E+02  0.18741455242E+02 -0.39686656221E+02  0.68305026350E+02  0.10000000000E+01 0.  0.
    9000005    1    3    3    0    0  0.52328804668E+02 -0.18741455242E+02 -0.13935538545E+03  0.15003489393E+03  0.10000000000E+01 0.  0.
<mgrwt>
<rscale>  0 0.12496507E+03</rscale>
<asrwt>0</asrwt>
<pdfrwt beam="1">  1        4 0.30229139E-02 0.12496507E+03</pdfrwt>
<pdfrwt beam="2">  1       -4 0.30567842E-01 0.12496507E+03</pdfrwt>
<totfact> 0.87199751E+03</totfact>
</mgrwt>
</event>
<event>
 5    1  0.3281209E-002  0.1250000E+03  0.7818608E-02  0.1235069E+00
          4   -1    0    0  501    0  0.00000000000E+00  0.00000000000E+00  0.31151213967E+02  0.31177091456E+02  0.12700000000E+01 0.  1.
         -4   -1    0    0    0  501 -0.00000000000E+00 -0.00000000000E+00 -0.12531529022E+03  0.12532172542E+03  0.12700000000E+01 0.  1.
         25    2    1    2    0    0  0.00000000000E+00  0.00000000000E+00 -0.94164076250E+02  0.15649881688E+03  0.12500002571E+03 0.  0.
    9000005    1    3    3    0    0 -0.18331079372E+02  0.84274124142E+01  0.26967676514E+02  0.33694292209E+02  0.10000000000E+01 0.  0.
    9000005    1    3    3    0    0  0.18331079372E+02 -0.84274124142E+01 -0.12113175276E+03  0.12280452467E+03  0.10000000000E+01 0.  0.
<mgrwt>
<rscale>  0 0.12500003E+03</rscale>
<asrwt>0</asrwt>
<pdfrwt beam="1">  1        4 0.47949801E-02 0.12500003E+03</pdfrwt>
<pdfrwt beam="2">  1       -4 0.19281761E-01 0.12500003E+03</pdfrwt>
<totfact> 0.98022007E+03</totfact>
</mgrwt>
</event>
<event>
 5    1  0.3281209E-002  0.1249982E+03  0.7818608E-02  0.1235072E+00
          4   -1    0    0  501    0  0.00000000000E+00  0.00000000000E+00  0.34867855104E+02  0.34890976191E+02  0.12700000000E+01 0.  1.
         -4   -1    0    0    0  501 -0.00000000000E+00 -0.00000000000E+00 -0.11196301689E+03  0.11197021948E+03  0.12700000000E+01 0.  1.
         25    2    1    2    0    0  0.00000000000E+00  0.00000000000E+00 -0.77095161782E+02  0.14686119567E+03  0.12499818728E+03 0.  0.
    9000005    1    3    3    0    0 -0.57209448093E+02 -0.25125927088E+02 -0.37430775027E+02  0.72844327729E+02  0.10000000000E+01 0.  0.
    9000005    1    3    3    0    0  0.57209448093E+02  0.25125927088E+02 -0.39664386755E+02  0.74016867941E+02  0.10000000000E+01 0.  0.
<mgrwt>
<rscale>  0 0.12499819E+03</rscale>
<asrwt>0</asrwt>
<pdfrwt beam="1">  1        4 0.53666180E-02 0.12499819E+03</pdfrwt>
<pdfrwt beam="2">  1       -4 0.17227412E-01 0.12499819E+03</pdfrwt>
<totfact> 0.99937171E+03</totfact>
</mgrwt>
</event>
<event>
 5    1  0.3281209E-002  0.1249988E+03  0.7818608E-02  0.1235071E+00
          4   -1    0    0  501    0  0.00000000000E+00  0.00000000000E+00  0.60436460917E+02  0.60449803210E+02  0.12700000000E+01 0. -1.
         -4   -1    0    0    0  501 -0.00000000000E+00 -0.00000000000E+00 -0.64606069922E+02  0.64618551290E+02  0.12700000000E+01 0. -1.
         25    2    1    2    0    0  0.00000000000E+00  0.00000000000E+00 -0.41696090052E+01  0.12506835450E+03  0.12499883063E+03 0.  0.
    9000005    1    3    3    0    0 -0.51235562698E+02 -0.28457429933E+02  0.19612936854E+02  0.61810804035E+02  0.10000000000E+01 0.  0.
    9000005    1    3    3    0    0  0.51235562698E+02  0.28457429933E+02 -0.23782545859E+02  0.63257550466E+02  0.10000000000E+01 0.  0.
<mgrwt>
<rscale>  0 0.12499883E+03</rscale>
<asrwt>0</asrwt>
<pdfrwt beam="1">  1        4 0.92999036E-02 0.12499883E+03</pdfrwt>
<pdfrwt beam="2">  1       -4 0.99413817E-02 0.12499883E+03</pdfrwt>
<totfact> 0.10451654E+04</totfact>
</mgrwt>
</event>
<event>
 5    1  0.3281209E-002  0.1249961E+03  0.7818608E-02  0.1235075E+00
          4   -1    0    0  501    0  0.00000000000E+00  0.00000000000E+00  0.60166705343E+01  0.61492458333E+01  0.12700000000E+01 0. -1.
         -4   -1    0    0    0  501 -0.00000000000E+00 -0.00000000000E+00 -0.64198996259E+03  0.64199121876E+03  0.12700000000E+01 0. -1.
         25    2    1    2    0    0  0.00000000000E+00  0.00000000000E+00 -0.63597329205E+03  0.64814046459E+03  0.12499613449E+03 0.  0.
    9000005    1    3    3    0    0 -0.37779110605E+02  0.24032336981E+02 -0.91953815503E+02  0.10228058762E+03  0.10000000000E+01 0.  0.
    9000005    1    3    3    0    0  0.37779110605E+02 -0.24032336981E+02 -0.54401947655E+03  0.54585987697E+03  0.10000000000E+01 0.  0.
<mgrwt>
<rscale>  0 0.12499613E+03</rscale>
<asrwt>0</asrwt>
<pdfrwt beam="1">  1        4 0.93593686E-03 0.12499613E+03</pdfrwt>
<pdfrwt beam="2">  1       -4 0.98777928E-01 0.12499613E+03</pdfrwt>
<totfact> 0.45967080E+03</totfact>
</mgrwt>
</event>
<event>
 5    1  0.3281209E-002  0.1250066E+03  0.7818608E-02  0.1235059E+00
         -4   -1    0    0    0  501 -0.00000000000E+00  0.00000000000E+00  0.23081182472E+03  0.23081531866E+03  0.12700000000E+01 0.  1.
          4   -1    0    0  501    0  0.00000000000E+00 -0.00000000000E+00 -0.16898295511E+02  0.16945952058E+02  0.12700000000E+01 0.  1.
         25    2    1    2    0    0  0.00000000000E+00  0.00000000000E+00  0.21391352921E+03  0.24776127072E+03  0.12500659699E+03 0.  0.
    9000005    1    3    3    0    0 -0.52590918572E+02  0.76190460165E+01  0.41767582807E+02  0.67597230357E+02  0.10000000000E+01 0.  0.
    9000005    1    3    3    0    0  0.52590918572E+02 -0.76190460165E+01  0.17214594640E+03  0.18016404036E+03  0.10000000000E+01 0.  0.
<mgrwt>
<rscale>  0 0.12500660E+03</rscale>
<asrwt>0</asrwt>
<pdfrwt beam="2">  1        4 0.26036726E-02 0.12500660E+03</pdfrwt>
<pdfrwt beam="1">  1       -4 0.35513443E-01 0.12500660E+03</pdfrwt>
<totfact> 0.82642728E+03</totfact>
</mgrwt>
</event>
<event>
 5    1  0.3281209E-002  0.1249980E+03  0.7818608E-02  0.1235072E+00
          4   -1    0    0  501    0  0.00000000000E+00  0.00000000000E+00  0.40835371703E+02  0.40855115740E+02  0.12700000000E+01 0.  1.
         -4   -1    0    0    0  501 -0.00000000000E+00 -0.00000000000E+00 -0.95608356970E+02  0.95616791530E+02  0.12700000000E+01 0.  1.
         25    2    1    2    0    0  0.00000000000E+00  0.00000000000E+00 -0.54772985267E+02  0.13647190727E+03  0.12499800622E+03 0.  0.
    9000005    1    3    3    0    0 -0.11065311363E+02 -0.27101473357E+02 -0.87664863588E+02  0.92428671317E+02  0.10000000000E+01 0.  0.
    9000005    1    3    3    0    0  0.11065311363E+02  0.27101473357E+02  0.32891878321E+02  0.44043235952E+02  0.10000000000E+01 0.  0.
<mgrwt>
<rscale>  0 0.12499801E+03</rscale>
<asrwt>0</asrwt>
<pdfrwt beam="1">  1        4 0.62845325E-02 0.12499801E+03</pdfrwt>
<pdfrwt beam="2">  1       -4 0.14711146E-01 0.12499801E+03</pdfrwt>
<totfact> 0.10207598E+04</totfact>
</mgrwt>
</event>
<event>
 5    1  0.3281209E-002  0.1249945E+03  0.7818608E-02  0.1235078E+00
          4   -1    0    0  501    0  0.00000000000E+00  0.00000000000E+00  0.29771011721E+03  0.29771282604E+03  0.12700000000E+01 0.  1.
         -4   -1    0    0    0  501 -0.00000000000E+00 -0.00000000000E+00 -0.13086322355E+02  0.13147803344E+02  0.12700000000E+01 0.  1.
         25    2    1    2    0    0  0.00000000000E+00  0.00000000000E+00  0.28462379486E+03  0.31086062939E+03  0.12499450509E+03 0.  0.
    9000005    1    3    3    0    0 -0.40000311738E+02 -0.39618546230E+02  0.20974808894E+03  0.21717484881E+03  0.10000000000E+01 0.  0.
    9000005    1    3    3    0    0  0.40000311738E+02  0.39618546230E+02  0.74875705921E+02  0.93685780574E+02  0.10000000000E+01 0.  0.
<mgrwt>
<rscale>  0 0.12499451E+03</rscale>
<asrwt>0</asrwt>
<pdfrwt beam="1">  1        4 0.45806488E-01 0.12499451E+03</pdfrwt>
<pdfrwt beam="2">  1       -4 0.20182183E-02 0.12499451E+03</pdfrwt>
<totfact> 0.74265444E+03</totfact>
</mgrwt>
</event>
<event>
 5    1  0.3281209E-002  0.1249973E+03  0.7818608E-02  0.1235073E+00
          4   -1    0    0  501    0  0.00000000000E+00  0.00000000000E+00  0.15019685504E+04  0.15019690873E+04  0.12700000000E+01 0. -1.
         -4   -1    0    0    0  501 -0.00000000000E+00 -0.00000000000E+00 -0.24450235130E+01  0.27551842006E+01  0.12700000000E+01 0. -1.
         25    2    1    2    0    0  0.00000000000E+00  0.00000000000E+00  0.14995235268E+04  0.15047242715E+04  0.12499730253E+03 0.  0.
    9000005    1    3    3    0    0 -0.14629632296E+02 -0.17669711781E+02  0.50016645101E+02  0.55035530730E+02  0.10000000000E+01 0.  0.
    9000005    1    3    3    0    0  0.14629632296E+02  0.17669711781E+02  0.14495068817E+04  0.14496887408E+04  0.10000000000E+01 0.  0.
<mgrwt>
<rscale>  0 0.12499730E+03</rscale>
<asrwt>0</asrwt>
<pdfrwt beam="1">  1        4 0.23109650E+00 0.12499730E+03</pdfrwt>
<pdfrwt beam="2">  1       -4 0.40005639E-03 0.12499730E+03</pdfrwt>
<totfact> 0.17838731E+03</totfact>
</mgrwt>
</event>
<event>
 5    1  0.3281209E-002  0.1249437E+03  0.7818608E-02  0.1235157E+00
          4   -1    0    0  501    0  0.00000000000E+00  0.00000000000E+00  0.27058481590E+02  0.27088269158E+02  0.12700000000E+01 0.  1.
         -4   -1    0    0    0  501 -0.00000000000E+00 -0.00000000000E+00 -0.14412124146E+03  0.14412683699E+03  0.12700000000E+01 0.  1.
         25    2    1    2    0    0  0.00000000000E+00  0.00000000000E+00 -0.11706275987E+03  0.17121510614E+03  0.12494367861E+03 0.  0.
    9000005    1    3    3    0    0  0.23674776849E+01  0.60047241951E+02 -0.81885679029E+02  0.10157529545E+03  0.10000000000E+01 0.  0.
    9000005    1    3    3    0    0 -0.23674776849E+01 -0.60047241951E+02 -0.35177080839E+02  0.69639810690E+02  0.10000000000E+01 0.  0.
<mgrwt>
<rscale>  0 0.12494368E+03</rscale>
<asrwt>0</asrwt>
<pdfrwt beam="1">  1        4 0.41655652E-02 0.12494368E+03</pdfrwt>
<pdfrwt beam="2">  1       -4 0.22175220E-01 0.12494368E+03</pdfrwt>
<totfact> 0.95343100E+03</totfact>
</mgrwt>
</event>
<event>
 5    1  0.3281209E-002  0.1249995E+03  0.7818608E-02  0.1235070E+00
         -4   -1    0    0    0  501 -0.00000000000E+00  0.00000000000E+00  0.17421238642E+03  0.17421701548E+03  0.12700000000E+01 0. -1.
          4   -1    0    0  501    0  0.00000000000E+00 -0.00000000000E+00 -0.22399249043E+02  0.22435223594E+02  0.12700000000E+01 0. -1.
         25    2    1    2    0    0  0.00000000000E+00  0.00000000000E+00  0.15181313738E+03  0.19665223907E+03  0.12499949781E+03 0.  0.
    9000005    1    3    3    0    0 -0.29140035676E+02  0.32739100961E+02  0.58278042072E+01  0.44226165477E+02  0.10000000000E+01 0.  0.
    9000005    1    3    3    0    0  0.29140035676E+02 -0.32739100961E+02  0.14598533317E+03  0.15242607359E+03  0.10000000000E+01 0.  0.
<mgrwt>
<rscale>  0 0.12499950E+03</rscale>
<asrwt>0</asrwt>
<pdfrwt beam="2">  1        4 0.34491617E-02 0.12499950E+03</pdfrwt>
<pdfrwt beam="1">  1       -4 0.26805029E-01 0.12499950E+03</pdfrwt>
<totfact> 0.90703576E+03</totfact>
</mgrwt>
</event>
<event>
 5    1  0.3281209E-002  0.1249979E+03  0.7818608E-02  0.1235073E+00
         -4   -1    0    0    0  501 -0.00000000000E+00  0.00000000000E+00  0.20644280279E+02  0.20683307479E+02  0.12700000000E+01 0. -1.
          4   -1    0    0  501    0  0.00000000000E+00 -0.00000000000E+00 -0.18899078550E+03  0.18899505259E+03  0.12700000000E+01 0. -1.
         25    2    1    2    0    0  0.00000000000E+00  0.00000000000E+00 -0.16834650522E+03  0.20967836007E+03  0.12499787543E+03 0.  0.
    9000005    1    3    3    0    0  0.31238615921E+02 -0.53948077776E+02 -0.91460246084E+02  0.11068975939E+03  0.10000000000E+01 0.  0.
    9000005    1    3    3    0    0 -0.31238615921E+02  0.53948077776E+02 -0.76886259140E+02  0.98988600681E+02  0.10000000000E+01 0.  0.
<mgrwt>
<rscale>  0 0.12499788E+03</rscale>
<asrwt>0</asrwt>
<pdfrwt beam="2">  1        4 0.29078835E-01 0.12499788E+03</pdfrwt>
<pdfrwt beam="1">  1       -4 0.31793736E-02 0.12499788E+03</pdfrwt>
<totfact> 0.88532642E+03</totfact>
</mgrwt>
</event>
<event>
 5    1  0.3281209E-002  0.1250096E+03  0.7818608E-02  0.1235054E+00
         -4   -1    0    0    0  501 -0.00000000000E+00  0.00000000000E+00  0.22394376466E+02  0.22430358831E+02  0.12700000000E+01 0. -1.
          4   -1    0    0  501    0  0.00000000000E+00 -0.00000000000E+00 -0.17427838853E+03  0.17428301584E+03  0.12700000000E+01 0. -1.
         25    2    1    2    0    0  0.00000000000E+00  0.00000000000E+00 -0.15188401207E+03  0.19671337467E+03  0.12500959424E+03 0.  0.
    9000005    1    3    3    0    0  0.28730690869E+02 -0.17569928130E+02 -0.15878642156E+03  0.16232154091E+03  0.10000000000E+01 0.  0.
    9000005    1    3    3    0    0 -0.28730690869E+02  0.17569928130E+02  0.69024094939E+01  0.34391833756E+02  0.10000000000E+01 0.  0.
<mgrwt>
<rscale>  0 0.12500959E+03</rscale>
<asrwt>0</asrwt>
<pdfrwt beam="2">  1        4 0.26815183E-01 0.12500959E+03</pdfrwt>
<pdfrwt beam="1">  1       -4 0.34484126E-02 0.12500959E+03</pdfrwt>
<totfact> 0.90672677E+03</totfact>
</mgrwt>
</event>
<event>
 5    1  0.3281209E-002  0.1249846E+03  0.7818608E-02  0.1235093E+00
         -4   -1    0    0    0  501 -0.00000000000E+00  0.00000000000E+00  0.19584503155E+02  0.19625637922E+02  0.12700000000E+01 0. -1.
          4   -1    0    0  501    0  0.00000000000E+00 -0.00000000000E+00 -0.19915459383E+03  0.19915864316E+03  0.12700000000E+01 0. -1.
         25    2    1    2    0    0  0.00000000000E+00  0.00000000000E+00 -0.17957009068E+03  0.21878428108E+03  0.12498457577E+03 0.  0.
    9000005    1    3    3    0    0 -0.61317372888E+02  0.10134503248E+02 -0.10109674413E+03  0.11867636685E+03  0.10000000000E+01 0.  0.
    9000005    1    3    3    0    0  0.61317372888E+02 -0.10134503248E+02 -0.78473346544E+02  0.10010791423E+03  0.10000000000E+01 0.  0.
<mgrwt>
<rscale>  0 0.12498458E+03</rscale>
<asrwt>0</asrwt>
<pdfrwt beam="2">  1        4 0.30642643E-01 0.12498458E+03</pdfrwt>
<pdfrwt beam="1">  1       -4 0.30164763E-02 0.12498458E+03</pdfrwt>
<totfact> 0.87091093E+03</totfact>
</mgrwt>
</event>
<event>
 5    1  0.3281209E-002  0.1249993E+03  0.7818608E-02  0.1235070E+00
         -4   -1    0    0    0  501 -0.00000000000E+00  0.00000000000E+00  0.16023855163E+03  0.16024358436E+03  0.12700000000E+01 0. -1.
          4   -1    0    0  501    0  0.00000000000E+00 -0.00000000000E+00 -0.24355468662E+02  0.24388557844E+02  0.12700000000E+01 0. -1.
         25    2    1    2    0    0  0.00000000000E+00  0.00000000000E+00  0.13588308296E+03  0.18463214220E+03  0.12499926279E+03 0.  0.
    9000005    1    3    3    0    0 -0.21696978787E+02 -0.31005269289E+02 -0.55136175898E+01  0.38255530203E+02  0.10000000000E+01 0.  0.
    9000005    1    3    3    0    0  0.21696978787E+02  0.31005269289E+02  0.14139670055E+03  0.14637661200E+03  0.10000000000E+01 0.  0.
<mgrwt>
<rscale>  0 0.12499926E+03</rscale>
<asrwt>0</asrwt>
<pdfrwt beam="2">  1        4 0.37499278E-02 0.12499926E+03</pdfrwt>
<pdfrwt beam="1">  1       -4 0.24655016E-01 0.12499926E+03</pdfrwt>
<totfact> 0.92791319E+03</totfact>
</mgrwt>
</event>
<event>
 5    1  0.3281209E-002  0.1249836E+03  0.7818608E-02  0.1235095E+00
          4   -1    0    0  501    0  0.00000000000E+00  0.00000000000E+00  0.13436063131E+04  0.13436069134E+04  0.12700000000E+01 0. -1.
         -4   -1    0    0    0  501 -0.00000000000E+00 -0.00000000000E+00 -0.27671625303E+01  0.30446819981E+01  0.12700000000E+01 0. -1.
         25    2    1    2    0    0  0.00000000000E+00  0.00000000000E+00  0.13408391506E+04  0.13466515954E+04  0.12498356473E+03 0.  0.
    9000005    1    3    3    0    0  0.61727836595E+02 -0.11579323237E+01  0.56676100678E+03  0.57011464235E+03  0.10000000000E+01 0.  0.
    9000005    1    3    3    0    0 -0.61727836595E+02  0.11579323237E+01  0.77407814384E+03  0.77653695300E+03  0.10000000000E+01 0.  0.
<mgrwt>
<rscale>  0 0.12498356E+03</rscale>
<asrwt>0</asrwt>
<pdfrwt beam="1">  1        4 0.20673014E+00 0.12498356E+03</pdfrwt>
<pdfrwt beam="2">  1       -4 0.44711095E-03 0.12498356E+03</pdfrwt>
<totfact> 0.21161056E+03</totfact>
</mgrwt>
</event>
<event>
 5    1  0.3281209E-002  0.1250009E+03  0.7818608E-02  0.1235068E+00
          4   -1    0    0  501    0  0.00000000000E+00  0.00000000000E+00  0.18240212877E+01  0.22226006520E+01  0.12700000000E+01 0. -1.
         -4   -1    0    0    0  501 -0.00000000000E+00 -0.00000000000E+00 -0.19302526169E+04  0.19302530347E+04  0.12700000000E+01 0. -1.
         25    2    1    2    0    0  0.00000000000E+00  0.00000000000E+00 -0.19284285956E+04  0.19324756354E+04  0.12500093134E+03 0.  0.
    9000005    1    3    3    0    0  0.40906059080E+02  0.98652937108E+01 -0.24993671837E+03  0.25345609655E+03  0.10000000000E+01 0.  0.
    9000005    1    3    3    0    0 -0.40906059080E+02 -0.98652937108E+01 -0.16784918773E+04  0.16790195388E+04  0.10000000000E+01 0.  0.
<mgrwt>
<rscale>  0 0.12500093E+03</rscale>
<asrwt>0</asrwt>
<pdfrwt beam="1">  1        4 0.31131229E-03 0.12500093E+03</pdfrwt>
<pdfrwt beam="2">  1       -4 0.29699116E+00 0.12500093E+03</pdfrwt>
<totfact> 0.10768347E+03</totfact>
</mgrwt>
</event>
<event>
 5    1  0.3281209E-002  0.1250015E+03  0.7818608E-02  0.1235067E+00
          4   -1    0    0  501    0  0.00000000000E+00  0.00000000000E+00  0.19630001106E+02  0.19671040731E+02  0.12700000000E+01 0. -1.
         -4   -1    0    0    0  501 -0.00000000000E+00 -0.00000000000E+00 -0.19874792406E+03  0.19875198167E+03  0.12700000000E+01 0. -1.
         25    2    1    2    0    0  0.00000000000E+00  0.00000000000E+00 -0.17911792296E+03  0.21842302241E+03  0.12500154556E+03 0.  0.
    9000005    1    3    3    0    0 -0.20081546626E+02 -0.42767893926E+02 -0.16102983600E+03  0.16782124224E+03  0.10000000000E+01 0.  0.
    9000005    1    3    3    0    0  0.20081546626E+02  0.42767893926E+02 -0.18088086956E+02  0.50601780161E+02  0.10000000000E+01 0.  0.
<mgrwt>
<rscale>  0 0.12500155E+03</rscale>
<asrwt>0</asrwt>
<pdfrwt beam="1">  1        4 0.30234693E-02 0.12500155E+03</pdfrwt>
<pdfrwt beam="2">  1       -4 0.30580071E-01 0.12500155E+03</pdfrwt>
<totfact> 0.87115495E+03</totfact>
</mgrwt>
</event>
<event>
 5    1  0.3281209E-002  0.1250035E+03  0.7818608E-02  0.1235064E+00
          4   -1    0    0  501    0  0.00000000000E+00  0.00000000000E+00  0.32320492587E+03  0.32320742102E+03  0.12700000000E+01 0. -1.
         -4   -1    0    0    0  501 -0.00000000000E+00 -0.00000000000E+00 -0.12050757995E+02  0.12117494305E+02  0.12700000000E+01 0. -1.
         25    2    1    2    0    0  0.00000000000E+00  0.00000000000E+00  0.31115416787E+03  0.33532491533E+03  0.12500353057E+03 0.  0.
    9000005    1    3    3    0    0  0.29991743706E+02  0.24679276270E+02  0.24245724958E+02  0.45797669662E+02  0.10000000000E+01 0.  0.
    9000005    1    3    3    0    0 -0.29991743706E+02 -0.24679276270E+02  0.28690844291E+03  0.28952724567E+03  0.10000000000E+01 0.  0.
<mgrwt>
<rscale>  0 0.12500353E+03</rscale>
<asrwt>0</asrwt>
<pdfrwt beam="1">  1        4 0.49729160E-01 0.12500353E+03</pdfrwt>
<pdfrwt beam="2">  1       -4 0.18592883E-02 0.12500353E+03</pdfrwt>
<totfact> 0.71364169E+03</totfact>
</mgrwt>
</event>
<event>
 5    1  0.3281209E-002  0.1250581E+03  0.7818608E-02  0.1234978E+00
         -4   -1    0    0    0  501 -0.00000000000E+00  0.00000000000E+00  0.10880419253E+03  0.10881160422E+03  0.12700000000E+01 0.  1.
          4   -1    0    0  501    0  0.00000000000E+00 -0.00000000000E+00 -0.35915183391E+02  0.35937630668E+02  0.12700000000E+01 0.  1.
         25    2    1    2    0    0  0.00000000000E+00  0.00000000000E+00  0.72889009142E+02  0.14474923489E+03  0.12505811988E+03 0.  0.
    9000005    1    3    3    0    0 -0.11235070705E+02  0.34128320082E+02  0.95666371430E+02  0.10219600612E+03  0.10000000000E+01 0.  0.
    9000005    1    3    3    0    0  0.11235070705E+02 -0.34128320082E+02 -0.22777362288E+02  0.42553228763E+02  0.10000000000E+01 0.  0.
<mgrwt>
<rscale>  0 0.12505812E+03</rscale>
<asrwt>0</asrwt>
<pdfrwt beam="2">  1        4 0.55277098E-02 0.12505812E+03</pdfrwt>
<pdfrwt beam="1">  1       -4 0.16741403E-01 0.12505812E+03</pdfrwt>
<totfact> 0.10022962E+04</totfact>
</mgrwt>
</event>
<event>
 5    1  0.3281209E-002  0.1250030E+03  0.7818608E-02  0.1235065E+00
          4   -1    0    0  501    0  0.00000000000E+00  0.00000000000E+00  0.60799876920E+01  0.62112116640E+01  0.12700000000E+01 0.  1.
         -4   -1    0    0    0  501 -0.00000000000E+00 -0.00000000000E+00 -0.63551560271E+03  0.63551687168E+03  0.12700000000E+01 0.  1.
         25    2    1    2    0    0  0.00000000000E+00  0.00000000000E+00 -0.62943561502E+03  0.64172808335E+03  0.12500295795E+03 0.  0.
    9000005    1    3    3    0    0 -0.19545292298E+02  0.74808056114E+01 -0.12419227065E+02  0.24356069152E+02  0.10000000000E+01 0.  0.
    9000005    1    3    3    0    0  0.19545292298E+02 -0.74808056114E+01 -0.61701638796E+03  0.61737201419E+03  0.10000000000E+01 0.  0.
<mgrwt>
<rscale>  0 0.12500296E+03</rscale>
<asrwt>0</asrwt>
<pdfrwt beam="1">  1        4 0.94557499E-03 0.12500296E+03</pdfrwt>
<pdfrwt beam="2">  1       -4 0.97781771E-01 0.12500296E+03</pdfrwt>
<totfact> 0.46332220E+03</totfact>
</mgrwt>
</event>
<event>
 5    1  0.3281209E-002  0.1249995E+03  0.7818608E-02  0.1235070E+00
          4   -1    0    0  501    0  0.00000000000E+00  0.00000000000E+00  0.10592493682E+03  0.10593254995E+03  0.12700000000E+01 0.  1.
         -4   -1    0    0    0  501 -0.00000000000E+00 -0.00000000000E+00 -0.36857383602E+02  0.36879257394E+02  0.12700000000E+01 0.  1.
         25    2    1    2    0    0  0.00000000000E+00  0.00000000000E+00  0.69067553216E+02  0.14281180735E+03  0.12499954164E+03 0.  0.
    9000005    1    3    3    0    0 -0.19681363232E+02  0.52478006837E+02  0.29560545120E+01  0.56134085176E+02  0.10000000000E+01 0.  0.
    9000005    1    3    3    0    0  0.19681363232E+02 -0.52478006837E+02  0.66111498704E+02  0.86677722173E+02  0.10000000000E+01 0.  0.
<mgrwt>
<rscale>  0 0.12499954E+03</rscale>
<asrwt>0</asrwt>
<pdfrwt beam="1">  1        4 0.16298413E-01 0.12499954E+03</pdfrwt>
<pdfrwt beam="2">  1       -4 0.56726348E-02 0.12499954E+03</pdfrwt>
<totfact> 0.10075742E+04</totfact>
</mgrwt>
</event>
<event>
 5    1  0.3281209E-002  0.1249911E+03  0.7818608E-02  0.1235083E+00
         -4   -1    0    0    0  501 -0.00000000000E+00  0.00000000000E+00  0.12035474904E+02  0.12102295492E+02  0.12700000000E+01 0. -1.
          4   -1    0    0  501    0  0.00000000000E+00 -0.00000000000E+00 -0.32354888045E+03  0.32355137296E+03  0.12700000000E+01 0. -1.
         25    2    1    2    0    0  0.00000000000E+00  0.00000000000E+00 -0.31151340555E+03  0.33565366845E+03  0.12499113291E+03 0.  0.
    9000005    1    3    3    0    0 -0.49192420110E+02  0.33722216217E+02 -0.10568865297E+03  0.12135968618E+03  0.10000000000E+01 0.  0.
    9000005    1    3    3    0    0  0.49192420110E+02 -0.33722216217E+02 -0.20582475258E+03  0.21429398227E+03  0.10000000000E+01 0.  0.
<mgrwt>
<rscale>  0 0.12499113E+03</rscale>
<asrwt>0</asrwt>
<pdfrwt beam="2">  1        4 0.49782076E-01 0.12499113E+03</pdfrwt>
<pdfrwt beam="1">  1       -4 0.18569435E-02 0.12499113E+03</pdfrwt>
<totfact> 0.71346222E+03</totfact>
</mgrwt>
</event>
<event>
 5    1  0.3281209E-002  0.1250001E+03  0.7818608E-02  0.1235069E+00
         -4   -1    0    0    0  501 -0.00000000000E+00  0.00000000000E+00  0.53610468153E+03  0.53610618581E+03  0.12700000000E+01 0. -1.
          4   -1    0    0  501    0  0.00000000000E+00 -0.00000000000E+00 -0.72294981739E+01  0.73402005317E+01  0.12700000000E+01 0. -1.
         25    2    1    2    0    0  0.00000000000E+00  0.00000000000E+00  0.52887518336E+03  0.54344638634E+03  0.12500006101E+03 0.  0.
    9000005    1    3    3    0    0  0.12013953507E+02 -0.56440641152E+02  0.36872241965E+03  0.37321187522E+03  0.10000000000E+01 0.  0.
    9000005    1    3    3    0    0 -0.12013953507E+02  0.56440641152E+02  0.16015276371E+03  0.17023451112E+03  0.10000000000E+01 0.  0.
<mgrwt>
<rscale>  0 0.12500006E+03</rscale>
<asrwt>0</asrwt>
<pdfrwt beam="2">  1        4 0.11208619E-02 0.12500006E+03</pdfrwt>
<pdfrwt beam="1">  1       -4 0.82486265E-01 0.12500006E+03</pdfrwt>
<totfact> 0.52644233E+03</totfact>
</mgrwt>
</event>
<event>
 5    1  0.3281209E-002  0.1249982E+03  0.7818608E-02  0.1235072E+00
         -4   -1    0    0    0  501 -0.00000000000E+00  0.00000000000E+00  0.58709237272E+03  0.58709374636E+03  0.12700000000E+01 0. -1.
          4   -1    0    0  501    0  0.00000000000E+00 -0.00000000000E+00 -0.65913588746E+01  0.67125935237E+01  0.12700000000E+01 0. -1.
         25    2    1    2    0    0  0.00000000000E+00  0.00000000000E+00  0.58050101385E+03  0.59380633988E+03  0.12499816879E+03 0.  0.
    9000005    1    3    3    0    0 -0.34074702949E+02 -0.51787621345E+02  0.25281699623E+03  0.26030842608E+03  0.10000000000E+01 0.  0.
    9000005    1    3    3    0    0  0.34074702949E+02  0.51787621345E+02  0.32768401762E+03  0.33349791380E+03  0.10000000000E+01 0.  0.
<mgrwt>
<rscale>  0 0.12499817E+03</rscale>
<asrwt>0</asrwt>
<pdfrwt beam="2">  1        4 0.10234865E-02 0.12499817E+03</pdfrwt>
<pdfrwt beam="1">  1       -4 0.90331347E-01 0.12499817E+03</pdfrwt>
<totfact> 0.49262894E+03</totfact>
</mgrwt>
</event>
<event>
 5    1  0.3281209E-002  0.1249800E+03  0.7818608E-02  0.1235101E+00
         -4   -1    0    0    0  501 -0.00000000000E+00  0.00000000000E+00  0.97515734080E+02  0.97524003677E+02  0.12700000000E+01 0.  1.
          4   -1    0    0  501    0  0.00000000000E+00 -0.00000000000E+00 -0.40024763751E+02  0.40044907458E+02  0.12700000000E+01 0.  1.
         25    2    1    2    0    0  0.00000000000E+00  0.00000000000E+00  0.57490970329E+02  0.13756891114E+03  0.12497997296E+03 0.  0.
    9000005    1    3    3    0    0  0.40032797333E+02 -0.28276445910E+01 -0.23967509808E+02  0.46755341541E+02  0.10000000000E+01 0.  0.
    9000005    1    3    3    0    0 -0.40032797333E+02  0.28276445910E+01  0.81458480137E+02  0.90813569594E+02  0.10000000000E+01 0.  0.
<mgrwt>
<rscale>  0 0.12497997E+03</rscale>
<asrwt>0</asrwt>
<pdfrwt beam="2">  1        4 0.61598416E-02 0.12497997E+03</pdfrwt>
<pdfrwt beam="1">  1       -4 0.15004606E-01 0.12497997E+03</pdfrwt>
<totfact> 0.10188804E+04</totfact>
</mgrwt>
</event>
<event>
 5    1  0.3281209E-002  0.1250014E+03  0.7818608E-02  0.1235067E+00
          4   -1    0    0  501    0  0.00000000000E+00  0.00000000000E+00  0.35680186638E+02  0.35702781664E+02  0.12700000000E+01 0. -1.
         -4   -1    0    0    0  501 -0.00000000000E+00 -0.00000000000E+00 -0.10942111240E+03  0.10942848231E+03  0.12700000000E+01 0. -1.
         25    2    1    2    0    0  0.00000000000E+00  0.00000000000E+00 -0.73740925766E+02  0.14513126397E+03  0.12500143859E+03 0.  0.
    9000005    1    3    3    0    0  0.42309819922E+02 -0.24481416182E+02  0.83336842132E+01  0.49597488774E+02  0.10000000000E+01 0.  0.
    9000005    1    3    3    0    0 -0.42309819922E+02  0.24481416182E+02 -0.82074609980E+02  0.95533775197E+02  0.10000000000E+01 0.  0.
<mgrwt>
<rscale>  0 0.12500144E+03</rscale>
<asrwt>0</asrwt>
<pdfrwt beam="1">  1        4 0.54915645E-02 0.12500144E+03</pdfrwt>
<pdfrwt beam="2">  1       -4 0.16836322E-01 0.12500144E+03</pdfrwt>
<totfact> 0.10027997E+04</totfact>
</mgrwt>
</event>
<event>
 5    1  0.3281209E-002  0.1249988E+03  0.7818608E-02  0.1235071E+00
         -4   -1    0    0    0  501 -0.00000000000E+00  0.00000000000E+00  0.10783668314E+02  0.10858195168E+02  0.12700000000E+01 0.  1.
          4   -1    0    0  501    0  0.00000000000E+00 -0.00000000000E+00 -0.36090777164E+03  0.36091000613E+03  0.12700000000E+01 0.  1.
         25    2    1    2    0    0  0.00000000000E+00  0.00000000000E+00 -0.35012410332E+03  0.37176820130E+03  0.12499883108E+03 0.  0.
    9000005    1    3    3    0    0 -0.25023680811E+02 -0.43853855911E+02 -0.65548169529E+02  0.82746044064E+02  0.10000000000E+01 0.  0.
    9000005    1    3    3    0    0  0.25023680811E+02  0.43853855911E+02 -0.28457593379E+03  0.28902215724E+03  0.10000000000E+01 0.  0.
<mgrwt>
<rscale>  0 0.12499883E+03</rscale>
<asrwt>0</asrwt>
<pdfrwt beam="2">  1        4 0.55530168E-01 0.12499883E+03</pdfrwt>
<pdfrwt beam="1">  1       -4 0.16649309E-02 0.12499883E+03</pdfrwt>
<totfact> 0.67396101E+03</totfact>
</mgrwt>
</event>
<event>
 5    1  0.3281209E-002  0.1250017E+03  0.7818608E-02  0.1235067E+00
          4   -1    0    0  501    0  0.00000000000E+00  0.00000000000E+00  0.41861612646E+02  0.41880872882E+02  0.12700000000E+01 0. -1.
         -4   -1    0    0    0  501 -0.00000000000E+00 -0.00000000000E+00 -0.93270837690E+02  0.93279483615E+02  0.12700000000E+01 0. -1.
         25    2    1    2    0    0  0.00000000000E+00  0.00000000000E+00 -0.51409225044E+02  0.13516035650E+03  0.12500165418E+03 0.  0.
    9000005    1    3    3    0    0  0.12720304628E+02  0.60315301539E+02 -0.36816541494E+02  0.71806681285E+02  0.10000000000E+01 0.  0.
    9000005    1    3    3    0    0 -0.12720304628E+02 -0.60315301539E+02 -0.14592683550E+02  0.63353675212E+02  0.10000000000E+01 0.  0.
<mgrwt>
<rscale>  0 0.12500165E+03</rscale>
<asrwt>0</asrwt>
<pdfrwt beam="1">  1        4 0.64423947E-02 0.12500165E+03</pdfrwt>
<pdfrwt beam="2">  1       -4 0.14351506E-01 0.12500165E+03</pdfrwt>
<totfact> 0.10234310E+04</totfact>
</mgrwt>
</event>
<event>
 5    1  0.3281209E-002  0.1249993E+03  0.7818608E-02  0.1235070E+00
         -4   -1    0    0    0  501 -0.00000000000E+00  0.00000000000E+00  0.12254081004E+03  0.12254739093E+03  0.12700000000E+01 0.  1.
          4   -1    0    0  501    0  0.00000000000E+00 -0.00000000000E+00 -0.31856679872E+02  0.31881984763E+02  0.12700000000E+01 0.  1.
         25    2    1    2    0    0  0.00000000000E+00  0.00000000000E+00  0.90684130165E+02  0.15442937570E+03  0.12499928245E+03 0.  0.
    9000005    1    3    3    0    0  0.49782979065E+02  0.20701073330E+02  0.63066749663E+01  0.54292297711E+02  0.10000000000E+01 0.  0.
    9000005    1    3    3    0    0 -0.49782979065E+02 -0.20701073330E+02  0.84377455199E+02  0.10013707799E+03  0.10000000000E+01 0.  0.
<mgrwt>
<rscale>  0 0.12499928E+03</rscale>
<asrwt>0</asrwt>
<pdfrwt beam="2">  1        4 0.49034805E-02 0.12499928E+03</pdfrwt>
<pdfrwt beam="1">  1       -4 0.18854885E-01 0.12499928E+03</pdfrwt>
<totfact> 0.98429225E+03</totfact>
</mgrwt>
</event>
<event>
 5    1  0.3281209E-002  0.1250007E+03  0.7818608E-02  0.1235068E+00
          4   -1    0    0  501    0  0.00000000000E+00  0.00000000000E+00  0.69404326465E+02  0.69415945085E+02  0.12700000000E+01 0.  1.
         -4   -1    0    0    0  501 -0.00000000000E+00 -0.00000000000E+00 -0.56259621263E+02  0.56273953874E+02  0.12700000000E+01 0.  1.
         25    2    1    2    0    0  0.00000000000E+00  0.00000000000E+00  0.13144705202E+02  0.12568989896E+03  0.12500066970E+03 0.  0.
    9000005    1    3    3    0    0  0.80359438503E+01  0.55643013960E+02 -0.20864920015E+02  0.59975547379E+02  0.10000000000E+01 0.  0.
    9000005    1    3    3    0    0 -0.80359438503E+01 -0.55643013960E+02  0.34009625217E+02  0.65714351580E+02  0.10000000000E+01 0.  0.
<mgrwt>
<rscale>  0 0.12500067E+03</rscale>
<asrwt>0</asrwt>
<pdfrwt beam="1">  1        4 0.10679585E-01 0.12500067E+03</pdfrwt>
<pdfrwt beam="2">  1       -4 0.86573226E-02 0.12500067E+03</pdfrwt>
<totfact> 0.10437609E+04</totfact>
</mgrwt>
</event>
<event>
 5    1  0.3281209E-002  0.1249986E+03  0.7818608E-02  0.1235071E+00
         -4   -1    0    0    0  501 -0.00000000000E+00  0.00000000000E+00  0.12240880369E+03  0.12241539168E+03  0.12700000000E+01 0.  1.
          4   -1    0    0  501    0  0.00000000000E+00 -0.00000000000E+00 -0.31890723368E+02  0.31916001267E+02  0.12700000000E+01 0.  1.
         25    2    1    2    0    0  0.00000000000E+00  0.00000000000E+00  0.90518080325E+02  0.15433139295E+03  0.12499862393E+03 0.  0.
    9000005    1    3    3    0    0  0.60298236136E+02  0.52918595863E+01  0.64437439154E+02  0.88414165289E+02  0.10000000000E+01 0.  0.
    9000005    1    3    3    0    0 -0.60298236136E+02 -0.52918595863E+01  0.26080641171E+02  0.65917227664E+02  0.10000000000E+01 0.  0.
<mgrwt>
<rscale>  0 0.12499862E+03</rscale>
<asrwt>0</asrwt>
<pdfrwt beam="2">  1        4 0.49087163E-02 0.12499862E+03</pdfrwt>
<pdfrwt beam="1">  1       -4 0.18834575E-01 0.12499862E+03</pdfrwt>
<totfact> 0.98449961E+03</totfact>
</mgrwt>
</event>
<event>
 5    1  0.3281209E-002  0.1249825E+03  0.7818608E-02  0.1235097E+00
          4   -1    0    0  501    0  0.00000000000E+00  0.00000000000E+00  0.10344305001E+04  0.10344312797E+04  0.12700000000E+01 0. -1.
         -4   -1    0    0    0  501 -0.00000000000E+00 -0.00000000000E+00 -0.36675650975E+01  0.38812283809E+01  0.12700000000E+01 0. -1.
         25    2    1    2    0    0  0.00000000000E+00  0.00000000000E+00  0.10307629350E+04  0.10383125081E+04  0.12498254389E+03 0.  0.
    9000005    1    3    3    0    0 -0.28062130455E+02 -0.28542580380E+02  0.91397578527E+03  0.91485239144E+03  0.10000000000E+01 0.  0.
    9000005    1    3    3    0    0  0.28062130455E+02  0.28542580380E+02  0.11678714972E+03  0.12346011664E+03  0.10000000000E+01 0.  0.
<mgrwt>
<rscale>  0 0.12498254E+03</rscale>
<asrwt>0</asrwt>
<pdfrwt beam="1">  1        4 0.15915954E+00 0.12498254E+03</pdfrwt>
<pdfrwt beam="2">  1       -4 0.58073679E-03 0.12498254E+03</pdfrwt>
<totfact> 0.29373725E+03</totfact>
</mgrwt>
</event>
<event>
 5    1  0.3281209E-002  0.1249983E+03  0.7818608E-02  0.1235072E+00
         -4   -1    0    0    0  501 -0.00000000000E+00  0.00000000000E+00  0.46851528951E+01  0.48542309021E+01  0.12700000000E+01 0.  1.
          4   -1    0    0  501    0  0.00000000000E+00 -0.00000000000E+00 -0.81878187829E+03  0.81878286323E+03  0.12700000000E+01 0.  1.
         25    2    1    2    0    0  0.00000000000E+00  0.00000000000E+00 -0.81409672540E+03  0.82363709413E+03  0.12499833810E+03 0.  0.
    9000005    1    3    3    0    0  0.48898654289E+02  0.94202955931E+01 -0.65581304791E+03  0.65770173648E+03  0.10000000000E+01 0.  0.
    9000005    1    3    3    0    0 -0.48898654289E+02 -0.94202955931E+01 -0.15828367749E+03  0.16593535765E+03  0.10000000000E+01 0.  0.
<mgrwt>
<rscale>  0 0.12499834E+03</rscale>
<asrwt>0</asrwt>
<pdfrwt beam="2">  1        4 0.12597941E+00 0.12499834E+03</pdfrwt>
<pdfrwt beam="1">  1       -4 0.73387517E-03 0.12499834E+03</pdfrwt>
<totfact> 0.37232418E+03</totfact>
</mgrwt>
</event>
<event>
 5    1  0.3281209E-002  0.1249984E+03  0.7818608E-02  0.1235072E+00
          4   -1    0    0  501    0  0.00000000000E+00  0.00000000000E+00  0.38929174895E+02  0.38949885212E+02  0.12700000000E+01 0. -1.
         -4   -1    0    0    0  501 -0.00000000000E+00 -0.00000000000E+00 -0.10028850034E+03  0.10029654131E+03  0.12700000000E+01 0. -1.
         25    2    1    2    0    0  0.00000000000E+00  0.00000000000E+00 -0.61359325440E+02  0.13924642653E+03  0.12499840192E+03 0.  0.
    9000005    1    3    3    0    0 -0.52817535484E+02 -0.33197008948E+02 -0.34760054357E+02  0.71421249196E+02  0.10000000000E+01 0.  0.
    9000005    1    3    3    0    0  0.52817535484E+02  0.33197008948E+02 -0.26599271083E+02  0.67825177330E+02  0.10000000000E+01 0.  0.
<mgrwt>
<rscale>  0 0.12499840E+03</rscale>
<asrwt>0</asrwt>
<pdfrwt beam="1">  1        4 0.59913155E-02 0.12499840E+03</pdfrwt>
<pdfrwt beam="2">  1       -4 0.15431212E-01 0.12499840E+03</pdfrwt>
<totfact> 0.10149593E+04</totfact>
</mgrwt>
</event>
<event>
 5    1  0.3281209E-002  0.1249996E+03  0.7818608E-02  0.1235070E+00
         -4   -1    0    0    0  501 -0.00000000000E+00  0.00000000000E+00  0.33458875575E+03  0.33459116601E+03  0.12700000000E+01 0. -1.
          4   -1    0    0  501    0  0.00000000000E+00 -0.00000000000E+00 -0.11637707243E+02  0.11706798447E+02  0.12700000000E+01 0. -1.
         25    2    1    2    0    0  0.00000000000E+00  0.00000000000E+00  0.32295104851E+03  0.34629796446E+03  0.12499960183E+03 0.  0.
    9000005    1    3    3    0    0  0.17411170212E+02 -0.49388064572E+02  0.25594937663E+03  0.26125354193E+03  0.10000000000E+01 0.  0.
    9000005    1    3    3    0    0 -0.17411170212E+02  0.49388064572E+02  0.67001671873E+02  0.85044422534E+02  0.10000000000E+01 0.  0.
<mgrwt>
<rscale>  0 0.12499960E+03</rscale>
<asrwt>0</asrwt>
<pdfrwt beam="2">  1        4 0.17959167E-02 0.12499960E+03</pdfrwt>
<pdfrwt beam="1">  1       -4 0.51480692E-01 0.12499960E+03</pdfrwt>
<totfact> 0.70134372E+03</totfact>
</mgrwt>
</event>
<event>
 5    1  0.3281209E-002  0.1249976E+03  0.7818608E-02  0.1235073E+00
          4   -1    0    0  501    0  0.00000000000E+00  0.00000000000E+00  0.15226609726E+03  0.15227139348E+03  0.12700000000E+01 0. -1.
         -4   -1    0    0    0  501 -0.00000000000E+00 -0.00000000000E+00 -0.25631651884E+02  0.25663095649E+02  0.12700000000E+01 0. -1.
         25    2    1    2    0    0  0.00000000000E+00  0.00000000000E+00  0.12663444537E+03  0.17793448913E+03  0.12499759865E+03 0.  0.
    9000005    1    3    3    0    0 -0.49080279788E+02  0.28703043272E+02  0.10022856504E+03  0.11523672942E+03  0.10000000000E+01 0.  0.
    9000005    1    3    3    0    0  0.49080279788E+02 -0.28703043272E+02  0.26405880331E+02  0.62697759714E+02  0.10000000000E+01 0.  0.
<mgrwt>
<rscale>  0 0.12499760E+03</rscale>
<asrwt>0</asrwt>
<pdfrwt beam="1">  1        4 0.23428379E-01 0.12499760E+03</pdfrwt>
<pdfrwt beam="2">  1       -4 0.39461573E-02 0.12499760E+03</pdfrwt>
<totfact> 0.93995191E+03</totfact>
</mgrwt>
</event>
<event>
 5    1  0.3281209E-002  0.1249975E+03  0.7818608E-02  0.1235073E+00
          4   -1    0    0  501    0  0.00000000000E+00  0.00000000000E+00  0.90056212717E+02  0.90065167234E+02  0.12700000000E+01 0.  1.
         -4   -1    0    0    0  501 -0.00000000000E+00 -0.00000000000E+00 -0.43353535492E+02  0.43372133216E+02  0.12700000000E+01 0.  1.
         25    2    1    2    0    0  0.00000000000E+00  0.00000000000E+00  0.46702677225E+02  0.13343730045E+03  0.12499749234E+03 0.  0.
    9000005    1    3    3    0    0 -0.50497918861E+02 -0.31849750447E+02  0.36485298582E+01  0.59822722965E+02  0.10000000000E+01 0.  0.
    9000005    1    3    3    0    0  0.50497918861E+02  0.31849750447E+02  0.43054147366E+02  0.73614577485E+02  0.10000000000E+01 0.  0.
<mgrwt>
<rscale>  0 0.12499749E+03</rscale>
<asrwt>0</asrwt>
<pdfrwt beam="1">  1        4 0.13856921E-01 0.12499749E+03</pdfrwt>
<pdfrwt beam="2">  1       -4 0.66718941E-02 0.12499749E+03</pdfrwt>
<totfact> 0.10271696E+04</totfact>
</mgrwt>
</event>
<event>
 5    1  0.3281209E-002  0.1250016E+03  0.7818608E-02  0.1235067E+00
         -4   -1    0    0    0  501 -0.00000000000E+00  0.00000000000E+00  0.12726410718E+03  0.12727044385E+03  0.12700000000E+01 0.  1.
          4   -1    0    0  501    0  0.00000000000E+00 -0.00000000000E+00 -0.30674609121E+02  0.30700888338E+02  0.12700000000E+01 0.  1.
         25    2    1    2    0    0  0.00000000000E+00  0.00000000000E+00  0.96589498060E+02  0.15797133218E+03  0.12500164262E+03 0.  0.
    9000005    1    3    3    0    0 -0.56579176048E+02 -0.10582273050E+02  0.79047496898E+02  0.97789030218E+02  0.10000000000E+01 0.  0.
    9000005    1    3    3    0    0  0.56579176048E+02  0.10582273050E+02  0.17542001162E+02  0.60182301966E+02  0.10000000000E+01 0.  0.
<mgrwt>
<rscale>  0 0.12500164E+03</rscale>
<asrwt>0</asrwt>
<pdfrwt beam="2">  1        4 0.47216796E-02 0.12500164E+03</pdfrwt>
<pdfrwt beam="1">  1       -4 0.19581602E-01 0.12500164E+03</pdfrwt>
<totfact> 0.97731718E+03</totfact>
</mgrwt>
</event>
<event>
 5    1  0.3281209E-002  0.1250435E+03  0.7818608E-02  0.1235001E+00
         -4   -1    0    0    0  501 -0.00000000000E+00  0.00000000000E+00  0.54677597202E+03  0.54677744694E+03  0.12700000000E+01 0.  1.
          4   -1    0    0  501    0  0.00000000000E+00 -0.00000000000E+00 -0.70912269266E+01  0.72040543671E+01  0.12700000000E+01 0.  1.
         25    2    1    2    0    0  0.00000000000E+00  0.00000000000E+00  0.53968474509E+03  0.55398150130E+03  0.12504351123E+03 0.  0.
    9000005    1    3    3    0    0  0.59410375714E+02  0.78913615601E+01  0.19107455355E+03  0.20025571489E+03  0.10000000000E+01 0.  0.
    9000005    1    3    3    0    0 -0.59410375714E+02 -0.78913615601E+01  0.34861019154E+03  0.35372578642E+03  0.10000000000E+01 0.  0.
<mgrwt>
<rscale>  0 0.12504351E+03</rscale>
<asrwt>0</asrwt>
<pdfrwt beam="2">  1        4 0.10997504E-02 0.12504351E+03</pdfrwt>
<pdfrwt beam="1">  1       -4 0.84128175E-01 0.12504351E+03</pdfrwt>
<totfact> 0.51857986E+03</totfact>
</mgrwt>
</event>
<event>
 5    1  0.3281209E-002  0.1249991E+03  0.7818608E-02  0.1235071E+00
         -4   -1    0    0    0  501 -0.00000000000E+00  0.00000000000E+00  0.12741446405E+02  0.12804583417E+02  0.12700000000E+01 0.  1.
          4   -1    0    0  501    0  0.00000000000E+00 -0.00000000000E+00 -0.30575181754E+03  0.30575445512E+03  0.12700000000E+01 0.  1.
         25    2    1    2    0    0  0.00000000000E+00  0.00000000000E+00 -0.29301037113E+03  0.31855903854E+03  0.12499913377E+03 0.  0.
    9000005    1    3    3    0    0 -0.61929698208E+01  0.39966305634E+02 -0.26791438641E+03  0.27095161359E+03  0.10000000000E+01 0.  0.
    9000005    1    3    3    0    0  0.61929698208E+01 -0.39966305634E+02 -0.25095984722E+02  0.47607424950E+02  0.10000000000E+01 0.  0.
<mgrwt>
<rscale>  0 0.12499913E+03</rscale>
<asrwt>0</asrwt>
<pdfrwt beam="2">  1        4 0.47043796E-01 0.12499913E+03</pdfrwt>
<pdfrwt beam="1">  1       -4 0.19652823E-02 0.12499913E+03</pdfrwt>
<totfact> 0.73329247E+03</totfact>
</mgrwt>
</event>
<event>
 5    1  0.3281209E-002  0.1250028E+03  0.7818608E-02  0.1235065E+00
         -4   -1    0    0    0  501 -0.00000000000E+00  0.00000000000E+00  0.85489276635E+02  0.85498709462E+02  0.12700000000E+01 0.  1.
          4   -1    0    0  501    0  0.00000000000E+00 -0.00000000000E+00 -0.45674118978E+02  0.45691772175E+02  0.12700000000E+01 0.  1.
         25    2    1    2    0    0  0.00000000000E+00  0.00000000000E+00  0.39815157657E+02  0.13119048164E+03  0.12500278274E+03 0.  0.
    9000005    1    3    3    0    0 -0.51057830209E+02 -0.32154181318E+02  0.36980294650E+02  0.70776659955E+02  0.10000000000E+01 0.  0.
    9000005    1    3    3    0    0  0.51057830209E+02  0.32154181318E+02  0.28348630068E+01  0.60413821682E+02  0.10000000000E+01 0.  0.
<mgrwt>
<rscale>  0 0.12500278E+03</rscale>
<asrwt>0</asrwt>
<pdfrwt beam="2">  1        4 0.70288710E-02 0.12500278E+03</pdfrwt>
<pdfrwt beam="1">  1       -4 0.13154280E-01 0.12500278E+03</pdfrwt>
<totfact> 0.10318360E+04</totfact>
</mgrwt>
</event>
<event>
 5    1  0.3281209E-002  0.1250000E+03  0.7818608E-02  0.1235069E+00
          4   -1    0    0  501    0  0.00000000000E+00  0.00000000000E+00  0.46081378713E+02  0.46098875952E+02  0.12700000000E+01 0. -1.
         -4   -1    0    0    0  501 -0.00000000000E+00 -0.00000000000E+00 -0.84730151163E+02  0.84739668492E+02  0.12700000000E+01 0. -1.
         25    2    1    2    0    0  0.00000000000E+00  0.00000000000E+00 -0.38648772450E+02  0.13083854444E+03  0.12499998840E+03 0.  0.
    9000005    1    3    3    0    0  0.30563735416E+02 -0.61592588156E+01 -0.76012814225E+02  0.82164629362E+02  0.10000000000E+01 0.  0.
    9000005    1    3    3    0    0 -0.30563735416E+02  0.61592588156E+01  0.37364041774E+02  0.48673915083E+02  0.10000000000E+01 0.  0.
<mgrwt>
<rscale>  0 0.12499999E+03</rscale>
<asrwt>0</asrwt>
<pdfrwt beam="1">  1        4 0.70915209E-02 0.12499999E+03</pdfrwt>
<pdfrwt beam="2">  1       -4 0.13037486E-01 0.12499999E+03</pdfrwt>
<totfact> 0.10326555E+04</totfact>
</mgrwt>
</event>
<event>
 5    1  0.3281209E-002  0.1249993E+03  0.7818608E-02  0.1235070E+00
         -4   -1    0    0    0  501 -0.00000000000E+00  0.00000000000E+00  0.65926177505E+02  0.65938408992E+02  0.12700000000E+01 0. -1.
          4   -1    0    0  501    0  0.00000000000E+00 -0.00000000000E+00 -0.59226678348E+02  0.59240293113E+02  0.12700000000E+01 0. -1.
         25    2    1    2    0    0  0.00000000000E+00  0.00000000000E+00  0.66994991567E+01  0.12517870211E+03  0.12499929669E+03 0.  0.
    9000005    1    3    3    0    0  0.34688326259E+02 -0.47451550625E+02  0.24599922633E+02  0.63726649284E+02  0.10000000000E+01 0.  0.
    9000005    1    3    3    0    0 -0.34688326259E+02  0.47451550625E+02 -0.17900423477E+02  0.61452052822E+02  0.10000000000E+01 0.  0.
<mgrwt>
<rscale>  0 0.12499930E+03</rscale>
<asrwt>0</asrwt>
<pdfrwt beam="2">  1        4 0.91137848E-02 0.12499930E+03</pdfrwt>
<pdfrwt beam="1">  1       -4 0.10144477E-01 0.12499930E+03</pdfrwt>
<totfact> 0.10449149E+04</totfact>
</mgrwt>
</event>
<event>
 5    1  0.3281209E-002  0.1250031E+03  0.7818608E-02  0.1235064E+00
          4   -1    0    0  501    0  0.00000000000E+00  0.00000000000E+00  0.56407650825E+02  0.56421945833E+02  0.12700000000E+01 0.  1.
         -4   -1    0    0    0  501 -0.00000000000E+00 -0.00000000000E+00 -0.69224888117E+02  0.69236536849E+02  0.12700000000E+01 0.  1.
         25    2    1    2    0    0  0.00000000000E+00  0.00000000000E+00 -0.12817237292E+02  0.12565848268E+03  0.12500309075E+03 0.  0.
    9000005    1    3    3    0    0 -0.23304536846E+02 -0.50314137376E+02 -0.35383853617E+02  0.65784731924E+02  0.10000000000E+01 0.  0.
    9000005    1    3    3    0    0  0.23304536846E+02  0.50314137376E+02  0.22566616325E+02  0.59873750758E+02  0.10000000000E+01 0.  0.
<mgrwt>
<rscale>  0 0.12500309E+03</rscale>
<asrwt>0</asrwt>
<pdfrwt beam="1">  1        4 0.86800958E-02 0.12500309E+03</pdfrwt>
<pdfrwt beam="2">  1       -4 0.10651978E-01 0.12500309E+03</pdfrwt>
<totfact> 0.10437730E+04</totfact>
</mgrwt>
</event>
<event>
 5    1  0.3281209E-002  0.1249988E+03  0.7818608E-02  0.1235071E+00
         -4   -1    0    0    0  501 -0.00000000000E+00  0.00000000000E+00  0.29118735492E+03  0.29119012443E+03  0.12700000000E+01 0.  1.
          4   -1    0    0  501    0  0.00000000000E+00 -0.00000000000E+00 -0.13381738258E+02  0.13441868129E+02  0.12700000000E+01 0.  1.
         25    2    1    2    0    0  0.00000000000E+00  0.00000000000E+00  0.27780561666E+03  0.30463199256E+03  0.12499876096E+03 0.  0.
    9000005    1    3    3    0    0 -0.55928985051E+02  0.19504736066E+02  0.18744210654E+03  0.19658084699E+03  0.10000000000E+01 0.  0.
    9000005    1    3    3    0    0  0.55928985051E+02 -0.19504736066E+02  0.90363510121E+02  0.10805114557E+03  0.10000000000E+01 0.  0.
<mgrwt>
<rscale>  0 0.12499876E+03</rscale>
<asrwt>0</asrwt>
<pdfrwt beam="2">  1        4 0.20635673E-02 0.12499876E+03</pdfrwt>
<pdfrwt beam="1">  1       -4 0.44802894E-01 0.12499876E+03</pdfrwt>
<totfact> 0.75023520E+03</totfact>
</mgrwt>
</event>
<event>
 5    1  0.3281209E-002  0.1250022E+03  0.7818608E-02  0.1235066E+00
          4   -1    0    0  501    0  0.00000000000E+00  0.00000000000E+00  0.54494014347E+02  0.54508811212E+02  0.12700000000E+01 0.  1.
         -4   -1    0    0    0  501 -0.00000000000E+00 -0.00000000000E+00 -0.71654577365E+02  0.71665831170E+02  0.12700000000E+01 0.  1.
         25    2    1    2    0    0  0.00000000000E+00  0.00000000000E+00 -0.17160563017E+02  0.12617464238E+03  0.12500222181E+03 0.  0.
    9000005    1    3    3    0    0  0.19317700911E+02 -0.25420052089E+02  0.45645427711E+02  0.55712275915E+02  0.10000000000E+01 0.  0.
    9000005    1    3    3    0    0 -0.19317700911E+02  0.25420052089E+02 -0.62805990729E+02  0.70462366467E+02  0.10000000000E+01 0.  0.
<mgrwt>
<rscale>  0 0.12500222E+03</rscale>
<asrwt>0</asrwt>
<pdfrwt beam="1">  1        4 0.83856983E-02 0.12500222E+03</pdfrwt>
<pdfrwt beam="2">  1       -4 0.11025785E-01 0.12500222E+03</pdfrwt>
<totfact> 0.10426611E+04</totfact>
</mgrwt>
</event>
<event>
 5    1  0.3281209E-002  0.1250008E+03  0.7818608E-02  0.1235068E+00
         -4   -1    0    0    0  501 -0.00000000000E+00  0.00000000000E+00  0.78252072606E+01  0.79275953902E+01  0.12700000000E+01 0.  1.
          4   -1    0    0  501    0  0.00000000000E+00 -0.00000000000E+00 -0.49584685159E+03  0.49584847799E+03  0.12700000000E+01 0.  1.
         25    2    1    2    0    0  0.00000000000E+00  0.00000000000E+00 -0.48802164433E+03  0.50377607338E+03  0.12500082713E+03 0.  0.
    9000005    1    3    3    0    0 -0.44589868232E+02 -0.20426976294E+02 -0.87933787081E+02  0.10069194913E+03  0.10000000000E+01 0.  0.
    9000005    1    3    3    0    0  0.44589868232E+02  0.20426976294E+02 -0.40008785725E+03  0.40308412425E+03  0.10000000000E+01 0.  0.
<mgrwt>
<rscale>  0 0.12500083E+03</rscale>
<asrwt>0</asrwt>
<pdfrwt beam="2">  1        4 0.76292108E-01 0.12500083E+03</pdfrwt>
<pdfrwt beam="1">  1       -4 0.12118795E-02 0.12500083E+03</pdfrwt>
<totfact> 0.55571575E+03</totfact>
</mgrwt>
</event>
<event>
 5    1  0.3281209E-002  0.1249983E+03  0.7818608E-02  0.1235072E+00
          4   -1    0    0  501    0  0.00000000000E+00  0.00000000000E+00  0.40936345105E+02  0.40956040464E+02  0.12700000000E+01 0. -1.
         -4   -1    0    0    0  501 -0.00000000000E+00 -0.00000000000E+00 -0.95373043418E+02  0.95381498786E+02  0.12700000000E+01 0. -1.
         25    2    1    2    0    0  0.00000000000E+00  0.00000000000E+00 -0.54436698313E+02  0.13633753925E+03  0.12499828193E+03 0.  0.
    9000005    1    3    3    0    0 -0.53991774317E+02  0.31083509273E+02 -0.32544612396E+02  0.70295433982E+02  0.10000000000E+01 0.  0.
    9000005    1    3    3    0    0  0.53991774317E+02 -0.31083509273E+02 -0.21892085916E+02  0.66042105269E+02  0.10000000000E+01 0.  0.
<mgrwt>
<rscale>  0 0.12499828E+03</rscale>
<asrwt>0</asrwt>
<pdfrwt beam="1">  1        4 0.63000647E-02 0.12499828E+03</pdfrwt>
<pdfrwt beam="2">  1       -4 0.14674941E-01 0.12499828E+03</pdfrwt>
<totfact> 0.10210351E+04</totfact>
</mgrwt>
</event>
<event>
 5    1  0.3281209E-002  0.1250014E+03  0.7818608E-02  0.1235067E+00
         -4   -1    0    0    0  501 -0.00000000000E+00  0.00000000000E+00  0.26505113520E+03  0.26505417780E+03  0.12700000000E+01 0.  1.
          4   -1    0    0  501    0  0.00000000000E+00 -0.00000000000E+00 -0.14707564646E+02  0.14762295140E+02  0.12700000000E+01 0.  1.
         25    2    1    2    0    0  0.00000000000E+00  0.00000000000E+00  0.25034357055E+03  0.27981647294E+03  0.12500142084E+03 0.  0.
    9000005    1    3    3    0    0 -0.35028003219E+02 -0.50946609022E+02  0.10480004649E+03  0.12168224080E+03  0.10000000000E+01 0.  0.
    9000005    1    3    3    0    0  0.35028003219E+02  0.50946609022E+02  0.14554352406E+03  0.15813423215E+03  0.10000000000E+01 0.  0.
<mgrwt>
<rscale>  0 0.12500142E+03</rscale>
<asrwt>0</asrwt>
<pdfrwt beam="2">  1        4 0.22671464E-02 0.12500142E+03</pdfrwt>
<pdfrwt beam="1">  1       -4 0.40781541E-01 0.12500142E+03</pdfrwt>
<totfact> 0.78199975E+03</totfact>
</mgrwt>
</event>
<event>
 5    1  0.3281209E-002  0.1250143E+03  0.7818608E-02  0.1235047E+00
          4   -1    0    0  501    0  0.00000000000E+00  0.00000000000E+00  0.98273298872E+01  0.99090520592E+01  0.12700000000E+01 0. -1.
         -4   -1    0    0    0  501 -0.00000000000E+00 -0.00000000000E+00 -0.39585065316E+03  0.39585269041E+03  0.12700000000E+01 0. -1.
         25    2    1    2    0    0  0.00000000000E+00  0.00000000000E+00 -0.38602332327E+03  0.40576174247E+03  0.12501434135E+03 0.  0.
    9000005    1    3    3    0    0  0.31050581006E+02 -0.53252183423E+02 -0.15956139232E+03  0.17105780174E+03  0.10000000000E+01 0.  0.
    9000005    1    3    3    0    0 -0.31050581006E+02  0.53252183423E+02 -0.22646193096E+03  0.23470394073E+03  0.10000000000E+01 0.  0.
<mgrwt>
<rscale>  0 0.12501434E+03</rscale>
<asrwt>0</asrwt>
<pdfrwt beam="1">  1        4 0.15183402E-02 0.12501434E+03</pdfrwt>
<pdfrwt beam="2">  1       -4 0.60906531E-01 0.12501434E+03</pdfrwt>
<totfact> 0.63975994E+03</totfact>
</mgrwt>
</event>
<event>
 5    1  0.3281209E-002  0.1250003E+03  0.7818608E-02  0.1235069E+00
          4   -1    0    0  501    0  0.00000000000E+00  0.00000000000E+00  0.41123808133E+02  0.41143413755E+02  0.12700000000E+01 0.  1.
         -4   -1    0    0    0  501 -0.00000000000E+00 -0.00000000000E+00 -0.94941517850E+02  0.94950011647E+02  0.12700000000E+01 0.  1.
         25    2    1    2    0    0  0.00000000000E+00  0.00000000000E+00 -0.53817709717E+02  0.13609342540E+03  0.12500029823E+03 0.  0.
    9000005    1    3    3    0    0  0.31977079435E+02  0.50494394772E+02 -0.70396013983E+01  0.60189479981E+02  0.10000000000E+01 0.  0.
    9000005    1    3    3    0    0 -0.31977079435E+02 -0.50494394772E+02 -0.46778108319E+02  0.75903945420E+02  0.10000000000E+01 0.  0.
<mgrwt>
<rscale>  0 0.12500030E+03</rscale>
<asrwt>0</asrwt>
<pdfrwt beam="1">  1        4 0.63289012E-02 0.12500030E+03</pdfrwt>
<pdfrwt beam="2">  1       -4 0.14608549E-01 0.12500030E+03</pdfrwt>
<totfact> 0.10215007E+04</totfact>
</mgrwt>
</event>
<event>
 5    1  0.3281209E-002  0.1249971E+03  0.7818608E-02  0.1235074E+00
          4   -1    0    0  501    0  0.00000000000E+00  0.00000000000E+00  0.21099466735E+02  0.21137653524E+02  0.12700000000E+01 0.  1.
         -4   -1    0    0    0  501 -0.00000000000E+00 -0.00000000000E+00 -0.18491860622E+03  0.18492296727E+03  0.12700000000E+01 0.  1.
         25    2    1    2    0    0  0.00000000000E+00  0.00000000000E+00 -0.16381913948E+03  0.20606062080E+03  0.12499707590E+03 0.  0.
    9000005    1    3    3    0    0 -0.40349392860E+01  0.40055318784E+02 -0.31184579387E+01  0.40391014815E+02  0.10000000000E+01 0.  0.
    9000005    1    3    3    0    0  0.40349392860E+01 -0.40055318784E+02 -0.16070068154E+03  0.16566960598E+03  0.10000000000E+01 0.  0.
<mgrwt>
<rscale>  0 0.12499708E+03</rscale>
<asrwt>0</asrwt>
<pdfrwt beam="1">  1        4 0.32493448E-02 0.12499708E+03</pdfrwt>
<pdfrwt beam="2">  1       -4 0.28452288E-01 0.12499708E+03</pdfrwt>
<totfact> 0.89129131E+03</totfact>
</mgrwt>
</event>
<event>
 5    1  0.3281209E-002  0.1250060E+03  0.7818608E-02  0.1235060E+00
          4   -1    0    0  501    0  0.00000000000E+00  0.00000000000E+00  0.41595120872E+02  0.41614504447E+02  0.12700000000E+01 0.  1.
         -4   -1    0    0    0  501 -0.00000000000E+00 -0.00000000000E+00 -0.93874657891E+02  0.93883248208E+02  0.12700000000E+01 0.  1.
         25    2    1    2    0    0  0.00000000000E+00  0.00000000000E+00 -0.52279537019E+02  0.13549775266E+03  0.12500596379E+03 0.  0.
    9000005    1    3    3    0    0 -0.55656449185E+02  0.24018771501E+02 -0.42616971896E+02  0.74106329108E+02  0.10000000000E+01 0.  0.
    9000005    1    3    3    0    0  0.55656449185E+02 -0.24018771501E+02 -0.96625651227E+01  0.61391423547E+02  0.10000000000E+01 0.  0.
<mgrwt>
<rscale>  0 0.12500596E+03</rscale>
<asrwt>0</asrwt>
<pdfrwt beam="1">  1        4 0.64014012E-02 0.12500596E+03</pdfrwt>
<pdfrwt beam="2">  1       -4 0.14444407E-01 0.12500596E+03</pdfrwt>
<totfact> 0.10226215E+04</totfact>
</mgrwt>
</event>
<event>
 5    1  0.3281209E-002  0.1249971E+03  0.7818608E-02  0.1235074E+00
          4   -1    0    0  501    0  0.00000000000E+00  0.00000000000E+00  0.86369280644E+01  0.87298010510E+01  0.12700000000E+01 0.  1.
         -4   -1    0    0    0  501 -0.00000000000E+00 -0.00000000000E+00 -0.44973942566E+03  0.44974121881E+03  0.12700000000E+01 0.  1.
         25    2    1    2    0    0  0.00000000000E+00  0.00000000000E+00 -0.44110249760E+03  0.45847101986E+03  0.12499705062E+03 0.  0.
    9000005    1    3    3    0    0 -0.67628571398E+01  0.11649140000E+01  0.72686642109E+01  0.10046230175E+02  0.10000000000E+01 0.  0.
    9000005    1    3    3    0    0  0.67628571398E+01 -0.11649140000E+01 -0.44837116181E+03  0.44842478968E+03  0.10000000000E+01 0.  0.
<mgrwt>
<rscale>  0 0.12499705E+03</rscale>
<asrwt>0</asrwt>
<pdfrwt beam="1">  1        4 0.13360405E-02 0.12499705E+03</pdfrwt>
<pdfrwt beam="2">  1       -4 0.69197945E-01 0.12499705E+03</pdfrwt>
<totfact> 0.59240768E+03</totfact>
</mgrwt>
</event>
<event>
 5    1  0.3281209E-002  0.1249990E+03  0.7818608E-02  0.1235071E+00
          4   -1    0    0  501    0  0.00000000000E+00  0.00000000000E+00  0.12147196956E+03  0.12147860836E+03  0.12700000000E+01 0.  1.
         -4   -1    0    0    0  501 -0.00000000000E+00 -0.00000000000E+00 -0.32137061906E+02  0.32162146196E+02  0.12700000000E+01 0.  1.
         25    2    1    2    0    0  0.00000000000E+00  0.00000000000E+00  0.89334907654E+02  0.15364075456E+03  0.12499902294E+03 0.  0.
    9000005    1    3    3    0    0 -0.25458874691E+02 -0.65218159646E+01  0.11435522349E+03  0.11734055361E+03  0.10000000000E+01 0.  0.
    9000005    1    3    3    0    0  0.25458874691E+02  0.65218159646E+01 -0.25020315832E+02  0.36300200941E+02  0.10000000000E+01 0.  0.
<mgrwt>
<rscale>  0 0.12499902E+03</rscale>
<asrwt>0</asrwt>
<pdfrwt beam="1">  1        4 0.18690436E-01 0.12499902E+03</pdfrwt>
<pdfrwt beam="2">  1       -4 0.49466036E-02 0.12499902E+03</pdfrwt>
<totfact> 0.98585023E+03</totfact>
</mgrwt>
</event>
<event>
 5    1  0.3281209E-002  0.1250061E+03  0.7818608E-02  0.1235060E+00
          4   -1    0    0  501    0  0.00000000000E+00  0.00000000000E+00  0.17680388216E+02  0.17725942217E+02  0.12700000000E+01 0.  1.
         -4   -1    0    0    0  501 -0.00000000000E+00 -0.00000000000E+00 -0.22062679933E+03  0.22063045457E+03  0.12700000000E+01 0.  1.
         25    2    1    2    0    0  0.00000000000E+00  0.00000000000E+00 -0.20294641111E+03  0.23835639678E+03  0.12500610427E+03 0.  0.
    9000005    1    3    3    0    0 -0.44061374785E+02 -0.28428972791E+02 -0.36642862762E+02  0.63978985873E+02  0.10000000000E+01 0.  0.
    9000005    1    3    3    0    0  0.44061374785E+02  0.28428972791E+02 -0.16630354835E+03  0.17437741091E+03  0.10000000000E+01 0.  0.
<mgrwt>
<rscale>  0 0.12500610E+03</rscale>
<asrwt>0</asrwt>
<pdfrwt beam="1">  1        4 0.27238452E-02 0.12500610E+03</pdfrwt>
<pdfrwt beam="2">  1       -4 0.33946368E-01 0.12500610E+03</pdfrwt>
<totfact> 0.84031327E+03</totfact>
</mgrwt>
</event>
<event>
 5    1  0.3281209E-002  0.1250004E+03  0.7818608E-02  0.1235069E+00
         -4   -1    0    0    0  501 -0.00000000000E+00  0.00000000000E+00  0.43138372443E+02  0.43157062887E+02  0.12700000000E+01 0.  1.
          4   -1    0    0  501    0  0.00000000000E+00 -0.00000000000E+00 -0.90509403512E+02  0.90518313197E+02  0.12700000000E+01 0.  1.
         25    2    1    2    0    0  0.00000000000E+00  0.00000000000E+00 -0.47371031069E+02  0.13367537608E+03  0.12500036635E+03 0.  0.
    9000005    1    3    3    0    0 -0.11213257026E+02  0.36888084679E+02  0.28909011639E+02  0.48199573426E+02  0.10000000000E+01 0.  0.
    9000005    1    3    3    0    0  0.11213257026E+02 -0.36888084679E+02 -0.76280042708E+02  0.85475802658E+02  0.10000000000E+01 0.  0.
<mgrwt>
<rscale>  0 0.12500037E+03</rscale>
<asrwt>0</asrwt>
<pdfrwt beam="2">  1        4 0.13926647E-01 0.12500037E+03</pdfrwt>
<pdfrwt beam="1">  1       -4 0.66387958E-02 0.12500037E+03</pdfrwt>
<totfact> 0.10265982E+04</totfact>
</mgrwt>
</event>
<event>
 5    1  0.3281209E-002  0.1250014E+03  0.7818608E-02  0.1235067E+00
          4   -1    0    0  501    0  0.00000000000E+00  0.00000000000E+00  0.86280957302E+01  0.87210627752E+01  0.12700000000E+01 0. -1.
         -4   -1    0    0    0  501 -0.00000000000E+00 -0.00000000000E+00 -0.45022657468E+03  0.45022836588E+03  0.12700000000E+01 0. -1.
         25    2    1    2    0    0  0.00000000000E+00  0.00000000000E+00 -0.44159847895E+03  0.45894942866E+03  0.12500144582E+03 0.  0.
    9000005    1    3    3    0    0 -0.51643845135E+02 -0.57502558322E+01 -0.93338266475E+02  0.10683250522E+03  0.10000000000E+01 0.  0.
    9000005    1    3    3    0    0  0.51643845135E+02  0.57502558322E+01 -0.34826021247E+03  0.35211692344E+03  0.10000000000E+01 0.  0.
<mgrwt>
<rscale>  0 0.12500145E+03</rscale>
<asrwt>0</asrwt>
<pdfrwt beam="1">  1        4 0.13346888E-02 0.12500145E+03</pdfrwt>
<pdfrwt beam="2">  1       -4 0.69272898E-01 0.12500145E+03</pdfrwt>
<totfact> 0.59194396E+03</totfact>
</mgrwt>
</event>
<event>
 5    1  0.3281209E-002  0.1249955E+03  0.7818608E-02  0.1235076E+00
          4   -1    0    0  501    0  0.00000000000E+00  0.00000000000E+00  0.75654075703E+01  0.76712640226E+01  0.12700000000E+01 0.  1.
         -4   -1    0    0    0  501 -0.00000000000E+00 -0.00000000000E+00 -0.51259963326E+03  0.51260120652E+03  0.12700000000E+01 0.  1.
         25    2    1    2    0    0  0.00000000000E+00  0.00000000000E+00 -0.50503422569E+03  0.52027247054E+03  0.12499549784E+03 0.  0.
    9000005    1    3    3    0    0 -0.34097931795E+02  0.41229013243E+02 -0.38690739634E+03  0.39059036576E+03  0.10000000000E+01 0.  0.
    9000005    1    3    3    0    0  0.34097931795E+02 -0.41229013243E+02 -0.11812682936E+03  0.12968210478E+03  0.10000000000E+01 0.  0.
<mgrwt>
<rscale>  0 0.12499550E+03</rscale>
<asrwt>0</asrwt>
<pdfrwt beam="1">  1        4 0.11721731E-02 0.12499550E+03</pdfrwt>
<pdfrwt beam="2">  1       -4 0.78869719E-01 0.12499550E+03</pdfrwt>
<totfact> 0.54330465E+03</totfact>
</mgrwt>
</event>
<event>
 5    1  0.3281209E-002  0.1250019E+03  0.7818608E-02  0.1235066E+00
          4   -1    0    0  501    0  0.00000000000E+00  0.00000000000E+00  0.15101593057E+03  0.15102127064E+03  0.12700000000E+01 0. -1.
         -4   -1    0    0    0  501 -0.00000000000E+00 -0.00000000000E+00 -0.25845863762E+02  0.25877047235E+02  0.12700000000E+01 0. -1.
         25    2    1    2    0    0  0.00000000000E+00  0.00000000000E+00  0.12517006681E+03  0.17689831787E+03  0.12500187695E+03 0.  0.
    9000005    1    3    3    0    0  0.11676817333E+02 -0.61130031196E+02  0.54562339986E+02  0.82772445426E+02  0.10000000000E+01 0.  0.
    9000005    1    3    3    0    0 -0.11676817333E+02  0.61130031196E+02  0.70607726820E+02  0.94125872446E+02  0.10000000000E+01 0.  0.
<mgrwt>
<rscale>  0 0.12500188E+03</rscale>
<asrwt>0</asrwt>
<pdfrwt beam="1">  1        4 0.23236030E-01 0.12500188E+03</pdfrwt>
<pdfrwt beam="2">  1       -4 0.39790962E-02 0.12500188E+03</pdfrwt>
<totfact> 0.94174349E+03</totfact>
</mgrwt>
</event>
<event>
 5    1  0.3281209E-002  0.1250014E+03  0.7818608E-02  0.1235067E+00
         -4   -1    0    0    0  501 -0.00000000000E+00  0.00000000000E+00  0.28001021065E+03  0.28001309071E+03  0.12700000000E+01 0.  1.
          4   -1    0    0  501    0  0.00000000000E+00 -0.00000000000E+00 -0.13918838001E+02  0.13976657372E+02  0.12700000000E+01 0.  1.
         25    2    1    2    0    0  0.00000000000E+00  0.00000000000E+00  0.26609137265E+03  0.29398974808E+03  0.12500141351E+03 0.  0.
    9000005    1    3    3    0    0  0.48892831325E+02  0.33592501213E+02  0.17927535583E+03  0.18883754473E+03  0.10000000000E+01 0.  0.
    9000005    1    3    3    0    0 -0.48892831325E+02 -0.33592501213E+02  0.86816016818E+02  0.10515220335E+03  0.10000000000E+01 0.  0.
<mgrwt>
<rscale>  0 0.12500141E+03</rscale>
<asrwt>0</asrwt>
<pdfrwt beam="2">  1        4 0.21460292E-02 0.12500141E+03</pdfrwt>
<pdfrwt beam="1">  1       -4 0.43083157E-01 0.12500141E+03</pdfrwt>
<totfact> 0.76356598E+03</totfact>
</mgrwt>
</event>
<event>
 5    1  0.3281209E-002  0.1250020E+03  0.7818608E-02  0.1235066E+00
         -4   -1    0    0    0  501 -0.00000000000E+00  0.00000000000E+00  0.27765815945E+02  0.27794845477E+02  0.12700000000E+01 0. -1.
          4   -1    0    0  501    0  0.00000000000E+00 -0.00000000000E+00 -0.14058475804E+03  0.14059049432E+03  0.12700000000E+01 0. -1.
         25    2    1    2    0    0  0.00000000000E+00  0.00000000000E+00 -0.11281894209E+03  0.16838533980E+03  0.12500203584E+03 0.  0.
    9000005    1    3    3    0    0  0.11292505977E+02 -0.23141787741E+02  0.20293951229E+02  0.32801028758E+02  0.10000000000E+01 0.  0.
    9000005    1    3    3    0    0 -0.11292505977E+02  0.23141787741E+02 -0.13311289332E+03  0.13558431104E+03  0.10000000000E+01 0.  0.
<mgrwt>
<rscale>  0 0.12500204E+03</rscale>
<asrwt>0</asrwt>
<pdfrwt beam="2">  1        4 0.21631098E-01 0.12500204E+03</pdfrwt>
<pdfrwt beam="1">  1       -4 0.42743384E-02 0.12500204E+03</pdfrwt>
<totfact> 0.95745699E+03</totfact>
</mgrwt>
</event>
<event>
 5    1  0.3281209E-002  0.1250038E+03  0.7818608E-02  0.1235063E+00
          4   -1    0    0  501    0  0.00000000000E+00  0.00000000000E+00  0.60441012901E+02  0.60454354189E+02  0.12700000000E+01 0. -1.
         -4   -1    0    0    0  501 -0.00000000000E+00 -0.00000000000E+00 -0.64606371288E+02  0.64618852597E+02  0.12700000000E+01 0. -1.
         25    2    1    2    0    0  0.00000000000E+00  0.00000000000E+00 -0.41653583869E+01  0.12507320679E+03  0.12500382732E+03 0.  0.
    9000005    1    3    3    0    0 -0.51774934035E+02  0.34936129157E+02 -0.41604387238E+01  0.62605799773E+02  0.10000000000E+01 0.  0.
    9000005    1    3    3    0    0  0.51774934035E+02 -0.34936129157E+02 -0.49196631336E-02  0.62467407014E+02  0.10000000000E+01 0.  0.
<mgrwt>
<rscale>  0 0.12500383E+03</rscale>
<asrwt>0</asrwt>
<pdfrwt beam="1">  1        4 0.93006036E-02 0.12500383E+03</pdfrwt>
<pdfrwt beam="2">  1       -4 0.99414282E-02 0.12500383E+03</pdfrwt>
<totfact> 0.10450369E+04</totfact>
</mgrwt>
</event>
<event>
 5    1  0.3281209E-002  0.1250012E+03  0.7818608E-02  0.1235067E+00
         -4   -1    0    0    0  501 -0.00000000000E+00  0.00000000000E+00  0.63148560099E+01  0.64412969521E+01  0.12700000000E+01 0.  1.
          4   -1    0    0  501    0  0.00000000000E+00 -0.00000000000E+00 -0.61233454617E+03  0.61233586318E+03  0.12700000000E+01 0.  1.
         25    2    1    2    0    0  0.00000000000E+00  0.00000000000E+00 -0.60601969016E+03  0.61877716013E+03  0.12500123614E+03 0.  0.
    9000005    1    3    3    0    0 -0.55421273353E+02 -0.24126630523E+02 -0.22447274224E+03  0.23247069460E+03  0.10000000000E+01 0.  0.
    9000005    1    3    3    0    0  0.55421273353E+02  0.24126630523E+02 -0.38154694792E+03  0.38630646553E+03  0.10000000000E+01 0.  0.
<mgrwt>
<rscale>  0 0.12500124E+03</rscale>
<asrwt>0</asrwt>
<pdfrwt beam="2">  1        4 0.94215096E-01 0.12500124E+03</pdfrwt>
<pdfrwt beam="1">  1       -4 0.98134433E-03 0.12500124E+03</pdfrwt>
<totfact> 0.47702120E+03</totfact>
</mgrwt>
</event>
<event>
 5    1  0.3281209E-002  0.1249993E+03  0.7818608E-02  0.1235070E+00
         -4   -1    0    0    0  501 -0.00000000000E+00  0.00000000000E+00  0.19077376789E+03  0.19077799510E+03  0.12700000000E+01 0. -1.
          4   -1    0    0  501    0  0.00000000000E+00 -0.00000000000E+00 -0.20451456092E+02  0.20490850551E+02  0.12700000000E+01 0. -1.
         25    2    1    2    0    0  0.00000000000E+00  0.00000000000E+00  0.17032231180E+03  0.21126884565E+03  0.12499934099E+03 0.  0.
    9000005    1    3    3    0    0  0.50369330068E+02  0.12866039683E+02  0.14377350592E+03  0.15288696934E+03  0.10000000000E+01 0.  0.
    9000005    1    3    3    0    0 -0.50369330068E+02 -0.12866039683E+02  0.26548805878E+02  0.58381876316E+02  0.10000000000E+01 0.  0.
<mgrwt>
<rscale>  0 0.12499934E+03</rscale>
<asrwt>0</asrwt>
<pdfrwt beam="2">  1        4 0.31497333E-02 0.12499934E+03</pdfrwt>
<pdfrwt beam="1">  1       -4 0.29353167E-01 0.12499934E+03</pdfrwt>
<totfact> 0.88270379E+03</totfact>
</mgrwt>
</event>
<event>
 5    1  0.3281209E-002  0.1249984E+03  0.7818608E-02  0.1235072E+00
         -4   -1    0    0    0  501 -0.00000000000E+00  0.00000000000E+00  0.20719874590E+03  0.20720263802E+03  0.12700000000E+01 0.  1.
          4   -1    0    0  501    0  0.00000000000E+00 -0.00000000000E+00 -0.18826711947E+02  0.18869498741E+02  0.12700000000E+01 0.  1.
         25    2    1    2    0    0  0.00000000000E+00  0.00000000000E+00  0.18837203395E+03  0.22607213676E+03  0.12499835136E+03 0.  0.
    9000005    1    3    3    0    0 -0.12730809848E+02 -0.20761172652E+02  0.19827170315E+03  0.19976428129E+03  0.10000000000E+01 0.  0.
    9000005    1    3    3    0    0  0.12730809848E+02  0.20761172652E+02 -0.98996691973E+01  0.26307855471E+02  0.10000000000E+01 0.  0.
<mgrwt>
<rscale>  0 0.12499835E+03</rscale>
<asrwt>0</asrwt>
<pdfrwt beam="2">  1        4 0.29000078E-02 0.12499835E+03</pdfrwt>
<pdfrwt beam="1">  1       -4 0.31880322E-01 0.12499835E+03</pdfrwt>
<totfact> 0.85919556E+03</totfact>
</mgrwt>
</event>
<event>
 5    1  0.3281209E-002  0.1250438E+03  0.7818608E-02  0.1235001E+00
         -4   -1    0    0    0  501 -0.00000000000E+00  0.00000000000E+00  0.32984141916E+03  0.32984386412E+03  0.12700000000E+01 0.  1.
          4   -1    0    0  501    0  0.00000000000E+00 -0.00000000000E+00 -0.11814585647E+02  0.11882648443E+02  0.12700000000E+01 0.  1.
         25    2    1    2    0    0  0.00000000000E+00  0.00000000000E+00  0.31802683351E+03  0.34172651256E+03  0.12504376254E+03 0.  0.
    9000005    1    3    3    0    0  0.39178625894E+02 -0.20757980683E+02  0.38577653019E+02  0.58780045946E+02  0.10000000000E+01 0.  0.
    9000005    1    3    3    0    0 -0.39178625894E+02  0.20757980683E+02  0.27944918050E+03  0.28294646661E+03  0.10000000000E+01 0.  0.
<mgrwt>
<rscale>  0 0.12504376E+03</rscale>
<asrwt>0</asrwt>
<pdfrwt beam="2">  1        4 0.18230524E-02 0.12504376E+03</pdfrwt>
<pdfrwt beam="1">  1       -4 0.50750251E-01 0.12504376E+03</pdfrwt>
<totfact> 0.70576032E+03</totfact>
</mgrwt>
</event>
<event>
 5    1  0.3281209E-002  0.1250002E+03  0.7818608E-02  0.1235069E+00
          4   -1    0    0  501    0  0.00000000000E+00  0.00000000000E+00  0.10451493226E+02  0.10528371700E+02  0.12700000000E+01 0. -1.
         -4   -1    0    0    0  501 -0.00000000000E+00 -0.00000000000E+00 -0.37230378275E+03  0.37230594885E+03  0.12700000000E+01 0. -1.
         25    2    1    2    0    0  0.00000000000E+00  0.00000000000E+00 -0.36185228952E+03  0.38283432055E+03  0.12500015023E+03 0.  0.
    9000005    1    3    3    0    0 -0.51108107747E+02 -0.14428360546E+02 -0.80041787994E+02  0.96061980464E+02  0.10000000000E+01 0.  0.
    9000005    1    3    3    0    0  0.51108107747E+02  0.14428360546E+02 -0.28181050153E+03  0.28677234008E+03  0.10000000000E+01 0.  0.
<mgrwt>
<rscale>  0 0.12500015E+03</rscale>
<asrwt>0</asrwt>
<pdfrwt beam="1">  1        4 0.16140027E-02 0.12500015E+03</pdfrwt>
<pdfrwt beam="2">  1       -4 0.57283575E-01 0.12500015E+03</pdfrwt>
<totfact> 0.66257044E+03</totfact>
</mgrwt>
</event>
<event>
 5    1  0.3281209E-002  0.1250088E+03  0.7818608E-02  0.1235056E+00
          4   -1    0    0  501    0  0.00000000000E+00  0.00000000000E+00  0.56328880697E+03  0.56329023865E+03  0.12700000000E+01 0. -1.
         -4   -1    0    0    0  501 -0.00000000000E+00 -0.00000000000E+00 -0.68761010771E+01  0.69924005909E+01  0.12700000000E+01 0. -1.
         25    2    1    2    0    0  0.00000000000E+00  0.00000000000E+00  0.55641270589E+03  0.57028263924E+03  0.12500875705E+03 0.  0.
    9000005    1    3    3    0    0  0.10091323924E+02 -0.39884857555E+02  0.63593274539E+02  0.75747879490E+02  0.10000000000E+01 0.  0.
    9000005    1    3    3    0    0 -0.10091323924E+02  0.39884857555E+02  0.49281943135E+03  0.49453475975E+03  0.10000000000E+01 0.  0.
<mgrwt>
<rscale>  0 0.12500876E+03</rscale>
<asrwt>0</asrwt>
<pdfrwt beam="1">  1        4 0.86668878E-01 0.12500876E+03</pdfrwt>
<pdfrwt beam="2">  1       -4 0.10669179E-02 0.12500876E+03</pdfrwt>
<totfact> 0.50789080E+03</totfact>
</mgrwt>
</event>
<event>
 5    1  0.3281209E-002  0.1249994E+03  0.7818608E-02  0.1235070E+00
          4   -1    0    0  501    0  0.00000000000E+00  0.00000000000E+00  0.47496716244E+03  0.47496886035E+03  0.12700000000E+01 0.  1.
         -4   -1    0    0    0  501 -0.00000000000E+00 -0.00000000000E+00 -0.81734230374E+01  0.82715019282E+01  0.12700000000E+01 0.  1.
         25    2    1    2    0    0  0.00000000000E+00  0.00000000000E+00  0.46679373941E+03  0.48324036227E+03  0.12499941033E+03 0.  0.
    9000005    1    3    3    0    0  0.52174091896E+02  0.16833851496E+01  0.36621000976E+03  0.36991315318E+03  0.10000000000E+01 0.  0.
    9000005    1    3    3    0    0 -0.52174091896E+02 -0.16833851496E+01  0.10058372965E+03  0.11332720909E+03  0.10000000000E+01 0.  0.
<mgrwt>
<rscale>  0 0.12499941E+03</rscale>
<asrwt>0</asrwt>
<pdfrwt beam="1">  1        4 0.73079555E-01 0.12499941E+03</pdfrwt>
<pdfrwt beam="2">  1       -4 0.12651247E-02 0.12499941E+03</pdfrwt>
<totfact> 0.57189302E+03</totfact>
</mgrwt>
</event>
<event>
 5    1  0.3281209E-002  0.1250007E+03  0.7818608E-02  0.1235068E+00
          4   -1    0    0  501    0  0.00000000000E+00  0.00000000000E+00  0.10302942117E+03  0.10303724825E+03  0.12700000000E+01 0.  1.
         -4   -1    0    0    0  501 -0.00000000000E+00 -0.00000000000E+00 -0.37894451076E+02  0.37915726583E+02  0.12700000000E+01 0.  1.
         25    2    1    2    0    0  0.00000000000E+00  0.00000000000E+00  0.65134970098E+02  0.14095297484E+03  0.12500070714E+03 0.  0.
    9000005    1    3    3    0    0  0.20556006150E+01  0.59023429297E+02  0.55602462320E+02  0.81121048538E+02  0.10000000000E+01 0.  0.
    9000005    1    3    3    0    0 -0.20556006150E+01 -0.59023429297E+02  0.95325077778E+01  0.59831926297E+02  0.10000000000E+01 0.  0.
<mgrwt>
<rscale>  0 0.12500071E+03</rscale>
<asrwt>0</asrwt>
<pdfrwt beam="1">  1        4 0.15852919E-01 0.12500071E+03</pdfrwt>
<pdfrwt beam="2">  1       -4 0.58321543E-02 0.12500071E+03</pdfrwt>
<totfact> 0.10113712E+04</totfact>
</mgrwt>
</event>
<event>
 5    1  0.3281209E-002  0.1250011E+03  0.7818608E-02  0.1235068E+00
         -4   -1    0    0    0  501 -0.00000000000E+00  0.00000000000E+00  0.51168795690E+03  0.51168953296E+03  0.12700000000E+01 0.  1.
          4   -1    0    0  501    0  0.00000000000E+00 -0.00000000000E+00 -0.75797629658E+01  0.76854216942E+01  0.12700000000E+01 0.  1.
         25    2    1    2    0    0  0.00000000000E+00  0.00000000000E+00  0.50410819394E+03  0.51937495465E+03  0.12500108930E+03 0.  0.
    9000005    1    3    3    0    0  0.40423596228E+02  0.37518583824E+02  0.37415678832E+03  0.37820102262E+03  0.10000000000E+01 0.  0.
    9000005    1    3    3    0    0 -0.40423596228E+02 -0.37518583824E+02  0.12995140562E+03  0.14117393204E+03  0.10000000000E+01 0.  0.
<mgrwt>
<rscale>  0 0.12500109E+03</rscale>
<asrwt>0</asrwt>
<pdfrwt beam="2">  1        4 0.11743663E-02 0.12500109E+03</pdfrwt>
<pdfrwt beam="1">  1       -4 0.78729465E-01 0.12500109E+03</pdfrwt>
<totfact> 0.54390533E+03</totfact>
</mgrwt>
</event>
<event>
 5    1  0.3281209E-002  0.1250022E+03  0.7818608E-02  0.1235066E+00
          4   -1    0    0  501    0  0.00000000000E+00  0.00000000000E+00  0.50720893223E+01  0.52286700119E+01  0.12700000000E+01 0. -1.
         -4   -1    0    0    0  501 -0.00000000000E+00 -0.00000000000E+00 -0.75830921343E+03  0.75831027691E+03  0.12700000000E+01 0. -1.
         25    2    1    2    0    0  0.00000000000E+00  0.00000000000E+00 -0.75323712411E+03  0.76353894693E+03  0.12500223333E+03 0.  0.
    9000005    1    3    3    0    0 -0.23107737849E+02  0.29866593766E+02 -0.68076831992E+03  0.68181558091E+03  0.10000000000E+01 0.  0.
    9000005    1    3    3    0    0  0.23107737849E+02 -0.29866593766E+02 -0.72468804187E+02  0.81723366010E+02  0.10000000000E+01 0.  0.
<mgrwt>
<rscale>  0 0.12500223E+03</rscale>
<asrwt>0</asrwt>
<pdfrwt beam="1">  1        4 0.79244851E-03 0.12500223E+03</pdfrwt>
<pdfrwt beam="2">  1       -4 0.11667499E+00 0.12500223E+03</pdfrwt>
<totfact> 0.39932868E+03</totfact>
</mgrwt>
</event>
<event>
 5    1  0.3281209E-002  0.1250007E+03  0.7818608E-02  0.1235068E+00
         -4   -1    0    0    0  501 -0.00000000000E+00  0.00000000000E+00  0.29406135610E+02  0.29433547382E+02  0.12700000000E+01 0.  1.
          4   -1    0    0  501    0  0.00000000000E+00 -0.00000000000E+00 -0.13274711939E+03  0.13275319434E+03  0.12700000000E+01 0.  1.
         25    2    1    2    0    0  0.00000000000E+00  0.00000000000E+00 -0.10334098378E+03  0.16218674172E+03  0.12500072104E+03 0.  0.
    9000005    1    3    3    0    0 -0.28326318089E+02  0.53664257149E+02 -0.71048801611E+02  0.93440703134E+02  0.10000000000E+01 0.  0.
    9000005    1    3    3    0    0  0.28326318089E+02 -0.53664257149E+02 -0.32292182171E+02  0.68746038586E+02  0.10000000000E+01 0.  0.
<mgrwt>
<rscale>  0 0.12500072E+03</rscale>
<asrwt>0</asrwt>
<pdfrwt beam="2">  1        4 0.20425209E-01 0.12500072E+03</pdfrwt>
<pdfrwt beam="1">  1       -4 0.45265969E-02 0.12500072E+03</pdfrwt>
<totfact> 0.96921277E+03</totfact>
</mgrwt>
</event>
<event>
 5    1  0.3281209E-002  0.1250146E+03  0.7818608E-02  0.1235046E+00
          4   -1    0    0  501    0  0.00000000000E+00  0.00000000000E+00  0.90804604706E+02  0.90813485429E+02  0.12700000000E+01 0.  1.
         -4   -1    0    0    0  501 -0.00000000000E+00 -0.00000000000E+00 -0.43007906910E+02  0.43026654027E+02  0.12700000000E+01 0.  1.
         25    2    1    2    0    0  0.00000000000E+00  0.00000000000E+00  0.47796697797E+02  0.13384013946E+03  0.12501463358E+03 0.  0.
    9000005    1    3    3    0    0 -0.30949478830E+02 -0.35052489477E+02  0.68294103570E+02  0.82774584511E+02  0.10000000000E+01 0.  0.
    9000005    1    3    3    0    0  0.30949478830E+02  0.35052489477E+02 -0.20497405774E+02  0.51065554946E+02  0.10000000000E+01 0.  0.
<mgrwt>
<rscale>  0 0.12501463E+03</rscale>
<asrwt>0</asrwt>
<pdfrwt beam="1">  1        4 0.13972064E-01 0.12501463E+03</pdfrwt>
<pdfrwt beam="2">  1       -4 0.66187264E-02 0.12501463E+03</pdfrwt>
<totfact> 0.10259189E+04</totfact>
</mgrwt>
</event>
<event>
 5    1  0.3281209E-002  0.1250038E+03  0.7818608E-02  0.1235063E+00
         -4   -1    0    0    0  501 -0.00000000000E+00  0.00000000000E+00  0.80637364447E+03  0.80637464456E+03  0.12700000000E+01 0.  1.
          4   -1    0    0  501    0  0.00000000000E+00 -0.00000000000E+00 -0.47602560921E+01  0.49267573578E+01  0.12700000000E+01 0.  1.
         25    2    1    2    0    0  0.00000000000E+00  0.00000000000E+00  0.80161338837E+03  0.81130140192E+03  0.12500376128E+03 0.  0.
    9000005    1    3    3    0    0 -0.10435887537E+02 -0.32678704892E+02  0.61778812463E+02  0.70671261284E+02  0.10000000000E+01 0.  0.
    9000005    1    3    3    0    0  0.10435887537E+02  0.32678704892E+02  0.73983457591E+03  0.74063014063E+03  0.10000000000E+01 0.  0.
<mgrwt>
<rscale>  0 0.12500376E+03</rscale>
<asrwt>0</asrwt>
<pdfrwt beam="2">  1        4 0.74523151E-03 0.12500376E+03</pdfrwt>
<pdfrwt beam="1">  1       -4 0.12407042E+00 0.12500376E+03</pdfrwt>
<totfact> 0.37762038E+03</totfact>
</mgrwt>
</event>
<event>
 5    1  0.3281209E-002  0.1250010E+03  0.7818608E-02  0.1235068E+00
          4   -1    0    0  501    0  0.00000000000E+00  0.00000000000E+00  0.11028097380E+02  0.11100983372E+02  0.12700000000E+01 0.  1.
         -4   -1    0    0    0  501 -0.00000000000E+00 -0.00000000000E+00 -0.35297410537E+03  0.35297639009E+03  0.12700000000E+01 0.  1.
         25    2    1    2    0    0  0.00000000000E+00  0.00000000000E+00 -0.34194600799E+03  0.36407737346E+03  0.12500104594E+03 0.  0.
    9000005    1    3    3    0    0 -0.47889256195E+02  0.31801098777E+02 -0.24235383687E+03  0.24908045484E+03  0.10000000000E+01 0.  0.
    9000005    1    3    3    0    0  0.47889256195E+02 -0.31801098777E+02 -0.99592171127E+02  0.11499691862E+03  0.10000000000E+01 0.  0.
<mgrwt>
<rscale>  0 0.12500105E+03</rscale>
<asrwt>0</asrwt>
<pdfrwt beam="1">  1        4 0.17024130E-02 0.12500105E+03</pdfrwt>
<pdfrwt beam="2">  1       -4 0.54309482E-01 0.12500105E+03</pdfrwt>
<totfact> 0.68201566E+03</totfact>
</mgrwt>
</event>
<event>
 5    1  0.3281209E-002  0.1249975E+03  0.7818608E-02  0.1235073E+00
         -4   -1    0    0    0  501 -0.00000000000E+00  0.00000000000E+00  0.27453040684E+03  0.27453334439E+03  0.12700000000E+01 0.  1.
          4   -1    0    0  501    0  0.00000000000E+00 -0.00000000000E+00 -0.14196909309E+02  0.14253600735E+02  0.12700000000E+01 0.  1.
         25    2    1    2    0    0  0.00000000000E+00  0.00000000000E+00  0.26033349753E+03  0.28878694512E+03  0.12499747892E+03 0.  0.
    9000005    1    3    3    0    0 -0.67867651371E+01 -0.12709567065E+02  0.27065187459E+03  0.27103695411E+03  0.10000000000E+01 0.  0.
    9000005    1    3    3    0    0  0.67867651371E+01  0.12709567065E+02 -0.10318377052E+02  0.17749991014E+02  0.10000000000E+01 0.  0.
<mgrwt>
<rscale>  0 0.12499748E+03</rscale>
<asrwt>0</asrwt>
<pdfrwt beam="2">  1        4 0.21887269E-02 0.12499748E+03</pdfrwt>
<pdfrwt beam="1">  1       -4 0.42240031E-01 0.12499748E+03</pdfrwt>
<totfact> 0.77031577E+03</totfact>
</mgrwt>
</event>
<event>
 5    1  0.3281209E-002  0.1249994E+03  0.7818608E-02  0.1235070E+00
          4   -1    0    0  501    0  0.00000000000E+00  0.00000000000E+00  0.11636472601E+04  0.11636479531E+04  0.12700000000E+01 0.  1.
         -4   -1    0    0    0  501 -0.00000000000E+00 -0.00000000000E+00 -0.32360300347E+01  0.34763185104E+01  0.12700000000E+01 0.  1.
         25    2    1    2    0    0  0.00000000000E+00  0.00000000000E+00  0.11604112300E+04  0.11671242716E+04  0.12499937042E+03 0.  0.
    9000005    1    3    3    0    0 -0.13923872100E+02  0.60452197521E+02  0.65061721515E+03  0.65356874393E+03  0.10000000000E+01 0.  0.
    9000005    1    3    3    0    0  0.13923872100E+02 -0.60452197521E+02  0.50979401489E+03  0.51355552769E+03  0.10000000000E+01 0.  0.
<mgrwt>
<rscale>  0 0.12499937E+03</rscale>
<asrwt>0</asrwt>
<pdfrwt beam="1">  1        4 0.17904130E+00 0.12499937E+03</pdfrwt>
<pdfrwt beam="2">  1       -4 0.51638750E-03 0.12499937E+03</pdfrwt>
<totfact> 0.25590179E+03</totfact>
</mgrwt>
</event>
<event>
 5    1  0.3281209E-002  0.1249868E+03  0.7818608E-02  0.1235090E+00
         -4   -1    0    0    0  501 -0.00000000000E+00  0.00000000000E+00  0.48367061257E+02  0.48383731921E+02  0.12700000000E+01 0.  1.
          4   -1    0    0  501    0  0.00000000000E+00 -0.00000000000E+00 -0.80710002454E+02  0.80719993781E+02  0.12700000000E+01 0.  1.
         25    2    1    2    0    0  0.00000000000E+00  0.00000000000E+00 -0.32342941197E+02  0.12910372570E+03  0.12498682389E+03 0.  0.
    9000005    1    3    3    0    0 -0.31783996912E+02  0.35669950098E+02 -0.57770294822E+02  0.74973160288E+02  0.10000000000E+01 0.  0.
    9000005    1    3    3    0    0  0.31783996912E+02 -0.35669950098E+02  0.25427353625E+02  0.54130565415E+02  0.10000000000E+01 0.  0.
<mgrwt>
<rscale>  0 0.12498682E+03</rscale>
<asrwt>0</asrwt>
<pdfrwt beam="2">  1        4 0.12418974E-01 0.12498682E+03</pdfrwt>
<pdfrwt beam="1">  1       -4 0.74431373E-02 0.12498682E+03</pdfrwt>
<totfact> 0.10366802E+04</totfact>
</mgrwt>
</event>
<event>
 5    1  0.3281209E-002  0.1250231E+03  0.7818608E-02  0.1235033E+00
         -4   -1    0    0    0  501 -0.00000000000E+00  0.00000000000E+00  0.96507122018E+03  0.96507205582E+03  0.12700000000E+01 0. -1.
          4   -1    0    0  501    0  0.00000000000E+00 -0.00000000000E+00 -0.39486814390E+01  0.41478892351E+01  0.12700000000E+01 0. -1.
         25    2    1    2    0    0  0.00000000000E+00  0.00000000000E+00  0.96112253874E+03  0.96921994506E+03  0.12502306752E+03 0.  0.
    9000005    1    3    3    0    0 -0.31928856553E+02 -0.52843249672E+02  0.40506817768E+03  0.40974759241E+03  0.10000000000E+01 0.  0.
    9000005    1    3    3    0    0  0.31928856553E+02  0.52843249672E+02  0.55605436106E+03  0.55947235264E+03  0.10000000000E+01 0.  0.
<mgrwt>
<rscale>  0 0.12502307E+03</rscale>
<asrwt>0</asrwt>
<pdfrwt beam="2">  1        4 0.62287718E-03 0.12502307E+03</pdfrwt>
<pdfrwt beam="1">  1       -4 0.14848794E+00 0.12502307E+03</pdfrwt>
<totfact> 0.31627335E+03</totfact>
</mgrwt>
</event>
<event>
 5    1  0.3281209E-002  0.1249999E+03  0.7818608E-02  0.1235069E+00
          4   -1    0    0  501    0  0.00000000000E+00  0.00000000000E+00  0.59489850475E+02  0.59503405024E+02  0.12700000000E+01 0. -1.
         -4   -1    0    0    0  501 -0.00000000000E+00 -0.00000000000E+00 -0.65635207885E+02  0.65647493586E+02  0.12700000000E+01 0. -1.
         25    2    1    2    0    0  0.00000000000E+00  0.00000000000E+00 -0.61453574107E+01  0.12515089861E+03  0.12499992802E+03 0.  0.
    9000005    1    3    3    0    0 -0.33520202576E+02 -0.32259040904E+02 -0.44848314777E+02  0.64626782676E+02  0.10000000000E+01 0.  0.
    9000005    1    3    3    0    0  0.33520202576E+02  0.32259040904E+02  0.38702957366E+02  0.60524115934E+02  0.10000000000E+01 0.  0.
<mgrwt>
<rscale>  0 0.12499993E+03</rscale>
<asrwt>0</asrwt>
<pdfrwt beam="1">  1        4 0.91542724E-02 0.12499993E+03</pdfrwt>
<pdfrwt beam="2">  1       -4 0.10099712E-01 0.12499993E+03</pdfrwt>
<totfact> 0.10449603E+04</totfact>
</mgrwt>
</event>
<event>
 5    1  0.3281209E-002  0.1249710E+03  0.7818608E-02  0.1235115E+00
         -4   -1    0    0    0  501 -0.00000000000E+00  0.00000000000E+00  0.26260865071E+03  0.26261172161E+03  0.12700000000E+01 0.  1.
          4   -1    0    0  501    0  0.00000000000E+00 -0.00000000000E+00 -0.14837607783E+02  0.14891860351E+02  0.12700000000E+01 0.  1.
         25    2    1    2    0    0  0.00000000000E+00  0.00000000000E+00  0.24777104292E+03  0.27750358196E+03  0.12497098979E+03 0.  0.
    9000005    1    3    3    0    0  0.41404790694E+01 -0.33144609698E+02  0.66431458075E+01  0.34071103668E+02  0.10000000000E+01 0.  0.
    9000005    1    3    3    0    0 -0.41404790694E+01  0.33144609698E+02  0.24112789712E+03  0.24343247829E+03  0.10000000000E+01 0.  0.
<mgrwt>
<rscale>  0 0.12497099E+03</rscale>
<asrwt>0</asrwt>
<pdfrwt beam="2">  1        4 0.22871183E-02 0.12497099E+03</pdfrwt>
<pdfrwt beam="1">  1       -4 0.40405742E-01 0.12497099E+03</pdfrwt>
<totfact> 0.78560935E+03</totfact>
</mgrwt>
</event>
<event>
 5    1  0.3281209E-002  0.1249984E+03  0.7818608E-02  0.1235072E+00
         -4   -1    0    0    0  501 -0.00000000000E+00  0.00000000000E+00  0.68999805180E+03  0.68999922057E+03  0.12700000000E+01 0. -1.
          4   -1    0    0  501    0  0.00000000000E+00 -0.00000000000E+00 -0.55886903657E+01  0.57311744000E+01  0.12700000000E+01 0. -1.
         25    2    1    2    0    0  0.00000000000E+00  0.00000000000E+00  0.68440936143E+03  0.69573039497E+03  0.12499843386E+03 0.  0.
    9000005    1    3    3    0    0 -0.24572571790E+02 -0.57283800397E+02  0.36703828738E+03  0.37229470782E+03  0.10000000000E+01 0.  0.
    9000005    1    3    3    0    0  0.24572571790E+02  0.57283800397E+02  0.31737107405E+03  0.32343568714E+03  0.10000000000E+01 0.  0.
<mgrwt>
<rscale>  0 0.12499843E+03</rscale>
<asrwt>0</asrwt>
<pdfrwt beam="2">  1        4 0.87084946E-03 0.12499843E+03</pdfrwt>
<pdfrwt beam="1">  1       -4 0.10616451E+00 0.12499843E+03</pdfrwt>
<totfact> 0.43314549E+03</totfact>
</mgrwt>
</event>
<event>
 5    1  0.3281209E-002  0.1249981E+03  0.7818608E-02  0.1235072E+00
          4   -1    0    0  501    0  0.00000000000E+00  0.00000000000E+00  0.19281091991E+03  0.19281510246E+03  0.12700000000E+01 0. -1.
         -4   -1    0    0    0  501 -0.00000000000E+00 -0.00000000000E+00 -0.20234555667E+02  0.20274371582E+02  0.12700000000E+01 0. -1.
         25    2    1    2    0    0  0.00000000000E+00  0.00000000000E+00  0.17257636424E+03  0.21308947404E+03  0.12499808979E+03 0.  0.
    9000005    1    3    3    0    0  0.29722586688E+02  0.29141932418E+02  0.16574536058E+03  0.17089531573E+03  0.10000000000E+01 0.  0.
    9000005    1    3    3    0    0 -0.29722586688E+02 -0.29141932418E+02  0.68310036605E+01  0.42194158309E+02  0.10000000000E+01 0.  0.
<mgrwt>
<rscale>  0 0.12499809E+03</rscale>
<asrwt>0</asrwt>
<pdfrwt beam="1">  1        4 0.29666602E-01 0.12499809E+03</pdfrwt>
<pdfrwt beam="2">  1       -4 0.31163932E-02 0.12499809E+03</pdfrwt>
<totfact> 0.87977558E+03</totfact>
</mgrwt>
</event>
<event>
 5    1  0.3281209E-002  0.1250020E+03  0.7818608E-02  0.1235066E+00
         -4   -1    0    0    0  501 -0.00000000000E+00  0.00000000000E+00  0.54673319883E+02  0.54688068233E+02  0.12700000000E+01 0. -1.
          4   -1    0    0  501    0  0.00000000000E+00 -0.00000000000E+00 -0.71419327774E+02  0.71430618643E+02  0.12700000000E+01 0. -1.
         25    2    1    2    0    0  0.00000000000E+00  0.00000000000E+00 -0.16746007891E+02  0.12611868688E+03  0.12500197758E+03 0.  0.
    9000005    1    3    3    0    0 -0.11521109801E+02 -0.61039159166E+02 -0.14665110791E+01  0.62142301032E+02  0.10000000000E+01 0.  0.
    9000005    1    3    3    0    0  0.11521109801E+02  0.61039159166E+02 -0.15279496812E+02  0.63976385844E+02  0.10000000000E+01 0.  0.
<mgrwt>
<rscale>  0 0.12500198E+03</rscale>
<asrwt>0</asrwt>
<pdfrwt beam="2">  1        4 0.10989592E-01 0.12500198E+03</pdfrwt>
<pdfrwt beam="1">  1       -4 0.84132829E-02 0.12500198E+03</pdfrwt>
<totfact> 0.10427892E+04</totfact>
</mgrwt>
</event>
<event>
 5    1  0.3281209E-002  0.1249939E+03  0.7818608E-02  0.1235079E+00
          4   -1    0    0  501    0  0.00000000000E+00  0.00000000000E+00  0.30578074110E+02  0.30604436219E+02  0.12700000000E+01 0. -1.
         -4   -1    0    0    0  501 -0.00000000000E+00 -0.00000000000E+00 -0.12764972670E+03  0.12765604422E+03  0.12700000000E+01 0. -1.
         25    2    1    2    0    0  0.00000000000E+00  0.00000000000E+00 -0.97071652591E+02  0.15826048044E+03  0.12499389558E+03 0.  0.
    9000005    1    3    3    0    0  0.20000970166E+02  0.58554163305E+02 -0.37480435948E+02  0.72349235842E+02  0.10000000000E+01 0.  0.
    9000005    1    3    3    0    0 -0.20000970166E+02 -0.58554163305E+02 -0.59591216643E+02  0.85911244601E+02  0.10000000000E+01 0.  0.
<mgrwt>
<rscale>  0 0.12499390E+03</rscale>
<asrwt>0</asrwt>
<pdfrwt beam="1">  1        4 0.47068330E-02 0.12499390E+03</pdfrwt>
<pdfrwt beam="2">  1       -4 0.19640933E-01 0.12499390E+03</pdfrwt>
<totfact> 0.97692609E+03</totfact>
</mgrwt>
</event>
<event>
 5    1  0.3281209E-002  0.1250003E+03  0.7818608E-02  0.1235069E+00
          4   -1    0    0  501    0  0.00000000000E+00  0.00000000000E+00  0.29890192811E+03  0.29890462614E+03  0.12700000000E+01 0. -1.
         -4   -1    0    0    0  501 -0.00000000000E+00 -0.00000000000E+00 -0.13035113945E+02  0.13096835326E+02  0.12700000000E+01 0. -1.
         25    2    1    2    0    0  0.00000000000E+00  0.00000000000E+00  0.28586681416E+03  0.31200146146E+03  0.12500030606E+03 0.  0.
    9000005    1    3    3    0    0  0.52686026980E+02 -0.11225067193E+01  0.59096162526E+02  0.79186071286E+02  0.10000000000E+01 0.  0.
    9000005    1    3    3    0    0 -0.52686026980E+02  0.11225067193E+01  0.22677065164E+03  0.23281539018E+03  0.10000000000E+01 0.  0.
<mgrwt>
<rscale>  0 0.12500031E+03</rscale>
<asrwt>0</asrwt>
<pdfrwt beam="1">  1        4 0.45989863E-01 0.12500031E+03</pdfrwt>
<pdfrwt beam="2">  1       -4 0.20103577E-02 0.12500031E+03</pdfrwt>
<totfact> 0.74117141E+03</totfact>
</mgrwt>
</event>
<event>
 5    1  0.3281209E-002  0.1250006E+03  0.7818608E-02  0.1235068E+00
         -4   -1    0    0    0  501 -0.00000000000E+00  0.00000000000E+00  0.15473384465E+03  0.15473905641E+03  0.12700000000E+01 0.  1.
          4   -1    0    0  501    0  0.00000000000E+00 -0.00000000000E+00 -0.25223606898E+02  0.25255558694E+02  0.12700000000E+01 0.  1.
         25    2    1    2    0    0  0.00000000000E+00  0.00000000000E+00  0.12951023775E+03  0.17999461511E+03  0.12500063914E+03 0.  0.
    9000005    1    3    3    0    0 -0.15878594964E+00 -0.61591696273E+02  0.49534662445E+02  0.79045841423E+02  0.10000000000E+01 0.  0.
    9000005    1    3    3    0    0  0.15878594964E+00  0.61591696273E+02  0.79975575304E+02  0.10094877368E+03  0.10000000000E+01 0.  0.
<mgrwt>
<rscale>  0 0.12500064E+03</rscale>
<asrwt>0</asrwt>
<pdfrwt beam="2">  1        4 0.38834136E-02 0.12500064E+03</pdfrwt>
<pdfrwt beam="1">  1       -4 0.23808066E-01 0.12500064E+03</pdfrwt>
<totfact> 0.93616630E+03</totfact>
</mgrwt>
</event>
<event>
 5    1  0.3281209E-002  0.1250007E+03  0.7818608E-02  0.1235068E+00
          4   -1    0    0  501    0  0.00000000000E+00  0.00000000000E+00  0.26555496009E+02  0.26585847142E+02  0.12700000000E+01 0.  1.
         -4   -1    0    0    0  501 -0.00000000000E+00 -0.00000000000E+00 -0.14698218382E+03  0.14698767043E+03  0.12700000000E+01 0.  1.
         25    2    1    2    0    0  0.00000000000E+00  0.00000000000E+00 -0.12042668781E+03  0.17357351758E+03  0.12500071547E+03 0.  0.
    9000005    1    3    3    0    0  0.57966104305E+02  0.21819966110E+02 -0.48669360325E+02  0.78777451113E+02  0.10000000000E+01 0.  0.
    9000005    1    3    3    0    0 -0.57966104305E+02 -0.21819966110E+02 -0.71757327482E+02  0.94796066463E+02  0.10000000000E+01 0.  0.
<mgrwt>
<rscale>  0 0.12500072E+03</rscale>
<asrwt>0</asrwt>
<pdfrwt beam="1">  1        4 0.40882178E-02 0.12500072E+03</pdfrwt>
<pdfrwt beam="2">  1       -4 0.22615400E-01 0.12500072E+03</pdfrwt>
<totfact> 0.94785227E+03</totfact>
</mgrwt>
</event>
<event>
 5    1  0.3281209E-002  0.1249944E+03  0.7818608E-02  0.1235078E+00
         -4   -1    0    0    0  501 -0.00000000000E+00  0.00000000000E+00  0.20905293367E+02  0.20943834194E+02  0.12700000000E+01 0.  1.
          4   -1    0    0  501    0  0.00000000000E+00 -0.00000000000E+00 -0.18662518797E+03  0.18662950914E+03  0.12700000000E+01 0.  1.
         25    2    1    2    0    0  0.00000000000E+00  0.00000000000E+00 -0.16571989460E+03  0.20757334334E+03  0.12499443747E+03 0.  0.
    9000005    1    3    3    0    0 -0.14251942089E+02 -0.53745426343E+02 -0.35503052020E+02  0.65978446547E+02  0.10000000000E+01 0.  0.
    9000005    1    3    3    0    0  0.14251942089E+02  0.53745426343E+02 -0.13021684258E+03  0.14159489679E+03  0.10000000000E+01 0.  0.
<mgrwt>
<rscale>  0 0.12499444E+03</rscale>
<asrwt>0</asrwt>
<pdfrwt beam="2">  1        4 0.28714863E-01 0.12499444E+03</pdfrwt>
<pdfrwt beam="1">  1       -4 0.32194962E-02 0.12499444E+03</pdfrwt>
<totfact> 0.88884781E+03</totfact>
</mgrwt>
</event>
<event>
 5    1  0.3281209E-002  0.1249999E+03  0.7818608E-02  0.1235069E+00
          4   -1    0    0  501    0  0.00000000000E+00  0.00000000000E+00  0.35996690670E+03  0.35996914704E+03  0.12700000000E+01 0. -1.
         -4   -1    0    0    0  501 -0.00000000000E+00 -0.00000000000E+00 -0.10812241694E+02  0.10886572943E+02  0.12700000000E+01 0. -1.
         25    2    1    2    0    0  0.00000000000E+00  0.00000000000E+00  0.34915466501E+03  0.37085571998E+03  0.12499993979E+03 0.  0.
    9000005    1    3    3    0    0 -0.16987701096E+00 -0.45746602968E+02  0.48269560137E+02  0.66511134235E+02  0.10000000000E+01 0.  0.
    9000005    1    3    3    0    0  0.16987701096E+00  0.45746602968E+02  0.30088510487E+03  0.30434458575E+03  0.10000000000E+01 0.  0.
<mgrwt>
<rscale>  0 0.12499994E+03</rscale>
<asrwt>0</asrwt>
<pdfrwt beam="1">  1        4 0.55385420E-01 0.12499994E+03</pdfrwt>
<pdfrwt beam="2">  1       -4 0.16693117E-02 0.12499994E+03</pdfrwt>
<totfact> 0.67489592E+03</totfact>
</mgrwt>
</event>
<event>
 5    1  0.3281209E-002  0.1249976E+03  0.7818608E-02  0.1235073E+00
          4   -1    0    0  501    0  0.00000000000E+00  0.00000000000E+00  0.11273790794E+02  0.11345098451E+02  0.12700000000E+01 0. -1.
         -4   -1    0    0    0  501 -0.00000000000E+00 -0.00000000000E+00 -0.34531150461E+03  0.34531384003E+03  0.12700000000E+01 0. -1.
         25    2    1    2    0    0  0.00000000000E+00  0.00000000000E+00 -0.33403771382E+03  0.35665893848E+03  0.12499761656E+03 0.  0.
    9000005    1    3    3    0    0  0.95696697278E+01 -0.26046737430E+02 -0.32678192126E+03  0.32795950234E+03  0.10000000000E+01 0.  0.
    9000005    1    3    3    0    0 -0.95696697278E+01  0.26046737430E+02 -0.72557925551E+01  0.28699436145E+02  0.10000000000E+01 0.  0.
<mgrwt>
<rscale>  0 0.12499762E+03</rscale>
<asrwt>0</asrwt>
<pdfrwt beam="1">  1        4 0.17400945E-02 0.12499762E+03</pdfrwt>
<pdfrwt beam="2">  1       -4 0.53130504E-01 0.12499762E+03</pdfrwt>
<totfact> 0.69001792E+03</totfact>
</mgrwt>
</event>
<event>
 5    1  0.3281209E-002  0.1250001E+03  0.7818608E-02  0.1235069E+00
          4   -1    0    0  501    0  0.00000000000E+00  0.00000000000E+00  0.11363879956E+02  0.11434625820E+02  0.12700000000E+01 0.  1.
         -4   -1    0    0    0  501 -0.00000000000E+00 -0.00000000000E+00 -0.34260481572E+03  0.34260716959E+03  0.12700000000E+01 0.  1.
         25    2    1    2    0    0  0.00000000000E+00  0.00000000000E+00 -0.33124093576E+03  0.35404179541E+03  0.12500014148E+03 0.  0.
    9000005    1    3    3    0    0  0.16698686081E+02 -0.59631321163E+02 -0.18940501195E+03  0.19927367897E+03  0.10000000000E+01 0.  0.
    9000005    1    3    3    0    0 -0.16698686081E+02  0.59631321163E+02 -0.14183592381E+03  0.15476811643E+03  0.10000000000E+01 0.  0.
<mgrwt>
<rscale>  0 0.12500014E+03</rscale>
<asrwt>0</asrwt>
<pdfrwt beam="1">  1        4 0.17539125E-02 0.12500014E+03</pdfrwt>
<pdfrwt beam="2">  1       -4 0.52714048E-01 0.12500014E+03</pdfrwt>
<totfact> 0.69281973E+03</totfact>
</mgrwt>
</event>
<event>
 5    1  0.3281209E-002  0.1249988E+03  0.7818608E-02  0.1235071E+00
          4   -1    0    0  501    0  0.00000000000E+00  0.00000000000E+00  0.27953847442E+02  0.27982681908E+02  0.12700000000E+01 0.  1.
         -4   -1    0    0    0  501 -0.00000000000E+00 -0.00000000000E+00 -0.13963283614E+03  0.13963861152E+03  0.12700000000E+01 0.  1.
         25    2    1    2    0    0  0.00000000000E+00  0.00000000000E+00 -0.11167898870E+03  0.16762129343E+03  0.12499880598E+03 0.  0.
    9000005    1    3    3    0    0 -0.51175220887E+02 -0.32069053320E+02 -0.77372525716E+02  0.98157196116E+02  0.10000000000E+01 0.  0.
    9000005    1    3    3    0    0  0.51175220887E+02  0.32069053320E+02 -0.34306462982E+02  0.69464097317E+02  0.10000000000E+01 0.  0.
<mgrwt>
<rscale>  0 0.12499881E+03</rscale>
<asrwt>0</asrwt>
<pdfrwt beam="1">  1        4 0.43032543E-02 0.12499881E+03</pdfrwt>
<pdfrwt beam="2">  1       -4 0.21484637E-01 0.12499881E+03</pdfrwt>
<totfact> 0.95895823E+03</totfact>
</mgrwt>
</event>
<event>
 5    1  0.3281209E-002  0.1250013E+03  0.7818608E-02  0.1235067E+00
          4   -1    0    0  501    0  0.00000000000E+00  0.00000000000E+00  0.37823279447E+01  0.39898502078E+01  0.12700000000E+01 0. -1.
         -4   -1    0    0    0  501 -0.00000000000E+00 -0.00000000000E+00 -0.10050003545E+04  0.10050011570E+04  0.12700000000E+01 0. -1.
         25    2    1    2    0    0  0.00000000000E+00  0.00000000000E+00 -0.10012180266E+04  0.10089910072E+04  0.12500126320E+03 0.  0.
    9000005    1    3    3    0    0  0.48946505628E+02  0.38760296177E+02 -0.52228004546E+03  0.52599958827E+03  0.10000000000E+01 0.  0.
    9000005    1    3    3    0    0 -0.48946505628E+02 -0.38760296177E+02 -0.47893798111E+03  0.48299141890E+03  0.10000000000E+01 0.  0.
<mgrwt>
<rscale>  0 0.12500126E+03</rscale>
<asrwt>0</asrwt>
<pdfrwt beam="1">  1        4 0.59792238E-03 0.12500126E+03</pdfrwt>
<pdfrwt beam="2">  1       -4 0.15463126E+00 0.12500126E+03</pdfrwt>
<totfact> 0.30308652E+03</totfact>
</mgrwt>
</event>
<event>
 5    1  0.3281209E-002  0.1249988E+03  0.7818608E-02  0.1235071E+00
          4   -1    0    0  501    0  0.00000000000E+00  0.00000000000E+00  0.21936503568E+02  0.21973235738E+02  0.12700000000E+01 0. -1.
         -4   -1    0    0    0  501 -0.00000000000E+00 -0.00000000000E+00 -0.17787928415E+03  0.17788381779E+03  0.12700000000E+01 0. -1.
         25    2    1    2    0    0  0.00000000000E+00  0.00000000000E+00 -0.15594278058E+03  0.19985705353E+03  0.12499876410E+03 0.  0.
    9000005    1    3    3    0    0  0.20004406540E+01  0.21612986345E+02  0.15723748044E+02  0.26820872359E+02  0.10000000000E+01 0.  0.
    9000005    1    3    3    0    0 -0.20004406540E+01 -0.21612986345E+02 -0.17166652863E+03  0.17303618117E+03  0.10000000000E+01 0.  0.
<mgrwt>
<rscale>  0 0.12499876E+03</rscale>
<asrwt>0</asrwt>
<pdfrwt beam="1">  1        4 0.33780211E-02 0.12499876E+03</pdfrwt>
<pdfrwt beam="2">  1       -4 0.27369217E-01 0.12499876E+03</pdfrwt>
<totfact> 0.90162115E+03</totfact>
</mgrwt>
</event>
<event>
 5    1  0.3281209E-002  0.1250066E+03  0.7818608E-02  0.1235059E+00
         -4   -1    0    0    0  501 -0.00000000000E+00  0.00000000000E+00  0.16975068582E+02  0.17022510195E+02  0.12700000000E+01 0. -1.
          4   -1    0    0  501    0  0.00000000000E+00 -0.00000000000E+00 -0.22977077016E+03  0.22977427993E+03  0.12700000000E+01 0. -1.
         25    2    1    2    0    0  0.00000000000E+00  0.00000000000E+00 -0.21279570157E+03  0.24679679013E+03  0.12500657986E+03 0.  0.
    9000005    1    3    3    0    0 -0.17731215994E+02 -0.12753568975E+02 -0.22199996737E+03  0.22307405733E+03  0.10000000000E+01 0.  0.
    9000005    1    3    3    0    0  0.17731215994E+02  0.12753568975E+02  0.92042657985E+01  0.23722732792E+02  0.10000000000E+01 0.  0.
<mgrwt>
<rscale>  0 0.12500658E+03</rscale>
<asrwt>0</asrwt>
<pdfrwt beam="2">  1        4 0.35353266E-01 0.12500658E+03</pdfrwt>
<pdfrwt beam="1">  1       -4 0.26154685E-02 0.12500658E+03</pdfrwt>
<totfact> 0.82783270E+03</totfact>
</mgrwt>
</event>
<event>
 5    1  0.3281209E-002  0.1250014E+03  0.7818608E-02  0.1235067E+00
         -4   -1    0    0    0  501 -0.00000000000E+00  0.00000000000E+00  0.22669778075E+02  0.22705324001E+02  0.12700000000E+01 0.  1.
          4   -1    0    0  501    0  0.00000000000E+00 -0.00000000000E+00 -0.17214192932E+03  0.17214661405E+03  0.12700000000E+01 0.  1.
         25    2    1    2    0    0  0.00000000000E+00  0.00000000000E+00 -0.14947215125E+03  0.19485193806E+03  0.12500141506E+03 0.  0.
    9000005    1    3    3    0    0 -0.51227109625E+02  0.32630747776E+02 -0.51807649069E+02  0.79837428334E+02  0.10000000000E+01 0.  0.
    9000005    1    3    3    0    0  0.51227109625E+02 -0.32630747776E+02 -0.97664502178E+02  0.11501450972E+03  0.10000000000E+01 0.  0.
<mgrwt>
<rscale>  0 0.12500142E+03</rscale>
<asrwt>0</asrwt>
<pdfrwt beam="2">  1        4 0.26486468E-01 0.12500142E+03</pdfrwt>
<pdfrwt beam="1">  1       -4 0.34907529E-02 0.12500142E+03</pdfrwt>
<totfact> 0.91006997E+03</totfact>
</mgrwt>
</event>
<event>
 5    1  0.3281209E-002  0.1249990E+03  0.7818608E-02  0.1235071E+00
          4   -1    0    0  501    0  0.00000000000E+00  0.00000000000E+00  0.16758562505E+03  0.16759043715E+03  0.12700000000E+01 0. -1.
         -4   -1    0    0    0  501 -0.00000000000E+00 -0.00000000000E+00 -0.23286155058E+02  0.23320761510E+02  0.12700000000E+01 0. -1.
         25    2    1    2    0    0  0.00000000000E+00  0.00000000000E+00  0.14429946999E+03  0.19091119866E+03  0.12499899493E+03 0.  0.
    9000005    1    3    3    0    0  0.35478015829E+02 -0.37706076536E+02  0.12559983172E+03  0.13585564229E+03  0.10000000000E+01 0.  0.
    9000005    1    3    3    0    0 -0.35478015829E+02  0.37706076536E+02  0.18699638270E+02  0.55055556362E+02  0.10000000000E+01 0.  0.
<mgrwt>
<rscale>  0 0.12499899E+03</rscale>
<asrwt>0</asrwt>
<pdfrwt beam="1">  1        4 0.25785436E-01 0.12499899E+03</pdfrwt>
<pdfrwt beam="2">  1       -4 0.35855176E-02 0.12499899E+03</pdfrwt>
<totfact> 0.91691074E+03</totfact>
</mgrwt>
</event>
<event>
 5    1  0.3281209E-002  0.1249993E+03  0.7818608E-02  0.1235070E+00
          4   -1    0    0  501    0  0.00000000000E+00  0.00000000000E+00  0.15030664291E+02  0.15084222520E+02  0.12700000000E+01 0.  1.
         -4   -1    0    0    0  501 -0.00000000000E+00 -0.00000000000E+00 -0.25936531482E+03  0.25936842413E+03  0.12700000000E+01 0.  1.
         25    2    1    2    0    0  0.00000000000E+00  0.00000000000E+00 -0.24433465053E+03  0.27445264665E+03  0.12499933520E+03 0.  0.
    9000005    1    3    3    0    0  0.19290157504E+02 -0.58233658548E+02 -0.96008934241E+02  0.11393851245E+03  0.10000000000E+01 0.  0.
    9000005    1    3    3    0    0 -0.19290157504E+02  0.58233658548E+02 -0.14832571629E+03  0.16051413420E+03  0.10000000000E+01 0.  0.
<mgrwt>
<rscale>  0 0.12499934E+03</rscale>
<asrwt>0</asrwt>
<pdfrwt beam="1">  1        4 0.23167691E-02 0.12499934E+03</pdfrwt>
<pdfrwt beam="2">  1       -4 0.39906712E-01 0.12499934E+03</pdfrwt>
<totfact> 0.78920609E+03</totfact>
</mgrwt>
</event>
<event>
 5    1  0.3281209E-002  0.1249983E+03  0.7818608E-02  0.1235072E+00
          4   -1    0    0  501    0  0.00000000000E+00  0.00000000000E+00  0.65523522461E+01  0.66742954652E+01  0.12700000000E+01 0.  1.
         -4   -1    0    0    0  501 -0.00000000000E+00 -0.00000000000E+00 -0.59052507425E+03  0.59052643989E+03  0.12700000000E+01 0.  1.
         25    2    1    2    0    0  0.00000000000E+00  0.00000000000E+00 -0.58397272200E+03  0.59720073536E+03  0.12499831308E+03 0.  0.
    9000005    1    3    3    0    0 -0.13549237552E+00 -0.29075285924E+02 -0.55626340134E+03  0.55702366402E+03  0.10000000000E+01 0.  0.
    9000005    1    3    3    0    0  0.13549237552E+00  0.29075285924E+02 -0.27709320658E+02  0.40177071335E+02  0.10000000000E+01 0.  0.
<mgrwt>
<rscale>  0 0.12499831E+03</rscale>
<asrwt>0</asrwt>
<pdfrwt beam="1">  1        4 0.10175400E-02 0.12499831E+03</pdfrwt>
<pdfrwt beam="2">  1       -4 0.90859455E-01 0.12499831E+03</pdfrwt>
<totfact> 0.49046617E+03</totfact>
</mgrwt>
</event>
<event>
 5    1  0.3281209E-002  0.1250018E+03  0.7818608E-02  0.1235067E+00
         -4   -1    0    0    0  501 -0.00000000000E+00  0.00000000000E+00  0.15068839094E+03  0.15069374262E+03  0.12700000000E+01 0. -1.
          4   -1    0    0  501    0  0.00000000000E+00 -0.00000000000E+00 -0.25902065959E+02  0.25933181851E+02  0.12700000000E+01 0. -1.
         25    2    1    2    0    0  0.00000000000E+00  0.00000000000E+00  0.12478632498E+03  0.17662692447E+03  0.12500177417E+03 0.  0.
    9000005    1    3    3    0    0 -0.31483800336E+02 -0.47115940361E+02  0.25163500586E+02  0.62010831969E+02  0.10000000000E+01 0.  0.
    9000005    1    3    3    0    0  0.31483800336E+02  0.47115940361E+02  0.99622824397E+02  0.11461609250E+03  0.10000000000E+01 0.  0.
<mgrwt>
<rscale>  0 0.12500177E+03</rscale>
<asrwt>0</asrwt>
<pdfrwt beam="2">  1        4 0.39877384E-02 0.12500177E+03</pdfrwt>
<pdfrwt beam="1">  1       -4 0.23185635E-01 0.12500177E+03</pdfrwt>
<totfact> 0.94223965E+03</totfact>
</mgrwt>
</event>
<event>
 5    1  0.3281209E-002  0.1250063E+03  0.7818608E-02  0.1235059E+00
         -4   -1    0    0    0  501 -0.00000000000E+00  0.00000000000E+00  0.25432650090E+03  0.25432967181E+03  0.12700000000E+01 0.  1.
          4   -1    0    0  501    0  0.00000000000E+00 -0.00000000000E+00 -0.15331217748E+02  0.15383729640E+02  0.12700000000E+01 0.  1.
         25    2    1    2    0    0  0.00000000000E+00  0.00000000000E+00  0.23899528315E+03  0.26971340145E+03  0.12500629404E+03 0.  0.
    9000005    1    3    3    0    0 -0.10647565305E+02  0.61185657290E+02  0.10445806789E+03  0.12153000967E+03  0.10000000000E+01 0.  0.
    9000005    1    3    3    0    0  0.10647565305E+02 -0.61185657290E+02  0.13453721527E+03  0.14818339177E+03  0.10000000000E+01 0.  0.
<mgrwt>
<rscale>  0 0.12500629E+03</rscale>
<asrwt>0</asrwt>
<pdfrwt beam="2">  1        4 0.23629324E-02 0.12500629E+03</pdfrwt>
<pdfrwt beam="1">  1       -4 0.39131433E-01 0.12500629E+03</pdfrwt>
<totfact> 0.79550820E+03</totfact>
</mgrwt>
</event>
<event>
 5    1  0.3281209E-002  0.1250041E+03  0.7818608E-02  0.1235063E+00
         -4   -1    0    0    0  501 -0.00000000000E+00  0.00000000000E+00  0.19917358036E+01  0.23621836320E+01  0.12700000000E+01 0. -1.
          4   -1    0    0  501    0  0.00000000000E+00 -0.00000000000E+00 -0.17941085565E+04  0.17941090060E+04  0.12700000000E+01 0. -1.
         25    2    1    2    0    0  0.00000000000E+00  0.00000000000E+00 -0.17921168207E+04  0.17964711897E+04  0.12500414454E+03 0.  0.
    9000005    1    3    3    0    0  0.24441176631E+02  0.14539478951E+02 -0.96319328616E+02  0.10043495720E+03  0.10000000000E+01 0.  0.
    9000005    1    3    3    0    0 -0.24441176631E+02 -0.14539478951E+02 -0.16957974921E+04  0.16960362325E+04  0.10000000000E+01 0.  0.
<mgrwt>
<rscale>  0 0.12500414E+03</rscale>
<asrwt>0</asrwt>
<pdfrwt beam="2">  1        4 0.27604405E+00 0.12500414E+03</pdfrwt>
<pdfrwt beam="1">  1       -4 0.33495289E-03 0.12500414E+03</pdfrwt>
<totfact> 0.12756890E+03</totfact>
</mgrwt>
</event>
<event>
 5    1  0.3281209E-002  0.1250016E+03  0.7818608E-02  0.1235067E+00
          4   -1    0    0  501    0  0.00000000000E+00  0.00000000000E+00  0.75292170882E+02  0.75302881061E+02  0.12700000000E+01 0.  1.
         -4   -1    0    0    0  501 -0.00000000000E+00 -0.00000000000E+00 -0.51860416232E+02  0.51875964297E+02  0.12700000000E+01 0.  1.
         25    2    1    2    0    0  0.00000000000E+00  0.00000000000E+00  0.23431754650E+02  0.12717884536E+03  0.12500164631E+03 0.  0.
    9000005    1    3    3    0    0 -0.50685890401E+02  0.16060477666E+02  0.45126141967E+02  0.69745015000E+02  0.10000000000E+01 0.  0.
    9000005    1    3    3    0    0  0.50685890401E+02 -0.16060477666E+02 -0.21694387317E+02  0.57433830358E+02  0.10000000000E+01 0.  0.
<mgrwt>
<rscale>  0 0.12500165E+03</rscale>
<asrwt>0</asrwt>
<pdfrwt beam="1">  1        4 0.11585431E-01 0.12500165E+03</pdfrwt>
<pdfrwt beam="2">  1       -4 0.79805454E-02 0.12500165E+03</pdfrwt>
<totfact> 0.10404876E+04</totfact>
</mgrwt>
</event>
<event>
 5    1  0.3281209E-002  0.1250017E+03  0.7818608E-02  0.1235067E+00
         -4   -1    0    0    0  501 -0.00000000000E+00  0.00000000000E+00  0.29462518264E+02  0.29489877627E+02  0.12700000000E+01 0.  1.
          4   -1    0    0  501    0  0.00000000000E+00 -0.00000000000E+00 -0.13249528080E+03  0.13250136729E+03  0.12700000000E+01 0.  1.
         25    2    1    2    0    0  0.00000000000E+00  0.00000000000E+00 -0.10303276253E+03  0.16199124492E+03  0.12500165309E+03 0.  0.
    9000005    1    3    3    0    0  0.51709337137E+02  0.28800445965E+02 -0.77500389371E+02  0.97522467091E+02  0.10000000000E+01 0.  0.
    9000005    1    3    3    0    0 -0.51709337137E+02 -0.28800445965E+02 -0.25532373162E+02  0.64468777824E+02  0.10000000000E+01 0.  0.
<mgrwt>
<rscale>  0 0.12500165E+03</rscale>
<asrwt>0</asrwt>
<pdfrwt beam="2">  1        4 0.20386462E-01 0.12500165E+03</pdfrwt>
<pdfrwt beam="1">  1       -4 0.45352680E-02 0.12500165E+03</pdfrwt>
<totfact> 0.96956655E+03</totfact>
</mgrwt>
</event>
<event>
 5    1  0.3281209E-002  0.1250115E+03  0.7818608E-02  0.1235051E+00
         -4   -1    0    0    0  501 -0.00000000000E+00  0.00000000000E+00  0.89096464380E+01  0.89997055313E+01  0.12700000000E+01 0. -1.
          4   -1    0    0  501    0  0.00000000000E+00 -0.00000000000E+00 -0.43621387514E+03  0.43621572388E+03  0.12700000000E+01 0. -1.
         25    2    1    2    0    0  0.00000000000E+00  0.00000000000E+00 -0.42730422870E+03  0.44521542941E+03  0.12501149837E+03 0.  0.
    9000005    1    3    3    0    0 -0.25212771446E+02  0.27151385847E+02 -0.39289639477E+03  0.39464092365E+03  0.10000000000E+01 0.  0.
    9000005    1    3    3    0    0  0.25212771446E+02 -0.27151385847E+02 -0.34407833930E+02  0.50574505763E+02  0.10000000000E+01 0.  0.
<mgrwt>
<rscale>  0 0.12501150E+03</rscale>
<asrwt>0</asrwt>
<pdfrwt beam="2">  1        4 0.67116880E-01 0.12501150E+03</pdfrwt>
<pdfrwt beam="1">  1       -4 0.13777850E-02 0.12501150E+03</pdfrwt>
<totfact> 0.60365249E+03</totfact>
</mgrwt>
</event>
<event>
 5    1  0.3281209E-002  0.1250054E+03  0.7818608E-02  0.1235061E+00
         -4   -1    0    0    0  501 -0.00000000000E+00  0.00000000000E+00  0.27485324685E+02  0.27514650153E+02  0.12700000000E+01 0.  1.
          4   -1    0    0  501    0  0.00000000000E+00 -0.00000000000E+00 -0.14202564182E+03  0.14203131991E+03  0.12700000000E+01 0.  1.
         25    2    1    2    0    0  0.00000000000E+00  0.00000000000E+00 -0.11454031714E+03  0.16954597006E+03  0.12500540674E+03 0.  0.
    9000005    1    3    3    0    0  0.55602235194E+02 -0.28199275075E+02 -0.63147885695E+02  0.88743806213E+02  0.10000000000E+01 0.  0.
    9000005    1    3    3    0    0 -0.55602235194E+02  0.28199275075E+02 -0.51392431444E+02  0.80802163851E+02  0.10000000000E+01 0.  0.
<mgrwt>
<rscale>  0 0.12500541E+03</rscale>
<asrwt>0</asrwt>
<pdfrwt beam="2">  1        4 0.21852791E-01 0.12500541E+03</pdfrwt>
<pdfrwt beam="1">  1       -4 0.42312042E-02 0.12500541E+03</pdfrwt>
<totfact> 0.95521720E+03</totfact>
</mgrwt>
</event>
<event>
 5    1  0.3281209E-002  0.1250025E+03  0.7818608E-02  0.1235065E+00
         -4   -1    0    0    0  501 -0.00000000000E+00  0.00000000000E+00  0.31674473466E+01  0.34125683427E+01  0.12700000000E+01 0. -1.
          4   -1    0    0  501    0  0.00000000000E+00 -0.00000000000E+00 -0.11871084425E+04  0.11871091218E+04  0.12700000000E+01 0. -1.
         25    2    1    2    0    0  0.00000000000E+00  0.00000000000E+00 -0.11839409951E+04  0.11905216902E+04  0.12500245913E+03 0.  0.
    9000005    1    3    3    0    0 -0.32567834677E+02  0.53335640435E+02 -0.58985580329E+03  0.59315783993E+03  0.10000000000E+01 0.  0.
    9000005    1    3    3    0    0  0.32567834677E+02 -0.53335640435E+02 -0.59408519185E+03  0.59736385024E+03  0.10000000000E+01 0.  0.
<mgrwt>
<rscale>  0 0.12500246E+03</rscale>
<asrwt>0</asrwt>
<pdfrwt beam="2">  1        4 0.18265063E+00 0.12500246E+03</pdfrwt>
<pdfrwt beam="1">  1       -4 0.50620826E-03 0.12500246E+03</pdfrwt>
<totfact> 0.24960917E+03</totfact>
</mgrwt>
</event>
<event>
 5    1  0.3281209E-002  0.1250030E+03  0.7818608E-02  0.1235065E+00
          4   -1    0    0  501    0  0.00000000000E+00  0.00000000000E+00  0.46857147742E+01  0.48547732126E+01  0.12700000000E+01 0.  1.
         -4   -1    0    0    0  501 -0.00000000000E+00 -0.00000000000E+00 -0.81874834301E+03  0.81874932799E+03  0.12700000000E+01 0.  1.
         25    2    1    2    0    0  0.00000000000E+00  0.00000000000E+00 -0.81406262823E+03  0.82360410120E+03  0.12500301126E+03 0.  0.
    9000005    1    3    3    0    0 -0.53490328570E+02  0.18699580491E+02 -0.23339148103E+03  0.24017383908E+03  0.10000000000E+01 0.  0.
    9000005    1    3    3    0    0  0.53490328570E+02 -0.18699580491E+02 -0.58067114721E+03  0.58343026212E+03  0.10000000000E+01 0.  0.
<mgrwt>
<rscale>  0 0.12500301E+03</rscale>
<asrwt>0</asrwt>
<pdfrwt beam="1">  1        4 0.73396011E-03 0.12500301E+03</pdfrwt>
<pdfrwt beam="2">  1       -4 0.12597425E+00 0.12500301E+03</pdfrwt>
<totfact> 0.37230031E+03</totfact>
</mgrwt>
</event>
<event>
 5    1  0.3281209E-002  0.1250014E+03  0.7818608E-02  0.1235067E+00
         -4   -1    0    0    0  501 -0.00000000000E+00  0.00000000000E+00  0.13694592352E+02  0.13753354489E+02  0.12700000000E+01 0.  1.
          4   -1    0    0  501    0  0.00000000000E+00 -0.00000000000E+00 -0.28457602307E+03  0.28457885692E+03  0.12700000000E+01 0.  1.
         25    2    1    2    0    0  0.00000000000E+00  0.00000000000E+00 -0.27088143072E+03  0.29833221141E+03  0.12500143542E+03 0.  0.
    9000005    1    3    3    0    0 -0.28199320973E+01  0.42003193956E+02 -0.25212511834E+02  0.49080455097E+02  0.10000000000E+01 0.  0.
    9000005    1    3    3    0    0  0.28199320973E+01 -0.42003193956E+02 -0.24566891889E+03  0.24925175632E+03  0.10000000000E+01 0.  0.
<mgrwt>
<rscale>  0 0.12500144E+03</rscale>
<asrwt>0</asrwt>
<pdfrwt beam="2">  1        4 0.43785660E-01 0.12500144E+03</pdfrwt>
<pdfrwt beam="1">  1       -4 0.21115987E-02 0.12500144E+03</pdfrwt>
<totfact> 0.75806106E+03</totfact>
</mgrwt>
</event>
<event>
 5    1  0.3281209E-002  0.1250005E+03  0.7818608E-02  0.1235069E+00
         -4   -1    0    0    0  501 -0.00000000000E+00  0.00000000000E+00  0.11809694446E+03  0.11810377298E+03  0.12700000000E+01 0.  1.
          4   -1    0    0  501    0  0.00000000000E+00 -0.00000000000E+00 -0.33056923108E+02  0.33081309910E+02  0.12700000000E+01 0.  1.
         25    2    1    2    0    0  0.00000000000E+00  0.00000000000E+00  0.85040021355E+02  0.15118508289E+03  0.12500049622E+03 0.  0.
    9000005    1    3    3    0    0 -0.35108528342E+02 -0.37436122362E+02  0.85642684730E+02  0.99848592717E+02  0.10000000000E+01 0.  0.
    9000005    1    3    3    0    0  0.35108528342E+02  0.37436122362E+02 -0.60266337453E+00  0.51336490171E+02  0.10000000000E+01 0.  0.
<mgrwt>
<rscale>  0 0.12500050E+03</rscale>
<asrwt>0</asrwt>
<pdfrwt beam="2">  1        4 0.50880816E-02 0.12500050E+03</pdfrwt>
<pdfrwt beam="1">  1       -4 0.18171162E-01 0.12500050E+03</pdfrwt>
<totfact> 0.99066886E+03</totfact>
</mgrwt>
</event>
<event>
 5    1  0.3281209E-002  0.1250015E+03  0.7818608E-02  0.1235067E+00
          4   -1    0    0  501    0  0.00000000000E+00  0.00000000000E+00  0.22045164429E+02  0.22081715846E+02  0.12700000000E+01 0.  1.
         -4   -1    0    0    0  501 -0.00000000000E+00 -0.00000000000E+00 -0.17701170320E+03  0.17701625905E+03  0.12700000000E+01 0.  1.
         25    2    1    2    0    0  0.00000000000E+00  0.00000000000E+00 -0.15496653877E+03  0.19909797490E+03  0.12500150187E+03 0.  0.
    9000005    1    3    3    0    0 -0.83969041627E+00  0.27280353600E+02 -0.16702471211E+03  0.16924295326E+03  0.10000000000E+01 0.  0.
    9000005    1    3    3    0    0  0.83969041627E+00 -0.27280353600E+02  0.12058173344E+02  0.29855021636E+02  0.10000000000E+01 0.  0.
<mgrwt>
<rscale>  0 0.12500150E+03</rscale>
<asrwt>0</asrwt>
<pdfrwt beam="1">  1        4 0.33947260E-02 0.12500150E+03</pdfrwt>
<pdfrwt beam="2">  1       -4 0.27235731E-01 0.12500150E+03</pdfrwt>
<totfact> 0.90284829E+03</totfact>
</mgrwt>
</event>
<event>
 5    1  0.3281209E-002  0.1250005E+03  0.7818608E-02  0.1235069E+00
          4   -1    0    0  501    0  0.00000000000E+00  0.00000000000E+00  0.49698273183E+02  0.49714497456E+02  0.12700000000E+01 0.  1.
         -4   -1    0    0    0  501 -0.00000000000E+00 -0.00000000000E+00 -0.78565732504E+02  0.78575996487E+02  0.12700000000E+01 0.  1.
         25    2    1    2    0    0  0.00000000000E+00  0.00000000000E+00 -0.28867459321E+02  0.12829049394E+03  0.12500048251E+03 0.  0.
    9000005    1    3    3    0    0  0.43080547245E+02 -0.33855345128E+02 -0.45277372623E+02  0.71085571084E+02  0.10000000000E+01 0.  0.
    9000005    1    3    3    0    0 -0.43080547245E+02  0.33855345128E+02  0.16409913302E+02  0.57204922859E+02  0.10000000000E+01 0.  0.
<mgrwt>
<rscale>  0 0.12500048E+03</rscale>
<asrwt>0</asrwt>
<pdfrwt beam="1">  1        4 0.76479258E-02 0.12500048E+03</pdfrwt>
<pdfrwt beam="2">  1       -4 0.12089073E-01 0.12500048E+03</pdfrwt>
<totfact> 0.10381106E+04</totfact>
</mgrwt>
</event>
<event>
 5    1  0.3281209E-002  0.1250010E+03  0.7818608E-02  0.1235068E+00
         -4   -1    0    0    0  501 -0.00000000000E+00  0.00000000000E+00  0.11095585094E+03  0.11096311891E+03  0.12700000000E+01 0.  1.
          4   -1    0    0  501    0  0.00000000000E+00 -0.00000000000E+00 -0.35186142220E+02  0.35209054294E+02  0.12700000000E+01 0.  1.
         25    2    1    2    0    0  0.00000000000E+00  0.00000000000E+00  0.75769708723E+02  0.14617217321E+03  0.12500102183E+03 0.  0.
    9000005    1    3    3    0    0 -0.41026265735E+02  0.41757789685E+02  0.63462924832E+02  0.86344717892E+02  0.10000000000E+01 0.  0.
    9000005    1    3    3    0    0  0.41026265735E+02 -0.41757789685E+02  0.12306783890E+02  0.59827455313E+02  0.10000000000E+01 0.  0.
<mgrwt>
<rscale>  0 0.12500102E+03</rscale>
<asrwt>0</asrwt>
<pdfrwt beam="2">  1        4 0.54155742E-02 0.12500102E+03</pdfrwt>
<pdfrwt beam="1">  1       -4 0.17072452E-01 0.12500102E+03</pdfrwt>
<totfact> 0.10006996E+04</totfact>
</mgrwt>
</event>
<event>
 5    1  0.3281209E-002  0.1250029E+03  0.7818608E-02  0.1235065E+00
          4   -1    0    0  501    0  0.00000000000E+00  0.00000000000E+00  0.23133718376E+03  0.23134066977E+03  0.12700000000E+01 0.  1.
         -4   -1    0    0    0  501 -0.00000000000E+00 -0.00000000000E+00 -0.16858821506E+02  0.16906589324E+02  0.12700000000E+01 0.  1.
         25    2    1    2    0    0  0.00000000000E+00  0.00000000000E+00  0.21447836226E+03  0.24824725910E+03  0.12500293506E+03 0.  0.
    9000005    1    3    3    0    0  0.24750927380E+02 -0.52235988842E+02  0.15441190935E+03  0.16487948534E+03  0.10000000000E+01 0.  0.
    9000005    1    3    3    0    0 -0.24750927380E+02  0.52235988842E+02  0.60066452904E+02  0.83367773755E+02  0.10000000000E+01 0.  0.
<mgrwt>
<rscale>  0 0.12500294E+03</rscale>
<asrwt>0</asrwt>
<pdfrwt beam="1">  1        4 0.35594276E-01 0.12500294E+03</pdfrwt>
<pdfrwt beam="2">  1       -4 0.25976077E-02 0.12500294E+03</pdfrwt>
<totfact> 0.82578816E+03</totfact>
</mgrwt>
</event>
<event>
 5    1  0.3281209E-002  0.1249989E+03  0.7818608E-02  0.1235071E+00
         -4   -1    0    0    0  501 -0.00000000000E+00  0.00000000000E+00  0.33792792978E+02  0.33816649114E+02  0.12700000000E+01 0.  1.
          4   -1    0    0  501    0  0.00000000000E+00 -0.00000000000E+00 -0.11552405013E+03  0.11553103071E+03  0.12700000000E+01 0.  1.
         25    2    1    2    0    0  0.00000000000E+00  0.00000000000E+00 -0.81731257149E+02  0.14934767983E+03  0.12499892429E+03 0.  0.
    9000005    1    3    3    0    0 -0.28435417944E+02  0.17076090899E+02 -0.10414467779E+03  0.10930361287E+03  0.10000000000E+01 0.  0.
    9000005    1    3    3    0    0  0.28435417944E+02 -0.17076090899E+02  0.22413420639E+02  0.40044066961E+02  0.10000000000E+01 0.  0.
<mgrwt>
<rscale>  0 0.12499892E+03</rscale>
<asrwt>0</asrwt>
<pdfrwt beam="2">  1        4 0.17775303E-01 0.12499892E+03</pdfrwt>
<pdfrwt beam="1">  1       -4 0.52012634E-02 0.12499892E+03</pdfrwt>
<totfact> 0.99436295E+03</totfact>
</mgrwt>
</event>
<event>
 5    1  0.3281209E-002  0.1249687E+03  0.7818608E-02  0.1235118E+00
         -4   -1    0    0    0  501 -0.00000000000E+00  0.00000000000E+00  0.13971372461E+03  0.13971949665E+03  0.12700000000E+01 0.  1.
          4   -1    0    0  501    0  0.00000000000E+00 -0.00000000000E+00 -0.27924166919E+02  0.27953032003E+02  0.12700000000E+01 0.  1.
         25    2    1    2    0    0  0.00000000000E+00  0.00000000000E+00  0.11178955769E+03  0.16767252865E+03  0.12496868270E+03 0.  0.
    9000005    1    3    3    0    0 -0.57454852497E+02 -0.20024216327E+02  0.74929360631E+02  0.96526879156E+02  0.10000000000E+01 0.  0.
    9000005    1    3    3    0    0  0.57454852497E+02  0.20024216327E+02  0.36860197058E+02  0.71145649496E+02  0.10000000000E+01 0.  0.
<mgrwt>
<rscale>  0 0.12496868E+03</rscale>
<asrwt>0</asrwt>
<pdfrwt beam="2">  1        4 0.42986901E-02 0.12496868E+03</pdfrwt>
<pdfrwt beam="1">  1       -4 0.21497084E-01 0.12496868E+03</pdfrwt>
<totfact> 0.95951107E+03</totfact>
</mgrwt>
</event>
<event>
 5    1  0.3281209E-002  0.1250007E+03  0.7818608E-02  0.1235068E+00
         -4   -1    0    0    0  501 -0.00000000000E+00  0.00000000000E+00  0.38814262342E+02  0.38835033940E+02  0.12700000000E+01 0.  1.
          4   -1    0    0  501    0  0.00000000000E+00 -0.00000000000E+00 -0.10058894683E+03  0.10059696379E+03  0.12700000000E+01 0.  1.
         25    2    1    2    0    0  0.00000000000E+00  0.00000000000E+00 -0.61774684488E+02  0.13943199773E+03  0.12500068139E+03 0.  0.
    9000005    1    3    3    0    0 -0.39238475900E+02  0.39857514991E+02 -0.61980457620E+02  0.83491655985E+02  0.10000000000E+01 0.  0.
    9000005    1    3    3    0    0  0.39238475900E+02 -0.39857514991E+02  0.20577313278E+00  0.55940341748E+02  0.10000000000E+01 0.  0.
<mgrwt>
<rscale>  0 0.12500068E+03</rscale>
<asrwt>0</asrwt>
<pdfrwt beam="2">  1        4 0.15477437E-01 0.12500068E+03</pdfrwt>
<pdfrwt beam="1">  1       -4 0.59736395E-02 0.12500068E+03</pdfrwt>
<totfact> 0.10145216E+04</totfact>
</mgrwt>
</event>
<event>
 5    1  0.3281209E-002  0.1249998E+03  0.7818608E-02  0.1235070E+00
         -4   -1    0    0    0  501 -0.00000000000E+00  0.00000000000E+00  0.16719899044E+02  0.16768062621E+02  0.12700000000E+01 0. -1.
          4   -1    0    0  501    0  0.00000000000E+00 -0.00000000000E+00 -0.23324229017E+03  0.23324574771E+03  0.12700000000E+01 0. -1.
         25    2    1    2    0    0  0.00000000000E+00  0.00000000000E+00 -0.21652239113E+03  0.25001381033E+03  0.12499983798E+03 0.  0.
    9000005    1    3    3    0    0  0.33877948047E+02 -0.28141890855E+02 -0.19693544777E+03  0.20180250735E+03  0.10000000000E+01 0.  0.
    9000005    1    3    3    0    0 -0.33877948047E+02  0.28141890855E+02 -0.19586943355E+02  0.48211302977E+02  0.10000000000E+01 0.  0.
<mgrwt>
<rscale>  0 0.12499984E+03</rscale>
<asrwt>0</asrwt>
<pdfrwt beam="2">  1        4 0.35887398E-01 0.12499984E+03</pdfrwt>
<pdfrwt beam="1">  1       -4 0.25762632E-02 0.12499984E+03</pdfrwt>
<totfact> 0.82328530E+03</totfact>
</mgrwt>
</event>
<event>
 5    1  0.3281209E-002  0.1249851E+03  0.7818608E-02  0.1235093E+00
         -4   -1    0    0    0  501 -0.00000000000E+00  0.00000000000E+00  0.37184991119E+03  0.37185207994E+03  0.12700000000E+01 0. -1.
          4   -1    0    0  501    0  0.00000000000E+00 -0.00000000000E+00 -0.10461801151E+02  0.10538604430E+02  0.12700000000E+01 0. -1.
         25    2    1    2    0    0  0.00000000000E+00  0.00000000000E+00  0.36138811004E+03  0.38239068437E+03  0.12498507676E+03 0.  0.
    9000005    1    3    3    0    0 -0.11781046736E+02 -0.60942366417E+02  0.20266117001E+03  0.21195592683E+03  0.10000000000E+01 0.  0.
    9000005    1    3    3    0    0  0.11781046736E+02  0.60942366417E+02  0.15872694003E+03  0.17043475754E+03  0.10000000000E+01 0.  0.
<mgrwt>
<rscale>  0 0.12498508E+03</rscale>
<asrwt>0</asrwt>
<pdfrwt beam="2">  1        4 0.16155827E-02 0.12498508E+03</pdfrwt>
<pdfrwt beam="1">  1       -4 0.57213752E-01 0.12498508E+03</pdfrwt>
<totfact> 0.66324123E+03</totfact>
</mgrwt>
</event>
<event>
 5    1  0.3281209E-002  0.1249839E+03  0.7818608E-02  0.1235094E+00
          4   -1    0    0  501    0  0.00000000000E+00  0.00000000000E+00  0.14582775725E+03  0.14583328730E+03  0.12700000000E+01 0. -1.
         -4   -1    0    0    0  501 -0.00000000000E+00 -0.00000000000E+00 -0.26758742376E+02  0.26788863238E+02  0.12700000000E+01 0. -1.
         25    2    1    2    0    0  0.00000000000E+00  0.00000000000E+00  0.11906901487E+03  0.17262215054E+03  0.12498390518E+03 0.  0.
    9000005    1    3    3    0    0 -0.30875006407E+02  0.41101584023E+02  0.10859250275E+03  0.12014964787E+03  0.10000000000E+01 0.  0.
    9000005    1    3    3    0    0  0.30875006407E+02 -0.41101584023E+02  0.10476512123E+02  0.52472502667E+02  0.10000000000E+01 0.  0.
<mgrwt>
<rscale>  0 0.12498391E+03</rscale>
<asrwt>0</asrwt>
<pdfrwt beam="1">  1        4 0.22437782E-01 0.12498391E+03</pdfrwt>
<pdfrwt beam="2">  1       -4 0.41194720E-02 0.12498391E+03</pdfrwt>
<totfact> 0.94996454E+03</totfact>
</mgrwt>
</event>
<event>
 5    1  0.3281209E-002  0.1250013E+03  0.7818608E-02  0.1235067E+00
         -4   -1    0    0    0  501 -0.00000000000E+00  0.00000000000E+00  0.11072728427E+04  0.11072735710E+04  0.12700000000E+01 0. -1.
          4   -1    0    0  501    0  0.00000000000E+00 -0.00000000000E+00 -0.34128372849E+01  0.36414774932E+01  0.12700000000E+01 0. -1.
         25    2    1    2    0    0  0.00000000000E+00  0.00000000000E+00  0.11038600054E+04  0.11109150485E+04  0.12500133383E+03 0.  0.
    9000005    1    3    3    0    0  0.39372132625E+02 -0.27558994468E+02  0.90693771820E+03  0.90821070666E+03  0.10000000000E+01 0.  0.
    9000005    1    3    3    0    0 -0.39372132625E+02  0.27558994468E+02  0.19692228724E+03  0.20270434188E+03  0.10000000000E+01 0.  0.
<mgrwt>
<rscale>  0 0.12500133E+03</rscale>
<asrwt>0</asrwt>
<pdfrwt beam="2">  1        4 0.54269552E-03 0.12500133E+03</pdfrwt>
<pdfrwt beam="1">  1       -4 0.17036735E+00 0.12500133E+03</pdfrwt>
<totfact> 0.27165323E+03</totfact>
</mgrwt>
</event>
<event>
 5    1  0.3281209E-002  0.1250014E+03  0.7818608E-02  0.1235067E+00
          4   -1    0    0  501    0  0.00000000000E+00  0.00000000000E+00  0.31554261143E+03  0.31554516718E+03  0.12700000000E+01 0.  1.
         -4   -1    0    0    0  501 -0.00000000000E+00 -0.00000000000E+00 -0.12344566164E+02  0.12409722550E+02  0.12700000000E+01 0.  1.
         25    2    1    2    0    0  0.00000000000E+00  0.00000000000E+00  0.30319804527E+03  0.32795488973E+03  0.12500142016E+03 0.  0.
    9000005    1    3    3    0    0 -0.41531253343E+02  0.40626239732E+02  0.21199918167E+03  0.21981808248E+03  0.10000000000E+01 0.  0.
    9000005    1    3    3    0    0  0.41531253343E+02 -0.40626239732E+02  0.91198863600E+02  0.10813680724E+03  0.10000000000E+01 0.  0.
<mgrwt>
<rscale>  0 0.12500142E+03</rscale>
<asrwt>0</asrwt>
<pdfrwt beam="1">  1        4 0.48550234E-01 0.12500142E+03</pdfrwt>
<pdfrwt beam="2">  1       -4 0.19043723E-02 0.12500142E+03</pdfrwt>
<totfact> 0.72217600E+03</totfact>
</mgrwt>
</event>
<event>
 5    1  0.3281209E-002  0.1249987E+03  0.7818608E-02  0.1235071E+00
          4   -1    0    0  501    0  0.00000000000E+00  0.00000000000E+00  0.28289639507E+03  0.28289924574E+03  0.12700000000E+01 0. -1.
         -4   -1    0    0    0  501 -0.00000000000E+00 -0.00000000000E+00 -0.13775650670E+02  0.13834068504E+02  0.12700000000E+01 0. -1.
         25    2    1    2    0    0  0.00000000000E+00  0.00000000000E+00  0.26912074440E+03  0.29673331425E+03  0.12499873887E+03 0.  0.
    9000005    1    3    3    0    0  0.41008707282E+02 -0.10464884726E+02  0.25414493240E+02  0.49377366798E+02  0.10000000000E+01 0.  0.
    9000005    1    3    3    0    0 -0.41008707282E+02  0.10464884726E+02  0.24370625116E+03  0.24735594745E+03  0.10000000000E+01 0.  0.
<mgrwt>
<rscale>  0 0.12499874E+03</rscale>
<asrwt>0</asrwt>
<pdfrwt beam="1">  1        4 0.43527234E-01 0.12499874E+03</pdfrwt>
<pdfrwt beam="2">  1       -4 0.21240439E-02 0.12499874E+03</pdfrwt>
<totfact> 0.76012569E+03</totfact>
</mgrwt>
</event>
<event>
 5    1  0.3281209E-002  0.1250016E+03  0.7818608E-02  0.1235067E+00
          4   -1    0    0  501    0  0.00000000000E+00  0.00000000000E+00  0.52247673444E+03  0.52247827795E+03  0.12700000000E+01 0.  1.
         -4   -1    0    0    0  501 -0.00000000000E+00 -0.00000000000E+00 -0.74211005227E+01  0.75289861846E+01  0.12700000000E+01 0.  1.
         25    2    1    2    0    0  0.00000000000E+00  0.00000000000E+00  0.51505563392E+03  0.53000726414E+03  0.12500157602E+03 0.  0.
    9000005    1    3    3    0    0  0.58230594615E+02 -0.13492912379E+02  0.33484109800E+03  0.34013588717E+03  0.10000000000E+01 0.  0.
    9000005    1    3    3    0    0 -0.58230594615E+02  0.13492912379E+02  0.18021453592E+03  0.18987137697E+03  0.10000000000E+01 0.  0.
<mgrwt>
<rscale>  0 0.12500158E+03</rscale>
<asrwt>0</asrwt>
<pdfrwt beam="1">  1        4 0.80389469E-01 0.12500158E+03</pdfrwt>
<pdfrwt beam="2">  1       -4 0.11501252E-02 0.12500158E+03</pdfrwt>
<totfact> 0.53607224E+03</totfact>
</mgrwt>
</event>
<event>
 5    1  0.3281209E-002  0.1249970E+03  0.7818608E-02  0.1235074E+00
          4   -1    0    0  501    0  0.00000000000E+00  0.00000000000E+00  0.42311301489E+01  0.44176195329E+01  0.12700000000E+01 0. -1.
         -4   -1    0    0    0  501 -0.00000000000E+00 -0.00000000000E+00 -0.90307937200E+03  0.90308026500E+03  0.12700000000E+01 0. -1.
         25    2    1    2    0    0  0.00000000000E+00  0.00000000000E+00 -0.89884824185E+03  0.90749788453E+03  0.12499699417E+03 0.  0.
    9000005    1    3    3    0    0 -0.52987843799E+02 -0.69873567158E+01 -0.21433315391E+03  0.22089869988E+03  0.10000000000E+01 0.  0.
    9000005    1    3    3    0    0  0.52987843799E+02  0.69873567158E+01 -0.68451508794E+03  0.68659918465E+03  0.10000000000E+01 0.  0.
<mgrwt>
<rscale>  0 0.12499699E+03</rscale>
<asrwt>0</asrwt>
<pdfrwt beam="1">  1        4 0.66535785E-03 0.12499699E+03</pdfrwt>
<pdfrwt beam="2">  1       -4 0.13894955E+00 0.12499699E+03</pdfrwt>
<totfact> 0.33876697E+03</totfact>
</mgrwt>
</event>
<event>
 5    1  0.3281209E-002  0.1250020E+03  0.7818608E-02  0.1235066E+00
         -4   -1    0    0    0  501 -0.00000000000E+00  0.00000000000E+00  0.34722842407E+02  0.34746059990E+02  0.12700000000E+01 0. -1.
          4   -1    0    0  501    0  0.00000000000E+00 -0.00000000000E+00 -0.11243710948E+03  0.11244428170E+03  0.12700000000E+01 0. -1.
         25    2    1    2    0    0  0.00000000000E+00  0.00000000000E+00 -0.77714267069E+02  0.14719034169E+03  0.12500195751E+03 0.  0.
    9000005    1    3    3    0    0 -0.58566591150E+02  0.16872592795E+02 -0.22598943298E+02  0.65011093090E+02  0.10000000000E+01 0.  0.
    9000005    1    3    3    0    0  0.58566591150E+02 -0.16872592795E+02 -0.55115323771E+02  0.82179248603E+02  0.10000000000E+01 0.  0.
<mgrwt>
<rscale>  0 0.12500196E+03</rscale>
<asrwt>0</asrwt>
<pdfrwt beam="2">  1        4 0.17300354E-01 0.12500196E+03</pdfrwt>
<pdfrwt beam="1">  1       -4 0.53443135E-02 0.12500196E+03</pdfrwt>
<totfact> 0.99862338E+03</totfact>
</mgrwt>
</event>
<event>
 5    1  0.3281209E-002  0.1250010E+03  0.7818608E-02  0.1235068E+00
          4   -1    0    0  501    0  0.00000000000E+00  0.00000000000E+00  0.48143326829E+02  0.48160074940E+02  0.12700000000E+01 0.  1.
         -4   -1    0    0    0  501 -0.00000000000E+00 -0.00000000000E+00 -0.81103400804E+02  0.81113343674E+02  0.12700000000E+01 0.  1.
         25    2    1    2    0    0  0.00000000000E+00  0.00000000000E+00 -0.32960073975E+02  0.12927341861E+03  0.12500100113E+03 0.  0.
    9000005    1    3    3    0    0 -0.14078955108E+02  0.51911718921E+02  0.16423585828E+02  0.56247468474E+02  0.10000000000E+01 0.  0.
    9000005    1    3    3    0    0  0.14078955108E+02 -0.51911718921E+02 -0.49383659803E+02  0.73025950139E+02  0.10000000000E+01 0.  0.
<mgrwt>
<rscale>  0 0.12500100E+03</rscale>
<asrwt>0</asrwt>
<pdfrwt beam="1">  1        4 0.74087188E-02 0.12500100E+03</pdfrwt>
<pdfrwt beam="2">  1       -4 0.12479499E-01 0.12500100E+03</pdfrwt>
<totfact> 0.10359841E+04</totfact>
</mgrwt>
</event>
<event>
 5    1  0.3281209E-002  0.1250037E+03  0.7818608E-02  0.1235063E+00
         -4   -1    0    0    0  501 -0.00000000000E+00  0.00000000000E+00  0.87000961948E+02  0.87010230892E+02  0.12700000000E+01 0. -1.
          4   -1    0    0  501    0  0.00000000000E+00 -0.00000000000E+00 -0.44880949166E+02  0.44898914219E+02  0.12700000000E+01 0. -1.
         25    2    1    2    0    0  0.00000000000E+00  0.00000000000E+00  0.42120012782E+02  0.13190914511E+03  0.12500370829E+03 0.  0.
    9000005    1    3    3    0    0  0.30924105315E+02  0.34198574629E+02  0.65576193922E+02  0.80169071377E+02  0.10000000000E+01 0.  0.
    9000005    1    3    3    0    0 -0.30924105315E+02 -0.34198574629E+02 -0.23456181140E+02  0.51740073733E+02  0.10000000000E+01 0.  0.
<mgrwt>
<rscale>  0 0.12500371E+03</rscale>
<asrwt>0</asrwt>
<pdfrwt beam="2">  1        4 0.69068564E-02 0.12500371E+03</pdfrwt>
<pdfrwt beam="1">  1       -4 0.13386858E-01 0.12500371E+03</pdfrwt>
<totfact> 0.10302776E+04</totfact>
</mgrwt>
</event>
<event>
 5    1  0.3281209E-002  0.1250239E+03  0.7818608E-02  0.1235032E+00
         -4   -1    0    0    0  501 -0.00000000000E+00  0.00000000000E+00  0.46672037804E+01  0.48369092536E+01  0.12700000000E+01 0.  1.
          4   -1    0    0  501    0  0.00000000000E+00 -0.00000000000E+00 -0.82215716512E+03  0.82215814601E+03  0.12700000000E+01 0.  1.
         25    2    1    2    0    0  0.00000000000E+00  0.00000000000E+00 -0.81748996134E+03  0.82699505527E+03  0.12502393590E+03 0.  0.
    9000005    1    3    3    0    0  0.20461985678E+02 -0.35482414158E+02 -0.96446548811E+02  0.10478850772E+03  0.10000000000E+01 0.  0.
    9000005    1    3    3    0    0 -0.20461985678E+02  0.35482414158E+02 -0.72104341253E+03  0.72220654755E+03  0.10000000000E+01 0.  0.
<mgrwt>
<rscale>  0 0.12502394E+03</rscale>
<asrwt>0</asrwt>
<pdfrwt beam="2">  1        4 0.12649873E+00 0.12502394E+03</pdfrwt>
<pdfrwt beam="1">  1       -4 0.73116173E-03 0.12502394E+03</pdfrwt>
<totfact> 0.37068274E+03</totfact>
</mgrwt>
</event>
<event>
 5    1  0.3281209E-002  0.1250009E+03  0.7818608E-02  0.1235068E+00
          4   -1    0    0  501    0  0.00000000000E+00  0.00000000000E+00  0.51299922221E+03  0.51300079424E+03  0.12700000000E+01 0.  1.
         -4   -1    0    0    0  501 -0.00000000000E+00 -0.00000000000E+00 -0.75600905293E+01  0.76660204025E+01  0.12700000000E+01 0.  1.
         25    2    1    2    0    0  0.00000000000E+00  0.00000000000E+00  0.50543913168E+03  0.52066681464E+03  0.12500086413E+03 0.  0.
    9000005    1    3    3    0    0 -0.41127053183E+02  0.45624653877E+02  0.20481665516E+03  0.21383148921E+03  0.10000000000E+01 0.  0.
    9000005    1    3    3    0    0  0.41127053183E+02 -0.45624653877E+02  0.30062247652E+03  0.30683532543E+03  0.10000000000E+01 0.  0.
<mgrwt>
<rscale>  0 0.12500086E+03</rscale>
<asrwt>0</asrwt>
<pdfrwt beam="1">  1        4 0.78931237E-01 0.12500086E+03</pdfrwt>
<pdfrwt beam="2">  1       -4 0.11713601E-02 0.12500086E+03</pdfrwt>
<totfact> 0.54294751E+03</totfact>
</mgrwt>
</event>
<event>
 5    1  0.3281209E-002  0.1249917E+03  0.7818608E-02  0.1235082E+00
          4   -1    0    0  501    0  0.00000000000E+00  0.00000000000E+00  0.59162777568E+01  0.60510530072E+01  0.12700000000E+01 0. -1.
         -4   -1    0    0    0  501 -0.00000000000E+00 -0.00000000000E+00 -0.65259670539E+03  0.65259794114E+03  0.12700000000E+01 0. -1.
         25    2    1    2    0    0  0.00000000000E+00  0.00000000000E+00 -0.64668042763E+03  0.65864899415E+03  0.12499168778E+03 0.  0.
    9000005    1    3    3    0    0  0.25809879735E+02 -0.50962696045E+02 -0.18988607812E+03  0.19829540828E+03  0.10000000000E+01 0.  0.
    9000005    1    3    3    0    0 -0.25809879735E+02  0.50962696045E+02 -0.45679434951E+03  0.46035358587E+03  0.10000000000E+01 0.  0.
<mgrwt>
<rscale>  0 0.12499169E+03</rscale>
<asrwt>0</asrwt>
<pdfrwt beam="1">  1        4 0.92065948E-03 0.12499169E+03</pdfrwt>
<pdfrwt beam="2">  1       -4 0.10040990E+00 0.12499169E+03</pdfrwt>
<totfact> 0.45369364E+03</totfact>
</mgrwt>
</event>
<event>
 5    1  0.3281209E-002  0.1250026E+03  0.7818608E-02  0.1235065E+00
          4   -1    0    0  501    0  0.00000000000E+00  0.00000000000E+00  0.32736689951E+03  0.32736936295E+03  0.12700000000E+01 0. -1.
         -4   -1    0    0    0  501 -0.00000000000E+00 -0.00000000000E+00 -0.11896511841E+02  0.11964108574E+02  0.12700000000E+01 0. -1.
         25    2    1    2    0    0  0.00000000000E+00  0.00000000000E+00  0.31547038767E+03  0.33933347152E+03  0.12500255756E+03 0.  0.
    9000005    1    3    3    0    0  0.54164560870E+02 -0.31122011542E+02  0.16246095297E+03  0.17406016344E+03  0.10000000000E+01 0.  0.
    9000005    1    3    3    0    0 -0.54164560870E+02  0.31122011542E+02  0.15300943470E+03  0.16527330808E+03  0.10000000000E+01 0.  0.
<mgrwt>
<rscale>  0 0.12500256E+03</rscale>
<asrwt>0</asrwt>
<pdfrwt beam="1">  1        4 0.50369532E-01 0.12500256E+03</pdfrwt>
<pdfrwt beam="2">  1       -4 0.18356217E-02 0.12500256E+03</pdfrwt>
<totfact> 0.70910146E+03</totfact>
</mgrwt>
</event>
<event>
 5    1  0.3281209E-002  0.1250053E+03  0.7818608E-02  0.1235061E+00
         -4   -1    0    0    0  501 -0.00000000000E+00  0.00000000000E+00  0.10505684608E+03  0.10506452212E+03  0.12700000000E+01 0.  1.
          4   -1    0    0  501    0  0.00000000000E+00 -0.00000000000E+00 -0.37165548039E+02  0.37187240567E+02  0.12700000000E+01 0.  1.
         25    2    1    2    0    0  0.00000000000E+00  0.00000000000E+00  0.67891298039E+02  0.14225176268E+03  0.12500534244E+03 0.  0.
    9000005    1    3    3    0    0  0.42197076145E+02 -0.24050346910E+02 -0.10806519262E+02  0.49767391737E+02  0.10000000000E+01 0.  0.
    9000005    1    3    3    0    0 -0.42197076145E+02  0.24050346910E+02  0.78697817301E+02  0.92484370948E+02  0.10000000000E+01 0.  0.
<mgrwt>
<rscale>  0 0.12500534E+03</rscale>
<asrwt>0</asrwt>
<pdfrwt beam="2">  1        4 0.57200359E-02 0.12500534E+03</pdfrwt>
<pdfrwt beam="1">  1       -4 0.16164850E-01 0.12500534E+03</pdfrwt>
<totfact> 0.10085915E+04</totfact>
</mgrwt>
</event>
<event>
 4    1  0.3281209E-002  0.1249358E+03  0.7818608E-02  0.1235170E+00
         -4   -1    0    0    0  501 -0.00000000000E+00  0.00000000000E+00  0.11206139130E+04  0.11206146327E+04  0.12700000000E+01 0.  1.
          4   -1    0    0  501    0  0.00000000000E+00 -0.00000000000E+00 -0.33656943037E+01  0.35973320873E+01  0.12700000000E+01 0.  1.
    9000005    1    1    2    0    0 -0.13222935184E+02 -0.41512126526E+02  0.96135651407E+03  0.96234372747E+03  0.10000000000E+01 0.  0.
    9000005    1    1    2    0    0  0.13222935184E+02  0.41512126526E+02  0.15589170464E+03  0.16186823727E+03  0.10000000000E+01 0.  0.
<mgrwt>
<rscale>  0 0.12493582E+03</rscale>
<asrwt>0</asrwt>
<pdfrwt beam="2">  1        4 0.53567266E-03 0.12493582E+03</pdfrwt>
<pdfrwt beam="1">  1       -4 0.17242005E+00 0.12493582E+03</pdfrwt>
<totfact> 0.26822886E+03</totfact>
</mgrwt>
</event>
<event>
 5    1  0.3281209E-002  0.1250580E+03  0.7818608E-02  0.1234979E+00
          4   -1    0    0  501    0  0.00000000000E+00  0.00000000000E+00  0.26525327077E+03  0.26525631105E+03  0.12700000000E+01 0. -1.
         -4   -1    0    0    0  501 -0.00000000000E+00 -0.00000000000E+00 -0.14709680460E+02  0.14764403111E+02  0.12700000000E+01 0. -1.
         25    2    1    2    0    0  0.00000000000E+00  0.00000000000E+00  0.25054359031E+03  0.28002071416E+03  0.12505802540E+03 0.  0.
    9000005    1    3    3    0    0  0.76499764398E+01  0.26791708074E+02 -0.50479180442E-01  0.27880464652E+02  0.10000000000E+01 0.  0.
    9000005    1    3    3    0    0 -0.76499764398E+01 -0.26791708074E+02  0.25059406949E+03  0.25214024951E+03  0.10000000000E+01 0.  0.
<mgrwt>
<rscale>  0 0.12505803E+03</rscale>
<asrwt>0</asrwt>
<pdfrwt beam="1">  1        4 0.40812639E-01 0.12505803E+03</pdfrwt>
<pdfrwt beam="2">  1       -4 0.22674711E-02 0.12505803E+03</pdfrwt>
<totfact> 0.78074612E+03</totfact>
</mgrwt>
</event>
<event>
 5    1  0.3281209E-002  0.1249776E+03  0.7818608E-02  0.1235104E+00
          4   -1    0    0  501    0  0.00000000000E+00  0.00000000000E+00  0.23426639871E+03  0.23426984114E+03  0.12700000000E+01 0.  1.
         -4   -1    0    0    0  501 -0.00000000000E+00 -0.00000000000E+00 -0.16640665979E+02  0.16689058219E+02  0.12700000000E+01 0.  1.
         25    2    1    2    0    0  0.00000000000E+00  0.00000000000E+00  0.21762573273E+03  0.25095889935E+03  0.12497763647E+03 0.  0.
    9000005    1    3    3    0    0  0.23567632265E+02  0.15010553466E+02  0.22103109413E+03  0.22279249220E+03  0.10000000000E+01 0.  0.
    9000005    1    3    3    0    0 -0.23567632265E+02 -0.15010553466E+02 -0.34053613982E+01  0.28166407158E+02  0.10000000000E+01 0.  0.
<mgrwt>
<rscale>  0 0.12497764E+03</rscale>
<asrwt>0</asrwt>
<pdfrwt beam="1">  1        4 0.36044970E-01 0.12497764E+03</pdfrwt>
<pdfrwt beam="2">  1       -4 0.25640898E-02 0.12497764E+03</pdfrwt>
<totfact> 0.82232791E+03</totfact>
</mgrwt>
</event>
<event>
 5    1  0.3281209E-002  0.1249991E+03  0.7818608E-02  0.1235071E+00
         -4   -1    0    0    0  501 -0.00000000000E+00  0.00000000000E+00  0.11592637462E+02  0.11661995683E+02  0.12700000000E+01 0. -1.
          4   -1    0    0  501    0  0.00000000000E+00 -0.00000000000E+00 -0.33587892736E+03  0.33588132837E+03  0.12700000000E+01 0. -1.
         25    2    1    2    0    0  0.00000000000E+00  0.00000000000E+00 -0.32428628990E+03  0.34754332405E+03  0.12499905710E+03 0.  0.
    9000005    1    3    3    0    0 -0.29185565644E+02 -0.26409798231E+02 -0.27190267242E+02  0.47849611464E+02  0.10000000000E+01 0.  0.
    9000005    1    3    3    0    0  0.29185565644E+02  0.26409798231E+02 -0.29709602266E+03  0.29969371259E+03  0.10000000000E+01 0.  0.
<mgrwt>
<rscale>  0 0.12499906E+03</rscale>
<asrwt>0</asrwt>
<pdfrwt beam="2">  1        4 0.51679194E-01 0.12499906E+03</pdfrwt>
<pdfrwt beam="1">  1       -4 0.17890029E-02 0.12499906E+03</pdfrwt>
<totfact> 0.69997132E+03</totfact>
</mgrwt>
</event>
<event>
 5    1  0.3281209E-002  0.1250040E+03  0.7818608E-02  0.1235063E+00
          4   -1    0    0  501    0  0.00000000000E+00  0.00000000000E+00  0.64928503857E+02  0.64940923254E+02  0.12700000000E+01 0.  1.
         -4   -1    0    0    0  501 -0.00000000000E+00 -0.00000000000E+00 -0.60141261298E+02  0.60154669067E+02  0.12700000000E+01 0.  1.
         25    2    1    2    0    0  0.00000000000E+00  0.00000000000E+00  0.47872425588E+01  0.12509559232E+03  0.12500395804E+03 0.  0.
    9000005    1    3    3    0    0  0.10218232507E+02  0.56612124187E+02 -0.22040511443E+02  0.61612734278E+02  0.10000000000E+01 0.  0.
    9000005    1    3    3    0    0 -0.10218232507E+02 -0.56612124187E+02  0.26827754002E+02  0.63482858043E+02  0.10000000000E+01 0.  0.
<mgrwt>
<rscale>  0 0.12500396E+03</rscale>
<asrwt>0</asrwt>
<pdfrwt beam="1">  1        4 0.99909873E-02 0.12500396E+03</pdfrwt>
<pdfrwt beam="2">  1       -4 0.92544884E-02 0.12500396E+03</pdfrwt>
<totfact> 0.10449852E+04</totfact>
</mgrwt>
</event>
<event>
 5    1  0.3281209E-002  0.1249857E+03  0.7818608E-02  0.1235092E+00
         -4   -1    0    0    0  501 -0.00000000000E+00  0.00000000000E+00  0.92681518249E+01  0.93547601920E+01  0.12700000000E+01 0. -1.
          4   -1    0    0  501    0  0.00000000000E+00 -0.00000000000E+00 -0.41932640187E+03  0.41932832507E+03  0.12700000000E+01 0. -1.
         25    2    1    2    0    0  0.00000000000E+00  0.00000000000E+00 -0.41005825005E+03  0.42868308526E+03  0.12498567582E+03 0.  0.
    9000005    1    3    3    0    0 -0.38427227779E+02  0.46297633964E+02 -0.14720452676E+03  0.15902922827E+03  0.10000000000E+01 0.  0.
    9000005    1    3    3    0    0  0.38427227779E+02 -0.46297633964E+02 -0.26285372329E+03  0.26965385699E+03  0.10000000000E+01 0.  0.
<mgrwt>
<rscale>  0 0.12498568E+03</rscale>
<asrwt>0</asrwt>
<pdfrwt beam="2">  1        4 0.64518550E-01 0.12498568E+03</pdfrwt>
<pdfrwt beam="1">  1       -4 0.14326800E-02 0.12498568E+03</pdfrwt>
<totfact> 0.61875091E+03</totfact>
</mgrwt>
</event>
<event>
 5    1  0.3281209E-002  0.1250011E+03  0.7818608E-02  0.1235068E+00
          4   -1    0    0  501    0  0.00000000000E+00  0.00000000000E+00  0.57329436500E+01  0.58719283795E+01  0.12700000000E+01 0.  1.
         -4   -1    0    0    0  501 -0.00000000000E+00 -0.00000000000E+00 -0.67308081717E+03  0.67308201532E+03  0.12700000000E+01 0.  1.
         25    2    1    2    0    0  0.00000000000E+00  0.00000000000E+00 -0.66734787352E+03  0.67895394370E+03  0.12500109347E+03 0.  0.
    9000005    1    3    3    0    0 -0.94378536558E+01 -0.54708107455E+02 -0.17782738997E+03  0.18629447315E+03  0.10000000000E+01 0.  0.
    9000005    1    3    3    0    0  0.94378536558E+01  0.54708107455E+02 -0.48952048355E+03  0.49265947055E+03  0.10000000000E+01 0.  0.
<mgrwt>
<rscale>  0 0.12500109E+03</rscale>
<asrwt>0</asrwt>
<pdfrwt beam="1">  1        4 0.89277516E-03 0.12500109E+03</pdfrwt>
<pdfrwt beam="2">  1       -4 0.10356162E+00 0.12500109E+03</pdfrwt>
<totfact> 0.44220184E+03</totfact>
</mgrwt>
</event>
<event>
 5    1  0.3281209E-002  0.1250006E+03  0.7818608E-02  0.1235068E+00
          4   -1    0    0  501    0  0.00000000000E+00  0.00000000000E+00  0.26425045318E+01  0.29318475746E+01  0.12700000000E+01 0.  1.
         -4   -1    0    0    0  501 -0.00000000000E+00 -0.00000000000E+00 -0.14012318713E+04  0.14012324468E+04  0.12700000000E+01 0.  1.
         25    2    1    2    0    0  0.00000000000E+00  0.00000000000E+00 -0.13985893667E+04  0.14041642944E+04  0.12500059536E+03 0.  0.
    9000005    1    3    3    0    0  0.93083226244E+01 -0.61647398686E+02 -0.65131856457E+03  0.65429650709E+03  0.10000000000E+01 0.  0.
    9000005    1    3    3    0    0 -0.93083226244E+01  0.61647398686E+02 -0.74727080217E+03  0.74986778729E+03  0.10000000000E+01 0.  0.
<mgrwt>
<rscale>  0 0.12500060E+03</rscale>
<asrwt>0</asrwt>
<pdfrwt beam="1">  1        4 0.42884171E-03 0.12500060E+03</pdfrwt>
<pdfrwt beam="2">  1       -4 0.21559587E+00 0.12500060E+03</pdfrwt>
<totfact> 0.19891557E+03</totfact>
</mgrwt>
</event>
<event>
 5    1  0.3281209E-002  0.1249902E+03  0.7818608E-02  0.1235085E+00
          4   -1    0    0  501    0  0.00000000000E+00  0.00000000000E+00  0.13228355645E+04  0.13228361741E+04  0.12700000000E+01 0.  1.
         -4   -1    0    0    0  501 -0.00000000000E+00 -0.00000000000E+00 -0.28152612015E+01  0.30884616935E+01  0.12700000000E+01 0.  1.
         25    2    1    2    0    0  0.00000000000E+00  0.00000000000E+00  0.13200203033E+04  0.13259246358E+04  0.12499015474E+03 0.  0.
    9000005    1    3    3    0    0 -0.32449596723E+02 -0.53257826360E+02  0.70145332664E+03  0.70422094676E+03  0.10000000000E+01 0.  0.
    9000005    1    3    3    0    0  0.32449596723E+02  0.53257826360E+02  0.61856697665E+03  0.62170368906E+03  0.10000000000E+01 0.  0.
<mgrwt>
<rscale>  0 0.12499015E+03</rscale>
<asrwt>0</asrwt>
<pdfrwt beam="1">  1        4 0.20353380E+00 0.12499015E+03</pdfrwt>
<pdfrwt beam="2">  1       -4 0.45418038E-03 0.12499015E+03</pdfrwt>
<totfact> 0.21629516E+03</totfact>
</mgrwt>
</event>
<event>
 5    1  0.3281209E-002  0.1249982E+03  0.7818608E-02  0.1235072E+00
          4   -1    0    0  501    0  0.00000000000E+00  0.00000000000E+00  0.27373424604E+03  0.27373719213E+03  0.12700000000E+01 0.  1.
         -4   -1    0    0    0  501 -0.00000000000E+00 -0.00000000000E+00 -0.14238526151E+02  0.14295052534E+02  0.12700000000E+01 0.  1.
         25    2    1    2    0    0  0.00000000000E+00  0.00000000000E+00  0.25949571989E+03  0.28803224466E+03  0.12499818129E+03 0.  0.
    9000005    1    3    3    0    0 -0.15788930689E+02 -0.58312806194E+02  0.16657780803E+03  0.17719717782E+03  0.10000000000E+01 0.  0.
    9000005    1    3    3    0    0  0.15788930689E+02  0.58312806194E+02  0.92917911852E+02  0.11083506684E+03  0.10000000000E+01 0.  0.
<mgrwt>
<rscale>  0 0.12499818E+03</rscale>
<asrwt>0</asrwt>
<pdfrwt beam="1">  1        4 0.42117534E-01 0.12499818E+03</pdfrwt>
<pdfrwt beam="2">  1       -4 0.21951174E-02 0.12499818E+03</pdfrwt>
<totfact> 0.77128118E+03</totfact>
</mgrwt>
</event>
<event>
 5    1  0.3281209E-002  0.1250040E+03  0.7818608E-02  0.1235063E+00
          4   -1    0    0  501    0  0.00000000000E+00  0.00000000000E+00  0.85148137469E+02  0.85157608084E+02  0.12700000000E+01 0. -1.
         -4   -1    0    0    0  501 -0.00000000000E+00 -0.00000000000E+00 -0.45858057118E+02  0.45875639533E+02  0.12700000000E+01 0. -1.
         25    2    1    2    0    0  0.00000000000E+00  0.00000000000E+00  0.39290080352E+02  0.13103324762E+03  0.12500400620E+03 0.  0.
    9000005    1    3    3    0    0  0.46019783629E+02 -0.27032753725E+02  0.53723236769E+02  0.75734908913E+02  0.10000000000E+01 0.  0.
    9000005    1    3    3    0    0 -0.46019783629E+02  0.27032753725E+02 -0.14433156417E+02  0.55298338704E+02  0.10000000000E+01 0.  0.
<mgrwt>
<rscale>  0 0.12500401E+03</rscale>
<asrwt>0</asrwt>
<pdfrwt beam="1">  1        4 0.13101795E-01 0.12500401E+03</pdfrwt>
<pdfrwt beam="2">  1       -4 0.70571667E-02 0.12500401E+03</pdfrwt>
<totfact> 0.10321444E+04</totfact>
</mgrwt>
</event>
<event>
 5    1  0.3281209E-002  0.1250007E+03  0.7818608E-02  0.1235068E+00
         -4   -1    0    0    0  501 -0.00000000000E+00  0.00000000000E+00  0.10373868129E+02  0.10451317618E+02  0.12700000000E+01 0.  1.
          4   -1    0    0  501    0  0.00000000000E+00 -0.00000000000E+00 -0.37507214146E+03  0.37507429158E+03  0.12700000000E+01 0.  1.
         25    2    1    2    0    0  0.00000000000E+00  0.00000000000E+00 -0.36469827333E+03  0.38552560919E+03  0.12500065909E+03 0.  0.
    9000005    1    3    3    0    0  0.45232886444E+02 -0.42927025715E+02 -0.19489524302E+03  0.20463112985E+03  0.10000000000E+01 0.  0.
    9000005    1    3    3    0    0 -0.45232886444E+02  0.42927025715E+02 -0.16980303032E+03  0.18089447934E+03  0.10000000000E+01 0.  0.
<mgrwt>
<rscale>  0 0.12500066E+03</rscale>
<asrwt>0</asrwt>
<pdfrwt beam="2">  1        4 0.57709519E-01 0.12500066E+03</pdfrwt>
<pdfrwt beam="1">  1       -4 0.16021030E-02 0.12500066E+03</pdfrwt>
<totfact> 0.65984368E+03</totfact>
</mgrwt>
</event>
<event>
 5    1  0.3281209E-002  0.1249987E+03  0.7818608E-02  0.1235071E+00
         -4   -1    0    0    0  501 -0.00000000000E+00  0.00000000000E+00  0.66625024209E+01  0.67824655185E+01  0.12700000000E+01 0. -1.
          4   -1    0    0  501    0  0.00000000000E+00 -0.00000000000E+00 -0.58093996341E+03  0.58094135159E+03  0.12700000000E+01 0. -1.
         25    2    1    2    0    0  0.00000000000E+00  0.00000000000E+00 -0.57427746099E+03  0.58772381711E+03  0.12499873198E+03 0.  0.
    9000005    1    3    3    0    0  0.10051091509E+02 -0.48189349554E+02 -0.46814013829E+03  0.47072223968E+03  0.10000000000E+01 0.  0.
    9000005    1    3    3    0    0 -0.10051091509E+02  0.48189349554E+02 -0.10613732270E+03  0.11700157742E+03  0.10000000000E+01 0.  0.
<mgrwt>
<rscale>  0 0.12499873E+03</rscale>
<asrwt>0</asrwt>
<pdfrwt beam="2">  1        4 0.89384674E-01 0.12499873E+03</pdfrwt>
<pdfrwt beam="1">  1       -4 0.10343355E-02 0.12499873E+03</pdfrwt>
<totfact> 0.49653199E+03</totfact>
</mgrwt>
</event>
<event>
 5    1  0.3281209E-002  0.1250040E+03  0.7818608E-02  0.1235063E+00
         -4   -1    0    0    0  501 -0.00000000000E+00  0.00000000000E+00  0.95598039035E+02  0.95606474506E+02  0.12700000000E+01 0. -1.
          4   -1    0    0  501    0  0.00000000000E+00 -0.00000000000E+00 -0.40843699220E+02  0.40863439233E+02  0.12700000000E+01 0. -1.
         25    2    1    2    0    0  0.00000000000E+00  0.00000000000E+00  0.54754339815E+02  0.13646991374E+03  0.12500399845E+03 0.  0.
    9000005    1    3    3    0    0  0.16291719965E+02  0.59328436438E+02  0.39347189644E+02  0.73037557753E+02  0.10000000000E+01 0.  0.
    9000005    1    3    3    0    0 -0.16291719965E+02 -0.59328436438E+02  0.15407150171E+02  0.63432355986E+02  0.10000000000E+01 0.  0.
<mgrwt>
<rscale>  0 0.12500400E+03</rscale>
<asrwt>0</asrwt>
<pdfrwt beam="2">  1        4 0.62858135E-02 0.12500400E+03</pdfrwt>
<pdfrwt beam="1">  1       -4 0.14709558E-01 0.12500400E+03</pdfrwt>
<totfact> 0.10206261E+04</totfact>
</mgrwt>
</event>
<event>
 5    1  0.3281209E-002  0.1250012E+03  0.7818608E-02  0.1235067E+00
         -4   -1    0    0    0  501 -0.00000000000E+00  0.00000000000E+00  0.43467214189E+02  0.43485763295E+02  0.12700000000E+01 0. -1.
          4   -1    0    0  501    0  0.00000000000E+00 -0.00000000000E+00 -0.89826146308E+02  0.89835123758E+02  0.12700000000E+01 0. -1.
         25    2    1    2    0    0  0.00000000000E+00  0.00000000000E+00 -0.46358932119E+02  0.13332088705E+03  0.12500123334E+03 0.  0.
    9000005    1    3    3    0    0  0.52942334182E+01  0.54333330824E+02  0.92618703734E+01  0.55379797659E+02  0.10000000000E+01 0.  0.
    9000005    1    3    3    0    0 -0.52942334182E+01 -0.54333330824E+02 -0.55620802492E+02  0.77941089393E+02  0.10000000000E+01 0.  0.
<mgrwt>
<rscale>  0 0.12500123E+03</rscale>
<asrwt>0</asrwt>
<pdfrwt beam="2">  1        4 0.13821525E-01 0.12500123E+03</pdfrwt>
<pdfrwt beam="1">  1       -4 0.66893812E-02 0.12500123E+03</pdfrwt>
<totfact> 0.10273299E+04</totfact>
</mgrwt>
</event>
<event>
 5    1  0.3281209E-002  0.1249990E+03  0.7818608E-02  0.1235071E+00
          4   -1    0    0  501    0  0.00000000000E+00  0.00000000000E+00  0.46068134919E+02  0.46085637187E+02  0.12700000000E+01 0. -1.
         -4   -1    0    0    0  501 -0.00000000000E+00 -0.00000000000E+00 -0.84753197038E+02  0.84762711779E+02  0.12700000000E+01 0. -1.
         25    2    1    2    0    0  0.00000000000E+00  0.00000000000E+00 -0.38685062119E+02  0.13084834897E+03  0.12499902558E+03 0.  0.
    9000005    1    3    3    0    0  0.41786849809E+02 -0.52800151080E+01  0.28982332705E+02  0.51137021673E+02  0.10000000000E+01 0.  0.
    9000005    1    3    3    0    0 -0.41786849809E+02  0.52800151080E+01 -0.67667394824E+02  0.79711327293E+02  0.10000000000E+01 0.  0.
<mgrwt>
<rscale>  0 0.12499903E+03</rscale>
<asrwt>0</asrwt>
<pdfrwt beam="1">  1        4 0.70894836E-02 0.12499903E+03</pdfrwt>
<pdfrwt beam="2">  1       -4 0.13041032E-01 0.12499903E+03</pdfrwt>
<totfact> 0.10326569E+04</totfact>
</mgrwt>
</event>
<event>
 5    1  0.3281209E-002  0.1249922E+03  0.7818608E-02  0.1235082E+00
          4   -1    0    0  501    0  0.00000000000E+00  0.00000000000E+00  0.33946349132E+02  0.33970097430E+02  0.12700000000E+01 0. -1.
         -4   -1    0    0    0  501 -0.00000000000E+00 -0.00000000000E+00 -0.11498939466E+03  0.11499640771E+03  0.12700000000E+01 0. -1.
         25    2    1    2    0    0  0.00000000000E+00  0.00000000000E+00 -0.81043045531E+02  0.14896650513E+03  0.12499217745E+03 0.  0.
    9000005    1    3    3    0    0  0.29628569547E+02  0.50985739533E+02 -0.65159464618E+02  0.87887164014E+02  0.10000000000E+01 0.  0.
    9000005    1    3    3    0    0 -0.29628569547E+02 -0.50985739533E+02 -0.15883580914E+02  0.61079341121E+02  0.10000000000E+01 0.  0.
<mgrwt>
<rscale>  0 0.12499218E+03</rscale>
<asrwt>0</asrwt>
<pdfrwt beam="1">  1        4 0.52248816E-02 0.12499218E+03</pdfrwt>
<pdfrwt beam="2">  1       -4 0.17693042E-01 0.12499218E+03</pdfrwt>
<totfact> 0.99527632E+03</totfact>
</mgrwt>
</event>
<event>
 5    1  0.3281209E-002  0.1250011E+03  0.7818608E-02  0.1235068E+00
          4   -1    0    0  501    0  0.00000000000E+00  0.00000000000E+00  0.11170753500E+03  0.11171475407E+03  0.12700000000E+01 0. -1.
         -4   -1    0    0    0  501 -0.00000000000E+00 -0.00000000000E+00 -0.34949289635E+02  0.34972356884E+02  0.12700000000E+01 0. -1.
         25    2    1    2    0    0  0.00000000000E+00  0.00000000000E+00  0.76758245369E+02  0.14668711095E+03  0.12500112114E+03 0.  0.
    9000005    1    3    3    0    0  0.37600564111E+02 -0.31132857617E+02 -0.74058403581E+01  0.49385258087E+02  0.10000000000E+01 0.  0.
    9000005    1    3    3    0    0 -0.37600564111E+02  0.31132857617E+02  0.84164085727E+02  0.97301852866E+02  0.10000000000E+01 0.  0.
<mgrwt>
<rscale>  0 0.12500112E+03</rscale>
<asrwt>0</asrwt>
<pdfrwt beam="1">  1        4 0.17188104E-01 0.12500112E+03</pdfrwt>
<pdfrwt beam="2">  1       -4 0.53791435E-02 0.12500112E+03</pdfrwt>
<totfact> 0.99965697E+03</totfact>
</mgrwt>
</event>
<event>
 5    1  0.3281209E-002  0.1250045E+03  0.7818608E-02  0.1235062E+00
          4   -1    0    0  501    0  0.00000000000E+00  0.00000000000E+00  0.10300295742E+03  0.10301078651E+03  0.12700000000E+01 0.  1.
         -4   -1    0    0    0  501 -0.00000000000E+00 -0.00000000000E+00 -0.37906471084E+02  0.37927739849E+02  0.12700000000E+01 0.  1.
         25    2    1    2    0    0  0.00000000000E+00  0.00000000000E+00  0.65096486338E+02  0.14093852636E+03  0.12500446264E+03 0.  0.
    9000005    1    3    3    0    0 -0.34579387468E+02 -0.10471109473E+01  0.91227490907E+02  0.97571950766E+02  0.10000000000E+01 0.  0.
    9000005    1    3    3    0    0  0.34579387468E+02  0.10471109473E+01 -0.26131004569E+02  0.43366575595E+02  0.10000000000E+01 0.  0.
<mgrwt>
<rscale>  0 0.12500446E+03</rscale>
<asrwt>0</asrwt>
<pdfrwt beam="1">  1        4 0.15848847E-01 0.12500446E+03</pdfrwt>
<pdfrwt beam="2">  1       -4 0.58340032E-02 0.12500446E+03</pdfrwt>
<totfact> 0.10113155E+04</totfact>
</mgrwt>
</event>
<event>
 5    1  0.3281209E-002  0.1249966E+03  0.7818608E-02  0.1235075E+00
          4   -1    0    0  501    0  0.00000000000E+00  0.00000000000E+00  0.16723089497E+02  0.16771243911E+02  0.12700000000E+01 0. -1.
         -4   -1    0    0    0  501 -0.00000000000E+00 -0.00000000000E+00 -0.23318600620E+03  0.23318946458E+03  0.12700000000E+01 0. -1.
         25    2    1    2    0    0  0.00000000000E+00  0.00000000000E+00 -0.21646291671E+03  0.24996070849E+03  0.12499664587E+03 0.  0.
    9000005    1    3    3    0    0  0.46657735919E+02  0.33471218041E+02 -0.15753116186E+03  0.16767329458E+03  0.10000000000E+01 0.  0.
    9000005    1    3    3    0    0 -0.46657735919E+02 -0.33471218041E+02 -0.58931754846E+02  0.82287413907E+02  0.10000000000E+01 0.  0.
<mgrwt>
<rscale>  0 0.12499665E+03</rscale>
<asrwt>0</asrwt>
<pdfrwt beam="1">  1        4 0.25767534E-02 0.12499665E+03</pdfrwt>
<pdfrwt beam="2">  1       -4 0.35878738E-01 0.12499665E+03</pdfrwt>
<totfact> 0.82342060E+03</totfact>
</mgrwt>
</event>
<event>
 5    1  0.3281209E-002  0.1250044E+03  0.7818608E-02  0.1235062E+00
          4   -1    0    0  501    0  0.00000000000E+00  0.00000000000E+00  0.77423040289E+03  0.77423144450E+03  0.12700000000E+01 0.  1.
         -4   -1    0    0    0  501 -0.00000000000E+00 -0.00000000000E+00 -0.49647099416E+01  0.51245726460E+01  0.12700000000E+01 0.  1.
         25    2    1    2    0    0  0.00000000000E+00  0.00000000000E+00  0.76926569295E+03  0.77935601715E+03  0.12500438041E+03 0.  0.
    9000005    1    3    3    0    0 -0.46436102843E+02  0.38579821569E+02  0.48531960622E+03  0.48906117661E+03  0.10000000000E+01 0.  0.
    9000005    1    3    3    0    0  0.46436102843E+02 -0.38579821569E+02  0.28394608672E+03  0.29029484054E+03  0.10000000000E+01 0.  0.
<mgrwt>
<rscale>  0 0.12500438E+03</rscale>
<asrwt>0</asrwt>
<pdfrwt beam="1">  1        4 0.11912471E+00 0.12500438E+03</pdfrwt>
<pdfrwt beam="2">  1       -4 0.77617900E-03 0.12500438E+03</pdfrwt>
<totfact> 0.39199358E+03</totfact>
</mgrwt>
</event>
<event>
 5    1  0.3281209E-002  0.1250100E+03  0.7818608E-02  0.1235054E+00
         -4   -1    0    0    0  501 -0.00000000000E+00  0.00000000000E+00  0.12792750419E+03  0.12793380800E+03  0.12700000000E+01 0. -1.
          4   -1    0    0  501    0  0.00000000000E+00 -0.00000000000E+00 -0.30519512352E+02  0.30545925001E+02  0.12700000000E+01 0. -1.
         25    2    1    2    0    0  0.00000000000E+00  0.00000000000E+00  0.97407991843E+02  0.15847973300E+03  0.12501003519E+03 0.  0.
    9000005    1    3    3    0    0 -0.43478068121E+02  0.13827364879E+02  0.10285189372E+03  0.11252133339E+03  0.10000000000E+01 0.  0.
    9000005    1    3    3    0    0  0.43478068121E+02 -0.13827364879E+02 -0.54439018746E+01  0.45958399609E+02  0.10000000000E+01 0.  0.
<mgrwt>
<rscale>  0 0.12501004E+03</rscale>
<asrwt>0</asrwt>
<pdfrwt beam="2">  1        4 0.46978263E-02 0.12501004E+03</pdfrwt>
<pdfrwt beam="1">  1       -4 0.19683671E-01 0.12501004E+03</pdfrwt>
<totfact> 0.97614659E+03</totfact>
</mgrwt>
</event>
<event>
 5    1  0.3281209E-002  0.1250041E+03  0.7818608E-02  0.1235063E+00
          4   -1    0    0  501    0  0.00000000000E+00  0.00000000000E+00  0.10055368873E+03  0.10056170850E+03  0.12700000000E+01 0.  1.
         -4   -1    0    0    0  501 -0.00000000000E+00 -0.00000000000E+00 -0.38829996794E+02  0.38850759980E+02  0.12700000000E+01 0.  1.
         25    2    1    2    0    0  0.00000000000E+00  0.00000000000E+00  0.61723691935E+02  0.13941246848E+03  0.12500408882E+03 0.  0.
    9000005    1    3    3    0    0 -0.60471746066E+02 -0.15455553211E+02  0.27370634004E+02  0.68160529657E+02  0.10000000000E+01 0.  0.
    9000005    1    3    3    0    0  0.60471746066E+02  0.15455553211E+02  0.34353057930E+02  0.71251938826E+02  0.10000000000E+01 0.  0.
<mgrwt>
<rscale>  0 0.12500409E+03</rscale>
<asrwt>0</asrwt>
<pdfrwt beam="1">  1        4 0.15472012E-01 0.12500409E+03</pdfrwt>
<pdfrwt beam="2">  1       -4 0.59760599E-02 0.12500409E+03</pdfrwt>
<totfact> 0.10144843E+04</totfact>
</mgrwt>
</event>
<event>
 5    1  0.3281209E-002  0.1250012E+03  0.7818608E-02  0.1235067E+00
          4   -1    0    0  501    0  0.00000000000E+00  0.00000000000E+00  0.33256786297E+03  0.33257028788E+03  0.12700000000E+01 0.  1.
         -4   -1    0    0    0  501 -0.00000000000E+00 -0.00000000000E+00 -0.11709136491E+02  0.11777808683E+02  0.12700000000E+01 0.  1.
         25    2    1    2    0    0  0.00000000000E+00  0.00000000000E+00  0.32085872648E+03  0.34434809657E+03  0.12500115699E+03 0.  0.
    9000005    1    3    3    0    0  0.62921978222E+01 -0.59389673135E+02  0.10973900169E+03  0.12494148038E+03  0.10000000000E+01 0.  0.
    9000005    1    3    3    0    0 -0.62921978222E+01  0.59389673135E+02  0.21111972479E+03  0.21940661619E+03  0.10000000000E+01 0.  0.
<mgrwt>
<rscale>  0 0.12500116E+03</rscale>
<asrwt>0</asrwt>
<pdfrwt beam="1">  1        4 0.51169753E-01 0.12500116E+03</pdfrwt>
<pdfrwt beam="2">  1       -4 0.18068747E-02 0.12500116E+03</pdfrwt>
<totfact> 0.70349040E+03</totfact>
</mgrwt>
</event>
<event>
 5    1  0.3281209E-002  0.1250000E+03  0.7818608E-02  0.1235069E+00
          4   -1    0    0  501    0  0.00000000000E+00  0.00000000000E+00  0.43235404036E+03  0.43235590561E+03  0.12700000000E+01 0. -1.
         -4   -1    0    0    0  501 -0.00000000000E+00 -0.00000000000E+00 -0.89883216272E+01  0.90776002155E+01  0.12700000000E+01 0. -1.
         25    2    1    2    0    0  0.00000000000E+00  0.00000000000E+00  0.42336571874E+03  0.44143350583E+03  0.12500003307E+03 0.  0.
    9000005    1    3    3    0    0 -0.16514339448E+02  0.40559782729E+02  0.36911789255E+03  0.37170800096E+03  0.10000000000E+01 0.  0.
    9000005    1    3    3    0    0  0.16514339448E+02 -0.40559782729E+02  0.54247826191E+02  0.69725504866E+02  0.10000000000E+01 0.  0.
<mgrwt>
<rscale>  0 0.12500003E+03</rscale>
<asrwt>0</asrwt>
<pdfrwt beam="1">  1        4 0.66523005E-01 0.12500003E+03</pdfrwt>
<pdfrwt beam="2">  1       -4 0.13898300E-02 0.12500003E+03</pdfrwt>
<totfact> 0.60713073E+03</totfact>
</mgrwt>
</event>
<event>
 5    1  0.3281209E-002  0.1250021E+03  0.7818608E-02  0.1235066E+00
          4   -1    0    0  501    0  0.00000000000E+00  0.00000000000E+00  0.30948081443E+02  0.30974128640E+02  0.12700000000E+01 0.  1.
         -4   -1    0    0    0  501 -0.00000000000E+00 -0.00000000000E+00 -0.12614141331E+03  0.12614780637E+03  0.12700000000E+01 0.  1.
         25    2    1    2    0    0  0.00000000000E+00  0.00000000000E+00 -0.95193331872E+02  0.15712193501E+03  0.12500212810E+03 0.  0.
    9000005    1    3    3    0    0 -0.39135640033E+02 -0.32764121496E+01 -0.10869872565E+03  0.11558004220E+03  0.10000000000E+01 0.  0.
    9000005    1    3    3    0    0  0.39135640033E+02  0.32764121496E+01  0.13505393779E+02  0.41541892813E+02  0.10000000000E+01 0.  0.
<mgrwt>
<rscale>  0 0.12500213E+03</rscale>
<asrwt>0</asrwt>
<pdfrwt beam="1">  1        4 0.47637388E-02 0.12500213E+03</pdfrwt>
<pdfrwt beam="2">  1       -4 0.19408866E-01 0.12500213E+03</pdfrwt>
<totfact> 0.97895856E+03</totfact>
</mgrwt>
</event>
<event>
 5    1  0.3281209E-002  0.1249990E+03  0.7818608E-02  0.1235071E+00
          4   -1    0    0  501    0  0.00000000000E+00  0.00000000000E+00  0.36338048378E+02  0.36360234597E+02  0.12700000000E+01 0. -1.
         -4   -1    0    0    0  501 -0.00000000000E+00 -0.00000000000E+00 -0.10743699203E+03  0.10744449802E+03  0.12700000000E+01 0. -1.
         25    2    1    2    0    0  0.00000000000E+00  0.00000000000E+00 -0.71098943648E+02  0.14380473262E+03  0.12499896534E+03 0.  0.
    9000005    1    3    3    0    0  0.39081738569E+01 -0.45202559953E+02 -0.84987129956E+02  0.96344992124E+02  0.10000000000E+01 0.  0.
    9000005    1    3    3    0    0 -0.39081738569E+01  0.45202559953E+02  0.13888186308E+02  0.47459740497E+02  0.10000000000E+01 0.  0.
<mgrwt>
<rscale>  0 0.12499897E+03</rscale>
<asrwt>0</asrwt>
<pdfrwt beam="1">  1        4 0.55927530E-02 0.12499897E+03</pdfrwt>
<pdfrwt beam="2">  1       -4 0.16531052E-01 0.12499897E+03</pdfrwt>
<totfact> 0.10055565E+04</totfact>
</mgrwt>
</event>
<event>
 5    1  0.3281209E-002  0.1249987E+03  0.7818608E-02  0.1235071E+00
         -4   -1    0    0    0  501 -0.00000000000E+00  0.00000000000E+00  0.11241109197E+03  0.11241826586E+03  0.12700000000E+01 0.  1.
          4   -1    0    0  501    0  0.00000000000E+00 -0.00000000000E+00 -0.34729054610E+02  0.34752268043E+02  0.12700000000E+01 0.  1.
         25    2    1    2    0    0  0.00000000000E+00  0.00000000000E+00  0.77682037361E+02  0.14717053390E+03  0.12499866847E+03 0.  0.
    9000005    1    3    3    0    0 -0.59150864491E+02  0.20154693783E+02  0.38415973603E+02  0.73360912476E+02  0.10000000000E+01 0.  0.
    9000005    1    3    3    0    0  0.59150864491E+02 -0.20154693783E+02  0.39266063758E+02  0.73809621423E+02  0.10000000000E+01 0.  0.
<mgrwt>
<rscale>  0 0.12499867E+03</rscale>
<asrwt>0</asrwt>
<pdfrwt beam="2">  1        4 0.53452689E-02 0.12499867E+03</pdfrwt>
<pdfrwt beam="1">  1       -4 0.17296352E-01 0.12499867E+03</pdfrwt>
<totfact> 0.99873723E+03</totfact>
</mgrwt>
</event>
<event>
 5    1  0.3281209E-002  0.1250046E+03  0.7818608E-02  0.1235062E+00
         -4   -1    0    0    0  501 -0.00000000000E+00  0.00000000000E+00  0.14918923770E+04  0.14918929175E+04  0.12700000000E+01 0. -1.
          4   -1    0    0  501    0  0.00000000000E+00 -0.00000000000E+00 -0.24639470737E+01  0.27719911944E+01  0.12700000000E+01 0. -1.
         25    2    1    2    0    0  0.00000000000E+00  0.00000000000E+00  0.14894284299E+04  0.14946649087E+04  0.12500456621E+03 0.  0.
    9000005    1    3    3    0    0 -0.51292626871E+02 -0.13174784798E+01  0.11713028848E+04  0.11724265935E+04  0.10000000000E+01 0.  0.
    9000005    1    3    3    0    0  0.51292626871E+02  0.13174784798E+01  0.31812554511E+03  0.32223831518E+03  0.10000000000E+01 0.  0.
<mgrwt>
<rscale>  0 0.12500457E+03</rscale>
<asrwt>0</asrwt>
<pdfrwt beam="2">  1        4 0.40280650E-03 0.12500457E+03</pdfrwt>
<pdfrwt beam="1">  1       -4 0.22954539E+00 0.12500457E+03</pdfrwt>
<totfact> 0.18033812E+03</totfact>
</mgrwt>
</event>
<event>
 4    1  0.3281209E-002  0.1247759E+03  0.7818608E-02  0.1235420E+00
          4   -1    0    0  501    0  0.00000000000E+00  0.00000000000E+00  0.56784025678E+01  0.58186902067E+01  0.12700000000E+01 0. -1.
         -4   -1    0    0    0  501 -0.00000000000E+00 -0.00000000000E+00 -0.67694494674E+03  0.67694613805E+03  0.12700000000E+01 0. -1.
    9000005    1    1    2    0    0  0.45488503330E+02  0.42683210925E+02 -0.33319280615E+03  0.33898304752E+03  0.10000000000E+01 0.  0.
    9000005    1    1    2    0    0 -0.45488503330E+02 -0.42683210925E+02 -0.33807373802E+03  0.34378178074E+03  0.10000000000E+01 0.  0.
<mgrwt>
<rscale>  0 0.12477595E+03</rscale>
<asrwt>0</asrwt>
<pdfrwt beam="1">  1        4 0.88448393E-03 0.12477595E+03</pdfrwt>
<pdfrwt beam="2">  1       -4 0.10415620E+00 0.12477595E+03</pdfrwt>
<totfact> 0.44228801E+03</totfact>
</mgrwt>
</event>
<event>
 5    1  0.3281209E-002  0.1250004E+03  0.7818608E-02  0.1235069E+00
          4   -1    0    0  501    0  0.00000000000E+00  0.00000000000E+00  0.51834957978E+02  0.51850513677E+02  0.12700000000E+01 0.  1.
         -4   -1    0    0    0  501 -0.00000000000E+00 -0.00000000000E+00 -0.75327654625E+02  0.75338359760E+02  0.12700000000E+01 0.  1.
         25    2    1    2    0    0  0.00000000000E+00  0.00000000000E+00 -0.23492696647E+02  0.12718887344E+03  0.12500041092E+03 0.  0.
    9000005    1    3    3    0    0  0.48973662962E+02 -0.35819980419E+02  0.34750022025E+01  0.60782944165E+02  0.10000000000E+01 0.  0.
    9000005    1    3    3    0    0 -0.48973662962E+02  0.35819980419E+02 -0.26967698850E+02  0.66405929271E+02  0.10000000000E+01 0.  0.
<mgrwt>
<rscale>  0 0.12500041E+03</rscale>
<asrwt>0</asrwt>
<pdfrwt beam="1">  1        4 0.79766290E-02 0.12500041E+03</pdfrwt>
<pdfrwt beam="2">  1       -4 0.11590890E-01 0.12500041E+03</pdfrwt>
<totfact> 0.10404948E+04</totfact>
</mgrwt>
</event>
<event>
 5    1  0.3281209E-002  0.1250011E+03  0.7818608E-02  0.1235068E+00
          4   -1    0    0  501    0  0.00000000000E+00  0.00000000000E+00  0.57542364852E+01  0.58927190267E+01  0.12700000000E+01 0. -1.
         -4   -1    0    0    0  501 -0.00000000000E+00 -0.00000000000E+00 -0.67064865477E+03  0.67064985726E+03  0.12700000000E+01 0. -1.
         25    2    1    2    0    0  0.00000000000E+00  0.00000000000E+00 -0.66489441829E+03  0.67654257629E+03  0.12500108025E+03 0.  0.
    9000005    1    3    3    0    0  0.53602651572E+02  0.13968643825E+01 -0.15873685555E+03  0.16755173767E+03  0.10000000000E+01 0.  0.
    9000005    1    3    3    0    0 -0.53602651572E+02 -0.13968643825E+01 -0.50615756273E+03  0.50899083862E+03  0.10000000000E+01 0.  0.
<mgrwt>
<rscale>  0 0.12500108E+03</rscale>
<asrwt>0</asrwt>
<pdfrwt beam="1">  1        4 0.89601269E-03 0.12500108E+03</pdfrwt>
<pdfrwt beam="2">  1       -4 0.10318740E+00 0.12500108E+03</pdfrwt>
<totfact> 0.44353220E+03</totfact>
</mgrwt>
</event>
<event>
 5    1  0.3281209E-002  0.1249927E+03  0.7818608E-02  0.1235081E+00
          4   -1    0    0  501    0  0.00000000000E+00  0.00000000000E+00  0.21794351396E+02  0.21831322745E+02  0.12700000000E+01 0. -1.
         -4   -1    0    0    0  501 -0.00000000000E+00 -0.00000000000E+00 -0.17902006621E+03  0.17902457096E+03  0.12700000000E+01 0. -1.
         25    2    1    2    0    0  0.00000000000E+00  0.00000000000E+00 -0.15722571482E+03  0.20085589370E+03  0.12499265833E+03 0.  0.
    9000005    1    3    3    0    0  0.29859480643E+02 -0.38907031364E+02 -0.14083793051E+03  0.14913640851E+03  0.10000000000E+01 0.  0.
    9000005    1    3    3    0    0 -0.29859480643E+02  0.38907031364E+02 -0.16387784305E+02  0.51719485189E+02  0.10000000000E+01 0.  0.
<mgrwt>
<rscale>  0 0.12499266E+03</rscale>
<asrwt>0</asrwt>
<pdfrwt beam="1">  1        4 0.33561677E-02 0.12499266E+03</pdfrwt>
<pdfrwt beam="2">  1       -4 0.27544738E-01 0.12499266E+03</pdfrwt>
<totfact> 0.90006139E+03</totfact>
</mgrwt>
</event>
<event>
 5    1  0.3281209E-002  0.1249983E+03  0.7818608E-02  0.1235072E+00
         -4   -1    0    0    0  501 -0.00000000000E+00  0.00000000000E+00  0.23565815043E+04  0.23565818465E+04  0.12700000000E+01 0. -1.
          4   -1    0    0  501    0  0.00000000000E+00 -0.00000000000E+00 -0.14138882516E+01  0.19005209781E+01  0.12700000000E+01 0. -1.
         25    2    1    2    0    0  0.00000000000E+00  0.00000000000E+00  0.23551676161E+04  0.23584823675E+04  0.12499831230E+03 0.  0.
    9000005    1    3    3    0    0 -0.40515770811E+02  0.45824783525E+02  0.14189969170E+04  0.14203149964E+04  0.10000000000E+01 0.  0.
    9000005    1    3    3    0    0  0.40515770811E+02 -0.45824783525E+02  0.93617069906E+03  0.93816737112E+03  0.10000000000E+01 0.  0.
<mgrwt>
<rscale>  0 0.12499831E+03</rscale>
<asrwt>0</asrwt>
<pdfrwt beam="2">  1        4 0.25497989E-03 0.12499831E+03</pdfrwt>
<pdfrwt beam="1">  1       -4 0.36258987E+00 0.12499831E+03</pdfrwt>
<totfact> 0.58785610E+02</totfact>
</mgrwt>
</event>
<event>
 5    1  0.3281209E-002  0.1249993E+03  0.7818608E-02  0.1235070E+00
          4   -1    0    0  501    0  0.00000000000E+00  0.00000000000E+00  0.41815113688E+02  0.41834395331E+02  0.12700000000E+01 0.  1.
         -4   -1    0    0    0  501 -0.00000000000E+00 -0.00000000000E+00 -0.93370925465E+02  0.93379562123E+02  0.12700000000E+01 0.  1.
         25    2    1    2    0    0  0.00000000000E+00  0.00000000000E+00 -0.51555811778E+02  0.13521395745E+03  0.12499925025E+03 0.  0.
    9000005    1    3    3    0    0  0.90333040233E+01 -0.56174425008E+02  0.21806169988E+01  0.56946656592E+02  0.10000000000E+01 0.  0.
    9000005    1    3    3    0    0 -0.90333040233E+01  0.56174425008E+02 -0.53736428776E+02  0.78267300862E+02  0.10000000000E+01 0.  0.
<mgrwt>
<rscale>  0 0.12499925E+03</rscale>
<asrwt>0</asrwt>
<pdfrwt beam="1">  1        4 0.64352420E-02 0.12499925E+03</pdfrwt>
<pdfrwt beam="2">  1       -4 0.14366905E-01 0.12499925E+03</pdfrwt>
<totfact> 0.10233736E+04</totfact>
</mgrwt>
</event>
<event>
 5    1  0.3281209E-002  0.1250012E+03  0.7818608E-02  0.1235067E+00
          4   -1    0    0  501    0  0.00000000000E+00  0.00000000000E+00  0.21739814092E+03  0.21740185044E+03  0.12700000000E+01 0. -1.
         -4   -1    0    0    0  501 -0.00000000000E+00 -0.00000000000E+00 -0.17942232829E+02  0.17987123697E+02  0.12700000000E+01 0. -1.
         25    2    1    2    0    0  0.00000000000E+00  0.00000000000E+00  0.19945590809E+03  0.23538897413E+03  0.12500123949E+03 0.  0.
    9000005    1    3    3    0    0  0.44056035614E+01 -0.62140567140E+02  0.90413199855E+02  0.10980166727E+03  0.10000000000E+01 0.  0.
    9000005    1    3    3    0    0 -0.44056035614E+01  0.62140567140E+02  0.10904270823E+03  0.12558730686E+03  0.10000000000E+01 0.  0.
<mgrwt>
<rscale>  0 0.12500124E+03</rscale>
<asrwt>0</asrwt>
<pdfrwt beam="1">  1        4 0.33449602E-01 0.12500124E+03</pdfrwt>
<pdfrwt beam="2">  1       -4 0.27640824E-02 0.12500124E+03</pdfrwt>
<totfact> 0.84486593E+03</totfact>
</mgrwt>
</event>
<event>
 5    1  0.3281209E-002  0.1250012E+03  0.7818608E-02  0.1235067E+00
         -4   -1    0    0    0  501 -0.00000000000E+00  0.00000000000E+00  0.29869217358E+02  0.29896204535E+02  0.12700000000E+01 0. -1.
          4   -1    0    0  501    0  0.00000000000E+00 -0.00000000000E+00 -0.13069185584E+03  0.13069802632E+03  0.12700000000E+01 0. -1.
         25    2    1    2    0    0  0.00000000000E+00  0.00000000000E+00 -0.10082263849E+03  0.16059423086E+03  0.12500121021E+03 0.  0.
    9000005    1    3    3    0    0  0.61591985588E+02  0.79717007679E+01 -0.59331249923E+02  0.85897135687E+02  0.10000000000E+01 0.  0.
    9000005    1    3    3    0    0 -0.61591985588E+02 -0.79717007679E+01 -0.41491388563E+02  0.74697095169E+02  0.10000000000E+01 0.  0.
<mgrwt>
<rscale>  0 0.12500121E+03</rscale>
<asrwt>0</asrwt>
<pdfrwt beam="2">  1        4 0.20108990E-01 0.12500121E+03</pdfrwt>
<pdfrwt beam="1">  1       -4 0.45978149E-02 0.12500121E+03</pdfrwt>
<totfact> 0.97225700E+03</totfact>
</mgrwt>
</event>
<event>
 5    1  0.3281209E-002  0.1250010E+03  0.7818608E-02  0.1235068E+00
          4   -1    0    0  501    0  0.00000000000E+00  0.00000000000E+00  0.44277592885E+03  0.44277775020E+03  0.12700000000E+01 0.  1.
         -4   -1    0    0    0  501 -0.00000000000E+00 -0.00000000000E+00 -0.87747678750E+01  0.88661971137E+01  0.12700000000E+01 0.  1.
         25    2    1    2    0    0  0.00000000000E+00  0.00000000000E+00  0.43400116097E+03  0.45164394731E+03  0.12500098965E+03 0.  0.
    9000005    1    3    3    0    0 -0.55396109235E+01 -0.26614897120E+01 -0.76979376393E+01  0.99009626082E+01  0.10000000000E+01 0.  0.
    9000005    1    3    3    0    0  0.55396109235E+01  0.26614897120E+01  0.44169909861E+03  0.44174298470E+03  0.10000000000E+01 0.  0.
<mgrwt>
<rscale>  0 0.12500099E+03</rscale>
<asrwt>0</asrwt>
<pdfrwt beam="1">  1        4 0.68126551E-01 0.12500099E+03</pdfrwt>
<pdfrwt beam="2">  1       -4 0.13571373E-02 0.12500099E+03</pdfrwt>
<totfact> 0.59820336E+03</totfact>
</mgrwt>
</event>
<event>
 5    1  0.3281209E-002  0.1250140E+03  0.7818608E-02  0.1235047E+00
          4   -1    0    0  501    0  0.00000000000E+00  0.00000000000E+00  0.57634398695E+02  0.57648389508E+02  0.12700000000E+01 0. -1.
         -4   -1    0    0    0  501 -0.00000000000E+00 -0.00000000000E+00 -0.67763368367E+02  0.67775268294E+02  0.12700000000E+01 0. -1.
         25    2    1    2    0    0  0.00000000000E+00  0.00000000000E+00 -0.10128969672E+02  0.12542365780E+03  0.12501399086E+03 0.  0.
    9000005    1    3    3    0    0  0.24274813710E+01  0.27620639458E+01 -0.67659664292E+02  0.67766893356E+02  0.10000000000E+01 0.  0.
    9000005    1    3    3    0    0 -0.24274813710E+01 -0.27620639458E+01  0.57530694620E+02  0.57656764447E+02  0.10000000000E+01 0.  0.
<mgrwt>
<rscale>  0 0.12501399E+03</rscale>
<asrwt>0</asrwt>
<pdfrwt beam="1">  1        4 0.88688222E-02 0.12501399E+03</pdfrwt>
<pdfrwt beam="2">  1       -4 0.10427125E-01 0.12501399E+03</pdfrwt>
<totfact> 0.10440348E+04</totfact>
</mgrwt>
</event>
<event>
 5    1  0.3281209E-002  0.1250118E+03  0.7818608E-02  0.1235051E+00
         -4   -1    0    0    0  501 -0.00000000000E+00  0.00000000000E+00  0.27938968098E+02  0.27967817905E+02  0.12700000000E+01 0. -1.
          4   -1    0    0  501    0  0.00000000000E+00 -0.00000000000E+00 -0.13973615994E+03  0.13974193106E+03  0.12700000000E+01 0. -1.
         25    2    1    2    0    0  0.00000000000E+00  0.00000000000E+00 -0.11179719185E+03  0.16770974896E+03  0.12501179061E+03 0.  0.
    9000005    1    3    3    0    0 -0.51235829259E+02 -0.35779200255E+02 -0.57041340574E+02  0.84616640830E+02  0.10000000000E+01 0.  0.
    9000005    1    3    3    0    0  0.51235829259E+02  0.35779200255E+02 -0.54755851271E+02  0.83093108133E+02  0.10000000000E+01 0.  0.
<mgrwt>
<rscale>  0 0.12501179E+03</rscale>
<asrwt>0</asrwt>
<pdfrwt beam="2">  1        4 0.21500534E-01 0.12501179E+03</pdfrwt>
<pdfrwt beam="1">  1       -4 0.43009660E-02 0.12501179E+03</pdfrwt>
<totfact> 0.95851273E+03</totfact>
</mgrwt>
</event>
<event>
 5    1  0.3281209E-002  0.1249774E+03  0.7818608E-02  0.1235105E+00
         -4   -1    0    0    0  501 -0.00000000000E+00  0.00000000000E+00  0.23966844211E+02  0.24000469192E+02  0.12700000000E+01 0.  1.
          4   -1    0    0  501    0  0.00000000000E+00 -0.00000000000E+00 -0.16277633275E+03  0.16278128702E+03  0.12700000000E+01 0.  1.
         25    2    1    2    0    0  0.00000000000E+00  0.00000000000E+00 -0.13880948854E+03  0.18678175621E+03  0.12497739934E+03 0.  0.
    9000005    1    3    3    0    0  0.14301080180E+02 -0.53856735811E+02 -0.11164373093E+03  0.12478137498E+03  0.10000000000E+01 0.  0.
    9000005    1    3    3    0    0 -0.14301080180E+02  0.53856735811E+02 -0.27165757618E+02  0.62000381237E+02  0.10000000000E+01 0.  0.
<mgrwt>
<rscale>  0 0.12497740E+03</rscale>
<asrwt>0</asrwt>
<pdfrwt beam="2">  1        4 0.25045480E-01 0.12497740E+03</pdfrwt>
<pdfrwt beam="1">  1       -4 0.36901745E-02 0.12497740E+03</pdfrwt>
<totfact> 0.92457126E+03</totfact>
</mgrwt>
</event>
<event>
 5    1  0.3281209E-002  0.1249995E+03  0.7818608E-02  0.1235070E+00
          4   -1    0    0  501    0  0.00000000000E+00  0.00000000000E+00  0.65899106105E+01  0.67111714219E+01  0.12700000000E+01 0.  1.
         -4   -1    0    0    0  501 -0.00000000000E+00 -0.00000000000E+00 -0.58723122379E+03  0.58723259710E+03  0.12700000000E+01 0.  1.
         25    2    1    2    0    0  0.00000000000E+00  0.00000000000E+00 -0.58064131318E+03  0.59394376852E+03  0.12499946237E+03 0.  0.
    9000005    1    3    3    0    0  0.29114115090E+02  0.51739595018E+02 -0.19762251850E+03  0.20634989026E+03  0.10000000000E+01 0.  0.
    9000005    1    3    3    0    0 -0.29114115090E+02 -0.51739595018E+02 -0.38301879468E+03  0.38759387826E+03  0.10000000000E+01 0.  0.
<mgrwt>
<rscale>  0 0.12499946E+03</rscale>
<asrwt>0</asrwt>
<pdfrwt beam="1">  1        4 0.10232663E-02 0.12499946E+03</pdfrwt>
<pdfrwt beam="2">  1       -4 0.90352658E-01 0.12499946E+03</pdfrwt>
<totfact> 0.49252739E+03</totfact>
</mgrwt>
</event>
<event>
 5    1  0.3281209E-002  0.1249977E+03  0.7818608E-02  0.1235073E+00
          4   -1    0    0  501    0  0.00000000000E+00  0.00000000000E+00  0.89877211009E+03  0.89877300737E+03  0.12700000000E+01 0.  1.
         -4   -1    0    0    0  501 -0.00000000000E+00 -0.00000000000E+00 -0.42523514377E+01  0.44379491603E+01  0.12700000000E+01 0.  1.
         25    2    1    2    0    0  0.00000000000E+00  0.00000000000E+00  0.89451975865E+03  0.90321095653E+03  0.12499773348E+03 0.  0.
    9000005    1    3    3    0    0  0.91059467506E+01  0.29881782229E+02  0.56178895331E+02  0.64287692882E+02  0.10000000000E+01 0.  0.
    9000005    1    3    3    0    0 -0.91059467506E+01 -0.29881782229E+02  0.83834086332E+03  0.83892326365E+03  0.10000000000E+01 0.  0.
<mgrwt>
<rscale>  0 0.12499773E+03</rscale>
<asrwt>0</asrwt>
<pdfrwt beam="1">  1        4 0.13828699E+00 0.12499773E+03</pdfrwt>
<pdfrwt beam="2">  1       -4 0.66855364E-03 0.12499773E+03</pdfrwt>
<totfact> 0.34038945E+03</totfact>
</mgrwt>
</event>
<event>
 5    1  0.3281209E-002  0.1250015E+03  0.7818608E-02  0.1235067E+00
         -4   -1    0    0    0  501 -0.00000000000E+00  0.00000000000E+00  0.72956833965E+02  0.72967886924E+02  0.12700000000E+01 0.  1.
          4   -1    0    0  501    0  0.00000000000E+00 -0.00000000000E+00 -0.53520546962E+02  0.53535612886E+02  0.12700000000E+01 0.  1.
         25    2    1    2    0    0  0.00000000000E+00  0.00000000000E+00  0.19436287003E+02  0.12650349981E+03  0.12500146484E+03 0.  0.
    9000005    1    3    3    0    0 -0.10651927779E+02 -0.51075137041E+02  0.44529268111E+02  0.68600210697E+02  0.10000000000E+01 0.  0.
    9000005    1    3    3    0    0  0.10651927779E+02  0.51075137041E+02 -0.25092981108E+02  0.57903289113E+02  0.10000000000E+01 0.  0.
<mgrwt>
<rscale>  0 0.12500146E+03</rscale>
<asrwt>0</asrwt>
<pdfrwt beam="2">  1        4 0.82359395E-02 0.12500146E+03</pdfrwt>
<pdfrwt beam="1">  1       -4 0.11226137E-01 0.12500146E+03</pdfrwt>
<totfact> 0.10419607E+04</totfact>
</mgrwt>
</event>
<event>
 5    1  0.3281209E-002  0.1249985E+03  0.7818608E-02  0.1235072E+00
          4   -1    0    0  501    0  0.00000000000E+00  0.00000000000E+00  0.13692821637E+02  0.13751591340E+02  0.12700000000E+01 0. -1.
         -4   -1    0    0    0  501 -0.00000000000E+00 -0.00000000000E+00 -0.28459931538E+03  0.28460214900E+03  0.12700000000E+01 0. -1.
         25    2    1    2    0    0  0.00000000000E+00  0.00000000000E+00 -0.27090649374E+03  0.29835374034E+03  0.12499850408E+03 0.  0.
    9000005    1    3    3    0    0 -0.19692253747E+02 -0.15501466886E+02  0.11842631873E+01  0.25109416810E+02  0.10000000000E+01 0.  0.
    9000005    1    3    3    0    0  0.19692253747E+02  0.15501466886E+02 -0.27209075693E+03  0.27324432353E+03  0.10000000000E+01 0.  0.
<mgrwt>
<rscale>  0 0.12499850E+03</rscale>
<asrwt>0</asrwt>
<pdfrwt beam="1">  1        4 0.21113269E-02 0.12499850E+03</pdfrwt>
<pdfrwt beam="2">  1       -4 0.43789244E-01 0.12499850E+03</pdfrwt>
<totfact> 0.75808327E+03</totfact>
</mgrwt>
</event>
<event>
 5    1  0.3281209E-002  0.1249959E+03  0.7818608E-02  0.1235076E+00
         -4   -1    0    0    0  501 -0.00000000000E+00  0.00000000000E+00  0.11684463079E+03  0.11685153248E+03  0.12700000000E+01 0. -1.
          4   -1    0    0  501    0  0.00000000000E+00 -0.00000000000E+00 -0.33408996681E+02  0.33433126675E+02  0.12700000000E+01 0. -1.
         25    2    1    2    0    0  0.00000000000E+00  0.00000000000E+00  0.83435634104E+02  0.15028465916E+03  0.12499589489E+03 0.  0.
    9000005    1    3    3    0    0 -0.26886685424E+02 -0.52227002281E+02  0.16087316522E+02  0.60912686472E+02  0.10000000000E+01 0.  0.
    9000005    1    3    3    0    0  0.26886685424E+02  0.52227002281E+02  0.67348317582E+02  0.89371972684E+02  0.10000000000E+01 0.  0.
<mgrwt>
<rscale>  0 0.12499589E+03</rscale>
<asrwt>0</asrwt>
<pdfrwt beam="2">  1        4 0.51422327E-02 0.12499589E+03</pdfrwt>
<pdfrwt beam="1">  1       -4 0.17978484E-01 0.12499589E+03</pdfrwt>
<totfact> 0.99256155E+03</totfact>
</mgrwt>
</event>
<event>
 5    1  0.3281209E-002  0.1250336E+03  0.7818608E-02  0.1235017E+00
          4   -1    0    0  501    0  0.00000000000E+00  0.00000000000E+00  0.10153041569E+02  0.10232162680E+02  0.12700000000E+01 0.  1.
         -4   -1    0    0    0  501 -0.00000000000E+00 -0.00000000000E+00 -0.38336926473E+03  0.38337136831E+03  0.12700000000E+01 0.  1.
         25    2    1    2    0    0  0.00000000000E+00  0.00000000000E+00 -0.37321622316E+03  0.39360353099E+03  0.12503355700E+03 0.  0.
    9000005    1    3    3    0    0 -0.20443699064E+02  0.59018604285E+02 -0.19445102015E+03  0.20423843840E+03  0.10000000000E+01 0.  0.
    9000005    1    3    3    0    0  0.20443699064E+02 -0.59018604285E+02 -0.17876520301E+03  0.18936509259E+03  0.10000000000E+01 0.  0.
<mgrwt>
<rscale>  0 0.12503356E+03</rscale>
<asrwt>0</asrwt>
<pdfrwt beam="1">  1        4 0.15682547E-02 0.12503356E+03</pdfrwt>
<pdfrwt beam="2">  1       -4 0.58986124E-01 0.12503356E+03</pdfrwt>
<totfact> 0.65131420E+03</totfact>
</mgrwt>
</event>
<event>
 5    1  0.3281209E-002  0.1249989E+03  0.7818608E-02  0.1235071E+00
         -4   -1    0    0    0  501 -0.00000000000E+00  0.00000000000E+00  0.57517486818E+02  0.57531506063E+02  0.12700000000E+01 0. -1.
          4   -1    0    0  501    0  0.00000000000E+00 -0.00000000000E+00 -0.67884748508E+02  0.67896627162E+02  0.12700000000E+01 0. -1.
         25    2    1    2    0    0  0.00000000000E+00  0.00000000000E+00 -0.10367261690E+02  0.12542813323E+03  0.12499894595E+03 0.  0.
    9000005    1    3    3    0    0 -0.45440440663E+02  0.26663170346E+02  0.28538690622E+02  0.59926748310E+02  0.10000000000E+01 0.  0.
    9000005    1    3    3    0    0  0.45440440663E+02 -0.26663170346E+02 -0.38905952313E+02  0.65501384916E+02  0.10000000000E+01 0.  0.
<mgrwt>
<rscale>  0 0.12499895E+03</rscale>
<asrwt>0</asrwt>
<pdfrwt beam="2">  1        4 0.10445800E-01 0.12499895E+03</pdfrwt>
<pdfrwt beam="1">  1       -4 0.88508362E-02 0.12499895E+03</pdfrwt>
<totfact> 0.10443792E+04</totfact>
</mgrwt>
</event>
<event>
 5    1  0.3281209E-002  0.1250148E+03  0.7818608E-02  0.1235046E+00
         -4   -1    0    0    0  501 -0.00000000000E+00  0.00000000000E+00  0.20114663368E+03  0.20115064291E+03  0.12700000000E+01 0.  1.
          4   -1    0    0  501    0  0.00000000000E+00 -0.00000000000E+00 -0.19399559597E+02  0.19441085684E+02  0.12700000000E+01 0.  1.
         25    2    1    2    0    0  0.00000000000E+00  0.00000000000E+00  0.18174707408E+03  0.22059172859E+03  0.12501484625E+03 0.  0.
    9000005    1    3    3    0    0 -0.69564574660E+01  0.61464977591E+02  0.10664034627E+03  0.12328624913E+03  0.10000000000E+01 0.  0.
    9000005    1    3    3    0    0  0.69564574660E+01 -0.61464977591E+02  0.75106727813E+02  0.97305479463E+02  0.10000000000E+01 0.  0.
<mgrwt>
<rscale>  0 0.12501485E+03</rscale>
<asrwt>0</asrwt>
<pdfrwt beam="2">  1        4 0.29880505E-02 0.12501485E+03</pdfrwt>
<pdfrwt beam="1">  1       -4 0.30949137E-01 0.12501485E+03</pdfrwt>
<totfact> 0.86746036E+03</totfact>
</mgrwt>
</event>
<event>
 5    1  0.3281209E-002  0.1250019E+03  0.7818608E-02  0.1235066E+00
         -4   -1    0    0    0  501 -0.00000000000E+00  0.00000000000E+00  0.13388143863E+03  0.13388746211E+03  0.12700000000E+01 0.  1.
          4   -1    0    0  501    0  0.00000000000E+00 -0.00000000000E+00 -0.29157329524E+02  0.29184974986E+02  0.12700000000E+01 0.  1.
         25    2    1    2    0    0  0.00000000000E+00  0.00000000000E+00  0.10472410911E+03  0.16307243709E+03  0.12500192283E+03 0.  0.
    9000005    1    3    3    0    0  0.51245594518E+02 -0.16264980860E+02  0.93918152058E+02  0.10822328699E+03  0.10000000000E+01 0.  0.
    9000005    1    3    3    0    0 -0.51245594518E+02  0.16264980860E+02  0.10805957048E+02  0.54849150108E+02  0.10000000000E+01 0.  0.
<mgrwt>
<rscale>  0 0.12500192E+03</rscale>
<asrwt>0</asrwt>
<pdfrwt beam="2">  1        4 0.44883329E-02 0.12500192E+03</pdfrwt>
<pdfrwt beam="1">  1       -4 0.20599734E-01 0.12500192E+03</pdfrwt>
<totfact> 0.96749512E+03</totfact>
</mgrwt>
</event>
<event>
 5    1  0.3281209E-002  0.1250031E+03  0.7818608E-02  0.1235064E+00
         -4   -1    0    0    0  501 -0.00000000000E+00  0.00000000000E+00  0.52556440803E+03  0.52556594248E+03  0.12700000000E+01 0.  1.
          4   -1    0    0  501    0  0.00000000000E+00 -0.00000000000E+00 -0.73770459658E+01  0.74855665905E+01  0.12700000000E+01 0.  1.
         25    2    1    2    0    0  0.00000000000E+00  0.00000000000E+00  0.51818736207E+03  0.53305150907E+03  0.12500307641E+03 0.  0.
    9000005    1    3    3    0    0 -0.43233706285E+02  0.34381898413E+02  0.38372340833E+03  0.38768018056E+03  0.10000000000E+01 0.  0.
    9000005    1    3    3    0    0  0.43233706285E+02 -0.34381898413E+02  0.13446395374E+03  0.14537132851E+03  0.10000000000E+01 0.  0.
<mgrwt>
<rscale>  0 0.12500308E+03</rscale>
<asrwt>0</asrwt>
<pdfrwt beam="2">  1        4 0.11433958E-02 0.12500308E+03</pdfrwt>
<pdfrwt beam="1">  1       -4 0.80864539E-01 0.12500308E+03</pdfrwt>
<totfact> 0.53384557E+03</totfact>
</mgrwt>
</event>
<event>
 5    1  0.3281209E-002  0.1249997E+03  0.7818608E-02  0.1235070E+00
         -4   -1    0    0    0  501 -0.00000000000E+00  0.00000000000E+00  0.20952051646E+01  0.24500580977E+01  0.12700000000E+01 0. -1.
          4   -1    0    0  501    0  0.00000000000E+00 -0.00000000000E+00 -0.17184603468E+04  0.17184608161E+04  0.12700000000E+01 0. -1.
         25    2    1    2    0    0  0.00000000000E+00  0.00000000000E+00 -0.17163651417E+04  0.17209108742E+04  0.12499974986E+03 0.  0.
    9000005    1    3    3    0    0 -0.15972400720E+02 -0.12806196910E+02 -0.16710510496E+04  0.16711767491E+04  0.10000000000E+01 0.  0.
    9000005    1    3    3    0    0  0.15972400720E+02  0.12806196910E+02 -0.45314092060E+02  0.49734125139E+02  0.10000000000E+01 0.  0.
<mgrwt>
<rscale>  0 0.12499975E+03</rscale>
<asrwt>0</asrwt>
<pdfrwt beam="2">  1        4 0.26440481E+00 0.12499975E+03</pdfrwt>
<pdfrwt beam="1">  1       -4 0.34967311E-03 0.12499975E+03</pdfrwt>
<totfact> 0.13962175E+03</totfact>
</mgrwt>
</event>
<event>
 5    1  0.3281209E-002  0.1250056E+03  0.7818608E-02  0.1235060E+00
          4   -1    0    0  501    0  0.00000000000E+00  0.00000000000E+00  0.38192212221E+03  0.38192423376E+03  0.12700000000E+01 0.  1.
         -4   -1    0    0    0  501 -0.00000000000E+00 -0.00000000000E+00 -0.10187222777E+02  0.10266080455E+02  0.12700000000E+01 0.  1.
         25    2    1    2    0    0  0.00000000000E+00  0.00000000000E+00  0.37173489943E+03  0.39219031421E+03  0.12500562831E+03 0.  0.
    9000005    1    3    3    0    0 -0.59478596439E+01  0.61336993147E+02  0.15326312710E+03  0.16519137353E+03  0.10000000000E+01 0.  0.
    9000005    1    3    3    0    0  0.59478596439E+01 -0.61336993147E+02  0.21847177233E+03  0.22699894068E+03  0.10000000000E+01 0.  0.
<mgrwt>
<rscale>  0 0.12500563E+03</rscale>
<asrwt>0</asrwt>
<pdfrwt beam="1">  1        4 0.58763472E-01 0.12500563E+03</pdfrwt>
<pdfrwt beam="2">  1       -4 0.15734936E-02 0.12500563E+03</pdfrwt>
<totfact> 0.65311387E+03</totfact>
</mgrwt>
</event>
<event>
 5    1  0.3281209E-002  0.1250170E+03  0.7818608E-02  0.1235043E+00
         -4   -1    0    0    0  501 -0.00000000000E+00  0.00000000000E+00  0.57188552509E+02  0.57202652369E+02  0.12700000000E+01 0.  1.
          4   -1    0    0  501    0  0.00000000000E+00 -0.00000000000E+00 -0.68294927201E+02  0.68306734524E+02  0.12700000000E+01 0.  1.
         25    2    1    2    0    0  0.00000000000E+00  0.00000000000E+00 -0.11106374692E+02  0.12550938689E+03  0.12501701740E+03 0.  0.
    9000005    1    3    3    0    0  0.46461732185E+02 -0.41183665723E+02  0.16532991273E+01  0.62116988642E+02  0.10000000000E+01 0.  0.
    9000005    1    3    3    0    0 -0.46461732185E+02  0.41183665723E+02 -0.12759673819E+02  0.63392398251E+02  0.10000000000E+01 0.  0.
<mgrwt>
<rscale>  0 0.12501702E+03</rscale>
<asrwt>0</asrwt>
<pdfrwt beam="2">  1        4 0.10508905E-01 0.12501702E+03</pdfrwt>
<pdfrwt beam="1">  1       -4 0.88002317E-02 0.12501702E+03</pdfrwt>
<totfact> 0.10437740E+04</totfact>
</mgrwt>
</event>
<event>
 5    1  0.3281209E-002  0.1250007E+03  0.7818608E-02  0.1235068E+00
          4   -1    0    0  501    0  0.00000000000E+00  0.00000000000E+00  0.45018190097E+03  0.45018369235E+03  0.12700000000E+01 0. -1.
         -4   -1    0    0    0  501 -0.00000000000E+00 -0.00000000000E+00 -0.86288535490E+01  0.87218125163E+01  0.12700000000E+01 0. -1.
         25    2    1    2    0    0  0.00000000000E+00  0.00000000000E+00  0.44155304742E+03  0.45890550486E+03  0.12500067485E+03 0.  0.
    9000005    1    3    3    0    0 -0.46687662987E+02  0.70198032387E+00  0.68296410973E+02  0.82738324877E+02  0.10000000000E+01 0.  0.
    9000005    1    3    3    0    0  0.46687662987E+02 -0.70198032387E+00  0.37325663644E+03  0.37616717999E+03  0.10000000000E+01 0.  0.
<mgrwt>
<rscale>  0 0.12500067E+03</rscale>
<asrwt>0</asrwt>
<pdfrwt beam="1">  1        4 0.69266037E-01 0.12500067E+03</pdfrwt>
<pdfrwt beam="2">  1       -4 0.13348045E-02 0.12500067E+03</pdfrwt>
<totfact> 0.59199123E+03</totfact>
</mgrwt>
</event>
<event>
 5    1  0.3281209E-002  0.1249996E+03  0.7818608E-02  0.1235070E+00
          4   -1    0    0  501    0  0.00000000000E+00  0.00000000000E+00  0.81504981188E+02  0.81514875075E+02  0.12700000000E+01 0.  1.
         -4   -1    0    0    0  501 -0.00000000000E+00 -0.00000000000E+00 -0.47905002216E+02  0.47921833618E+02  0.12700000000E+01 0.  1.
         25    2    1    2    0    0  0.00000000000E+00  0.00000000000E+00  0.33599978972E+02  0.12943670869E+03  0.12499961188E+03 0.  0.
    9000005    1    3    3    0    0 -0.49644204711E+02 -0.37025324963E+02  0.81485389670E+01  0.62472557474E+02  0.10000000000E+01 0.  0.
    9000005    1    3    3    0    0  0.49644204711E+02  0.37025324963E+02  0.25451440005E+02  0.66964151218E+02  0.10000000000E+01 0.  0.
<mgrwt>
<rscale>  0 0.12499961E+03</rscale>
<asrwt>0</asrwt>
<pdfrwt beam="1">  1        4 0.12541284E-01 0.12499961E+03</pdfrwt>
<pdfrwt beam="2">  1       -4 0.73720562E-02 0.12499961E+03</pdfrwt>
<totfact> 0.10356663E+04</totfact>
</mgrwt>
</event>
<event>
 5    1  0.3281209E-002  0.1249953E+03  0.7818608E-02  0.1235077E+00
          4   -1    0    0  501    0  0.00000000000E+00  0.00000000000E+00  0.99011421204E+02  0.99019565889E+02  0.12700000000E+01 0.  1.
         -4   -1    0    0    0  501 -0.00000000000E+00 -0.00000000000E+00 -0.39429574250E+02  0.39450021870E+02  0.12700000000E+01 0.  1.
         25    2    1    2    0    0  0.00000000000E+00  0.00000000000E+00  0.59581846954E+02  0.13846958776E+03  0.12499532090E+03 0.  0.
    9000005    1    3    3    0    0  0.23973783561E+02 -0.20005543287E+02  0.89755389676E+02  0.95036803589E+02  0.10000000000E+01 0.  0.
    9000005    1    3    3    0    0 -0.23973783561E+02  0.20005543287E+02 -0.30173542722E+02  0.43432784171E+02  0.10000000000E+01 0.  0.
<mgrwt>
<rscale>  0 0.12499532E+03</rscale>
<asrwt>0</asrwt>
<pdfrwt beam="1">  1        4 0.15234726E-01 0.12499532E+03</pdfrwt>
<pdfrwt beam="2">  1       -4 0.60682878E-02 0.12499532E+03</pdfrwt>
<totfact> 0.10166475E+04</totfact>
</mgrwt>
</event>
<event>
 5    1  0.3281209E-002  0.1249996E+03  0.7818608E-02  0.1235070E+00
         -4   -1    0    0    0  501 -0.00000000000E+00  0.00000000000E+00  0.38789806959E+02  0.38810591646E+02  0.12700000000E+01 0.  1.
          4   -1    0    0  501    0  0.00000000000E+00 -0.00000000000E+00 -0.10065057150E+03  0.10065858356E+03  0.12700000000E+01 0.  1.
         25    2    1    2    0    0  0.00000000000E+00  0.00000000000E+00 -0.61860764544E+02  0.13946917520E+03  0.12499958657E+03 0.  0.
    9000005    1    3    3    0    0 -0.37408167333E+00  0.59730309267E+02 -0.51424333796E+02  0.78824563993E+02  0.10000000000E+01 0.  0.
    9000005    1    3    3    0    0  0.37408167333E+00 -0.59730309267E+02 -0.10436430748E+02  0.60644611212E+02  0.10000000000E+01 0.  0.
<mgrwt>
<rscale>  0 0.12499959E+03</rscale>
<asrwt>0</asrwt>
<pdfrwt beam="2">  1        4 0.15486918E-01 0.12499959E+03</pdfrwt>
<pdfrwt beam="1">  1       -4 0.59698778E-02 0.12499959E+03</pdfrwt>
<totfact> 0.10144694E+04</totfact>
</mgrwt>
</event>
<event>
 5    1  0.3281209E-002  0.1250074E+03  0.7818608E-02  0.1235058E+00
         -4   -1    0    0    0  501 -0.00000000000E+00  0.00000000000E+00  0.40340841030E+02  0.40360826986E+02  0.12700000000E+01 0. -1.
          4   -1    0    0  501    0  0.00000000000E+00 -0.00000000000E+00 -0.96794462143E+02  0.96802793356E+02  0.12700000000E+01 0. -1.
         25    2    1    2    0    0  0.00000000000E+00  0.00000000000E+00 -0.56453621113E+02  0.13716362034E+03  0.12500738942E+03 0.  0.
    9000005    1    3    3    0    0 -0.12720413396E+01 -0.59337155978E+02 -0.49705785824E+02  0.77422098351E+02  0.10000000000E+01 0.  0.
    9000005    1    3    3    0    0  0.12720413396E+01  0.59337155978E+02 -0.67478352886E+01  0.59741521991E+02  0.10000000000E+01 0.  0.
<mgrwt>
<rscale>  0 0.12500739E+03</rscale>
<asrwt>0</asrwt>
<pdfrwt beam="2">  1        4 0.14893634E-01 0.12500739E+03</pdfrwt>
<pdfrwt beam="1">  1       -4 0.62084615E-02 0.12500739E+03</pdfrwt>
<totfact> 0.10190968E+04</totfact>
</mgrwt>
</event>
<event>
 5    1  0.3281209E-002  0.1250003E+03  0.7818608E-02  0.1235069E+00
         -4   -1    0    0    0  501 -0.00000000000E+00  0.00000000000E+00  0.20143220599E+03  0.20143620953E+03  0.12700000000E+01 0.  1.
          4   -1    0    0  501    0  0.00000000000E+00 -0.00000000000E+00 -0.19367475212E+02  0.19409069944E+02  0.12700000000E+01 0.  1.
         25    2    1    2    0    0  0.00000000000E+00  0.00000000000E+00  0.18206473078E+03  0.22084527947E+03  0.12500028509E+03 0.  0.
    9000005    1    3    3    0    0 -0.51645947210E+02 -0.21911275967E+02  0.42394826292E+02  0.70325878409E+02  0.10000000000E+01 0.  0.
    9000005    1    3    3    0    0  0.51645947210E+02  0.21911275967E+02  0.13966990449E+03  0.15051940106E+03  0.10000000000E+01 0.  0.
<mgrwt>
<rscale>  0 0.12500029E+03</rscale>
<asrwt>0</asrwt>
<pdfrwt beam="2">  1        4 0.29831193E-02 0.12500029E+03</pdfrwt>
<pdfrwt beam="1">  1       -4 0.30993076E-01 0.12500029E+03</pdfrwt>
<totfact> 0.86734220E+03</totfact>
</mgrwt>
</event>
<event>
 5    1  0.3281209E-002  0.1249951E+03  0.7818608E-02  0.1235077E+00
          4   -1    0    0  501    0  0.00000000000E+00  0.00000000000E+00  0.66119607388E+03  0.66119729357E+03  0.12700000000E+01 0. -1.
         -4   -1    0    0    0  501 -0.00000000000E+00 -0.00000000000E+00 -0.58378971288E+01  0.59744408012E+01  0.12700000000E+01 0. -1.
         25    2    1    2    0    0  0.00000000000E+00  0.00000000000E+00  0.65535817676E+03  0.66717173437E+03  0.12499513310E+03 0.  0.
    9000005    1    3    3    0    0  0.55762659409E+02  0.16626440829E+02  0.20607671118E+03  0.21413669375E+03  0.10000000000E+01 0.  0.
    9000005    1    3    3    0    0 -0.55762659409E+02 -0.16626440829E+02  0.44928146557E+03  0.45303504062E+03  0.10000000000E+01 0.  0.
<mgrwt>
<rscale>  0 0.12499513E+03</rscale>
<asrwt>0</asrwt>
<pdfrwt beam="1">  1        4 0.10173313E+00 0.12499513E+03</pdfrwt>
<pdfrwt beam="2">  1       -4 0.90873467E-03 0.12499513E+03</pdfrwt>
<totfact> 0.44881946E+03</totfact>
</mgrwt>
</event>
<event>
 5    1  0.3281209E-002  0.1250006E+03  0.7818608E-02  0.1235068E+00
         -4   -1    0    0    0  501 -0.00000000000E+00  0.00000000000E+00  0.94162996214E+02  0.94171560229E+02  0.12700000000E+01 0.  1.
          4   -1    0    0  501    0  0.00000000000E+00 -0.00000000000E+00 -0.41464162964E+02  0.41483607730E+02  0.12700000000E+01 0.  1.
         25    2    1    2    0    0  0.00000000000E+00  0.00000000000E+00  0.52698833250E+02  0.13565516796E+03  0.12500063027E+03 0.  0.
    9000005    1    3    3    0    0  0.16085884884E+01  0.60982500725E+02  0.11635105259E+02  0.62111421059E+02  0.10000000000E+01 0.  0.
    9000005    1    3    3    0    0 -0.16085884884E+01 -0.60982500725E+02  0.41063727991E+02  0.73543746900E+02  0.10000000000E+01 0.  0.
<mgrwt>
<rscale>  0 0.12500063E+03</rscale>
<asrwt>0</asrwt>
<pdfrwt beam="2">  1        4 0.63812566E-02 0.12500063E+03</pdfrwt>
<pdfrwt beam="1">  1       -4 0.14488769E-01 0.12500063E+03</pdfrwt>
<totfact> 0.10224135E+04</totfact>
</mgrwt>
</event>
<event>
 4    1  0.3281209E-002  0.1250820E+03  0.7818608E-02  0.1234941E+00
         -4   -1    0    0    0  501 -0.00000000000E+00  0.00000000000E+00  0.43448500310E+03  0.43448685920E+03  0.12700000000E+01 0.  1.
          4   -1    0    0  501    0  0.00000000000E+00 -0.00000000000E+00 -0.89556483597E+01  0.90452494461E+01  0.12700000000E+01 0.  1.
    9000005    1    1    2    0    0 -0.42349127371E+02  0.41003131414E+02  0.28677783699E+03  0.29277505557E+03  0.10000000000E+01 0.  0.
    9000005    1    1    2    0    0  0.42349127371E+02 -0.41003131414E+02  0.13875151775E+03  0.15075705308E+03  0.10000000000E+01 0.  0.
<mgrwt>
<rscale>  0 0.12508197E+03</rscale>
<asrwt>0</asrwt>
<pdfrwt beam="2">  1        4 0.13848272E-02 0.12508197E+03</pdfrwt>
<pdfrwt beam="1">  1       -4 0.66850885E-01 0.12508197E+03</pdfrwt>
<totfact> 0.60419042E+03</totfact>
</mgrwt>
</event>
<event>
 5    1  0.3281209E-002  0.1249969E+03  0.7818608E-02  0.1235074E+00
         -4   -1    0    0    0  501 -0.00000000000E+00  0.00000000000E+00  0.96515825258E+01  0.97347801851E+01  0.12700000000E+01 0. -1.
          4   -1    0    0  501    0  0.00000000000E+00 -0.00000000000E+00 -0.40288497397E+03  0.40288697565E+03  0.12700000000E+01 0. -1.
         25    2    1    2    0    0  0.00000000000E+00  0.00000000000E+00 -0.39323339145E+03  0.41262175584E+03  0.12499685294E+03 0.  0.
    9000005    1    3    3    0    0  0.29903370431E+02  0.34812050538E+02 -0.56605054757E+02  0.72878135609E+02  0.10000000000E+01 0.  0.
    9000005    1    3    3    0    0 -0.29903370431E+02 -0.34812050538E+02 -0.33662833669E+03  0.33974362023E+03  0.10000000000E+01 0.  0.
<mgrwt>
<rscale>  0 0.12499685E+03</rscale>
<asrwt>0</asrwt>
<pdfrwt beam="2">  1        4 0.61988845E-01 0.12499685E+03</pdfrwt>
<pdfrwt beam="1">  1       -4 0.14914130E-02 0.12499685E+03</pdfrwt>
<totfact> 0.63347854E+03</totfact>
</mgrwt>
</event>
<event>
 5    1  0.3281209E-002  0.1249977E+03  0.7818608E-02  0.1235073E+00
          4   -1    0    0  501    0  0.00000000000E+00  0.00000000000E+00  0.51693945208E+02  0.51709543328E+02  0.12700000000E+01 0.  1.
         -4   -1    0    0    0  501 -0.00000000000E+00 -0.00000000000E+00 -0.75529778179E+02  0.75540454670E+02  0.12700000000E+01 0.  1.
         25    2    1    2    0    0  0.00000000000E+00  0.00000000000E+00 -0.23835832971E+02  0.12724999800E+03  0.12499766021E+03 0.  0.
    9000005    1    3    3    0    0  0.19792793848E+02  0.40524686469E+02  0.32117718980E+02  0.55376464082E+02  0.10000000000E+01 0.  0.
    9000005    1    3    3    0    0 -0.19792793848E+02 -0.40524686469E+02 -0.55953551951E+02  0.71873533916E+02  0.10000000000E+01 0.  0.
<mgrwt>
<rscale>  0 0.12499766E+03</rscale>
<asrwt>0</asrwt>
<pdfrwt beam="1">  1        4 0.79549357E-02 0.12499766E+03</pdfrwt>
<pdfrwt beam="2">  1       -4 0.11621987E-01 0.12499766E+03</pdfrwt>
<totfact> 0.10404268E+04</totfact>
</mgrwt>
</event>
<event>
 5    1  0.3281209E-002  0.1249991E+03  0.7818608E-02  0.1235071E+00
         -4   -1    0    0    0  501 -0.00000000000E+00  0.00000000000E+00  0.35304339001E+02  0.35327174418E+02  0.12700000000E+01 0. -1.
          4   -1    0    0  501    0  0.00000000000E+00 -0.00000000000E+00 -0.11058126455E+03  0.11058855713E+03  0.12700000000E+01 0. -1.
         25    2    1    2    0    0  0.00000000000E+00  0.00000000000E+00 -0.75276925546E+02  0.14591573155E+03  0.12499914078E+03 0.  0.
    9000005    1    3    3    0    0  0.22980499305E+02 -0.33655610650E+02  0.17664006691E+02  0.44427700919E+02  0.10000000000E+01 0.  0.
    9000005    1    3    3    0    0 -0.22980499305E+02  0.33655610650E+02 -0.92940932238E+02  0.10148803063E+03  0.10000000000E+01 0.  0.
<mgrwt>
<rscale>  0 0.12499914E+03</rscale>
<asrwt>0</asrwt>
<pdfrwt beam="2">  1        4 0.17014820E-01 0.12499914E+03</pdfrwt>
<pdfrwt beam="1">  1       -4 0.54337544E-02 0.12499914E+03</pdfrwt>
<totfact> 0.10012610E+04</totfact>
</mgrwt>
</event>
<event>
 5    1  0.3281209E-002  0.1250048E+03  0.7818608E-02  0.1235062E+00
         -4   -1    0    0    0  501 -0.00000000000E+00  0.00000000000E+00  0.26212875245E+03  0.26213182898E+03  0.12700000000E+01 0. -1.
          4   -1    0    0  501    0  0.00000000000E+00 -0.00000000000E+00 -0.14872937589E+02  0.14927061751E+02  0.12700000000E+01 0. -1.
         25    2    1    2    0    0  0.00000000000E+00  0.00000000000E+00  0.24725581487E+03  0.27705889073E+03  0.12500476370E+03 0.  0.
    9000005    1    3    3    0    0  0.27856042768E+02 -0.39903674638E+02  0.21052850732E+03  0.21608219446E+03  0.10000000000E+01 0.  0.
    9000005    1    3    3    0    0 -0.27856042768E+02  0.39903674638E+02  0.36727307546E+02  0.60976696269E+02  0.10000000000E+01 0.  0.
<mgrwt>
<rscale>  0 0.12500476E+03</rscale>
<asrwt>0</asrwt>
<pdfrwt beam="2">  1        4 0.22925442E-02 0.12500476E+03</pdfrwt>
<pdfrwt beam="1">  1       -4 0.40331902E-01 0.12500476E+03</pdfrwt>
<totfact> 0.78561375E+03</totfact>
</mgrwt>
</event>
<event>
 5    1  0.3281209E-002  0.1249973E+03  0.7818608E-02  0.1235074E+00
          4   -1    0    0  501    0  0.00000000000E+00  0.00000000000E+00  0.23812004752E+03  0.23812343423E+03  0.12700000000E+01 0. -1.
         -4   -1    0    0    0  501 -0.00000000000E+00 -0.00000000000E+00 -0.16375736415E+02  0.16424909228E+02  0.12700000000E+01 0. -1.
         25    2    1    2    0    0  0.00000000000E+00  0.00000000000E+00  0.22174431110E+03  0.25454834346E+03  0.12499727857E+03 0.  0.
    9000005    1    3    3    0    0 -0.34950714151E+02  0.27631636193E+02  0.20010456366E+03  0.20500706362E+03  0.10000000000E+01 0.  0.
    9000005    1    3    3    0    0  0.34950714151E+02 -0.27631636193E+02  0.21639747445E+02  0.49541279836E+02  0.10000000000E+01 0.  0.
<mgrwt>
<rscale>  0 0.12499728E+03</rscale>
<asrwt>0</asrwt>
<pdfrwt beam="1">  1        4 0.36637894E-01 0.12499728E+03</pdfrwt>
<pdfrwt beam="2">  1       -4 0.25233873E-02 0.12499728E+03</pdfrwt>
<totfact> 0.81682215E+03</totfact>
</mgrwt>
</event>
<event>
 5    1  0.3281209E-002  0.1249996E+03  0.7818608E-02  0.1235070E+00
          4   -1    0    0  501    0  0.00000000000E+00  0.00000000000E+00  0.36284199421E+01  0.38442595225E+01  0.12700000000E+01 0. -1.
         -4   -1    0    0    0  501 -0.00000000000E+00 -0.00000000000E+00 -0.10452526023E+04  0.10452533738E+04  0.12700000000E+01 0. -1.
         25    2    1    2    0    0  0.00000000000E+00  0.00000000000E+00 -0.10416241823E+04  0.10490976333E+04  0.12499962818E+03 0.  0.
    9000005    1    3    3    0    0 -0.14888801160E+02  0.52859559461E+02 -0.27051259182E+03  0.27603237448E+03  0.10000000000E+01 0.  0.
    9000005    1    3    3    0    0  0.14888801160E+02 -0.52859559461E+02 -0.77111159051E+03  0.77306525885E+03  0.10000000000E+01 0.  0.
<mgrwt>
<rscale>  0 0.12499963E+03</rscale>
<asrwt>0</asrwt>
<pdfrwt beam="1">  1        4 0.57488168E-03 0.12499963E+03</pdfrwt>
<pdfrwt beam="2">  1       -4 0.16082452E+00 0.12499963E+03</pdfrwt>
<totfact> 0.29023241E+03</totfact>
</mgrwt>
</event>
<event>
 5    1  0.3281209E-002  0.1250022E+03  0.7818608E-02  0.1235066E+00
          4   -1    0    0  501    0  0.00000000000E+00  0.00000000000E+00  0.40059866474E+02  0.40079992539E+02  0.12700000000E+01 0.  1.
         -4   -1    0    0    0  501 -0.00000000000E+00 -0.00000000000E+00 -0.97464922805E+02  0.97473196713E+02  0.12700000000E+01 0.  1.
         25    2    1    2    0    0  0.00000000000E+00  0.00000000000E+00 -0.57405056331E+02  0.13755318925E+03  0.12500215751E+03 0.  0.
    9000005    1    3    3    0    0  0.18559323702E+02  0.35550132372E+02  0.24038114351E+02  0.46766348473E+02  0.10000000000E+01 0.  0.
    9000005    1    3    3    0    0 -0.18559323702E+02 -0.35550132372E+02 -0.81443170682E+02  0.90786840779E+02  0.10000000000E+01 0.  0.
<mgrwt>
<rscale>  0 0.12500216E+03</rscale>
<asrwt>0</asrwt>
<pdfrwt beam="1">  1        4 0.61652410E-02 0.12500216E+03</pdfrwt>
<pdfrwt beam="2">  1       -4 0.14996788E-01 0.12500216E+03</pdfrwt>
<totfact> 0.10184037E+04</totfact>
</mgrwt>
</event>
<event>
 5    1  0.3281209E-002  0.1250083E+03  0.7818608E-02  0.1235056E+00
         -4   -1    0    0    0  501 -0.00000000000E+00  0.00000000000E+00  0.96258414418E+02  0.96266792022E+02  0.12700000000E+01 0.  1.
          4   -1    0    0  501    0  0.00000000000E+00 -0.00000000000E+00 -0.40566152379E+02  0.40586027384E+02  0.12700000000E+01 0.  1.
         25    2    1    2    0    0  0.00000000000E+00  0.00000000000E+00  0.55692262039E+02  0.13685281941E+03  0.12500826424E+03 0.  0.
    9000005    1    3    3    0    0  0.16230513059E+01  0.42319142253E+02 -0.22467406072E+02  0.47951313143E+02  0.10000000000E+01 0.  0.
    9000005    1    3    3    0    0 -0.16230513059E+01 -0.42319142253E+02  0.78159668111E+02  0.88901506263E+02  0.10000000000E+01 0.  0.
<mgrwt>
<rscale>  0 0.12500826E+03</rscale>
<asrwt>0</asrwt>
<pdfrwt beam="2">  1        4 0.62431199E-02 0.12500826E+03</pdfrwt>
<pdfrwt beam="1">  1       -4 0.14811160E-01 0.12500826E+03</pdfrwt>
<totfact> 0.10197264E+04</totfact>
</mgrwt>
</event>
<event>
 5    1  0.3281209E-002  0.1250033E+03  0.7818608E-02  0.1235064E+00
          4   -1    0    0  501    0  0.00000000000E+00  0.00000000000E+00  0.99120033131E+02  0.99128168892E+02  0.12700000000E+01 0.  1.
         -4   -1    0    0    0  501 -0.00000000000E+00 -0.00000000000E+00 -0.39391407436E+02  0.39411874858E+02  0.12700000000E+01 0.  1.
         25    2    1    2    0    0  0.00000000000E+00  0.00000000000E+00  0.59728625694E+02  0.13854004375E+03  0.12500333993E+03 0.  0.
    9000005    1    3    3    0    0  0.44585823338E+02  0.36140138999E+01 -0.18502160414E+02  0.48417834309E+02  0.10000000000E+01 0.  0.
    9000005    1    3    3    0    0 -0.44585823338E+02 -0.36140138999E+01  0.78230786108E+02  0.90122209440E+02  0.10000000000E+01 0.  0.
<mgrwt>
<rscale>  0 0.12500334E+03</rscale>
<asrwt>0</asrwt>
<pdfrwt beam="1">  1        4 0.15251436E-01 0.12500334E+03</pdfrwt>
<pdfrwt beam="2">  1       -4 0.60624169E-02 0.12500334E+03</pdfrwt>
<totfact> 0.10163169E+04</totfact>
</mgrwt>
</event>
<event>
 5    1  0.3281209E-002  0.1250005E+03  0.7818608E-02  0.1235068E+00
         -4   -1    0    0    0  501 -0.00000000000E+00  0.00000000000E+00  0.26520930290E+02  0.26551320936E+02  0.12700000000E+01 0.  1.
          4   -1    0    0  501    0  0.00000000000E+00 -0.00000000000E+00 -0.14717307195E+03  0.14717855145E+03  0.12700000000E+01 0.  1.
         25    2    1    2    0    0  0.00000000000E+00  0.00000000000E+00 -0.12065214166E+03  0.17372987239E+03  0.12500051709E+03 0.  0.
    9000005    1    3    3    0    0 -0.27458481349E+02  0.34263978144E+02 -0.12212746989E+03  0.12978485003E+03  0.10000000000E+01 0.  0.
    9000005    1    3    3    0    0  0.27458481349E+02 -0.34263978144E+02  0.14753282297E+01  0.43945022354E+02  0.10000000000E+01 0.  0.
<mgrwt>
<rscale>  0 0.12500052E+03</rscale>
<asrwt>0</asrwt>
<pdfrwt beam="2">  1        4 0.22644770E-01 0.12500052E+03</pdfrwt>
<pdfrwt beam="1">  1       -4 0.40829024E-02 0.12500052E+03</pdfrwt>
<totfact> 0.94756878E+03</totfact>
</mgrwt>
</event>
<event>
 5    1  0.3281209E-002  0.1249979E+03  0.7818608E-02  0.1235073E+00
         -4   -1    0    0    0  501 -0.00000000000E+00  0.00000000000E+00  0.14072723511E+03  0.14073296558E+03  0.12700000000E+01 0.  1.
          4   -1    0    0  501    0  0.00000000000E+00 -0.00000000000E+00 -0.27735833138E+02  0.27764894019E+02  0.12700000000E+01 0.  1.
         25    2    1    2    0    0  0.00000000000E+00  0.00000000000E+00  0.11299140197E+03  0.16849785960E+03  0.12499788706E+03 0.  0.
    9000005    1    3    3    0    0 -0.46016072341E+02 -0.13683447258E+02  0.25686961151E+01  0.48086524540E+02  0.10000000000E+01 0.  0.
    9000005    1    3    3    0    0  0.46016072341E+02  0.13683447258E+02  0.11042270585E+03  0.12041133506E+03  0.10000000000E+01 0.  0.
<mgrwt>
<rscale>  0 0.12499789E+03</rscale>
<asrwt>0</asrwt>
<pdfrwt beam="2">  1        4 0.42697276E-02 0.12499789E+03</pdfrwt>
<pdfrwt beam="1">  1       -4 0.21653019E-01 0.12499789E+03</pdfrwt>
<totfact> 0.95733566E+03</totfact>
</mgrwt>
</event>
<event>
 5    1  0.3281209E-002  0.1250002E+03  0.7818608E-02  0.1235069E+00
          4   -1    0    0  501    0  0.00000000000E+00  0.00000000000E+00  0.21714071721E+03  0.21714443113E+03  0.12700000000E+01 0.  1.
         -4   -1    0    0    0  501 -0.00000000000E+00 -0.00000000000E+00 -0.17963252533E+02  0.18008091003E+02  0.12700000000E+01 0.  1.
         25    2    1    2    0    0  0.00000000000E+00  0.00000000000E+00  0.19917746467E+03  0.23515252213E+03  0.12500018492E+03 0.  0.
    9000005    1    3    3    0    0  0.55277168537E+02 -0.12242681640E+02  0.14935441554E+03  0.15972848856E+03  0.10000000000E+01 0.  0.
    9000005    1    3    3    0    0 -0.55277168537E+02  0.12242681640E+02  0.49823049131E+02  0.75424033570E+02  0.10000000000E+01 0.  0.
<mgrwt>
<rscale>  0 0.12500018E+03</rscale>
<asrwt>0</asrwt>
<pdfrwt beam="1">  1        4 0.33409998E-01 0.12500018E+03</pdfrwt>
<pdfrwt beam="2">  1       -4 0.27673122E-02 0.12500018E+03</pdfrwt>
<totfact> 0.84524302E+03</totfact>
</mgrwt>
</event>
<event>
 5    1  0.3281209E-002  0.1250002E+03  0.7818608E-02  0.1235069E+00
         -4   -1    0    0    0  501 -0.00000000000E+00  0.00000000000E+00  0.12417814438E+03  0.12418463851E+03  0.12700000000E+01 0.  1.
          4   -1    0    0  501    0  0.00000000000E+00 -0.00000000000E+00 -0.31436811096E+02  0.31462453685E+02  0.12700000000E+01 0.  1.
         25    2    1    2    0    0  0.00000000000E+00  0.00000000000E+00  0.92741333280E+02  0.15564709219E+03  0.12500024964E+03 0.  0.
    9000005    1    3    3    0    0  0.79853133635E+01 -0.24758450610E+02  0.11712154532E+03  0.11998000869E+03  0.10000000000E+01 0.  0.
    9000005    1    3    3    0    0 -0.79853133635E+01  0.24758450610E+02 -0.24380212044E+02  0.35667083501E+02  0.10000000000E+01 0.  0.
<mgrwt>
<rscale>  0 0.12500025E+03</rscale>
<asrwt>0</asrwt>
<pdfrwt beam="2">  1        4 0.48389045E-02 0.12500025E+03</pdfrwt>
<pdfrwt beam="1">  1       -4 0.19106802E-01 0.12500025E+03</pdfrwt>
<totfact> 0.98188065E+03</totfact>
</mgrwt>
</event>
<event>
 5    1  0.3281209E-002  0.1250008E+03  0.7818608E-02  0.1235068E+00
          4   -1    0    0  501    0  0.00000000000E+00  0.00000000000E+00  0.36243054745E+02  0.36265299079E+02  0.12700000000E+01 0. -1.
         -4   -1    0    0    0  501 -0.00000000000E+00 -0.00000000000E+00 -0.10772164824E+03  0.10772913441E+03  0.12700000000E+01 0. -1.
         25    2    1    2    0    0  0.00000000000E+00  0.00000000000E+00 -0.71478593496E+02  0.14399443348E+03  0.12500083018E+03 0.  0.
    9000005    1    3    3    0    0 -0.78896144433E+01  0.58280200824E+02 -0.60079876777E+02  0.84079839544E+02  0.10000000000E+01 0.  0.
    9000005    1    3    3    0    0  0.78896144433E+01 -0.58280200824E+02 -0.11398716718E+02  0.59914593940E+02  0.10000000000E+01 0.  0.
<mgrwt>
<rscale>  0 0.12500083E+03</rscale>
<asrwt>0</asrwt>
<pdfrwt beam="1">  1        4 0.55781416E-02 0.12500083E+03</pdfrwt>
<pdfrwt beam="2">  1       -4 0.16574848E-01 0.12500083E+03</pdfrwt>
<totfact> 0.10051271E+04</totfact>
</mgrwt>
</event>
<event>
 5    1  0.3281209E-002  0.1249994E+03  0.7818608E-02  0.1235070E+00
         -4   -1    0    0    0  501 -0.00000000000E+00  0.00000000000E+00  0.57286260862E+02  0.57300336679E+02  0.12700000000E+01 0.  1.
          4   -1    0    0  501    0  0.00000000000E+00 -0.00000000000E+00 -0.68159251391E+02  0.68171082214E+02  0.12700000000E+01 0.  1.
         25    2    1    2    0    0  0.00000000000E+00  0.00000000000E+00 -0.10872990529E+02  0.12547141889E+03  0.12499942014E+03 0.  0.
    9000005    1    3    3    0    0  0.54899733326E+02  0.22835725047E+02 -0.24738319711E+02  0.64408349768E+02  0.10000000000E+01 0.  0.
    9000005    1    3    3    0    0 -0.54899733326E+02 -0.22835725047E+02  0.13865329182E+02  0.61063069125E+02  0.10000000000E+01 0.  0.
<mgrwt>
<rscale>  0 0.12499942E+03</rscale>
<asrwt>0</asrwt>
<pdfrwt beam="2">  1        4 0.10488031E-01 0.12499942E+03</pdfrwt>
<pdfrwt beam="1">  1       -4 0.88152637E-02 0.12499942E+03</pdfrwt>
<totfact> 0.10442723E+04</totfact>
</mgrwt>
</event>
<event>
 5    1  0.3281209E-002  0.1250006E+03  0.7818608E-02  0.1235068E+00
         -4   -1    0    0    0  501 -0.00000000000E+00  0.00000000000E+00  0.63622610289E+03  0.63622737044E+03  0.12700000000E+01 0. -1.
          4   -1    0    0  501    0  0.00000000000E+00 -0.00000000000E+00 -0.60728145379E+01  0.62041902301E+01  0.12700000000E+01 0. -1.
         25    2    1    2    0    0  0.00000000000E+00  0.00000000000E+00  0.63015328836E+03  0.64243156067E+03  0.12500057330E+03 0.  0.
    9000005    1    3    3    0    0 -0.52327673982E+02  0.34124514936E+02  0.30676116988E+03  0.31305923294E+03  0.10000000000E+01 0.  0.
    9000005    1    3    3    0    0  0.52327673982E+02 -0.34124514936E+02  0.32339211848E+03  0.32937232773E+03  0.10000000000E+01 0.  0.
<mgrwt>
<rscale>  0 0.12500057E+03</rscale>
<asrwt>0</asrwt>
<pdfrwt beam="2">  1        4 0.94448293E-03 0.12500057E+03</pdfrwt>
<pdfrwt beam="1">  1       -4 0.97891096E-01 0.12500057E+03</pdfrwt>
<totfact> 0.46293610E+03</totfact>
</mgrwt>
</event>
<event>
 5    1  0.3281209E-002  0.1249959E+03  0.7818608E-02  0.1235076E+00
         -4   -1    0    0    0  501 -0.00000000000E+00  0.00000000000E+00  0.10133615706E+03  0.10134411491E+03  0.12700000000E+01 0. -1.
          4   -1    0    0  501    0  0.00000000000E+00 -0.00000000000E+00 -0.38525006499E+02  0.38545933971E+02  0.12700000000E+01 0. -1.
         25    2    1    2    0    0  0.00000000000E+00  0.00000000000E+00  0.62811150558E+02  0.13989004888E+03  0.12499594050E+03 0.  0.
    9000005    1    3    3    0    0 -0.43699760335E+02  0.12829879183E+02 -0.16479706375E+02  0.48444355455E+02  0.10000000000E+01 0.  0.
    9000005    1    3    3    0    0  0.43699760335E+02 -0.12829879183E+02  0.79290856933E+02  0.91445693427E+02  0.10000000000E+01 0.  0.
<mgrwt>
<rscale>  0 0.12499594E+03</rscale>
<asrwt>0</asrwt>
<pdfrwt beam="2">  1        4 0.59291460E-02 0.12499594E+03</pdfrwt>
<pdfrwt beam="1">  1       -4 0.15592400E-01 0.12499594E+03</pdfrwt>
<totfact> 0.10136792E+04</totfact>
</mgrwt>
</event>
<event>
 5    1  0.3281209E-002  0.1250189E+03  0.7818608E-02  0.1235040E+00
          4   -1    0    0  501    0  0.00000000000E+00  0.00000000000E+00  0.18350808815E+03  0.18351248272E+03  0.12700000000E+01 0. -1.
         -4   -1    0    0    0  501 -0.00000000000E+00 -0.00000000000E+00 -0.21269385853E+02  0.21307268116E+02  0.12700000000E+01 0. -1.
         25    2    1    2    0    0  0.00000000000E+00  0.00000000000E+00  0.16223870229E+03  0.20481975084E+03  0.12501893381E+03 0.  0.
    9000005    1    3    3    0    0  0.48929632544E+02 -0.15708966318E+02  0.22837116843E+02  0.56244239433E+02  0.10000000000E+01 0.  0.
    9000005    1    3    3    0    0 -0.48929632544E+02  0.15708966318E+02  0.13940158545E+03  0.14857551141E+03  0.10000000000E+01 0.  0.
<mgrwt>
<rscale>  0 0.12501893E+03</rscale>
<asrwt>0</asrwt>
<pdfrwt beam="1">  1        4 0.28235266E-01 0.12501893E+03</pdfrwt>
<pdfrwt beam="2">  1       -4 0.32754653E-02 0.12501893E+03</pdfrwt>
<totfact> 0.89291113E+03</totfact>
</mgrwt>
</event>
<event>
 5    1  0.3281209E-002  0.1250023E+03  0.7818608E-02  0.1235066E+00
          4   -1    0    0  501    0  0.00000000000E+00  0.00000000000E+00  0.27346850228E+02  0.27376324030E+02  0.12700000000E+01 0. -1.
         -4   -1    0    0    0  501 -0.00000000000E+00 -0.00000000000E+00 -0.14273704250E+03  0.14274269228E+03  0.12700000000E+01 0. -1.
         25    2    1    2    0    0  0.00000000000E+00  0.00000000000E+00 -0.11539019227E+03  0.17011901631E+03  0.12500233294E+03 0.  0.
    9000005    1    3    3    0    0  0.53687413919E+02  0.28646648256E+02 -0.77057929141E+02  0.98193142903E+02  0.10000000000E+01 0.  0.
    9000005    1    3    3    0    0 -0.53687413919E+02 -0.28646648256E+02 -0.38332263127E+02  0.71925873412E+02  0.10000000000E+01 0.  0.
<mgrwt>
<rscale>  0 0.12500233E+03</rscale>
<asrwt>0</asrwt>
<pdfrwt beam="1">  1        4 0.42099096E-02 0.12500233E+03</pdfrwt>
<pdfrwt beam="2">  1       -4 0.21962246E-01 0.12500233E+03</pdfrwt>
<totfact> 0.95421462E+03</totfact>
</mgrwt>
</event>
<event>
 5    1  0.3281209E-002  0.1249976E+03  0.7818608E-02  0.1235073E+00
          4   -1    0    0  501    0  0.00000000000E+00  0.00000000000E+00  0.61737295183E+01  0.63030021549E+01  0.12700000000E+01 0. -1.
         -4   -1    0    0    0  501 -0.00000000000E+00 -0.00000000000E+00 -0.62601126269E+03  0.62601255093E+03  0.12700000000E+01 0. -1.
         25    2    1    2    0    0  0.00000000000E+00  0.00000000000E+00 -0.61983753317E+03  0.63231555308E+03  0.12499756453E+03 0.  0.
    9000005    1    3    3    0    0  0.11348860078E+02 -0.61362762077E+02 -0.32662952744E+03  0.33253876975E+03  0.10000000000E+01 0.  0.
    9000005    1    3    3    0    0 -0.11348860078E+02  0.61362762077E+02 -0.29320800574E+03  0.29977678333E+03  0.10000000000E+01 0.  0.
<mgrwt>
<rscale>  0 0.12499756E+03</rscale>
<asrwt>0</asrwt>
<pdfrwt beam="1">  1        4 0.95984818E-03 0.12499756E+03</pdfrwt>
<pdfrwt beam="2">  1       -4 0.96319419E-01 0.12499756E+03</pdfrwt>
<totfact> 0.46891815E+03</totfact>
</mgrwt>
</event>
<event>
 5    1  0.3281209E-002  0.1250013E+03  0.7818608E-02  0.1235067E+00
          4   -1    0    0  501    0  0.00000000000E+00  0.00000000000E+00  0.68705559459E+03  0.68705676837E+03  0.12700000000E+01 0.  1.
         -4   -1    0    0    0  501 -0.00000000000E+00 -0.00000000000E+00 -0.56134985239E+01  0.57553684224E+01  0.12700000000E+01 0.  1.
         25    2    1    2    0    0  0.00000000000E+00  0.00000000000E+00  0.68144209607E+03  0.69281213679E+03  0.12500130635E+03 0.  0.
    9000005    1    3    3    0    0 -0.62269947820E+02  0.40475006086E+01  0.35943692616E+03  0.36481479212E+03  0.10000000000E+01 0.  0.
    9000005    1    3    3    0    0  0.62269947820E+02 -0.40475006086E+01  0.32200516991E+03  0.32799734467E+03  0.10000000000E+01 0.  0.
<mgrwt>
<rscale>  0 0.12500131E+03</rscale>
<asrwt>0</asrwt>
<pdfrwt beam="1">  1        4 0.10571189E+00 0.12500131E+03</pdfrwt>
<pdfrwt beam="2">  1       -4 0.87461827E-03 0.12500131E+03</pdfrwt>
<totfact> 0.43467598E+03</totfact>
</mgrwt>
</event>
<event>
 5    1  0.3281209E-002  0.1250001E+03  0.7818608E-02  0.1235069E+00
          4   -1    0    0  501    0  0.00000000000E+00  0.00000000000E+00  0.22976983673E+02  0.23012055074E+02  0.12700000000E+01 0. -1.
         -4   -1    0    0    0  501 -0.00000000000E+00 -0.00000000000E+00 -0.16984014610E+03  0.16984489432E+03  0.12700000000E+01 0. -1.
         25    2    1    2    0    0  0.00000000000E+00  0.00000000000E+00 -0.14686316242E+03  0.19285694939E+03  0.12500005781E+03 0.  0.
    9000005    1    3    3    0    0  0.27670246645E+01 -0.60658883942E+02 -0.50646535127E+02  0.79077355462E+02  0.10000000000E+01 0.  0.
    9000005    1    3    3    0    0 -0.27670246645E+01  0.60658883942E+02 -0.96216627296E+02  0.11377959393E+03  0.10000000000E+01 0.  0.
<mgrwt>
<rscale>  0 0.12500006E+03</rscale>
<asrwt>0</asrwt>
<pdfrwt beam="1">  1        4 0.35379837E-02 0.12500006E+03</pdfrwt>
<pdfrwt beam="2">  1       -4 0.26132315E-01 0.12500006E+03</pdfrwt>
<totfact> 0.91352460E+03</totfact>
</mgrwt>
</event>
<event>
 5    1  0.3281209E-002  0.1250010E+03  0.7818608E-02  0.1235068E+00
          4   -1    0    0  501    0  0.00000000000E+00  0.00000000000E+00  0.94172936900E+02  0.94181500011E+02  0.12700000000E+01 0.  1.
         -4   -1    0    0    0  501 -0.00000000000E+00 -0.00000000000E+00 -0.41460044050E+02  0.41479490747E+02  0.12700000000E+01 0.  1.
         25    2    1    2    0    0  0.00000000000E+00  0.00000000000E+00  0.52712892850E+02  0.13566099076E+03  0.12500102136E+03 0.  0.
    9000005    1    3    3    0    0  0.20422227104E+01  0.62180064374E+02  0.19955806179E+02  0.65343440983E+02  0.10000000000E+01 0.  0.
    9000005    1    3    3    0    0 -0.20422227104E+01 -0.62180064374E+02  0.32757086671E+02  0.70317549775E+02  0.10000000000E+01 0.  0.
<mgrwt>
<rscale>  0 0.12500102E+03</rscale>
<asrwt>0</asrwt>
<pdfrwt beam="1">  1        4 0.14490299E-01 0.12500102E+03</pdfrwt>
<pdfrwt beam="2">  1       -4 0.63806229E-02 0.12500102E+03</pdfrwt>
<totfact> 0.10223922E+04</totfact>
</mgrwt>
</event>
<event>
 5    1  0.3281209E-002  0.1249986E+03  0.7818608E-02  0.1235072E+00
          4   -1    0    0  501    0  0.00000000000E+00  0.00000000000E+00  0.10672216449E+02  0.10747516175E+02  0.12700000000E+01 0.  1.
         -4   -1    0    0    0  501 -0.00000000000E+00 -0.00000000000E+00 -0.36464900296E+03  0.36465121453E+03  0.12700000000E+01 0.  1.
         25    2    1    2    0    0  0.00000000000E+00  0.00000000000E+00 -0.35397678651E+03  0.37539873071E+03  0.12499856650E+03 0.  0.
    9000005    1    3    3    0    0  0.34561245497E+02 -0.23545111530E+02 -0.31644632136E+03  0.31919919529E+03  0.10000000000E+01 0.  0.
    9000005    1    3    3    0    0 -0.34561245497E+02  0.23545111530E+02 -0.37530465146E+02  0.56199535419E+02  0.10000000000E+01 0.  0.
<mgrwt>
<rscale>  0 0.12499857E+03</rscale>
<asrwt>0</asrwt>
<pdfrwt beam="1">  1        4 0.16478421E-02 0.12499857E+03</pdfrwt>
<pdfrwt beam="2">  1       -4 0.56105800E-01 0.12499857E+03</pdfrwt>
<totfact> 0.67020013E+03</totfact>
</mgrwt>
</event>
<event>
 5    1  0.3281209E-002  0.1250001E+03  0.7818608E-02  0.1235069E+00
          4   -1    0    0  501    0  0.00000000000E+00  0.00000000000E+00  0.15188942185E+02  0.15241944256E+02  0.12700000000E+01 0.  1.
         -4   -1    0    0    0  501 -0.00000000000E+00 -0.00000000000E+00 -0.25667519499E+03  0.25667833688E+03  0.12700000000E+01 0.  1.
         25    2    1    2    0    0  0.00000000000E+00  0.00000000000E+00 -0.24148625281E+03  0.27192028114E+03  0.12500011600E+03 0.  0.
    9000005    1    3    3    0    0  0.40846991790E+02  0.46662046832E+02 -0.13751371435E+03  0.15085372050E+03  0.10000000000E+01 0.  0.
    9000005    1    3    3    0    0 -0.40846991790E+02 -0.46662046832E+02 -0.10397253846E+03  0.12106656064E+03  0.10000000000E+01 0.  0.
<mgrwt>
<rscale>  0 0.12500012E+03</rscale>
<asrwt>0</asrwt>
<pdfrwt beam="1">  1        4 0.23410793E-02 0.12500012E+03</pdfrwt>
<pdfrwt beam="2">  1       -4 0.39492807E-01 0.12500012E+03</pdfrwt>
<totfact> 0.79261557E+03</totfact>
</mgrwt>
</event>
<event>
 5    1  0.3281209E-002  0.1250014E+03  0.7818608E-02  0.1235067E+00
         -4   -1    0    0    0  501 -0.00000000000E+00  0.00000000000E+00  0.23886846803E+02  0.23920584236E+02  0.12700000000E+01 0.  1.
          4   -1    0    0  501    0  0.00000000000E+00 -0.00000000000E+00 -0.16338345653E+03  0.16338839239E+03  0.12700000000E+01 0.  1.
         25    2    1    2    0    0  0.00000000000E+00  0.00000000000E+00 -0.13949660973E+03  0.18730897663E+03  0.12500139439E+03 0.  0.
    9000005    1    3    3    0    0  0.15982999000E+02  0.33266265517E+02  0.58195518866E+01  0.37376033265E+02  0.10000000000E+01 0.  0.
    9000005    1    3    3    0    0 -0.15982999000E+02 -0.33266265517E+02 -0.14531616161E+03  0.14993294336E+03  0.10000000000E+01 0.  0.
<mgrwt>
<rscale>  0 0.12500139E+03</rscale>
<asrwt>0</asrwt>
<pdfrwt beam="2">  1        4 0.25138891E-01 0.12500139E+03</pdfrwt>
<pdfrwt beam="1">  1       -4 0.36778745E-02 0.12500139E+03</pdfrwt>
<totfact> 0.92314779E+03</totfact>
</mgrwt>
</event>
<event>
 5    1  0.3281209E-002  0.1249995E+03  0.7818608E-02  0.1235070E+00
          4   -1    0    0  501    0  0.00000000000E+00  0.00000000000E+00  0.15691764025E+02  0.15743073341E+02  0.12700000000E+01 0.  1.
         -4   -1    0    0    0  501 -0.00000000000E+00 -0.00000000000E+00 -0.24847523119E+03  0.24847847676E+03  0.12700000000E+01 0.  1.
         25    2    1    2    0    0  0.00000000000E+00  0.00000000000E+00 -0.23278346716E+03  0.26422155010E+03  0.12499953982E+03 0.  0.
    9000005    1    3    3    0    0  0.42092178190E+01 -0.61866221257E+02 -0.13277515158E+03  0.14654483179E+03  0.10000000000E+01 0.  0.
    9000005    1    3    3    0    0 -0.42092178190E+01  0.61866221257E+02 -0.10000831558E+03  0.11767671831E+03  0.10000000000E+01 0.  0.
<mgrwt>
<rscale>  0 0.12499954E+03</rscale>
<asrwt>0</asrwt>
<pdfrwt beam="1">  1        4 0.24183143E-02 0.12499954E+03</pdfrwt>
<pdfrwt beam="2">  1       -4 0.38231152E-01 0.12499954E+03</pdfrwt>
<totfact> 0.80318076E+03</totfact>
</mgrwt>
</event>
<event>
 5    1  0.3281209E-002  0.1250009E+03  0.7818608E-02  0.1235068E+00
         -4   -1    0    0    0  501 -0.00000000000E+00  0.00000000000E+00  0.90204519118E+01  0.91094156066E+01  0.12700000000E+01 0.  1.
          4   -1    0    0  501    0  0.00000000000E+00 -0.00000000000E+00 -0.43083491137E+03  0.43083678320E+03  0.12700000000E+01 0.  1.
         25    2    1    2    0    0  0.00000000000E+00  0.00000000000E+00 -0.42181445946E+03  0.43994619880E+03  0.12500087853E+03 0.  0.
    9000005    1    3    3    0    0  0.33742121801E+01 -0.53512306729E+02 -0.32388147434E+03  0.32829127570E+03  0.10000000000E+01 0.  0.
    9000005    1    3    3    0    0 -0.33742121801E+01  0.53512306729E+02 -0.97932985120E+02  0.11165492311E+03  0.10000000000E+01 0.  0.
<mgrwt>
<rscale>  0 0.12500088E+03</rscale>
<asrwt>0</asrwt>
<pdfrwt beam="2">  1        4 0.66289266E-01 0.12500088E+03</pdfrwt>
<pdfrwt beam="1">  1       -4 0.13947495E-02 0.12500088E+03</pdfrwt>
<totfact> 0.60843490E+03</totfact>
</mgrwt>
</event>
<event>
 5    1  0.3281209E-002  0.1250051E+03  0.7818608E-02  0.1235061E+00
          4   -1    0    0  501    0  0.00000000000E+00  0.00000000000E+00  0.11257896023E+03  0.11258612342E+03  0.12700000000E+01 0.  1.
         -4   -1    0    0    0  501 -0.00000000000E+00 -0.00000000000E+00 -0.34680821682E+02  0.34704067377E+02  0.12700000000E+01 0.  1.
         25    2    1    2    0    0  0.00000000000E+00  0.00000000000E+00  0.77898138545E+02  0.14729019079E+03  0.12500512116E+03 0.  0.
    9000005    1    3    3    0    0  0.56745599407E+02  0.20164928067E+02  0.19272163372E+02  0.63238466593E+02  0.10000000000E+01 0.  0.
    9000005    1    3    3    0    0 -0.56745599407E+02 -0.20164928067E+02  0.58625975173E+02  0.84051724200E+02  0.10000000000E+01 0.  0.
<mgrwt>
<rscale>  0 0.12500512E+03</rscale>
<asrwt>0</asrwt>
<pdfrwt beam="1">  1        4 0.17322179E-01 0.12500512E+03</pdfrwt>
<pdfrwt beam="2">  1       -4 0.53378501E-02 0.12500512E+03</pdfrwt>
<totfact> 0.99835116E+03</totfact>
</mgrwt>
</event>
<event>
 5    1  0.3281209E-002  0.1249900E+03  0.7818608E-02  0.1235085E+00
          4   -1    0    0  501    0  0.00000000000E+00  0.00000000000E+00  0.14495321039E+02  0.14550849873E+02  0.12700000000E+01 0.  1.
         -4   -1    0    0    0  501 -0.00000000000E+00 -0.00000000000E+00 -0.26886837818E+03  0.26887137759E+03  0.12700000000E+01 0.  1.
         25    2    1    2    0    0  0.00000000000E+00  0.00000000000E+00 -0.25437305714E+03  0.28342222746E+03  0.12499002688E+03 0.  0.
    9000005    1    3    3    0    0 -0.54488266257E+02 -0.19890949957E+02 -0.74492949332E+02  0.94418327406E+02  0.10000000000E+01 0.  0.
    9000005    1    3    3    0    0  0.54488266257E+02  0.19890949957E+02 -0.17988010781E+03  0.18900390005E+03  0.10000000000E+01 0.  0.
<mgrwt>
<rscale>  0 0.12499003E+03</rscale>
<asrwt>0</asrwt>
<pdfrwt beam="1">  1        4 0.22345518E-02 0.12499003E+03</pdfrwt>
<pdfrwt beam="2">  1       -4 0.41368864E-01 0.12499003E+03</pdfrwt>
<totfact> 0.77743751E+03</totfact>
</mgrwt>
</event>
<event>
 5    1  0.3281209E-002  0.1250015E+03  0.7818608E-02  0.1235067E+00
          4   -1    0    0  501    0  0.00000000000E+00  0.00000000000E+00  0.53621810255E+02  0.53636847736E+02  0.12700000000E+01 0. -1.
         -4   -1    0    0    0  501 -0.00000000000E+00 -0.00000000000E+00 -0.72819105274E+02  0.72830179135E+02  0.12700000000E+01 0. -1.
         25    2    1    2    0    0  0.00000000000E+00  0.00000000000E+00 -0.19197295018E+02  0.12646702687E+03  0.12500149099E+03 0.  0.
    9000005    1    3    3    0    0  0.30141110089E+01 -0.57220612395E+02 -0.34832188427E+02  0.67063885204E+02  0.10000000000E+01 0.  0.
    9000005    1    3    3    0    0 -0.30141110089E+01  0.57220612395E+02  0.15634893408E+02  0.59403141667E+02  0.10000000000E+01 0.  0.
<mgrwt>
<rscale>  0 0.12500149E+03</rscale>
<asrwt>0</asrwt>
<pdfrwt beam="1">  1        4 0.82515178E-02 0.12500149E+03</pdfrwt>
<pdfrwt beam="2">  1       -4 0.11204948E-01 0.12500149E+03</pdfrwt>
<totfact> 0.10420397E+04</totfact>
</mgrwt>
</event>
<event>
 5    1  0.3281209E-002  0.1249997E+03  0.7818608E-02  0.1235070E+00
         -4   -1    0    0    0  501 -0.00000000000E+00  0.00000000000E+00  0.13471164399E+04  0.13471170386E+04  0.12700000000E+01 0. -1.
          4   -1    0    0  501    0  0.00000000000E+00 -0.00000000000E+00 -0.27600117267E+01  0.30381844466E+01  0.12700000000E+01 0. -1.
         25    2    1    2    0    0  0.00000000000E+00  0.00000000000E+00  0.13443564282E+04  0.13501552230E+04  0.12499968085E+03 0.  0.
    9000005    1    3    3    0    0  0.47751730401E+02 -0.39551892482E+02  0.75629652607E+03  0.75883464292E+03  0.10000000000E+01 0.  0.
    9000005    1    3    3    0    0 -0.47751730401E+02  0.39551892482E+02  0.58805990213E+03  0.59132058010E+03  0.10000000000E+01 0.  0.
<mgrwt>
<rscale>  0 0.12499968E+03</rscale>
<asrwt>0</asrwt>
<pdfrwt beam="2">  1        4 0.44606198E-03 0.12499968E+03</pdfrwt>
<pdfrwt beam="1">  1       -4 0.20726974E+00 0.12499968E+03</pdfrwt>
<totfact> 0.21074973E+03</totfact>
</mgrwt>
</event>
<event>
 5    1  0.3281209E-002  0.1249987E+03  0.7818608E-02  0.1235071E+00
          4   -1    0    0  501    0  0.00000000000E+00  0.00000000000E+00  0.38297494589E+02  0.38318546316E+02  0.12700000000E+01 0.  1.
         -4   -1    0    0    0  501 -0.00000000000E+00 -0.00000000000E+00 -0.10194241085E+03  0.10195032138E+03  0.12700000000E+01 0.  1.
         25    2    1    2    0    0  0.00000000000E+00  0.00000000000E+00 -0.63644916260E+02  0.14026886770E+03  0.12499871951E+03 0.  0.
    9000005    1    3    3    0    0  0.15044632356E+02 -0.59947066188E+02 -0.42179127587E+02  0.74833618858E+02  0.10000000000E+01 0.  0.
    9000005    1    3    3    0    0 -0.15044632356E+02  0.59947066188E+02 -0.21465788673E+02  0.65435248839E+02  0.10000000000E+01 0.  0.
<mgrwt>
<rscale>  0 0.12499872E+03</rscale>
<asrwt>0</asrwt>
<pdfrwt beam="1">  1        4 0.58941501E-02 0.12499872E+03</pdfrwt>
<pdfrwt beam="2">  1       -4 0.15685676E-01 0.12499872E+03</pdfrwt>
<totfact> 0.10128309E+04</totfact>
</mgrwt>
</event>
<event>
 5    1  0.3281209E-002  0.1249989E+03  0.7818608E-02  0.1235071E+00
          4   -1    0    0  501    0  0.00000000000E+00  0.00000000000E+00  0.40676333619E+03  0.40676531879E+03  0.12700000000E+01 0. -1.
         -4   -1    0    0    0  501 -0.00000000000E+00 -0.00000000000E+00 -0.95590727708E+01  0.96430686111E+01  0.12700000000E+01 0. -1.
         25    2    1    2    0    0  0.00000000000E+00  0.00000000000E+00  0.39720426342E+03  0.41640838740E+03  0.12499887287E+03 0.  0.
    9000005    1    3    3    0    0 -0.36668888177E+02  0.11169543458E+01  0.30072582999E+02  0.47446972457E+02  0.10000000000E+01 0.  0.
    9000005    1    3    3    0    0  0.36668888177E+02 -0.11169543458E+01  0.36713168042E+03  0.36896141494E+03  0.10000000000E+01 0.  0.
<mgrwt>
<rscale>  0 0.12499887E+03</rscale>
<asrwt>0</asrwt>
<pdfrwt beam="1">  1        4 0.62585583E-01 0.12499887E+03</pdfrwt>
<pdfrwt beam="2">  1       -4 0.14772404E-02 0.12499887E+03</pdfrwt>
<totfact> 0.62989181E+03</totfact>
</mgrwt>
</event>
<event>
 5    1  0.3281209E-002  0.1250039E+03  0.7818608E-02  0.1235063E+00
         -4   -1    0    0    0  501 -0.00000000000E+00  0.00000000000E+00  0.41418277219E+02  0.41437743517E+02  0.12700000000E+01 0.  1.
          4   -1    0    0  501    0  0.00000000000E+00 -0.00000000000E+00 -0.94272217628E+02  0.94280771722E+02  0.12700000000E+01 0.  1.
         25    2    1    2    0    0  0.00000000000E+00  0.00000000000E+00 -0.52853940409E+02  0.13571851524E+03  0.12500390539E+03 0.  0.
    9000005    1    3    3    0    0  0.46953866074E+02  0.41024359167E+02 -0.31011526970E+02  0.69644658010E+02  0.10000000000E+01 0.  0.
    9000005    1    3    3    0    0 -0.46953866074E+02 -0.41024359167E+02 -0.21842413438E+02  0.66073857229E+02  0.10000000000E+01 0.  0.
<mgrwt>
<rscale>  0 0.12500391E+03</rscale>
<asrwt>0</asrwt>
<pdfrwt beam="2">  1        4 0.14505573E-01 0.12500391E+03</pdfrwt>
<pdfrwt beam="1">  1       -4 0.63741981E-02 0.12500391E+03</pdfrwt>
<totfact> 0.10222048E+04</totfact>
</mgrwt>
</event>
<event>
 5    1  0.3281209E-002  0.1250042E+03  0.7818608E-02  0.1235063E+00
         -4   -1    0    0    0  501 -0.00000000000E+00  0.00000000000E+00  0.50028296227E+02  0.50044413508E+02  0.12700000000E+01 0. -1.
          4   -1    0    0  501    0  0.00000000000E+00 -0.00000000000E+00 -0.78052140053E+02  0.78062471565E+02  0.12700000000E+01 0. -1.
         25    2    1    2    0    0  0.00000000000E+00  0.00000000000E+00 -0.28023843826E+02  0.12810688507E+03  0.12500415265E+03 0.  0.
    9000005    1    3    3    0    0 -0.20556757570E+02 -0.22706427002E+02 -0.69837371652E+02  0.76265461306E+02  0.10000000000E+01 0.  0.
    9000005    1    3    3    0    0  0.20556757570E+02  0.22706427002E+02  0.41813527826E+02  0.51841423767E+02  0.10000000000E+01 0.  0.
<mgrwt>
<rscale>  0 0.12500415E+03</rscale>
<asrwt>0</asrwt>
<pdfrwt beam="2">  1        4 0.12010056E-01 0.12500415E+03</pdfrwt>
<pdfrwt beam="1">  1       -4 0.76986955E-02 0.12500415E+03</pdfrwt>
<totfact> 0.10384206E+04</totfact>
</mgrwt>
</event>
<event>
 5    1  0.3281209E-002  0.1250068E+03  0.7818608E-02  0.1235059E+00
          4   -1    0    0  501    0  0.00000000000E+00  0.00000000000E+00  0.19916943957E+02  0.19957393532E+02  0.12700000000E+01 0.  1.
         -4   -1    0    0    0  501 -0.00000000000E+00 -0.00000000000E+00 -0.19590678308E+03  0.19591089954E+03  0.12700000000E+01 0.  1.
         25    2    1    2    0    0  0.00000000000E+00  0.00000000000E+00 -0.17598983912E+03  0.21586829307E+03  0.12500678573E+03 0.  0.
    9000005    1    3    3    0    0  0.10147472518E+02 -0.60436269774E+02 -0.66834088882E+02  0.90682464344E+02  0.10000000000E+01 0.  0.
    9000005    1    3    3    0    0 -0.10147472518E+02  0.60436269774E+02 -0.10915575024E+03  0.12518582873E+03  0.10000000000E+01 0.  0.
<mgrwt>
<rscale>  0 0.12500679E+03</rscale>
<asrwt>0</asrwt>
<pdfrwt beam="1">  1        4 0.30675735E-02 0.12500679E+03</pdfrwt>
<pdfrwt beam="2">  1       -4 0.30142932E-01 0.12500679E+03</pdfrwt>
<totfact> 0.87513121E+03</totfact>
</mgrwt>
</event>
<event>
 5    1  0.3281209E-002  0.1250026E+03  0.7818608E-02  0.1235065E+00
          4   -1    0    0  501    0  0.00000000000E+00  0.00000000000E+00  0.33304257555E+03  0.33304499701E+03  0.12700000000E+01 0. -1.
         -4   -1    0    0    0  501 -0.00000000000E+00 -0.00000000000E+00 -0.11692621408E+02  0.11761390028E+02  0.12700000000E+01 0. -1.
         25    2    1    2    0    0  0.00000000000E+00  0.00000000000E+00  0.32134995415E+03  0.34480638704E+03  0.12500260602E+03 0.  0.
    9000005    1    3    3    0    0  0.34493485451E+02  0.52039101659E+02  0.15309855931E+03  0.16534218307E+03  0.10000000000E+01 0.  0.
    9000005    1    3    3    0    0 -0.34493485451E+02 -0.52039101659E+02  0.16825139483E+03  0.17946420396E+03  0.10000000000E+01 0.  0.
<mgrwt>
<rscale>  0 0.12500261E+03</rscale>
<asrwt>0</asrwt>
<pdfrwt beam="1">  1        4 0.51242796E-01 0.12500261E+03</pdfrwt>
<pdfrwt beam="2">  1       -4 0.18043410E-02 0.12500261E+03</pdfrwt>
<totfact> 0.70295664E+03</totfact>
</mgrwt>
</event>
<event>
 5    1  0.3281209E-002  0.1249998E+03  0.7818608E-02  0.1235070E+00
         -4   -1    0    0    0  501 -0.00000000000E+00  0.00000000000E+00  0.45489782119E+03  0.45489959401E+03  0.12700000000E+01 0.  1.
          4   -1    0    0  501    0  0.00000000000E+00 -0.00000000000E+00 -0.85383147319E+01  0.86322487488E+01  0.12700000000E+01 0.  1.
         25    2    1    2    0    0  0.00000000000E+00  0.00000000000E+00  0.44635950646E+03  0.46353184275E+03  0.12499984095E+03 0.  0.
    9000005    1    3    3    0    0 -0.12519715041E+02  0.37798778539E+02  0.40178352419E+03  0.40375300771E+03  0.10000000000E+01 0.  0.
    9000005    1    3    3    0    0  0.12519715041E+02 -0.37798778539E+02  0.44575982268E+02  0.59778835041E+02  0.10000000000E+01 0.  0.
<mgrwt>
<rscale>  0 0.12499984E+03</rscale>
<asrwt>0</asrwt>
<pdfrwt beam="2">  1        4 0.13209484E-02 0.12499984E+03</pdfrwt>
<pdfrwt beam="1">  1       -4 0.69991671E-01 0.12499984E+03</pdfrwt>
<totfact> 0.58809388E+03</totfact>
</mgrwt>
</event>
<event>
 5    1  0.3281209E-002  0.1249984E+03  0.7818608E-02  0.1235072E+00
         -4   -1    0    0    0  501 -0.00000000000E+00  0.00000000000E+00  0.28660119102E+03  0.28660400485E+03  0.12700000000E+01 0. -1.
          4   -1    0    0  501    0  0.00000000000E+00 -0.00000000000E+00 -0.13596741726E+02  0.13655924925E+02  0.12700000000E+01 0. -1.
         25    2    1    2    0    0  0.00000000000E+00  0.00000000000E+00  0.27300444929E+03  0.30025992977E+03  0.12499838436E+03 0.  0.
    9000005    1    3    3    0    0  0.26698514928E+00  0.54158805730E+02  0.21138882342E+03  0.21821888595E+03  0.10000000000E+01 0.  0.
    9000005    1    3    3    0    0 -0.26698514928E+00 -0.54158805730E+02  0.61615625874E+02  0.82041043819E+02  0.10000000000E+01 0.  0.
<mgrwt>
<rscale>  0 0.12499838E+03</rscale>
<asrwt>0</asrwt>
<pdfrwt beam="2">  1        4 0.20965757E-02 0.12499838E+03</pdfrwt>
<pdfrwt beam="1">  1       -4 0.44097254E-01 0.12499838E+03</pdfrwt>
<totfact> 0.75568958E+03</totfact>
</mgrwt>
</event>
<event>
 5    1  0.3281209E-002  0.1250071E+03  0.7818608E-02  0.1235058E+00
          4   -1    0    0  501    0  0.00000000000E+00  0.00000000000E+00  0.55530340115E+02  0.55544860908E+02  0.12700000000E+01 0. -1.
         -4   -1    0    0    0  501 -0.00000000000E+00 -0.00000000000E+00 -0.70322977372E+02  0.70334444239E+02  0.12700000000E+01 0. -1.
         25    2    1    2    0    0  0.00000000000E+00  0.00000000000E+00 -0.14792637257E+02  0.12587930515E+03  0.12500710919E+03 0.  0.
    9000005    1    3    3    0    0 -0.40370008263E+02 -0.41499450352E+02  0.16299811803E+02  0.60155014849E+02  0.10000000000E+01 0.  0.
    9000005    1    3    3    0    0  0.40370008263E+02  0.41499450352E+02 -0.31092449060E+02  0.65724290298E+02  0.10000000000E+01 0.  0.
<mgrwt>
<rscale>  0 0.12500711E+03</rscale>
<asrwt>0</asrwt>
<pdfrwt beam="1">  1        4 0.85451283E-02 0.12500711E+03</pdfrwt>
<pdfrwt beam="2">  1       -4 0.10820919E-01 0.12500711E+03</pdfrwt>
<totfact> 0.10431930E+04</totfact>
</mgrwt>
</event>
<event>
 5    1  0.3281209E-002  0.1250454E+03  0.7818608E-02  0.1234998E+00
         -4   -1    0    0    0  501 -0.00000000000E+00  0.00000000000E+00  0.30151596875E+02  0.30178331533E+02  0.12700000000E+01 0. -1.
          4   -1    0    0  501    0  0.00000000000E+00 -0.00000000000E+00 -0.12956049853E+03  0.12956672289E+03  0.12700000000E+01 0. -1.
         25    2    1    2    0    0  0.00000000000E+00  0.00000000000E+00 -0.99408901656E+02  0.15974505442E+03  0.12504540249E+03 0.  0.
    9000005    1    3    3    0    0  0.14380525442E+02 -0.32917308084E+02 -0.11506608546E+03  0.12054689007E+03  0.10000000000E+01 0.  0.
    9000005    1    3    3    0    0 -0.14380525442E+02  0.32917308084E+02  0.15657183803E+02  0.39198164347E+02  0.10000000000E+01 0.  0.
<mgrwt>
<rscale>  0 0.12504540E+03</rscale>
<asrwt>0</asrwt>
<pdfrwt beam="2">  1        4 0.19934919E-01 0.12504540E+03</pdfrwt>
<pdfrwt beam="1">  1       -4 0.46412426E-02 0.12504540E+03</pdfrwt>
<totfact> 0.97292632E+03</totfact>
</mgrwt>
</event>
<event>
 5    1  0.3281209E-002  0.1249970E+03  0.7818608E-02  0.1235074E+00
         -4   -1    0    0    0  501 -0.00000000000E+00  0.00000000000E+00  0.81507337806E+03  0.81507436748E+03  0.12700000000E+01 0.  1.
          4   -1    0    0  501    0  0.00000000000E+00 -0.00000000000E+00 -0.47071328970E+01  0.48754487085E+01  0.12700000000E+01 0.  1.
         25    2    1    2    0    0  0.00000000000E+00  0.00000000000E+00  0.81036624516E+03  0.81994981619E+03  0.12499699903E+03 0.  0.
    9000005    1    3    3    0    0  0.41097503985E+02 -0.38342030262E+01  0.71295779383E+03  0.71415230989E+03  0.10000000000E+01 0.  0.
    9000005    1    3    3    0    0 -0.41097503985E+02  0.38342030262E+01  0.97408451336E+02  0.10579750630E+03  0.10000000000E+01 0.  0.
<mgrwt>
<rscale>  0 0.12499700E+03</rscale>
<asrwt>0</asrwt>
<pdfrwt beam="2">  1        4 0.73719871E-03 0.12499700E+03</pdfrwt>
<pdfrwt beam="1">  1       -4 0.12540877E+00 0.12499700E+03</pdfrwt>
<totfact> 0.37391978E+03</totfact>
</mgrwt>
</event>
<event>
 5    1  0.3281209E-002  0.1249984E+03  0.7818608E-02  0.1235072E+00
         -4   -1    0    0    0  501 -0.00000000000E+00  0.00000000000E+00  0.66278022257E+01  0.67483822019E+01  0.12700000000E+01 0. -1.
          4   -1    0    0  501    0  0.00000000000E+00 -0.00000000000E+00 -0.58392424250E+03  0.58392562358E+03  0.12700000000E+01 0. -1.
         25    2    1    2    0    0  0.00000000000E+00  0.00000000000E+00 -0.57729644027E+03  0.59067400578E+03  0.12499840463E+03 0.  0.
    9000005    1    3    3    0    0 -0.35838466209E+02 -0.68373953277E+01 -0.52839238896E+03  0.52965145365E+03  0.10000000000E+01 0.  0.
    9000005    1    3    3    0    0  0.35838466209E+02  0.68373953277E+01 -0.48904051309E+02  0.61022552139E+02  0.10000000000E+01 0.  0.
<mgrwt>
<rscale>  0 0.12499840E+03</rscale>
<asrwt>0</asrwt>
<pdfrwt beam="2">  1        4 0.89843841E-01 0.12499840E+03</pdfrwt>
<pdfrwt beam="1">  1       -4 0.10290440E-02 0.12499840E+03</pdfrwt>
<totfact> 0.49463382E+03</totfact>
</mgrwt>
</event>
<event>
 5    1  0.3281209E-002  0.1249960E+03  0.7818608E-02  0.1235076E+00
         -4   -1    0    0    0  501 -0.00000000000E+00  0.00000000000E+00  0.29217075541E+01  0.31857926850E+01  0.12700000000E+01 0. -1.
          4   -1    0    0  501    0  0.00000000000E+00 -0.00000000000E+00 -0.12788186925E+04  0.12788193231E+04  0.12700000000E+01 0. -1.
         25    2    1    2    0    0  0.00000000000E+00  0.00000000000E+00 -0.12758969850E+04  0.12820051158E+04  0.12499600297E+03 0.  0.
    9000005    1    3    3    0    0  0.83024161359E+01  0.58002036731E+02 -0.86073462888E+03  0.86272722672E+03  0.10000000000E+01 0.  0.
    9000005    1    3    3    0    0 -0.83024161359E+01 -0.58002036731E+02 -0.41516235609E+03  0.41927788911E+03  0.10000000000E+01 0.  0.
<mgrwt>
<rscale>  0 0.12499600E+03</rscale>
<asrwt>0</asrwt>
<pdfrwt beam="2">  1        4 0.19676127E+00 0.12499600E+03</pdfrwt>
<pdfrwt beam="1">  1       -4 0.46985724E-03 0.12499600E+03</pdfrwt>
<totfact> 0.22659294E+03</totfact>
</mgrwt>
</event>
<event>
 5    1  0.3281209E-002  0.1250013E+03  0.7818608E-02  0.1235067E+00
         -4   -1    0    0    0  501 -0.00000000000E+00  0.00000000000E+00  0.30007301335E+02  0.30034164437E+02  0.12700000000E+01 0.  1.
          4   -1    0    0  501    0  0.00000000000E+00 -0.00000000000E+00 -0.13009111338E+03  0.13009731234E+03  0.12700000000E+01 0.  1.
         25    2    1    2    0    0  0.00000000000E+00  0.00000000000E+00 -0.10008381204E+03  0.16013147678E+03  0.12500128169E+03 0.  0.
    9000005    1    3    3    0    0 -0.54554234866E+02 -0.30349947440E+02 -0.53675690168E+02  0.82336890677E+02  0.10000000000E+01 0.  0.
    9000005    1    3    3    0    0  0.54554234866E+02  0.30349947440E+02 -0.46408121872E+02  0.77794586104E+02  0.10000000000E+01 0.  0.
<mgrwt>
<rscale>  0 0.12500128E+03</rscale>
<asrwt>0</asrwt>
<pdfrwt beam="2">  1        4 0.20016560E-01 0.12500128E+03</pdfrwt>
<pdfrwt beam="1">  1       -4 0.46190512E-02 0.12500128E+03</pdfrwt>
<totfact> 0.97314640E+03</totfact>
</mgrwt>
</event>
<event>
 5    1  0.3281209E-002  0.1249992E+03  0.7818608E-02  0.1235071E+00
         -4   -1    0    0    0  501 -0.00000000000E+00  0.00000000000E+00  0.30282435869E+02  0.30309055118E+02  0.12700000000E+01 0.  1.
          4   -1    0    0  501    0  0.00000000000E+00 -0.00000000000E+00 -0.12890579418E+03  0.12891205014E+03  0.12700000000E+01 0.  1.
         25    2    1    2    0    0  0.00000000000E+00  0.00000000000E+00 -0.98623358308E+02  0.15922110526E+03  0.12499917422E+03 0.  0.
    9000005    1    3    3    0    0  0.48531032873E+02  0.39318334925E+02 -0.46762285917E+02  0.78031429547E+02  0.10000000000E+01 0.  0.
    9000005    1    3    3    0    0 -0.48531032873E+02 -0.39318334925E+02 -0.51861072392E+02  0.81189675715E+02  0.10000000000E+01 0.  0.
<mgrwt>
<rscale>  0 0.12499917E+03</rscale>
<asrwt>0</asrwt>
<pdfrwt beam="2">  1        4 0.19834189E-01 0.12499917E+03</pdfrwt>
<pdfrwt beam="1">  1       -4 0.46613652E-02 0.12499917E+03</pdfrwt>
<totfact> 0.97494970E+03</totfact>
</mgrwt>
</event>
<event>
 5    1  0.3281209E-002  0.1249979E+03  0.7818608E-02  0.1235073E+00
         -4   -1    0    0    0  501 -0.00000000000E+00  0.00000000000E+00  0.32074350800E+01  0.34497159003E+01  0.12700000000E+01 0. -1.
          4   -1    0    0  501    0  0.00000000000E+00 -0.00000000000E+00 -0.11732686105E+04  0.11732692978E+04  0.12700000000E+01 0. -1.
         25    2    1    2    0    0  0.00000000000E+00  0.00000000000E+00 -0.11700611754E+04  0.11767190137E+04  0.12499793239E+03 0.  0.
    9000005    1    3    3    0    0 -0.53345169071E+02  0.10110173001E+02 -0.29377728498E+03  0.29875410597E+03  0.10000000000E+01 0.  0.
    9000005    1    3    3    0    0  0.53345169071E+02 -0.10110173001E+02 -0.87628389040E+03  0.87796490774E+03  0.10000000000E+01 0.  0.
<mgrwt>
<rscale>  0 0.12499793E+03</rscale>
<asrwt>0</asrwt>
<pdfrwt beam="2">  1        4 0.18052122E+00 0.12499793E+03</pdfrwt>
<pdfrwt beam="1">  1       -4 0.51214235E-03 0.12499793E+03</pdfrwt>
<totfact> 0.25331589E+03</totfact>
</mgrwt>
</event>
<event>
 5    1  0.3281209E-002  0.1250069E+03  0.7818608E-02  0.1235058E+00
          4   -1    0    0  501    0  0.00000000000E+00  0.00000000000E+00  0.61286689180E+02  0.61299846416E+02  0.12700000000E+01 0. -1.
         -4   -1    0    0    0  501 -0.00000000000E+00 -0.00000000000E+00 -0.63718049863E+02  0.63730705146E+02  0.12700000000E+01 0. -1.
         25    2    1    2    0    0  0.00000000000E+00  0.00000000000E+00 -0.24313606832E+01  0.12503055156E+03  0.12500690905E+03 0.  0.
    9000005    1    3    3    0    0  0.37339729473E+02  0.36971995569E+02  0.32621147698E+02  0.61857280336E+02  0.10000000000E+01 0.  0.
    9000005    1    3    3    0    0 -0.37339729473E+02 -0.36971995569E+02 -0.35052508381E+02  0.63173271225E+02  0.10000000000E+01 0.  0.
<mgrwt>
<rscale>  0 0.12500691E+03</rscale>
<asrwt>0</asrwt>
<pdfrwt beam="1">  1        4 0.94307070E-02 0.12500691E+03</pdfrwt>
<pdfrwt beam="2">  1       -4 0.98047625E-02 0.12500691E+03</pdfrwt>
<totfact> 0.10450567E+04</totfact>
</mgrwt>
</event>
<event>
 5    1  0.3281209E-002  0.1250047E+03  0.7818608E-02  0.1235062E+00
          4   -1    0    0  501    0  0.00000000000E+00  0.00000000000E+00  0.27314294086E+01  0.30122427880E+01  0.12700000000E+01 0. -1.
         -4   -1    0    0    0  501 -0.00000000000E+00 -0.00000000000E+00 -0.13600138412E+04  0.13600144342E+04  0.12700000000E+01 0. -1.
         25    2    1    2    0    0  0.00000000000E+00  0.00000000000E+00 -0.13572824118E+04  0.13630266770E+04  0.12500470690E+03 0.  0.
    9000005    1    3    3    0    0  0.25328111119E+02 -0.23630843958E+02 -0.11147424563E+03  0.11673661567E+03  0.10000000000E+01 0.  0.
    9000005    1    3    3    0    0 -0.25328111119E+02  0.23630843958E+02 -0.12458081662E+04  0.12462900613E+04  0.10000000000E+01 0.  0.
<mgrwt>
<rscale>  0 0.12500471E+03</rscale>
<asrwt>0</asrwt>
<pdfrwt beam="1">  1        4 0.44186764E-03 0.12500471E+03</pdfrwt>
<pdfrwt beam="2">  1       -4 0.20925403E+00 0.12500471E+03</pdfrwt>
<totfact> 0.20785880E+03</totfact>
</mgrwt>
</event>
<event>
 5    1  0.3281209E-002  0.1249985E+03  0.7818608E-02  0.1235072E+00
          4   -1    0    0  501    0  0.00000000000E+00  0.00000000000E+00  0.43206619615E+03  0.43206806264E+03  0.12700000000E+01 0.  1.
         -4   -1    0    0    0  501 -0.00000000000E+00 -0.00000000000E+00 -0.89941429845E+01  0.90833643561E+01  0.12700000000E+01 0.  1.
         25    2    1    2    0    0  0.00000000000E+00  0.00000000000E+00  0.42307205316E+03  0.44115142700E+03  0.12499847748E+03 0.  0.
    9000005    1    3    3    0    0  0.56759006908E+02 -0.25856534245E+02  0.19786290296E+03  0.20746294512E+03  0.10000000000E+01 0.  0.
    9000005    1    3    3    0    0 -0.56759006908E+02  0.25856534245E+02  0.22520915020E+03  0.23368848188E+03  0.10000000000E+01 0.  0.
<mgrwt>
<rscale>  0 0.12499848E+03</rscale>
<asrwt>0</asrwt>
<pdfrwt beam="1">  1        4 0.66478721E-01 0.12499848E+03</pdfrwt>
<pdfrwt beam="2">  1       -4 0.13907212E-02 0.12499848E+03</pdfrwt>
<totfact> 0.60740068E+03</totfact>
</mgrwt>
</event>
<event>
 5    1  0.3281209E-002  0.1249985E+03  0.7818608E-02  0.1235072E+00
         -4   -1    0    0    0  501 -0.00000000000E+00  0.00000000000E+00  0.16315262512E+03  0.16315756796E+03  0.12700000000E+01 0. -1.
          4   -1    0    0  501    0  0.00000000000E+00 -0.00000000000E+00 -0.23919566508E+02  0.23953257856E+02  0.12700000000E+01 0. -1.
         25    2    1    2    0    0  0.00000000000E+00  0.00000000000E+00  0.13923305861E+03  0.18711082581E+03  0.12499846610E+03 0.  0.
    9000005    1    3    3    0    0  0.53908711023E+02 -0.12360781564E+02  0.26071872656E+02  0.61152927884E+02  0.10000000000E+01 0.  0.
    9000005    1    3    3    0    0 -0.53908711023E+02  0.12360781564E+02  0.11316118595E+03  0.12595789793E+03  0.10000000000E+01 0.  0.
<mgrwt>
<rscale>  0 0.12499847E+03</rscale>
<asrwt>0</asrwt>
<pdfrwt beam="2">  1        4 0.36829051E-02 0.12499847E+03</pdfrwt>
<pdfrwt beam="1">  1       -4 0.25103376E-01 0.12499847E+03</pdfrwt>
<totfact> 0.92355639E+03</totfact>
</mgrwt>
</event>
<event>
 5    1  0.3281209E-002  0.1249997E+03  0.7818608E-02  0.1235070E+00
          4   -1    0    0  501    0  0.00000000000E+00  0.00000000000E+00  0.38056030002E+02  0.38077215228E+02  0.12700000000E+01 0. -1.
         -4   -1    0    0    0  501 -0.00000000000E+00 -0.00000000000E+00 -0.10259052068E+03  0.10259838124E+03  0.12700000000E+01 0. -1.
         25    2    1    2    0    0  0.00000000000E+00  0.00000000000E+00 -0.64534490679E+02  0.14067559647E+03  0.12499969182E+03 0.  0.
    9000005    1    3    3    0    0 -0.31312479631E+02  0.53519660233E+02 -0.41014010006E+02  0.74350349218E+02  0.10000000000E+01 0.  0.
    9000005    1    3    3    0    0  0.31312479631E+02 -0.53519660233E+02 -0.23520480673E+02  0.66325247253E+02  0.10000000000E+01 0.  0.
<mgrwt>
<rscale>  0 0.12499969E+03</rscale>
<asrwt>0</asrwt>
<pdfrwt beam="1">  1        4 0.58570082E-02 0.12499969E+03</pdfrwt>
<pdfrwt beam="2">  1       -4 0.15785391E-01 0.12499969E+03</pdfrwt>
<totfact> 0.10119673E+04</totfact>
</mgrwt>
</event>
<event>
 5    1  0.3281209E-002  0.1250092E+03  0.7818608E-02  0.1235055E+00
         -4   -1    0    0    0  501 -0.00000000000E+00  0.00000000000E+00  0.30124298867E+02  0.30151057730E+02  0.12700000000E+01 0. -1.
          4   -1    0    0  501    0  0.00000000000E+00 -0.00000000000E+00 -0.12960280124E+03  0.12960902357E+03  0.12700000000E+01 0. -1.
         25    2    1    2    0    0  0.00000000000E+00  0.00000000000E+00 -0.99478502376E+02  0.15976008130E+03  0.12500924422E+03 0.  0.
    9000005    1    3    3    0    0 -0.19485581939E+02 -0.34528564447E+02  0.12001079476E+02  0.41435921311E+02  0.10000000000E+01 0.  0.
    9000005    1    3    3    0    0  0.19485581939E+02  0.34528564447E+02 -0.11147958185E+03  0.11832415999E+03  0.10000000000E+01 0.  0.
<mgrwt>
<rscale>  0 0.12500924E+03</rscale>
<asrwt>0</asrwt>
<pdfrwt beam="2">  1        4 0.19941429E-01 0.12500924E+03</pdfrwt>
<pdfrwt beam="1">  1       -4 0.46370446E-02 0.12500924E+03</pdfrwt>
<totfact> 0.97368826E+03</totfact>
</mgrwt>
</event>
<event>
 5    1  0.3281209E-002  0.1249985E+03  0.7818608E-02  0.1235072E+00
         -4   -1    0    0    0  501 -0.00000000000E+00  0.00000000000E+00  0.15664332086E+03  0.15664846909E+03  0.12700000000E+01 0. -1.
          4   -1    0    0  501    0  0.00000000000E+00 -0.00000000000E+00 -0.24914906291E+02  0.24947253466E+02  0.12700000000E+01 0. -1.
         25    2    1    2    0    0  0.00000000000E+00  0.00000000000E+00  0.13172841457E+03  0.18159572256E+03  0.12499852498E+03 0.  0.
    9000005    1    3    3    0    0 -0.22303759393E+02  0.40959284863E+02  0.54375686704E+01  0.46964751172E+02  0.10000000000E+01 0.  0.
    9000005    1    3    3    0    0  0.22303759393E+02 -0.40959284863E+02  0.12629084590E+03  0.13463097139E+03  0.10000000000E+01 0.  0.
<mgrwt>
<rscale>  0 0.12499852E+03</rscale>
<asrwt>0</asrwt>
<pdfrwt beam="2">  1        4 0.38359468E-02 0.12499852E+03</pdfrwt>
<pdfrwt beam="1">  1       -4 0.24101857E-01 0.12499852E+03</pdfrwt>
<totfact> 0.93333640E+03</totfact>
</mgrwt>
</event>
<event>
 5    1  0.3281209E-002  0.1249969E+03  0.7818608E-02  0.1235074E+00
          4   -1    0    0  501    0  0.00000000000E+00  0.00000000000E+00  0.25460956371E+02  0.25492610681E+02  0.12700000000E+01 0.  1.
         -4   -1    0    0    0  501 -0.00000000000E+00 -0.00000000000E+00 -0.15328392686E+03  0.15328918792E+03  0.12700000000E+01 0.  1.
         25    2    1    2    0    0  0.00000000000E+00  0.00000000000E+00 -0.12782297049E+03  0.17878179860E+03  0.12499687887E+03 0.  0.
    9000005    1    3    3    0    0  0.29152924436E+02  0.18555521866E+02 -0.13838077987E+03  0.14263393928E+03  0.10000000000E+01 0.  0.
    9000005    1    3    3    0    0 -0.29152924436E+02 -0.18555521866E+02  0.10557809384E+02  0.36147859327E+02  0.10000000000E+01 0.  0.
<mgrwt>
<rscale>  0 0.12499688E+03</rscale>
<asrwt>0</asrwt>
<pdfrwt beam="1">  1        4 0.39199099E-02 0.12499688E+03</pdfrwt>
<pdfrwt beam="2">  1       -4 0.23584982E-01 0.12499688E+03</pdfrwt>
<totfact> 0.93843312E+03</totfact>
</mgrwt>
</event>
<event>
 5    1  0.3281209E-002  0.1249986E+03  0.7818608E-02  0.1235072E+00
         -4   -1    0    0    0  501 -0.00000000000E+00  0.00000000000E+00  0.10773520054E+04  0.10773527540E+04  0.12700000000E+01 0. -1.
          4   -1    0    0  501    0  0.00000000000E+00 -0.00000000000E+00 -0.35137188715E+01  0.37361906145E+01  0.12700000000E+01 0. -1.
         25    2    1    2    0    0  0.00000000000E+00  0.00000000000E+00  0.10738382866E+04  0.10810889446E+04  0.12499856176E+03 0.  0.
    9000005    1    3    3    0    0 -0.14648526016E+02 -0.54469625457E+02  0.30426119053E+03  0.30944691221E+03  0.10000000000E+01 0.  0.
    9000005    1    3    3    0    0  0.14648526016E+02  0.54469625457E+02  0.76957709604E+03  0.77164203240E+03  0.10000000000E+01 0.  0.
<mgrwt>
<rscale>  0 0.12499856E+03</rscale>
<asrwt>0</asrwt>
<pdfrwt beam="2">  1        4 0.55774350E-03 0.12499856E+03</pdfrwt>
<pdfrwt beam="1">  1       -4 0.16576346E+00 0.12499856E+03</pdfrwt>
<totfact> 0.28044470E+03</totfact>
</mgrwt>
</event>
<event>
 5    1  0.3281209E-002  0.1249990E+03  0.7818608E-02  0.1235071E+00
          4   -1    0    0  501    0  0.00000000000E+00  0.00000000000E+00  0.50015591490E+02  0.50031712864E+02  0.12700000000E+01 0.  1.
         -4   -1    0    0    0  501 -0.00000000000E+00 -0.00000000000E+00 -0.78065574465E+02  0.78075904200E+02  0.12700000000E+01 0.  1.
         25    2    1    2    0    0  0.00000000000E+00  0.00000000000E+00 -0.28049982975E+02  0.12810761706E+03  0.12499904002E+03 0.  0.
    9000005    1    3    3    0    0  0.45223988272E+02  0.42891348131E+02 -0.18644085722E+02  0.65065188789E+02  0.10000000000E+01 0.  0.
    9000005    1    3    3    0    0 -0.45223988272E+02 -0.42891348131E+02 -0.94058972535E+01  0.63042428275E+02  0.10000000000E+01 0.  0.
<mgrwt>
<rscale>  0 0.12499904E+03</rscale>
<asrwt>0</asrwt>
<pdfrwt beam="1">  1        4 0.76967411E-02 0.12499904E+03</pdfrwt>
<pdfrwt beam="2">  1       -4 0.12012123E-01 0.12499904E+03</pdfrwt>
<totfact> 0.10385389E+04</totfact>
</mgrwt>
</event>
<event>
 5    1  0.3281209E-002  0.1250079E+03  0.7818608E-02  0.1235057E+00
         -4   -1    0    0    0  501 -0.00000000000E+00  0.00000000000E+00  0.86275984616E+02  0.86285331439E+02  0.12700000000E+01 0.  1.
          4   -1    0    0  501    0  0.00000000000E+00 -0.00000000000E+00 -0.45261239351E+02  0.45279053519E+02  0.12700000000E+01 0.  1.
         25    2    1    2    0    0  0.00000000000E+00  0.00000000000E+00  0.41014745266E+02  0.13156438496E+03  0.12500791199E+03 0.  0.
    9000005    1    3    3    0    0 -0.24898055676E+02 -0.29867736659E+02 -0.30984679716E+02  0.49729721965E+02  0.10000000000E+01 0.  0.
    9000005    1    3    3    0    0  0.24898055676E+02  0.29867736659E+02  0.71999424982E+02  0.81834662993E+02  0.10000000000E+01 0.  0.
<mgrwt>
<rscale>  0 0.12500791E+03</rscale>
<asrwt>0</asrwt>
<pdfrwt beam="2">  1        4 0.69653570E-02 0.12500791E+03</pdfrwt>
<pdfrwt beam="1">  1       -4 0.13275318E-01 0.12500791E+03</pdfrwt>
<totfact> 0.10309165E+04</totfact>
</mgrwt>
</event>
<event>
 5    1  0.3281209E-002  0.1250005E+03  0.7818608E-02  0.1235068E+00
          4   -1    0    0  501    0  0.00000000000E+00  0.00000000000E+00  0.57758143953E+01  0.59137916710E+01  0.12700000000E+01 0.  1.
         -4   -1    0    0    0  501 -0.00000000000E+00 -0.00000000000E+00 -0.66819585449E+03  0.66819706139E+03  0.12700000000E+01 0.  1.
         25    2    1    2    0    0  0.00000000000E+00  0.00000000000E+00 -0.66242004009E+03  0.67411085307E+03  0.12500053081E+03 0.  0.
    9000005    1    3    3    0    0  0.59189154682E+02  0.20014039185E+02 -0.33751155167E+03  0.34324767342E+03  0.10000000000E+01 0.  0.
    9000005    1    3    3    0    0 -0.59189154682E+02 -0.20014039185E+02 -0.32490848843E+03  0.33086317965E+03  0.10000000000E+01 0.  0.
<mgrwt>
<rscale>  0 0.12500053E+03</rscale>
<asrwt>0</asrwt>
<pdfrwt beam="1">  1        4 0.89929383E-03 0.12500053E+03</pdfrwt>
<pdfrwt beam="2">  1       -4 0.10281001E+00 0.12500053E+03</pdfrwt>
<totfact> 0.44488538E+03</totfact>
</mgrwt>
</event>
<event>
 5    1  0.3281209E-002  0.1250187E+03  0.7818608E-02  0.1235040E+00
          4   -1    0    0  501    0  0.00000000000E+00  0.00000000000E+00  0.52837010898E+01  0.54341878148E+01  0.12700000000E+01 0.  1.
         -4   -1    0    0    0  501 -0.00000000000E+00 -0.00000000000E+00 -0.72898844209E+03  0.72898954835E+03  0.12700000000E+01 0.  1.
         25    2    1    2    0    0  0.00000000000E+00  0.00000000000E+00 -0.72370474100E+03  0.73442373617E+03  0.12501868698E+03 0.  0.
    9000005    1    3    3    0    0 -0.18747566490E+02 -0.56674964632E+02 -0.25307152063E+03  0.26001868667E+03  0.10000000000E+01 0.  0.
    9000005    1    3    3    0    0  0.18747566490E+02  0.56674964632E+02 -0.47063322037E+03  0.47440504949E+03  0.10000000000E+01 0.  0.
<mgrwt>
<rscale>  0 0.12501869E+03</rscale>
<asrwt>0</asrwt>
<pdfrwt beam="1">  1        4 0.82453867E-03 0.12501869E+03</pdfrwt>
<pdfrwt beam="2">  1       -4 0.11216365E+00 0.12501869E+03</pdfrwt>
<totfact> 0.41313601E+03</totfact>
</mgrwt>
</event>
<event>
 5    1  0.3281209E-002  0.1249987E+03  0.7818608E-02  0.1235071E+00
         -4   -1    0    0    0  501 -0.00000000000E+00  0.00000000000E+00  0.37172652221E+03  0.37172869167E+03  0.12700000000E+01 0.  1.
          4   -1    0    0  501    0  0.00000000000E+00 -0.00000000000E+00 -0.10467591003E+02  0.10544352109E+02  0.12700000000E+01 0.  1.
         25    2    1    2    0    0  0.00000000000E+00  0.00000000000E+00  0.36125893120E+03  0.38227304378E+03  0.12499865850E+03 0.  0.
    9000005    1    3    3    0    0 -0.81086156284E+01  0.48697992478E+02  0.63458551592E+02  0.80406665700E+02  0.10000000000E+01 0.  0.
    9000005    1    3    3    0    0  0.81086156284E+01 -0.48697992478E+02  0.29780037961E+03  0.30186637808E+03  0.10000000000E+01 0.  0.
<mgrwt>
<rscale>  0 0.12499866E+03</rscale>
<asrwt>0</asrwt>
<pdfrwt beam="2">  1        4 0.16164703E-02 0.12499866E+03</pdfrwt>
<pdfrwt beam="1">  1       -4 0.57194764E-01 0.12499866E+03</pdfrwt>
<totfact> 0.66316162E+03</totfact>
</mgrwt>
</event>
<event>
 5    1  0.3281209E-002  0.1250064E+03  0.7818608E-02  0.1235059E+00
         -4   -1    0    0    0  501 -0.00000000000E+00  0.00000000000E+00  0.12607666889E+03  0.12608306523E+03  0.12700000000E+01 0. -1.
          4   -1    0    0  501    0  0.00000000000E+00 -0.00000000000E+00 -0.30966109724E+02  0.30992141770E+02  0.12700000000E+01 0. -1.
         25    2    1    2    0    0  0.00000000000E+00  0.00000000000E+00  0.95110559167E+02  0.15707520700E+03  0.12500640860E+03 0.  0.
    9000005    1    3    3    0    0 -0.34613034974E+01  0.50213711148E+02  0.94102363545E+02  0.10672231366E+03  0.10000000000E+01 0.  0.
    9000005    1    3    3    0    0  0.34613034974E+01 -0.50213711148E+02  0.10081956219E+01  0.50352893339E+02  0.10000000000E+01 0.  0.
<mgrwt>
<rscale>  0 0.12500641E+03</rscale>
<asrwt>0</asrwt>
<pdfrwt beam="2">  1        4 0.47665114E-02 0.12500641E+03</pdfrwt>
<pdfrwt beam="1">  1       -4 0.19398905E-01 0.12500641E+03</pdfrwt>
<totfact> 0.97895536E+03</totfact>
</mgrwt>
</event>
<event>
 5    1  0.3281209E-002  0.1249964E+03  0.7818608E-02  0.1235075E+00
         -4   -1    0    0    0  501 -0.00000000000E+00  0.00000000000E+00  0.54762735101E+01  0.56216075599E+01  0.12700000000E+01 0. -1.
          4   -1    0    0  501    0  0.00000000000E+00 -0.00000000000E+00 -0.70377627150E+03  0.70377741739E+03  0.12700000000E+01 0. -1.
         25    2    1    2    0    0  0.00000000000E+00  0.00000000000E+00 -0.69829999799E+03  0.70939902495E+03  0.12499635757E+03 0.  0.
    9000005    1    3    3    0    0  0.60394464916E+02  0.51412380527E+01 -0.43542637910E+03  0.43962604033E+03  0.10000000000E+01 0.  0.
    9000005    1    3    3    0    0 -0.60394464916E+02 -0.51412380527E+01 -0.26287361890E+03  0.26977298462E+03  0.10000000000E+01 0.  0.
<mgrwt>
<rscale>  0 0.12499636E+03</rscale>
<asrwt>0</asrwt>
<pdfrwt beam="2">  1        4 0.10828447E+00 0.12499636E+03</pdfrwt>
<pdfrwt beam="1">  1       -4 0.85377186E-03 0.12499636E+03</pdfrwt>
<totfact> 0.42598576E+03</totfact>
</mgrwt>
</event>
<event>
 5    1  0.3281209E-002  0.1249985E+03  0.7818608E-02  0.1235072E+00
         -4   -1    0    0    0  501 -0.00000000000E+00  0.00000000000E+00  0.65813800965E+02  0.65826053333E+02  0.12700000000E+01 0. -1.
          4   -1    0    0  501    0  0.00000000000E+00 -0.00000000000E+00 -0.59327095811E+02  0.59340687537E+02  0.12700000000E+01 0. -1.
         25    2    1    2    0    0  0.00000000000E+00  0.00000000000E+00  0.64867051542E+01  0.12516674087E+03  0.12499854270E+03 0.  0.
    9000005    1    3    3    0    0 -0.34497081437E+02  0.46537285937E+02  0.26713990124E+02  0.63799724752E+02  0.10000000000E+01 0.  0.
    9000005    1    3    3    0    0  0.34497081437E+02 -0.46537285937E+02 -0.20227284970E+02  0.61367016118E+02  0.10000000000E+01 0.  0.
<mgrwt>
<rscale>  0 0.12499854E+03</rscale>
<asrwt>0</asrwt>
<pdfrwt beam="2">  1        4 0.91292334E-02 0.12499854E+03</pdfrwt>
<pdfrwt beam="1">  1       -4 0.10127188E-01 0.12499854E+03</pdfrwt>
<totfact> 0.10449586E+04</totfact>
</mgrwt>
</event>
<event>
 5    1  0.3281209E-002  0.1250041E+03  0.7818608E-02  0.1235063E+00
         -4   -1    0    0    0  501 -0.00000000000E+00  0.00000000000E+00  0.20655758562E+02  0.20694764115E+02  0.12700000000E+01 0.  1.
          4   -1    0    0  501    0  0.00000000000E+00 -0.00000000000E+00 -0.18890477358E+03  0.18890904261E+03  0.12700000000E+01 0.  1.
         25    2    1    2    0    0  0.00000000000E+00  0.00000000000E+00 -0.16824901501E+03  0.20960380672E+03  0.12500409890E+03 0.  0.
    9000005    1    3    3    0    0  0.38619766993E+02 -0.47434910212E+02 -0.62654638322E+02  0.87568035337E+02  0.10000000000E+01 0.  0.
    9000005    1    3    3    0    0 -0.38619766993E+02  0.47434910212E+02 -0.10559437669E+03  0.12203577139E+03  0.10000000000E+01 0.  0.
<mgrwt>
<rscale>  0 0.12500410E+03</rscale>
<asrwt>0</asrwt>
<pdfrwt beam="2">  1        4 0.29065600E-01 0.12500410E+03</pdfrwt>
<pdfrwt beam="1">  1       -4 0.31811380E-02 0.12500410E+03</pdfrwt>
<totfact> 0.88532512E+03</totfact>
</mgrwt>
</event>
<event>
 5    1  0.3281209E-002  0.1249975E+03  0.7818608E-02  0.1235073E+00
          4   -1    0    0  501    0  0.00000000000E+00  0.00000000000E+00  0.71280659620E+02  0.71291972451E+02  0.12700000000E+01 0. -1.
         -4   -1    0    0    0  501 -0.00000000000E+00 -0.00000000000E+00 -0.54775777464E+02  0.54790498235E+02  0.12700000000E+01 0. -1.
         25    2    1    2    0    0  0.00000000000E+00  0.00000000000E+00  0.16504882156E+02  0.12608247069E+03  0.12499751309E+03 0.  0.
    9000005    1    3    3    0    0  0.32631558975E+02 -0.20002547003E+02 -0.41574444155E+02  0.56518624669E+02  0.10000000000E+01 0.  0.
    9000005    1    3    3    0    0 -0.32631558975E+02  0.20002547003E+02  0.58079326311E+02  0.69563846016E+02  0.10000000000E+01 0.  0.
<mgrwt>
<rscale>  0 0.12499751E+03</rscale>
<asrwt>0</asrwt>
<pdfrwt beam="1">  1        4 0.10968258E-01 0.12499751E+03</pdfrwt>
<pdfrwt beam="2">  1       -4 0.84290453E-02 0.12499751E+03</pdfrwt>
<totfact> 0.10429736E+04</totfact>
</mgrwt>
</event>
<event>
 5    1  0.3281209E-002  0.1250001E+03  0.7818608E-02  0.1235069E+00
          4   -1    0    0  501    0  0.00000000000E+00  0.00000000000E+00  0.10149436040E+03  0.10150230585E+03  0.12700000000E+01 0. -1.
         -4   -1    0    0    0  501 -0.00000000000E+00 -0.00000000000E+00 -0.38467494152E+02  0.38488452896E+02  0.12700000000E+01 0. -1.
         25    2    1    2    0    0  0.00000000000E+00  0.00000000000E+00  0.63026866249E+02  0.13999075875E+03  0.12500010666E+03 0.  0.
    9000005    1    3    3    0    0 -0.33366130525E+02  0.41672330307E+02  0.67895918354E+02  0.86375560829E+02  0.10000000000E+01 0.  0.
    9000005    1    3    3    0    0  0.33366130525E+02 -0.41672330307E+02 -0.48690521053E+01  0.53615197918E+02  0.10000000000E+01 0.  0.
<mgrwt>
<rscale>  0 0.12500011E+03</rscale>
<asrwt>0</asrwt>
<pdfrwt beam="1">  1        4 0.15616740E-01 0.12500011E+03</pdfrwt>
<pdfrwt beam="2">  1       -4 0.59202995E-02 0.12500011E+03</pdfrwt>
<totfact> 0.10133753E+04</totfact>
</mgrwt>
</event>
<event>
 5    1  0.3281209E-002  0.1250021E+03  0.7818608E-02  0.1235066E+00
         -4   -1    0    0    0  501 -0.00000000000E+00  0.00000000000E+00  0.19612630944E+02  0.19653706840E+02  0.12700000000E+01 0.  1.
          4   -1    0    0  501    0  0.00000000000E+00 -0.00000000000E+00 -0.19892540709E+03  0.19892946108E+03  0.12700000000E+01 0.  1.
         25    2    1    2    0    0  0.00000000000E+00  0.00000000000E+00 -0.17931277614E+03  0.21858316792E+03  0.12500211842E+03 0.  0.
    9000005    1    3    3    0    0 -0.55809309639E+02 -0.27972279726E+02 -0.94680461213E+02  0.11341303810E+03  0.10000000000E+01 0.  0.
    9000005    1    3    3    0    0  0.55809309639E+02  0.27972279726E+02 -0.84632314928E+02  0.10517012982E+03  0.10000000000E+01 0.  0.
<mgrwt>
<rscale>  0 0.12500212E+03</rscale>
<asrwt>0</asrwt>
<pdfrwt beam="2">  1        4 0.30607379E-01 0.12500212E+03</pdfrwt>
<pdfrwt beam="1">  1       -4 0.30207995E-02 0.12500212E+03</pdfrwt>
<totfact> 0.87088921E+03</totfact>
</mgrwt>
</event>
<event>
 5    1  0.3281209E-002  0.1249996E+03  0.7818608E-02  0.1235070E+00
         -4   -1    0    0    0  501 -0.00000000000E+00  0.00000000000E+00  0.31951263124E+02  0.31976493167E+02  0.12700000000E+01 0. -1.
          4   -1    0    0  501    0  0.00000000000E+00 -0.00000000000E+00 -0.12217890454E+03  0.12218550493E+03  0.12700000000E+01 0. -1.
         25    2    1    2    0    0  0.00000000000E+00  0.00000000000E+00 -0.90227641420E+02  0.15416199810E+03  0.12499957753E+03 0.  0.
    9000005    1    3    3    0    0  0.30876153876E+01  0.34768167746E+02 -0.10904190456E+03  0.11449670654E+03  0.10000000000E+01 0.  0.
    9000005    1    3    3    0    0 -0.30876153876E+01 -0.34768167746E+02  0.18814263142E+02  0.39665291563E+02  0.10000000000E+01 0.  0.
<mgrwt>
<rscale>  0 0.12499958E+03</rscale>
<asrwt>0</asrwt>
<pdfrwt beam="2">  1        4 0.18799203E-01 0.12499958E+03</pdfrwt>
<pdfrwt beam="1">  1       -4 0.49180275E-02 0.12499958E+03</pdfrwt>
<totfact> 0.98481196E+03</totfact>
</mgrwt>
</event>
<event>
 5    1  0.3281209E-002  0.1249988E+03  0.7818608E-02  0.1235071E+00
          4   -1    0    0  501    0  0.00000000000E+00  0.00000000000E+00  0.13380560916E+04  0.13380566943E+04  0.12700000000E+01 0. -1.
         -4   -1    0    0    0  501 -0.00000000000E+00 -0.00000000000E+00 -0.27805359767E+01  0.30568415592E+01  0.12700000000E+01 0. -1.
         25    2    1    2    0    0  0.00000000000E+00  0.00000000000E+00  0.13352755556E+04  0.13411135359E+04  0.12499882650E+03 0.  0.
    9000005    1    3    3    0    0  0.29294090295E+02  0.38644091923E+02  0.10905386621E+04  0.10916167291E+04  0.10000000000E+01 0.  0.
    9000005    1    3    3    0    0 -0.29294090295E+02 -0.38644091923E+02  0.24473689350E+03  0.24949680680E+03  0.10000000000E+01 0.  0.
<mgrwt>
<rscale>  0 0.12499883E+03</rscale>
<asrwt>0</asrwt>
<pdfrwt beam="1">  1        4 0.20587685E+00 0.12499883E+03</pdfrwt>
<pdfrwt beam="2">  1       -4 0.44907373E-03 0.12499883E+03</pdfrwt>
<totfact> 0.21278883E+03</totfact>
</mgrwt>
</event>
<event>
 5    1  0.3281209E-002  0.1250002E+03  0.7818608E-02  0.1235069E+00
         -4   -1    0    0    0  501 -0.00000000000E+00  0.00000000000E+00  0.38805506921E+02  0.38826283204E+02  0.12700000000E+01 0.  1.
          4   -1    0    0  501    0  0.00000000000E+00 -0.00000000000E+00 -0.10061082123E+03  0.10061883645E+03  0.12700000000E+01 0.  1.
         25    2    1    2    0    0  0.00000000000E+00  0.00000000000E+00 -0.61805314312E+02  0.13944511966E+03  0.12500017808E+03 0.  0.
    9000005    1    3    3    0    0  0.61891630894E+02  0.72609482582E+01 -0.36131024050E+02  0.72039893415E+02  0.10000000000E+01 0.  0.
    9000005    1    3    3    0    0 -0.61891630894E+02 -0.72609482582E+01 -0.25674290262E+02  0.67405226242E+02  0.10000000000E+01 0.  0.
<mgrwt>
<rscale>  0 0.12500018E+03</rscale>
<asrwt>0</asrwt>
<pdfrwt beam="2">  1        4 0.15480802E-01 0.12500018E+03</pdfrwt>
<pdfrwt beam="1">  1       -4 0.59722928E-02 0.12500018E+03</pdfrwt>
<totfact> 0.10145058E+04</totfact>
</mgrwt>
</event>
<event>
 5    1  0.3281209E-002  0.1250096E+03  0.7818608E-02  0.1235054E+00
         -4   -1    0    0    0  501 -0.00000000000E+00  0.00000000000E+00  0.23889045311E+04  0.23889048687E+04  0.12700000000E+01 0.  1.
          4   -1    0    0  501    0  0.00000000000E+00 -0.00000000000E+00 -0.13884686679E+01  0.18816868076E+01  0.12700000000E+01 0.  1.
         25    2    1    2    0    0  0.00000000000E+00  0.00000000000E+00  0.23875160624E+04  0.23907865555E+04  0.12500962177E+03 0.  0.
    9000005    1    3    3    0    0 -0.15224441563E+01 -0.26626566271E+02  0.11281487658E+03  0.11592880679E+03  0.10000000000E+01 0.  0.
    9000005    1    3    3    0    0  0.15224441563E+01  0.26626566271E+02  0.22747011859E+04  0.22748577487E+04  0.10000000000E+01 0.  0.
<mgrwt>
<rscale>  0 0.12500962E+03</rscale>
<asrwt>0</asrwt>
<pdfrwt beam="2">  1        4 0.25157702E-03 0.12500962E+03</pdfrwt>
<pdfrwt beam="1">  1       -4 0.36756082E+00 0.12500962E+03</pdfrwt>
<totfact> 0.55839127E+02</totfact>
</mgrwt>
</event>
<event>
 5    1  0.3281209E-002  0.1249837E+03  0.7818608E-02  0.1235095E+00
          4   -1    0    0  501    0  0.00000000000E+00  0.00000000000E+00  0.15218969618E+03  0.15219499507E+03  0.12700000000E+01 0. -1.
         -4   -1    0    0    0  501 -0.00000000000E+00 -0.00000000000E+00 -0.25638811734E+02  0.25670246729E+02  0.12700000000E+01 0. -1.
         25    2    1    2    0    0  0.00000000000E+00  0.00000000000E+00  0.12655088445E+03  0.17786524180E+03  0.12498367048E+03 0.  0.
    9000005    1    3    3    0    0  0.40218489705E+02  0.91935999941E+01 -0.35072997915E+01  0.41416788224E+02  0.10000000000E+01 0.  0.
    9000005    1    3    3    0    0 -0.40218489705E+02 -0.91935999941E+01  0.13005818424E+03  0.13644845358E+03  0.10000000000E+01 0.  0.
<mgrwt>
<rscale>  0 0.12498367E+03</rscale>
<asrwt>0</asrwt>
<pdfrwt beam="1">  1        4 0.23416625E-01 0.12498367E+03</pdfrwt>
<pdfrwt beam="2">  1       -4 0.39472583E-02 0.12498367E+03</pdfrwt>
<totfact> 0.94037117E+03</totfact>
</mgrwt>
</event>
<event>
 5    1  0.3281209E-002  0.1250088E+03  0.7818608E-02  0.1235056E+00
         -4   -1    0    0    0  501 -0.00000000000E+00  0.00000000000E+00  0.24602275552E+03  0.24602603344E+03  0.12700000000E+01 0. -1.
          4   -1    0    0  501    0  0.00000000000E+00 -0.00000000000E+00 -0.15851037967E+02  0.15901833373E+02  0.12700000000E+01 0. -1.
         25    2    1    2    0    0  0.00000000000E+00  0.00000000000E+00  0.23017171755E+03  0.26192786682E+03  0.12500875111E+03 0.  0.
    9000005    1    3    3    0    0  0.15028776001E+02  0.60129971769E+02  0.98281880341E+02  0.11619727026E+03  0.10000000000E+01 0.  0.
    9000005    1    3    3    0    0 -0.15028776001E+02 -0.60129971769E+02  0.13188983721E+03  0.14573059655E+03  0.10000000000E+01 0.  0.
<mgrwt>
<rscale>  0 0.12500875E+03</rscale>
<asrwt>0</asrwt>
<pdfrwt beam="2">  1        4 0.24427808E-02 0.12500875E+03</pdfrwt>
<pdfrwt beam="1">  1       -4 0.37853812E-01 0.12500875E+03</pdfrwt>
<totfact> 0.80620568E+03</totfact>
</mgrwt>
</event>
<event>
 5    1  0.3281209E-002  0.1249955E+03  0.7818608E-02  0.1235076E+00
          4   -1    0    0  501    0  0.00000000000E+00  0.00000000000E+00  0.23818898657E+02  0.23852732196E+02  0.12700000000E+01 0.  1.
         -4   -1    0    0    0  501 -0.00000000000E+00 -0.00000000000E+00 -0.16383356471E+03  0.16383848701E+03  0.12700000000E+01 0.  1.
         25    2    1    2    0    0  0.00000000000E+00  0.00000000000E+00 -0.14001466605E+03  0.18769121920E+03  0.12499554815E+03 0.  0.
    9000005    1    3    3    0    0  0.26033856577E+02  0.38383446983E+02 -0.71212661655E+01  0.46933603339E+02  0.10000000000E+01 0.  0.
    9000005    1    3    3    0    0 -0.26033856577E+02 -0.38383446983E+02 -0.13289339989E+03  0.14075761586E+03  0.10000000000E+01 0.  0.
<mgrwt>
<rscale>  0 0.12499555E+03</rscale>
<asrwt>0</asrwt>
<pdfrwt beam="1">  1        4 0.36674273E-02 0.12499555E+03</pdfrwt>
<pdfrwt beam="2">  1       -4 0.25208144E-01 0.12499555E+03</pdfrwt>
<totfact> 0.92259796E+03</totfact>
</mgrwt>
</event>
<event>
 5    1  0.3281209E-002  0.1250007E+03  0.7818608E-02  0.1235068E+00
         -4   -1    0    0    0  501 -0.00000000000E+00  0.00000000000E+00  0.58784047758E+03  0.58784184946E+03  0.12700000000E+01 0.  1.
          4   -1    0    0  501    0  0.00000000000E+00 -0.00000000000E+00 -0.65830892098E+01  0.67044733980E+01  0.12700000000E+01 0.  1.
         25    2    1    2    0    0  0.00000000000E+00  0.00000000000E+00  0.58125738837E+03  0.59454632286E+03  0.12500071397E+03 0.  0.
    9000005    1    3    3    0    0 -0.38134362697E+02 -0.11145046770E+02  0.61194749678E+02  0.72967383631E+02  0.10000000000E+01 0.  0.
    9000005    1    3    3    0    0  0.38134362697E+02  0.11145046770E+02  0.52006263869E+03  0.52157893923E+03  0.10000000000E+01 0.  0.
<mgrwt>
<rscale>  0 0.12500071E+03</rscale>
<asrwt>0</asrwt>
<pdfrwt beam="2">  1        4 0.10222258E-02 0.12500071E+03</pdfrwt>
<pdfrwt beam="1">  1       -4 0.90446432E-01 0.12500071E+03</pdfrwt>
<totfact> 0.49212914E+03</totfact>
</mgrwt>
</event>
<event>
 5    1  0.3281209E-002  0.1250004E+03  0.7818608E-02  0.1235069E+00
         -4   -1    0    0    0  501 -0.00000000000E+00  0.00000000000E+00  0.13365954505E+02  0.13426155065E+02  0.12700000000E+01 0. -1.
          4   -1    0    0  501    0  0.00000000000E+00 -0.00000000000E+00 -0.29153714050E+03  0.29153990669E+03  0.12700000000E+01 0. -1.
         25    2    1    2    0    0  0.00000000000E+00  0.00000000000E+00 -0.27817118600E+03  0.30496606176E+03  0.12500036041E+03 0.  0.
    9000005    1    3    3    0    0  0.38071975171E+02  0.35813853100E+02 -0.55521476767E+02  0.76261010678E+02  0.10000000000E+01 0.  0.
    9000005    1    3    3    0    0 -0.38071975171E+02 -0.35813853100E+02 -0.22264970923E+03  0.22870505108E+03  0.10000000000E+01 0.  0.
<mgrwt>
<rscale>  0 0.12500036E+03</rscale>
<asrwt>0</asrwt>
<pdfrwt beam="2">  1        4 0.44856707E-01 0.12500036E+03</pdfrwt>
<pdfrwt beam="1">  1       -4 0.20611445E-02 0.12500036E+03</pdfrwt>
<totfact> 0.74979500E+03</totfact>
</mgrwt>
</event>
<event>
 5    1  0.3281209E-002  0.1249595E+03  0.7818608E-02  0.1235133E+00
          4   -1    0    0  501    0  0.00000000000E+00  0.00000000000E+00  0.55289794834E+02  0.55304378785E+02  0.12700000000E+01 0.  1.
         -4   -1    0    0    0  501 -0.00000000000E+00 -0.00000000000E+00 -0.70575038885E+02  0.70586464804E+02  0.12700000000E+01 0.  1.
         25    2    1    2    0    0  0.00000000000E+00  0.00000000000E+00 -0.15285244051E+02  0.12589084359E+03  0.12495945668E+03 0.  0.
    9000005    1    3    3    0    0 -0.58001711542E+02 -0.14800195255E+01 -0.30973980678E+02  0.65778237120E+02  0.10000000000E+01 0.  0.
    9000005    1    3    3    0    0  0.58001711542E+02  0.14800195255E+01  0.15688736627E+02  0.60112606469E+02  0.10000000000E+01 0.  0.
<mgrwt>
<rscale>  0 0.12495946E+03</rscale>
<asrwt>0</asrwt>
<pdfrwt beam="1">  1        4 0.85081230E-02 0.12495946E+03</pdfrwt>
<pdfrwt beam="2">  1       -4 0.10859699E-01 0.12495946E+03</pdfrwt>
<totfact> 0.10442901E+04</totfact>
</mgrwt>
</event>
<event>
 5    1  0.3281209E-002  0.1250004E+03  0.7818608E-02  0.1235069E+00
          4   -1    0    0  501    0  0.00000000000E+00  0.00000000000E+00  0.12845699673E+02  0.12908326773E+02  0.12700000000E+01 0. -1.
         -4   -1    0    0    0  501 -0.00000000000E+00 -0.00000000000E+00 -0.30328876019E+03  0.30329141920E+03  0.12700000000E+01 0. -1.
         25    2    1    2    0    0  0.00000000000E+00  0.00000000000E+00 -0.29044306052E+03  0.31619974597E+03  0.12500043179E+03 0.  0.
    9000005    1    3    3    0    0 -0.39972629857E+02  0.36069921019E+02 -0.22547079592E+03  0.23181227352E+03  0.10000000000E+01 0.  0.
    9000005    1    3    3    0    0  0.39972629857E+02 -0.36069921019E+02 -0.64972264597E+02  0.84387472452E+02  0.10000000000E+01 0.  0.
<mgrwt>
<rscale>  0 0.12500043E+03</rscale>
<asrwt>0</asrwt>
<pdfrwt beam="1">  1        4 0.19812837E-02 0.12500043E+03</pdfrwt>
<pdfrwt beam="2">  1       -4 0.46664826E-01 0.12500043E+03</pdfrwt>
<totfact> 0.73609704E+03</totfact>
</mgrwt>
</event>
<event>
 5    1  0.3281209E-002  0.1249990E+03  0.7818608E-02  0.1235071E+00
         -4   -1    0    0    0  501 -0.00000000000E+00  0.00000000000E+00  0.25991346743E+02  0.26022355879E+02  0.12700000000E+01 0.  1.
          4   -1    0    0  501    0  0.00000000000E+00 -0.00000000000E+00 -0.15016476351E+03  0.15017013385E+03  0.12700000000E+01 0.  1.
         25    2    1    2    0    0  0.00000000000E+00  0.00000000000E+00 -0.12417341677E+03  0.17619248973E+03  0.12499902402E+03 0.  0.
    9000005    1    3    3    0    0 -0.51404683334E+01  0.21631274247E+02 -0.14440801288E+03  0.14611300635E+03  0.10000000000E+01 0.  0.
    9000005    1    3    3    0    0  0.51404683334E+01 -0.21631274247E+02  0.20234596116E+02  0.30079483376E+02  0.10000000000E+01 0.  0.
<mgrwt>
<rscale>  0 0.12499902E+03</rscale>
<asrwt>0</asrwt>
<pdfrwt beam="2">  1        4 0.23105069E-01 0.12499902E+03</pdfrwt>
<pdfrwt beam="1">  1       -4 0.40014672E-02 0.12499902E+03</pdfrwt>
<totfact> 0.94308956E+03</totfact>
</mgrwt>
</event>
<event>
 5    1  0.3281209E-002  0.1249985E+03  0.7818608E-02  0.1235072E+00
          4   -1    0    0  501    0  0.00000000000E+00  0.00000000000E+00  0.68487678726E+02  0.68499452824E+02  0.12700000000E+01 0.  1.
         -4   -1    0    0    0  501 -0.00000000000E+00 -0.00000000000E+00 -0.57010685910E+02  0.57024829749E+02  0.12700000000E+01 0.  1.
         25    2    1    2    0    0  0.00000000000E+00  0.00000000000E+00  0.11476992816E+02  0.12552428257E+03  0.12499849660E+03 0.  0.
    9000005    1    3    3    0    0 -0.51503965203E+02  0.34571049039E+02 -0.18656849070E+01  0.62066872351E+02  0.10000000000E+01 0.  0.
    9000005    1    3    3    0    0  0.51503965203E+02 -0.34571049039E+02  0.13342677723E+02  0.63457410222E+02  0.10000000000E+01 0.  0.
<mgrwt>
<rscale>  0 0.12499850E+03</rscale>
<asrwt>0</asrwt>
<pdfrwt beam="1">  1        4 0.10538560E-01 0.12499850E+03</pdfrwt>
<pdfrwt beam="2">  1       -4 0.87728684E-02 0.12499850E+03</pdfrwt>
<totfact> 0.10441772E+04</totfact>
</mgrwt>
</event>
<event>
 5    1  0.3281209E-002  0.1249989E+03  0.7818608E-02  0.1235071E+00
         -4   -1    0    0    0  501 -0.00000000000E+00  0.00000000000E+00  0.11949887562E+02  0.12017184060E+02  0.12700000000E+01 0. -1.
          4   -1    0    0  501    0  0.00000000000E+00 -0.00000000000E+00 -0.32589354336E+03  0.32589601793E+03  0.12700000000E+01 0. -1.
         25    2    1    2    0    0  0.00000000000E+00  0.00000000000E+00 -0.31394365580E+03  0.33791320199E+03  0.12499885225E+03 0.  0.
    9000005    1    3    3    0    0  0.20357819912E+02 -0.16835815082E+02 -0.38742088641E+01  0.26718813509E+02  0.10000000000E+01 0.  0.
    9000005    1    3    3    0    0 -0.20357819912E+02  0.16835815082E+02 -0.31006944694E+03  0.31119438849E+03  0.10000000000E+01 0.  0.
<mgrwt>
<rscale>  0 0.12499885E+03</rscale>
<asrwt>0</asrwt>
<pdfrwt beam="2">  1        4 0.50142829E-01 0.12499885E+03</pdfrwt>
<pdfrwt beam="1">  1       -4 0.18438115E-02 0.12499885E+03</pdfrwt>
<totfact> 0.71076854E+03</totfact>
</mgrwt>
</event>
<event>
 5    1  0.3281209E-002  0.1249999E+03  0.7818608E-02  0.1235069E+00
         -4   -1    0    0    0  501 -0.00000000000E+00  0.00000000000E+00  0.33345097931E+03  0.33345339780E+03  0.12700000000E+01 0. -1.
          4   -1    0    0  501    0  0.00000000000E+00 -0.00000000000E+00 -0.11677703639E+02  0.11746559593E+02  0.12700000000E+01 0. -1.
         25    2    1    2    0    0  0.00000000000E+00  0.00000000000E+00  0.32177327567E+03  0.34519995739E+03  0.12499987859E+03 0.  0.
    9000005    1    3    3    0    0  0.44598937152E+02  0.36121229123E+02  0.22917330910E+03  0.23625243701E+03  0.10000000000E+01 0.  0.
    9000005    1    3    3    0    0 -0.44598937152E+02 -0.36121229123E+02  0.92599966570E+02  0.10894752038E+03  0.10000000000E+01 0.  0.
<mgrwt>
<rscale>  0 0.12499988E+03</rscale>
<asrwt>0</asrwt>
<pdfrwt beam="2">  1        4 0.18020525E-02 0.12499988E+03</pdfrwt>
<pdfrwt beam="1">  1       -4 0.51305632E-01 0.12499988E+03</pdfrwt>
<totfact> 0.70256055E+03</totfact>
</mgrwt>
</event>
<event>
 5    1  0.3281209E-002  0.1250020E+03  0.7818608E-02  0.1235066E+00
          4   -1    0    0  501    0  0.00000000000E+00  0.00000000000E+00  0.15655656193E+02  0.15707083460E+02  0.12700000000E+01 0.  1.
         -4   -1    0    0    0  501 -0.00000000000E+00 -0.00000000000E+00 -0.24905622680E+03  0.24905946480E+03  0.12700000000E+01 0.  1.
         25    2    1    2    0    0  0.00000000000E+00  0.00000000000E+00 -0.23340057061E+03  0.26476654826E+03  0.12500199486E+03 0.  0.
    9000005    1    3    3    0    0 -0.44486654159E+02  0.43325323163E+01 -0.20920910952E+03  0.21393289776E+03  0.10000000000E+01 0.  0.
    9000005    1    3    3    0    0  0.44486654159E+02 -0.43325323163E+01 -0.24191461084E+02  0.50833650508E+02  0.10000000000E+01 0.  0.
<mgrwt>
<rscale>  0 0.12500199E+03</rscale>
<asrwt>0</asrwt>
<pdfrwt beam="1">  1        4 0.24127677E-02 0.12500199E+03</pdfrwt>
<pdfrwt beam="2">  1       -4 0.38320545E-01 0.12500199E+03</pdfrwt>
<totfact> 0.80238202E+03</totfact>
</mgrwt>
</event>
<event>
 5    1  0.3281209E-002  0.1249995E+03  0.7818608E-02  0.1235070E+00
         -4   -1    0    0    0  501 -0.00000000000E+00  0.00000000000E+00  0.83527625835E+02  0.83537280166E+02  0.12700000000E+01 0.  1.
          4   -1    0    0  501    0  0.00000000000E+00 -0.00000000000E+00 -0.46744606831E+02  0.46761855907E+02  0.12700000000E+01 0.  1.
         25    2    1    2    0    0  0.00000000000E+00  0.00000000000E+00  0.36783019003E+02  0.13029913607E+03  0.12499949750E+03 0.  0.
    9000005    1    3    3    0    0 -0.37733357733E+02  0.47953220301E+02  0.43326277792E+01  0.61180791810E+02  0.10000000000E+01 0.  0.
    9000005    1    3    3    0    0  0.37733357733E+02 -0.47953220301E+02  0.32450391224E+02  0.69118344263E+02  0.10000000000E+01 0.  0.
<mgrwt>
<rscale>  0 0.12499950E+03</rscale>
<asrwt>0</asrwt>
<pdfrwt beam="2">  1        4 0.71935475E-02 0.12499950E+03</pdfrwt>
<pdfrwt beam="1">  1       -4 0.12852473E-01 0.12499950E+03</pdfrwt>
<totfact> 0.10338230E+04</totfact>
</mgrwt>
</event>
<event>
 5    1  0.3281209E-002  0.1250011E+03  0.7818608E-02  0.1235068E+00
         -4   -1    0    0    0  501 -0.00000000000E+00  0.00000000000E+00  0.12502388852E+03  0.12503033872E+03  0.12700000000E+01 0.  1.
          4   -1    0    0  501    0  0.00000000000E+00 -0.00000000000E+00 -0.31224389951E+02  0.31250206844E+02  0.12700000000E+01 0.  1.
         25    2    1    2    0    0  0.00000000000E+00  0.00000000000E+00  0.93799498566E+02  0.15628054556E+03  0.12500105196E+03 0.  0.
    9000005    1    3    3    0    0  0.50363653965E+02  0.32459892188E+02  0.24704189523E+02  0.64818509868E+02  0.10000000000E+01 0.  0.
    9000005    1    3    3    0    0 -0.50363653965E+02 -0.32459892188E+02  0.69095309042E+02  0.91462035694E+02  0.10000000000E+01 0.  0.
<mgrwt>
<rscale>  0 0.12500105E+03</rscale>
<asrwt>0</asrwt>
<pdfrwt beam="2">  1        4 0.48062345E-02 0.12500105E+03</pdfrwt>
<pdfrwt beam="1">  1       -4 0.19236926E-01 0.12500105E+03</pdfrwt>
<totfact> 0.98062378E+03</totfact>
</mgrwt>
</event>
<event>
 5    1  0.3281209E-002  0.1249971E+03  0.7818608E-02  0.1235074E+00
         -4   -1    0    0    0  501 -0.00000000000E+00  0.00000000000E+00  0.70416179544E+01  0.71552276984E+01  0.12700000000E+01 0.  1.
          4   -1    0    0  501    0  0.00000000000E+00 -0.00000000000E+00 -0.55015812962E+03  0.55015959547E+03  0.12700000000E+01 0.  1.
         25    2    1    2    0    0  0.00000000000E+00  0.00000000000E+00 -0.54311651166E+03  0.55731482316E+03  0.12499706748E+03 0.  0.
    9000005    1    3    3    0    0 -0.21583247979E+02  0.12198638785E+02 -0.15801768512E+02  0.29416649531E+02  0.10000000000E+01 0.  0.
    9000005    1    3    3    0    0  0.21583247979E+02 -0.12198638785E+02 -0.52731474315E+03  0.52789817363E+03  0.10000000000E+01 0.  0.
<mgrwt>
<rscale>  0 0.12499707E+03</rscale>
<asrwt>0</asrwt>
<pdfrwt beam="2">  1        4 0.84648531E-01 0.12499707E+03</pdfrwt>
<pdfrwt beam="1">  1       -4 0.10921782E-02 0.12499707E+03</pdfrwt>
<totfact> 0.51681198E+03</totfact>
</mgrwt>
</event>
<event>
 5    1  0.3281209E-002  0.1250145E+03  0.7818608E-02  0.1235047E+00
          4   -1    0    0  501    0  0.00000000000E+00  0.00000000000E+00  0.21235547370E+02  0.21273489890E+02  0.12700000000E+01 0.  1.
         -4   -1    0    0    0  501 -0.00000000000E+00 -0.00000000000E+00 -0.18378705064E+03  0.18379143854E+03  0.12700000000E+01 0.  1.
         25    2    1    2    0    0  0.00000000000E+00  0.00000000000E+00 -0.16255150327E+03  0.20506492843E+03  0.12501453379E+03 0.  0.
    9000005    1    3    3    0    0 -0.43739568719E+02  0.18974937541E+02 -0.14756127610E+03  0.15507587926E+03  0.10000000000E+01 0.  0.
    9000005    1    3    3    0    0  0.43739568719E+02 -0.18974937541E+02 -0.14990227172E+02  0.49989049171E+02  0.10000000000E+01 0.  0.
<mgrwt>
<rscale>  0 0.12501453E+03</rscale>
<asrwt>0</asrwt>
<pdfrwt beam="1">  1        4 0.32702636E-02 0.12501453E+03</pdfrwt>
<pdfrwt beam="2">  1       -4 0.28278186E-01 0.12501453E+03</pdfrwt>
<totfact> 0.89259220E+03</totfact>
</mgrwt>
</event>
<event>
 5    1  0.3281209E-002  0.1249932E+03  0.7818608E-02  0.1235080E+00
         -4   -1    0    0    0  501 -0.00000000000E+00  0.00000000000E+00  0.53927866507E+02  0.53942818669E+02  0.12700000000E+01 0. -1.
          4   -1    0    0  501    0  0.00000000000E+00 -0.00000000000E+00 -0.72396295024E+02  0.72407433550E+02  0.12700000000E+01 0. -1.
         25    2    1    2    0    0  0.00000000000E+00  0.00000000000E+00 -0.18468428518E+02  0.12635025222E+03  0.12499321335E+03 0.  0.
    9000005    1    3    3    0    0 -0.43367174330E+02  0.19493998374E+02  0.31753484815E+02  0.57184015073E+02  0.10000000000E+01 0.  0.
    9000005    1    3    3    0    0  0.43367174330E+02 -0.19493998374E+02 -0.50221913333E+02  0.69166237145E+02  0.10000000000E+01 0.  0.
<mgrwt>
<rscale>  0 0.12499321E+03</rscale>
<asrwt>0</asrwt>
<pdfrwt beam="2">  1        4 0.11139899E-01 0.12499321E+03</pdfrwt>
<pdfrwt beam="1">  1       -4 0.82986018E-02 0.12499321E+03</pdfrwt>
<totfact> 0.10424892E+04</totfact>
</mgrwt>
</event>
<event>
 4    1  0.3281209E-002  0.1249064E+03  0.7818608E-02  0.1235216E+00
         -4   -1    0    0    0  501 -0.00000000000E+00  0.00000000000E+00  0.16613055255E+03  0.16613540680E+03  0.12700000000E+01 0.  1.
          4   -1    0    0  501    0  0.00000000000E+00 -0.00000000000E+00 -0.23455553008E+02  0.23489909896E+02  0.12700000000E+01 0.  1.
    9000005    1    1    2    0    0 -0.42040965976E+01  0.75786915871E+01 -0.22545531486E+02  0.24174614462E+02  0.10000000000E+01 0.  0.
    9000005    1    1    2    0    0  0.42040965976E+01 -0.75786915871E+01  0.16522053103E+03  0.16545070223E+03  0.10000000000E+01 0.  0.
<mgrwt>
<rscale>  0 0.12490639E+03</rscale>
<asrwt>0</asrwt>
<pdfrwt beam="2">  1        4 0.36115627E-02 0.12490639E+03</pdfrwt>
<pdfrwt beam="1">  1       -4 0.25561564E-01 0.12490639E+03</pdfrwt>
<totfact> 0.92105555E+03</totfact>
</mgrwt>
</event>
<event>
 5    1  0.3281209E-002  0.1250014E+03  0.7818608E-02  0.1235067E+00
          4   -1    0    0  501    0  0.00000000000E+00  0.00000000000E+00  0.10090527992E+02  0.10170135454E+02  0.12700000000E+01 0. -1.
         -4   -1    0    0    0  501 -0.00000000000E+00 -0.00000000000E+00 -0.38552741971E+03  0.38552951151E+03  0.12700000000E+01 0. -1.
         25    2    1    2    0    0  0.00000000000E+00  0.00000000000E+00 -0.37543689172E+03  0.39569964697E+03  0.12500140379E+03 0.  0.
    9000005    1    3    3    0    0  0.41749413496E+02 -0.35580590886E+01 -0.40948846991E+02  0.58595916083E+02  0.10000000000E+01 0.  0.
    9000005    1    3    3    0    0 -0.41749413496E+02  0.35580590886E+01 -0.33448804473E+03  0.33710373088E+03  0.10000000000E+01 0.  0.
<mgrwt>
<rscale>  0 0.12500140E+03</rscale>
<asrwt>0</asrwt>
<pdfrwt beam="1">  1        4 0.15586738E-02 0.12500140E+03</pdfrwt>
<pdfrwt beam="2">  1       -4 0.59318184E-01 0.12500140E+03</pdfrwt>
<totfact> 0.64971187E+03</totfact>
</mgrwt>
</event>
<event>
 5    1  0.3281209E-002  0.1250004E+03  0.7818608E-02  0.1235069E+00
         -4   -1    0    0    0  501 -0.00000000000E+00  0.00000000000E+00  0.42980844366E+02  0.42999603282E+02  0.12700000000E+01 0.  1.
          4   -1    0    0  501    0  0.00000000000E+00 -0.00000000000E+00 -0.90841100077E+02  0.90849977233E+02  0.12700000000E+01 0.  1.
         25    2    1    2    0    0  0.00000000000E+00  0.00000000000E+00 -0.47860255711E+02  0.13384958052E+03  0.12500042451E+03 0.  0.
    9000005    1    3    3    0    0 -0.39004614909E+02  0.31242685073E+02 -0.64107148759E+02  0.81290785928E+02  0.10000000000E+01 0.  0.
    9000005    1    3    3    0    0  0.39004614909E+02 -0.31242685073E+02  0.16246893048E+02  0.52558794587E+02  0.10000000000E+01 0.  0.
<mgrwt>
<rscale>  0 0.12500042E+03</rscale>
<asrwt>0</asrwt>
<pdfrwt beam="2">  1        4 0.13977680E-01 0.12500042E+03</pdfrwt>
<pdfrwt beam="1">  1       -4 0.66145634E-02 0.12500042E+03</pdfrwt>
<totfact> 0.10262278E+04</totfact>
</mgrwt>
</event>
<event>
 5    1  0.3281209E-002  0.1250142E+03  0.7818608E-02  0.1235047E+00
          4   -1    0    0  501    0  0.00000000000E+00  0.00000000000E+00  0.15696220068E+02  0.15747514865E+02  0.12700000000E+01 0.  1.
         -4   -1    0    0    0  501 -0.00000000000E+00 -0.00000000000E+00 -0.24846320954E+03  0.24846645527E+03  0.12700000000E+01 0.  1.
         25    2    1    2    0    0  0.00000000000E+00  0.00000000000E+00 -0.23276698947E+03  0.26421397013E+03  0.12501420170E+03 0.  0.
    9000005    1    3    3    0    0  0.58811174629E+02  0.18641933829E+02 -0.95263398181E+02  0.11350062110E+03  0.10000000000E+01 0.  0.
    9000005    1    3    3    0    0 -0.58811174629E+02 -0.18641933829E+02 -0.13750359129E+03  0.15071334903E+03  0.10000000000E+01 0.  0.
<mgrwt>
<rscale>  0 0.12501420E+03</rscale>
<asrwt>0</asrwt>
<pdfrwt beam="1">  1        4 0.24189987E-02 0.12501420E+03</pdfrwt>
<pdfrwt beam="2">  1       -4 0.38229302E-01 0.12501420E+03</pdfrwt>
<totfact> 0.80292927E+03</totfact>
</mgrwt>
</event>
<event>
 5    1  0.3281209E-002  0.1250017E+03  0.7818608E-02  0.1235067E+00
         -4   -1    0    0    0  501 -0.00000000000E+00  0.00000000000E+00  0.11365175817E+03  0.11365885375E+03  0.12700000000E+01 0.  1.
          4   -1    0    0  501    0  0.00000000000E+00 -0.00000000000E+00 -0.34351389078E+02  0.34374857550E+02  0.12700000000E+01 0.  1.
         25    2    1    2    0    0  0.00000000000E+00  0.00000000000E+00  0.79300369094E+02  0.14803371130E+03  0.12500172456E+03 0.  0.
    9000005    1    3    3    0    0 -0.58025977784E+02 -0.21379259332E+02  0.50326276673E+02  0.79735945164E+02  0.10000000000E+01 0.  0.
    9000005    1    3    3    0    0  0.58025977784E+02  0.21379259332E+02  0.28974092421E+02  0.68297766135E+02  0.10000000000E+01 0.  0.
<mgrwt>
<rscale>  0 0.12500172E+03</rscale>
<asrwt>0</asrwt>
<pdfrwt beam="2">  1        4 0.52871802E-02 0.12500172E+03</pdfrwt>
<pdfrwt beam="1">  1       -4 0.17487237E-01 0.12500172E+03</pdfrwt>
<totfact> 0.99693231E+03</totfact>
</mgrwt>
</event>
<event>
 5    1  0.3281209E-002  0.1250011E+03  0.7818608E-02  0.1235068E+00
         -4   -1    0    0    0  501 -0.00000000000E+00  0.00000000000E+00  0.15156445053E+03  0.15156977128E+03  0.12700000000E+01 0. -1.
          4   -1    0    0  501    0  0.00000000000E+00 -0.00000000000E+00 -0.25751895224E+02  0.25783192347E+02  0.12700000000E+01 0. -1.
         25    2    1    2    0    0  0.00000000000E+00  0.00000000000E+00  0.12581255531E+03  0.17735296362E+03  0.12500109853E+03 0.  0.
    9000005    1    3    3    0    0 -0.23915899992E+02 -0.40724493036E+02  0.12097127375E+03  0.12986725406E+03  0.10000000000E+01 0.  0.
    9000005    1    3    3    0    0  0.23915899992E+02  0.40724493036E+02  0.48412815601E+01  0.47485709562E+02  0.10000000000E+01 0.  0.
<mgrwt>
<rscale>  0 0.12500110E+03</rscale>
<asrwt>0</asrwt>
<pdfrwt beam="2">  1        4 0.39646468E-02 0.12500110E+03</pdfrwt>
<pdfrwt beam="1">  1       -4 0.23320425E-01 0.12500110E+03</pdfrwt>
<totfact> 0.94093341E+03</totfact>
</mgrwt>
</event>
<event>
 5    1  0.3281209E-002  0.1249889E+03  0.7818608E-02  0.1235087E+00
         -4   -1    0    0    0  501 -0.00000000000E+00  0.00000000000E+00  0.43626081411E+03  0.43626266266E+03  0.12700000000E+01 0. -1.
          4   -1    0    0  501    0  0.00000000000E+00 -0.00000000000E+00 -0.89054221691E+01  0.89955235540E+01  0.12700000000E+01 0. -1.
         25    2    1    2    0    0  0.00000000000E+00  0.00000000000E+00  0.42735539194E+03  0.44525818621E+03  0.12498888497E+03 0.  0.
    9000005    1    3    3    0    0  0.74649110907E+01 -0.37028493573E+02  0.39100137343E+03  0.39282299864E+03  0.10000000000E+01 0.  0.
    9000005    1    3    3    0    0 -0.74649110907E+01  0.37028493573E+02  0.36354018507E+02  0.52435187569E+02  0.10000000000E+01 0.  0.
<mgrwt>
<rscale>  0 0.12498888E+03</rscale>
<asrwt>0</asrwt>
<pdfrwt beam="2">  1        4 0.13771379E-02 0.12498888E+03</pdfrwt>
<pdfrwt beam="1">  1       -4 0.67124126E-01 0.12498888E+03</pdfrwt>
<totfact> 0.60391573E+03</totfact>
</mgrwt>
</event>
<event>
 5    1  0.3281209E-002  0.1249982E+03  0.7818608E-02  0.1235072E+00
         -4   -1    0    0    0  501 -0.00000000000E+00  0.00000000000E+00  0.83700136226E+02  0.83709770661E+02  0.12700000000E+01 0.  1.
          4   -1    0    0  501    0  0.00000000000E+00 -0.00000000000E+00 -0.46647239299E+02  0.46664524365E+02  0.12700000000E+01 0.  1.
         25    2    1    2    0    0  0.00000000000E+00  0.00000000000E+00  0.37052896926E+02  0.13037429503E+03  0.12499815852E+03 0.  0.
    9000005    1    3    3    0    0 -0.43202909697E+01 -0.39603647614E+02  0.68743018958E+02  0.79458898016E+02  0.10000000000E+01 0.  0.
    9000005    1    3    3    0    0  0.43202909697E+01  0.39603647614E+02 -0.31690122032E+02  0.50915397011E+02  0.10000000000E+01 0.  0.
<mgrwt>
<rscale>  0 0.12499816E+03</rscale>
<asrwt>0</asrwt>
<pdfrwt beam="2">  1        4 0.71785691E-02 0.12499816E+03</pdfrwt>
<pdfrwt beam="1">  1       -4 0.12879015E-01 0.12499816E+03</pdfrwt>
<totfact> 0.10336937E+04</totfact>
</mgrwt>
</event>
<event>
 5    1  0.3281209E-002  0.1249966E+03  0.7818608E-02  0.1235075E+00
         -4   -1    0    0    0  501 -0.00000000000E+00  0.00000000000E+00  0.69104940392E+01  0.70262242965E+01  0.12700000000E+01 0. -1.
          4   -1    0    0  501    0  0.00000000000E+00 -0.00000000000E+00 -0.56042218588E+03  0.56042362489E+03  0.12700000000E+01 0. -1.
         25    2    1    2    0    0  0.00000000000E+00  0.00000000000E+00 -0.55351169184E+03  0.56744984918E+03  0.12499655327E+03 0.  0.
    9000005    1    3    3    0    0 -0.41303510436E+02  0.45081981525E+02 -0.33536393728E+03  0.34089343710E+03  0.10000000000E+01 0.  0.
    9000005    1    3    3    0    0  0.41303510436E+02 -0.45081981525E+02 -0.21814775457E+03  0.22655641208E+03  0.10000000000E+01 0.  0.
<mgrwt>
<rscale>  0 0.12499655E+03</rscale>
<asrwt>0</asrwt>
<pdfrwt beam="2">  1        4 0.86227775E-01 0.12499655E+03</pdfrwt>
<pdfrwt beam="1">  1       -4 0.10721664E-02 0.12499655E+03</pdfrwt>
<totfact> 0.50992788E+03</totfact>
</mgrwt>
</event>
<event>
 5    1  0.3281209E-002  0.1249988E+03  0.7818608E-02  0.1235071E+00
         -4   -1    0    0    0  501 -0.00000000000E+00  0.00000000000E+00  0.23247731554E+02  0.23282395117E+02  0.12700000000E+01 0. -1.
          4   -1    0    0  501    0  0.00000000000E+00 -0.00000000000E+00 -0.16786159699E+03  0.16786640118E+03  0.12700000000E+01 0. -1.
         25    2    1    2    0    0  0.00000000000E+00  0.00000000000E+00 -0.14461386544E+03  0.19114879630E+03  0.12499876899E+03 0.  0.
    9000005    1    3    3    0    0 -0.57742320923E+02 -0.45812893465E+01 -0.36443585732E+02  0.68441937281E+02  0.10000000000E+01 0.  0.
    9000005    1    3    3    0    0  0.57742320923E+02  0.45812893465E+01 -0.10817027971E+03  0.12270685902E+03  0.10000000000E+01 0.  0.
<mgrwt>
<rscale>  0 0.12499877E+03</rscale>
<asrwt>0</asrwt>
<pdfrwt beam="2">  1        4 0.25827896E-01 0.12499877E+03</pdfrwt>
<pdfrwt beam="1">  1       -4 0.35796102E-02 0.12499877E+03</pdfrwt>
<totfact> 0.91650339E+03</totfact>
</mgrwt>
</event>
<event>
 5    1  0.3281209E-002  0.1249994E+03  0.7818608E-02  0.1235070E+00
          4   -1    0    0  501    0  0.00000000000E+00  0.00000000000E+00  0.38770477091E+03  0.38770685096E+03  0.12700000000E+01 0. -1.
         -4   -1    0    0    0  501 -0.00000000000E+00 -0.00000000000E+00 -0.10033089061E+02  0.10113148674E+02  0.12700000000E+01 0. -1.
         25    2    1    2    0    0  0.00000000000E+00  0.00000000000E+00  0.37767168185E+03  0.39781999964E+03  0.12499941137E+03 0.  0.
    9000005    1    3    3    0    0  0.38035387029E+02 -0.44612096903E+02  0.11996537755E+03  0.13352760638E+03  0.10000000000E+01 0.  0.
    9000005    1    3    3    0    0 -0.38035387029E+02  0.44612096903E+02  0.25770630430E+03  0.26429239325E+03  0.10000000000E+01 0.  0.
<mgrwt>
<rscale>  0 0.12499941E+03</rscale>
<asrwt>0</asrwt>
<pdfrwt beam="1">  1        4 0.59653208E-01 0.12499941E+03</pdfrwt>
<pdfrwt beam="2">  1       -4 0.15498705E-02 0.12499941E+03</pdfrwt>
<totfact> 0.64766206E+03</totfact>
</mgrwt>
</event>
<event>
 5    1  0.3281209E-002  0.1250008E+03  0.7818608E-02  0.1235068E+00
         -4   -1    0    0    0  501 -0.00000000000E+00  0.00000000000E+00  0.63992279635E+01  0.65240339153E+01  0.12700000000E+01 0.  1.
          4   -1    0    0  501    0  0.00000000000E+00 -0.00000000000E+00 -0.60441206404E+03  0.60441339831E+03  0.12700000000E+01 0.  1.
         25    2    1    2    0    0  0.00000000000E+00  0.00000000000E+00 -0.59801283608E+03  0.61093743223E+03  0.12500077593E+03 0.  0.
    9000005    1    3    3    0    0  0.15946117425E+02 -0.46181896206E+02 -0.10856737087E+03  0.11905847394E+03  0.10000000000E+01 0.  0.
    9000005    1    3    3    0    0 -0.15946117425E+02  0.46181896206E+02 -0.48944546521E+03  0.49187895829E+03  0.10000000000E+01 0.  0.
<mgrwt>
<rscale>  0 0.12500078E+03</rscale>
<asrwt>0</asrwt>
<pdfrwt beam="2">  1        4 0.92996130E-01 0.12500078E+03</pdfrwt>
<pdfrwt beam="1">  1       -4 0.99420018E-03 0.12500078E+03</pdfrwt>
<totfact> 0.48183605E+03</totfact>
</mgrwt>
</event>
<event>
 5    1  0.3281209E-002  0.1250000E+03  0.7818608E-02  0.1235069E+00
         -4   -1    0    0    0  501 -0.00000000000E+00  0.00000000000E+00  0.36684627959E+03  0.36684847792E+03  0.12700000000E+01 0. -1.
          4   -1    0    0  501    0  0.00000000000E+00 -0.00000000000E+00 -0.10608079280E+02  0.10683831055E+02  0.12700000000E+01 0. -1.
         25    2    1    2    0    0  0.00000000000E+00  0.00000000000E+00  0.35623820031E+03  0.37753230897E+03  0.12499995583E+03 0.  0.
    9000005    1    3    3    0    0  0.18541512461E+02  0.47839275997E+02  0.70364669982E+02  0.87089441346E+02  0.10000000000E+01 0.  0.
    9000005    1    3    3    0    0 -0.18541512461E+02 -0.47839275997E+02  0.28587353033E+03  0.29044286763E+03  0.10000000000E+01 0.  0.
<mgrwt>
<rscale>  0 0.12499996E+03</rscale>
<asrwt>0</asrwt>
<pdfrwt beam="2">  1        4 0.16380082E-02 0.12499996E+03</pdfrwt>
<pdfrwt beam="1">  1       -4 0.56443889E-01 0.12499996E+03</pdfrwt>
<totfact> 0.66798271E+03</totfact>
</mgrwt>
</event>
<event>
 5    1  0.3281209E-002  0.1249994E+03  0.7818608E-02  0.1235070E+00
         -4   -1    0    0    0  501 -0.00000000000E+00  0.00000000000E+00  0.61208184718E+02  0.61221358826E+02  0.12700000000E+01 0. -1.
          4   -1    0    0  501    0  0.00000000000E+00 -0.00000000000E+00 -0.63792150825E+02  0.63804791410E+02  0.12700000000E+01 0. -1.
         25    2    1    2    0    0  0.00000000000E+00  0.00000000000E+00 -0.25839661070E+01  0.12502615024E+03  0.12499944545E+03 0.  0.
    9000005    1    3    3    0    0 -0.23859359683E+02  0.56747082823E+02 -0.12051366627E+02  0.62735443658E+02  0.10000000000E+01 0.  0.
    9000005    1    3    3    0    0  0.23859359683E+02 -0.56747082823E+02  0.94674005200E+01  0.62290706578E+02  0.10000000000E+01 0.  0.
<mgrwt>
<rscale>  0 0.12499945E+03</rscale>
<asrwt>0</asrwt>
<pdfrwt beam="2">  1        4 0.98161627E-02 0.12499945E+03</pdfrwt>
<pdfrwt beam="1">  1       -4 0.94186296E-02 0.12499945E+03</pdfrwt>
<totfact> 0.10452426E+04</totfact>
</mgrwt>
</event>
<event>
 5    1  0.3281209E-002  0.1250059E+03  0.7818608E-02  0.1235060E+00
         -4   -1    0    0    0  501 -0.00000000000E+00  0.00000000000E+00  0.29200917134E+01  0.31843108539E+01  0.12700000000E+01 0.  1.
          4   -1    0    0  501    0  0.00000000000E+00 -0.00000000000E+00 -0.12796693242E+04  0.12796699544E+04  0.12700000000E+01 0.  1.
         25    2    1    2    0    0  0.00000000000E+00  0.00000000000E+00 -0.12767492325E+04  0.12828542652E+04  0.12500585278E+03 0.  0.
    9000005    1    3    3    0    0 -0.37466545485E+02 -0.48768945288E+02 -0.52434524986E+03  0.52794042572E+03  0.10000000000E+01 0.  0.
    9000005    1    3    3    0    0  0.37466545485E+02  0.48768945288E+02 -0.75240398259E+03  0.75491383951E+03  0.10000000000E+01 0.  0.
<mgrwt>
<rscale>  0 0.12500585E+03</rscale>
<asrwt>0</asrwt>
<pdfrwt beam="2">  1        4 0.19689215E+00 0.12500585E+03</pdfrwt>
<pdfrwt beam="1">  1       -4 0.46961893E-03 0.12500585E+03</pdfrwt>
<totfact> 0.22634013E+03</totfact>
</mgrwt>
</event>
<event>
 5    1  0.3281209E-002  0.1250004E+03  0.7818608E-02  0.1235069E+00
         -4   -1    0    0    0  501 -0.00000000000E+00  0.00000000000E+00  0.23572764555E+03  0.23573106663E+03  0.12700000000E+01 0. -1.
          4   -1    0    0  501    0  0.00000000000E+00 -0.00000000000E+00 -0.16543263599E+02  0.16591939926E+02  0.12700000000E+01 0. -1.
         25    2    1    2    0    0  0.00000000000E+00  0.00000000000E+00  0.21918438195E+03  0.25232300656E+03  0.12500042539E+03 0.  0.
    9000005    1    3    3    0    0  0.28385274442E+01 -0.46290353023E+02  0.19414196715E+03  0.19960700747E+03  0.10000000000E+01 0.  0.
    9000005    1    3    3    0    0 -0.28385274442E+01  0.46290353023E+02  0.25042414795E+02  0.52715999088E+02  0.10000000000E+01 0.  0.
<mgrwt>
<rscale>  0 0.12500043E+03</rscale>
<asrwt>0</asrwt>
<pdfrwt beam="2">  1        4 0.25491249E-02 0.12500043E+03</pdfrwt>
<pdfrwt beam="1">  1       -4 0.36269800E-01 0.12500043E+03</pdfrwt>
<totfact> 0.81994857E+03</totfact>
</mgrwt>
</event>
<event>
 5    1  0.3281209E-002  0.1250356E+03  0.7818608E-02  0.1235014E+00
         -4   -1    0    0    0  501 -0.00000000000E+00  0.00000000000E+00  0.16928064783E+02  0.16975637758E+02  0.12700000000E+01 0. -1.
          4   -1    0    0  501    0  0.00000000000E+00 -0.00000000000E+00 -0.23051395493E+03  0.23051745339E+03  0.12700000000E+01 0. -1.
         25    2    1    2    0    0  0.00000000000E+00  0.00000000000E+00 -0.21358589015E+03  0.24749309115E+03  0.12503558572E+03 0.  0.
    9000005    1    3    3    0    0 -0.47895504249E+02 -0.14863959647E+01 -0.27338952269E+02  0.55177957658E+02  0.10000000000E+01 0.  0.
    9000005    1    3    3    0    0  0.47895504249E+02  0.14863959647E+01 -0.18624693788E+03  0.19231513349E+03  0.10000000000E+01 0.  0.
<mgrwt>
<rscale>  0 0.12503559E+03</rscale>
<asrwt>0</asrwt>
<pdfrwt beam="2">  1        4 0.35467612E-01 0.12503559E+03</pdfrwt>
<pdfrwt beam="1">  1       -4 0.26082464E-02 0.12503559E+03</pdfrwt>
<totfact> 0.82628379E+03</totfact>
</mgrwt>
</event>
<event>
 5    1  0.3281209E-002  0.1249953E+03  0.7818608E-02  0.1235077E+00
         -4   -1    0    0    0  501 -0.00000000000E+00  0.00000000000E+00  0.68503816785E+01  0.69671105303E+01  0.12700000000E+01 0. -1.
          4   -1    0    0  501    0  0.00000000000E+00 -0.00000000000E+00 -0.56524661775E+03  0.56524804447E+03  0.12700000000E+01 0. -1.
         25    2    1    2    0    0  0.00000000000E+00  0.00000000000E+00 -0.55839623607E+03  0.57221515500E+03  0.12499530853E+03 0.  0.
    9000005    1    3    3    0    0 -0.43318144848E+02 -0.13523042110E+02 -0.82528590348E+02  0.94187592419E+02  0.10000000000E+01 0.  0.
    9000005    1    3    3    0    0  0.43318144848E+02  0.13523042110E+02 -0.47586764572E+03  0.47802756258E+03  0.10000000000E+01 0.  0.
<mgrwt>
<rscale>  0 0.12499531E+03</rscale>
<asrwt>0</asrwt>
<pdfrwt beam="2">  1        4 0.86970071E-01 0.12499531E+03</pdfrwt>
<pdfrwt beam="1">  1       -4 0.10629942E-02 0.12499531E+03</pdfrwt>
<totfact> 0.50675022E+03</totfact>
</mgrwt>
</event>
<event>
 5    1  0.3281209E-002  0.1250007E+03  0.7818608E-02  0.1235068E+00
          4   -1    0    0  501    0  0.00000000000E+00  0.00000000000E+00  0.72925304800E+02  0.72936362537E+02  0.12700000000E+01 0.  1.
         -4   -1    0    0    0  501 -0.00000000000E+00 -0.00000000000E+00 -0.53543054767E+02  0.53558114360E+02  0.12700000000E+01 0.  1.
         25    2    1    2    0    0  0.00000000000E+00  0.00000000000E+00  0.19382250032E+02  0.12649447690E+03  0.12500072427E+03 0.  0.
    9000005    1    3    3    0    0  0.48904175816E+02  0.38413422421E+02  0.15936244661E+02  0.64204153512E+02  0.10000000000E+01 0.  0.
    9000005    1    3    3    0    0 -0.48904175816E+02 -0.38413422421E+02  0.34460053718E+01  0.62290323385E+02  0.10000000000E+01 0.  0.
<mgrwt>
<rscale>  0 0.12500072E+03</rscale>
<asrwt>0</asrwt>
<pdfrwt beam="1">  1        4 0.11221287E-01 0.12500072E+03</pdfrwt>
<pdfrwt beam="2">  1       -4 0.82394021E-02 0.12500072E+03</pdfrwt>
<totfact> 0.10419978E+04</totfact>
</mgrwt>
</event>
<event>
 5    1  0.3281209E-002  0.1250018E+03  0.7818608E-02  0.1235066E+00
         -4   -1    0    0    0  501 -0.00000000000E+00  0.00000000000E+00  0.13728656628E+03  0.13729244036E+03  0.12700000000E+01 0. -1.
          4   -1    0    0  501    0  0.00000000000E+00 -0.00000000000E+00 -0.28433432385E+02  0.28461780991E+02  0.12700000000E+01 0. -1.
         25    2    1    2    0    0  0.00000000000E+00  0.00000000000E+00  0.10885313389E+03  0.16575422135E+03  0.12500182854E+03 0.  0.
    9000005    1    3    3    0    0  0.24863776697E+02 -0.54884107909E+02  0.76411692985E+02  0.97315052882E+02  0.10000000000E+01 0.  0.
    9000005    1    3    3    0    0 -0.24863776697E+02  0.54884107909E+02  0.32441440907E+02  0.68439168469E+02  0.10000000000E+01 0.  0.
<mgrwt>
<rscale>  0 0.12500183E+03</rscale>
<asrwt>0</asrwt>
<pdfrwt beam="2">  1        4 0.43770067E-02 0.12500183E+03</pdfrwt>
<pdfrwt beam="1">  1       -4 0.21123643E-01 0.12500183E+03</pdfrwt>
<totfact> 0.96240792E+03</totfact>
</mgrwt>
</event>
<event>
 5    1  0.3281209E-002  0.1249970E+03  0.7818608E-02  0.1235074E+00
          4   -1    0    0  501    0  0.00000000000E+00  0.00000000000E+00  0.21517749605E+03  0.21518124386E+03  0.12700000000E+01 0. -1.
         -4   -1    0    0    0  501 -0.00000000000E+00 -0.00000000000E+00 -0.18126623374E+02  0.18171058718E+02  0.12700000000E+01 0. -1.
         25    2    1    2    0    0  0.00000000000E+00  0.00000000000E+00  0.19705087268E+03  0.23335230257E+03  0.12499700274E+03 0.  0.
    9000005    1    3    3    0    0 -0.19306734842E+02 -0.11754616737E+02 -0.10236635675E+02  0.24833641192E+02  0.10000000000E+01 0.  0.
    9000005    1    3    3    0    0  0.19306734842E+02  0.11754616737E+02  0.20728750835E+03  0.20851866138E+03  0.10000000000E+01 0.  0.
<mgrwt>
<rscale>  0 0.12499700E+03</rscale>
<asrwt>0</asrwt>
<pdfrwt beam="1">  1        4 0.33107935E-01 0.12499700E+03</pdfrwt>
<pdfrwt beam="2">  1       -4 0.27924178E-02 0.12499700E+03</pdfrwt>
<totfact> 0.84803162E+03</totfact>
</mgrwt>
</event>
<event>
 5    1  0.3281209E-002  0.1249974E+03  0.7818608E-02  0.1235073E+00
          4   -1    0    0  501    0  0.00000000000E+00  0.00000000000E+00  0.58043758184E+02  0.58057650350E+02  0.12700000000E+01 0. -1.
         -4   -1    0    0    0  501 -0.00000000000E+00 -0.00000000000E+00 -0.67267676478E+02  0.67279664080E+02  0.12700000000E+01 0. -1.
         25    2    1    2    0    0  0.00000000000E+00  0.00000000000E+00 -0.92239182939E+01  0.12533731443E+03  0.12499744685E+03 0.  0.
    9000005    1    3    3    0    0  0.38249982828E+02 -0.23284718270E+02  0.39093836351E+02  0.59452227308E+02  0.10000000000E+01 0.  0.
    9000005    1    3    3    0    0 -0.38249982828E+02  0.23284718270E+02 -0.48317754644E+02  0.65885087122E+02  0.10000000000E+01 0.  0.
<mgrwt>
<rscale>  0 0.12499745E+03</rscale>
<asrwt>0</asrwt>
<pdfrwt beam="1">  1        4 0.89317997E-02 0.12499745E+03</pdfrwt>
<pdfrwt beam="2">  1       -4 0.10350864E-01 0.12499745E+03</pdfrwt>
<totfact> 0.10446143E+04</totfact>
</mgrwt>
</event>
<event>
 5    1  0.3281209E-002  0.1249999E+03  0.7818608E-02  0.1235069E+00
          4   -1    0    0  501    0  0.00000000000E+00  0.00000000000E+00  0.28086028352E+02  0.28114727254E+02  0.12700000000E+01 0.  1.
         -4   -1    0    0    0  501 -0.00000000000E+00 -0.00000000000E+00 -0.13897878690E+03  0.13898458946E+03  0.12700000000E+01 0.  1.
         25    2    1    2    0    0  0.00000000000E+00  0.00000000000E+00 -0.11089275854E+03  0.16709931671E+03  0.12499991099E+03 0.  0.
    9000005    1    3    3    0    0  0.23439300788E+02  0.21833060065E+02  0.16283145502E+02  0.35947519535E+02  0.10000000000E+01 0.  0.
    9000005    1    3    3    0    0 -0.23439300788E+02 -0.21833060065E+02 -0.12717590405E+03  0.13115179718E+03  0.10000000000E+01 0.  0.
<mgrwt>
<rscale>  0 0.12499991E+03</rscale>
<asrwt>0</asrwt>
<pdfrwt beam="1">  1        4 0.43235815E-02 0.12499991E+03</pdfrwt>
<pdfrwt beam="2">  1       -4 0.21384005E-01 0.12499991E+03</pdfrwt>
<totfact> 0.95991478E+03</totfact>
</mgrwt>
</event>
<event>
 5    1  0.3281209E-002  0.1249964E+03  0.7818608E-02  0.1235075E+00
         -4   -1    0    0    0  501 -0.00000000000E+00  0.00000000000E+00  0.74010932950E+03  0.74011041914E+03  0.12700000000E+01 0.  1.
          4   -1    0    0  501    0  0.00000000000E+00 -0.00000000000E+00 -0.52001197175E+01  0.53529566668E+01  0.12700000000E+01 0.  1.
         25    2    1    2    0    0  0.00000000000E+00  0.00000000000E+00  0.73490920979E+03  0.74546337581E+03  0.12499639211E+03 0.  0.
    9000005    1    3    3    0    0  0.49892697275E+02  0.38538707768E+01  0.59067352284E+03  0.59279030369E+03  0.10000000000E+01 0.  0.
    9000005    1    3    3    0    0 -0.49892697275E+02 -0.38538707768E+01  0.14423568694E+03  0.15267307212E+03  0.10000000000E+01 0.  0.
<mgrwt>
<rscale>  0 0.12499639E+03</rscale>
<asrwt>0</asrwt>
<pdfrwt beam="2">  1        4 0.81185856E-03 0.12499639E+03</pdfrwt>
<pdfrwt beam="1">  1       -4 0.11387487E+00 0.12499639E+03</pdfrwt>
<totfact> 0.40795268E+03</totfact>
</mgrwt>
</event>
<event>
 5    1  0.3281209E-002  0.1249991E+03  0.7818608E-02  0.1235071E+00
          4   -1    0    0  501    0  0.00000000000E+00  0.00000000000E+00  0.10715071999E+02  0.10790072657E+02  0.12700000000E+01 0. -1.
         -4   -1    0    0    0  501 -0.00000000000E+00 -0.00000000000E+00 -0.36320404541E+03  0.36320626578E+03  0.12700000000E+01 0. -1.
         25    2    1    2    0    0  0.00000000000E+00  0.00000000000E+00 -0.35248897341E+03  0.37399633844E+03  0.12499913915E+03 0.  0.
    9000005    1    3    3    0    0  0.61422834561E+02  0.11492232574E+02 -0.17804013491E+03  0.18869055529E+03  0.10000000000E+01 0.  0.
    9000005    1    3    3    0    0 -0.61422834561E+02 -0.11492232574E+02 -0.17444883850E+03  0.18530578315E+03  0.10000000000E+01 0.  0.
<mgrwt>
<rscale>  0 0.12499914E+03</rscale>
<asrwt>0</asrwt>
<pdfrwt beam="1">  1        4 0.16544130E-02 0.12499914E+03</pdfrwt>
<pdfrwt beam="2">  1       -4 0.55883476E-01 0.12499914E+03</pdfrwt>
<totfact> 0.67164190E+03</totfact>
</mgrwt>
</event>
<event>
 5    1  0.3281209E-002  0.1250006E+03  0.7818608E-02  0.1235068E+00
         -4   -1    0    0    0  501 -0.00000000000E+00  0.00000000000E+00  0.51197837773E+02  0.51213586992E+02  0.12700000000E+01 0. -1.
          4   -1    0    0  501    0  0.00000000000E+00 -0.00000000000E+00 -0.76265099056E+02  0.76275672623E+02  0.12700000000E+01 0. -1.
         25    2    1    2    0    0  0.00000000000E+00  0.00000000000E+00 -0.25067261283E+02  0.12748925961E+03  0.12500057491E+03 0.  0.
    9000005    1    3    3    0    0  0.45205451108E+02  0.43031610844E+02 -0.93029816475E+01  0.63109411416E+02  0.10000000000E+01 0.  0.
    9000005    1    3    3    0    0 -0.45205451108E+02 -0.43031610844E+02 -0.15764279636E+02  0.64379848199E+02  0.10000000000E+01 0.  0.
<mgrwt>
<rscale>  0 0.12500057E+03</rscale>
<asrwt>0</asrwt>
<pdfrwt beam="2">  1        4 0.11735117E-01 0.12500057E+03</pdfrwt>
<pdfrwt beam="1">  1       -4 0.78786153E-02 0.12500057E+03</pdfrwt>
<totfact> 0.10398398E+04</totfact>
</mgrwt>
</event>
<event>
 5    1  0.3281209E-002  0.1249989E+03  0.7818608E-02  0.1235071E+00
          4   -1    0    0  501    0  0.00000000000E+00  0.00000000000E+00  0.17160309333E+03  0.17160779277E+03  0.12700000000E+01 0. -1.
         -4   -1    0    0    0  501 -0.00000000000E+00 -0.00000000000E+00 -0.22740158578E+02  0.22775594661E+02  0.12700000000E+01 0. -1.
         25    2    1    2    0    0  0.00000000000E+00  0.00000000000E+00  0.14886293475E+03  0.19438338743E+03  0.12499891186E+03 0.  0.
    9000005    1    3    3    0    0 -0.38645373479E+02 -0.43160746973E+01 -0.16418407875E+01  0.38933135416E+02  0.10000000000E+01 0.  0.
    9000005    1    3    3    0    0  0.38645373479E+02  0.43160746973E+01  0.15050477554E+03  0.15545025202E+03  0.10000000000E+01 0.  0.
<mgrwt>
<rscale>  0 0.12499891E+03</rscale>
<asrwt>0</asrwt>
<pdfrwt beam="1">  1        4 0.26403563E-01 0.12499891E+03</pdfrwt>
<pdfrwt beam="2">  1       -4 0.35015733E-02 0.12499891E+03</pdfrwt>
<totfact> 0.91092383E+03</totfact>
</mgrwt>
</event>
<event>
 5    1  0.3281209E-002  0.1250211E+03  0.7818608E-02  0.1235036E+00
         -4   -1    0    0    0  501 -0.00000000000E+00  0.00000000000E+00  0.27203998607E+02  0.27233627012E+02  0.12700000000E+01 0. -1.
          4   -1    0    0  501    0  0.00000000000E+00 -0.00000000000E+00 -0.14352879992E+03  0.14353441855E+03  0.12700000000E+01 0. -1.
         25    2    1    2    0    0  0.00000000000E+00  0.00000000000E+00 -0.11632480132E+03  0.17076804556E+03  0.12502106216E+03 0.  0.
    9000005    1    3    3    0    0  0.11372457814E+02 -0.21695705945E+01  0.25733276272E+02  0.28235462472E+02  0.10000000000E+01 0.  0.
    9000005    1    3    3    0    0 -0.11372457814E+02  0.21695705945E+01 -0.14205807759E+03  0.14253258309E+03  0.10000000000E+01 0.  0.
<mgrwt>
<rscale>  0 0.12502106E+03</rscale>
<asrwt>0</asrwt>
<pdfrwt beam="2">  1        4 0.22084065E-01 0.12502106E+03</pdfrwt>
<pdfrwt beam="1">  1       -4 0.41879419E-02 0.12502106E+03</pdfrwt>
<totfact> 0.95260640E+03</totfact>
</mgrwt>
</event>
<event>
 5    1  0.3281209E-002  0.1249981E+03  0.7818608E-02  0.1235072E+00
         -4   -1    0    0    0  501 -0.00000000000E+00  0.00000000000E+00  0.25527614712E+02  0.25559186468E+02  0.12700000000E+01 0. -1.
          4   -1    0    0  501    0  0.00000000000E+00 -0.00000000000E+00 -0.15288714545E+03  0.15289242016E+03  0.12700000000E+01 0. -1.
         25    2    1    2    0    0  0.00000000000E+00  0.00000000000E+00 -0.12735953074E+03  0.17845160663E+03  0.12499810335E+03 0.  0.
    9000005    1    3    3    0    0 -0.21934254433E+02  0.50019685093E+02 -0.20329224399E+02  0.58286857686E+02  0.10000000000E+01 0.  0.
    9000005    1    3    3    0    0  0.21934254433E+02 -0.50019685093E+02 -0.10703030634E+03  0.12016474895E+03  0.10000000000E+01 0.  0.
<mgrwt>
<rscale>  0 0.12499810E+03</rscale>
<asrwt>0</asrwt>
<pdfrwt beam="2">  1        4 0.23523933E-01 0.12499810E+03</pdfrwt>
<pdfrwt beam="1">  1       -4 0.39301598E-02 0.12499810E+03</pdfrwt>
<totfact> 0.93900458E+03</totfact>
</mgrwt>
</event>
<event>
 5    1  0.3281209E-002  0.1250013E+03  0.7818608E-02  0.1235067E+00
          4   -1    0    0  501    0  0.00000000000E+00  0.00000000000E+00  0.58834736808E+03  0.58834873878E+03  0.12700000000E+01 0. -1.
         -4   -1    0    0    0  501 -0.00000000000E+00 -0.00000000000E+00 -0.65773775644E+01  0.66988652491E+01  0.12700000000E+01 0. -1.
         25    2    1    2    0    0  0.00000000000E+00  0.00000000000E+00  0.58176999052E+03  0.59504760403E+03  0.12500131679E+03 0.  0.
    9000005    1    3    3    0    0 -0.32170866726E+02 -0.20182040272E+02  0.54633812617E+02  0.66544217604E+02  0.10000000000E+01 0.  0.
    9000005    1    3    3    0    0  0.32170866726E+02  0.20182040272E+02  0.52713617790E+03  0.52850338643E+03  0.10000000000E+01 0.  0.
<mgrwt>
<rscale>  0 0.12500132E+03</rscale>
<asrwt>0</asrwt>
<pdfrwt beam="1">  1        4 0.90524391E-01 0.12500132E+03</pdfrwt>
<pdfrwt beam="2">  1       -4 0.10213553E-02 0.12500132E+03</pdfrwt>
<totfact> 0.49180315E+03</totfact>
</mgrwt>
</event>
<event>
 5    1  0.3281209E-002  0.1250060E+03  0.7818608E-02  0.1235060E+00
          4   -1    0    0  501    0  0.00000000000E+00  0.00000000000E+00  0.66199119277E+02  0.66211300343E+02  0.12700000000E+01 0. -1.
         -4   -1    0    0    0  501 -0.00000000000E+00 -0.00000000000E+00 -0.58988825194E+02  0.59002494844E+02  0.12700000000E+01 0. -1.
         25    2    1    2    0    0  0.00000000000E+00  0.00000000000E+00  0.72102940832E+01  0.12521379519E+03  0.12500602451E+03 0.  0.
    9000005    1    3    3    0    0  0.40437888117E+02  0.22782706154E+02 -0.38313568076E+02  0.60193056026E+02  0.10000000000E+01 0.  0.
    9000005    1    3    3    0    0 -0.40437888117E+02 -0.22782706154E+02  0.45523862159E+02  0.65020739160E+02  0.10000000000E+01 0.  0.
<mgrwt>
<rscale>  0 0.12500602E+03</rscale>
<asrwt>0</asrwt>
<pdfrwt beam="1">  1        4 0.10186468E-01 0.12500602E+03</pdfrwt>
<pdfrwt beam="2">  1       -4 0.90771924E-02 0.12500602E+03</pdfrwt>
<totfact> 0.10446798E+04</totfact>
</mgrwt>
</event>
<event>
 5    1  0.3281209E-002  0.1249996E+03  0.7818608E-02  0.1235070E+00
          4   -1    0    0  501    0  0.00000000000E+00  0.00000000000E+00  0.99226001161E+02  0.99234128235E+02  0.12700000000E+01 0.  1.
         -4   -1    0    0    0  501 -0.00000000000E+00 -0.00000000000E+00 -0.39346939333E+02  0.39367429874E+02  0.12700000000E+01 0.  1.
         25    2    1    2    0    0  0.00000000000E+00  0.00000000000E+00  0.59879061828E+02  0.13860155811E+03  0.12499955946E+03 0.  0.
    9000005    1    3    3    0    0  0.42388784018E+02 -0.17803474795E+02 -0.16991699924E+02  0.49025407613E+02  0.10000000000E+01 0.  0.
    9000005    1    3    3    0    0 -0.42388784018E+02  0.17803474795E+02  0.76870761753E+02  0.89576150496E+02  0.10000000000E+01 0.  0.
<mgrwt>
<rscale>  0 0.12499956E+03</rscale>
<asrwt>0</asrwt>
<pdfrwt beam="1">  1        4 0.15267740E-01 0.12499956E+03</pdfrwt>
<pdfrwt beam="2">  1       -4 0.60555767E-02 0.12499956E+03</pdfrwt>
<totfact> 0.10162753E+04</totfact>
</mgrwt>
</event>
<event>
 5    1  0.3281209E-002  0.1250001E+03  0.7818608E-02  0.1235069E+00
         -4   -1    0    0    0  501 -0.00000000000E+00  0.00000000000E+00  0.43000031420E+02  0.43018781969E+02  0.12700000000E+01 0. -1.
          4   -1    0    0  501    0  0.00000000000E+00 -0.00000000000E+00 -0.90800136472E+02  0.90809017632E+02  0.12700000000E+01 0. -1.
         25    2    1    2    0    0  0.00000000000E+00  0.00000000000E+00 -0.47800105052E+02  0.13382779960E+03  0.12500011961E+03 0.  0.
    9000005    1    3    3    0    0 -0.10791247584E+02 -0.56532492141E+02 -0.49968831788E+02  0.76225047343E+02  0.10000000000E+01 0.  0.
    9000005    1    3    3    0    0  0.10791247584E+02  0.56532492141E+02  0.21687267366E+01  0.57602752259E+02  0.10000000000E+01 0.  0.
<mgrwt>
<rscale>  0 0.12500012E+03</rscale>
<asrwt>0</asrwt>
<pdfrwt beam="2">  1        4 0.13971377E-01 0.12500012E+03</pdfrwt>
<pdfrwt beam="1">  1       -4 0.66175150E-02 0.12500012E+03</pdfrwt>
<totfact> 0.10262810E+04</totfact>
</mgrwt>
</event>
<event>
 5    1  0.3281209E-002  0.1249992E+03  0.7818608E-02  0.1235071E+00
         -4   -1    0    0    0  501 -0.00000000000E+00  0.00000000000E+00  0.18049440790E+03  0.18049887585E+03  0.12700000000E+01 0. -1.
          4   -1    0    0  501    0  0.00000000000E+00 -0.00000000000E+00 -0.21618288682E+02  0.21655560614E+02  0.12700000000E+01 0. -1.
         25    2    1    2    0    0  0.00000000000E+00  0.00000000000E+00  0.15887611921E+03  0.20215443646E+03  0.12499917969E+03 0.  0.
    9000005    1    3    3    0    0 -0.61588704207E+02 -0.30080620727E+01  0.95849865409E+02  0.11397549571E+03  0.10000000000E+01 0.  0.
    9000005    1    3    3    0    0  0.61588704207E+02  0.30080620727E+01  0.63026253806E+02  0.88178940751E+02  0.10000000000E+01 0.  0.
<mgrwt>
<rscale>  0 0.12499918E+03</rscale>
<asrwt>0</asrwt>
<pdfrwt beam="2">  1        4 0.33291013E-02 0.12499918E+03</pdfrwt>
<pdfrwt beam="1">  1       -4 0.27771581E-01 0.12499918E+03</pdfrwt>
<totfact> 0.89775058E+03</totfact>
</mgrwt>
</event>
<event>
 5    1  0.3281209E-002  0.1250053E+03  0.7818608E-02  0.1235061E+00
         -4   -1    0    0    0  501 -0.00000000000E+00  0.00000000000E+00  0.42671349413E+02  0.42690244327E+02  0.12700000000E+01 0. -1.
          4   -1    0    0  501    0  0.00000000000E+00 -0.00000000000E+00 -0.91506838717E+02  0.91515651296E+02  0.12700000000E+01 0. -1.
         25    2    1    2    0    0  0.00000000000E+00  0.00000000000E+00 -0.48835489305E+02  0.13420589562E+03  0.12500526951E+03 0.  0.
    9000005    1    3    3    0    0 -0.28522447234E+02  0.53085693443E+02 -0.42187672685E+02  0.73569155025E+02  0.10000000000E+01 0.  0.
    9000005    1    3    3    0    0  0.28522447234E+02 -0.53085693443E+02 -0.66478166194E+01  0.60636740598E+02  0.10000000000E+01 0.  0.
<mgrwt>
<rscale>  0 0.12500527E+03</rscale>
<asrwt>0</asrwt>
<pdfrwt beam="2">  1        4 0.14080107E-01 0.12500527E+03</pdfrwt>
<pdfrwt beam="1">  1       -4 0.65669543E-02 0.12500527E+03</pdfrwt>
<totfact> 0.10253617E+04</totfact>
</mgrwt>
</event>
<event>
 5    1  0.3281209E-002  0.1250048E+03  0.7818608E-02  0.1235062E+00
         -4   -1    0    0    0  501 -0.00000000000E+00  0.00000000000E+00  0.32057055119E+02  0.32082201965E+02  0.12700000000E+01 0. -1.
          4   -1    0    0  501    0  0.00000000000E+00 -0.00000000000E+00 -0.12178616849E+03  0.12179279016E+03  0.12700000000E+01 0. -1.
         25    2    1    2    0    0  0.00000000000E+00  0.00000000000E+00 -0.89729113371E+02  0.15387499213E+03  0.12500479757E+03 0.  0.
    9000005    1    3    3    0    0 -0.27026582187E+02 -0.23280428070E+02  0.18300655106E+02  0.40103970540E+02  0.10000000000E+01 0.  0.
    9000005    1    3    3    0    0  0.27026582187E+02  0.23280428070E+02 -0.10802976848E+03  0.11377102159E+03  0.10000000000E+01 0.  0.
<mgrwt>
<rscale>  0 0.12500480E+03</rscale>
<asrwt>0</asrwt>
<pdfrwt beam="2">  1        4 0.18738777E-01 0.12500480E+03</pdfrwt>
<pdfrwt beam="1">  1       -4 0.49342984E-02 0.12500480E+03</pdfrwt>
<totfact> 0.98526173E+03</totfact>
</mgrwt>
</event>
<event>
 5    1  0.3281209E-002  0.1249999E+03  0.7818608E-02  0.1235069E+00
          4   -1    0    0  501    0  0.00000000000E+00  0.00000000000E+00  0.94315128243E+01  0.95166346024E+01  0.12700000000E+01 0. -1.
         -4   -1    0    0    0  501 -0.00000000000E+00 -0.00000000000E+00 -0.41222288112E+03  0.41222483746E+03  0.12700000000E+01 0. -1.
         25    2    1    2    0    0  0.00000000000E+00  0.00000000000E+00 -0.40279136830E+03  0.42174147207E+03  0.12499993154E+03 0.  0.
    9000005    1    3    3    0    0 -0.14625118835E+02 -0.26107603935E+02 -0.16297840619E+02  0.34089891361E+02  0.10000000000E+01 0.  0.
    9000005    1    3    3    0    0  0.14625118835E+02  0.26107603935E+02 -0.38649352768E+03  0.38765158070E+03  0.10000000000E+01 0.  0.
<mgrwt>
<rscale>  0 0.12499993E+03</rscale>
<asrwt>0</asrwt>
<pdfrwt beam="1">  1        4 0.14577006E-02 0.12499993E+03</pdfrwt>
<pdfrwt beam="2">  1       -4 0.63425589E-01 0.12499993E+03</pdfrwt>
<totfact> 0.62491878E+03</totfact>
</mgrwt>
</event>
<event>
 5    1  0.3281209E-002  0.1249988E+03  0.7818608E-02  0.1235071E+00
          4   -1    0    0  501    0  0.00000000000E+00  0.00000000000E+00  0.80653031577E+02  0.80663029962E+02  0.12700000000E+01 0.  1.
         -4   -1    0    0    0  501 -0.00000000000E+00 -0.00000000000E+00 -0.48410504823E+02  0.48427160533E+02  0.12700000000E+01 0.  1.
         25    2    1    2    0    0  0.00000000000E+00  0.00000000000E+00  0.32242526754E+02  0.12909019049E+03  0.12499878700E+03 0.  0.
    9000005    1    3    3    0    0  0.24236104993E+02  0.57586157565E+02  0.17435658935E+02  0.64873388464E+02  0.10000000000E+01 0.  0.
    9000005    1    3    3    0    0 -0.24236104993E+02 -0.57586157565E+02  0.14806867819E+02  0.64216802030E+02  0.10000000000E+01 0.  0.
<mgrwt>
<rscale>  0 0.12499879E+03</rscale>
<asrwt>0</asrwt>
<pdfrwt beam="1">  1        4 0.12410209E-01 0.12499879E+03</pdfrwt>
<pdfrwt beam="2">  1       -4 0.74498204E-02 0.12499879E+03</pdfrwt>
<totfact> 0.10364293E+04</totfact>
</mgrwt>
</event>
<event>
 5    1  0.3281209E-002  0.1250007E+03  0.7818608E-02  0.1235068E+00
          4   -1    0    0  501    0  0.00000000000E+00  0.00000000000E+00  0.73351434064E+02  0.73362427572E+02  0.12700000000E+01 0.  1.
         -4   -1    0    0    0  501 -0.00000000000E+00 -0.00000000000E+00 -0.53231956523E+02  0.53247104102E+02  0.12700000000E+01 0.  1.
         25    2    1    2    0    0  0.00000000000E+00  0.00000000000E+00  0.20119477541E+02  0.12660953167E+03  0.12500072053E+03 0.  0.
    9000005    1    3    3    0    0  0.60511317068E+02  0.96774169557E+01 -0.23462965512E+01  0.61333326991E+02  0.10000000000E+01 0.  0.
    9000005    1    3    3    0    0 -0.60511317068E+02 -0.96774169557E+01  0.22465774092E+02  0.65276204683E+02  0.10000000000E+01 0.  0.
<mgrwt>
<rscale>  0 0.12500072E+03</rscale>
<asrwt>0</asrwt>
<pdfrwt beam="1">  1        4 0.11286847E-01 0.12500072E+03</pdfrwt>
<pdfrwt beam="2">  1       -4 0.81915426E-02 0.12500072E+03</pdfrwt>
<totfact> 0.10417471E+04</totfact>
</mgrwt>
</event>
<event>
 5    1  0.3281209E-002  0.1249877E+03  0.7818608E-02  0.1235089E+00
         -4   -1    0    0    0  501 -0.00000000000E+00  0.00000000000E+00  0.19335743101E+02  0.19377405948E+02  0.12700000000E+01 0.  1.
          4   -1    0    0  501    0  0.00000000000E+00 -0.00000000000E+00 -0.20172132034E+03  0.20172531814E+03  0.12700000000E+01 0.  1.
         25    2    1    2    0    0  0.00000000000E+00  0.00000000000E+00 -0.18238557724E+03  0.22110272409E+03  0.12498766265E+03 0.  0.
    9000005    1    3    3    0    0  0.44123765364E+02  0.16087576387E+02 -0.16410381926E+03  0.17069499196E+03  0.10000000000E+01 0.  0.
    9000005    1    3    3    0    0 -0.44123765364E+02 -0.16087576387E+02 -0.18281757978E+02  0.50407732132E+02  0.10000000000E+01 0.  0.
<mgrwt>
<rscale>  0 0.12498766E+03</rscale>
<asrwt>0</asrwt>
<pdfrwt beam="2">  1        4 0.31037560E-01 0.12498766E+03</pdfrwt>
<pdfrwt beam="1">  1       -4 0.29782422E-02 0.12498766E+03</pdfrwt>
<totfact> 0.86718051E+03</totfact>
</mgrwt>
</event>
<event>
 5    1  0.3281209E-002  0.1249988E+03  0.7818608E-02  0.1235071E+00
          4   -1    0    0  501    0  0.00000000000E+00  0.00000000000E+00  0.11259499373E+03  0.11260215590E+03  0.12700000000E+01 0. -1.
         -4   -1    0    0    0  501 -0.00000000000E+00 -0.00000000000E+00 -0.34672360182E+02  0.34695611546E+02  0.12700000000E+01 0. -1.
         25    2    1    2    0    0  0.00000000000E+00  0.00000000000E+00  0.77922633545E+02  0.14729776744E+03  0.12499878189E+03 0.  0.
    9000005    1    3    3    0    0 -0.46890331222E+02  0.33653016418E+02  0.10730360146E+02  0.58714302389E+02  0.10000000000E+01 0.  0.
    9000005    1    3    3    0    0  0.46890331222E+02 -0.33653016418E+02  0.67192273399E+02  0.88583465053E+02  0.10000000000E+01 0.  0.
<mgrwt>
<rscale>  0 0.12499878E+03</rscale>
<asrwt>0</asrwt>
<pdfrwt beam="1">  1        4 0.17324647E-01 0.12499878E+03</pdfrwt>
<pdfrwt beam="2">  1       -4 0.53365486E-02 0.12499878E+03</pdfrwt>
<totfact> 0.99847838E+03</totfact>
</mgrwt>
</event>
<event>
 5    1  0.3281209E-002  0.1249950E+03  0.7818608E-02  0.1235077E+00
          4   -1    0    0  501    0  0.00000000000E+00  0.00000000000E+00  0.56971338486E+01  0.58369713113E+01  0.12700000000E+01 0.  1.
         -4   -1    0    0    0  501 -0.00000000000E+00 -0.00000000000E+00 -0.67714424046E+03  0.67714543141E+03  0.12700000000E+01 0.  1.
         25    2    1    2    0    0  0.00000000000E+00  0.00000000000E+00 -0.67144710661E+03  0.68298240272E+03  0.12499498173E+03 0.  0.
    9000005    1    3    3    0    0  0.73437475461E+01 -0.12653685698E+02 -0.37660525403E+01  0.15140328316E+02  0.10000000000E+01 0.  0.
    9000005    1    3    3    0    0 -0.73437475461E+01  0.12653685698E+02 -0.66768105407E+03  0.66784207441E+03  0.10000000000E+01 0.  0.
<mgrwt>
<rscale>  0 0.12499498E+03</rscale>
<asrwt>0</asrwt>
<pdfrwt beam="1">  1        4 0.88733101E-03 0.12499498E+03</pdfrwt>
<pdfrwt beam="2">  1       -4 0.10418682E+00 0.12499498E+03</pdfrwt>
<totfact> 0.44005240E+03</totfact>
</mgrwt>
</event>
<event>
 5    1  0.3281209E-002  0.1250100E+03  0.7818608E-02  0.1235054E+00
          4   -1    0    0  501    0  0.00000000000E+00  0.00000000000E+00  0.11390158210E+02  0.11460741863E+02  0.12700000000E+01 0. -1.
         -4   -1    0    0    0  501 -0.00000000000E+00 -0.00000000000E+00 -0.34187333613E+03  0.34187569504E+03  0.12700000000E+01 0. -1.
         25    2    1    2    0    0  0.00000000000E+00  0.00000000000E+00 -0.33048317792E+03  0.35333643690E+03  0.12501002661E+03 0.  0.
    9000005    1    3    3    0    0  0.23607574001E+02  0.48264426843E+02 -0.25547198878E+03  0.26106265436E+03  0.10000000000E+01 0.  0.
    9000005    1    3    3    0    0 -0.23607574001E+02 -0.48264426843E+02 -0.75011189143E+02  0.92273782546E+02  0.10000000000E+01 0.  0.
<mgrwt>
<rscale>  0 0.12501003E+03</rscale>
<asrwt>0</asrwt>
<pdfrwt beam="1">  1        4 0.17579433E-02 0.12501003E+03</pdfrwt>
<pdfrwt beam="2">  1       -4 0.52601501E-01 0.12501003E+03</pdfrwt>
<totfact> 0.69343678E+03</totfact>
</mgrwt>
</event>
<event>
 5    1  0.3281209E-002  0.1250000E+03  0.7818608E-02  0.1235069E+00
         -4   -1    0    0    0  501 -0.00000000000E+00  0.00000000000E+00  0.44969324640E+01  0.46728258672E+01  0.12700000000E+01 0. -1.
          4   -1    0    0  501    0  0.00000000000E+00 -0.00000000000E+00 -0.85180840637E+03  0.85180935312E+03  0.12700000000E+01 0. -1.
         25    2    1    2    0    0  0.00000000000E+00  0.00000000000E+00 -0.84731147390E+03  0.85648217898E+03  0.12499995644E+03 0.  0.
    9000005    1    3    3    0    0  0.42311091847E+02 -0.34007560302E+02 -0.63578743873E+03  0.63810141035E+03  0.10000000000E+01 0.  0.
    9000005    1    3    3    0    0 -0.42311091847E+02  0.34007560302E+02 -0.21152403517E+03  0.21838076863E+03  0.10000000000E+01 0.  0.
<mgrwt>
<rscale>  0 0.12499996E+03</rscale>
<asrwt>0</asrwt>
<pdfrwt beam="2">  1        4 0.13106092E+00 0.12499996E+03</pdfrwt>
<pdfrwt beam="1">  1       -4 0.70543953E-03 0.12499996E+03</pdfrwt>
<totfact> 0.35863591E+03</totfact>
</mgrwt>
</event>
<event>
 4    1  0.3281209E-002  0.1250744E+03  0.7818608E-02  0.1234953E+00
         -4   -1    0    0    0  501 -0.00000000000E+00  0.00000000000E+00  0.84437748734E+02  0.84447299017E+02  0.12700000000E+01 0.  1.
          4   -1    0    0  501    0  0.00000000000E+00 -0.00000000000E+00 -0.46296104489E+02  0.46313520605E+02  0.12700000000E+01 0.  1.
    9000005    1    1    2    0    0  0.10470686972E+02 -0.43436542463E+02  0.64803558757E+02  0.78720199024E+02  0.10000000000E+01 0.  0.
    9000005    1    1    2    0    0 -0.10470686972E+02  0.43436542463E+02 -0.26661914512E+02  0.52040620598E+02  0.10000000000E+01 0.  0.
<mgrwt>
<rscale>  0 0.12507441E+03</rscale>
<asrwt>0</asrwt>
<pdfrwt beam="2">  1        4 0.71245519E-02 0.12507441E+03</pdfrwt>
<pdfrwt beam="1">  1       -4 0.12992497E-01 0.12507441E+03</pdfrwt>
<totfact> 0.10310901E+04</totfact>
</mgrwt>
</event>
<event>
 5    1  0.3281209E-002  0.1250125E+03  0.7818608E-02  0.1235050E+00
          4   -1    0    0  501    0  0.00000000000E+00  0.00000000000E+00  0.35969456511E+03  0.35969680715E+03  0.12700000000E+01 0.  1.
         -4   -1    0    0    0  501 -0.00000000000E+00 -0.00000000000E+00 -0.10822674610E+02  0.10896934694E+02  0.12700000000E+01 0.  1.
         25    2    1    2    0    0  0.00000000000E+00  0.00000000000E+00  0.34887189050E+03  0.37059374184E+03  0.12501250141E+03 0.  0.
    9000005    1    3    3    0    0 -0.20143267197E+02  0.43781802861E+02  0.29239861841E+03  0.29634532141E+03  0.10000000000E+01 0.  0.
    9000005    1    3    3    0    0  0.20143267197E+02 -0.43781802861E+02  0.56473272092E+02  0.74248420427E+02  0.10000000000E+01 0.  0.
<mgrwt>
<rscale>  0 0.12501250E+03</rscale>
<asrwt>0</asrwt>
<pdfrwt beam="1">  1        4 0.55343503E-01 0.12501250E+03</pdfrwt>
<pdfrwt beam="2">  1       -4 0.16709119E-02 0.12501250E+03</pdfrwt>
<totfact> 0.67498213E+03</totfact>
</mgrwt>
</event>
<event>
 5    1  0.3281209E-002  0.1250106E+03  0.7818608E-02  0.1235053E+00
         -4   -1    0    0    0  501 -0.00000000000E+00  0.00000000000E+00  0.89829575232E+02  0.89838552339E+02  0.12700000000E+01 0.  1.
          4   -1    0    0  501    0  0.00000000000E+00 -0.00000000000E+00 -0.43472045184E+02  0.43490592229E+02  0.12700000000E+01 0.  1.
         25    2    1    2    0    0  0.00000000000E+00  0.00000000000E+00  0.46357530049E+02  0.13332914457E+03  0.12501056035E+03 0.  0.
    9000005    1    3    3    0    0  0.25112804455E+02  0.11293289402E+02 -0.36659135722E+02  0.45859389060E+02  0.10000000000E+01 0.  0.
    9000005    1    3    3    0    0 -0.25112804455E+02 -0.11293289402E+02  0.83016665770E+02  0.87469755509E+02  0.10000000000E+01 0.  0.
<mgrwt>
<rscale>  0 0.12501056E+03</rscale>
<asrwt>0</asrwt>
<pdfrwt beam="2">  1        4 0.66901242E-02 0.12501056E+03</pdfrwt>
<pdfrwt beam="1">  1       -4 0.13822052E-01 0.12501056E+03</pdfrwt>
<totfact> 0.10270963E+04</totfact>
</mgrwt>
</event>
<event>
 5    1  0.3281209E-002  0.1250037E+03  0.7818608E-02  0.1235063E+00
          4   -1    0    0  501    0  0.00000000000E+00  0.00000000000E+00  0.25085697142E+02  0.25117824370E+02  0.12700000000E+01 0. -1.
         -4   -1    0    0    0  501 -0.00000000000E+00 -0.00000000000E+00 -0.15559118545E+03  0.15559636849E+03  0.12700000000E+01 0. -1.
         25    2    1    2    0    0  0.00000000000E+00  0.00000000000E+00 -0.13050548830E+03  0.18071419286E+03  0.12500374804E+03 0.  0.
    9000005    1    3    3    0    0  0.23554857425E+02 -0.29955058812E+02 -0.13685863503E+03  0.14206837381E+03  0.10000000000E+01 0.  0.
    9000005    1    3    3    0    0 -0.23554857425E+02  0.29955058812E+02  0.63531467227E+01  0.38645819050E+02  0.10000000000E+01 0.  0.
<mgrwt>
<rscale>  0 0.12500375E+03</rscale>
<asrwt>0</asrwt>
<pdfrwt beam="1">  1        4 0.38622081E-02 0.12500375E+03</pdfrwt>
<pdfrwt beam="2">  1       -4 0.23939975E-01 0.12500375E+03</pdfrwt>
<totfact> 0.93480749E+03</totfact>
</mgrwt>
</event>
<event>
 5    1  0.3281209E-002  0.1250016E+03  0.7818608E-02  0.1235067E+00
          4   -1    0    0  501    0  0.00000000000E+00  0.00000000000E+00  0.19304187806E+02  0.19345918610E+02  0.12700000000E+01 0. -1.
         -4   -1    0    0    0  501 -0.00000000000E+00 -0.00000000000E+00 -0.20209555408E+03  0.20209954448E+03  0.12700000000E+01 0. -1.
         25    2    1    2    0    0  0.00000000000E+00  0.00000000000E+00 -0.18279136627E+03  0.22144546309E+03  0.12500163814E+03 0.  0.
    9000005    1    3    3    0    0 -0.76223426666E+01 -0.37960710384E+02 -0.44955864385E+01  0.38991357222E+02  0.10000000000E+01 0.  0.
    9000005    1    3    3    0    0  0.76223426666E+01  0.37960710384E+02 -0.17829577984E+03  0.18245410587E+03  0.10000000000E+01 0.  0.
<mgrwt>
<rscale>  0 0.12500164E+03</rscale>
<asrwt>0</asrwt>
<pdfrwt beam="1">  1        4 0.29733922E-02 0.12500164E+03</pdfrwt>
<pdfrwt beam="2">  1       -4 0.31095139E-01 0.12500164E+03</pdfrwt>
<totfact> 0.86636971E+03</totfact>
</mgrwt>
</event>
<event>
 5    1  0.3281209E-002  0.1249998E+03  0.7818608E-02  0.1235070E+00
          4   -1    0    0  501    0  0.00000000000E+00  0.00000000000E+00  0.32734022557E+02  0.32758649739E+02  0.12700000000E+01 0. -1.
         -4   -1    0    0    0  501 -0.00000000000E+00 -0.00000000000E+00 -0.11925976669E+03  0.11926652863E+03  0.12700000000E+01 0. -1.
         25    2    1    2    0    0  0.00000000000E+00  0.00000000000E+00 -0.86525744136E+02  0.15202517837E+03  0.12499980184E+03 0.  0.
    9000005    1    3    3    0    0 -0.25965299999E+02 -0.55944537608E+02 -0.31025090710E+02  0.69047406510E+02  0.10000000000E+01 0.  0.
    9000005    1    3    3    0    0  0.25965299999E+02  0.55944537608E+02 -0.55500653426E+02  0.82977771860E+02  0.10000000000E+01 0.  0.
<mgrwt>
<rscale>  0 0.12499980E+03</rscale>
<asrwt>0</asrwt>
<pdfrwt beam="1">  1        4 0.50384181E-02 0.12499980E+03</pdfrwt>
<pdfrwt beam="2">  1       -4 0.18350071E-01 0.12499980E+03</pdfrwt>
<totfact> 0.98901972E+03</totfact>
</mgrwt>
</event>
<event>
 5    1  0.3281209E-002  0.1249989E+03  0.7818608E-02  0.1235071E+00
         -4   -1    0    0    0  501 -0.00000000000E+00  0.00000000000E+00  0.10500564980E+02  0.10577086787E+02  0.12700000000E+01 0. -1.
          4   -1    0    0  501    0  0.00000000000E+00 -0.00000000000E+00 -0.37056895864E+03  0.37057113488E+03  0.12700000000E+01 0. -1.
         25    2    1    2    0    0  0.00000000000E+00  0.00000000000E+00 -0.36006839366E+03  0.38114822167E+03  0.12499887507E+03 0.  0.
    9000005    1    3    3    0    0 -0.61409179746E+02  0.51517205483E+01 -0.14841161962E+03  0.16070045557E+03  0.10000000000E+01 0.  0.
    9000005    1    3    3    0    0  0.61409179746E+02 -0.51517205483E+01 -0.21165677404E+03  0.22044776610E+03  0.10000000000E+01 0.  0.
<mgrwt>
<rscale>  0 0.12499888E+03</rscale>
<asrwt>0</asrwt>
<pdfrwt beam="2">  1        4 0.57016653E-01 0.12499888E+03</pdfrwt>
<pdfrwt beam="1">  1       -4 0.16215255E-02 0.12499888E+03</pdfrwt>
<totfact> 0.66430185E+03</totfact>
</mgrwt>
</event>
<event>
 5    1  0.3281209E-002  0.1249992E+03  0.7818608E-02  0.1235071E+00
          4   -1    0    0  501    0  0.00000000000E+00  0.00000000000E+00  0.11067492066E+03  0.11068220708E+03  0.12700000000E+01 0.  1.
         -4   -1    0    0    0  501 -0.00000000000E+00 -0.00000000000E+00 -0.35274454678E+02  0.35297309427E+02  0.12700000000E+01 0.  1.
         25    2    1    2    0    0  0.00000000000E+00  0.00000000000E+00  0.75400465983E+02  0.14597951650E+03  0.12499915587E+03 0.  0.
    9000005    1    3    3    0    0  0.98348726935E+01 -0.37245185997E+02  0.95165619142E+02  0.10267143550E+03  0.10000000000E+01 0.  0.
    9000005    1    3    3    0    0 -0.98348726935E+01  0.37245185997E+02 -0.19765153159E+02  0.43308081004E+02  0.10000000000E+01 0.  0.
<mgrwt>
<rscale>  0 0.12499916E+03</rscale>
<asrwt>0</asrwt>
<pdfrwt beam="1">  1        4 0.17029229E-01 0.12499916E+03</pdfrwt>
<pdfrwt beam="2">  1       -4 0.54291577E-02 0.12499916E+03</pdfrwt>
<totfact> 0.10011315E+04</totfact>
</mgrwt>
</event>
<event>
 5    1  0.3281209E-002  0.1250030E+03  0.7818608E-02  0.1235065E+00
          4   -1    0    0  501    0  0.00000000000E+00  0.00000000000E+00  0.36682137517E+02  0.36704115748E+02  0.12700000000E+01 0.  1.
         -4   -1    0    0    0  501 -0.00000000000E+00 -0.00000000000E+00 -0.10643659016E+03  0.10644416670E+03  0.12700000000E+01 0.  1.
         25    2    1    2    0    0  0.00000000000E+00  0.00000000000E+00 -0.69754452642E+02  0.14314828245E+03  0.12500298838E+03 0.  0.
    9000005    1    3    3    0    0 -0.32690777108E+02 -0.58341586346E+01 -0.95502682319E+02  0.10111620367E+03  0.10000000000E+01 0.  0.
    9000005    1    3    3    0    0  0.32690777108E+02  0.58341586346E+01  0.25748229677E+02  0.42032078778E+02  0.10000000000E+01 0.  0.
<mgrwt>
<rscale>  0 0.12500299E+03</rscale>
<asrwt>0</asrwt>
<pdfrwt beam="1">  1        4 0.56456793E-02 0.12500299E+03</pdfrwt>
<pdfrwt beam="2">  1       -4 0.16377133E-01 0.12500299E+03</pdfrwt>
<totfact> 0.10068070E+04</totfact>
</mgrwt>
</event>
<event>
 5    1  0.3281209E-002  0.1249980E+03  0.7818608E-02  0.1235072E+00
         -4   -1    0    0    0  501 -0.00000000000E+00  0.00000000000E+00  0.50000486093E+03  0.50000647381E+03  0.12700000000E+01 0.  1.
          4   -1    0    0  501    0  0.00000000000E+00 -0.00000000000E+00 -0.77589208281E+01  0.78621722454E+01  0.12700000000E+01 0.  1.
         25    2    1    2    0    0  0.00000000000E+00  0.00000000000E+00  0.49224594010E+03  0.50786864606E+03  0.12499798439E+03 0.  0.
    9000005    1    3    3    0    0  0.10221494431E+02  0.58461501588E+02  0.16661880350E+03  0.17687580896E+03  0.10000000000E+01 0.  0.
    9000005    1    3    3    0    0 -0.10221494431E+02 -0.58461501588E+02  0.32562713660E+03  0.33099283710E+03  0.10000000000E+01 0.  0.
<mgrwt>
<rscale>  0 0.12499798E+03</rscale>
<asrwt>0</asrwt>
<pdfrwt beam="2">  1        4 0.12017463E-02 0.12499798E+03</pdfrwt>
<pdfrwt beam="1">  1       -4 0.76931914E-01 0.12499798E+03</pdfrwt>
<totfact> 0.55261420E+03</totfact>
</mgrwt>
</event>
<event>
 5    1  0.3281209E-002  0.1249775E+03  0.7818608E-02  0.1235104E+00
         -4   -1    0    0    0  501 -0.00000000000E+00  0.00000000000E+00  0.18004553350E+03  0.18005001259E+03  0.12700000000E+01 0.  1.
          4   -1    0    0  501    0  0.00000000000E+00 -0.00000000000E+00 -0.21664737586E+02  0.21701929745E+02  0.12700000000E+01 0.  1.
         25    2    1    2    0    0  0.00000000000E+00  0.00000000000E+00  0.15838079591E+03  0.20175194233E+03  0.12497747685E+03 0.  0.
    9000005    1    3    3    0    0 -0.33879577906E+02  0.50736836460E+02  0.57424778338E+02  0.83789364123E+02  0.10000000000E+01 0.  0.
    9000005    1    3    3    0    0  0.33879577906E+02 -0.50736836460E+02  0.10095601757E+03  0.11796257821E+03  0.10000000000E+01 0.  0.
<mgrwt>
<rscale>  0 0.12497748E+03</rscale>
<asrwt>0</asrwt>
<pdfrwt beam="2">  1        4 0.33362420E-02 0.12497748E+03</pdfrwt>
<pdfrwt beam="1">  1       -4 0.27702518E-01 0.12497748E+03</pdfrwt>
<totfact> 0.89886154E+03</totfact>
</mgrwt>
</event>
<event>
 5    1  0.3281209E-002  0.1250016E+03  0.7818608E-02  0.1235067E+00
         -4   -1    0    0    0  501 -0.00000000000E+00  0.00000000000E+00  0.78104294615E+03  0.78104397867E+03  0.12700000000E+01 0.  1.
          4   -1    0    0  501    0  0.00000000000E+00 -0.00000000000E+00 -0.49197777884E+01  0.50810543677E+01  0.12700000000E+01 0.  1.
         25    2    1    2    0    0  0.00000000000E+00  0.00000000000E+00  0.77612316836E+03  0.78612503304E+03  0.12500158045E+03 0.  0.
    9000005    1    3    3    0    0  0.83367182316E+01  0.45943590876E+02  0.64926268181E+03  0.65094035395E+03  0.10000000000E+01 0.  0.
    9000005    1    3    3    0    0 -0.83367182316E+01 -0.45943590876E+02  0.12686048655E+03  0.13518467909E+03  0.10000000000E+01 0.  0.
<mgrwt>
<rscale>  0 0.12500158E+03</rscale>
<asrwt>0</asrwt>
<pdfrwt beam="2">  1        4 0.76937480E-03 0.12500158E+03</pdfrwt>
<pdfrwt beam="1">  1       -4 0.12017285E+00 0.12500158E+03</pdfrwt>
<totfact> 0.38890382E+03</totfact>
</mgrwt>
</event>
<event>
 5    1  0.3281209E-002  0.1249942E+03  0.7818608E-02  0.1235078E+00
          4   -1    0    0  501    0  0.00000000000E+00  0.00000000000E+00  0.24349967418E+01  0.27462900671E+01  0.12700000000E+01 0.  1.
         -4   -1    0    0    0  501 -0.00000000000E+00 -0.00000000000E+00 -0.15073780030E+04  0.15073785380E+04  0.12700000000E+01 0.  1.
         25    2    1    2    0    0  0.00000000000E+00  0.00000000000E+00 -0.15049430062E+04  0.15101248280E+04  0.12499417692E+03 0.  0.
    9000005    1    3    3    0    0 -0.59071415562E+02  0.20382358436E+02 -0.75386973973E+03  0.75645585275E+03  0.10000000000E+01 0.  0.
    9000005    1    3    3    0    0  0.59071415562E+02 -0.20382358436E+02 -0.75107326650E+03  0.75366897529E+03  0.10000000000E+01 0.  0.
<mgrwt>
<rscale>  0 0.12499418E+03</rscale>
<asrwt>0</asrwt>
<pdfrwt beam="1">  1        4 0.39860288E-03 0.12499418E+03</pdfrwt>
<pdfrwt beam="2">  1       -4 0.23192759E+00 0.12499418E+03</pdfrwt>
<totfact> 0.17734584E+03</totfact>
</mgrwt>
</event>
<event>
 5    1  0.3281209E-002  0.1249969E+03  0.7818608E-02  0.1235074E+00
         -4   -1    0    0    0  501 -0.00000000000E+00  0.00000000000E+00  0.20996294655E+03  0.20996678743E+03  0.12700000000E+01 0.  1.
          4   -1    0    0  501    0  0.00000000000E+00 -0.00000000000E+00 -0.18577865588E+02  0.18621224175E+02  0.12700000000E+01 0.  1.
         25    2    1    2    0    0  0.00000000000E+00  0.00000000000E+00  0.19138508096E+03  0.22858801161E+03  0.12499691930E+03 0.  0.
    9000005    1    3    3    0    0  0.76105430838E+01  0.14012942005E+02  0.20618856361E+03  0.20680668914E+03  0.10000000000E+01 0.  0.
    9000005    1    3    3    0    0 -0.76105430838E+01 -0.14012942005E+02 -0.14803482650E+02  0.21781322463E+02  0.10000000000E+01 0.  0.
<mgrwt>
<rscale>  0 0.12499692E+03</rscale>
<asrwt>0</asrwt>
<pdfrwt beam="2">  1        4 0.28617639E-02 0.12499692E+03</pdfrwt>
<pdfrwt beam="1">  1       -4 0.32305622E-01 0.12499692E+03</pdfrwt>
<totfact> 0.85532761E+03</totfact>
</mgrwt>
</event>
<event>
 5    1  0.3281209E-002  0.1249993E+03  0.7818608E-02  0.1235070E+00
          4   -1    0    0  501    0  0.00000000000E+00  0.00000000000E+00  0.43908396754E+02  0.43926759561E+02  0.12700000000E+01 0.  1.
         -4   -1    0    0    0  501 -0.00000000000E+00 -0.00000000000E+00 -0.88921199793E+02  0.88930268597E+02  0.12700000000E+01 0.  1.
         25    2    1    2    0    0  0.00000000000E+00  0.00000000000E+00 -0.45012803040E+02  0.13285702816E+03  0.12499934997E+03 0.  0.
    9000005    1    3    3    0    0 -0.60217548451E+02 -0.96464693301E+01 -0.37001975746E+02  0.71339706483E+02  0.10000000000E+01 0.  0.
    9000005    1    3    3    0    0  0.60217548451E+02  0.96464693301E+01 -0.80108272939E+01  0.61517321674E+02  0.10000000000E+01 0.  0.
<mgrwt>
<rscale>  0 0.12499935E+03</rscale>
<asrwt>0</asrwt>
<pdfrwt beam="1">  1        4 0.67572481E-02 0.12499935E+03</pdfrwt>
<pdfrwt beam="2">  1       -4 0.13682295E-01 0.12499935E+03</pdfrwt>
<totfact> 0.10283590E+04</totfact>
</mgrwt>
</event>
<event>
 5    1  0.3281209E-002  0.1250011E+03  0.7818608E-02  0.1235067E+00
          4   -1    0    0  501    0  0.00000000000E+00  0.00000000000E+00  0.24880801198E+03  0.24881125321E+03  0.12700000000E+01 0. -1.
         -4   -1    0    0    0  501 -0.00000000000E+00 -0.00000000000E+00 -0.15671112690E+02  0.15722489400E+02  0.12700000000E+01 0. -1.
         25    2    1    2    0    0  0.00000000000E+00  0.00000000000E+00  0.23313689929E+03  0.26453374261E+03  0.12500114867E+03 0.  0.
    9000005    1    3    3    0    0  0.61991415389E+01  0.62182293311E+02  0.11550014070E+03  0.13132535726E+03  0.10000000000E+01 0.  0.
    9000005    1    3    3    0    0 -0.61991415389E+01 -0.62182293311E+02  0.11763675858E+03  0.13320838535E+03  0.10000000000E+01 0.  0.
<mgrwt>
<rscale>  0 0.12500115E+03</rscale>
<asrwt>0</asrwt>
<pdfrwt beam="1">  1        4 0.38282352E-01 0.12500115E+03</pdfrwt>
<pdfrwt beam="2">  1       -4 0.24151421E-02 0.12500115E+03</pdfrwt>
<totfact> 0.80271946E+03</totfact>
</mgrwt>
</event>
<event>
 5    1  0.3281209E-002  0.1249963E+03  0.7818608E-02  0.1235075E+00
          4   -1    0    0  501    0  0.00000000000E+00  0.00000000000E+00  0.10111682645E+04  0.10111690621E+04  0.12700000000E+01 0.  1.
         -4   -1    0    0    0  501 -0.00000000000E+00 -0.00000000000E+00 -0.37576710010E+01  0.39664834995E+01  0.12700000000E+01 0.  1.
         25    2    1    2    0    0  0.00000000000E+00  0.00000000000E+00  0.10074105935E+04  0.10151355456E+04  0.12499628766E+03 0.  0.
    9000005    1    3    3    0    0  0.28384838637E+01  0.58010210128E+02  0.69098533792E+03  0.69342265516E+03  0.10000000000E+01 0.  0.
    9000005    1    3    3    0    0 -0.28384838637E+01 -0.58010210128E+02  0.31642525563E+03  0.32171289043E+03  0.10000000000E+01 0.  0.
<mgrwt>
<rscale>  0 0.12499629E+03</rscale>
<asrwt>0</asrwt>
<pdfrwt beam="1">  1        4 0.15558051E+00 0.12499629E+03</pdfrwt>
<pdfrwt beam="2">  1       -4 0.59422695E-03 0.12499629E+03</pdfrwt>
<totfact> 0.30111225E+03</totfact>
</mgrwt>
</event>
<event>
 5    1  0.3281209E-002  0.1250029E+03  0.7818608E-02  0.1235065E+00
         -4   -1    0    0    0  501 -0.00000000000E+00  0.00000000000E+00  0.11209495988E+02  0.11281210055E+02  0.12700000000E+01 0. -1.
          4   -1    0    0  501    0  0.00000000000E+00 -0.00000000000E+00 -0.34730874441E+03  0.34731106640E+03  0.12700000000E+01 0. -1.
         25    2    1    2    0    0  0.00000000000E+00  0.00000000000E+00 -0.33609924842E+03  0.35859227645E+03  0.12500286374E+03 0.  0.
    9000005    1    3    3    0    0 -0.30340883790E+02  0.25005061226E+02 -0.30739763589E+03  0.30990341861E+03  0.10000000000E+01 0.  0.
    9000005    1    3    3    0    0  0.30340883790E+02 -0.25005061226E+02 -0.28701612529E+02  0.48688857841E+02  0.10000000000E+01 0.  0.
<mgrwt>
<rscale>  0 0.12500286E+03</rscale>
<asrwt>0</asrwt>
<pdfrwt beam="2">  1        4 0.53437801E-01 0.12500286E+03</pdfrwt>
<pdfrwt beam="1">  1       -4 0.17302332E-02 0.12500286E+03</pdfrwt>
<totfact> 0.68785176E+03</totfact>
</mgrwt>
</event>
<event>
 5    1  0.3281209E-002  0.1250139E+03  0.7818608E-02  0.1235048E+00
         -4   -1    0    0    0  501 -0.00000000000E+00  0.00000000000E+00  0.41464369873E+02  0.41483814543E+02  0.12700000000E+01 0. -1.
          4   -1    0    0  501    0  0.00000000000E+00 -0.00000000000E+00 -0.94182517520E+02  0.94191079760E+02  0.12700000000E+01 0. -1.
         25    2    1    2    0    0  0.00000000000E+00  0.00000000000E+00 -0.52718147646E+02  0.13567489430E+03  0.12501389464E+03 0.  0.
    9000005    1    3    3    0    0 -0.24664767695E+02 -0.29508812397E+02 -0.79824851485E+02  0.88612232164E+02  0.10000000000E+01 0.  0.
    9000005    1    3    3    0    0  0.24664767695E+02  0.29508812397E+02  0.27106703839E+02  0.47062662138E+02  0.10000000000E+01 0.  0.
<mgrwt>
<rscale>  0 0.12501389E+03</rscale>
<asrwt>0</asrwt>
<pdfrwt beam="2">  1        4 0.14491772E-01 0.12501389E+03</pdfrwt>
<pdfrwt beam="1">  1       -4 0.63812882E-02 0.12501389E+03</pdfrwt>
<totfact> 0.10220663E+04</totfact>
</mgrwt>
</event>
<event>
 5    1  0.3281209E-002  0.1250004E+03  0.7818608E-02  0.1235069E+00
          4   -1    0    0  501    0  0.00000000000E+00  0.00000000000E+00  0.60994032995E+02  0.61007253348E+02  0.12700000000E+01 0. -1.
         -4   -1    0    0    0  501 -0.00000000000E+00 -0.00000000000E+00 -0.64017134927E+02  0.64029731097E+02  0.12700000000E+01 0. -1.
         25    2    1    2    0    0  0.00000000000E+00  0.00000000000E+00 -0.30231019323E+01  0.12503698444E+03  0.12500043333E+03 0.  0.
    9000005    1    3    3    0    0  0.60041400190E+02  0.36517971036E+01  0.15433642296E+02  0.62108797069E+02  0.10000000000E+01 0.  0.
    9000005    1    3    3    0    0 -0.60041400190E+02 -0.36517971036E+01 -0.18456744229E+02  0.62928187375E+02  0.10000000000E+01 0.  0.
<mgrwt>
<rscale>  0 0.12500043E+03</rscale>
<asrwt>0</asrwt>
<pdfrwt beam="1">  1        4 0.93856833E-02 0.12500043E+03</pdfrwt>
<pdfrwt beam="2">  1       -4 0.98507759E-02 0.12500043E+03</pdfrwt>
<totfact> 0.10451957E+04</totfact>
</mgrwt>
</event>
<event>
 5    1  0.3281209E-002  0.1250087E+03  0.7818608E-02  0.1235056E+00
         -4   -1    0    0    0  501 -0.00000000000E+00  0.00000000000E+00  0.13651111308E+03  0.13651702053E+03  0.12700000000E+01 0. -1.
          4   -1    0    0  501    0  0.00000000000E+00 -0.00000000000E+00 -0.28598243169E+02  0.28626428564E+02  0.12700000000E+01 0. -1.
         25    2    1    2    0    0  0.00000000000E+00  0.00000000000E+00  0.10791286992E+03  0.16514344910E+03  0.12500868484E+03 0.  0.
    9000005    1    3    3    0    0  0.37310010775E+02  0.47880424919E+02  0.73605150739E+02  0.95411163968E+02  0.10000000000E+01 0.  0.
    9000005    1    3    3    0    0 -0.37310010775E+02 -0.47880424919E+02  0.34307719177E+02  0.69732285130E+02  0.10000000000E+01 0.  0.
<mgrwt>
<rscale>  0 0.12500868E+03</rscale>
<asrwt>0</asrwt>
<pdfrwt beam="2">  1        4 0.44023523E-02 0.12500868E+03</pdfrwt>
<pdfrwt beam="1">  1       -4 0.21004332E-01 0.12500868E+03</pdfrwt>
<totfact> 0.96341435E+03</totfact>
</mgrwt>
</event>
<event>
 5    1  0.3281209E-002  0.1250018E+03  0.7818608E-02  0.1235066E+00
         -4   -1    0    0    0  501 -0.00000000000E+00  0.00000000000E+00  0.29748670903E+03  0.29748941990E+03  0.12700000000E+01 0. -1.
          4   -1    0    0  501    0  0.00000000000E+00 -0.00000000000E+00 -0.13097734723E+02  0.13159162393E+02  0.12700000000E+01 0. -1.
         25    2    1    2    0    0  0.00000000000E+00  0.00000000000E+00  0.28438897431E+03  0.31064858229E+03  0.12500181187E+03 0.  0.
    9000005    1    3    3    0    0  0.56503223945E+02 -0.26275077015E+02  0.15394830136E+03  0.16608453715E+03  0.10000000000E+01 0.  0.
    9000005    1    3    3    0    0 -0.56503223945E+02  0.26275077015E+02  0.13044067295E+03  0.14456404514E+03  0.10000000000E+01 0.  0.
<mgrwt>
<rscale>  0 0.12500181E+03</rscale>
<asrwt>0</asrwt>
<pdfrwt beam="2">  1        4 0.20199699E-02 0.12500181E+03</pdfrwt>
<pdfrwt beam="1">  1       -4 0.45772119E-01 0.12500181E+03</pdfrwt>
<totfact> 0.74279237E+03</totfact>
</mgrwt>
</event>
<event>
 5    1  0.3281209E-002  0.1249985E+03  0.7818608E-02  0.1235072E+00
         -4   -1    0    0    0  501 -0.00000000000E+00  0.00000000000E+00  0.56743739690E+01  0.58147588032E+01  0.12700000000E+01 0.  1.
          4   -1    0    0  501    0  0.00000000000E+00 -0.00000000000E+00 -0.67983362930E+03  0.67983481554E+03  0.12700000000E+01 0.  1.
         25    2    1    2    0    0  0.00000000000E+00  0.00000000000E+00 -0.67415925533E+03  0.68564957435E+03  0.12499854901E+03 0.  0.
    9000005    1    3    3    0    0 -0.57161137980E+02 -0.10630460235E+02 -0.21142562370E+03  0.21927653029E+03  0.10000000000E+01 0.  0.
    9000005    1    3    3    0    0  0.57161137980E+02  0.10630460235E+02 -0.46273363163E+03  0.46637304406E+03  0.10000000000E+01 0.  0.
<mgrwt>
<rscale>  0 0.12499855E+03</rscale>
<asrwt>0</asrwt>
<pdfrwt beam="2">  1        4 0.10460062E+00 0.12499855E+03</pdfrwt>
<pdfrwt beam="1">  1       -4 0.88387123E-03 0.12499855E+03</pdfrwt>
<totfact> 0.43856551E+03</totfact>
</mgrwt>
</event>
<event>
 5    1  0.3281209E-002  0.1249984E+03  0.7818608E-02  0.1235072E+00
          4   -1    0    0  501    0  0.00000000000E+00  0.00000000000E+00  0.84669008666E+01  0.85616184384E+01  0.12700000000E+01 0. -1.
         -4   -1    0    0    0  501 -0.00000000000E+00 -0.00000000000E+00 -0.45868209426E+03  0.45868385245E+03  0.12700000000E+01 0. -1.
         25    2    1    2    0    0  0.00000000000E+00  0.00000000000E+00 -0.45021519339E+03  0.46724547089E+03  0.12499843879E+03 0.  0.
    9000005    1    3    3    0    0 -0.54224251789E+02  0.42677777073E+01 -0.34011865327E+03  0.34444184082E+03  0.10000000000E+01 0.  0.
    9000005    1    3    3    0    0  0.54224251789E+02 -0.42677777073E+01 -0.11009654012E+03  0.12280363006E+03  0.10000000000E+01 0.  0.
<mgrwt>
<rscale>  0 0.12499844E+03</rscale>
<asrwt>0</asrwt>
<pdfrwt beam="1">  1        4 0.13100217E-02 0.12499844E+03</pdfrwt>
<pdfrwt beam="2">  1       -4 0.70573878E-01 0.12499844E+03</pdfrwt>
<totfact> 0.58500419E+03</totfact>
</mgrwt>
</event>
<event>
 5    1  0.3281209E-002  0.1250017E+03  0.7818608E-02  0.1235067E+00
          4   -1    0    0  501    0  0.00000000000E+00  0.00000000000E+00  0.57541158207E+02  0.57555171686E+02  0.12700000000E+01 0. -1.
         -4   -1    0    0    0  501 -0.00000000000E+00 -0.00000000000E+00 -0.67859846423E+02  0.67871729436E+02  0.12700000000E+01 0. -1.
         25    2    1    2    0    0  0.00000000000E+00  0.00000000000E+00 -0.10318688216E+02  0.12542690112E+03  0.12500172878E+03 0.  0.
    9000005    1    3    3    0    0  0.58610272296E+02  0.17019580895E+02 -0.18641111655E+02  0.63822575913E+02  0.10000000000E+01 0.  0.
    9000005    1    3    3    0    0 -0.58610272296E+02 -0.17019580895E+02  0.83224234386E+01  0.61604325208E+02  0.10000000000E+01 0.  0.
<mgrwt>
<rscale>  0 0.12500173E+03</rscale>
<asrwt>0</asrwt>
<pdfrwt beam="1">  1        4 0.88544780E-02 0.12500173E+03</pdfrwt>
<pdfrwt beam="2">  1       -4 0.10441968E-01 0.12500173E+03</pdfrwt>
<totfact> 0.10443164E+04</totfact>
</mgrwt>
</event>
<event>
 5    1  0.3281209E-002  0.1250004E+03  0.7818608E-02  0.1235069E+00
         -4   -1    0    0    0  501 -0.00000000000E+00  0.00000000000E+00  0.17587740026E+02  0.17633533373E+02  0.12700000000E+01 0.  1.
          4   -1    0    0  501    0  0.00000000000E+00 -0.00000000000E+00 -0.22176563982E+03  0.22176927629E+03  0.12700000000E+01 0.  1.
         25    2    1    2    0    0  0.00000000000E+00  0.00000000000E+00 -0.20417789980E+03  0.23940280966E+03  0.12500036203E+03 0.  0.
    9000005    1    3    3    0    0 -0.41098475655E+02  0.13852798670E+02 -0.15919343094E+02  0.46210498988E+02  0.10000000000E+01 0.  0.
    9000005    1    3    3    0    0  0.41098475655E+02 -0.13852798670E+02 -0.18825855670E+03  0.19319231067E+03  0.10000000000E+01 0.  0.
<mgrwt>
<rscale>  0 0.12500036E+03</rscale>
<asrwt>0</asrwt>
<pdfrwt beam="2">  1        4 0.34121591E-01 0.12500036E+03</pdfrwt>
<pdfrwt beam="1">  1       -4 0.27096086E-02 0.12500036E+03</pdfrwt>
<totfact> 0.83885713E+03</totfact>
</mgrwt>
</event>
<event>
 5    1  0.3281209E-002  0.1249980E+03  0.7818608E-02  0.1235072E+00
         -4   -1    0    0    0  501 -0.00000000000E+00  0.00000000000E+00  0.24917265074E+03  0.24917588723E+03  0.12700000000E+01 0.  1.
          4   -1    0    0  501    0  0.00000000000E+00 -0.00000000000E+00 -0.15647323186E+02  0.15698777751E+02  0.12700000000E+01 0.  1.
         25    2    1    2    0    0  0.00000000000E+00  0.00000000000E+00  0.23352532756E+03  0.26487466498E+03  0.12499803814E+03 0.  0.
    9000005    1    3    3    0    0 -0.33964629701E+02  0.52161408046E+02  0.10501802882E+03  0.12208273808E+03  0.10000000000E+01 0.  0.
    9000005    1    3    3    0    0  0.33964629701E+02 -0.52161408046E+02  0.12850729874E+03  0.14279192690E+03  0.10000000000E+01 0.  0.
<mgrwt>
<rscale>  0 0.12499804E+03</rscale>
<asrwt>0</asrwt>
<pdfrwt beam="2">  1        4 0.24114876E-02 0.12499804E+03</pdfrwt>
<pdfrwt beam="1">  1       -4 0.38338459E-01 0.12499804E+03</pdfrwt>
<totfact> 0.80230304E+03</totfact>
</mgrwt>
</event>
<event>
 5    1  0.3281209E-002  0.1250008E+03  0.7818608E-02  0.1235068E+00
         -4   -1    0    0    0  501 -0.00000000000E+00  0.00000000000E+00  0.17738587885E+02  0.17783992807E+02  0.12700000000E+01 0.  1.
          4   -1    0    0  501    0  0.00000000000E+00 -0.00000000000E+00 -0.21988621124E+03  0.21988987879E+03  0.12700000000E+01 0.  1.
         25    2    1    2    0    0  0.00000000000E+00  0.00000000000E+00 -0.20214762336E+03  0.23767387160E+03  0.12500083044E+03 0.  0.
    9000005    1    3    3    0    0 -0.40462230906E+02  0.16651748388E+02 -0.16236767860E+02  0.46680889932E+02  0.10000000000E+01 0.  0.
    9000005    1    3    3    0    0  0.40462230906E+02 -0.16651748388E+02 -0.18591085550E+03  0.19099298167E+03  0.10000000000E+01 0.  0.
<mgrwt>
<rscale>  0 0.12500083E+03</rscale>
<asrwt>0</asrwt>
<pdfrwt beam="2">  1        4 0.33832421E-01 0.12500083E+03</pdfrwt>
<pdfrwt beam="1">  1       -4 0.27327885E-02 0.12500083E+03</pdfrwt>
<totfact> 0.84143470E+03</totfact>
</mgrwt>
</event>
<event>
 5    1  0.3281209E-002  0.1250033E+03  0.7818608E-02  0.1235064E+00
          4   -1    0    0  501    0  0.00000000000E+00  0.00000000000E+00  0.16162984926E+03  0.16163483867E+03  0.12700000000E+01 0. -1.
         -4   -1    0    0    0  501 -0.00000000000E+00 -0.00000000000E+00 -0.24147100220E+02  0.24180474541E+02  0.12700000000E+01 0. -1.
         25    2    1    2    0    0  0.00000000000E+00  0.00000000000E+00  0.13748274904E+03  0.18581531321E+03  0.12500329732E+03 0.  0.
    9000005    1    3    3    0    0  0.87542400413E+01  0.79870348702E+01  0.15995171136E+03  0.16039320251E+03  0.10000000000E+01 0.  0.
    9000005    1    3    3    0    0 -0.87542400413E+01 -0.79870348702E+01 -0.22468962320E+02  0.25422110700E+02  0.10000000000E+01 0.  0.
<mgrwt>
<rscale>  0 0.12500330E+03</rscale>
<asrwt>0</asrwt>
<pdfrwt beam="1">  1        4 0.24869082E-01 0.12500330E+03</pdfrwt>
<pdfrwt beam="2">  1       -4 0.37178896E-02 0.12500330E+03</pdfrwt>
<totfact> 0.92573737E+03</totfact>
</mgrwt>
</event>
<event>
 5    1  0.3281209E-002  0.1249958E+03  0.7818608E-02  0.1235076E+00
          4   -1    0    0  501    0  0.00000000000E+00  0.00000000000E+00  0.33632878299E+02  0.33656847782E+02  0.12700000000E+01 0. -1.
         -4   -1    0    0    0  501 -0.00000000000E+00 -0.00000000000E+00 -0.11606724674E+03  0.11607419466E+03  0.12700000000E+01 0. -1.
         25    2    1    2    0    0  0.00000000000E+00  0.00000000000E+00 -0.82434368442E+02  0.14973104244E+03  0.12499583981E+03 0.  0.
    9000005    1    3    3    0    0  0.23693123683E+02 -0.37480995248E+02 -0.93962378128E+02  0.10390436766E+03  0.10000000000E+01 0.  0.
    9000005    1    3    3    0    0 -0.23693123683E+02  0.37480995248E+02  0.11528009686E+02  0.45826674786E+02  0.10000000000E+01 0.  0.
<mgrwt>
<rscale>  0 0.12499584E+03</rscale>
<asrwt>0</asrwt>
<pdfrwt beam="1">  1        4 0.51766673E-02 0.12499584E+03</pdfrwt>
<pdfrwt beam="2">  1       -4 0.17858878E-01 0.12499584E+03</pdfrwt>
<totfact> 0.99366641E+03</totfact>
</mgrwt>
</event>
<event>
 5    1  0.3281209E-002  0.1249976E+03  0.7818608E-02  0.1235073E+00
          4   -1    0    0  501    0  0.00000000000E+00  0.00000000000E+00  0.18694954146E+02  0.18738041801E+02  0.12700000000E+01 0.  1.
         -4   -1    0    0    0  501 -0.00000000000E+00 -0.00000000000E+00 -0.20865327988E+03  0.20865714487E+03  0.12700000000E+01 0.  1.
         25    2    1    2    0    0  0.00000000000E+00  0.00000000000E+00 -0.18995832574E+03  0.22739518667E+03  0.12499762160E+03 0.  0.
    9000005    1    3    3    0    0  0.11639740148E+02 -0.13766390268E+02  0.13870567530E+02  0.22768172859E+02  0.10000000000E+01 0.  0.
    9000005    1    3    3    0    0 -0.11639740148E+02  0.13766390268E+02 -0.20382889327E+03  0.20462701381E+03  0.10000000000E+01 0.  0.
<mgrwt>
<rscale>  0 0.12499762E+03</rscale>
<asrwt>0</asrwt>
<pdfrwt beam="1">  1        4 0.28797587E-02 0.12499762E+03</pdfrwt>
<pdfrwt beam="2">  1       -4 0.32104115E-01 0.12499762E+03</pdfrwt>
<totfact> 0.85715730E+03</totfact>
</mgrwt>
</event>
<event>
 5    1  0.3281209E-002  0.1249785E+03  0.7818608E-02  0.1235103E+00
          4   -1    0    0  501    0  0.00000000000E+00  0.00000000000E+00  0.10064519787E+02  0.10144331350E+02  0.12700000000E+01 0. -1.
         -4   -1    0    0    0  501 -0.00000000000E+00 -0.00000000000E+00 -0.38637428441E+03  0.38637637163E+03  0.12700000000E+01 0. -1.
         25    2    1    2    0    0  0.00000000000E+00  0.00000000000E+00 -0.37630976462E+03  0.39652070298E+03  0.12497851392E+03 0.  0.
    9000005    1    3    3    0    0  0.18571768999E+02 -0.59155562570E+02 -0.16365792732E+03  0.17501202348E+03  0.10000000000E+01 0.  0.
    9000005    1    3    3    0    0 -0.18571768999E+02  0.59155562570E+02 -0.21265183730E+03  0.22150867950E+03  0.10000000000E+01 0.  0.
<mgrwt>
<rscale>  0 0.12497851E+03</rscale>
<asrwt>0</asrwt>
<pdfrwt beam="1">  1        4 0.15546879E-02 0.12497851E+03</pdfrwt>
<pdfrwt beam="2">  1       -4 0.59448486E-01 0.12497851E+03</pdfrwt>
<totfact> 0.64923395E+03</totfact>
</mgrwt>
</event>
<event>
 5    1  0.3281209E-002  0.1249985E+03  0.7818608E-02  0.1235072E+00
          4   -1    0    0  501    0  0.00000000000E+00  0.00000000000E+00  0.74823829451E+02  0.74834606658E+02  0.12700000000E+01 0.  1.
         -4   -1    0    0    0  501 -0.00000000000E+00 -0.00000000000E+00 -0.52182464738E+02  0.52197916876E+02  0.12700000000E+01 0.  1.
         25    2    1    2    0    0  0.00000000000E+00  0.00000000000E+00  0.22641364713E+02  0.12703252353E+03  0.12499852255E+03 0.  0.
    9000005    1    3    3    0    0 -0.58661468906E+02 -0.66508944794E+01  0.32141997360E+02  0.67227303425E+02  0.10000000000E+01 0.  0.
    9000005    1    3    3    0    0  0.58661468906E+02  0.66508944794E+01 -0.95006326470E+01  0.59805220109E+02  0.10000000000E+01 0.  0.
<mgrwt>
<rscale>  0 0.12499852E+03</rscale>
<asrwt>0</asrwt>
<pdfrwt beam="1">  1        4 0.11513376E-01 0.12499852E+03</pdfrwt>
<pdfrwt beam="2">  1       -4 0.80300892E-02 0.12499852E+03</pdfrwt>
<totfact> 0.10408786E+04</totfact>
</mgrwt>
</event>
<event>
 5    1  0.3281209E-002  0.1249984E+03  0.7818608E-02  0.1235072E+00
          4   -1    0    0  501    0  0.00000000000E+00  0.00000000000E+00  0.99909537181E+01  0.10071348281E+02  0.12700000000E+01 0.  1.
         -4   -1    0    0    0  501 -0.00000000000E+00 -0.00000000000E+00 -0.38932076215E+03  0.38932283357E+03  0.12700000000E+01 0.  1.
         25    2    1    2    0    0  0.00000000000E+00  0.00000000000E+00 -0.37932980843E+03  0.39939418185E+03  0.12499843572E+03 0.  0.
    9000005    1    3    3    0    0 -0.55986908708E+02  0.27014404530E+02 -0.16924558445E+03  0.18030357693E+03  0.10000000000E+01 0.  0.
    9000005    1    3    3    0    0  0.55986908708E+02 -0.27014404530E+02 -0.21008422399E+03  0.21909060493E+03  0.10000000000E+01 0.  0.
<mgrwt>
<rscale>  0 0.12499844E+03</rscale>
<asrwt>0</asrwt>
<pdfrwt beam="1">  1        4 0.15434136E-02 0.12499844E+03</pdfrwt>
<pdfrwt beam="2">  1       -4 0.59901834E-01 0.12499844E+03</pdfrwt>
<totfact> 0.64613990E+03</totfact>
</mgrwt>
</event>
<event>
 5    1  0.3281209E-002  0.1249989E+03  0.7818608E-02  0.1235071E+00
          4   -1    0    0  501    0  0.00000000000E+00  0.00000000000E+00  0.29727532029E+02  0.29754647713E+02  0.12700000000E+01 0.  1.
         -4   -1    0    0    0  501 -0.00000000000E+00 -0.00000000000E+00 -0.13130941752E+03  0.13131555897E+03  0.12700000000E+01 0.  1.
         25    2    1    2    0    0  0.00000000000E+00  0.00000000000E+00 -0.10158188549E+03  0.16107020669E+03  0.12499892809E+03 0.  0.
    9000005    1    3    3    0    0  0.26309779485E+02  0.53132230710E+02 -0.25345479299E+02  0.64487454265E+02  0.10000000000E+01 0.  0.
    9000005    1    3    3    0    0 -0.26309779485E+02 -0.53132230710E+02 -0.76236406188E+02  0.96582752421E+02  0.10000000000E+01 0.  0.
<mgrwt>
<rscale>  0 0.12499893E+03</rscale>
<asrwt>0</asrwt>
<pdfrwt beam="1">  1        4 0.45760248E-02 0.12499893E+03</pdfrwt>
<pdfrwt beam="2">  1       -4 0.20204007E-01 0.12499893E+03</pdfrwt>
<totfact> 0.97139194E+03</totfact>
</mgrwt>
</event>
<event>
 5    1  0.3281209E-002  0.1250004E+03  0.7818608E-02  0.1235069E+00
         -4   -1    0    0    0  501 -0.00000000000E+00  0.00000000000E+00  0.32314896946E+03  0.32315146505E+03  0.12700000000E+01 0.  1.
          4   -1    0    0  501    0  0.00000000000E+00 -0.00000000000E+00 -0.12052242993E+02  0.12118971126E+02  0.12700000000E+01 0.  1.
         25    2    1    2    0    0  0.00000000000E+00  0.00000000000E+00  0.31109672647E+03  0.33527043618E+03  0.12500036862E+03 0.  0.
    9000005    1    3    3    0    0  0.35241636437E+02 -0.14299662702E+02  0.22549688993E+02  0.44226030410E+02  0.10000000000E+01 0.  0.
    9000005    1    3    3    0    0 -0.35241636437E+02  0.14299662702E+02  0.28854703748E+03  0.29104440577E+03  0.10000000000E+01 0.  0.
<mgrwt>
<rscale>  0 0.12500037E+03</rscale>
<asrwt>0</asrwt>
<pdfrwt beam="2">  1        4 0.18595161E-02 0.12500037E+03</pdfrwt>
<pdfrwt beam="1">  1       -4 0.49720551E-01 0.12500037E+03</pdfrwt>
<totfact> 0.71375391E+03</totfact>
</mgrwt>
</event>
<event>
 5    1  0.3281209E-002  0.1250015E+03  0.7818608E-02  0.1235067E+00
         -4   -1    0    0    0  501 -0.00000000000E+00  0.00000000000E+00  0.26753770947E+03  0.26754072380E+03  0.12700000000E+01 0.  1.
          4   -1    0    0  501    0  0.00000000000E+00 -0.00000000000E+00 -0.14570387254E+02  0.14625631089E+02  0.12700000000E+01 0.  1.
         25    2    1    2    0    0  0.00000000000E+00  0.00000000000E+00  0.25296732222E+03  0.28216635489E+03  0.12500154287E+03 0.  0.
    9000005    1    3    3    0    0 -0.21192345415E+02  0.37841539269E+02  0.22804345317E+03  0.23213339728E+03  0.10000000000E+01 0.  0.
    9000005    1    3    3    0    0  0.21192345415E+02 -0.37841539269E+02  0.24923869045E+02  0.50032957604E+02  0.10000000000E+01 0.  0.
<mgrwt>
<rscale>  0 0.12500154E+03</rscale>
<asrwt>0</asrwt>
<pdfrwt beam="2">  1        4 0.22460795E-02 0.12500154E+03</pdfrwt>
<pdfrwt beam="1">  1       -4 0.41164128E-01 0.12500154E+03</pdfrwt>
<totfact> 0.77889065E+03</totfact>
</mgrwt>
</event>
<event>
 5    1  0.3281209E-002  0.1250125E+03  0.7818608E-02  0.1235050E+00
         -4   -1    0    0    0  501 -0.00000000000E+00  0.00000000000E+00  0.71752609397E+02  0.71763847830E+02  0.12700000000E+01 0. -1.
          4   -1    0    0  501    0  0.00000000000E+00 -0.00000000000E+00 -0.54428491862E+02  0.54443306534E+02  0.12700000000E+01 0. -1.
         25    2    1    2    0    0  0.00000000000E+00  0.00000000000E+00  0.17324117535E+02  0.12620715436E+03  0.12501248243E+03 0.  0.
    9000005    1    3    3    0    0  0.41939809255E+02  0.15464246569E+02 -0.35435334145E+02  0.57050446346E+02  0.10000000000E+01 0.  0.
    9000005    1    3    3    0    0 -0.41939809255E+02 -0.15464246569E+02  0.52759451680E+02  0.69156708018E+02  0.10000000000E+01 0.  0.
<mgrwt>
<rscale>  0 0.12501248E+03</rscale>
<asrwt>0</asrwt>
<pdfrwt beam="2">  1        4 0.83756182E-02 0.12501248E+03</pdfrwt>
<pdfrwt beam="1">  1       -4 0.11040867E-01 0.12501248E+03</pdfrwt>
<totfact> 0.10423486E+04</totfact>
</mgrwt>
</event>
<event>
 5    1  0.3281209E-002  0.1250016E+03  0.7818608E-02  0.1235067E+00
         -4   -1    0    0    0  501 -0.00000000000E+00  0.00000000000E+00  0.59966301170E+01  0.61296388768E+01  0.12700000000E+01 0. -1.
          4   -1    0    0  501    0  0.00000000000E+00 -0.00000000000E+00 -0.64414527337E+03  0.64414652534E+03  0.12700000000E+01 0. -1.
         25    2    1    2    0    0  0.00000000000E+00  0.00000000000E+00 -0.63814864325E+03  0.65027616422E+03  0.12500159543E+03 0.  0.
    9000005    1    3    3    0    0 -0.52515715339E+02 -0.36100902444E+01 -0.14386041745E+03  0.15319188235E+03  0.10000000000E+01 0.  0.
    9000005    1    3    3    0    0  0.52515715339E+02  0.36100902444E+01 -0.49428822581E+03  0.49708428187E+03  0.10000000000E+01 0.  0.
<mgrwt>
<rscale>  0 0.12500160E+03</rscale>
<asrwt>0</asrwt>
<pdfrwt beam="2">  1        4 0.99109546E-01 0.12500160E+03</pdfrwt>
<pdfrwt beam="1">  1       -4 0.93288674E-03 0.12500160E+03</pdfrwt>
<totfact> 0.45838647E+03</totfact>
</mgrwt>
</event>
<event>
 5    1  0.3281209E-002  0.1250050E+03  0.7818608E-02  0.1235062E+00
         -4   -1    0    0    0  501 -0.00000000000E+00  0.00000000000E+00  0.37773993561E+03  0.37774207054E+03  0.12700000000E+01 0. -1.
          4   -1    0    0  501    0  0.00000000000E+00 -0.00000000000E+00 -0.10300768220E+02  0.10378763217E+02  0.12700000000E+01 0. -1.
         25    2    1    2    0    0  0.00000000000E+00  0.00000000000E+00  0.36743916739E+03  0.38812083376E+03  0.12500495935E+03 0.  0.
    9000005    1    3    3    0    0 -0.40895059088E+02  0.12199937122E+02  0.41970109589E+02  0.59864300067E+02  0.10000000000E+01 0.  0.
    9000005    1    3    3    0    0  0.40895059088E+02 -0.12199937122E+02  0.32546905780E+03  0.32825653369E+03  0.10000000000E+01 0.  0.
<mgrwt>
<rscale>  0 0.12500496E+03</rscale>
<asrwt>0</asrwt>
<pdfrwt beam="2">  1        4 0.15908973E-02 0.12500496E+03</pdfrwt>
<pdfrwt beam="1">  1       -4 0.58120005E-01 0.12500496E+03</pdfrwt>
<totfact> 0.65717572E+03</totfact>
</mgrwt>
</event>
<event>
 5    1  0.3281209E-002  0.1249996E+03  0.7818608E-02  0.1235070E+00
         -4   -1    0    0    0  501 -0.00000000000E+00  0.00000000000E+00  0.60181241654E+03  0.60181375657E+03  0.12700000000E+01 0.  1.
          4   -1    0    0  501    0  0.00000000000E+00 -0.00000000000E+00 -0.64272853829E+01  0.65515568679E+01  0.12700000000E+01 0.  1.
         25    2    1    2    0    0  0.00000000000E+00  0.00000000000E+00  0.59538513116E+03  0.60836531344E+03  0.12499960078E+03 0.  0.
    9000005    1    3    3    0    0 -0.12947441429E+02  0.35562847173E+02  0.53971559867E+03  0.54104184661E+03  0.10000000000E+01 0.  0.
    9000005    1    3    3    0    0  0.12947441429E+02 -0.35562847173E+02  0.55669532489E+02  0.67323466830E+02  0.10000000000E+01 0.  0.
<mgrwt>
<rscale>  0 0.12499960E+03</rscale>
<asrwt>0</asrwt>
<pdfrwt beam="2">  1        4 0.99847572E-03 0.12499960E+03</pdfrwt>
<pdfrwt beam="1">  1       -4 0.92596174E-01 0.12499960E+03</pdfrwt>
<totfact> 0.48344218E+03</totfact>
</mgrwt>
</event>
<event>
 5    1  0.3281209E-002  0.1250089E+03  0.7818608E-02  0.1235055E+00
          4   -1    0    0  501    0  0.00000000000E+00  0.00000000000E+00  0.77925561321E+03  0.77925664811E+03  0.12700000000E+01 0. -1.
         -4   -1    0    0    0  501 -0.00000000000E+00 -0.00000000000E+00 -0.49320279861E+01  0.50929166551E+01  0.12700000000E+01 0. -1.
         25    2    1    2    0    0  0.00000000000E+00  0.00000000000E+00  0.77432358523E+03  0.78434956477E+03  0.12500890012E+03 0.  0.
    9000005    1    3    3    0    0 -0.58730065339E+02  0.18253832594E+02  0.31746754833E+03  0.32337140755E+03  0.10000000000E+01 0.  0.
    9000005    1    3    3    0    0  0.58730065339E+02 -0.18253832594E+02  0.45685603690E+03  0.46097815721E+03  0.10000000000E+01 0.  0.
<mgrwt>
<rscale>  0 0.12500890E+03</rscale>
<asrwt>0</asrwt>
<pdfrwt beam="1">  1        4 0.11989791E+00 0.12500890E+03</pdfrwt>
<pdfrwt beam="2">  1       -4 0.77122938E-03 0.12500890E+03</pdfrwt>
<totfact> 0.38965454E+03</totfact>
</mgrwt>
</event>
<event>
 5    1  0.3281209E-002  0.1249966E+03  0.7818608E-02  0.1235075E+00
         -4   -1    0    0    0  501 -0.00000000000E+00  0.00000000000E+00  0.17975060396E+02  0.18019869485E+02  0.12700000000E+01 0. -1.
          4   -1    0    0  501    0  0.00000000000E+00 -0.00000000000E+00 -0.21698601882E+03  0.21698973538E+03  0.12700000000E+01 0. -1.
         25    2    1    2    0    0  0.00000000000E+00  0.00000000000E+00 -0.19901095842E+03  0.23500960487E+03  0.12499661119E+03 0.  0.
    9000005    1    3    3    0    0  0.52193422574E+02 -0.33163009619E+02 -0.11643703337E+03  0.13184279012E+03  0.10000000000E+01 0.  0.
    9000005    1    3    3    0    0 -0.52193422574E+02  0.33163009619E+02 -0.82573925053E+02  0.10316681475E+03  0.10000000000E+01 0.  0.
<mgrwt>
<rscale>  0 0.12499661E+03</rscale>
<asrwt>0</asrwt>
<pdfrwt beam="2">  1        4 0.33386195E-01 0.12499661E+03</pdfrwt>
<pdfrwt beam="1">  1       -4 0.27691268E-02 0.12499661E+03</pdfrwt>
<totfact> 0.84552648E+03</totfact>
</mgrwt>
</event>
<event>
 5    1  0.3281209E-002  0.1250028E+03  0.7818608E-02  0.1235065E+00
          4   -1    0    0  501    0  0.00000000000E+00  0.00000000000E+00  0.21559270624E+02  0.21596644411E+02  0.12700000000E+01 0.  1.
         -4   -1    0    0    0  501 -0.00000000000E+00 -0.00000000000E+00 -0.18099821677E+03  0.18100267228E+03  0.12700000000E+01 0.  1.
         25    2    1    2    0    0  0.00000000000E+00  0.00000000000E+00 -0.15943894614E+03  0.20259931669E+03  0.12500282228E+03 0.  0.
    9000005    1    3    3    0    0  0.11181593101E+02 -0.55758899891E+02 -0.37725154667E+02  0.68251521858E+02  0.10000000000E+01 0.  0.
    9000005    1    3    3    0    0 -0.11181593101E+02  0.55758899891E+02 -0.12171379148E+03  0.13434779484E+03  0.10000000000E+01 0.  0.
<mgrwt>
<rscale>  0 0.12500282E+03</rscale>
<asrwt>0</asrwt>
<pdfrwt beam="1">  1        4 0.33200286E-02 0.12500282E+03</pdfrwt>
<pdfrwt beam="2">  1       -4 0.27849096E-01 0.12500282E+03</pdfrwt>
<totfact> 0.89693292E+03</totfact>
</mgrwt>
</event>
<event>
 5    1  0.3281209E-002  0.1249983E+03  0.7818608E-02  0.1235072E+00
          4   -1    0    0  501    0  0.00000000000E+00  0.00000000000E+00  0.11250543035E+03  0.11251259822E+03  0.12700000000E+01 0. -1.
         -4   -1    0    0    0  501 -0.00000000000E+00 -0.00000000000E+00 -0.34699707931E+02  0.34722940983E+02  0.12700000000E+01 0. -1.
         25    2    1    2    0    0  0.00000000000E+00  0.00000000000E+00  0.77805722423E+02  0.14723553921E+03  0.12499829424E+03 0.  0.
    9000005    1    3    3    0    0 -0.35228307383E+02  0.12044782382E+02  0.98021644892E+02  0.10485873016E+03  0.10000000000E+01 0.  0.
    9000005    1    3    3    0    0  0.35228307383E+02 -0.12044782382E+02 -0.20215922469E+02  0.42376809047E+02  0.10000000000E+01 0.  0.
<mgrwt>
<rscale>  0 0.12499829E+03</rscale>
<asrwt>0</asrwt>
<pdfrwt beam="1">  1        4 0.17310866E-01 0.12499829E+03</pdfrwt>
<pdfrwt beam="2">  1       -4 0.53407552E-02 0.12499829E+03</pdfrwt>
<totfact> 0.99861469E+03</totfact>
</mgrwt>
</event>
<event>
 5    1  0.3281209E-002  0.1250001E+03  0.7818608E-02  0.1235069E+00
         -4   -1    0    0    0  501 -0.00000000000E+00  0.00000000000E+00  0.12108716196E+04  0.12108722856E+04  0.12700000000E+01 0. -1.
          4   -1    0    0  501    0  0.00000000000E+00 -0.00000000000E+00 -0.31003037358E+01  0.33503407669E+01  0.12700000000E+01 0. -1.
         25    2    1    2    0    0  0.00000000000E+00  0.00000000000E+00  0.12077713159E+04  0.12142226264E+04  0.12500013990E+03 0.  0.
    9000005    1    3    3    0    0  0.69354941776E+01 -0.61760921069E+02  0.66739491804E+03  0.67028314098E+03  0.10000000000E+01 0.  0.
    9000005    1    3    3    0    0 -0.69354941776E+01  0.61760921069E+02  0.54037639785E+03  0.54393948543E+03  0.10000000000E+01 0.  0.
<mgrwt>
<rscale>  0 0.12500014E+03</rscale>
<asrwt>0</asrwt>
<pdfrwt beam="2">  1        4 0.49625510E-03 0.12500014E+03</pdfrwt>
<pdfrwt beam="1">  1       -4 0.18630706E+00 0.12500014E+03</pdfrwt>
<totfact> 0.24343436E+03</totfact>
</mgrwt>
</event>
<event>
 5    1  0.3281209E-002  0.1249970E+03  0.7818608E-02  0.1235074E+00
         -4   -1    0    0    0  501 -0.00000000000E+00  0.00000000000E+00  0.44009903604E+01  0.45805694136E+01  0.12700000000E+01 0.  1.
          4   -1    0    0  501    0  0.00000000000E+00 -0.00000000000E+00 -0.86961556444E+03  0.86961649181E+03  0.12700000000E+01 0.  1.
         25    2    1    2    0    0  0.00000000000E+00  0.00000000000E+00 -0.86521457408E+03  0.87419706122E+03  0.12499697053E+03 0.  0.
    9000005    1    3    3    0    0 -0.55605609172E+02 -0.23732696152E+02 -0.32206272510E+03  0.32768982825E+03  0.10000000000E+01 0.  0.
    9000005    1    3    3    0    0  0.55605609172E+02  0.23732696152E+02 -0.54315184898E+03  0.54650723297E+03  0.10000000000E+01 0.  0.
<mgrwt>
<rscale>  0 0.12499697E+03</rscale>
<asrwt>0</asrwt>
<pdfrwt beam="2">  1        4 0.13380076E+00 0.12499697E+03</pdfrwt>
<pdfrwt beam="1">  1       -4 0.69096124E-03 0.12499697E+03</pdfrwt>
<totfact> 0.35159457E+03</totfact>
</mgrwt>
</event>
<event>
 5    1  0.3281209E-002  0.1249967E+03  0.7818608E-02  0.1235074E+00
         -4   -1    0    0    0  501 -0.00000000000E+00  0.00000000000E+00  0.55258877323E+02  0.55273469431E+02  0.12700000000E+01 0.  1.
          4   -1    0    0  501    0  0.00000000000E+00 -0.00000000000E+00 -0.70656595268E+02  0.70668008001E+02  0.12700000000E+01 0.  1.
         25    2    1    2    0    0  0.00000000000E+00  0.00000000000E+00 -0.15397717946E+02  0.12594147743E+03  0.12499666404E+03 0.  0.
    9000005    1    3    3    0    0  0.38920672628E+02  0.65143312990E+01  0.41121350356E+02  0.57001936153E+02  0.10000000000E+01 0.  0.
    9000005    1    3    3    0    0 -0.38920672628E+02 -0.65143312990E+01 -0.56519068302E+02  0.68939541279E+02  0.10000000000E+01 0.  0.
<mgrwt>
<rscale>  0 0.12499666E+03</rscale>
<asrwt>0</asrwt>
<pdfrwt beam="2">  1        4 0.10872246E-01 0.12499666E+03</pdfrwt>
<pdfrwt beam="1">  1       -4 0.85033661E-02 0.12499666E+03</pdfrwt>
<totfact> 0.10433025E+04</totfact>
</mgrwt>
</event>
<event>
 5    1  0.3281209E-002  0.1250000E+03  0.7818608E-02  0.1235069E+00
         -4   -1    0    0    0  501 -0.00000000000E+00  0.00000000000E+00  0.10173991498E+03  0.10174784126E+03  0.12700000000E+01 0. -1.
          4   -1    0    0  501    0  0.00000000000E+00 -0.00000000000E+00 -0.38374533454E+02  0.38395542942E+02  0.12700000000E+01 0. -1.
         25    2    1    2    0    0  0.00000000000E+00  0.00000000000E+00  0.63365381528E+02  0.14014338420E+03  0.12499998624E+03 0.  0.
    9000005    1    3    3    0    0  0.15502386538E+02 -0.40869827103E+02 -0.18388581323E+02  0.47432127075E+02  0.10000000000E+01 0.  0.
    9000005    1    3    3    0    0 -0.15502386538E+02  0.40869827103E+02  0.81753962852E+02  0.92711257125E+02  0.10000000000E+01 0.  0.
<mgrwt>
<rscale>  0 0.12499999E+03</rscale>
<asrwt>0</asrwt>
<pdfrwt beam="2">  1        4 0.59060002E-02 0.12499999E+03</pdfrwt>
<pdfrwt beam="1">  1       -4 0.15654520E-01 0.12499999E+03</pdfrwt>
<totfact> 0.10130618E+04</totfact>
</mgrwt>
</event>
<event>
 5    1  0.3281209E-002  0.1249996E+03  0.7818608E-02  0.1235070E+00
          4   -1    0    0  501    0  0.00000000000E+00  0.00000000000E+00  0.86814574084E+03  0.86814666977E+03  0.12700000000E+01 0. -1.
         -4   -1    0    0    0  501 -0.00000000000E+00 -0.00000000000E+00 -0.44089387803E+01  0.45882067487E+01  0.12700000000E+01 0. -1.
         25    2    1    2    0    0  0.00000000000E+00  0.00000000000E+00  0.86373680206E+03  0.87273487652E+03  0.12499960586E+03 0.  0.
    9000005    1    3    3    0    0 -0.30422769907E+02 -0.28150241292E+02  0.75839783844E+03  0.75953029062E+03  0.10000000000E+01 0.  0.
    9000005    1    3    3    0    0  0.30422769907E+02  0.28150241292E+02  0.10533896362E+03  0.11320458590E+03  0.10000000000E+01 0.  0.
<mgrwt>
<rscale>  0 0.12499961E+03</rscale>
<asrwt>0</asrwt>
<pdfrwt beam="1">  1        4 0.13357475E+00 0.12499961E+03</pdfrwt>
<pdfrwt beam="2">  1       -4 0.69215953E-03 0.12499961E+03</pdfrwt>
<totfact> 0.35214925E+03</totfact>
</mgrwt>
</event>
<event>
 5    1  0.3281209E-002  0.1249938E+03  0.7818608E-02  0.1235079E+00
         -4   -1    0    0    0  501 -0.00000000000E+00  0.00000000000E+00  0.23225887607E+02  0.23260583723E+02  0.12700000000E+01 0.  1.
          4   -1    0    0  501    0  0.00000000000E+00 -0.00000000000E+00 -0.16800577062E+03  0.16801057069E+03  0.12700000000E+01 0.  1.
         25    2    1    2    0    0  0.00000000000E+00  0.00000000000E+00 -0.14477988302E+03  0.19127115441E+03  0.12499375978E+03 0.  0.
    9000005    1    3    3    0    0  0.84691829908E+01 -0.15392890400E+02 -0.16415610476E+03  0.16509662281E+03  0.10000000000E+01 0.  0.
    9000005    1    3    3    0    0 -0.84691829908E+01  0.15392890400E+02  0.19376221741E+02  0.26174531597E+02  0.10000000000E+01 0.  0.
<mgrwt>
<rscale>  0 0.12499376E+03</rscale>
<asrwt>0</asrwt>
<pdfrwt beam="2">  1        4 0.25850079E-01 0.12499376E+03</pdfrwt>
<pdfrwt beam="1">  1       -4 0.35762518E-02 0.12499376E+03</pdfrwt>
<totfact> 0.91639415E+03</totfact>
</mgrwt>
</event>
<event>
 5    1  0.3281209E-002  0.1250008E+03  0.7818608E-02  0.1235068E+00
          4   -1    0    0  501    0  0.00000000000E+00  0.00000000000E+00  0.49251175264E+02  0.49267546771E+02  0.12700000000E+01 0. -1.
         -4   -1    0    0    0  501 -0.00000000000E+00 -0.00000000000E+00 -0.79279212242E+02  0.79289383865E+02  0.12700000000E+01 0. -1.
         25    2    1    2    0    0  0.00000000000E+00  0.00000000000E+00 -0.30028036978E+02  0.12855693064E+03  0.12500080564E+03 0.  0.
    9000005    1    3    3    0    0  0.37856875810E+02 -0.45443011469E+02  0.57364500735E+01  0.59431617822E+02  0.10000000000E+01 0.  0.
    9000005    1    3    3    0    0 -0.37856875810E+02  0.45443011469E+02 -0.35764487051E+02  0.69125312814E+02  0.10000000000E+01 0.  0.
<mgrwt>
<rscale>  0 0.12500081E+03</rscale>
<asrwt>0</asrwt>
<pdfrwt beam="1">  1        4 0.75791457E-02 0.12500081E+03</pdfrwt>
<pdfrwt beam="2">  1       -4 0.12198844E-01 0.12500081E+03</pdfrwt>
<totfact> 0.10375289E+04</totfact>
</mgrwt>
</event>
<event>
 5    1  0.3281209E-002  0.1250131E+03  0.7818608E-02  0.1235049E+00
          4   -1    0    0  501    0  0.00000000000E+00  0.00000000000E+00  0.42076650749E+03  0.42076842411E+03  0.12700000000E+01 0.  1.
         -4   -1    0    0    0  501 -0.00000000000E+00 -0.00000000000E+00 -0.92402241139E+01  0.93270918123E+01  0.12700000000E+01 0.  1.
         25    2    1    2    0    0  0.00000000000E+00  0.00000000000E+00  0.41152628338E+03  0.43009551592E+03  0.12501308293E+03 0.  0.
    9000005    1    3    3    0    0 -0.39890352063E+02  0.39264496321E+02  0.11010216025E+03  0.12351690796E+03  0.10000000000E+01 0.  0.
    9000005    1    3    3    0    0  0.39890352063E+02 -0.39264496321E+02  0.30142412312E+03  0.30657860796E+03  0.10000000000E+01 0.  0.
<mgrwt>
<rscale>  0 0.12501308E+03</rscale>
<asrwt>0</asrwt>
<pdfrwt beam="1">  1        4 0.64740153E-01 0.12501308E+03</pdfrwt>
<pdfrwt beam="2">  1       -4 0.14284022E-02 0.12501308E+03</pdfrwt>
<totfact> 0.61709522E+03</totfact>
</mgrwt>
</event>
<event>
 5    1  0.3281209E-002  0.1249996E+03  0.7818608E-02  0.1235070E+00
         -4   -1    0    0    0  501 -0.00000000000E+00  0.00000000000E+00  0.35160882171E+01  0.37384189640E+01  0.12700000000E+01 0. -1.
          4   -1    0    0  501    0  0.00000000000E+00 -0.00000000000E+00 -0.10766874688E+04  0.10766882179E+04  0.12700000000E+01 0. -1.
         25    2    1    2    0    0  0.00000000000E+00  0.00000000000E+00 -0.10731713806E+04  0.10804266368E+04  0.12499962140E+03 0.  0.
    9000005    1    3    3    0    0 -0.58810594400E+02  0.67646775229E+01 -0.70962282457E+03  0.71208847766E+03  0.10000000000E+01 0.  0.
    9000005    1    3    3    0    0  0.58810594400E+02 -0.67646775229E+01 -0.36354855607E+03  0.36833815916E+03  0.10000000000E+01 0.  0.
<mgrwt>
<rscale>  0 0.12499962E+03</rscale>
<asrwt>0</asrwt>
<pdfrwt beam="2">  1        4 0.16566113E+00 0.12499962E+03</pdfrwt>
<pdfrwt beam="1">  1       -4 0.55809749E-03 0.12499962E+03</pdfrwt>
<totfact> 0.28063704E+03</totfact>
</mgrwt>
</event>
<event>
 5    1  0.3281209E-002  0.1249921E+03  0.7818608E-02  0.1235082E+00
         -4   -1    0    0    0  501 -0.00000000000E+00  0.00000000000E+00  0.85911140534E+02  0.85920527046E+02  0.12700000000E+01 0.  1.
          4   -1    0    0  501    0  0.00000000000E+00 -0.00000000000E+00 -0.45442006986E+02  0.45459750317E+02  0.12700000000E+01 0.  1.
         25    2    1    2    0    0  0.00000000000E+00  0.00000000000E+00  0.40469133548E+02  0.13138027736E+03  0.12499210579E+03 0.  0.
    9000005    1    3    3    0    0  0.11323507882E+02  0.11189480822E+02 -0.43279972338E+02  0.46125722948E+02  0.10000000000E+01 0.  0.
    9000005    1    3    3    0    0 -0.11323507882E+02 -0.11189480822E+02  0.83749105887E+02  0.85254554416E+02  0.10000000000E+01 0.  0.
<mgrwt>
<rscale>  0 0.12499211E+03</rscale>
<asrwt>0</asrwt>
<pdfrwt beam="2">  1        4 0.69931649E-02 0.12499211E+03</pdfrwt>
<pdfrwt beam="1">  1       -4 0.13219185E-01 0.12499211E+03</pdfrwt>
<totfact> 0.10316781E+04</totfact>
</mgrwt>
</event>
<event>
 5    1  0.3281209E-002  0.1250004E+03  0.7818608E-02  0.1235069E+00
          4   -1    0    0  501    0  0.00000000000E+00  0.00000000000E+00  0.99388597458E+02  0.99396711236E+02  0.12700000000E+01 0.  1.
         -4   -1    0    0    0  501 -0.00000000000E+00 -0.00000000000E+00 -0.39283056026E+02  0.39303579872E+02  0.12700000000E+01 0.  1.
         25    2    1    2    0    0  0.00000000000E+00  0.00000000000E+00  0.60105541432E+02  0.13870029111E+03  0.12500037857E+03 0.  0.
    9000005    1    3    3    0    0 -0.43865411892E+02  0.35753389876E+02  0.63700253389E+00  0.56602871131E+02  0.10000000000E+01 0.  0.
    9000005    1    3    3    0    0  0.43865411892E+02 -0.35753389876E+02  0.59468538898E+02  0.82097419976E+02  0.10000000000E+01 0.  0.
<mgrwt>
<rscale>  0 0.12500038E+03</rscale>
<asrwt>0</asrwt>
<pdfrwt beam="1">  1        4 0.15292756E-01 0.12500038E+03</pdfrwt>
<pdfrwt beam="2">  1       -4 0.60457500E-02 0.12500038E+03</pdfrwt>
<totfact> 0.10160507E+04</totfact>
</mgrwt>
</event>
<event>
 5    1  0.3281209E-002  0.1250036E+03  0.7818608E-02  0.1235064E+00
          4   -1    0    0  501    0  0.00000000000E+00  0.00000000000E+00  0.44589320572E+01  0.46362673661E+01  0.12700000000E+01 0. -1.
         -4   -1    0    0    0  501 -0.00000000000E+00 -0.00000000000E+00 -0.85884113334E+03  0.85884207234E+03  0.12700000000E+01 0. -1.
         25    2    1    2    0    0  0.00000000000E+00  0.00000000000E+00 -0.85438220128E+03  0.86347833970E+03  0.12500358902E+03 0.  0.
    9000005    1    3    3    0    0  0.27594626759E+02 -0.23854381827E+02 -0.77771355297E+03  0.77856911410E+03  0.10000000000E+01 0.  0.
    9000005    1    3    3    0    0 -0.27594626759E+02  0.23854381827E+02 -0.76668648309E+02  0.84909225599E+02  0.10000000000E+01 0.  0.
<mgrwt>
<rscale>  0 0.12500359E+03</rscale>
<asrwt>0</asrwt>
<pdfrwt beam="1">  1        4 0.69970364E-03 0.12500359E+03</pdfrwt>
<pdfrwt beam="2">  1       -4 0.13214299E+00 0.12500359E+03</pdfrwt>
<totfact> 0.35579283E+03</totfact>
</mgrwt>
</event>
<event>
 5    1  0.3281209E-002  0.1249975E+03  0.7818608E-02  0.1235073E+00
          4   -1    0    0  501    0  0.00000000000E+00  0.00000000000E+00  0.85743945539E+03  0.85744039592E+03  0.12700000000E+01 0.  1.
         -4   -1    0    0    0  501 -0.00000000000E+00 -0.00000000000E+00 -0.44660569769E+01  0.46431201709E+01  0.12700000000E+01 0.  1.
         25    2    1    2    0    0  0.00000000000E+00  0.00000000000E+00  0.85297339842E+03  0.86208351610E+03  0.12499748125E+03 0.  0.
    9000005    1    3    3    0    0 -0.26764497378E+01  0.60086865279E+02  0.30954608912E+03  0.31533692466E+03  0.10000000000E+01 0.  0.
    9000005    1    3    3    0    0  0.26764497378E+01 -0.60086865279E+02  0.54342730929E+03  0.54674659144E+03  0.10000000000E+01 0.  0.
<mgrwt>
<rscale>  0 0.12499748E+03</rscale>
<asrwt>0</asrwt>
<pdfrwt beam="1">  1        4 0.13192727E+00 0.12499748E+03</pdfrwt>
<pdfrwt beam="2">  1       -4 0.70077928E-03 0.12499748E+03</pdfrwt>
<totfact> 0.35639902E+03</totfact>
</mgrwt>
</event>
<event>
 5    1  0.3281209E-002  0.1249915E+03  0.7818608E-02  0.1235083E+00
         -4   -1    0    0    0  501 -0.00000000000E+00  0.00000000000E+00  0.15132066191E+04  0.15132071521E+04  0.12700000000E+01 0. -1.
          4   -1    0    0  501    0  0.00000000000E+00 -0.00000000000E+00 -0.24242980552E+01  0.27368085538E+01  0.12700000000E+01 0. -1.
         25    2    1    2    0    0  0.00000000000E+00  0.00000000000E+00  0.15107823211E+04  0.15159439606E+04  0.12499148004E+03 0.  0.
    9000005    1    3    3    0    0  0.47685623462E+02 -0.27614061439E+02  0.11127695155E+04  0.11141334972E+04  0.10000000000E+01 0.  0.
    9000005    1    3    3    0    0 -0.47685623462E+02  0.27614061439E+02  0.39801280560E+03  0.40181046340E+03  0.10000000000E+01 0.  0.
<mgrwt>
<rscale>  0 0.12499148E+03</rscale>
<asrwt>0</asrwt>
<pdfrwt beam="2">  1        4 0.39704854E-03 0.12499148E+03</pdfrwt>
<pdfrwt beam="1">  1       -4 0.23282548E+00 0.12499148E+03</pdfrwt>
<totfact> 0.17622338E+03</totfact>
</mgrwt>
</event>
<event>
 5    1  0.3281209E-002  0.1250112E+03  0.7818608E-02  0.1235052E+00
         -4   -1    0    0    0  501 -0.00000000000E+00  0.00000000000E+00  0.22128201497E+02  0.22164615979E+02  0.12700000000E+01 0. -1.
          4   -1    0    0  501    0  0.00000000000E+00 -0.00000000000E+00 -0.17637584577E+03  0.17638041804E+03  0.12700000000E+01 0. -1.
         25    2    1    2    0    0  0.00000000000E+00  0.00000000000E+00 -0.15424764427E+03  0.19854503402E+03  0.12501117859E+03 0.  0.
    9000005    1    3    3    0    0 -0.13685784696E+01  0.58455340430E+02 -0.11217450194E+03  0.12650303837E+03  0.10000000000E+01 0.  0.
    9000005    1    3    3    0    0  0.13685784696E+01 -0.58455340430E+02 -0.42073142325E+02  0.72041995648E+02  0.10000000000E+01 0.  0.
<mgrwt>
<rscale>  0 0.12501118E+03</rscale>
<asrwt>0</asrwt>
<pdfrwt beam="2">  1        4 0.27137897E-01 0.12501118E+03</pdfrwt>
<pdfrwt beam="1">  1       -4 0.34074916E-02 0.12501118E+03</pdfrwt>
<totfact> 0.90358788E+03</totfact>
</mgrwt>
</event>
<event>
 5    1  0.3281209E-002  0.1250045E+03  0.7818608E-02  0.1235062E+00
          4   -1    0    0  501    0  0.00000000000E+00  0.00000000000E+00  0.47521898528E+01  0.49189641590E+01  0.12700000000E+01 0.  1.
         -4   -1    0    0    0  501 -0.00000000000E+00 -0.00000000000E+00 -0.80770526077E+03  0.80770625922E+03  0.12700000000E+01 0.  1.
         25    2    1    2    0    0  0.00000000000E+00  0.00000000000E+00 -0.80295307092E+03  0.81262522337E+03  0.12500447820E+03 0.  0.
    9000005    1    3    3    0    0  0.15760455998E+02  0.38064901227E+02 -0.95995644236E+02  0.10446766194E+03  0.10000000000E+01 0.  0.
    9000005    1    3    3    0    0 -0.15760455998E+02 -0.38064901227E+02 -0.70695742668E+03  0.70815756143E+03  0.10000000000E+01 0.  0.
<mgrwt>
<rscale>  0 0.12500448E+03</rscale>
<asrwt>0</asrwt>
<pdfrwt beam="1">  1        4 0.74401237E-03 0.12500448E+03</pdfrwt>
<pdfrwt beam="2">  1       -4 0.12427515E+00 0.12500448E+03</pdfrwt>
<totfact> 0.37703623E+03</totfact>
</mgrwt>
</event>
<event>
 5    1  0.3281209E-002  0.1249984E+03  0.7818608E-02  0.1235072E+00
          4   -1    0    0  501    0  0.00000000000E+00  0.00000000000E+00  0.21987511956E+03  0.21987878729E+03  0.12700000000E+01 0. -1.
         -4   -1    0    0    0  501 -0.00000000000E+00 -0.00000000000E+00 -0.17738781965E+02  0.17784186392E+02  0.12700000000E+01 0. -1.
         25    2    1    2    0    0  0.00000000000E+00  0.00000000000E+00  0.20213633759E+03  0.23766297368E+03  0.12499836033E+03 0.  0.
    9000005    1    3    3    0    0 -0.38045082057E+02  0.34232264224E+02  0.32888330208E+02  0.60843392792E+02  0.10000000000E+01 0.  0.
    9000005    1    3    3    0    0  0.38045082057E+02 -0.34232264224E+02  0.16924800739E+03  0.17681958089E+03  0.10000000000E+01 0.  0.
<mgrwt>
<rscale>  0 0.12499836E+03</rscale>
<asrwt>0</asrwt>
<pdfrwt beam="1">  1        4 0.33830716E-01 0.12499836E+03</pdfrwt>
<pdfrwt beam="2">  1       -4 0.27328182E-02 0.12499836E+03</pdfrwt>
<totfact> 0.84149738E+03</totfact>
</mgrwt>
</event>
<event>
 5    1  0.3281209E-002  0.1250023E+03  0.7818608E-02  0.1235066E+00
         -4   -1    0    0    0  501 -0.00000000000E+00  0.00000000000E+00  0.21798202478E+02  0.21835167305E+02  0.12700000000E+01 0.  1.
          4   -1    0    0  501    0  0.00000000000E+00 -0.00000000000E+00 -0.17901622740E+03  0.17902073224E+03  0.12700000000E+01 0.  1.
         25    2    1    2    0    0  0.00000000000E+00  0.00000000000E+00 -0.15721802492E+03  0.20085589955E+03  0.12500234007E+03 0.  0.
    9000005    1    3    3    0    0  0.54975445124E+02  0.24359428819E+02 -0.51259355879E+02  0.79020268945E+02  0.10000000000E+01 0.  0.
    9000005    1    3    3    0    0 -0.54975445124E+02 -0.24359428819E+02 -0.10595866904E+03  0.12183563060E+03  0.10000000000E+01 0.  0.
<mgrwt>
<rscale>  0 0.12500234E+03</rscale>
<asrwt>0</asrwt>
<pdfrwt beam="2">  1        4 0.27544147E-01 0.12500234E+03</pdfrwt>
<pdfrwt beam="1">  1       -4 0.33567597E-02 0.12500234E+03</pdfrwt>
<totfact> 0.89986641E+03</totfact>
</mgrwt>
</event>
<event>
 5    1  0.3281209E-002  0.1249986E+03  0.7818608E-02  0.1235071E+00
         -4   -1    0    0    0  501 -0.00000000000E+00  0.00000000000E+00  0.62878927512E+02  0.62891751646E+02  0.12700000000E+01 0.  1.
          4   -1    0    0  501    0  0.00000000000E+00 -0.00000000000E+00 -0.62096301444E+02  0.62109287172E+02  0.12700000000E+01 0.  1.
         25    2    1    2    0    0  0.00000000000E+00  0.00000000000E+00  0.78262606838E+00  0.12500103882E+03  0.12499858880E+03 0.  0.
    9000005    1    3    3    0    0 -0.70869590887E+01  0.59992803850E+02  0.16385384599E+02  0.62600657595E+02  0.10000000000E+01 0.  0.
    9000005    1    3    3    0    0  0.70869590887E+01 -0.59992803850E+02 -0.15602758530E+02  0.62400381222E+02  0.10000000000E+01 0.  0.
<mgrwt>
<rscale>  0 0.12499859E+03</rscale>
<asrwt>0</asrwt>
<pdfrwt beam="2">  1        4 0.95552626E-02 0.12499859E+03</pdfrwt>
<pdfrwt beam="1">  1       -4 0.96756665E-02 0.12499859E+03</pdfrwt>
<totfact> 0.10453173E+04</totfact>
</mgrwt>
</event>
<event>
 5    1  0.3281209E-002  0.1249904E+03  0.7818608E-02  0.1235084E+00
         -4   -1    0    0    0  501 -0.00000000000E+00  0.00000000000E+00  0.48291404169E+03  0.48291571166E+03  0.12700000000E+01 0. -1.
          4   -1    0    0  501    0  0.00000000000E+00 -0.00000000000E+00 -0.80361195500E+01  0.81358538225E+01  0.12700000000E+01 0. -1.
         25    2    1    2    0    0  0.00000000000E+00  0.00000000000E+00  0.47487792214E+03  0.49105156548E+03  0.12499039571E+03 0.  0.
    9000005    1    3    3    0    0 -0.42877930167E+01 -0.55314849190E+02  0.12449050340E+03  0.13629748033E+03  0.10000000000E+01 0.  0.
    9000005    1    3    3    0    0  0.42877930167E+01  0.55314849190E+02  0.35038741875E+03  0.35475408514E+03  0.10000000000E+01 0.  0.
<mgrwt>
<rscale>  0 0.12499040E+03</rscale>
<asrwt>0</asrwt>
<pdfrwt beam="2">  1        4 0.12441264E-02 0.12499040E+03</pdfrwt>
<pdfrwt beam="1">  1       -4 0.74302267E-01 0.12499040E+03</pdfrwt>
<totfact> 0.56577351E+03</totfact>
</mgrwt>
</event>
<event>
 5    1  0.3281209E-002  0.1250061E+03  0.7818608E-02  0.1235060E+00
         -4   -1    0    0    0  501 -0.00000000000E+00  0.00000000000E+00  0.89689647546E+01  0.90584341234E+01  0.12700000000E+01 0. -1.
          4   -1    0    0  501    0  0.00000000000E+00 -0.00000000000E+00 -0.43332029749E+03  0.43332215858E+03  0.12700000000E+01 0. -1.
         25    2    1    2    0    0  0.00000000000E+00  0.00000000000E+00 -0.42435133274E+03  0.44238059271E+03  0.12500614068E+03 0.  0.
    9000005    1    3    3    0    0  0.31114168518E+02  0.38988593399E+02 -0.78941435051E+02  0.93386037852E+02  0.10000000000E+01 0.  0.
    9000005    1    3    3    0    0 -0.31114168518E+02 -0.38988593399E+02 -0.34540989769E+03  0.34899455485E+03  0.10000000000E+01 0.  0.
<mgrwt>
<rscale>  0 0.12500614E+03</rscale>
<asrwt>0</asrwt>
<pdfrwt beam="2">  1        4 0.66671670E-01 0.12500614E+03</pdfrwt>
<pdfrwt beam="1">  1       -4 0.13868665E-02 0.12500614E+03</pdfrwt>
<totfact> 0.60621380E+03</totfact>
</mgrwt>
</event>
<event>
 5    1  0.3281209E-002  0.1249991E+03  0.7818608E-02  0.1235071E+00
          4   -1    0    0  501    0  0.00000000000E+00  0.00000000000E+00  0.21968151633E+02  0.22004830973E+02  0.12700000000E+01 0.  1.
         -4   -1    0    0    0  501 -0.00000000000E+00 -0.00000000000E+00 -0.17762425925E+03  0.17762879940E+03  0.12700000000E+01 0.  1.
         25    2    1    2    0    0  0.00000000000E+00  0.00000000000E+00 -0.15565610762E+03  0.19963363037E+03  0.12499905014E+03 0.  0.
    9000005    1    3    3    0    0  0.46692028134E+01 -0.26113570606E+02 -0.16819336558E+03  0.17027544817E+03  0.10000000000E+01 0.  0.
    9000005    1    3    3    0    0 -0.46692028134E+01  0.26113570606E+02  0.12537257962E+02  0.29358182197E+02  0.10000000000E+01 0.  0.
<mgrwt>
<rscale>  0 0.12499905E+03</rscale>
<asrwt>0</asrwt>
<pdfrwt beam="1">  1        4 0.33828865E-02 0.12499905E+03</pdfrwt>
<pdfrwt beam="2">  1       -4 0.27329979E-01 0.12499905E+03</pdfrwt>
<totfact> 0.90199252E+03</totfact>
</mgrwt>
</event>
<event>
 5    1  0.3281209E-002  0.1249983E+03  0.7818608E-02  0.1235072E+00
         -4   -1    0    0    0  501 -0.00000000000E+00  0.00000000000E+00  0.11054238747E+02  0.11126953503E+02  0.12700000000E+01 0.  1.
          4   -1    0    0  501    0  0.00000000000E+00 -0.00000000000E+00 -0.35212933239E+03  0.35213162259E+03  0.12700000000E+01 0.  1.
         25    2    1    2    0    0  0.00000000000E+00  0.00000000000E+00 -0.34107509364E+03  0.36325857610E+03  0.12499829440E+03 0.  0.
    9000005    1    3    3    0    0 -0.10134040290E+01 -0.50336105822E+02 -0.62956854861E+02  0.80618336072E+02  0.10000000000E+01 0.  0.
    9000005    1    3    3    0    0  0.10134040290E+01  0.50336105822E+02 -0.27811823878E+03  0.28264024002E+03  0.10000000000E+01 0.  0.
<mgrwt>
<rscale>  0 0.12499829E+03</rscale>
<asrwt>0</asrwt>
<pdfrwt beam="2">  1        4 0.54179504E-01 0.12499829E+03</pdfrwt>
<pdfrwt beam="1">  1       -4 0.17064220E-02 0.12499829E+03</pdfrwt>
<totfact> 0.68292743E+03</totfact>
</mgrwt>
</event>
<event>
 5    1  0.3281209E-002  0.1250000E+03  0.7818608E-02  0.1235069E+00
          4   -1    0    0  501    0  0.00000000000E+00  0.00000000000E+00  0.31941179752E+02  0.31966417753E+02  0.12700000000E+01 0. -1.
         -4   -1    0    0    0  501 -0.00000000000E+00 -0.00000000000E+00 -0.12221818600E+03  0.12222478427E+03  0.12700000000E+01 0. -1.
         25    2    1    2    0    0  0.00000000000E+00  0.00000000000E+00 -0.90277006252E+02  0.15419120202E+03  0.12499995570E+03 0.  0.
    9000005    1    3    3    0    0 -0.78013122557E+01  0.47955982601E+01 -0.12139210442E+03  0.12174112391E+03  0.10000000000E+01 0.  0.
    9000005    1    3    3    0    0  0.78013122557E+01 -0.47955982601E+01  0.31115098168E+02  0.32450078114E+02  0.10000000000E+01 0.  0.
<mgrwt>
<rscale>  0 0.12499996E+03</rscale>
<asrwt>0</asrwt>
<pdfrwt beam="1">  1        4 0.49164767E-02 0.12499996E+03</pdfrwt>
<pdfrwt beam="2">  1       -4 0.18805247E-01 0.12499996E+03</pdfrwt>
<totfact> 0.98474608E+03</totfact>
</mgrwt>
</event>
<event>
 5    1  0.3281209E-002  0.1250001E+03  0.7818608E-02  0.1235069E+00
         -4   -1    0    0    0  501 -0.00000000000E+00  0.00000000000E+00  0.22083248307E+02  0.22119736793E+02  0.12700000000E+01 0.  1.
          4   -1    0    0  501    0  0.00000000000E+00 -0.00000000000E+00 -0.17670285112E+03  0.17670741494E+03  0.12700000000E+01 0.  1.
         25    2    1    2    0    0  0.00000000000E+00  0.00000000000E+00 -0.15461960281E+03  0.19882715173E+03  0.12500005876E+03 0.  0.
    9000005    1    3    3    0    0 -0.76471964350E+01  0.43524489877E+02 -0.70269978275E+01  0.44757563951E+02  0.10000000000E+01 0.  0.
    9000005    1    3    3    0    0  0.76471964350E+01 -0.43524489877E+02 -0.14759260498E+03  0.15406958778E+03  0.10000000000E+01 0.  0.
<mgrwt>
<rscale>  0 0.12500006E+03</rscale>
<asrwt>0</asrwt>
<pdfrwt beam="2">  1        4 0.27188211E-01 0.12500006E+03</pdfrwt>
<pdfrwt beam="1">  1       -4 0.34005808E-02 0.12500006E+03</pdfrwt>
<totfact> 0.90333576E+03</totfact>
</mgrwt>
</event>
<event>
 5    1  0.3281209E-002  0.1249990E+03  0.7818608E-02  0.1235071E+00
          4   -1    0    0  501    0  0.00000000000E+00  0.00000000000E+00  0.28923697589E+03  0.28923976407E+03  0.12700000000E+01 0.  1.
         -4   -1    0    0    0  501 -0.00000000000E+00 -0.00000000000E+00 -0.13472424244E+02  0.13532151160E+02  0.12700000000E+01 0.  1.
         25    2    1    2    0    0  0.00000000000E+00  0.00000000000E+00  0.27576455164E+03  0.30277191523E+03  0.12499897884E+03 0.  0.
    9000005    1    3    3    0    0  0.19206390326E+02 -0.37617663695E+02  0.26324159240E+02  0.49778865103E+02  0.10000000000E+01 0.  0.
    9000005    1    3    3    0    0 -0.19206390326E+02  0.37617663695E+02  0.24944039240E+03  0.25299305013E+03  0.10000000000E+01 0.  0.
<mgrwt>
<rscale>  0 0.12499898E+03</rscale>
<asrwt>0</asrwt>
<pdfrwt beam="1">  1        4 0.44502805E-01 0.12499898E+03</pdfrwt>
<pdfrwt beam="2">  1       -4 0.20774895E-02 0.12499898E+03</pdfrwt>
<totfact> 0.75254150E+03</totfact>
</mgrwt>
</event>
<event>
 5    1  0.3281209E-002  0.1250035E+03  0.7818608E-02  0.1235064E+00
          4   -1    0    0  501    0  0.00000000000E+00  0.00000000000E+00  0.69686682940E+03  0.69686798665E+03  0.12700000000E+01 0.  1.
         -4   -1    0    0    0  501 -0.00000000000E+00 -0.00000000000E+00 -0.55326544415E+01  0.56765451790E+01  0.12700000000E+01 0.  1.
         25    2    1    2    0    0  0.00000000000E+00  0.00000000000E+00  0.69133417496E+03  0.70254453183E+03  0.12500351090E+03 0.  0.
    9000005    1    3    3    0    0 -0.29218706356E+02 -0.38041296610E+01  0.35930145559E+02  0.46477731910E+02  0.10000000000E+01 0.  0.
    9000005    1    3    3    0    0  0.29218706356E+02  0.38041296610E+01  0.65540402940E+03  0.65606679992E+03  0.10000000000E+01 0.  0.
<mgrwt>
<rscale>  0 0.12500351E+03</rscale>
<asrwt>0</asrwt>
<pdfrwt beam="1">  1        4 0.10722141E+00 0.12500351E+03</pdfrwt>
<pdfrwt beam="2">  1       -4 0.86233534E-03 0.12500351E+03</pdfrwt>
<totfact> 0.42949418E+03</totfact>
</mgrwt>
</event>
<event>
 5    1  0.3281209E-002  0.1250001E+03  0.7818608E-02  0.1235069E+00
          4   -1    0    0  501    0  0.00000000000E+00  0.00000000000E+00  0.56392676541E+03  0.56392819547E+03  0.12700000000E+01 0. -1.
         -4   -1    0    0    0  501 -0.00000000000E+00 -0.00000000000E+00 -0.68672259556E+01  0.69836732688E+01  0.12700000000E+01 0. -1.
         25    2    1    2    0    0  0.00000000000E+00  0.00000000000E+00  0.55705953946E+03  0.57091186874E+03  0.12500012548E+03 0.  0.
    9000005    1    3    3    0    0 -0.54258803468E+02 -0.79932609167E+00  0.42008638754E+03  0.42357789091E+03  0.10000000000E+01 0.  0.
    9000005    1    3    3    0    0  0.54258803468E+02  0.79932609167E+00  0.13697315192E+03  0.14733397783E+03  0.10000000000E+01 0.  0.
<mgrwt>
<rscale>  0 0.12500013E+03</rscale>
<asrwt>0</asrwt>
<pdfrwt beam="1">  1        4 0.86767025E-01 0.12500013E+03</pdfrwt>
<pdfrwt beam="2">  1       -4 0.10655639E-02 0.12500013E+03</pdfrwt>
<totfact> 0.50756631E+03</totfact>
</mgrwt>
</event>
<event>
 5    1  0.3281209E-002  0.1249971E+03  0.7818608E-02  0.1235074E+00
         -4   -1    0    0    0  501 -0.00000000000E+00  0.00000000000E+00  0.48708681916E+02  0.48725235699E+02  0.12700000000E+01 0.  1.
          4   -1    0    0  501    0  0.00000000000E+00 -0.00000000000E+00 -0.80157184362E+02  0.80167244588E+02  0.12700000000E+01 0.  1.
         25    2    1    2    0    0  0.00000000000E+00  0.00000000000E+00 -0.31448502447E+02  0.12889248029E+03  0.12499705264E+03 0.  0.
    9000005    1    3    3    0    0 -0.51923106092E+02 -0.23808292846E+02 -0.41856116488E+02  0.70822159258E+02  0.10000000000E+01 0.  0.
    9000005    1    3    3    0    0  0.51923106092E+02  0.23808292846E+02  0.10407614042E+02  0.58070321030E+02  0.10000000000E+01 0.  0.
<mgrwt>
<rscale>  0 0.12499705E+03</rscale>
<asrwt>0</asrwt>
<pdfrwt beam="2">  1        4 0.12333922E-01 0.12499705E+03</pdfrwt>
<pdfrwt beam="1">  1       -4 0.74956906E-02 0.12499705E+03</pdfrwt>
<totfact> 0.10368948E+04</totfact>
</mgrwt>
</event>
<event>
 5    1  0.3281209E-002  0.1249982E+03  0.7818608E-02  0.1235072E+00
         -4   -1    0    0    0  501 -0.00000000000E+00  0.00000000000E+00  0.40483648398E+02  0.40503563888E+02  0.12700000000E+01 0.  1.
          4   -1    0    0  501    0  0.00000000000E+00 -0.00000000000E+00 -0.96438926461E+02  0.96447288386E+02  0.12700000000E+01 0.  1.
         25    2    1    2    0    0  0.00000000000E+00  0.00000000000E+00 -0.55955278063E+02  0.13695085227E+03  0.12499817117E+03 0.  0.
    9000005    1    3    3    0    0  0.22652117116E+02  0.93351510939E+01 -0.90962825312E+02  0.94209867023E+02  0.10000000000E+01 0.  0.
    9000005    1    3    3    0    0 -0.22652117116E+02 -0.93351510939E+01  0.35007547249E+02  0.42740985250E+02  0.10000000000E+01 0.  0.
<mgrwt>
<rscale>  0 0.12499817E+03</rscale>
<asrwt>0</asrwt>
<pdfrwt beam="2">  1        4 0.14838933E-01 0.12499817E+03</pdfrwt>
<pdfrwt beam="1">  1       -4 0.62304288E-02 0.12499817E+03</pdfrwt>
<totfact> 0.10197534E+04</totfact>
</mgrwt>
</event>
<event>
 5    1  0.3281209E-002  0.1249986E+03  0.7818608E-02  0.1235071E+00
         -4   -1    0    0    0  501 -0.00000000000E+00  0.00000000000E+00  0.39827038916E+02  0.39847282577E+02  0.12700000000E+01 0. -1.
          4   -1    0    0  501    0  0.00000000000E+00 -0.00000000000E+00 -0.98028879210E+02  0.98037105522E+02  0.12700000000E+01 0. -1.
         25    2    1    2    0    0  0.00000000000E+00  0.00000000000E+00 -0.58201840294E+02  0.13788438810E+03  0.12499860106E+03 0.  0.
    9000005    1    3    3    0    0 -0.35567316183E+02 -0.31738397421E+02  0.15472586370E+02  0.50127445380E+02  0.10000000000E+01 0.  0.
    9000005    1    3    3    0    0  0.35567316183E+02  0.31738397421E+02 -0.73674426664E+02  0.87756942720E+02  0.10000000000E+01 0.  0.
<mgrwt>
<rscale>  0 0.12499860E+03</rscale>
<asrwt>0</asrwt>
<pdfrwt beam="2">  1        4 0.15083556E-01 0.12499860E+03</pdfrwt>
<pdfrwt beam="1">  1       -4 0.61294268E-02 0.12499860E+03</pdfrwt>
<totfact> 0.10177943E+04</totfact>
</mgrwt>
</event>
<event>
 5    1  0.3281209E-002  0.1249997E+03  0.7818608E-02  0.1235070E+00
          4   -1    0    0  501    0  0.00000000000E+00  0.00000000000E+00  0.24298632455E+02  0.24331798931E+02  0.12700000000E+01 0. -1.
         -4   -1    0    0    0  501 -0.00000000000E+00 -0.00000000000E+00 -0.16061394947E+03  0.16061897044E+03  0.12700000000E+01 0. -1.
         25    2    1    2    0    0  0.00000000000E+00  0.00000000000E+00 -0.13631531701E+03  0.18495076937E+03  0.12499968575E+03 0.  0.
    9000005    1    3    3    0    0  0.58956607528E+02  0.12255850094E+02 -0.92878345443E+02  0.11069541312E+03  0.10000000000E+01 0.  0.
    9000005    1    3    3    0    0 -0.58956607528E+02 -0.12255850094E+02 -0.43436971570E+02  0.74255356250E+02  0.10000000000E+01 0.  0.
<mgrwt>
<rscale>  0 0.12499969E+03</rscale>
<asrwt>0</asrwt>
<pdfrwt beam="1">  1        4 0.37411887E-02 0.12499969E+03</pdfrwt>
<pdfrwt beam="2">  1       -4 0.24712775E-01 0.12499969E+03</pdfrwt>
<totfact> 0.92734017E+03</totfact>
</mgrwt>
</event>
<event>
 5    1  0.3281209E-002  0.1250003E+03  0.7818608E-02  0.1235069E+00
          4   -1    0    0  501    0  0.00000000000E+00  0.00000000000E+00  0.47375012973E+02  0.47392032602E+02  0.12700000000E+01 0.  1.
         -4   -1    0    0    0  501 -0.00000000000E+00 -0.00000000000E+00 -0.82417462561E+02  0.82427246921E+02  0.12700000000E+01 0.  1.
         25    2    1    2    0    0  0.00000000000E+00  0.00000000000E+00 -0.35042449589E+02  0.12981927952E+03  0.12500028825E+03 0.  0.
    9000005    1    3    3    0    0 -0.27128850204E+02 -0.55558086439E+02 -0.80828205427E+01  0.62361907203E+02  0.10000000000E+01 0.  0.
    9000005    1    3    3    0    0  0.27128850204E+02  0.55558086439E+02 -0.26959629046E+02  0.67457372320E+02  0.10000000000E+01 0.  0.
<mgrwt>
<rscale>  0 0.12500029E+03</rscale>
<asrwt>0</asrwt>
<pdfrwt beam="1">  1        4 0.72905254E-02 0.12500029E+03</pdfrwt>
<pdfrwt beam="2">  1       -4 0.12681671E-01 0.12500029E+03</pdfrwt>
<totfact> 0.10348308E+04</totfact>
</mgrwt>
</event>
<event>
 5    1  0.3281209E-002  0.1249963E+03  0.7818608E-02  0.1235075E+00
         -4   -1    0    0    0  501 -0.00000000000E+00  0.00000000000E+00  0.21823060758E+02  0.21859983551E+02  0.12700000000E+01 0.  1.
          4   -1    0    0  501    0  0.00000000000E+00 -0.00000000000E+00 -0.17879530557E+03  0.17879981598E+03  0.12700000000E+01 0.  1.
         25    2    1    2    0    0  0.00000000000E+00  0.00000000000E+00 -0.15697224482E+03  0.20065979953E+03  0.12499627797E+03 0.  0.
    9000005    1    3    3    0    0 -0.31820710004E+02 -0.26497886817E+02 -0.33554537097E+01  0.41556644000E+02  0.10000000000E+01 0.  0.
    9000005    1    3    3    0    0  0.31820710004E+02  0.26497886817E+02 -0.15361679111E+03  0.15910315553E+03  0.10000000000E+01 0.  0.
<mgrwt>
<rscale>  0 0.12499628E+03</rscale>
<asrwt>0</asrwt>
<pdfrwt beam="2">  1        4 0.27510156E-01 0.12499628E+03</pdfrwt>
<pdfrwt beam="1">  1       -4 0.33605813E-02 0.12499628E+03</pdfrwt>
<totfact> 0.90031843E+03</totfact>
</mgrwt>
</event>
<event>
 5    1  0.3281209E-002  0.1249935E+03  0.7818608E-02  0.1235079E+00
          4   -1    0    0  501    0  0.00000000000E+00  0.00000000000E+00  0.19886667599E+04  0.19886671654E+04  0.12700000000E+01 0.  1.
         -4   -1    0    0    0  501 -0.00000000000E+00 -0.00000000000E+00 -0.17583002549E+01  0.21689904994E+01  0.12700000000E+01 0.  1.
         25    2    1    2    0    0  0.00000000000E+00  0.00000000000E+00  0.19869084597E+04  0.19908361559E+04  0.12499349070E+03 0.  0.
    9000005    1    3    3    0    0 -0.41442687149E+02  0.10543004672E+02  0.26771287643E+03  0.27110853080E+03  0.10000000000E+01 0.  0.
    9000005    1    3    3    0    0  0.41442687149E+02 -0.10543004672E+02  0.17191955832E+04  0.17197276251E+04  0.10000000000E+01 0.  0.
<mgrwt>
<rscale>  0 0.12499349E+03</rscale>
<asrwt>0</asrwt>
<pdfrwt beam="1">  1        4 0.30598008E+00 0.12499349E+03</pdfrwt>
<pdfrwt beam="2">  1       -4 0.30213075E-03 0.12499349E+03</pdfrwt>
<totfact> 0.99827634E+02</totfact>
</mgrwt>
</event>
<event>
 5    1  0.3281209E-002  0.1249955E+03  0.7818608E-02  0.1235076E+00
         -4   -1    0    0    0  501 -0.00000000000E+00  0.00000000000E+00  0.47582960573E+03  0.47583130056E+03  0.12700000000E+01 0. -1.
          4   -1    0    0  501    0  0.00000000000E+00 -0.00000000000E+00 -0.81579084220E+01  0.82561716201E+01  0.12700000000E+01 0. -1.
         25    2    1    2    0    0  0.00000000000E+00  0.00000000000E+00  0.46767169731E+03  0.48408747218E+03  0.12499545694E+03 0.  0.
    9000005    1    3    3    0    0  0.48188497160E+02 -0.26889895244E+02  0.12027716775E+03  0.13233591654E+03  0.10000000000E+01 0.  0.
    9000005    1    3    3    0    0 -0.48188497160E+02  0.26889895244E+02  0.34739452956E+03  0.35175155564E+03  0.10000000000E+01 0.  0.
<mgrwt>
<rscale>  0 0.12499546E+03</rscale>
<asrwt>0</asrwt>
<pdfrwt beam="2">  1        4 0.12627514E-02 0.12499546E+03</pdfrwt>
<pdfrwt beam="1">  1       -4 0.73212274E-01 0.12499546E+03</pdfrwt>
<totfact> 0.57126163E+03</totfact>
</mgrwt>
</event>
<event>
 5    1  0.3281209E-002  0.1250056E+03  0.7818608E-02  0.1235060E+00
         -4   -1    0    0    0  501 -0.00000000000E+00  0.00000000000E+00  0.16410021412E+03  0.16410512843E+03  0.12700000000E+01 0. -1.
          4   -1    0    0  501    0  0.00000000000E+00 -0.00000000000E+00 -0.23783984287E+02  0.23817867423E+02  0.12700000000E+01 0. -1.
         25    2    1    2    0    0  0.00000000000E+00  0.00000000000E+00  0.14031622984E+03  0.18792299585E+03  0.12500563193E+03 0.  0.
    9000005    1    3    3    0    0 -0.24445268772E+02  0.57510238623E+02  0.71325768351E+02  0.94833348262E+02  0.10000000000E+01 0.  0.
    9000005    1    3    3    0    0  0.24445268772E+02 -0.57510238623E+02  0.68990461485E+02  0.93089647586E+02  0.10000000000E+01 0.  0.
<mgrwt>
<rscale>  0 0.12500563E+03</rscale>
<asrwt>0</asrwt>
<pdfrwt beam="2">  1        4 0.36620590E-02 0.12500563E+03</pdfrwt>
<pdfrwt beam="1">  1       -4 0.25249171E-01 0.12500563E+03</pdfrwt>
<totfact> 0.92198333E+03</totfact>
</mgrwt>
</event>
<event>
 5    1  0.3281209E-002  0.1249977E+03  0.7818608E-02  0.1235073E+00
          4   -1    0    0  501    0  0.00000000000E+00  0.00000000000E+00  0.23681460175E+02  0.23715489791E+02  0.12700000000E+01 0.  1.
         -4   -1    0    0    0  501 -0.00000000000E+00 -0.00000000000E+00 -0.16478871701E+03  0.16479361077E+03  0.12700000000E+01 0.  1.
         25    2    1    2    0    0  0.00000000000E+00  0.00000000000E+00 -0.14110725683E+03  0.18850910057E+03  0.12499769224E+03 0.  0.
    9000005    1    3    3    0    0  0.55938413183E+02  0.23462334763E+02 -0.93201190365E+02  0.11120723496E+03  0.10000000000E+01 0.  0.
    9000005    1    3    3    0    0 -0.55938413183E+02 -0.23462334763E+02 -0.47906066465E+02  0.77301865606E+02  0.10000000000E+01 0.  0.
<mgrwt>
<rscale>  0 0.12499769E+03</rscale>
<asrwt>0</asrwt>
<pdfrwt beam="1">  1        4 0.36462958E-02 0.12499769E+03</pdfrwt>
<pdfrwt beam="2">  1       -4 0.25355104E-01 0.12499769E+03</pdfrwt>
<totfact> 0.92112137E+03</totfact>
</mgrwt>
</event>
<event>
 5    1  0.3281209E-002  0.1250316E+03  0.7818608E-02  0.1235020E+00
          4   -1    0    0  501    0  0.00000000000E+00  0.00000000000E+00  0.18713040238E+03  0.18713471189E+03  0.12700000000E+01 0. -1.
         -4   -1    0    0    0  501 -0.00000000000E+00 -0.00000000000E+00 -0.20861189828E+02  0.20899811986E+02  0.12700000000E+01 0. -1.
         25    2    1    2    0    0  0.00000000000E+00  0.00000000000E+00  0.16626921255E+03  0.20803452388E+03  0.12503164432E+03 0.  0.
    9000005    1    3    3    0    0 -0.22752973717E+02 -0.55488461500E+02  0.11245628444E+03  0.12745227766E+03  0.10000000000E+01 0.  0.
    9000005    1    3    3    0    0  0.22752973717E+02  0.55488461500E+02  0.53812928117E+02  0.80582246215E+02  0.10000000000E+01 0.  0.
<mgrwt>
<rscale>  0 0.12503164E+03</rscale>
<asrwt>0</asrwt>
<pdfrwt beam="1">  1        4 0.28792595E-01 0.12503164E+03</pdfrwt>
<pdfrwt beam="2">  1       -4 0.32127163E-02 0.12503164E+03</pdfrwt>
<totfact> 0.88735075E+03</totfact>
</mgrwt>
</event>
<event>
 5    1  0.3281209E-002  0.1249915E+03  0.7818608E-02  0.1235083E+00
          4   -1    0    0  501    0  0.00000000000E+00  0.00000000000E+00  0.24137076511E+04  0.24137079852E+04  0.12700000000E+01 0. -1.
         -4   -1    0    0    0  501 -0.00000000000E+00 -0.00000000000E+00 -0.13685638429E+01  0.18670476673E+01  0.12700000000E+01 0. -1.
         25    2    1    2    0    0  0.00000000000E+00  0.00000000000E+00  0.24123390873E+04  0.24155750329E+04  0.12499146996E+03 0.  0.
    9000005    1    3    3    0    0 -0.22186471645E+02 -0.51727139627E+02  0.17307464729E+04  0.17316617135E+04  0.10000000000E+01 0.  0.
    9000005    1    3    3    0    0  0.22186471645E+02  0.51727139627E+02  0.68159261439E+03  0.68391331943E+03  0.10000000000E+01 0.  0.
<mgrwt>
<rscale>  0 0.12499147E+03</rscale>
<asrwt>0</asrwt>
<pdfrwt beam="1">  1        4 0.37138088E+00 0.12499147E+03</pdfrwt>
<pdfrwt beam="2">  1       -4 0.24891697E-03 0.12499147E+03</pdfrwt>
<totfact> 0.53678381E+02</totfact>
</mgrwt>
</event>
<event>
 5    1  0.3281209E-002  0.1250023E+03  0.7818608E-02  0.1235066E+00
          4   -1    0    0  501    0  0.00000000000E+00  0.00000000000E+00  0.58624503206E+02  0.58638257786E+02  0.12700000000E+01 0.  1.
         -4   -1    0    0    0  501 -0.00000000000E+00 -0.00000000000E+00 -0.66606512576E+02  0.66618619151E+02  0.12700000000E+01 0.  1.
         25    2    1    2    0    0  0.00000000000E+00  0.00000000000E+00 -0.79820093702E+01  0.12525687694E+03  0.12500229096E+03 0.  0.
    9000005    1    3    3    0    0  0.56967901602E+02 -0.25094950790E+02  0.15242780871E+01  0.62276976418E+02  0.10000000000E+01 0.  0.
    9000005    1    3    3    0    0 -0.56967901602E+02  0.25094950790E+02 -0.95062874573E+01  0.62979900518E+02  0.10000000000E+01 0.  0.
<mgrwt>
<rscale>  0 0.12500229E+03</rscale>
<asrwt>0</asrwt>
<pdfrwt beam="1">  1        4 0.90211436E-02 0.12500229E+03</pdfrwt>
<pdfrwt beam="2">  1       -4 0.10249145E-01 0.12500229E+03</pdfrwt>
<totfact> 0.10446745E+04</totfact>
</mgrwt>
</event>
<event>
 5    1  0.3281209E-002  0.1250021E+03  0.7818608E-02  0.1235066E+00
          4   -1    0    0  501    0  0.00000000000E+00  0.00000000000E+00  0.90106907589E+03  0.90106997088E+03  0.12700000000E+01 0.  1.
         -4   -1    0    0    0  501 -0.00000000000E+00 -0.00000000000E+00 -0.42413453247E+01  0.44274044499E+01  0.12700000000E+01 0.  1.
         25    2    1    2    0    0  0.00000000000E+00  0.00000000000E+00  0.89682773056E+03  0.90549737533E+03  0.12500207367E+03 0.  0.
    9000005    1    3    3    0    0 -0.36991127245E+02  0.29815658047E+02  0.74248800566E+03  0.74400722813E+03  0.10000000000E+01 0.  0.
    9000005    1    3    3    0    0  0.36991127245E+02 -0.29815658047E+02  0.15433972490E+03  0.16149014720E+03  0.10000000000E+01 0.  0.
<mgrwt>
<rscale>  0 0.12500207E+03</rscale>
<asrwt>0</asrwt>
<pdfrwt beam="1">  1        4 0.13864051E+00 0.12500207E+03</pdfrwt>
<pdfrwt beam="2">  1       -4 0.66689518E-03 0.12500207E+03</pdfrwt>
<totfact> 0.33948723E+03</totfact>
</mgrwt>
</event>
<event>
 5    1  0.3281209E-002  0.1250015E+03  0.7818608E-02  0.1235067E+00
          4   -1    0    0  501    0  0.00000000000E+00  0.00000000000E+00  0.54563341857E+01  0.56021855330E+01  0.12700000000E+01 0. -1.
         -4   -1    0    0    0  501 -0.00000000000E+00 -0.00000000000E+00 -0.70633884918E+03  0.70633999092E+03  0.12700000000E+01 0. -1.
         25    2    1    2    0    0  0.00000000000E+00  0.00000000000E+00 -0.70088251500E+03  0.71194217645E+03  0.12500145110E+03 0.  0.
    9000005    1    3    3    0    0  0.35820323821E+02 -0.32268693693E+02 -0.57690171218E+03  0.57891359434E+03  0.10000000000E+01 0.  0.
    9000005    1    3    3    0    0 -0.35820323821E+02  0.32268693693E+02 -0.12398080282E+03  0.13302858211E+03  0.10000000000E+01 0.  0.
<mgrwt>
<rscale>  0 0.12500145E+03</rscale>
<asrwt>0</asrwt>
<pdfrwt beam="1">  1        4 0.85074375E-03 0.12500145E+03</pdfrwt>
<pdfrwt beam="2">  1       -4 0.10867875E+00 0.12500145E+03</pdfrwt>
<totfact> 0.42462416E+03</totfact>
</mgrwt>
</event>
<event>
 5    1  0.3281209E-002  0.1249994E+03  0.7818608E-02  0.1235070E+00
          4   -1    0    0  501    0  0.00000000000E+00  0.00000000000E+00  0.20069690217E+03  0.20070092038E+03  0.12700000000E+01 0. -1.
         -4   -1    0    0    0  501 -0.00000000000E+00 -0.00000000000E+00 -0.19438305698E+02  0.19479749188E+02  0.12700000000E+01 0. -1.
         25    2    1    2    0    0  0.00000000000E+00  0.00000000000E+00  0.18125859647E+03  0.22018066957E+03  0.12499939382E+03 0.  0.
    9000005    1    3    3    0    0  0.49798405074E+02 -0.15059614696E+02  0.15161069410E+03  0.16029184542E+03  0.10000000000E+01 0.  0.
    9000005    1    3    3    0    0 -0.49798405074E+02  0.15059614696E+02  0.29647902375E+02  0.59888824149E+02  0.10000000000E+01 0.  0.
<mgrwt>
<rscale>  0 0.12499939E+03</rscale>
<asrwt>0</asrwt>
<pdfrwt beam="1">  1        4 0.30879945E-01 0.12499939E+03</pdfrwt>
<pdfrwt beam="2">  1       -4 0.29940055E-02 0.12499939E+03</pdfrwt>
<totfact> 0.86840943E+03</totfact>
</mgrwt>
</event>
<event>
 5    1  0.3281209E-002  0.1250120E+03  0.7818608E-02  0.1235051E+00
          4   -1    0    0  501    0  0.00000000000E+00  0.00000000000E+00  0.61270375311E+02  0.61283536050E+02  0.12700000000E+01 0. -1.
         -4   -1    0    0    0  501 -0.00000000000E+00 -0.00000000000E+00 -0.63740190208E+02  0.63752841095E+02  0.12700000000E+01 0. -1.
         25    2    1    2    0    0  0.00000000000E+00  0.00000000000E+00 -0.24698148968E+01  0.12503637715E+03  0.12501198192E+03 0.  0.
    9000005    1    3    3    0    0 -0.31225260814E+02 -0.49989454403E+02 -0.22024449914E+02  0.62928839639E+02  0.10000000000E+01 0.  0.
    9000005    1    3    3    0    0  0.31225260814E+02  0.49989454403E+02  0.19554635017E+02  0.62107537506E+02  0.10000000000E+01 0.  0.
<mgrwt>
<rscale>  0 0.12501198E+03</rscale>
<asrwt>0</asrwt>
<pdfrwt beam="1">  1        4 0.94281971E-02 0.12501198E+03</pdfrwt>
<pdfrwt beam="2">  1       -4 0.98081686E-02 0.12501198E+03</pdfrwt>
<totfact> 0.10449243E+04</totfact>
</mgrwt>
</event>
<event>
 5    1  0.3281209E-002  0.1249999E+03  0.7818608E-02  0.1235069E+00
         -4   -1    0    0    0  501 -0.00000000000E+00  0.00000000000E+00  0.35110213055E+03  0.35110442746E+03  0.12700000000E+01 0. -1.
          4   -1    0    0  501    0  0.00000000000E+00 -0.00000000000E+00 -0.11087073151E+02  0.11159573964E+02  0.12700000000E+01 0. -1.
         25    2    1    2    0    0  0.00000000000E+00  0.00000000000E+00  0.34001505740E+03  0.36226400142E+03  0.12499986986E+03 0.  0.
    9000005    1    3    3    0    0 -0.11240495641E+02 -0.61472147112E+02  0.17076467036E+03  0.18184264147E+03  0.10000000000E+01 0.  0.
    9000005    1    3    3    0    0  0.11240495641E+02  0.61472147112E+02  0.16925038704E+03  0.18042135995E+03  0.10000000000E+01 0.  0.
<mgrwt>
<rscale>  0 0.12499987E+03</rscale>
<asrwt>0</asrwt>
<pdfrwt beam="2">  1        4 0.17114574E-02 0.12499987E+03</pdfrwt>
<pdfrwt beam="1">  1       -4 0.54021460E-01 0.12499987E+03</pdfrwt>
<totfact> 0.68396308E+03</totfact>
</mgrwt>
</event>
<event>
 5    1  0.3281209E-002  0.1249992E+03  0.7818608E-02  0.1235071E+00
          4   -1    0    0  501    0  0.00000000000E+00  0.00000000000E+00  0.35412327727E+02  0.35435093552E+02  0.12700000000E+01 0.  1.
         -4   -1    0    0    0  501 -0.00000000000E+00 -0.00000000000E+00 -0.11024429084E+03  0.11025160571E+03  0.12700000000E+01 0.  1.
         25    2    1    2    0    0  0.00000000000E+00  0.00000000000E+00 -0.74831963110E+02  0.14568669926E+03  0.12499916656E+03 0.  0.
    9000005    1    3    3    0    0 -0.33748133672E+02 -0.52349663290E+02 -0.43333026290E+02  0.75882639255E+02  0.10000000000E+01 0.  0.
    9000005    1    3    3    0    0  0.33748133672E+02  0.52349663290E+02 -0.31498936820E+02  0.69804060009E+02  0.10000000000E+01 0.  0.
<mgrwt>
<rscale>  0 0.12499917E+03</rscale>
<asrwt>0</asrwt>
<pdfrwt beam="1">  1        4 0.54503643E-02 0.12499917E+03</pdfrwt>
<pdfrwt beam="2">  1       -4 0.16962974E-01 0.12499917E+03</pdfrwt>
<totfact> 0.10017243E+04</totfact>
</mgrwt>
</event>
<event>
 5    1  0.3281209E-002  0.1250001E+03  0.7818608E-02  0.1235069E+00
          4   -1    0    0  501    0  0.00000000000E+00  0.00000000000E+00  0.51947950467E+02  0.51963472341E+02  0.12700000000E+01 0. -1.
         -4   -1    0    0    0  501 -0.00000000000E+00 -0.00000000000E+00 -0.75163413874E+02  0.75174142398E+02  0.12700000000E+01 0. -1.
         25    2    1    2    0    0  0.00000000000E+00  0.00000000000E+00 -0.23215463407E+02  0.12713761474E+03  0.12500006136E+03 0.  0.
    9000005    1    3    3    0    0  0.45573404038E+02 -0.42355530811E+02 -0.56485569960E+01  0.62480655742E+02  0.10000000000E+01 0.  0.
    9000005    1    3    3    0    0 -0.45573404038E+02  0.42355530811E+02 -0.17566906411E+02  0.64656958997E+02  0.10000000000E+01 0.  0.
<mgrwt>
<rscale>  0 0.12500006E+03</rscale>
<asrwt>0</asrwt>
<pdfrwt beam="1">  1        4 0.79940116E-02 0.12500006E+03</pdfrwt>
<pdfrwt beam="2">  1       -4 0.11565621E-01 0.12500006E+03</pdfrwt>
<totfact> 0.10406143E+04</totfact>
</mgrwt>
</event>
<event>
 5    1  0.3281209E-002  0.1249998E+03  0.7818608E-02  0.1235070E+00
         -4   -1    0    0    0  501 -0.00000000000E+00  0.00000000000E+00  0.10537952108E+02  0.10614204380E+02  0.12700000000E+01 0. -1.
          4   -1    0    0  501    0  0.00000000000E+00 -0.00000000000E+00 -0.36926896925E+03  0.36927115316E+03  0.12700000000E+01 0. -1.
         25    2    1    2    0    0  0.00000000000E+00  0.00000000000E+00 -0.35873101715E+03  0.37988535754E+03  0.12499976883E+03 0.  0.
    9000005    1    3    3    0    0  0.17854536337E+02 -0.95954535940E+01  0.28494070976E+00  0.20296265388E+02  0.10000000000E+01 0.  0.
    9000005    1    3    3    0    0 -0.17854536337E+02  0.95954535940E+01 -0.35901595786E+03  0.35958909215E+03  0.10000000000E+01 0.  0.
<mgrwt>
<rscale>  0 0.12499977E+03</rscale>
<asrwt>0</asrwt>
<pdfrwt beam="2">  1        4 0.56816634E-01 0.12499977E+03</pdfrwt>
<pdfrwt beam="1">  1       -4 0.16272572E-02 0.12499977E+03</pdfrwt>
<totfact> 0.66557614E+03</totfact>
</mgrwt>
</event>
<event>
 5    1  0.3281209E-002  0.1249994E+03  0.7818608E-02  0.1235070E+00
         -4   -1    0    0    0  501 -0.00000000000E+00  0.00000000000E+00  0.80841610960E+02  0.80851586024E+02  0.12700000000E+01 0. -1.
          4   -1    0    0  501    0  0.00000000000E+00 -0.00000000000E+00 -0.48298039346E+02  0.48314733826E+02  0.12700000000E+01 0. -1.
         25    2    1    2    0    0  0.00000000000E+00  0.00000000000E+00  0.32543571614E+02  0.12916631985E+03  0.12499941652E+03 0.  0.
    9000005    1    3    3    0    0  0.56430209646E+02 -0.21602997688E+02 -0.20190932853E+00  0.60432597472E+02  0.10000000000E+01 0.  0.
    9000005    1    3    3    0    0 -0.56430209646E+02  0.21602997688E+02  0.32745480942E+02  0.68733722378E+02  0.10000000000E+01 0.  0.
<mgrwt>
<rscale>  0 0.12499942E+03</rscale>
<asrwt>0</asrwt>
<pdfrwt beam="2">  1        4 0.74325192E-02 0.12499942E+03</pdfrwt>
<pdfrwt beam="1">  1       -4 0.12439222E-01 0.12499942E+03</pdfrwt>
<totfact> 0.10362511E+04</totfact>
</mgrwt>
</event>
<event>
 5    1  0.3281209E-002  0.1249965E+03  0.7818608E-02  0.1235075E+00
          4   -1    0    0  501    0  0.00000000000E+00  0.00000000000E+00  0.52563902983E+02  0.52579243022E+02  0.12700000000E+01 0. -1.
         -4   -1    0    0    0  501 -0.00000000000E+00 -0.00000000000E+00 -0.74278495808E+02  0.74289352127E+02  0.12700000000E+01 0. -1.
         25    2    1    2    0    0  0.00000000000E+00  0.00000000000E+00 -0.21714592825E+02  0.12686859515E+03  0.12499646752E+03 0.  0.
    9000005    1    3    3    0    0  0.41188962916E+02  0.39864372937E+02 -0.36116378525E+02  0.67757595098E+02  0.10000000000E+01 0.  0.
    9000005    1    3    3    0    0 -0.41188962916E+02 -0.39864372937E+02  0.14401785700E+02  0.59111000051E+02  0.10000000000E+01 0.  0.
<mgrwt>
<rscale>  0 0.12499647E+03</rscale>
<asrwt>0</asrwt>
<pdfrwt beam="1">  1        4 0.80887694E-02 0.12499647E+03</pdfrwt>
<pdfrwt beam="2">  1       -4 0.11429476E-01 0.12499647E+03</pdfrwt>
<totfact> 0.10412832E+04</totfact>
</mgrwt>
</event>
<event>
 5    1  0.3281209E-002  0.1250006E+03  0.7818608E-02  0.1235068E+00
         -4   -1    0    0    0  501 -0.00000000000E+00  0.00000000000E+00  0.71833606389E+02  0.71844832151E+02  0.12700000000E+01 0.  1.
          4   -1    0    0  501    0  0.00000000000E+00 -0.00000000000E+00 -0.54356754350E+02  0.54371588568E+02  0.12700000000E+01 0.  1.
         25    2    1    2    0    0  0.00000000000E+00  0.00000000000E+00  0.17476852039E+02  0.12621642072E+03  0.12500057801E+03 0.  0.
    9000005    1    3    3    0    0  0.33000057779E+02  0.50240576680E+02  0.25997569786E+02  0.65498038088E+02  0.10000000000E+01 0.  0.
    9000005    1    3    3    0    0 -0.33000057779E+02 -0.50240576680E+02 -0.85207177473E+01  0.60718382632E+02  0.10000000000E+01 0.  0.
<mgrwt>
<rscale>  0 0.12500058E+03</rscale>
<asrwt>0</asrwt>
<pdfrwt beam="2">  1        4 0.83645823E-02 0.12500058E+03</pdfrwt>
<pdfrwt beam="1">  1       -4 0.11053329E-01 0.12500058E+03</pdfrwt>
<totfact> 0.10426084E+04</totfact>
</mgrwt>
</event>
<event>
 5    1  0.3281209E-002  0.1250000E+03  0.7818608E-02  0.1235069E+00
         -4   -1    0    0    0  501 -0.00000000000E+00  0.00000000000E+00  0.11777558444E+03  0.11778243159E+03  0.12700000000E+01 0.  1.
          4   -1    0    0  501    0  0.00000000000E+00 -0.00000000000E+00 -0.33146910783E+02  0.33171231428E+02  0.12700000000E+01 0.  1.
         25    2    1    2    0    0  0.00000000000E+00  0.00000000000E+00  0.84628673659E+02  0.15095366302E+03  0.12499998389E+03 0.  0.
    9000005    1    3    3    0    0  0.48488338937E+02 -0.27264545432E+02  0.79281711859E+01  0.56199024447E+02  0.10000000000E+01 0.  0.
    9000005    1    3    3    0    0 -0.48488338937E+02  0.27264545432E+02  0.76700502474E+02  0.94754638568E+02  0.10000000000E+01 0.  0.
<mgrwt>
<rscale>  0 0.12499998E+03</rscale>
<asrwt>0</asrwt>
<pdfrwt beam="2">  1        4 0.51019223E-02 0.12499998E+03</pdfrwt>
<pdfrwt beam="1">  1       -4 0.18121718E-01 0.12499998E+03</pdfrwt>
<totfact> 0.99113974E+03</totfact>
</mgrwt>
</event>
<event>
 5    1  0.3281209E-002  0.1249963E+03  0.7818608E-02  0.1235075E+00
         -4   -1    0    0    0  501 -0.00000000000E+00  0.00000000000E+00  0.33185738151E+03  0.33185981161E+03  0.12700000000E+01 0.  1.
          4   -1    0    0  501    0  0.00000000000E+00 -0.00000000000E+00 -0.11733434559E+02  0.11801965369E+02  0.12700000000E+01 0.  1.
         25    2    1    2    0    0  0.00000000000E+00  0.00000000000E+00  0.32012394695E+03  0.34366177698E+03  0.12499630213E+03 0.  0.
    9000005    1    3    3    0    0  0.88491034280E+01 -0.15781623487E+02 -0.43877512093E+01  0.18644533570E+02  0.10000000000E+01 0.  0.
    9000005    1    3    3    0    0 -0.88491034280E+01  0.15781623487E+02  0.32451169816E+03  0.32501724341E+03  0.10000000000E+01 0.  0.
<mgrwt>
<rscale>  0 0.12499630E+03</rscale>
<asrwt>0</asrwt>
<pdfrwt beam="2">  1        4 0.18106024E-02 0.12499630E+03</pdfrwt>
<pdfrwt beam="1">  1       -4 0.51060436E-01 0.12499630E+03</pdfrwt>
<totfact> 0.70433279E+03</totfact>
</mgrwt>
</event>
<event>
 5    1  0.3281209E-002  0.1250030E+03  0.7818608E-02  0.1235065E+00
          4   -1    0    0  501    0  0.00000000000E+00  0.00000000000E+00  0.32933335882E+03  0.32933580755E+03  0.12700000000E+01 0. -1.
         -4   -1    0    0    0  501 -0.00000000000E+00 -0.00000000000E+00 -0.11825158626E+02  0.11893160914E+02  0.12700000000E+01 0. -1.
         25    2    1    2    0    0  0.00000000000E+00  0.00000000000E+00  0.31750820020E+03  0.34122896846E+03  0.12500300687E+03 0.  0.
    9000005    1    3    3    0    0  0.42717098007E+02 -0.35878527749E+02  0.23564530278E+03  0.24216054166E+03  0.10000000000E+01 0.  0.
    9000005    1    3    3    0    0 -0.42717098007E+02  0.35878527749E+02  0.81862897421E+02  0.99068426806E+02  0.10000000000E+01 0.  0.
<mgrwt>
<rscale>  0 0.12500301E+03</rscale>
<asrwt>0</asrwt>
<pdfrwt beam="1">  1        4 0.50672083E-01 0.12500301E+03</pdfrwt>
<pdfrwt beam="2">  1       -4 0.18246747E-02 0.12500301E+03</pdfrwt>
<totfact> 0.70695675E+03</totfact>
</mgrwt>
</event>
<event>
 5    1  0.3281209E-002  0.1249997E+03  0.7818608E-02  0.1235070E+00
          4   -1    0    0  501    0  0.00000000000E+00  0.00000000000E+00  0.62055445604E+01  0.63341679241E+01  0.12700000000E+01 0.  1.
         -4   -1    0    0    0  501 -0.00000000000E+00 -0.00000000000E+00 -0.62288803232E+03  0.62288932701E+03  0.12700000000E+01 0.  1.
         25    2    1    2    0    0  0.00000000000E+00  0.00000000000E+00 -0.61668248775E+03  0.62922349493E+03  0.12499966349E+03 0.  0.
    9000005    1    3    3    0    0  0.26170066039E+02  0.24906125873E+02 -0.51664673835E+02  0.63050979255E+02  0.10000000000E+01 0.  0.
    9000005    1    3    3    0    0 -0.26170066039E+02 -0.24906125873E+02 -0.56501781392E+03  0.56617251568E+03  0.10000000000E+01 0.  0.
<mgrwt>
<rscale>  0 0.12499966E+03</rscale>
<asrwt>0</asrwt>
<pdfrwt beam="1">  1        4 0.96469335E-03 0.12499966E+03</pdfrwt>
<pdfrwt beam="2">  1       -4 0.95838873E-01 0.12499966E+03</pdfrwt>
<totfact> 0.47073779E+03</totfact>
</mgrwt>
</event>
<event>
 5    1  0.3281209E-002  0.1249974E+03  0.7818608E-02  0.1235073E+00
         -4   -1    0    0    0  501 -0.00000000000E+00  0.00000000000E+00  0.11937767520E+04  0.11937774275E+04  0.12700000000E+01 0. -1.
          4   -1    0    0  501    0  0.00000000000E+00 -0.00000000000E+00 -0.31481059932E+01  0.33946238885E+01  0.12700000000E+01 0. -1.
         25    2    1    2    0    0  0.00000000000E+00  0.00000000000E+00  0.11906286460E+04  0.11971720514E+04  0.12499739214E+03 0.  0.
    9000005    1    3    3    0    0 -0.13287507745E+02  0.56498510790E+02  0.37348487404E+03  0.37796903408E+03  0.10000000000E+01 0.  0.
    9000005    1    3    3    0    0  0.13287507745E+02 -0.56498510790E+02  0.81714377194E+03  0.81920301733E+03  0.10000000000E+01 0.  0.
<mgrwt>
<rscale>  0 0.12499739E+03</rscale>
<asrwt>0</asrwt>
<pdfrwt beam="2">  1        4 0.50333836E-03 0.12499739E+03</pdfrwt>
<pdfrwt beam="1">  1       -4 0.18367717E+00 0.12499739E+03</pdfrwt>
<totfact> 0.24788266E+03</totfact>
</mgrwt>
</event>
<event>
 5    1  0.3281209E-002  0.1249875E+03  0.7818608E-02  0.1235089E+00
          4   -1    0    0  501    0  0.00000000000E+00  0.00000000000E+00  0.37948133089E+02  0.37969378517E+02  0.12700000000E+01 0.  1.
         -4   -1    0    0    0  501 -0.00000000000E+00 -0.00000000000E+00 -0.10286207022E+03  0.10286991003E+03  0.12700000000E+01 0.  1.
         25    2    1    2    0    0  0.00000000000E+00  0.00000000000E+00 -0.64913937128E+02  0.14083928855E+03  0.12498754324E+03 0.  0.
    9000005    1    3    3    0    0 -0.35827013960E+02 -0.36300128521E+02  0.82212724579E+01  0.51670722666E+02  0.10000000000E+01 0.  0.
    9000005    1    3    3    0    0  0.35827013960E+02  0.36300128521E+02 -0.73135209586E+02  0.89168565880E+02  0.10000000000E+01 0.  0.
<mgrwt>
<rscale>  0 0.12498754E+03</rscale>
<asrwt>0</asrwt>
<pdfrwt beam="1">  1        4 0.58404117E-02 0.12498754E+03</pdfrwt>
<pdfrwt beam="2">  1       -4 0.15827171E-01 0.12498754E+03</pdfrwt>
<totfact> 0.10119060E+04</totfact>
</mgrwt>
</event>
<event>
 5    1  0.3281209E-002  0.1249996E+03  0.7818608E-02  0.1235070E+00
         -4   -1    0    0    0  501 -0.00000000000E+00  0.00000000000E+00  0.14736317953E+02  0.14790942053E+02  0.12700000000E+01 0. -1.
          4   -1    0    0  501    0  0.00000000000E+00 -0.00000000000E+00 -0.26452834139E+03  0.26453139000E+03  0.12700000000E+01 0. -1.
         25    2    1    2    0    0  0.00000000000E+00  0.00000000000E+00 -0.24979202343E+03  0.27932233206E+03  0.12499964086E+03 0.  0.
    9000005    1    3    3    0    0  0.28902927747E+02 -0.47921544632E+02 -0.18703893004E+03  0.19523425678E+03  0.10000000000E+01 0.  0.
    9000005    1    3    3    0    0 -0.28902927747E+02  0.47921544632E+02 -0.62753093396E+02  0.84088075273E+02  0.10000000000E+01 0.  0.
<mgrwt>
<rscale>  0 0.12499964E+03</rscale>
<asrwt>0</asrwt>
<pdfrwt beam="2">  1        4 0.40701101E-01 0.12499964E+03</pdfrwt>
<pdfrwt beam="1">  1       -4 0.22715624E-02 0.12499964E+03</pdfrwt>
<totfact> 0.78268671E+03</totfact>
</mgrwt>
</event>
<event>
 5    1  0.3281209E-002  0.1249782E+03  0.7818608E-02  0.1235103E+00
         -4   -1    0    0    0  501 -0.00000000000E+00  0.00000000000E+00  0.13290791945E+04  0.13290798013E+04  0.12700000000E+01 0.  1.
          4   -1    0    0  501    0  0.00000000000E+00 -0.00000000000E+00 -0.28001590577E+01  0.30747017332E+01  0.12700000000E+01 0.  1.
         25    2    1    2    0    0  0.00000000000E+00  0.00000000000E+00  0.13262790355E+04  0.13321545030E+04  0.12497815820E+03 0.  0.
    9000005    1    3    3    0    0  0.40278347621E+02  0.27562660157E+02  0.24731997079E+03  0.25209167673E+03  0.10000000000E+01 0.  0.
    9000005    1    3    3    0    0 -0.40278347621E+02 -0.27562660157E+02  0.10789590647E+04  0.10800628263E+04  0.10000000000E+01 0.  0.
<mgrwt>
<rscale>  0 0.12497816E+03</rscale>
<asrwt>0</asrwt>
<pdfrwt beam="2">  1        4 0.45195978E-03 0.12497816E+03</pdfrwt>
<pdfrwt beam="1">  1       -4 0.20449456E+00 0.12497816E+03</pdfrwt>
<totfact> 0.21492395E+03</totfact>
</mgrwt>
</event>
<event>
 5    1  0.3281209E-002  0.1250072E+03  0.7818608E-02  0.1235058E+00
         -4   -1    0    0    0  501 -0.00000000000E+00  0.00000000000E+00  0.19728183458E+02  0.19769019261E+02  0.12700000000E+01 0. -1.
          4   -1    0    0  501    0  0.00000000000E+00 -0.00000000000E+00 -0.19777870936E+03  0.19778278686E+03  0.12700000000E+01 0. -1.
         25    2    1    2    0    0  0.00000000000E+00  0.00000000000E+00 -0.17805052591E+03  0.21755180612E+03  0.12500719407E+03 0.  0.
    9000005    1    3    3    0    0 -0.17808568318E+02  0.51537967838E+02 -0.14216593598E+03  0.15226772668E+03  0.10000000000E+01 0.  0.
    9000005    1    3    3    0    0  0.17808568318E+02 -0.51537967838E+02 -0.35884589926E+02  0.65284079442E+02  0.10000000000E+01 0.  0.
<mgrwt>
<rscale>  0 0.12500719E+03</rscale>
<asrwt>0</asrwt>
<pdfrwt beam="2">  1        4 0.30430947E-01 0.12500719E+03</pdfrwt>
<pdfrwt beam="1">  1       -4 0.30385602E-02 0.12500719E+03</pdfrwt>
<totfact> 0.87243210E+03</totfact>
</mgrwt>
</event>
<event>
 5    1  0.3281209E-002  0.1250034E+03  0.7818608E-02  0.1235064E+00
          4   -1    0    0  501    0  0.00000000000E+00  0.00000000000E+00  0.21288168060E+03  0.21288546882E+03  0.12700000000E+01 0.  1.
         -4   -1    0    0    0  501 -0.00000000000E+00 -0.00000000000E+00 -0.18324465501E+02  0.18368422248E+02  0.12700000000E+01 0.  1.
         25    2    1    2    0    0  0.00000000000E+00  0.00000000000E+00  0.19455721510E+03  0.23125389107E+03  0.12500340870E+03 0.  0.
    9000005    1    3    3    0    0 -0.57896052825E+02  0.23417862015E+02  0.10146212228E+03  0.11914659648E+03  0.10000000000E+01 0.  0.
    9000005    1    3    3    0    0  0.57896052825E+02 -0.23417862015E+02  0.93095092816E+02  0.11210729459E+03  0.10000000000E+01 0.  0.
<mgrwt>
<rscale>  0 0.12500341E+03</rscale>
<asrwt>0</asrwt>
<pdfrwt beam="1">  1        4 0.32754703E-01 0.12500341E+03</pdfrwt>
<pdfrwt beam="2">  1       -4 0.28228210E-02 0.12500341E+03</pdfrwt>
<totfact> 0.85110956E+03</totfact>
</mgrwt>
</event>
<event>
 5    1  0.3281209E-002  0.1250077E+03  0.7818608E-02  0.1235057E+00
          4   -1    0    0  501    0  0.00000000000E+00  0.00000000000E+00  0.92687575830E+03  0.92687662837E+03  0.12700000000E+01 0. -1.
         -4   -1    0    0    0  501 -0.00000000000E+00 -0.00000000000E+00 -0.41183895000E+01  0.43097600947E+01  0.12700000000E+01 0. -1.
         25    2    1    2    0    0  0.00000000000E+00  0.00000000000E+00  0.92275736880E+03  0.93118638846E+03  0.12500771333E+03 0.  0.
    9000005    1    3    3    0    0 -0.44095945893E+02 -0.20276812776E+02  0.75465969304E+03  0.75621944823E+03  0.10000000000E+01 0.  0.
    9000005    1    3    3    0    0  0.44095945893E+02  0.20276812776E+02  0.16809767575E+03  0.17496694023E+03  0.10000000000E+01 0.  0.
<mgrwt>
<rscale>  0 0.12500771E+03</rscale>
<asrwt>0</asrwt>
<pdfrwt beam="1">  1        4 0.14261119E+00 0.12500771E+03</pdfrwt>
<pdfrwt beam="2">  1       -4 0.64838554E-03 0.12500771E+03</pdfrwt>
<totfact> 0.32987904E+03</totfact>
</mgrwt>
</event>
<event>
 5    1  0.3281209E-002  0.1249996E+03  0.7818608E-02  0.1235070E+00
          4   -1    0    0  501    0  0.00000000000E+00  0.00000000000E+00  0.71662737330E+01  0.72779378409E+01  0.12700000000E+01 0. -1.
         -4   -1    0    0    0  501 -0.00000000000E+00 -0.00000000000E+00 -0.54075793917E+03  0.54075943050E+03  0.12700000000E+01 0. -1.
         25    2    1    2    0    0  0.00000000000E+00  0.00000000000E+00 -0.53359166543E+03  0.54803736834E+03  0.12499956670E+03 0.  0.
    9000005    1    3    3    0    0 -0.59214014896E+02 -0.19268753558E+02 -0.24374647333E+03  0.25157688225E+03  0.10000000000E+01 0.  0.
    9000005    1    3    3    0    0  0.59214014896E+02  0.19268753558E+02 -0.28984519210E+03  0.29646048608E+03  0.10000000000E+01 0.  0.
<mgrwt>
<rscale>  0 0.12499957E+03</rscale>
<asrwt>0</asrwt>
<pdfrwt beam="1">  1        4 0.11112083E-02 0.12499957E+03</pdfrwt>
<pdfrwt beam="2">  1       -4 0.83202202E-01 0.12499957E+03</pdfrwt>
<totfact> 0.52321511E+03</totfact>
</mgrwt>
</event>
<event>
 5    1  0.3281209E-002  0.1249980E+03  0.7818608E-02  0.1235072E+00
          4   -1    0    0  501    0  0.00000000000E+00  0.00000000000E+00  0.91433109933E+02  0.91441929617E+02  0.12700000000E+01 0.  1.
         -4   -1    0    0    0  501 -0.00000000000E+00 -0.00000000000E+00 -0.42700779432E+02  0.42719661329E+02  0.12700000000E+01 0.  1.
         25    2    1    2    0    0  0.00000000000E+00  0.00000000000E+00  0.48732330502E+02  0.13416159095E+03  0.12499796978E+03 0.  0.
    9000005    1    3    3    0    0 -0.38107331682E+02  0.81673115364E+01  0.76796563574E+02  0.86125407880E+02  0.10000000000E+01 0.  0.
    9000005    1    3    3    0    0  0.38107331682E+02 -0.81673115364E+01 -0.28064233073E+02  0.48036183066E+02  0.10000000000E+01 0.  0.
<mgrwt>
<rscale>  0 0.12499797E+03</rscale>
<asrwt>0</asrwt>
<pdfrwt beam="1">  1        4 0.14068763E-01 0.12499797E+03</pdfrwt>
<pdfrwt beam="2">  1       -4 0.65714817E-02 0.12499797E+03</pdfrwt>
<totfact> 0.10256242E+04</totfact>
</mgrwt>
</event>
<event>
 5    1  0.3281209E-002  0.1249964E+03  0.7818608E-02  0.1235075E+00
         -4   -1    0    0    0  501 -0.00000000000E+00  0.00000000000E+00  0.11208383218E+02  0.11280104359E+02  0.12700000000E+01 0. -1.
          4   -1    0    0  501    0  0.00000000000E+00 -0.00000000000E+00 -0.34730732971E+03  0.34730965171E+03  0.12700000000E+01 0. -1.
         25    2    1    2    0    0  0.00000000000E+00  0.00000000000E+00 -0.33609894650E+03  0.35858975607E+03  0.12499644525E+03 0.  0.
    9000005    1    3    3    0    0  0.22917148073E+01 -0.24029668332E+02 -0.33340661901E+03  0.33428079591E+03  0.10000000000E+01 0.  0.
    9000005    1    3    3    0    0 -0.22917148073E+01  0.24029668332E+02 -0.26923274899E+01  0.24308960163E+02  0.10000000000E+01 0.  0.
<mgrwt>
<rscale>  0 0.12499645E+03</rscale>
<asrwt>0</asrwt>
<pdfrwt beam="2">  1        4 0.53437584E-01 0.12499645E+03</pdfrwt>
<pdfrwt beam="1">  1       -4 0.17300625E-02 0.12499645E+03</pdfrwt>
<totfact> 0.68795215E+03</totfact>
</mgrwt>
</event>
<event>
 5    1  0.3281209E-002  0.1249659E+03  0.7818608E-02  0.1235123E+00
         -4   -1    0    0    0  501 -0.00000000000E+00  0.00000000000E+00  0.35530813238E+03  0.35531040209E+03  0.12700000000E+01 0. -1.
          4   -1    0    0  501    0  0.00000000000E+00 -0.00000000000E+00 -0.10948965078E+02  0.11022374349E+02  0.12700000000E+01 0. -1.
         25    2    1    2    0    0  0.00000000000E+00  0.00000000000E+00  0.34435916730E+03  0.36633277644E+03  0.12496586330E+03 0.  0.
    9000005    1    3    3    0    0  0.55522677388E+02  0.19255602093E+02  0.23433563928E+03  0.24159415919E+03  0.10000000000E+01 0.  0.
    9000005    1    3    3    0    0 -0.55522677388E+02 -0.19255602093E+02  0.11002352802E+03  0.12473861725E+03  0.10000000000E+01 0.  0.
<mgrwt>
<rscale>  0 0.12496586E+03</rscale>
<asrwt>0</asrwt>
<pdfrwt beam="2">  1        4 0.16902779E-02 0.12496586E+03</pdfrwt>
<pdfrwt beam="1">  1       -4 0.54668602E-01 0.12496586E+03</pdfrwt>
<totfact> 0.68015681E+03</totfact>
</mgrwt>
</event>
<event>
 5    1  0.3281209E-002  0.1249988E+03  0.7818608E-02  0.1235071E+00
         -4   -1    0    0    0  501 -0.00000000000E+00  0.00000000000E+00  0.29052289108E+01  0.31706868379E+01  0.12700000000E+01 0.  1.
          4   -1    0    0  501    0  0.00000000000E+00 -0.00000000000E+00 -0.12855245260E+04  0.12855251533E+04  0.12700000000E+01 0.  1.
         25    2    1    2    0    0  0.00000000000E+00  0.00000000000E+00 -0.12826192971E+04  0.12886958401E+04  0.12499882881E+03 0.  0.
    9000005    1    3    3    0    0  0.31328339077E+02 -0.43514744913E+02 -0.31040656219E+03  0.31500512965E+03  0.10000000000E+01 0.  0.
    9000005    1    3    3    0    0 -0.31328339077E+02  0.43514744913E+02 -0.97221273487E+03  0.97369071049E+03  0.10000000000E+01 0.  0.
<mgrwt>
<rscale>  0 0.12499883E+03</rscale>
<asrwt>0</asrwt>
<pdfrwt beam="2">  1        4 0.19779304E+00 0.12499883E+03</pdfrwt>
<pdfrwt beam="1">  1       -4 0.46742742E-03 0.12499883E+03</pdfrwt>
<totfact> 0.22497537E+03</totfact>
</mgrwt>
</event>
<event>
 5    1  0.3281209E-002  0.1249897E+03  0.7818608E-02  0.1235085E+00
         -4   -1    0    0    0  501 -0.00000000000E+00  0.00000000000E+00  0.27473503063E+02  0.27502841136E+02  0.12700000000E+01 0.  1.
          4   -1    0    0  501    0  0.00000000000E+00 -0.00000000000E+00 -0.14205094196E+03  0.14205661904E+03  0.12700000000E+01 0.  1.
         25    2    1    2    0    0  0.00000000000E+00  0.00000000000E+00 -0.11457743890E+03  0.16955946017E+03  0.12498968369E+03 0.  0.
    9000005    1    3    3    0    0  0.52055909568E+02  0.34501559166E+02 -0.60143990487E+02  0.86709139642E+02  0.10000000000E+01 0.  0.
    9000005    1    3    3    0    0 -0.52055909568E+02 -0.34501559166E+02 -0.54433448410E+02  0.82850320528E+02  0.10000000000E+01 0.  0.
<mgrwt>
<rscale>  0 0.12498968E+03</rscale>
<asrwt>0</asrwt>
<pdfrwt beam="2">  1        4 0.21856684E-01 0.12498968E+03</pdfrwt>
<pdfrwt beam="1">  1       -4 0.42293863E-02 0.12498968E+03</pdfrwt>
<totfact> 0.95552934E+03</totfact>
</mgrwt>
</event>
<event>
 5    1  0.3281209E-002  0.1249980E+03  0.7818608E-02  0.1235072E+00
         -4   -1    0    0    0  501 -0.00000000000E+00  0.00000000000E+00  0.30296812355E+03  0.30297078537E+03  0.12700000000E+01 0. -1.
          4   -1    0    0  501    0  0.00000000000E+00 -0.00000000000E+00 -0.12858864754E+02  0.12921428046E+02  0.12700000000E+01 0. -1.
         25    2    1    2    0    0  0.00000000000E+00  0.00000000000E+00  0.29010925880E+03  0.31589221342E+03  0.12499803382E+03 0.  0.
    9000005    1    3    3    0    0  0.57055126417E+02  0.98272890439E+01  0.20449780008E+03  0.21253755738E+03  0.10000000000E+01 0.  0.
    9000005    1    3    3    0    0 -0.57055126417E+02 -0.98272890439E+01  0.85611458716E+02  0.10335465603E+03  0.10000000000E+01 0.  0.
<mgrwt>
<rscale>  0 0.12499803E+03</rscale>
<asrwt>0</asrwt>
<pdfrwt beam="2">  1        4 0.19833043E-02 0.12499803E+03</pdfrwt>
<pdfrwt beam="1">  1       -4 0.46615496E-01 0.12499803E+03</pdfrwt>
<totfact> 0.73650580E+03</totfact>
</mgrwt>
</event>
<event>
 5    1  0.3281209E-002  0.1249991E+03  0.7818608E-02  0.1235071E+00
          4   -1    0    0  501    0  0.00000000000E+00  0.00000000000E+00  0.45055682229E+02  0.45073577638E+02  0.12700000000E+01 0.  1.
         -4   -1    0    0    0  501 -0.00000000000E+00 -0.00000000000E+00 -0.86657230277E+02  0.86666535983E+02  0.12700000000E+01 0.  1.
         25    2    1    2    0    0  0.00000000000E+00  0.00000000000E+00 -0.41601548049E+02  0.13174011362E+03  0.12499907494E+03 0.  0.
    9000005    1    3    3    0    0  0.38002400332E+02  0.20406919791E+02 -0.68456155263E+02  0.80918910025E+02  0.10000000000E+01 0.  0.
    9000005    1    3    3    0    0 -0.38002400332E+02 -0.20406919791E+02  0.26854607214E+02  0.50821203596E+02  0.10000000000E+01 0.  0.
<mgrwt>
<rscale>  0 0.12499907E+03</rscale>
<asrwt>0</asrwt>
<pdfrwt beam="1">  1        4 0.69337359E-02 0.12499907E+03</pdfrwt>
<pdfrwt beam="2">  1       -4 0.13333974E-01 0.12499907E+03</pdfrwt>
<totfact> 0.10307464E+04</totfact>
</mgrwt>
</event>
<event>
 5    1  0.3281209E-002  0.1249957E+03  0.7818608E-02  0.1235076E+00
          4   -1    0    0  501    0  0.00000000000E+00  0.00000000000E+00  0.22378446819E+03  0.22378807186E+03  0.12700000000E+01 0. -1.
         -4   -1    0    0    0  501 -0.00000000000E+00 -0.00000000000E+00 -0.17427360360E+02  0.17473574023E+02  0.12700000000E+01 0. -1.
         25    2    1    2    0    0  0.00000000000E+00  0.00000000000E+00  0.20635710783E+03  0.24126164588E+03  0.12499570320E+03 0.  0.
    9000005    1    3    3    0    0  0.15432045350E+02 -0.57843695841E+02  0.68600120203E+02  0.91055025474E+02  0.10000000000E+01 0.  0.
    9000005    1    3    3    0    0 -0.15432045350E+02  0.57843695841E+02  0.13775698763E+03  0.15020662040E+03  0.10000000000E+01 0.  0.
<mgrwt>
<rscale>  0 0.12499570E+03</rscale>
<asrwt>0</asrwt>
<pdfrwt beam="1">  1        4 0.34432210E-01 0.12499570E+03</pdfrwt>
<pdfrwt beam="2">  1       -4 0.26849646E-02 0.12499570E+03</pdfrwt>
<totfact> 0.83617835E+03</totfact>
</mgrwt>
</event>
<event>
 5    1  0.3281209E-002  0.1249768E+03  0.7818608E-02  0.1235106E+00
          4   -1    0    0  501    0  0.00000000000E+00  0.00000000000E+00  0.33936317929E+03  0.33936555564E+03  0.12700000000E+01 0.  1.
         -4   -1    0    0    0  501 -0.00000000000E+00 -0.00000000000E+00 -0.11468792786E+02  0.11538895440E+02  0.12700000000E+01 0.  1.
         25    2    1    2    0    0  0.00000000000E+00  0.00000000000E+00  0.32789438650E+03  0.35090445108E+03  0.12497681821E+03 0.  0.
    9000005    1    3    3    0    0 -0.17099328179E+02  0.11912624044E+02  0.32933103912E+03  0.32999125892E+03  0.10000000000E+01 0.  0.
    9000005    1    3    3    0    0  0.17099328179E+02 -0.11912624044E+02 -0.14366526148E+01  0.20913192165E+02  0.10000000000E+01 0.  0.
<mgrwt>
<rscale>  0 0.12497682E+03</rscale>
<asrwt>0</asrwt>
<pdfrwt beam="1">  1        4 0.52215289E-01 0.12497682E+03</pdfrwt>
<pdfrwt beam="2">  1       -4 0.17700052E-02 0.12497682E+03</pdfrwt>
<totfact> 0.69660902E+03</totfact>
</mgrwt>
</event>
<event>
 5    1  0.3281209E-002  0.1250045E+03  0.7818608E-02  0.1235062E+00
         -4   -1    0    0    0  501 -0.00000000000E+00  0.00000000000E+00  0.14843364832E+03  0.14843908129E+03  0.12700000000E+01 0. -1.
          4   -1    0    0  501    0  0.00000000000E+00 -0.00000000000E+00 -0.26297147346E+02  0.26327796310E+02  0.12700000000E+01 0. -1.
         25    2    1    2    0    0  0.00000000000E+00  0.00000000000E+00  0.12213650098E+03  0.17476687760E+03  0.12500454646E+03 0.  0.
    9000005    1    3    3    0    0 -0.10177782172E+02  0.60108376725E+02  0.80285168207E+02  0.10081325526E+03  0.10000000000E+01 0.  0.
    9000005    1    3    3    0    0  0.10177782172E+02 -0.60108376725E+02  0.41851332771E+02  0.73953622340E+02  0.10000000000E+01 0.  0.
<mgrwt>
<rscale>  0 0.12500455E+03</rscale>
<asrwt>0</asrwt>
<pdfrwt beam="2">  1        4 0.40484905E-02 0.12500455E+03</pdfrwt>
<pdfrwt beam="1">  1       -4 0.22838721E-01 0.12500455E+03</pdfrwt>
<totfact> 0.94557909E+03</totfact>
</mgrwt>
</event>
<event>
 5    1  0.3281209E-002  0.1249991E+03  0.7818608E-02  0.1235071E+00
         -4   -1    0    0    0  501 -0.00000000000E+00  0.00000000000E+00  0.34304828762E+01  0.36580203340E+01  0.12700000000E+01 0. -1.
          4   -1    0    0  501    0  0.00000000000E+00 -0.00000000000E+00 -0.11018927064E+04  0.11018934383E+04  0.12700000000E+01 0. -1.
         25    2    1    2    0    0  0.00000000000E+00  0.00000000000E+00 -0.10984622235E+04  0.11055514586E+04  0.12499908451E+03 0.  0.
    9000005    1    3    3    0    0  0.30204089174E+02 -0.19994222779E+02 -0.98845148566E+02  0.10527781980E+03  0.10000000000E+01 0.  0.
    9000005    1    3    3    0    0 -0.30204089174E+02  0.19994222779E+02 -0.99961707497E+03  0.10002736388E+04  0.10000000000E+01 0.  0.
<mgrwt>
<rscale>  0 0.12499908E+03</rscale>
<asrwt>0</asrwt>
<pdfrwt beam="2">  1        4 0.16953924E+00 0.12499908E+03</pdfrwt>
<pdfrwt beam="1">  1       -4 0.54532666E-03 0.12499908E+03</pdfrwt>
<totfact> 0.27322079E+03</totfact>
</mgrwt>
</event>
<event>
 5    1  0.3281209E-002  0.1249976E+03  0.7818608E-02  0.1235073E+00
          4   -1    0    0  501    0  0.00000000000E+00  0.00000000000E+00  0.28208236759E+02  0.28236811453E+02  0.12700000000E+01 0.  1.
         -4   -1    0    0    0  501 -0.00000000000E+00 -0.00000000000E+00 -0.13837219517E+03  0.13837802317E+03  0.12700000000E+01 0.  1.
         25    2    1    2    0    0  0.00000000000E+00  0.00000000000E+00 -0.11016395841E+03  0.16661483462E+03  0.12499762151E+03 0.  0.
    9000005    1    3    3    0    0  0.32359603036E+01  0.62329559793E+02 -0.59223958337E+02  0.86046049905E+02  0.10000000000E+01 0.  0.
    9000005    1    3    3    0    0 -0.32359603036E+01 -0.62329559793E+02 -0.50940000070E+02  0.80568784714E+02  0.10000000000E+01 0.  0.
<mgrwt>
<rscale>  0 0.12499762E+03</rscale>
<asrwt>0</asrwt>
<pdfrwt beam="1">  1        4 0.43423752E-02 0.12499762E+03</pdfrwt>
<pdfrwt beam="2">  1       -4 0.21290676E-01 0.12499762E+03</pdfrwt>
<totfact> 0.96087573E+03</totfact>
</mgrwt>
</event>
<event>
 5    1  0.3281209E-002  0.1249973E+03  0.7818608E-02  0.1235073E+00
         -4   -1    0    0    0  501 -0.00000000000E+00  0.00000000000E+00  0.11872258915E+04  0.11872265708E+04  0.12700000000E+01 0.  1.
          4   -1    0    0  501    0  0.00000000000E+00 -0.00000000000E+00 -0.31668284823E+01  0.34119939385E+01  0.12700000000E+01 0.  1.
         25    2    1    2    0    0  0.00000000000E+00  0.00000000000E+00  0.11840590630E+04  0.11906385647E+04  0.12499730822E+03 0.  0.
    9000005    1    3    3    0    0 -0.33413975858E+02 -0.79277621976E+01  0.10893328809E+04  0.10898745197E+04  0.10000000000E+01 0.  0.
    9000005    1    3    3    0    0  0.33413975858E+02  0.79277621976E+01  0.94726182104E+02  0.10076404504E+03  0.10000000000E+01 0.  0.
<mgrwt>
<rscale>  0 0.12499731E+03</rscale>
<asrwt>0</asrwt>
<pdfrwt beam="2">  1        4 0.50611451E-03 0.12499731E+03</pdfrwt>
<pdfrwt beam="1">  1       -4 0.18266941E+00 0.12499731E+03</pdfrwt>
<totfact> 0.24960508E+03</totfact>
</mgrwt>
</event>
<event>
 5    1  0.3281209E-002  0.1249995E+03  0.7818608E-02  0.1235070E+00
         -4   -1    0    0    0  501 -0.00000000000E+00  0.00000000000E+00  0.52370052602E+02  0.52385449407E+02  0.12700000000E+01 0.  1.
          4   -1    0    0  501    0  0.00000000000E+00 -0.00000000000E+00 -0.74557074329E+02  0.74567890091E+02  0.12700000000E+01 0.  1.
         25    2    1    2    0    0  0.00000000000E+00  0.00000000000E+00 -0.22187021727E+02  0.12695333950E+03  0.12499954590E+03 0.  0.
    9000005    1    3    3    0    0 -0.50272157486E+02  0.29082278964E+02  0.12335496601E+02  0.59382095319E+02  0.10000000000E+01 0.  0.
    9000005    1    3    3    0    0  0.50272157486E+02 -0.29082278964E+02 -0.34522518328E+02  0.67571244178E+02  0.10000000000E+01 0.  0.
<mgrwt>
<rscale>  0 0.12499955E+03</rscale>
<asrwt>0</asrwt>
<pdfrwt beam="2">  1        4 0.11472335E-01 0.12499955E+03</pdfrwt>
<pdfrwt beam="1">  1       -4 0.80589476E-02 0.12499955E+03</pdfrwt>
<totfact> 0.10410266E+04</totfact>
</mgrwt>
</event>
<event>
 5    1  0.3281209E-002  0.1250080E+03  0.7818608E-02  0.1235057E+00
          4   -1    0    0  501    0  0.00000000000E+00  0.00000000000E+00  0.28285955564E+02  0.28314451825E+02  0.12700000000E+01 0.  1.
         -4   -1    0    0    0  501 -0.00000000000E+00 -0.00000000000E+00 -0.13801526849E+03  0.13802111156E+03  0.12700000000E+01 0.  1.
         25    2    1    2    0    0  0.00000000000E+00  0.00000000000E+00 -0.10972931293E+03  0.16633556339E+03  0.12500798987E+03 0.  0.
    9000005    1    3    3    0    0 -0.34747869593E+02 -0.45862109463E+02 -0.87321516477E+02  0.10457913160E+03  0.10000000000E+01 0.  0.
    9000005    1    3    3    0    0  0.34747869593E+02  0.45862109463E+02 -0.22407796451E+02  0.61756431790E+02  0.10000000000E+01 0.  0.
<mgrwt>
<rscale>  0 0.12500799E+03</rscale>
<asrwt>0</asrwt>
<pdfrwt beam="1">  1        4 0.43543270E-02 0.12500799E+03</pdfrwt>
<pdfrwt beam="2">  1       -4 0.21235759E-01 0.12500799E+03</pdfrwt>
<totfact> 0.96117804E+03</totfact>
</mgrwt>
</event>
<event>
 5    1  0.3281209E-002  0.1250003E+03  0.7818608E-02  0.1235069E+00
          4   -1    0    0  501    0  0.00000000000E+00  0.00000000000E+00  0.41404084562E+02  0.41423557530E+02  0.12700000000E+01 0. -1.
         -4   -1    0    0    0  501 -0.00000000000E+00 -0.00000000000E+00 -0.94299051364E+02  0.94307603024E+02  0.12700000000E+01 0. -1.
         25    2    1    2    0    0  0.00000000000E+00  0.00000000000E+00 -0.52894966802E+02  0.13573116055E+03  0.12500028173E+03 0.  0.
    9000005    1    3    3    0    0 -0.31495709792E+02  0.42090519809E+01  0.31982496432E+02  0.45095187458E+02  0.10000000000E+01 0.  0.
    9000005    1    3    3    0    0  0.31495709792E+02 -0.42090519809E+01 -0.84877463234E+02  0.90635973095E+02  0.10000000000E+01 0.  0.
<mgrwt>
<rscale>  0 0.12500028E+03</rscale>
<asrwt>0</asrwt>
<pdfrwt beam="1">  1        4 0.63720149E-02 0.12500028E+03</pdfrwt>
<pdfrwt beam="2">  1       -4 0.14509702E-01 0.12500028E+03</pdfrwt>
<totfact> 0.10222618E+04</totfact>
</mgrwt>
</event>
<event>
 5    1  0.3281209E-002  0.1250009E+03  0.7818608E-02  0.1235068E+00
          4   -1    0    0  501    0  0.00000000000E+00  0.00000000000E+00  0.65726359280E+03  0.65726481978E+03  0.12700000000E+01 0.  1.
         -4   -1    0    0    0  501 -0.00000000000E+00 -0.00000000000E+00 -0.58741958036E+01  0.60099148363E+01  0.12700000000E+01 0.  1.
         25    2    1    2    0    0  0.00000000000E+00  0.00000000000E+00  0.65138939700E+03  0.66327473462E+03  0.12500090824E+03 0.  0.
    9000005    1    3    3    0    0  0.87299136666E+01  0.33578617107E+02  0.49898327819E+02  0.60783040715E+02  0.10000000000E+01 0.  0.
    9000005    1    3    3    0    0 -0.87299136666E+01 -0.33578617107E+02  0.60149106918E+03  0.60249169390E+03  0.10000000000E+01 0.  0.
<mgrwt>
<rscale>  0 0.12500091E+03</rscale>
<asrwt>0</asrwt>
<pdfrwt beam="1">  1        4 0.10112792E+00 0.12500091E+03</pdfrwt>
<pdfrwt beam="2">  1       -4 0.91425753E-03 0.12500091E+03</pdfrwt>
<totfact> 0.45096603E+03</totfact>
</mgrwt>
</event>
<event>
 5    1  0.3281209E-002  0.1250001E+03  0.7818608E-02  0.1235069E+00
         -4   -1    0    0    0  501 -0.00000000000E+00  0.00000000000E+00  0.95026698207E+01  0.95871598360E+01  0.12700000000E+01 0. -1.
          4   -1    0    0  501    0  0.00000000000E+00 -0.00000000000E+00 -0.40916420444E+03  0.40916617541E+03  0.12700000000E+01 0. -1.
         25    2    1    2    0    0  0.00000000000E+00  0.00000000000E+00 -0.39966153462E+03  0.41875333524E+03  0.12500005408E+03 0.  0.
    9000005    1    3    3    0    0 -0.58078192141E+02  0.22931198310E+02 -0.20826400051E+03  0.21742541289E+03  0.10000000000E+01 0.  0.
    9000005    1    3    3    0    0  0.58078192141E+02 -0.22931198310E+02 -0.19139753411E+03  0.20132792236E+03  0.10000000000E+01 0.  0.
<mgrwt>
<rscale>  0 0.12500005E+03</rscale>
<asrwt>0</asrwt>
<pdfrwt beam="2">  1        4 0.62954977E-01 0.12500005E+03</pdfrwt>
<pdfrwt beam="1">  1       -4 0.14686004E-02 0.12500005E+03</pdfrwt>
<totfact> 0.62768765E+03</totfact>
</mgrwt>
</event>
<event>
 5    1  0.3281209E-002  0.1249983E+03  0.7818608E-02  0.1235072E+00
         -4   -1    0    0    0  501 -0.00000000000E+00  0.00000000000E+00  0.22750148696E+02  0.22785569242E+02  0.12700000000E+01 0.  1.
          4   -1    0    0  501    0  0.00000000000E+00 -0.00000000000E+00 -0.17152623166E+03  0.17153093321E+03  0.12700000000E+01 0.  1.
         25    2    1    2    0    0  0.00000000000E+00  0.00000000000E+00 -0.14877608296E+03  0.19431650245E+03  0.12499832104E+03 0.  0.
    9000005    1    3    3    0    0  0.26602016289E+02 -0.44856097652E+02 -0.20865159929E+02  0.56179103464E+02  0.10000000000E+01 0.  0.
    9000005    1    3    3    0    0 -0.26602016289E+02  0.44856097652E+02 -0.12791092303E+03  0.13813739898E+03  0.10000000000E+01 0.  0.
<mgrwt>
<rscale>  0 0.12499832E+03</rscale>
<asrwt>0</asrwt>
<pdfrwt beam="2">  1        4 0.26391736E-01 0.12499832E+03</pdfrwt>
<pdfrwt beam="1">  1       -4 0.35031093E-02 0.12499832E+03</pdfrwt>
<totfact> 0.91105060E+03</totfact>
</mgrwt>
</event>
<event>
 5    1  0.3281209E-002  0.1249994E+03  0.7818608E-02  0.1235070E+00
          4   -1    0    0  501    0  0.00000000000E+00  0.00000000000E+00  0.12995281485E+03  0.12995902042E+03  0.12700000000E+01 0.  1.
         -4   -1    0    0    0  501 -0.00000000000E+00 -0.00000000000E+00 -0.30038349140E+02  0.30065184501E+02  0.12700000000E+01 0.  1.
         25    2    1    2    0    0  0.00000000000E+00  0.00000000000E+00  0.99914465712E+02  0.16002420492E+03  0.12499938280E+03 0.  0.
    9000005    1    3    3    0    0  0.24032006670E+02 -0.63313447147E+01 -0.23446223986E+02  0.34181115981E+02  0.10000000000E+01 0.  0.
    9000005    1    3    3    0    0 -0.24032006670E+02  0.63313447147E+01  0.12336068970E+03  0.12584308894E+03  0.10000000000E+01 0.  0.
<mgrwt>
<rscale>  0 0.12499938E+03</rscale>
<asrwt>0</asrwt>
<pdfrwt beam="1">  1        4 0.19995282E-01 0.12499938E+03</pdfrwt>
<pdfrwt beam="2">  1       -4 0.46238261E-02 0.12499938E+03</pdfrwt>
<totfact> 0.97339469E+03</totfact>
</mgrwt>
</event>
<event>
 5    1  0.3281209E-002  0.1250219E+03  0.7818608E-02  0.1235035E+00
         -4   -1    0    0    0  501 -0.00000000000E+00  0.00000000000E+00  0.14873079890E+03  0.14873622101E+03  0.12700000000E+01 0. -1.
          4   -1    0    0  501    0  0.00000000000E+00 -0.00000000000E+00 -0.26251855083E+02  0.26282556864E+02  0.12700000000E+01 0. -1.
         25    2    1    2    0    0  0.00000000000E+00  0.00000000000E+00  0.12247894381E+03  0.17501877787E+03  0.12502192180E+03 0.  0.
    9000005    1    3    3    0    0  0.74855774041E+01 -0.50424341804E+02  0.11186828188E+03  0.12293966246E+03  0.10000000000E+01 0.  0.
    9000005    1    3    3    0    0 -0.74855774041E+01  0.50424341804E+02  0.10610661933E+02  0.52079115412E+02  0.10000000000E+01 0.  0.
<mgrwt>
<rscale>  0 0.12502192E+03</rscale>
<asrwt>0</asrwt>
<pdfrwt beam="2">  1        4 0.40415257E-02 0.12502192E+03</pdfrwt>
<pdfrwt beam="1">  1       -4 0.22884440E-01 0.12502192E+03</pdfrwt>
<totfact> 0.94474933E+03</totfact>
</mgrwt>
</event>
<event>
 5    1  0.3281209E-002  0.1250439E+03  0.7818608E-02  0.1235001E+00
          4   -1    0    0  501    0  0.00000000000E+00  0.00000000000E+00  0.27429685911E+02  0.27459070800E+02  0.12700000000E+01 0.  1.
         -4   -1    0    0    0  501 -0.00000000000E+00 -0.00000000000E+00 -0.14240103635E+03  0.14240669947E+03  0.12700000000E+01 0.  1.
         25    2    1    2    0    0  0.00000000000E+00  0.00000000000E+00 -0.11497135044E+03  0.16986577027E+03  0.12504386625E+03 0.  0.
    9000005    1    3    3    0    0  0.45897756624E+02  0.26100856861E+02 -0.12020555446E+02  0.54160433392E+02  0.10000000000E+01 0.  0.
    9000005    1    3    3    0    0 -0.45897756624E+02 -0.26100856861E+02 -0.10295079500E+03  0.11570533688E+03  0.10000000000E+01 0.  0.
<mgrwt>
<rscale>  0 0.12504387E+03</rscale>
<asrwt>0</asrwt>
<pdfrwt beam="1">  1        4 0.42226478E-02 0.12504387E+03</pdfrwt>
<pdfrwt beam="2">  1       -4 0.21910547E-01 0.12504387E+03</pdfrwt>
<totfact> 0.95379719E+03</totfact>
</mgrwt>
</event>
<event>
 5    1  0.3281209E-002  0.1249984E+03  0.7818608E-02  0.1235072E+00
          4   -1    0    0  501    0  0.00000000000E+00  0.00000000000E+00  0.29596277604E+03  0.29596550087E+03  0.12700000000E+01 0.  1.
         -4   -1    0    0    0  501 -0.00000000000E+00 -0.00000000000E+00 -0.13164764022E+02  0.13225880377E+02  0.12700000000E+01 0.  1.
         25    2    1    2    0    0  0.00000000000E+00  0.00000000000E+00  0.28279801202E+03  0.30919138124E+03  0.12499837852E+03 0.  0.
    9000005    1    3    3    0    0  0.22570427861E+02 -0.22511640910E+02  0.84475652908E+01  0.32993325835E+02  0.10000000000E+01 0.  0.
    9000005    1    3    3    0    0 -0.22570427861E+02  0.22511640910E+02  0.27435044673E+03  0.27619805541E+03  0.10000000000E+01 0.  0.
<mgrwt>
<rscale>  0 0.12499838E+03</rscale>
<asrwt>0</asrwt>
<pdfrwt beam="1">  1        4 0.45537647E-01 0.12499838E+03</pdfrwt>
<pdfrwt beam="2">  1       -4 0.20302591E-02 0.12499838E+03</pdfrwt>
<totfact> 0.74462842E+03</totfact>
</mgrwt>
</event>
<event>
 5    1  0.3281209E-002  0.1249776E+03  0.7818608E-02  0.1235104E+00
          4   -1    0    0  501    0  0.00000000000E+00  0.00000000000E+00  0.76400257260E+01  0.77448623677E+01  0.12700000000E+01 0. -1.
         -4   -1    0    0    0  501 -0.00000000000E+00 -0.00000000000E+00 -0.50751590392E+03  0.50751749293E+03  0.12700000000E+01 0. -1.
         25    2    1    2    0    0  0.00000000000E+00  0.00000000000E+00 -0.49987587819E+03  0.51526235530E+03  0.12497760275E+03 0.  0.
    9000005    1    3    3    0    0  0.44906407726E+02 -0.43384885838E+02 -0.25917210416E+03  0.26658959723E+03  0.10000000000E+01 0.  0.
    9000005    1    3    3    0    0 -0.44906407726E+02  0.43384885838E+02 -0.24070377403E+03  0.24867275807E+03  0.10000000000E+01 0.  0.
<mgrwt>
<rscale>  0 0.12497760E+03</rscale>
<asrwt>0</asrwt>
<pdfrwt beam="1">  1        4 0.11835756E-02 0.12497760E+03</pdfrwt>
<pdfrwt beam="2">  1       -4 0.78087530E-01 0.12497760E+03</pdfrwt>
<totfact> 0.54726285E+03</totfact>
</mgrwt>
</event>
<event>
 5    1  0.3281209E-002  0.1249997E+03  0.7818608E-02  0.1235070E+00
         -4   -1    0    0    0  501 -0.00000000000E+00  0.00000000000E+00  0.50117287611E+02  0.50133376283E+02  0.12700000000E+01 0. -1.
          4   -1    0    0  501    0  0.00000000000E+00 -0.00000000000E+00 -0.77908061008E+02  0.77918411624E+02  0.12700000000E+01 0. -1.
         25    2    1    2    0    0  0.00000000000E+00  0.00000000000E+00 -0.27790773397E+02  0.12805178791E+03  0.12499973320E+03 0.  0.
    9000005    1    3    3    0    0  0.14022695325E+02  0.21193498918E+01  0.48451998753E+02  0.50494789942E+02  0.10000000000E+01 0.  0.
    9000005    1    3    3    0    0 -0.14022695325E+02 -0.21193498918E+01 -0.76242772150E+02  0.77556997965E+02  0.10000000000E+01 0.  0.
<mgrwt>
<rscale>  0 0.12499973E+03</rscale>
<asrwt>0</asrwt>
<pdfrwt beam="2">  1        4 0.11987889E-01 0.12499973E+03</pdfrwt>
<pdfrwt beam="1">  1       -4 0.77123857E-02 0.12499973E+03</pdfrwt>
<totfact> 0.10386432E+04</totfact>
</mgrwt>
</event>
<event>
 5    1  0.3281209E-002  0.1249711E+03  0.7818608E-02  0.1235114E+00
         -4   -1    0    0    0  501 -0.00000000000E+00  0.00000000000E+00  0.57024976987E+02  0.57039117283E+02  0.12700000000E+01 0. -1.
          4   -1    0    0  501    0  0.00000000000E+00 -0.00000000000E+00 -0.68440491986E+02  0.68452274200E+02  0.12700000000E+01 0. -1.
         25    2    1    2    0    0  0.00000000000E+00  0.00000000000E+00 -0.11415514998E+02  0.12549139148E+03  0.12497109807E+03 0.  0.
    9000005    1    3    3    0    0  0.59328673523E+02  0.18767919975E+02 -0.11327261760E+02  0.63256882481E+02  0.10000000000E+01 0.  0.
    9000005    1    3    3    0    0 -0.59328673523E+02 -0.18767919975E+02 -0.88253238187E-01  0.62234509003E+02  0.10000000000E+01 0.  0.
<mgrwt>
<rscale>  0 0.12497110E+03</rscale>
<asrwt>0</asrwt>
<pdfrwt beam="2">  1        4 0.10531300E-01 0.12497110E+03</pdfrwt>
<pdfrwt beam="1">  1       -4 0.87750675E-02 0.12497110E+03</pdfrwt>
<totfact> 0.10448954E+04</totfact>
</mgrwt>
</event>
<event>
 5    1  0.3281209E-002  0.1249996E+03  0.7818608E-02  0.1235070E+00
          4   -1    0    0  501    0  0.00000000000E+00  0.00000000000E+00  0.15374719264E+03  0.15375243785E+03  0.12700000000E+01 0.  1.
         -4   -1    0    0    0  501 -0.00000000000E+00 -0.00000000000E+00 -0.25385254893E+02  0.25417003482E+02  0.12700000000E+01 0.  1.
         25    2    1    2    0    0  0.00000000000E+00  0.00000000000E+00  0.12836193775E+03  0.17916944133E+03  0.12499960658E+03 0.  0.
    9000005    1    3    3    0    0  0.59575321151E+02 -0.70150710977E+01  0.39074846383E+02  0.71598000898E+02  0.10000000000E+01 0.  0.
    9000005    1    3    3    0    0 -0.59575321151E+02  0.70150710977E+01  0.89287091365E+02  0.10757144043E+03  0.10000000000E+01 0.  0.
<mgrwt>
<rscale>  0 0.12499961E+03</rscale>
<asrwt>0</asrwt>
<pdfrwt beam="1">  1        4 0.23656260E-01 0.12499961E+03</pdfrwt>
<pdfrwt beam="2">  1       -4 0.39082695E-02 0.12499961E+03</pdfrwt>
<totfact> 0.93767547E+03</totfact>
</mgrwt>
</event>
<event>
 5    1  0.3281209E-002  0.1249997E+03  0.7818608E-02  0.1235070E+00
         -4   -1    0    0    0  501 -0.00000000000E+00  0.00000000000E+00  0.11169047525E+04  0.11169054746E+04  0.12700000000E+01 0.  1.
          4   -1    0    0  501    0  0.00000000000E+00 -0.00000000000E+00 -0.33813337949E+01  0.36119687475E+01  0.12700000000E+01 0.  1.
         25    2    1    2    0    0  0.00000000000E+00  0.00000000000E+00  0.11135234187E+04  0.11205174433E+04  0.12499974683E+03 0.  0.
    9000005    1    3    3    0    0 -0.28575383715E+02 -0.32302993892E+02  0.96215559114E+03  0.96312222357E+03  0.10000000000E+01 0.  0.
    9000005    1    3    3    0    0  0.28575383715E+02  0.32302993892E+02  0.15136782758E+03  0.15739521973E+03  0.10000000000E+01 0.  0.
<mgrwt>
<rscale>  0 0.12499975E+03</rscale>
<asrwt>0</asrwt>
<pdfrwt beam="2">  1        4 0.53800233E-03 0.12499975E+03</pdfrwt>
<pdfrwt beam="1">  1       -4 0.17184916E+00 0.12499975E+03</pdfrwt>
<totfact> 0.26890710E+03</totfact>
</mgrwt>
</event>
<event>
 5    1  0.3281209E-002  0.1250003E+03  0.7818608E-02  0.1235069E+00
          4   -1    0    0  501    0  0.00000000000E+00  0.00000000000E+00  0.22164797548E+04  0.22164801186E+04  0.12700000000E+01 0.  1.
         -4   -1    0    0    0  501 -0.00000000000E+00 -0.00000000000E+00 -0.15331688898E+01  0.19908558071E+01  0.12700000000E+01 0.  1.
         25    2    1    2    0    0  0.00000000000E+00  0.00000000000E+00  0.22149465859E+04  0.22184709744E+04  0.12500034416E+03 0.  0.
    9000005    1    3    3    0    0  0.22716651845E+02 -0.28268653507E+02  0.20107098738E+04  0.20110371353E+04  0.10000000000E+01 0.  0.
    9000005    1    3    3    0    0 -0.22716651845E+02  0.28268653507E+02  0.20423671210E+03  0.20743383912E+03  0.10000000000E+01 0.  0.
<mgrwt>
<rscale>  0 0.12500034E+03</rscale>
<asrwt>0</asrwt>
<pdfrwt beam="1">  1        4 0.34103192E+00 0.12500034E+03</pdfrwt>
<pdfrwt beam="2">  1       -4 0.27110697E-03 0.12500034E+03</pdfrwt>
<totfact> 0.72724058E+02</totfact>
</mgrwt>
</event>
<event>
 5    1  0.3281209E-002  0.1249978E+03  0.7818608E-02  0.1235073E+00
          4   -1    0    0  501    0  0.00000000000E+00  0.00000000000E+00  0.59352060903E+02  0.59365646913E+02  0.12700000000E+01 0. -1.
         -4   -1    0    0    0  501 -0.00000000000E+00 -0.00000000000E+00 -0.65785380673E+02  0.65797638334E+02  0.12700000000E+01 0. -1.
         25    2    1    2    0    0  0.00000000000E+00  0.00000000000E+00 -0.64333197704E+01  0.12516328525E+03  0.12499784146E+03 0.  0.
    9000005    1    3    3    0    0 -0.41340529199E+01  0.14603483327E+02  0.57483398158E+02  0.59461695087E+02  0.10000000000E+01 0.  0.
    9000005    1    3    3    0    0  0.41340529199E+01 -0.14603483327E+02 -0.63916717928E+02  0.65701590160E+02  0.10000000000E+01 0.  0.
<mgrwt>
<rscale>  0 0.12499784E+03</rscale>
<asrwt>0</asrwt>
<pdfrwt beam="1">  1        4 0.91330743E-02 0.12499784E+03</pdfrwt>
<pdfrwt beam="2">  1       -4 0.10122816E-01 0.12499784E+03</pdfrwt>
<totfact> 0.10449827E+04</totfact>
</mgrwt>
</event>
<event>
 5    1  0.3281209E-002  0.1249998E+03  0.7818608E-02  0.1235070E+00
         -4   -1    0    0    0  501 -0.00000000000E+00  0.00000000000E+00  0.10137083409E+03  0.10137878922E+03  0.12700000000E+01 0. -1.
          4   -1    0    0  501    0  0.00000000000E+00 -0.00000000000E+00 -0.38514232540E+02  0.38535165864E+02  0.12700000000E+01 0. -1.
         25    2    1    2    0    0  0.00000000000E+00  0.00000000000E+00  0.62856601551E+02  0.13991395509E+03  0.12499984988E+03 0.  0.
    9000005    1    3    3    0    0 -0.63256602387E+01 -0.36480410206E+02  0.87777748336E+02  0.95272070457E+02  0.10000000000E+01 0.  0.
    9000005    1    3    3    0    0  0.63256602387E+01  0.36480410206E+02 -0.24921146785E+02  0.44641884630E+02  0.10000000000E+01 0.  0.
<mgrwt>
<rscale>  0 0.12499985E+03</rscale>
<asrwt>0</asrwt>
<pdfrwt beam="2">  1        4 0.59274888E-02 0.12499985E+03</pdfrwt>
<pdfrwt beam="1">  1       -4 0.15597735E-01 0.12499985E+03</pdfrwt>
<totfact> 0.10135404E+04</totfact>
</mgrwt>
</event>
<event>
 5    1  0.3281209E-002  0.1250048E+03  0.7818608E-02  0.1235062E+00
          4   -1    0    0  501    0  0.00000000000E+00  0.00000000000E+00  0.62124696747E+02  0.62137676541E+02  0.12700000000E+01 0. -1.
         -4   -1    0    0    0  501 -0.00000000000E+00 -0.00000000000E+00 -0.62856423175E+02  0.62869251899E+02  0.12700000000E+01 0. -1.
         25    2    1    2    0    0  0.00000000000E+00  0.00000000000E+00 -0.73172642810E+00  0.12500692844E+03  0.12500478685E+03 0.  0.
    9000005    1    3    3    0    0  0.53001204278E+02  0.23841249970E+02  0.22613136346E+02  0.62368956945E+02  0.10000000000E+01 0.  0.
    9000005    1    3    3    0    0 -0.53001204278E+02 -0.23841249970E+02 -0.23344862774E+02  0.62637971494E+02  0.10000000000E+01 0.  0.
<mgrwt>
<rscale>  0 0.12500479E+03</rscale>
<asrwt>0</asrwt>
<pdfrwt beam="1">  1        4 0.95596309E-02 0.12500479E+03</pdfrwt>
<pdfrwt beam="2">  1       -4 0.96722042E-02 0.12500479E+03</pdfrwt>
<totfact> 0.10451581E+04</totfact>
</mgrwt>
</event>
<event>
 5    1  0.3281209E-002  0.1249990E+03  0.7818608E-02  0.1235071E+00
         -4   -1    0    0    0  501 -0.00000000000E+00  0.00000000000E+00  0.25370876766E+03  0.25371194629E+03  0.12700000000E+01 0. -1.
          4   -1    0    0  501    0  0.00000000000E+00 -0.00000000000E+00 -0.15366880240E+02  0.15419270680E+02  0.12700000000E+01 0. -1.
         25    2    1    2    0    0  0.00000000000E+00  0.00000000000E+00  0.23834188742E+03  0.26913121697E+03  0.12499902658E+03 0.  0.
    9000005    1    3    3    0    0 -0.33476691124E+02  0.18228835824E+02  0.12551537094E+02  0.40143746556E+02  0.10000000000E+01 0.  0.
    9000005    1    3    3    0    0  0.33476691124E+02 -0.18228835824E+02  0.22579035033E+03  0.22898747041E+03  0.10000000000E+01 0.  0.
<mgrwt>
<rscale>  0 0.12499903E+03</rscale>
<asrwt>0</asrwt>
<pdfrwt beam="2">  1        4 0.23684101E-02 0.12499903E+03</pdfrwt>
<pdfrwt beam="1">  1       -4 0.39036391E-01 0.12499903E+03</pdfrwt>
<totfact> 0.79643185E+03</totfact>
</mgrwt>
</event>
<event>
 5    1  0.3281209E-002  0.1249998E+03  0.7818608E-02  0.1235070E+00
          4   -1    0    0  501    0  0.00000000000E+00  0.00000000000E+00  0.11536977713E+02  0.11606668546E+02  0.12700000000E+01 0.  1.
         -4   -1    0    0    0  501 -0.00000000000E+00 -0.00000000000E+00 -0.33749371308E+03  0.33749610260E+03  0.12700000000E+01 0.  1.
         25    2    1    2    0    0  0.00000000000E+00  0.00000000000E+00 -0.32595673537E+03  0.34910277114E+03  0.12499980595E+03 0.  0.
    9000005    1    3    3    0    0  0.15819366880E+02  0.18295314172E+02 -0.20507949880E+01  0.24293551597E+02  0.10000000000E+01 0.  0.
    9000005    1    3    3    0    0 -0.15819366880E+02 -0.18295314172E+02 -0.32390594038E+03  0.32480921955E+03  0.10000000000E+01 0.  0.
<mgrwt>
<rscale>  0 0.12499981E+03</rscale>
<asrwt>0</asrwt>
<pdfrwt beam="1">  1        4 0.17804645E-02 0.12499981E+03</pdfrwt>
<pdfrwt beam="2">  1       -4 0.51927647E-01 0.12499981E+03</pdfrwt>
<totfact> 0.69823678E+03</totfact>
</mgrwt>
</event>
<event>
 5    1  0.3281209E-002  0.1249993E+03  0.7818608E-02  0.1235070E+00
          4   -1    0    0  501    0  0.00000000000E+00  0.00000000000E+00  0.12517916823E+03  0.12518561043E+03  0.12700000000E+01 0. -1.
         -4   -1    0    0    0  501 -0.00000000000E+00 -0.00000000000E+00 -0.31184738560E+02  0.31210588252E+02  0.12700000000E+01 0. -1.
         25    2    1    2    0    0  0.00000000000E+00  0.00000000000E+00  0.93994429668E+02  0.15639619868E+03  0.12499927261E+03 0.  0.
    9000005    1    3    3    0    0  0.34716602845E+02 -0.26404784010E+01 -0.17931389770E+02  0.39175877506E+02  0.10000000000E+01 0.  0.
    9000005    1    3    3    0    0 -0.34716602845E+02  0.26404784010E+01  0.11192581944E+03  0.11722032117E+03  0.10000000000E+01 0.  0.
<mgrwt>
<rscale>  0 0.12499927E+03</rscale>
<asrwt>0</asrwt>
<pdfrwt beam="1">  1        4 0.19260818E-01 0.12499927E+03</pdfrwt>
<pdfrwt beam="2">  1       -4 0.48001361E-02 0.12499927E+03</pdfrwt>
<totfact> 0.98043706E+03</totfact>
</mgrwt>
</event>
<event>
 5    1  0.3281209E-002  0.1250007E+03  0.7818608E-02  0.1235068E+00
          4   -1    0    0  501    0  0.00000000000E+00  0.00000000000E+00  0.25736440448E+03  0.25736753796E+03  0.12700000000E+01 0.  1.
         -4   -1    0    0    0  501 -0.00000000000E+00 -0.00000000000E+00 -0.15148256122E+02  0.15201400052E+02  0.12700000000E+01 0.  1.
         25    2    1    2    0    0  0.00000000000E+00  0.00000000000E+00  0.24221614836E+03  0.27256893801E+03  0.12500065377E+03 0.  0.
    9000005    1    3    3    0    0 -0.39983027491E+01  0.14676325700E+02 -0.11060537551E+02  0.18833917591E+02  0.10000000000E+01 0.  0.
    9000005    1    3    3    0    0  0.39983027491E+01 -0.14676325700E+02  0.25327668591E+03  0.25373502042E+03  0.10000000000E+01 0.  0.
<mgrwt>
<rscale>  0 0.12500065E+03</rscale>
<asrwt>0</asrwt>
<pdfrwt beam="1">  1        4 0.39598849E-01 0.12500065E+03</pdfrwt>
<pdfrwt beam="2">  1       -4 0.23348302E-02 0.12500065E+03</pdfrwt>
<totfact> 0.79172691E+03</totfact>
</mgrwt>
</event>
<event>
 5    1  0.3281209E-002  0.1250020E+03  0.7818608E-02  0.1235066E+00
         -4   -1    0    0    0  501 -0.00000000000E+00  0.00000000000E+00  0.36357615692E+02  0.36379789978E+02  0.12700000000E+01 0. -1.
          4   -1    0    0  501    0  0.00000000000E+00 -0.00000000000E+00 -0.10738442103E+03  0.10739193070E+03  0.12700000000E+01 0. -1.
         25    2    1    2    0    0  0.00000000000E+00  0.00000000000E+00 -0.71026805336E+02  0.14377172068E+03  0.12500200235E+03 0.  0.
    9000005    1    3    3    0    0 -0.54100426503E+02  0.21297151384E+02 -0.61865525883E+02  0.84904464533E+02  0.10000000000E+01 0.  0.
    9000005    1    3    3    0    0  0.54100426503E+02 -0.21297151384E+02 -0.91612794528E+01  0.58867256145E+02  0.10000000000E+01 0.  0.
<mgrwt>
<rscale>  0 0.12500200E+03</rscale>
<asrwt>0</asrwt>
<pdfrwt beam="2">  1        4 0.16522963E-01 0.12500200E+03</pdfrwt>
<pdfrwt beam="1">  1       -4 0.55957628E-02 0.12500200E+03</pdfrwt>
<totfact> 0.10055551E+04</totfact>
</mgrwt>
</event>
<event>
 5    1  0.3281209E-002  0.1250023E+03  0.7818608E-02  0.1235066E+00
         -4   -1    0    0    0  501 -0.00000000000E+00  0.00000000000E+00  0.14754498785E+03  0.14755045354E+03  0.12700000000E+01 0. -1.
          4   -1    0    0  501    0  0.00000000000E+00 -0.00000000000E+00 -0.26454769004E+02  0.26485235567E+02  0.12700000000E+01 0. -1.
         25    2    1    2    0    0  0.00000000000E+00  0.00000000000E+00  0.12109021884E+03  0.17403568910E+03  0.12500231991E+03 0.  0.
    9000005    1    3    3    0    0 -0.55583495247E+02 -0.16731677713E+02  0.28314342706E+02  0.64592383343E+02  0.10000000000E+01 0.  0.
    9000005    1    3    3    0    0  0.55583495247E+02  0.16731677713E+02  0.92775876136E+02  0.10944330576E+03  0.10000000000E+01 0.  0.
<mgrwt>
<rscale>  0 0.12500232E+03</rscale>
<asrwt>0</asrwt>
<pdfrwt beam="2">  1        4 0.40727286E-02 0.12500232E+03</pdfrwt>
<pdfrwt beam="1">  1       -4 0.22701992E-01 0.12500232E+03</pdfrwt>
<totfact> 0.94696821E+03</totfact>
</mgrwt>
</event>
<event>
 5    1  0.3281209E-002  0.1249996E+03  0.7818608E-02  0.1235070E+00
         -4   -1    0    0    0  501 -0.00000000000E+00  0.00000000000E+00  0.92074536821E+01  0.92946276584E+01  0.12700000000E+01 0. -1.
          4   -1    0    0  501    0  0.00000000000E+00 -0.00000000000E+00 -0.42215878833E+03  0.42216069862E+03  0.12700000000E+01 0. -1.
         25    2    1    2    0    0  0.00000000000E+00  0.00000000000E+00 -0.41295133465E+03  0.43145532628E+03  0.12499957517E+03 0.  0.
    9000005    1    3    3    0    0  0.14439259894E+02  0.33318697489E+02 -0.30929413276E+02  0.47710129263E+02  0.10000000000E+01 0.  0.
    9000005    1    3    3    0    0 -0.14439259894E+02 -0.33318697489E+02 -0.38202192137E+03  0.38374519702E+03  0.10000000000E+01 0.  0.
<mgrwt>
<rscale>  0 0.12499958E+03</rscale>
<asrwt>0</asrwt>
<pdfrwt beam="2">  1        4 0.64954343E-01 0.12499958E+03</pdfrwt>
<pdfrwt beam="1">  1       -4 0.14233843E-02 0.12499958E+03</pdfrwt>
<totfact> 0.61604880E+03</totfact>
</mgrwt>
</event>
<event>
 5    1  0.3281209E-002  0.1250017E+03  0.7818608E-02  0.1235067E+00
         -4   -1    0    0    0  501 -0.00000000000E+00  0.00000000000E+00  0.17919324648E+03  0.17919774687E+03  0.12700000000E+01 0.  1.
          4   -1    0    0  501    0  0.00000000000E+00 -0.00000000000E+00 -0.21776392673E+02  0.21813394460E+02  0.12700000000E+01 0.  1.
         25    2    1    2    0    0  0.00000000000E+00  0.00000000000E+00  0.15741685381E+03  0.20101114133E+03  0.12500165230E+03 0.  0.
    9000005    1    3    3    0    0 -0.12104465713E+02 -0.54228378649E+02  0.12470361337E+03  0.13652555193E+03  0.10000000000E+01 0.  0.
    9000005    1    3    3    0    0  0.12104465713E+02  0.54228378649E+02  0.32713240436E+02  0.64485589405E+02  0.10000000000E+01 0.  0.
<mgrwt>
<rscale>  0 0.12500165E+03</rscale>
<asrwt>0</asrwt>
<pdfrwt beam="2">  1        4 0.33534066E-02 0.12500165E+03</pdfrwt>
<pdfrwt beam="1">  1       -4 0.27571385E-01 0.12500165E+03</pdfrwt>
<totfact> 0.89961921E+03</totfact>
</mgrwt>
</event>
<event>
 5    1  0.3281209E-002  0.1249982E+03  0.7818608E-02  0.1235072E+00
         -4   -1    0    0    0  501 -0.00000000000E+00  0.00000000000E+00  0.11368815861E+03  0.11369525191E+03  0.12700000000E+01 0. -1.
          4   -1    0    0  501    0  0.00000000000E+00 -0.00000000000E+00 -0.34338437749E+02  0.34361915067E+02  0.12700000000E+01 0. -1.
         25    2    1    2    0    0  0.00000000000E+00  0.00000000000E+00  0.79349720856E+02  0.14805716698E+03  0.12499818596E+03 0.  0.
    9000005    1    3    3    0    0 -0.47930277707E+02  0.54929323474E+01 -0.73720859590E+01  0.48814254867E+02  0.10000000000E+01 0.  0.
    9000005    1    3    3    0    0  0.47930277707E+02 -0.54929323474E+01  0.86721806815E+02  0.99242912110E+02  0.10000000000E+01 0.  0.
<mgrwt>
<rscale>  0 0.12499819E+03</rscale>
<asrwt>0</asrwt>
<pdfrwt beam="2">  1        4 0.52851883E-02 0.12499819E+03</pdfrwt>
<pdfrwt beam="1">  1       -4 0.17492837E-01 0.12499819E+03</pdfrwt>
<totfact> 0.99696463E+03</totfact>
</mgrwt>
</event>
<event>
 5    1  0.3281209E-002  0.1250015E+03  0.7818608E-02  0.1235067E+00
         -4   -1    0    0    0  501 -0.00000000000E+00  0.00000000000E+00  0.11741429865E+03  0.11742116687E+03  0.12700000000E+01 0. -1.
          4   -1    0    0  501    0  0.00000000000E+00 -0.00000000000E+00 -0.33249771409E+02  0.33274016871E+02  0.12700000000E+01 0. -1.
         25    2    1    2    0    0  0.00000000000E+00  0.00000000000E+00  0.84164527245E+02  0.15069518374E+03  0.12500148301E+03 0.  0.
    9000005    1    3    3    0    0 -0.29521042319E+02 -0.41907393062E+02  0.85173132793E+02  0.99414204632E+02  0.10000000000E+01 0.  0.
    9000005    1    3    3    0    0  0.29521042319E+02  0.41907393062E+02 -0.10086055483E+01  0.51280979105E+02  0.10000000000E+01 0.  0.
<mgrwt>
<rscale>  0 0.12500148E+03</rscale>
<asrwt>0</asrwt>
<pdfrwt beam="2">  1        4 0.51177429E-02 0.12500148E+03</pdfrwt>
<pdfrwt beam="1">  1       -4 0.18066131E-01 0.12500148E+03</pdfrwt>
<totfact> 0.99161995E+03</totfact>
</mgrwt>
</event>
<event>
 5    1  0.3281209E-002  0.1250014E+03  0.7818608E-02  0.1235067E+00
          4   -1    0    0  501    0  0.00000000000E+00  0.00000000000E+00  0.24404535881E+03  0.24404866330E+03  0.12700000000E+01 0.  1.
         -4   -1    0    0    0  501 -0.00000000000E+00 -0.00000000000E+00 -0.15977984241E+02  0.16028377348E+02  0.12700000000E+01 0.  1.
         25    2    1    2    0    0  0.00000000000E+00  0.00000000000E+00  0.22806737457E+03  0.26007704065E+03  0.12500135890E+03 0.  0.
    9000005    1    3    3    0    0  0.67226539769E+01 -0.79911585487E+01  0.24222734140E+03  0.24245440316E+03  0.10000000000E+01 0.  0.
    9000005    1    3    3    0    0 -0.67226539769E+01  0.79911585487E+01 -0.14159966826E+02  0.17622637486E+02  0.10000000000E+01 0.  0.
<mgrwt>
<rscale>  0 0.12500136E+03</rscale>
<asrwt>0</asrwt>
<pdfrwt beam="1">  1        4 0.37549569E-01 0.12500136E+03</pdfrwt>
<pdfrwt beam="2">  1       -4 0.24622821E-02 0.12500136E+03</pdfrwt>
<totfact> 0.80892804E+03</totfact>
</mgrwt>
</event>
<event>
 5    1  0.3281209E-002  0.1249913E+03  0.7818608E-02  0.1235083E+00
         -4   -1    0    0    0  501 -0.00000000000E+00  0.00000000000E+00  0.24858331925E+03  0.24858656341E+03  0.12700000000E+01 0.  1.
          4   -1    0    0  501    0  0.00000000000E+00 -0.00000000000E+00 -0.15682841496E+02  0.15734179908E+02  0.12700000000E+01 0.  1.
         25    2    1    2    0    0  0.00000000000E+00  0.00000000000E+00  0.23290047775E+03  0.26432074332E+03  0.12499129094E+03 0.  0.
    9000005    1    3    3    0    0 -0.40812489292E+00 -0.10418577487E+01  0.24857250315E+03  0.24857703304E+03  0.10000000000E+01 0.  0.
    9000005    1    3    3    0    0  0.40812489292E+00  0.10418577487E+01 -0.15672025393E+02  0.15743710282E+02  0.10000000000E+01 0.  0.
<mgrwt>
<rscale>  0 0.12499129E+03</rscale>
<asrwt>0</asrwt>
<pdfrwt beam="2">  1        4 0.24169435E-02 0.12499129E+03</pdfrwt>
<pdfrwt beam="1">  1       -4 0.38247786E-01 0.12499129E+03</pdfrwt>
<totfact> 0.80319068E+03</totfact>
</mgrwt>
</event>
<event>
 5    1  0.3281209E-002  0.1250101E+03  0.7818608E-02  0.1235054E+00
          4   -1    0    0  501    0  0.00000000000E+00  0.00000000000E+00  0.59220268278E+02  0.59233884516E+02  0.12700000000E+01 0.  1.
         -4   -1    0    0    0  501 -0.00000000000E+00 -0.00000000000E+00 -0.65944672938E+02  0.65956900996E+02  0.12700000000E+01 0.  1.
         25    2    1    2    0    0  0.00000000000E+00  0.00000000000E+00 -0.67244046608E+01  0.12519078551E+03  0.12501006023E+03 0.  0.
    9000005    1    3    3    0    0 -0.44044801067E+02 -0.43431196055E+00  0.41038625047E+02  0.60210479766E+02  0.10000000000E+01 0.  0.
    9000005    1    3    3    0    0  0.44044801067E+02  0.43431196055E+00 -0.47763029708E+02  0.64980305746E+02  0.10000000000E+01 0.  0.
<mgrwt>
<rscale>  0 0.12501006E+03</rscale>
<asrwt>0</asrwt>
<pdfrwt beam="1">  1        4 0.91127985E-02 0.12501006E+03</pdfrwt>
<pdfrwt beam="2">  1       -4 0.10147322E-01 0.12501006E+03</pdfrwt>
<totfact> 0.10446345E+04</totfact>
</mgrwt>
</event>
<event>
 5    1  0.3281209E-002  0.1249985E+03  0.7818608E-02  0.1235072E+00
         -4   -1    0    0    0  501 -0.00000000000E+00  0.00000000000E+00  0.21344744805E+01  0.24837232752E+01  0.12700000000E+01 0.  1.
          4   -1    0    0  501    0  0.00000000000E+00 -0.00000000000E+00 -0.16912878908E+04  0.16912883676E+04  0.12700000000E+01 0.  1.
         25    2    1    2    0    0  0.00000000000E+00  0.00000000000E+00 -0.16891534163E+04  0.16937720909E+04  0.12499852820E+03 0.  0.
    9000005    1    3    3    0    0  0.41733168238E+02  0.37562906415E+02 -0.12162930201E+04  0.12175887401E+04  0.10000000000E+01 0.  0.
    9000005    1    3    3    0    0 -0.41733168238E+02 -0.37562906415E+02 -0.47286039627E+03  0.47618335086E+03  0.10000000000E+01 0.  0.
<mgrwt>
<rscale>  0 0.12499853E+03</rscale>
<asrwt>0</asrwt>
<pdfrwt beam="2">  1        4 0.26022405E+00 0.12499853E+03</pdfrwt>
<pdfrwt beam="1">  1       -4 0.35528401E-03 0.12499853E+03</pdfrwt>
<totfact> 0.14412660E+03</totfact>
</mgrwt>
</event>
<event>
 5    1  0.3281209E-002  0.1250035E+03  0.7818608E-02  0.1235064E+00
          4   -1    0    0  501    0  0.00000000000E+00  0.00000000000E+00  0.39946789948E+01  0.41917013576E+01  0.12700000000E+01 0.  1.
         -4   -1    0    0    0  501 -0.00000000000E+00 -0.00000000000E+00 -0.95418524792E+03  0.95418609309E+03  0.12700000000E+01 0.  1.
         25    2    1    2    0    0  0.00000000000E+00  0.00000000000E+00 -0.95019056892E+03  0.95837779445E+03  0.12500351842E+03 0.  0.
    9000005    1    3    3    0    0 -0.42584482893E+02 -0.24300484313E+02 -0.17801091458E+03  0.18464245836E+03  0.10000000000E+01 0.  0.
    9000005    1    3    3    0    0  0.42584482893E+02  0.24300484313E+02 -0.77217965434E+03  0.77373533608E+03  0.10000000000E+01 0.  0.
<mgrwt>
<rscale>  0 0.12500352E+03</rscale>
<asrwt>0</asrwt>
<pdfrwt beam="1">  1        4 0.62978734E-03 0.12500352E+03</pdfrwt>
<pdfrwt beam="2">  1       -4 0.14681277E+00 0.12500352E+03</pdfrwt>
<totfact> 0.32017961E+03</totfact>
</mgrwt>
</event>
<event>
 5    1  0.3281209E-002  0.1250109E+03  0.7818608E-02  0.1235052E+00
          4   -1    0    0  501    0  0.00000000000E+00  0.00000000000E+00  0.38573856043E+03  0.38574065109E+03  0.12700000000E+01 0.  1.
         -4   -1    0    0    0  501 -0.00000000000E+00 -0.00000000000E+00 -0.10086509124E+02  0.10166148057E+02  0.12700000000E+01 0.  1.
         25    2    1    2    0    0  0.00000000000E+00  0.00000000000E+00  0.37565205131E+03  0.39590679915E+03  0.12501091936E+03 0.  0.
    9000005    1    3    3    0    0 -0.39409457419E+02 -0.28488804259E+02  0.63495820249E+02  0.79983976466E+02  0.10000000000E+01 0.  0.
    9000005    1    3    3    0    0  0.39409457419E+02  0.28488804259E+02  0.31215623106E+03  0.31592282268E+03  0.10000000000E+01 0.  0.
<mgrwt>
<rscale>  0 0.12501092E+03</rscale>
<asrwt>0</asrwt>
<pdfrwt beam="1">  1        4 0.59350688E-01 0.12501092E+03</pdfrwt>
<pdfrwt beam="2">  1       -4 0.15580573E-02 0.12501092E+03</pdfrwt>
<totfact> 0.64937180E+03</totfact>
</mgrwt>
</event>
<event>
 5    1  0.3281209E-002  0.1250012E+03  0.7818608E-02  0.1235067E+00
         -4   -1    0    0    0  501 -0.00000000000E+00  0.00000000000E+00  0.16961232832E+04  0.16961237587E+04  0.12700000000E+01 0. -1.
          4   -1    0    0  501    0  0.00000000000E+00 -0.00000000000E+00 -0.21274968408E+01  0.24777293653E+01  0.12700000000E+01 0. -1.
         25    2    1    2    0    0  0.00000000000E+00  0.00000000000E+00  0.16939957864E+04  0.16986014880E+04  0.12500116376E+03 0.  0.
    9000005    1    3    3    0    0  0.18060303995E+02 -0.57307193577E+02  0.61359121869E+03  0.61652694400E+03  0.10000000000E+01 0.  0.
    9000005    1    3    3    0    0 -0.18060303995E+02  0.57307193577E+02  0.10804045677E+04  0.10820745440E+04  0.10000000000E+01 0.  0.
<mgrwt>
<rscale>  0 0.12500116E+03</rscale>
<asrwt>0</asrwt>
<pdfrwt beam="2">  1        4 0.35428299E-03 0.12500116E+03</pdfrwt>
<pdfrwt beam="1">  1       -4 0.26097031E+00 0.12500116E+03</pdfrwt>
<totfact> 0.14330757E+03</totfact>
</mgrwt>
</event>
<event>
 5    1  0.3281209E-002  0.1250007E+03  0.7818608E-02  0.1235068E+00
         -4   -1    0    0    0  501 -0.00000000000E+00  0.00000000000E+00  0.13664498238E+03  0.13665088404E+03  0.12700000000E+01 0.  1.
          4   -1    0    0  501    0  0.00000000000E+00 -0.00000000000E+00 -0.28566554326E+02  0.28594770957E+02  0.12700000000E+01 0.  1.
         25    2    1    2    0    0  0.00000000000E+00  0.00000000000E+00  0.10807842806E+03  0.16524565500E+03  0.12500071954E+03 0.  0.
    9000005    1    3    3    0    0 -0.58070992142E+02  0.20251054116E+02  0.39380995737E+02  0.73035663524E+02  0.10000000000E+01 0.  0.
    9000005    1    3    3    0    0  0.58070992142E+02 -0.20251054116E+02  0.68697432319E+02  0.92209991478E+02  0.10000000000E+01 0.  0.
<mgrwt>
<rscale>  0 0.12500072E+03</rscale>
<asrwt>0</asrwt>
<pdfrwt beam="2">  1        4 0.43974790E-02 0.12500072E+03</pdfrwt>
<pdfrwt beam="1">  1       -4 0.21024930E-01 0.12500072E+03</pdfrwt>
<totfact> 0.96339332E+03</totfact>
</mgrwt>
</event>
<event>
 5    1  0.3281209E-002  0.1250022E+03  0.7818608E-02  0.1235066E+00
          4   -1    0    0  501    0  0.00000000000E+00  0.00000000000E+00  0.52436743934E+01  0.53952776707E+01  0.12700000000E+01 0.  1.
         -4   -1    0    0    0  501 -0.00000000000E+00 -0.00000000000E+00 -0.73420386874E+03  0.73420496714E+03  0.12700000000E+01 0.  1.
         25    2    1    2    0    0  0.00000000000E+00  0.00000000000E+00 -0.72896019435E+03  0.73960024481E+03  0.12500222871E+03 0.  0.
    9000005    1    3    3    0    0 -0.53613158685E+02  0.11640654547E+02 -0.54153803452E+03  0.54431086564E+03  0.10000000000E+01 0.  0.
    9000005    1    3    3    0    0  0.53613158685E+02 -0.11640654547E+02 -0.18742215982E+03  0.19528937917E+03  0.10000000000E+01 0.  0.
<mgrwt>
<rscale>  0 0.12500223E+03</rscale>
<asrwt>0</asrwt>
<pdfrwt beam="1">  1        4 0.81846600E-03 0.12500223E+03</pdfrwt>
<pdfrwt beam="2">  1       -4 0.11296611E+00 0.12500223E+03</pdfrwt>
<totfact> 0.41074588E+03</totfact>
</mgrwt>
</event>
<event>
 5    1  0.3281209E-002  0.1250003E+03  0.7818608E-02  0.1235069E+00
         -4   -1    0    0    0  501 -0.00000000000E+00  0.00000000000E+00  0.13491074873E+03  0.13491672626E+03  0.12700000000E+01 0. -1.
          4   -1    0    0  501    0  0.00000000000E+00 -0.00000000000E+00 -0.28933918005E+02  0.28961776726E+02  0.12700000000E+01 0. -1.
         25    2    1    2    0    0  0.00000000000E+00  0.00000000000E+00  0.10597683073E+03  0.16387850298E+03  0.12500030035E+03 0.  0.
    9000005    1    3    3    0    0 -0.14409114255E+02  0.30650603118E+02  0.12184139887E+03  0.12646504862E+03  0.10000000000E+01 0.  0.
    9000005    1    3    3    0    0  0.14409114255E+02 -0.30650603118E+02 -0.15864568138E+02  0.37413454362E+02  0.10000000000E+01 0.  0.
<mgrwt>
<rscale>  0 0.12500030E+03</rscale>
<asrwt>0</asrwt>
<pdfrwt beam="2">  1        4 0.44539748E-02 0.12500030E+03</pdfrwt>
<pdfrwt beam="1">  1       -4 0.20758103E-01 0.12500030E+03</pdfrwt>
<totfact> 0.96599556E+03</totfact>
</mgrwt>
</event>
<event>
 5    1  0.3281209E-002  0.1250025E+03  0.7818608E-02  0.1235065E+00
         -4   -1    0    0    0  501 -0.00000000000E+00  0.00000000000E+00  0.19408847275E+03  0.19409262777E+03  0.12700000000E+01 0. -1.
          4   -1    0    0  501    0  0.00000000000E+00 -0.00000000000E+00 -0.20102532903E+02  0.20142609789E+02  0.12700000000E+01 0. -1.
         25    2    1    2    0    0  0.00000000000E+00  0.00000000000E+00  0.17398593985E+03  0.21423523756E+03  0.12500251896E+03 0.  0.
    9000005    1    3    3    0    0 -0.13900333227E+02 -0.33322418814E+02  0.17441270327E+03  0.17811342993E+03  0.10000000000E+01 0.  0.
    9000005    1    3    3    0    0  0.13900333227E+02  0.33322418814E+02 -0.42676342166E+00  0.36121807630E+02  0.10000000000E+01 0.  0.
<mgrwt>
<rscale>  0 0.12500252E+03</rscale>
<asrwt>0</asrwt>
<pdfrwt beam="2">  1        4 0.30961000E-02 0.12500252E+03</pdfrwt>
<pdfrwt beam="1">  1       -4 0.29863166E-01 0.12500252E+03</pdfrwt>
<totfact> 0.87783908E+03</totfact>
</mgrwt>
</event>
<event>
 5    1  0.3281209E-002  0.1250008E+03  0.7818608E-02  0.1235068E+00
          4   -1    0    0  501    0  0.00000000000E+00  0.00000000000E+00  0.14860944154E+02  0.14915111839E+02  0.12700000000E+01 0. -1.
         -4   -1    0    0    0  501 -0.00000000000E+00 -0.00000000000E+00 -0.26232271534E+03  0.26232578959E+03  0.12700000000E+01 0. -1.
         25    2    1    2    0    0  0.00000000000E+00  0.00000000000E+00 -0.24746177119E+03  0.27724090143E+03  0.12500075690E+03 0.  0.
    9000005    1    3    3    0    0  0.16674888660E+02  0.49232792803E+02 -0.20066972031E+03  0.20729509509E+03  0.10000000000E+01 0.  0.
    9000005    1    3    3    0    0 -0.16674888660E+02 -0.49232792803E+02 -0.46792050874E+02  0.69945806336E+02  0.10000000000E+01 0.  0.
<mgrwt>
<rscale>  0 0.12500076E+03</rscale>
<asrwt>0</asrwt>
<pdfrwt beam="1">  1        4 0.22907025E-02 0.12500076E+03</pdfrwt>
<pdfrwt beam="2">  1       -4 0.40361741E-01 0.12500076E+03</pdfrwt>
<totfact> 0.78544049E+03</totfact>
</mgrwt>
</event>
<event>
 5    1  0.3281209E-002  0.1249987E+03  0.7818608E-02  0.1235071E+00
          4   -1    0    0  501    0  0.00000000000E+00  0.00000000000E+00  0.37480914255E+02  0.37502424367E+02  0.12700000000E+01 0.  1.
         -4   -1    0    0    0  501 -0.00000000000E+00 -0.00000000000E+00 -0.10416220814E+03  0.10416995010E+03  0.12700000000E+01 0.  1.
         25    2    1    2    0    0  0.00000000000E+00  0.00000000000E+00 -0.66681293880E+02  0.14167237447E+03  0.12499866693E+03 0.  0.
    9000005    1    3    3    0    0 -0.36080580871E+02  0.44459781461E+02 -0.49676731371E+01  0.57481808078E+02  0.10000000000E+01 0.  0.
    9000005    1    3    3    0    0  0.36080580871E+02 -0.44459781461E+02 -0.61713620743E+02  0.84190566388E+02  0.10000000000E+01 0.  0.
<mgrwt>
<rscale>  0 0.12499867E+03</rscale>
<asrwt>0</asrwt>
<pdfrwt beam="1">  1        4 0.57685447E-02 0.12499867E+03</pdfrwt>
<pdfrwt beam="2">  1       -4 0.16027205E-01 0.12499867E+03</pdfrwt>
<totfact> 0.10099345E+04</totfact>
</mgrwt>
</event>
<event>
 5    1  0.3281209E-002  0.1250013E+03  0.7818608E-02  0.1235067E+00
         -4   -1    0    0    0  501 -0.00000000000E+00  0.00000000000E+00  0.25240918475E+03  0.25241237974E+03  0.12700000000E+01 0. -1.
          4   -1    0    0  501    0  0.00000000000E+00 -0.00000000000E+00 -0.15446841504E+02  0.15498961657E+02  0.12700000000E+01 0. -1.
         25    2    1    2    0    0  0.00000000000E+00  0.00000000000E+00  0.23696234324E+03  0.26791134140E+03  0.12500133892E+03 0.  0.
    9000005    1    3    3    0    0  0.25431908426E+02  0.48516626899E+02  0.18294647048E+03  0.19097396711E+03  0.10000000000E+01 0.  0.
    9000005    1    3    3    0    0 -0.25431908426E+02 -0.48516626899E+02  0.54015872764E+02  0.76937374288E+02  0.10000000000E+01 0.  0.
<mgrwt>
<rscale>  0 0.12500134E+03</rscale>
<asrwt>0</asrwt>
<pdfrwt beam="2">  1        4 0.23806922E-02 0.12500134E+03</pdfrwt>
<pdfrwt beam="1">  1       -4 0.38836436E-01 0.12500134E+03</pdfrwt>
<totfact> 0.79806101E+03</totfact>
</mgrwt>
</event>
<event>
 5    1  0.3281209E-002  0.1249985E+03  0.7818608E-02  0.1235072E+00
          4   -1    0    0  501    0  0.00000000000E+00  0.00000000000E+00  0.32075588829E+03  0.32075840250E+03  0.12700000000E+01 0.  1.
         -4   -1    0    0    0  501 -0.00000000000E+00 -0.00000000000E+00 -0.12142290851E+02  0.12208526820E+02  0.12700000000E+01 0.  1.
         25    2    1    2    0    0  0.00000000000E+00  0.00000000000E+00  0.30861359744E+03  0.33296692932E+03  0.12499849397E+03 0.  0.
    9000005    1    3    3    0    0 -0.28075501819E+02  0.33755374001E+02  0.35851575654E+02  0.56692103094E+02  0.10000000000E+01 0.  0.
    9000005    1    3    3    0    0  0.28075501819E+02 -0.33755374001E+02  0.27276202179E+03  0.27627482623E+03  0.10000000000E+01 0.  0.
<mgrwt>
<rscale>  0 0.12499849E+03</rscale>
<asrwt>0</asrwt>
<pdfrwt beam="1">  1        4 0.49352352E-01 0.12499849E+03</pdfrwt>
<pdfrwt beam="2">  1       -4 0.18733331E-02 0.12499849E+03</pdfrwt>
<totfact> 0.71642352E+03</totfact>
</mgrwt>
</event>
<event>
 5    1  0.3281209E-002  0.1249982E+03  0.7818608E-02  0.1235072E+00
         -4   -1    0    0    0  501 -0.00000000000E+00  0.00000000000E+00  0.41466313615E+02  0.41485757373E+02  0.12700000000E+01 0.  1.
          4   -1    0    0  501    0  0.00000000000E+00 -0.00000000000E+00 -0.94154392293E+02  0.94162957091E+02  0.12700000000E+01 0.  1.
         25    2    1    2    0    0  0.00000000000E+00  0.00000000000E+00 -0.52688078678E+02  0.13564871446E+03  0.12499816039E+03 0.  0.
    9000005    1    3    3    0    0 -0.34390217858E+02  0.51154918113E+02 -0.37496991984E+02  0.72156338179E+02  0.10000000000E+01 0.  0.
    9000005    1    3    3    0    0  0.34390217858E+02 -0.51154918113E+02 -0.15191086693E+02  0.63492376286E+02  0.10000000000E+01 0.  0.
<mgrwt>
<rscale>  0 0.12499816E+03</rscale>
<asrwt>0</asrwt>
<pdfrwt beam="2">  1        4 0.14487446E-01 0.12499816E+03</pdfrwt>
<pdfrwt beam="1">  1       -4 0.63815874E-02 0.12499816E+03</pdfrwt>
<totfact> 0.10224840E+04</totfact>
</mgrwt>
</event>
<event>
 4    1  0.3281209E-002  0.1251412E+03  0.7818608E-02  0.1234849E+00
         -4   -1    0    0    0  501 -0.00000000000E+00  0.00000000000E+00  0.18693574401E+03  0.18694005801E+03  0.12700000000E+01 0. -1.
          4   -1    0    0  501    0  0.00000000000E+00 -0.00000000000E+00 -0.20919629104E+02  0.20958143569E+02  0.12700000000E+01 0. -1.
    9000005    1    1    2    0    0 -0.39212081768E+02 -0.47713961051E+02  0.66405888449E+02  0.90691518106E+02  0.10000000000E+01 0.  0.
    9000005    1    1    2    0    0  0.39212081768E+02  0.47713961051E+02  0.99610226457E+02  0.11720668347E+03  0.10000000000E+01 0.  0.
<mgrwt>
<rscale>  0 0.12514117E+03</rscale>
<asrwt>0</asrwt>
<pdfrwt beam="2">  1        4 0.32216991E-02 0.12514117E+03</pdfrwt>
<pdfrwt beam="1">  1       -4 0.28762639E-01 0.12514117E+03</pdfrwt>
<totfact> 0.88540495E+03</totfact>
</mgrwt>
</event>
<event>
 5    1  0.3281209E-002  0.1249987E+03  0.7818608E-02  0.1235071E+00
         -4   -1    0    0    0  501 -0.00000000000E+00  0.00000000000E+00  0.90662340170E+01  0.91547528230E+01  0.12700000000E+01 0.  1.
          4   -1    0    0  501    0  0.00000000000E+00 -0.00000000000E+00 -0.42866528945E+03  0.42866717075E+03  0.12700000000E+01 0.  1.
         25    2    1    2    0    0  0.00000000000E+00  0.00000000000E+00 -0.41959905544E+03  0.43782192358E+03  0.12499867776E+03 0.  0.
    9000005    1    3    3    0    0  0.80938039524E+01 -0.11596944344E+01 -0.42680079404E+03  0.42688027870E+03  0.10000000000E+01 0.  0.
    9000005    1    3    3    0    0 -0.80938039524E+01  0.11596944344E+01  0.72017386036E+01  0.10941644872E+02  0.10000000000E+01 0.  0.
<mgrwt>
<rscale>  0 0.12499868E+03</rscale>
<asrwt>0</asrwt>
<pdfrwt beam="2">  1        4 0.65955444E-01 0.12499868E+03</pdfrwt>
<pdfrwt beam="1">  1       -4 0.14017594E-02 0.12499868E+03</pdfrwt>
<totfact> 0.61035111E+03</totfact>
</mgrwt>
</event>
<event>
 5    1  0.3281209E-002  0.1249977E+03  0.7818608E-02  0.1235073E+00
          4   -1    0    0  501    0  0.00000000000E+00  0.00000000000E+00  0.23699043685E+02  0.23733048089E+02  0.12700000000E+01 0.  1.
         -4   -1    0    0    0  501 -0.00000000000E+00 -0.00000000000E+00 -0.16466652182E+03  0.16467141922E+03  0.12700000000E+01 0.  1.
         25    2    1    2    0    0  0.00000000000E+00  0.00000000000E+00 -0.14096747813E+03  0.18840446731E+03  0.12499765362E+03 0.  0.
    9000005    1    3    3    0    0  0.23978394631E+02 -0.46456555550E+02 -0.18884906819E+02  0.55595095721E+02  0.10000000000E+01 0.  0.
    9000005    1    3    3    0    0 -0.23978394631E+02  0.46456555550E+02 -0.12208257131E+03  0.13280937159E+03  0.10000000000E+01 0.  0.
<mgrwt>
<rscale>  0 0.12499765E+03</rscale>
<asrwt>0</asrwt>
<pdfrwt beam="1">  1        4 0.36489993E-02 0.12499765E+03</pdfrwt>
<pdfrwt beam="2">  1       -4 0.25336303E-01 0.12499765E+03</pdfrwt>
<totfact> 0.92130518E+03</totfact>
</mgrwt>
</event>
<event>
 5    1  0.3281209E-002  0.1250124E+03  0.7818608E-02  0.1235050E+00
         -4   -1    0    0    0  501 -0.00000000000E+00  0.00000000000E+00  0.11759124770E+03  0.11759810558E+03  0.12700000000E+01 0.  1.
          4   -1    0    0  501    0  0.00000000000E+00 -0.00000000000E+00 -0.33205532762E+02  0.33229810502E+02  0.12700000000E+01 0.  1.
         25    2    1    2    0    0  0.00000000000E+00  0.00000000000E+00  0.84385714942E+02  0.15082791608E+03  0.12501244492E+03 0.  0.
    9000005    1    3    3    0    0  0.21399077405E+02 -0.31451020220E+02 -0.17634869884E+02  0.41941337872E+02  0.10000000000E+01 0.  0.
    9000005    1    3    3    0    0 -0.21399077405E+02  0.31451020220E+02  0.10202058483E+03  0.10888657821E+03  0.10000000000E+01 0.  0.
<mgrwt>
<rscale>  0 0.12501244E+03</rscale>
<asrwt>0</asrwt>
<pdfrwt beam="2">  1        4 0.51109386E-02 0.12501244E+03</pdfrwt>
<pdfrwt beam="1">  1       -4 0.18093356E-01 0.12501244E+03</pdfrwt>
<totfact> 0.99111162E+03</totfact>
</mgrwt>
</event>
<event>
 5    1  0.3281209E-002  0.1249985E+03  0.7818608E-02  0.1235072E+00
          4   -1    0    0  501    0  0.00000000000E+00  0.00000000000E+00  0.36718810988E+02  0.36740767281E+02  0.12700000000E+01 0. -1.
         -4   -1    0    0    0  501 -0.00000000000E+00 -0.00000000000E+00 -0.10632277221E+03  0.10633035686E+03  0.12700000000E+01 0. -1.
         25    2    1    2    0    0  0.00000000000E+00  0.00000000000E+00 -0.69603961224E+02  0.14307112414E+03  0.12499854058E+03 0.  0.
    9000005    1    3    3    0    0 -0.12228696525E+02  0.48914927295E+02  0.74538492819E+01  0.50978142376E+02  0.10000000000E+01 0.  0.
    9000005    1    3    3    0    0  0.12228696525E+02 -0.48914927295E+02 -0.77057810506E+02  0.92092981768E+02  0.10000000000E+01 0.  0.
<mgrwt>
<rscale>  0 0.12499854E+03</rscale>
<asrwt>0</asrwt>
<pdfrwt beam="1">  1        4 0.56513203E-02 0.12499854E+03</pdfrwt>
<pdfrwt beam="2">  1       -4 0.16359622E-01 0.12499854E+03</pdfrwt>
<totfact> 0.10070658E+04</totfact>
</mgrwt>
</event>
<event>
 5    1  0.3281209E-002  0.1250027E+03  0.7818608E-02  0.1235065E+00
          4   -1    0    0  501    0  0.00000000000E+00  0.00000000000E+00  0.19577783161E+01  0.23336229205E+01  0.12700000000E+01 0.  1.
         -4   -1    0    0    0  501 -0.00000000000E+00 -0.00000000000E+00 -0.18202049483E+04  0.18202053914E+04  0.12700000000E+01 0.  1.
         25    2    1    2    0    0  0.00000000000E+00  0.00000000000E+00 -0.18182471700E+04  0.18225390143E+04  0.12500274957E+03 0.  0.
    9000005    1    3    3    0    0  0.55084339876E+02 -0.37302210896E+01 -0.13360019309E+04  0.13371426096E+04  0.10000000000E+01 0.  0.
    9000005    1    3    3    0    0 -0.55084339876E+02  0.37302210896E+01 -0.48224523912E+03  0.48539640471E+03  0.10000000000E+01 0.  0.
<mgrwt>
<rscale>  0 0.12500275E+03</rscale>
<asrwt>0</asrwt>
<pdfrwt beam="1">  1        4 0.33014332E-03 0.12500275E+03</pdfrwt>
<pdfrwt beam="2">  1       -4 0.28005924E+00 0.12500275E+03</pdfrwt>
<totfact> 0.12358817E+03</totfact>
</mgrwt>
</event>
<event>
 5    1  0.3281209E-002  0.1249925E+03  0.7818608E-02  0.1235081E+00
          4   -1    0    0  501    0  0.00000000000E+00  0.00000000000E+00  0.56385992530E+01  0.57798530722E+01  0.12700000000E+01 0.  1.
         -4   -1    0    0    0  501 -0.00000000000E+00 -0.00000000000E+00 -0.68397557454E+03  0.68397675360E+03  0.12700000000E+01 0.  1.
         25    2    1    2    0    0  0.00000000000E+00  0.00000000000E+00 -0.67833697528E+03  0.68975660667E+03  0.12499249741E+03 0.  0.
    9000005    1    3    3    0    0  0.55045414810E+01  0.26780326317E+02 -0.64924546463E+03  0.64982163644E+03  0.10000000000E+01 0.  0.
    9000005    1    3    3    0    0 -0.55045414810E+01 -0.26780326317E+02 -0.29091510657E+02  0.39934970225E+02  0.10000000000E+01 0.  0.
<mgrwt>
<rscale>  0 0.12499250E+03</rscale>
<asrwt>0</asrwt>
<pdfrwt beam="1">  1        4 0.87843372E-03 0.12499250E+03</pdfrwt>
<pdfrwt beam="2">  1       -4 0.10523790E+00 0.12499250E+03</pdfrwt>
<totfact> 0.43640155E+03</totfact>
</mgrwt>
</event>
<event>
 5    1  0.3281209E-002  0.1249960E+03  0.7818608E-02  0.1235076E+00
         -4   -1    0    0    0  501 -0.00000000000E+00  0.00000000000E+00  0.88552056299E+02  0.88561162903E+02  0.12700000000E+01 0.  1.
          4   -1    0    0  501    0  0.00000000000E+00 -0.00000000000E+00 -0.44089121400E+02  0.44107408967E+02  0.12700000000E+01 0.  1.
         25    2    1    2    0    0  0.00000000000E+00  0.00000000000E+00  0.44462934899E+02  0.13266857187E+03  0.12499598946E+03 0.  0.
    9000005    1    3    3    0    0  0.32777675617E+02 -0.13744915198E+02  0.76783856601E+02  0.84617133886E+02  0.10000000000E+01 0.  0.
    9000005    1    3    3    0    0 -0.32777675617E+02  0.13744915198E+02 -0.32320921702E+02  0.48051437984E+02  0.10000000000E+01 0.  0.
<mgrwt>
<rscale>  0 0.12499599E+03</rscale>
<asrwt>0</asrwt>
<pdfrwt beam="2">  1        4 0.67850490E-02 0.12499599E+03</pdfrwt>
<pdfrwt beam="1">  1       -4 0.13625500E-01 0.12499599E+03</pdfrwt>
<totfact> 0.10288380E+04</totfact>
</mgrwt>
</event>
<event>
 5    1  0.3281209E-002  0.1249868E+03  0.7818608E-02  0.1235090E+00
          4   -1    0    0  501    0  0.00000000000E+00  0.00000000000E+00  0.12758213345E+04  0.12758219666E+04  0.12700000000E+01 0.  1.
         -4   -1    0    0    0  501 -0.00000000000E+00 -0.00000000000E+00 -0.29287216878E+01  0.31922266092E+01  0.12700000000E+01 0.  1.
         25    2    1    2    0    0  0.00000000000E+00  0.00000000000E+00  0.12728926129E+04  0.12790141933E+04  0.12498681005E+03 0.  0.
    9000005    1    3    3    0    0 -0.24580094801E+02  0.23692955497E+02  0.11719942473E+04  0.11724918136E+04  0.10000000000E+01 0.  0.
    9000005    1    3    3    0    0  0.24580094801E+02 -0.23692955497E+02  0.10089836557E+03  0.10652237969E+03  0.10000000000E+01 0.  0.
<mgrwt>
<rscale>  0 0.12498681E+03</rscale>
<asrwt>0</asrwt>
<pdfrwt beam="1">  1        4 0.19630113E+00 0.12498681E+03</pdfrwt>
<pdfrwt beam="2">  1       -4 0.47088935E-03 0.12498681E+03</pdfrwt>
<totfact> 0.22735750E+03</totfact>
</mgrwt>
</event>
<event>
 5    1  0.3281209E-002  0.1250002E+03  0.7818608E-02  0.1235069E+00
          4   -1    0    0  501    0  0.00000000000E+00  0.00000000000E+00  0.24004624532E+03  0.24004960485E+03  0.12700000000E+01 0. -1.
         -4   -1    0    0    0  501 -0.00000000000E+00 -0.00000000000E+00 -0.16244688126E+02  0.16294256421E+02  0.12700000000E+01 0. -1.
         25    2    1    2    0    0  0.00000000000E+00  0.00000000000E+00  0.22380155719E+03  0.25634386128E+03  0.12500015285E+03 0.  0.
    9000005    1    3    3    0    0 -0.27064905952E+02 -0.48698042526E+02  0.16995003885E+03  0.17885196165E+03  0.10000000000E+01 0.  0.
    9000005    1    3    3    0    0  0.27064905952E+02  0.48698042526E+02  0.53851518337E+02  0.77491899624E+02  0.10000000000E+01 0.  0.
<mgrwt>
<rscale>  0 0.12500015E+03</rscale>
<asrwt>0</asrwt>
<pdfrwt beam="1">  1        4 0.36934262E-01 0.12500015E+03</pdfrwt>
<pdfrwt beam="2">  1       -4 0.25032542E-02 0.12500015E+03</pdfrwt>
<totfact> 0.81421624E+03</totfact>
</mgrwt>
</event>
<event>
 5    1  0.3281209E-002  0.1250000E+03  0.7818608E-02  0.1235069E+00
         -4   -1    0    0    0  501 -0.00000000000E+00  0.00000000000E+00  0.43016338474E+03  0.43016525949E+03  0.12700000000E+01 0. -1.
          4   -1    0    0  501    0  0.00000000000E+00 -0.00000000000E+00 -0.90345378587E+01  0.91233641997E+01  0.12700000000E+01 0. -1.
         25    2    1    2    0    0  0.00000000000E+00  0.00000000000E+00  0.42112884688E+03  0.43928862369E+03  0.12499995691E+03 0.  0.
    9000005    1    3    3    0    0  0.40677291973E+02  0.44079738104E+02  0.14893040414E+03  0.16055818469E+03  0.10000000000E+01 0.  0.
    9000005    1    3    3    0    0 -0.40677291973E+02 -0.44079738104E+02  0.27219844273E+03  0.27873043899E+03  0.10000000000E+01 0.  0.
<mgrwt>
<rscale>  0 0.12499996E+03</rscale>
<asrwt>0</asrwt>
<pdfrwt beam="2">  1        4 0.13969058E-02 0.12499996E+03</pdfrwt>
<pdfrwt beam="1">  1       -4 0.66185965E-01 0.12499996E+03</pdfrwt>
<totfact> 0.60903018E+03</totfact>
</mgrwt>
</event>
<event>
 5    1  0.3281209E-002  0.1250006E+03  0.7818608E-02  0.1235068E+00
         -4   -1    0    0    0  501 -0.00000000000E+00  0.00000000000E+00  0.21165494899E+02  0.21203562774E+02  0.12700000000E+01 0.  1.
          4   -1    0    0  501    0  0.00000000000E+00 -0.00000000000E+00 -0.18435313957E+03  0.18435751400E+03  0.12700000000E+01 0.  1.
         25    2    1    2    0    0  0.00000000000E+00  0.00000000000E+00 -0.16318764467E+03  0.20556107678E+03  0.12500059565E+03 0.  0.
    9000005    1    3    3    0    0 -0.44851537245E+02 -0.41079713212E+02 -0.10520137331E+03  0.12152173541E+03  0.10000000000E+01 0.  0.
    9000005    1    3    3    0    0  0.44851537245E+02  0.41079713212E+02 -0.57986271356E+02  0.84039341362E+02  0.10000000000E+01 0.  0.
<mgrwt>
<rscale>  0 0.12500060E+03</rscale>
<asrwt>0</asrwt>
<pdfrwt beam="2">  1        4 0.28365285E-01 0.12500060E+03</pdfrwt>
<pdfrwt beam="1">  1       -4 0.32594949E-02 0.12500060E+03</pdfrwt>
<totfact> 0.89204797E+03</totfact>
</mgrwt>
</event>
<event>
 5    1  0.3281209E-002  0.1250026E+03  0.7818608E-02  0.1235065E+00
          4   -1    0    0  501    0  0.00000000000E+00  0.00000000000E+00  0.24222157976E+03  0.24222490913E+03  0.12700000000E+01 0. -1.
         -4   -1    0    0    0  501 -0.00000000000E+00 -0.00000000000E+00 -0.16098979709E+02  0.16148995253E+02  0.12700000000E+01 0. -1.
         25    2    1    2    0    0  0.00000000000E+00  0.00000000000E+00  0.22612260005E+03  0.25837390438E+03  0.12500257682E+03 0.  0.
    9000005    1    3    3    0    0 -0.35636286141E+02  0.45145309202E+02  0.62542808285E+02  0.84974388501E+02  0.10000000000E+01 0.  0.
    9000005    1    3    3    0    0  0.35636286141E+02 -0.45145309202E+02  0.16357979177E+03  0.17339951588E+03  0.10000000000E+01 0.  0.
<mgrwt>
<rscale>  0 0.12500258E+03</rscale>
<asrwt>0</asrwt>
<pdfrwt beam="1">  1        4 0.37268962E-01 0.12500258E+03</pdfrwt>
<pdfrwt beam="2">  1       -4 0.24808695E-02 0.12500258E+03</pdfrwt>
<totfact> 0.81130147E+03</totfact>
</mgrwt>
</event>
<event>
 5    1  0.3281209E-002  0.1249879E+03  0.7818608E-02  0.1235088E+00
          4   -1    0    0  501    0  0.00000000000E+00  0.00000000000E+00  0.35727342394E+02  0.35749907616E+02  0.12700000000E+01 0.  1.
         -4   -1    0    0    0  501 -0.00000000000E+00 -0.00000000000E+00 -0.10925310282E+03  0.10926048406E+03  0.12700000000E+01 0.  1.
         25    2    1    2    0    0  0.00000000000E+00  0.00000000000E+00 -0.73525760429E+02  0.14501039167E+03  0.12498790440E+03 0.  0.
    9000005    1    3    3    0    0 -0.50506742062E+02 -0.94994135353E+01 -0.78000021295E+02  0.93413988103E+02  0.10000000000E+01 0.  0.
    9000005    1    3    3    0    0  0.50506742062E+02  0.94994135353E+01  0.44742608661E+01  0.51596403571E+02  0.10000000000E+01 0.  0.
<mgrwt>
<rscale>  0 0.12498790E+03</rscale>
<asrwt>0</asrwt>
<pdfrwt beam="1">  1        4 0.54988178E-02 0.12498790E+03</pdfrwt>
<pdfrwt beam="2">  1       -4 0.16810473E-01 0.12498790E+03</pdfrwt>
<totfact> 0.10033510E+04</totfact>
</mgrwt>
</event>
<event>
 5    1  0.3281209E-002  0.1250024E+03  0.7818608E-02  0.1235065E+00
          4   -1    0    0  501    0  0.00000000000E+00  0.00000000000E+00  0.10706553285E+03  0.10707306489E+03  0.12700000000E+01 0. -1.
         -4   -1    0    0    0  501 -0.00000000000E+00 -0.00000000000E+00 -0.36466223351E+02  0.36488331634E+02  0.12700000000E+01 0. -1.
         25    2    1    2    0    0  0.00000000000E+00  0.00000000000E+00  0.70599309500E+02  0.14356139652E+03  0.12500244825E+03 0.  0.
    9000005    1    3    3    0    0  0.39417399418E+01 -0.36288835316E+02  0.93555281405E+02  0.10042911710E+03  0.10000000000E+01 0.  0.
    9000005    1    3    3    0    0 -0.39417399418E+01  0.36288835316E+02 -0.22955971904E+02  0.43132279425E+02  0.10000000000E+01 0.  0.
<mgrwt>
<rscale>  0 0.12500245E+03</rscale>
<asrwt>0</asrwt>
<pdfrwt beam="1">  1        4 0.16473900E-01 0.12500245E+03</pdfrwt>
<pdfrwt beam="2">  1       -4 0.56124683E-02 0.12500245E+03</pdfrwt>
<totfact> 0.10059745E+04</totfact>
</mgrwt>
</event>
<event>
 5    1  0.3281209E-002  0.1250003E+03  0.7818608E-02  0.1235069E+00
          4   -1    0    0  501    0  0.00000000000E+00  0.00000000000E+00  0.21697515335E+02  0.21734651405E+02  0.12700000000E+01 0. -1.
         -4   -1    0    0    0  501 -0.00000000000E+00 -0.00000000000E+00 -0.17983964050E+03  0.17984412471E+03  0.12700000000E+01 0. -1.
         25    2    1    2    0    0  0.00000000000E+00  0.00000000000E+00 -0.15814212516E+03  0.20157877612E+03  0.12500028492E+03 0.  0.
    9000005    1    3    3    0    0 -0.58785488549E+02  0.12964482468E+02 -0.10612555046E+03  0.12201411366E+03  0.10000000000E+01 0.  0.
    9000005    1    3    3    0    0  0.58785488549E+02 -0.12964482468E+02 -0.52016574697E+02  0.79564662463E+02  0.10000000000E+01 0.  0.
<mgrwt>
<rscale>  0 0.12500028E+03</rscale>
<asrwt>0</asrwt>
<pdfrwt beam="1">  1        4 0.33412810E-02 0.12500028E+03</pdfrwt>
<pdfrwt beam="2">  1       -4 0.27670838E-01 0.12500028E+03</pdfrwt>
<totfact> 0.89869342E+03</totfact>
</mgrwt>
</event>
<event>
 5    1  0.3281209E-002  0.1250128E+03  0.7818608E-02  0.1235049E+00
         -4   -1    0    0    0  501 -0.00000000000E+00  0.00000000000E+00  0.54488881224E+02  0.54503679482E+02  0.12700000000E+01 0. -1.
          4   -1    0    0  501    0  0.00000000000E+00 -0.00000000000E+00 -0.71673476682E+02  0.71684727520E+02  0.12700000000E+01 0. -1.
         25    2    1    2    0    0  0.00000000000E+00  0.00000000000E+00 -0.17184595457E+02  0.12618840700E+03  0.12501281431E+03 0.  0.
    9000005    1    3    3    0    0 -0.16322617708E+02  0.10069313733E+02 -0.68634702662E+02  0.71270901056E+02  0.10000000000E+01 0.  0.
    9000005    1    3    3    0    0  0.16322617708E+02 -0.10069313733E+02  0.51450107205E+02  0.54917505946E+02  0.10000000000E+01 0.  0.
<mgrwt>
<rscale>  0 0.12501281E+03</rscale>
<asrwt>0</asrwt>
<pdfrwt beam="2">  1        4 0.11028693E-01 0.12501281E+03</pdfrwt>
<pdfrwt beam="1">  1       -4 0.83849086E-02 0.12501281E+03</pdfrwt>
<totfact> 0.10423817E+04</totfact>
</mgrwt>
</event>
<event>
 5    1  0.3281209E-002  0.1249928E+03  0.7818608E-02  0.1235081E+00
         -4   -1    0    0    0  501 -0.00000000000E+00  0.00000000000E+00  0.73406011422E+01  0.74496526851E+01  0.12700000000E+01 0.  1.
          4   -1    0    0  501    0  0.00000000000E+00 -0.00000000000E+00 -0.52804869721E+03  0.52805022444E+03  0.12700000000E+01 0.  1.
         25    2    1    2    0    0  0.00000000000E+00  0.00000000000E+00 -0.52070809607E+03  0.53549987712E+03  0.12499278813E+03 0.  0.
    9000005    1    3    3    0    0 -0.55042242631E+02 -0.29288711967E+02 -0.27818503156E+03  0.28508838789E+03  0.10000000000E+01 0.  0.
    9000005    1    3    3    0    0  0.55042242631E+02  0.29288711967E+02 -0.24252306451E+03  0.25041148923E+03  0.10000000000E+01 0.  0.
<mgrwt>
<rscale>  0 0.12499279E+03</rscale>
<asrwt>0</asrwt>
<pdfrwt beam="2">  1        4 0.81246738E-01 0.12499279E+03</pdfrwt>
<pdfrwt beam="1">  1       -4 0.11378297E-02 0.12499279E+03</pdfrwt>
<totfact> 0.53219953E+03</totfact>
</mgrwt>
</event>
<event>
 5    1  0.3281209E-002  0.1250010E+03  0.7818608E-02  0.1235068E+00
         -4   -1    0    0    0  501 -0.00000000000E+00  0.00000000000E+00  0.56016914199E+02  0.56031308894E+02  0.12700000000E+01 0.  1.
          4   -1    0    0  501    0  0.00000000000E+00 -0.00000000000E+00 -0.69705395868E+02  0.69716964313E+02  0.12700000000E+01 0.  1.
         25    2    1    2    0    0  0.00000000000E+00  0.00000000000E+00 -0.13688481669E+02  0.12574827321E+03  0.12500101473E+03 0.  0.
    9000005    1    3    3    0    0  0.25976031542E+02  0.60555422124E+01 -0.63696593656E+02  0.69062868819E+02  0.10000000000E+01 0.  0.
    9000005    1    3    3    0    0 -0.25976031542E+02 -0.60555422124E+01  0.50008111987E+02  0.56685404388E+02  0.10000000000E+01 0.  0.
<mgrwt>
<rscale>  0 0.12500101E+03</rscale>
<asrwt>0</asrwt>
<pdfrwt beam="2">  1        4 0.10725904E-01 0.12500101E+03</pdfrwt>
<pdfrwt beam="1">  1       -4 0.86199840E-02 0.12500101E+03</pdfrwt>
<totfact> 0.10436243E+04</totfact>
</mgrwt>
</event>
<event>
 5    1  0.3281209E-002  0.1250482E+03  0.7818608E-02  0.1234994E+00
          4   -1    0    0  501    0  0.00000000000E+00  0.00000000000E+00  0.54946936623E+02  0.54961611551E+02  0.12700000000E+01 0. -1.
         -4   -1    0    0    0  501 -0.00000000000E+00 -0.00000000000E+00 -0.71116263529E+02  0.71127602506E+02  0.12700000000E+01 0. -1.
         25    2    1    2    0    0  0.00000000000E+00  0.00000000000E+00 -0.16169326906E+02  0.12608921406E+03  0.12504816180E+03 0.  0.
    9000005    1    3    3    0    0 -0.24373140010E+02  0.17354420961E+02  0.47263434436E+02  0.55946922306E+02  0.10000000000E+01 0.  0.
    9000005    1    3    3    0    0  0.24373140010E+02 -0.17354420961E+02 -0.63432761341E+02  0.70142291752E+02  0.10000000000E+01 0.  0.
<mgrwt>
<rscale>  0 0.12504816E+03</rscale>
<asrwt>0</asrwt>
<pdfrwt beam="1">  1        4 0.84553760E-02 0.12504816E+03</pdfrwt>
<pdfrwt beam="2">  1       -4 0.10942965E-01 0.12504816E+03</pdfrwt>
<totfact> 0.10417676E+04</totfact>
</mgrwt>
</event>
<event>
 5    1  0.3281209E-002  0.1249983E+03  0.7818608E-02  0.1235072E+00
          4   -1    0    0  501    0  0.00000000000E+00  0.00000000000E+00  0.25436699792E+03  0.25437016832E+03  0.12700000000E+01 0. -1.
         -4   -1    0    0    0  501 -0.00000000000E+00 -0.00000000000E+00 -0.15326811366E+02  0.15379338303E+02  0.12700000000E+01 0. -1.
         25    2    1    2    0    0  0.00000000000E+00  0.00000000000E+00  0.23904018656E+03  0.26974950662E+03  0.12499834213E+03 0.  0.
    9000005    1    3    3    0    0  0.60735760897E+02  0.64309471989E+01  0.90975646293E+02  0.10957991582E+03  0.10000000000E+01 0.  0.
    9000005    1    3    3    0    0 -0.60735760897E+02 -0.64309471989E+01  0.14806454026E+03  0.16016959080E+03  0.10000000000E+01 0.  0.
<mgrwt>
<rscale>  0 0.12499834E+03</rscale>
<asrwt>0</asrwt>
<pdfrwt beam="1">  1        4 0.39137668E-01 0.12499834E+03</pdfrwt>
<pdfrwt beam="2">  1       -4 0.23622555E-02 0.12499834E+03</pdfrwt>
<totfact> 0.79559964E+03</totfact>
</mgrwt>
</event>
<event>
 5    1  0.3281209E-002  0.1249942E+03  0.7818608E-02  0.1235078E+00
          4   -1    0    0  501    0  0.00000000000E+00  0.00000000000E+00  0.29965800427E+02  0.29992700699E+02  0.12700000000E+01 0.  1.
         -4   -1    0    0    0  501 -0.00000000000E+00 -0.00000000000E+00 -0.13025642354E+03  0.13026261465E+03  0.12700000000E+01 0.  1.
         25    2    1    2    0    0  0.00000000000E+00  0.00000000000E+00 -0.10029062312E+03  0.16025531534E+03  0.12499422791E+03 0.  0.
    9000005    1    3    3    0    0  0.56726387431E+02  0.78065603881E+01 -0.18065501068E+02  0.60051542402E+02  0.10000000000E+01 0.  0.
    9000005    1    3    3    0    0 -0.56726387431E+02 -0.78065603881E+01 -0.82225122049E+02  0.10020377294E+03  0.10000000000E+01 0.  0.
<mgrwt>
<rscale>  0 0.12499423E+03</rscale>
<asrwt>0</asrwt>
<pdfrwt beam="1">  1        4 0.46126687E-02 0.12499423E+03</pdfrwt>
<pdfrwt beam="2">  1       -4 0.20041995E-01 0.12499423E+03</pdfrwt>
<totfact> 0.97306209E+03</totfact>
</mgrwt>
</event>
<event>
 5    1  0.3281209E-002  0.1250007E+03  0.7818608E-02  0.1235068E+00
         -4   -1    0    0    0  501 -0.00000000000E+00  0.00000000000E+00  0.10302459963E+03  0.10303242707E+03  0.12700000000E+01 0.  1.
          4   -1    0    0  501    0  0.00000000000E+00 -0.00000000000E+00 -0.37896244218E+02  0.37917518719E+02  0.12700000000E+01 0.  1.
         25    2    1    2    0    0  0.00000000000E+00  0.00000000000E+00  0.65128355410E+02  0.14094994579E+03  0.12500073816E+03 0.  0.
    9000005    1    3    3    0    0 -0.55547019099E+02  0.21072421355E+02  0.10705799735E+02  0.60374932054E+02  0.10000000000E+01 0.  0.
    9000005    1    3    3    0    0  0.55547019099E+02 -0.21072421355E+02  0.54422555675E+02  0.80575013738E+02  0.10000000000E+01 0.  0.
<mgrwt>
<rscale>  0 0.12500074E+03</rscale>
<asrwt>0</asrwt>
<pdfrwt beam="2">  1        4 0.58324300E-02 0.12500074E+03</pdfrwt>
<pdfrwt beam="1">  1       -4 0.15852177E-01 0.12500074E+03</pdfrwt>
<totfact> 0.10113767E+04</totfact>
</mgrwt>
</event>
<event>
 5    1  0.3281209E-002  0.1249996E+03  0.7818608E-02  0.1235070E+00
          4   -1    0    0  501    0  0.00000000000E+00  0.00000000000E+00  0.14195184097E+03  0.14195752201E+03  0.12700000000E+01 0. -1.
         -4   -1    0    0    0  501 -0.00000000000E+00 -0.00000000000E+00 -0.27497078121E+02  0.27526391067E+02  0.12700000000E+01 0. -1.
         25    2    1    2    0    0  0.00000000000E+00  0.00000000000E+00  0.11445476285E+03  0.16948391307E+03  0.12499961621E+03 0.  0.
    9000005    1    3    3    0    0  0.50180119854E+02  0.15756402537E+02  0.10298526300E+03  0.11564286854E+03  0.10000000000E+01 0.  0.
    9000005    1    3    3    0    0 -0.50180119854E+02 -0.15756402537E+02  0.11469499847E+02  0.53841044532E+02  0.10000000000E+01 0.  0.
<mgrwt>
<rscale>  0 0.12499962E+03</rscale>
<asrwt>0</asrwt>
<pdfrwt beam="1">  1        4 0.21841436E-01 0.12499962E+03</pdfrwt>
<pdfrwt beam="2">  1       -4 0.42330116E-02 0.12499962E+03</pdfrwt>
<totfact> 0.95545708E+03</totfact>
</mgrwt>
</event>
<event>
 5    1  0.3281209E-002  0.1250003E+03  0.7818608E-02  0.1235069E+00
          4   -1    0    0  501    0  0.00000000000E+00  0.00000000000E+00  0.20913757143E+02  0.20952282401E+02  0.12700000000E+01 0. -1.
         -4   -1    0    0    0  501 -0.00000000000E+00 -0.00000000000E+00 -0.18656735750E+03  0.18657168002E+03  0.12700000000E+01 0. -1.
         25    2    1    2    0    0  0.00000000000E+00  0.00000000000E+00 -0.16565360036E+03  0.20752396242E+03  0.12500031867E+03 0.  0.
    9000005    1    3    3    0    0  0.16493303527E+02  0.41677048735E+02 -0.15512152088E+03  0.16147040501E+03  0.10000000000E+01 0.  0.
    9000005    1    3    3    0    0 -0.16493303527E+02 -0.41677048735E+02 -0.10532079480E+02  0.46053557416E+02  0.10000000000E+01 0.  0.
<mgrwt>
<rscale>  0 0.12500032E+03</rscale>
<asrwt>0</asrwt>
<pdfrwt beam="1">  1        4 0.32207972E-02 0.12500032E+03</pdfrwt>
<pdfrwt beam="2">  1       -4 0.28705965E-01 0.12500032E+03</pdfrwt>
<totfact> 0.88881220E+03</totfact>
</mgrwt>
</event>
<event>
 5    1  0.3281209E-002  0.1249939E+03  0.7818608E-02  0.1235079E+00
         -4   -1    0    0    0  501 -0.00000000000E+00  0.00000000000E+00  0.19508120570E+02  0.19549416057E+02  0.12700000000E+01 0.  1.
          4   -1    0    0  501    0  0.00000000000E+00 -0.00000000000E+00 -0.19996269484E+03  0.19996672781E+03  0.12700000000E+01 0.  1.
         25    2    1    2    0    0  0.00000000000E+00  0.00000000000E+00 -0.18045457427E+03  0.21951614386E+03  0.12499393601E+03 0.  0.
    9000005    1    3    3    0    0 -0.38402062680E+02  0.19889143609E+02 -0.11011028716E+02  0.44637867388E+02  0.10000000000E+01 0.  0.
    9000005    1    3    3    0    0  0.38402062680E+02 -0.19889143609E+02 -0.16944354556E+03  0.17487827647E+03  0.10000000000E+01 0.  0.
<mgrwt>
<rscale>  0 0.12499394E+03</rscale>
<asrwt>0</asrwt>
<pdfrwt beam="2">  1        4 0.30766977E-01 0.12499394E+03</pdfrwt>
<pdfrwt beam="1">  1       -4 0.30047363E-02 0.12499394E+03</pdfrwt>
<totfact> 0.86956750E+03</totfact>
</mgrwt>
</event>
<event>
 5    1  0.3281209E-002  0.1250005E+03  0.7818608E-02  0.1235069E+00
          4   -1    0    0  501    0  0.00000000000E+00  0.00000000000E+00  0.34524070488E+02  0.34547421656E+02  0.12700000000E+01 0. -1.
         -4   -1    0    0    0  501 -0.00000000000E+00 -0.00000000000E+00 -0.11308135762E+03  0.11308848899E+03  0.12700000000E+01 0. -1.
         25    2    1    2    0    0  0.00000000000E+00  0.00000000000E+00 -0.78557287137E+02  0.14763591065E+03  0.12500045900E+03 0.  0.
    9000005    1    3    3    0    0  0.25138066822E+02  0.57213229994E+02 -0.39338839854E+02  0.73849985856E+02  0.10000000000E+01 0.  0.
    9000005    1    3    3    0    0 -0.25138066822E+02 -0.57213229994E+02 -0.39218447283E+02  0.73785924791E+02  0.10000000000E+01 0.  0.
<mgrwt>
<rscale>  0 0.12500046E+03</rscale>
<asrwt>0</asrwt>
<pdfrwt beam="1">  1        4 0.53137403E-02 0.12500046E+03</pdfrwt>
<pdfrwt beam="2">  1       -4 0.17399477E-01 0.12500046E+03</pdfrwt>
<totfact> 0.99776017E+03</totfact>
</mgrwt>
</event>
<event>
 5    1  0.3281209E-002  0.1249978E+03  0.7818608E-02  0.1235073E+00
          4   -1    0    0  501    0  0.00000000000E+00  0.00000000000E+00  0.14920038327E+03  0.14920578832E+03  0.12700000000E+01 0. -1.
         -4   -1    0    0    0  501 -0.00000000000E+00 -0.00000000000E+00 -0.26159020102E+02  0.26189830712E+02  0.12700000000E+01 0. -1.
         25    2    1    2    0    0  0.00000000000E+00  0.00000000000E+00  0.12304136317E+03  0.17539561903E+03  0.12499778448E+03 0.  0.
    9000005    1    3    3    0    0 -0.31389155434E+02 -0.51436522636E+02  0.38288815930E+02  0.71400478745E+02  0.10000000000E+01 0.  0.
    9000005    1    3    3    0    0  0.31389155434E+02  0.51436522636E+02  0.84752547238E+02  0.10399514029E+03  0.10000000000E+01 0.  0.
<mgrwt>
<rscale>  0 0.12499778E+03</rscale>
<asrwt>0</asrwt>
<pdfrwt beam="1">  1        4 0.22956691E-01 0.12499778E+03</pdfrwt>
<pdfrwt beam="2">  1       -4 0.40272504E-02 0.12499778E+03</pdfrwt>
<totfact> 0.94457127E+03</totfact>
</mgrwt>
</event>
<event>
 5    1  0.3281209E-002  0.1250014E+03  0.7818608E-02  0.1235067E+00
          4   -1    0    0  501    0  0.00000000000E+00  0.00000000000E+00  0.14540017560E+02  0.14595376345E+02  0.12700000000E+01 0. -1.
         -4   -1    0    0    0  501 -0.00000000000E+00 -0.00000000000E+00 -0.26809390902E+03  0.26809691709E+03  0.12700000000E+01 0. -1.
         25    2    1    2    0    0  0.00000000000E+00  0.00000000000E+00 -0.25355389146E+03  0.28269229344E+03  0.12500142757E+03 0.  0.
    9000005    1    3    3    0    0  0.20773174227E+02 -0.31539788580E+02 -0.23937792871E+03  0.24234082567E+03  0.10000000000E+01 0.  0.
    9000005    1    3    3    0    0 -0.20773174227E+02  0.31539788580E+02 -0.14175962748E+02  0.40351467768E+02  0.10000000000E+01 0.  0.
<mgrwt>
<rscale>  0 0.12500143E+03</rscale>
<asrwt>0</asrwt>
<pdfrwt beam="1">  1        4 0.22414157E-02 0.12500143E+03</pdfrwt>
<pdfrwt beam="2">  1       -4 0.41249703E-01 0.12500143E+03</pdfrwt>
<totfact> 0.77820008E+03</totfact>
</mgrwt>
</event>
<event>
 5    1  0.3281209E-002  0.1250001E+03  0.7818608E-02  0.1235069E+00
          4   -1    0    0  501    0  0.00000000000E+00  0.00000000000E+00  0.80331709736E+01  0.81329414046E+01  0.12700000000E+01 0. -1.
         -4   -1    0    0    0  501 -0.00000000000E+00 -0.00000000000E+00 -0.48316390374E+03  0.48316557284E+03  0.12700000000E+01 0. -1.
         25    2    1    2    0    0  0.00000000000E+00  0.00000000000E+00 -0.47513073276E+03  0.49129851424E+03  0.12500006752E+03 0.  0.
    9000005    1    3    3    0    0 -0.29294543954E+02  0.24807324469E+02 -0.43749884541E+02  0.58211906429E+02  0.10000000000E+01 0.  0.
    9000005    1    3    3    0    0  0.29294543954E+02 -0.24807324469E+02 -0.43138084822E+03  0.43308660781E+03  0.10000000000E+01 0.  0.
<mgrwt>
<rscale>  0 0.12500007E+03</rscale>
<asrwt>0</asrwt>
<pdfrwt beam="1">  1        4 0.12436759E-02 0.12500007E+03</pdfrwt>
<pdfrwt beam="2">  1       -4 0.74340689E-01 0.12500007E+03</pdfrwt>
<totfact> 0.56545798E+03</totfact>
</mgrwt>
</event>
