<event>
 5    1  0.1446384E-002  0.1249958E+03  0.7818608E-02  0.1235076E+00
         -4   -1    0    0    0  501 -0.00000000000E+00  0.00000000000E+00  0.49909305226E+01  0.51499793671E+01  0.12700000000E+01 0. -1.
          4   -1    0    0  501    0  0.00000000000E+00 -0.00000000000E+00 -0.77018331753E+03  0.77018436462E+03  0.12700000000E+01 0. -1.
         25    2    1    2    0    0  0.00000000000E+00  0.00000000000E+00 -0.76519238701E+03  0.77533434399E+03  0.12499582324E+03 0.  0.
    9000005    1    3    3    0    0  0.38867196564E+02 -0.46232255719E+02 -0.28317412977E+03  0.28954562370E+03  0.10000000000E+01 0.  0.
    9000005    1    3    3    0    0 -0.38867196564E+02  0.46232255719E+02 -0.48201825724E+03  0.48578872028E+03  0.10000000000E+01 0.  0.
<mgrwt>
<rscale>  0 0.12499582E+03</rscale>
<asrwt>0</asrwt>
<pdfrwt beam="2">  1        4 0.19256544E+00 0.12499582E+03</pdfrwt>
<pdfrwt beam="1">  1       -4 0.12677473E-02 0.12499582E+03</pdfrwt>
<totfact> 0.54706531E+02</totfact>
</mgrwt>
</event>
<event>
 5    1  0.1446384E-002  0.1249483E+03  0.7818608E-02  0.1235150E+00
          4   -1    0    0  501    0  0.00000000000E+00  0.00000000000E+00  0.33255572432E+02  0.33279813668E+02  0.12700000000E+01 0. -1.
         -4   -1    0    0    0  501 -0.00000000000E+00 -0.00000000000E+00 -0.11729391860E+03  0.11730079386E+03  0.12700000000E+01 0. -1.
         25    2    1    2    0    0  0.00000000000E+00  0.00000000000E+00 -0.84038346164E+02  0.15058060752E+03  0.12494829225E+03 0.  0.
    9000005    1    3    3    0    0 -0.26783813786E+02  0.29792245109E+02  0.15740627150E+02  0.43054824267E+02  0.10000000000E+01 0.  0.
    9000005    1    3    3    0    0  0.26783813786E+02 -0.29792245109E+02 -0.99778973314E+02  0.10752578326E+03  0.10000000000E+01 0.  0.
<mgrwt>
<rscale>  0 0.12494829E+03</rscale>
<asrwt>0</asrwt>
<pdfrwt beam="1">  1        4 0.83177829E-02 0.12494829E+03</pdfrwt>
<pdfrwt beam="2">  1       -4 0.29327368E-01 0.12494829E+03</pdfrwt>
<totfact> 0.18532559E+03</totfact>
</mgrwt>
</event>
<event>
 5    1  0.1446384E-002  0.1249988E+03  0.7818608E-02  0.1235071E+00
         -4   -1    0    0    0  501 -0.00000000000E+00  0.00000000000E+00  0.76089200690E+01  0.77141794519E+01  0.12700000000E+01 0. -1.
          4   -1    0    0  501    0  0.00000000000E+00 -0.00000000000E+00 -0.50973526760E+03  0.50973684970E+03  0.12700000000E+01 0. -1.
         25    2    1    2    0    0  0.00000000000E+00  0.00000000000E+00 -0.50212634753E+03  0.51745102915E+03  0.12499879471E+03 0.  0.
    9000005    1    3    3    0    0  0.20468510110E+02 -0.10012944603E+02 -0.49194501702E+03  0.49247347008E+03  0.10000000000E+01 0.  0.
    9000005    1    3    3    0    0 -0.20468510110E+02  0.10012944603E+02 -0.10181330512E+02  0.24977559063E+02  0.10000000000E+01 0.  0.
<mgrwt>
<rscale>  0 0.12499879E+03</rscale>
<asrwt>0</asrwt>
<pdfrwt beam="2">  1        4 0.12744706E+00 0.12499879E+03</pdfrwt>
<pdfrwt beam="1">  1       -4 0.19155869E-02 0.12499879E+03</pdfrwt>
<totfact> 0.84898773E+02</totfact>
</mgrwt>
</event>
<event>
 5    1  0.1446384E-002  0.1250005E+03  0.7818608E-02  0.1235069E+00
         -4   -1    0    0    0  501 -0.00000000000E+00  0.00000000000E+00  0.86884181169E+01  0.87807465157E+01  0.12700000000E+01 0. -1.
          4   -1    0    0  501    0  0.00000000000E+00 -0.00000000000E+00 -0.44712673262E+03  0.44712853624E+03  0.12700000000E+01 0. -1.
         25    2    1    2    0    0  0.00000000000E+00  0.00000000000E+00 -0.43843831450E+03  0.45590928276E+03  0.12500047393E+03 0.  0.
    9000005    1    3    3    0    0  0.13807152576E+02  0.45102506995E+02 -0.36873041324E+03  0.37173645402E+03  0.10000000000E+01 0.  0.
    9000005    1    3    3    0    0 -0.13807152576E+02 -0.45102506995E+02 -0.69707901264E+02  0.84172828740E+02  0.10000000000E+01 0.  0.
<mgrwt>
<rscale>  0 0.12500047E+03</rscale>
<asrwt>0</asrwt>
<pdfrwt beam="2">  1        4 0.11179337E+00 0.12500047E+03</pdfrwt>
<pdfrwt beam="1">  1       -4 0.21838725E-02 0.12500047E+03</pdfrwt>
<totfact> 0.94964661E+02</totfact>
</mgrwt>
</event>
<event>
 5    1  0.1446384E-002  0.1249999E+03  0.7818608E-02  0.1235069E+00
         -4   -1    0    0    0  501 -0.00000000000E+00  0.00000000000E+00  0.26528487513E+02  0.26558869512E+02  0.12700000000E+01 0. -1.
          4   -1    0    0  501    0  0.00000000000E+00 -0.00000000000E+00 -0.14712972067E+03  0.14713520179E+03  0.12700000000E+01 0. -1.
         25    2    1    2    0    0  0.00000000000E+00  0.00000000000E+00 -0.12060123316E+03  0.17369407130E+03  0.12499989186E+03 0.  0.
    9000005    1    3    3    0    0  0.23531785672E+01  0.18657193512E+02 -0.14311166703E+03  0.14434534131E+03  0.10000000000E+01 0.  0.
    9000005    1    3    3    0    0 -0.23531785672E+01 -0.18657193512E+02  0.22510433867E+02  0.29348729989E+02  0.10000000000E+01 0.  0.
<mgrwt>
<rscale>  0 0.12499989E+03</rscale>
<asrwt>0</asrwt>
<pdfrwt beam="2">  1        4 0.36786911E-01 0.12499989E+03</pdfrwt>
<pdfrwt beam="1">  1       -4 0.66366052E-02 0.12499989E+03</pdfrwt>
<totfact> 0.17431749E+03</totfact>
</mgrwt>
</event>
<event>
 5    1  0.1446384E-002  0.1250013E+03  0.7818608E-02  0.1235067E+00
         -4   -1    0    0    0  501 -0.00000000000E+00  0.00000000000E+00  0.62957104570E+02  0.62969912783E+02  0.12700000000E+01 0.  1.
          4   -1    0    0  501    0  0.00000000000E+00 -0.00000000000E+00 -0.62021933746E+02  0.62034935042E+02  0.12700000000E+01 0.  1.
         25    2    1    2    0    0  0.00000000000E+00  0.00000000000E+00  0.93517082410E+00  0.12500484782E+03  0.12500134973E+03 0.  0.
    9000005    1    3    3    0    0  0.39913382270E+02  0.31896238004E+01  0.48448950767E+02  0.62861376175E+02  0.10000000000E+01 0.  0.
    9000005    1    3    3    0    0 -0.39913382270E+02 -0.31896238004E+01 -0.47513779943E+02  0.62143471650E+02  0.10000000000E+01 0.  0.
<mgrwt>
<rscale>  0 0.12500135E+03</rscale>
<asrwt>0</asrwt>
<pdfrwt beam="2">  1        4 0.15508710E-01 0.12500135E+03</pdfrwt>
<pdfrwt beam="1">  1       -4 0.15742502E-01 0.12500135E+03</pdfrwt>
<totfact> 0.19834166E+03</totfact>
</mgrwt>
</event>
<event>
 5    1  0.1446384E-002  0.1250024E+03  0.7818608E-02  0.1235066E+00
         -4   -1    0    0    0  501 -0.00000000000E+00  0.00000000000E+00  0.18678140005E+02  0.18721266358E+02  0.12700000000E+01 0. -1.
          4   -1    0    0  501    0  0.00000000000E+00 -0.00000000000E+00 -0.20885669547E+03  0.20886055669E+03  0.12700000000E+01 0. -1.
         25    2    1    2    0    0  0.00000000000E+00  0.00000000000E+00 -0.19017855546E+03  0.22758182305E+03  0.12500241288E+03 0.  0.
    9000005    1    3    3    0    0  0.57614262786E+02 -0.23384777112E+02 -0.83697708416E+02  0.10427155639E+03  0.10000000000E+01 0.  0.
    9000005    1    3    3    0    0 -0.57614262786E+02  0.23384777112E+02 -0.10648084705E+03  0.12331026666E+03  0.10000000000E+01 0.  0.
<mgrwt>
<rscale>  0 0.12500241E+03</rscale>
<asrwt>0</asrwt>
<pdfrwt beam="2">  1        4 0.52220040E-01 0.12500241E+03</pdfrwt>
<pdfrwt beam="1">  1       -4 0.46754091E-02 0.12500241E+03</pdfrwt>
<totfact> 0.15273256E+03</totfact>
</mgrwt>
</event>
<event>
 5    1  0.1446384E-002  0.1249979E+03  0.7818608E-02  0.1235073E+00
          4   -1    0    0  501    0  0.00000000000E+00  0.00000000000E+00  0.24876607592E+02  0.24909004502E+02  0.12700000000E+01 0. -1.
         -4   -1    0    0    0  501 -0.00000000000E+00 -0.00000000000E+00 -0.15688262786E+03  0.15688776824E+03  0.12700000000E+01 0. -1.
         25    2    1    2    0    0  0.00000000000E+00  0.00000000000E+00 -0.13200602027E+03  0.18179677274E+03  0.12499790876E+03 0.  0.
    9000005    1    3    3    0    0 -0.36145059896E+02 -0.50763005880E+02 -0.72789174602E+02  0.95825946696E+02  0.10000000000E+01 0.  0.
    9000005    1    3    3    0    0  0.36145059896E+02  0.50763005880E+02 -0.59216845666E+02  0.85970826049E+02  0.10000000000E+01 0.  0.
<mgrwt>
<rscale>  0 0.12499791E+03</rscale>
<asrwt>0</asrwt>
<pdfrwt beam="1">  1        4 0.62238445E-02 0.12499791E+03</pdfrwt>
<pdfrwt beam="2">  1       -4 0.39225346E-01 0.12499791E+03</pdfrwt>
<totfact> 0.17078553E+03</totfact>
</mgrwt>
</event>
<event>
 5    1  0.1446384E-002  0.1249991E+03  0.7818608E-02  0.1235071E+00
         -4   -1    0    0    0  501 -0.00000000000E+00  0.00000000000E+00  0.93088675561E+02  0.93097338403E+02  0.12700000000E+01 0. -1.
          4   -1    0    0  501    0  0.00000000000E+00 -0.00000000000E+00 -0.41941831374E+02  0.41961054789E+02  0.12700000000E+01 0. -1.
         25    2    1    2    0    0  0.00000000000E+00  0.00000000000E+00  0.51146844188E+02  0.13505839319E+03  0.12499907960E+03 0.  0.
    9000005    1    3    3    0    0  0.43266521389E+02  0.91499360416E+01  0.73279539687E+02  0.85595584813E+02  0.10000000000E+01 0.  0.
    9000005    1    3    3    0    0 -0.43266521389E+02 -0.91499360416E+01 -0.22132695499E+02  0.49462808379E+02  0.10000000000E+01 0.  0.
<mgrwt>
<rscale>  0 0.12499908E+03</rscale>
<asrwt>0</asrwt>
<pdfrwt beam="2">  1        4 0.10488944E-01 0.12499908E+03</pdfrwt>
<pdfrwt beam="1">  1       -4 0.23275654E-01 0.12499908E+03</pdfrwt>
<totfact> 0.19296493E+03</totfact>
</mgrwt>
</event>
<event>
 5    1  0.1446384E-002  0.1250042E+03  0.7818608E-02  0.1235063E+00
         -4   -1    0    0    0  501 -0.00000000000E+00  0.00000000000E+00  0.33736367550E+02  0.33760263557E+02  0.12700000000E+01 0. -1.
          4   -1    0    0  501    0  0.00000000000E+00 -0.00000000000E+00 -0.11572684109E+03  0.11573380944E+03  0.12700000000E+01 0. -1.
         25    2    1    2    0    0  0.00000000000E+00  0.00000000000E+00 -0.81990473535E+02  0.14949407300E+03  0.12500416037E+03 0.  0.
    9000005    1    3    3    0    0 -0.51293060001E+02 -0.15785221879E+02 -0.27006456055E+01  0.53744252908E+02  0.10000000000E+01 0.  0.
    9000005    1    3    3    0    0  0.51293060001E+02  0.15785221879E+02 -0.79289827930E+02  0.95749820089E+02  0.10000000000E+01 0.  0.
<mgrwt>
<rscale>  0 0.12500416E+03</rscale>
<asrwt>0</asrwt>
<pdfrwt beam="2">  1        4 0.28935567E-01 0.12500416E+03</pdfrwt>
<pdfrwt beam="1">  1       -4 0.84379502E-02 0.12500416E+03</pdfrwt>
<totfact> 0.18561888E+03</totfact>
</mgrwt>
</event>
<event>
 5    1  0.1446384E-002  0.1249961E+03  0.7818608E-02  0.1235075E+00
         -4   -1    0    0    0  501 -0.00000000000E+00  0.00000000000E+00  0.36304384697E+02  0.36326591475E+02  0.12700000000E+01 0. -1.
          4   -1    0    0  501    0  0.00000000000E+00 -0.00000000000E+00 -0.10753166157E+03  0.10753916096E+03  0.12700000000E+01 0. -1.
         25    2    1    2    0    0  0.00000000000E+00  0.00000000000E+00 -0.71227276876E+02  0.14386575244E+03  0.12499611895E+03 0.  0.
    9000005    1    3    3    0    0 -0.38652145504E+02  0.47787372298E+02 -0.48604021970E+02  0.78364355768E+02  0.10000000000E+01 0.  0.
    9000005    1    3    3    0    0  0.38652145504E+02 -0.47787372298E+02 -0.22623254906E+02  0.65501396671E+02  0.10000000000E+01 0.  0.
<mgrwt>
<rscale>  0 0.12499612E+03</rscale>
<asrwt>0</asrwt>
<pdfrwt beam="2">  1        4 0.26886628E-01 0.12499612E+03</pdfrwt>
<pdfrwt beam="1">  1       -4 0.90798097E-02 0.12499612E+03</pdfrwt>
<totfact> 0.18845996E+03</totfact>
</mgrwt>
</event>
<event>
 5    1  0.1446384E-002  0.1250017E+03  0.7818608E-02  0.1235067E+00
         -4   -1    0    0    0  501 -0.00000000000E+00  0.00000000000E+00  0.39941131397E+02  0.39961317261E+02  0.12700000000E+01 0.  1.
          4   -1    0    0  501    0  0.00000000000E+00 -0.00000000000E+00 -0.97753782666E+02  0.97762032127E+02  0.12700000000E+01 0.  1.
         25    2    1    2    0    0  0.00000000000E+00  0.00000000000E+00 -0.57812651270E+02  0.13772334939E+03  0.12500167327E+03 0.  0.
    9000005    1    3    3    0    0 -0.48263180284E+02 -0.27638728375E+02  0.24916783620E+01  0.55681615803E+02  0.10000000000E+01 0.  0.
    9000005    1    3    3    0    0  0.48263180284E+02  0.27638728375E+02 -0.60304329632E+02  0.82041733585E+02  0.10000000000E+01 0.  0.
<mgrwt>
<rscale>  0 0.12500167E+03</rscale>
<asrwt>0</asrwt>
<pdfrwt beam="2">  1        4 0.24442000E-01 0.12500167E+03</pdfrwt>
<pdfrwt beam="1">  1       -4 0.99888375E-02 0.12500167E+03</pdfrwt>
<totfact> 0.19156677E+03</totfact>
</mgrwt>
</event>
<event>
 5    1  0.1446384E-002  0.1249998E+03  0.7818608E-02  0.1235070E+00
          4   -1    0    0  501    0  0.00000000000E+00  0.00000000000E+00  0.14128289266E+03  0.14128860060E+03  0.12700000000E+01 0.  1.
         -4   -1    0    0    0  501 -0.00000000000E+00 -0.00000000000E+00 -0.27627471072E+02  0.27656645817E+02  0.12700000000E+01 0.  1.
         25    2    1    2    0    0  0.00000000000E+00  0.00000000000E+00  0.11365542159E+03  0.16894524642E+03  0.12499976572E+03 0.  0.
    9000005    1    3    3    0    0 -0.31653493529E+02  0.19415118981E+02  0.12476107065E+03  0.13017378863E+03  0.10000000000E+01 0.  0.
    9000005    1    3    3    0    0  0.31653493529E+02 -0.19415118981E+02 -0.11105649059E+02  0.38771457783E+02  0.10000000000E+01 0.  0.
<mgrwt>
<rscale>  0 0.12499977E+03</rscale>
<asrwt>0</asrwt>
<pdfrwt beam="1">  1        4 0.35325083E-01 0.12499977E+03</pdfrwt>
<pdfrwt beam="2">  1       -4 0.69112282E-02 0.12499977E+03</pdfrwt>
<totfact> 0.17644822E+03</totfact>
</mgrwt>
</event>
<event>
 5    1  0.1446384E-002  0.1250020E+03  0.7818608E-02  0.1235066E+00
          4   -1    0    0  501    0  0.00000000000E+00  0.00000000000E+00  0.17420014025E+02  0.17466247125E+02  0.12700000000E+01 0.  1.
         -4   -1    0    0    0  501 -0.00000000000E+00 -0.00000000000E+00 -0.22390119780E+03  0.22390479958E+03  0.12700000000E+01 0.  1.
         25    2    1    2    0    0  0.00000000000E+00  0.00000000000E+00 -0.20648118377E+03  0.24137104671E+03  0.12500201172E+03 0.  0.
    9000005    1    3    3    0    0 -0.74273262710E+01  0.37737609700E+02 -0.81317196493E+01  0.39324511769E+02  0.10000000000E+01 0.  0.
    9000005    1    3    3    0    0  0.74273262710E+01 -0.37737609700E+02 -0.19834946412E+03  0.20204653494E+03  0.10000000000E+01 0.  0.
<mgrwt>
<rscale>  0 0.12500201E+03</rscale>
<asrwt>0</asrwt>
<pdfrwt beam="1">  1        4 0.43612336E-02 0.12500201E+03</pdfrwt>
<pdfrwt beam="2">  1       -4 0.55981520E-01 0.12500201E+03</pdfrwt>
<totfact> 0.14788649E+03</totfact>
</mgrwt>
</event>
<event>
 5    1  0.1446384E-002  0.1249991E+03  0.7818608E-02  0.1235071E+00
         -4   -1    0    0    0  501 -0.00000000000E+00  0.00000000000E+00  0.89122635469E+02  0.89131683777E+02  0.12700000000E+01 0. -1.
          4   -1    0    0  501    0  0.00000000000E+00 -0.00000000000E+00 -0.43808933786E+02  0.43827338265E+02  0.12700000000E+01 0. -1.
         25    2    1    2    0    0  0.00000000000E+00  0.00000000000E+00  0.45313701684E+02  0.13295902204E+03  0.12499907993E+03 0.  0.
    9000005    1    3    3    0    0  0.57611393711E+02 -0.22724090653E+02  0.31539407774E+02  0.69506771066E+02  0.10000000000E+01 0.  0.
    9000005    1    3    3    0    0 -0.57611393711E+02  0.22724090653E+02  0.13774293910E+02  0.63452250977E+02  0.10000000000E+01 0.  0.
<mgrwt>
<rscale>  0 0.12499908E+03</rscale>
<asrwt>0</asrwt>
<pdfrwt beam="2">  1        4 0.10955665E-01 0.12499908E+03</pdfrwt>
<pdfrwt beam="1">  1       -4 0.22284090E-01 0.12499908E+03</pdfrwt>
<totfact> 0.19406999E+03</totfact>
</mgrwt>
</event>
<event>
 5    1  0.1446384E-002  0.1250025E+03  0.7818608E-02  0.1235065E+00
          4   -1    0    0  501    0  0.00000000000E+00  0.00000000000E+00  0.11271399965E+03  0.11272115426E+03  0.12700000000E+01 0.  1.
         -4   -1    0    0    0  501 -0.00000000000E+00 -0.00000000000E+00 -0.34637807904E+02  0.34661082447E+02  0.12700000000E+01 0.  1.
         25    2    1    2    0    0  0.00000000000E+00  0.00000000000E+00  0.78076191748E+02  0.14738223671E+03  0.12500252789E+03 0.  0.
    9000005    1    3    3    0    0 -0.12764574810E+02  0.27788270168E+02 -0.25219645635E+02  0.39650382784E+02  0.10000000000E+01 0.  0.
    9000005    1    3    3    0    0  0.12764574810E+02 -0.27788270168E+02  0.10329583738E+03  0.10773185392E+03  0.10000000000E+01 0.  0.
<mgrwt>
<rscale>  0 0.12500253E+03</rscale>
<asrwt>0</asrwt>
<pdfrwt beam="1">  1        4 0.28182303E-01 0.12500253E+03</pdfrwt>
<pdfrwt beam="2">  1       -4 0.86632557E-02 0.12500253E+03</pdfrwt>
<totfact> 0.18667151E+03</totfact>
</mgrwt>
</event>
<event>
 5    1  0.1446384E-002  0.1250012E+03  0.7818608E-02  0.1235067E+00
         -4   -1    0    0    0  501 -0.00000000000E+00  0.00000000000E+00  0.11376367661E+03  0.11377076521E+03  0.12700000000E+01 0.  1.
          4   -1    0    0  501    0  0.00000000000E+00 -0.00000000000E+00 -0.34317287412E+02  0.34340779189E+02  0.12700000000E+01 0.  1.
         25    2    1    2    0    0  0.00000000000E+00  0.00000000000E+00  0.79446389202E+02  0.14811154440E+03  0.12500120330E+03 0.  0.
    9000005    1    3    3    0    0 -0.32313818549E+02  0.28113979682E+02 -0.14195352747E+02  0.45134097558E+02  0.10000000000E+01 0.  0.
    9000005    1    3    3    0    0  0.32313818549E+02 -0.28113979682E+02  0.93641741949E+02  0.10297744684E+03  0.10000000000E+01 0.  0.
<mgrwt>
<rscale>  0 0.12500120E+03</rscale>
<asrwt>0</asrwt>
<pdfrwt beam="2">  1        4 0.85831445E-02 0.12500120E+03</pdfrwt>
<pdfrwt beam="1">  1       -4 0.28444741E-01 0.12500120E+03</pdfrwt>
<totfact> 0.18631506E+03</totfact>
</mgrwt>
</event>
<event>
 5    1  0.1446384E-002  0.1249938E+03  0.7818608E-02  0.1235079E+00
         -4   -1    0    0    0  501 -0.00000000000E+00  0.00000000000E+00  0.11723192321E+03  0.11723880211E+03  0.12700000000E+01 0.  1.
          4   -1    0    0  501    0  0.00000000000E+00 -0.00000000000E+00 -0.33297455114E+02  0.33321665881E+02  0.12700000000E+01 0.  1.
         25    2    1    2    0    0  0.00000000000E+00  0.00000000000E+00  0.83934468098E+02  0.15056046799E+03  0.12499383819E+03 0.  0.
    9000005    1    3    3    0    0  0.52700695511E+02 -0.17985656290E+02  0.78121646535E+01  0.56239461734E+02  0.10000000000E+01 0.  0.
    9000005    1    3    3    0    0 -0.52700695511E+02  0.17985656290E+02  0.76122303444E+02  0.94321006256E+02  0.10000000000E+01 0.  0.
<mgrwt>
<rscale>  0 0.12499384E+03</rscale>
<asrwt>0</asrwt>
<pdfrwt beam="2">  1        4 0.83282501E-02 0.12499384E+03</pdfrwt>
<pdfrwt beam="1">  1       -4 0.29311867E-01 0.12499384E+03</pdfrwt>
<totfact> 0.18513911E+03</totfact>
</mgrwt>
</event>
<event>
 5    1  0.1446384E-002  0.1250041E+03  0.7818608E-02  0.1235063E+00
          4   -1    0    0  501    0  0.00000000000E+00  0.00000000000E+00  0.95572034597E+01  0.96412155857E+01  0.12700000000E+01 0. -1.
         -4   -1    0    0    0  501 -0.00000000000E+00 -0.00000000000E+00 -0.40687647129E+03  0.40687845333E+03  0.12700000000E+01 0. -1.
         25    2    1    2    0    0  0.00000000000E+00  0.00000000000E+00 -0.39731926783E+03  0.41651966892E+03  0.12500413597E+03 0.  0.
    9000005    1    3    3    0    0  0.48708393272E+02  0.38719248785E+02 -0.21803734305E+03  0.22674428497E+03  0.10000000000E+01 0.  0.
    9000005    1    3    3    0    0 -0.48708393272E+02 -0.38719248785E+02 -0.17928192477E+03  0.18977538395E+03  0.10000000000E+01 0.  0.
<mgrwt>
<rscale>  0 0.12500414E+03</rscale>
<asrwt>0</asrwt>
<pdfrwt beam="1">  1        4 0.24000515E-02 0.12500414E+03</pdfrwt>
<pdfrwt beam="2">  1       -4 0.10172981E+00 0.12500414E+03</pdfrwt>
<totfact> 0.10234063E+03</totfact>
</mgrwt>
</event>
<event>
 5    1  0.1446384E-002  0.1249937E+03  0.7818608E-02  0.1235079E+00
         -4   -1    0    0    0  501 -0.00000000000E+00  0.00000000000E+00  0.18360457396E+02  0.18404328181E+02  0.12700000000E+01 0. -1.
          4   -1    0    0  501    0  0.00000000000E+00 -0.00000000000E+00 -0.21243238390E+03  0.21243618013E+03  0.12700000000E+01 0. -1.
         25    2    1    2    0    0  0.00000000000E+00  0.00000000000E+00 -0.19407192650E+03  0.23084050831E+03  0.12499371033E+03 0.  0.
    9000005    1    3    3    0    0 -0.86298119658E+01 -0.47457251407E+02 -0.23668440548E+02  0.53738807613E+02  0.10000000000E+01 0.  0.
    9000005    1    3    3    0    0  0.86298119658E+01  0.47457251407E+02 -0.17040348595E+03  0.17710170070E+03  0.10000000000E+01 0.  0.
<mgrwt>
<rscale>  0 0.12499371E+03</rscale>
<asrwt>0</asrwt>
<pdfrwt beam="2">  1        4 0.53114047E-01 0.12499371E+03</pdfrwt>
<pdfrwt beam="1">  1       -4 0.45960734E-02 0.12499371E+03</pdfrwt>
<totfact> 0.15159523E+03</totfact>
</mgrwt>
</event>
<event>
 5    1  0.1446384E-002  0.1249976E+03  0.7818608E-02  0.1235073E+00
         -4   -1    0    0    0  501 -0.00000000000E+00  0.00000000000E+00  0.16051219146E+02  0.16101383048E+02  0.12700000000E+01 0.  1.
          4   -1    0    0  501    0  0.00000000000E+00 -0.00000000000E+00 -0.24292070489E+03  0.24292402468E+03  0.12700000000E+01 0.  1.
         25    2    1    2    0    0  0.00000000000E+00  0.00000000000E+00 -0.22686948575E+03  0.25902540773E+03  0.12499759312E+03 0.  0.
    9000005    1    3    3    0    0 -0.21757634634E+02  0.14831559907E+02 -0.23087316616E+03  0.23237209103E+03  0.10000000000E+01 0.  0.
    9000005    1    3    3    0    0  0.21757634634E+02 -0.14831559907E+02  0.40036804171E+01  0.26653316698E+02  0.10000000000E+01 0.  0.
<mgrwt>
<rscale>  0 0.12499759E+03</rscale>
<asrwt>0</asrwt>
<pdfrwt beam="2">  1        4 0.60736850E-01 0.12499759E+03</pdfrwt>
<pdfrwt beam="1">  1       -4 0.40194910E-02 0.12499759E+03</pdfrwt>
<totfact> 0.14203287E+03</totfact>
</mgrwt>
</event>
<event>
 5    1  0.1446384E-002  0.1250026E+03  0.7818608E-02  0.1235065E+00
          4   -1    0    0  501    0  0.00000000000E+00  0.00000000000E+00  0.31355847267E+03  0.31356104459E+03  0.12700000000E+01 0. -1.
         -4   -1    0    0    0  501 -0.00000000000E+00 -0.00000000000E+00 -0.12423324932E+02  0.12488070402E+02  0.12700000000E+01 0. -1.
         25    2    1    2    0    0  0.00000000000E+00  0.00000000000E+00  0.30113514774E+03  0.32604911499E+03  0.12500259270E+03 0.  0.
    9000005    1    3    3    0    0 -0.55675003834E+02  0.43879233950E+01  0.22371518529E+03  0.23058283555E+03  0.10000000000E+01 0.  0.
    9000005    1    3    3    0    0  0.55675003834E+02 -0.43879233950E+01  0.77419962456E+02  0.95466279441E+02  0.10000000000E+01 0.  0.
<mgrwt>
<rscale>  0 0.12500259E+03</rscale>
<asrwt>0</asrwt>
<pdfrwt beam="1">  1        4 0.78398028E-01 0.12500259E+03</pdfrwt>
<pdfrwt beam="2">  1       -4 0.31142461E-02 0.12500259E+03</pdfrwt>
<totfact> 0.12270429E+03</totfact>
</mgrwt>
</event>
<event>
 5    1  0.1446384E-002  0.1249957E+03  0.7818608E-02  0.1235076E+00
          4   -1    0    0  501    0  0.00000000000E+00  0.00000000000E+00  0.48754876013E+03  0.48755041422E+03  0.12700000000E+01 0. -1.
         -4   -1    0    0    0  501 -0.00000000000E+00 -0.00000000000E+00 -0.79594580631E+01  0.80601409826E+01  0.12700000000E+01 0. -1.
         25    2    1    2    0    0  0.00000000000E+00  0.00000000000E+00  0.47958930207E+03  0.49561055520E+03  0.12499569500E+03 0.  0.
    9000005    1    3    3    0    0 -0.28847383621E+02 -0.45213056797E+02  0.11262999900E+03  0.12475138766E+03  0.10000000000E+01 0.  0.
    9000005    1    3    3    0    0  0.28847383621E+02  0.45213056797E+02  0.36695930307E+03  0.37085916755E+03  0.10000000000E+01 0.  0.
<mgrwt>
<rscale>  0 0.12499570E+03</rscale>
<asrwt>0</asrwt>
<pdfrwt beam="1">  1        4 0.12189998E+00 0.12499570E+03</pdfrwt>
<pdfrwt beam="2">  1       -4 0.20026567E-02 0.12499570E+03</pdfrwt>
<totfact> 0.88317889E+02</totfact>
</mgrwt>
</event>
<event>
 5    1  0.1446384E-002  0.1249980E+03  0.7818608E-02  0.1235072E+00
          4   -1    0    0  501    0  0.00000000000E+00  0.00000000000E+00  0.10078528222E+03  0.10079328356E+03  0.12700000000E+01 0. -1.
         -4   -1    0    0    0  501 -0.00000000000E+00 -0.00000000000E+00 -0.38736928665E+02  0.38757741709E+02  0.12700000000E+01 0. -1.
         25    2    1    2    0    0  0.00000000000E+00  0.00000000000E+00  0.62048353550E+02  0.13955102527E+03  0.12499796189E+03 0.  0.
    9000005    1    3    3    0    0 -0.32304784739E+02  0.50080677284E+02  0.52013268286E+02  0.79107859483E+02  0.10000000000E+01 0.  0.
    9000005    1    3    3    0    0  0.32304784739E+02 -0.50080677284E+02  0.10035085264E+02  0.60443165788E+02  0.10000000000E+01 0.  0.
<mgrwt>
<rscale>  0 0.12499796E+03</rscale>
<asrwt>0</asrwt>
<pdfrwt beam="1">  1        4 0.25199922E-01 0.12499796E+03</pdfrwt>
<pdfrwt beam="2">  1       -4 0.96878340E-02 0.12499796E+03</pdfrwt>
<totfact> 0.19064241E+03</totfact>
</mgrwt>
</event>
<event>
 5    1  0.1446384E-002  0.1249988E+03  0.7818608E-02  0.1235071E+00
          4   -1    0    0  501    0  0.00000000000E+00  0.00000000000E+00  0.79286788401E+02  0.79296959052E+02  0.12700000000E+01 0.  1.
         -4   -1    0    0    0  501 -0.00000000000E+00 -0.00000000000E+00 -0.49244925774E+02  0.49261299358E+02  0.12700000000E+01 0.  1.
         25    2    1    2    0    0  0.00000000000E+00  0.00000000000E+00  0.30041862627E+02  0.12855825841E+03  0.12499884918E+03 0.  0.
    9000005    1    3    3    0    0 -0.77976093384E+01  0.61990241235E+02  0.13725969072E+02  0.63976518714E+02  0.10000000000E+01 0.  0.
    9000005    1    3    3    0    0  0.77976093384E+01 -0.61990241235E+02  0.16315893555E+02  0.64581739697E+02  0.10000000000E+01 0.  0.
<mgrwt>
<rscale>  0 0.12499885E+03</rscale>
<asrwt>0</asrwt>
<pdfrwt beam="1">  1        4 0.19825015E-01 0.12499885E+03</pdfrwt>
<pdfrwt beam="2">  1       -4 0.12314550E-01 0.12499885E+03</pdfrwt>
<totfact> 0.19642741E+03</totfact>
</mgrwt>
</event>
<event>
 5    1  0.1446384E-002  0.1249995E+03  0.7818608E-02  0.1235070E+00
         -4   -1    0    0    0  501 -0.00000000000E+00  0.00000000000E+00  0.25413684245E+02  0.25445397362E+02  0.12700000000E+01 0. -1.
          4   -1    0    0  501    0  0.00000000000E+00 -0.00000000000E+00 -0.15357518020E+03  0.15358043129E+03  0.12700000000E+01 0. -1.
         25    2    1    2    0    0  0.00000000000E+00  0.00000000000E+00 -0.12816149596E+03  0.17902582865E+03  0.12499951311E+03 0.  0.
    9000005    1    3    3    0    0  0.22405836133E+02  0.58203592690E+02 -0.69726621239E+02  0.93554697393E+02  0.10000000000E+01 0.  0.
    9000005    1    3    3    0    0 -0.22405836133E+02 -0.58203592690E+02 -0.58434874720E+02  0.85471131257E+02  0.10000000000E+01 0.  0.
<mgrwt>
<rscale>  0 0.12499951E+03</rscale>
<asrwt>0</asrwt>
<pdfrwt beam="2">  1        4 0.38398413E-01 0.12499951E+03</pdfrwt>
<pdfrwt beam="1">  1       -4 0.63580420E-02 0.12499951E+03</pdfrwt>
<totfact> 0.17197658E+03</totfact>
</mgrwt>
</event>
<event>
 5    1  0.1446384E-002  0.1249964E+03  0.7818608E-02  0.1235075E+00
          4   -1    0    0  501    0  0.00000000000E+00  0.00000000000E+00  0.20725549051E+03  0.20725938156E+03  0.12700000000E+01 0.  1.
         -4   -1    0    0    0  501 -0.00000000000E+00 -0.00000000000E+00 -0.18820949785E+02  0.18863749649E+02  0.12700000000E+01 0.  1.
         25    2    1    2    0    0  0.00000000000E+00  0.00000000000E+00  0.18843454072E+03  0.22612313121E+03  0.12499637727E+03 0.  0.
    9000005    1    3    3    0    0 -0.31473999411E+02 -0.33053232412E+02  0.17143360977E+03  0.17740803637E+03  0.10000000000E+01 0.  0.
    9000005    1    3    3    0    0  0.31473999411E+02  0.33053232412E+02  0.17000930954E+02  0.48715094838E+02  0.10000000000E+01 0.  0.
<mgrwt>
<rscale>  0 0.12499638E+03</rscale>
<asrwt>0</asrwt>
<pdfrwt beam="1">  1        4 0.51819708E-01 0.12499638E+03</pdfrwt>
<pdfrwt beam="2">  1       -4 0.47110739E-02 0.12499638E+03</pdfrwt>
<totfact> 0.15328118E+03</totfact>
</mgrwt>
</event>
<event>
 5    1  0.1446384E-002  0.1249978E+03  0.7818608E-02  0.1235073E+00
          4   -1    0    0  501    0  0.00000000000E+00  0.00000000000E+00  0.69919241273E+01  0.71063283770E+01  0.12700000000E+01 0.  1.
         -4   -1    0    0    0  501 -0.00000000000E+00 -0.00000000000E+00 -0.55401212414E+03  0.55401357980E+03  0.12700000000E+01 0.  1.
         25    2    1    2    0    0  0.00000000000E+00  0.00000000000E+00 -0.54702020002E+03  0.56111990817E+03  0.12499780847E+03 0.  0.
    9000005    1    3    3    0    0  0.21664526806E+02 -0.41800579592E+02 -0.89050900278E+02  0.10073580801E+03  0.10000000000E+01 0.  0.
    9000005    1    3    3    0    0 -0.21664526806E+02  0.41800579592E+02 -0.45796929974E+03  0.46038410016E+03  0.10000000000E+01 0.  0.
<mgrwt>
<rscale>  0 0.12499781E+03</rscale>
<asrwt>0</asrwt>
<pdfrwt beam="1">  1        4 0.17624654E-02 0.12499781E+03</pdfrwt>
<pdfrwt beam="2">  1       -4 0.13851737E+00 0.12499781E+03</pdfrwt>
<totfact> 0.78627009E+02</totfact>
</mgrwt>
</event>
<event>
 5    1  0.1446384E-002  0.1250029E+03  0.7818608E-02  0.1235065E+00
          4   -1    0    0  501    0  0.00000000000E+00  0.00000000000E+00  0.65486721675E+01  0.66706826605E+01  0.12700000000E+01 0. -1.
         -4   -1    0    0    0  501 -0.00000000000E+00 -0.00000000000E+00 -0.59089457528E+03  0.59089594007E+03  0.12700000000E+01 0. -1.
         25    2    1    2    0    0  0.00000000000E+00  0.00000000000E+00 -0.58434590311E+03  0.59756662273E+03  0.12500293645E+03 0.  0.
    9000005    1    3    3    0    0 -0.48535609291E+02  0.24130160003E+01 -0.48000793285E+03  0.48246258260E+03  0.10000000000E+01 0.  0.
    9000005    1    3    3    0    0  0.48535609291E+02 -0.24130160003E+01 -0.10433797026E+03  0.11510404013E+03  0.10000000000E+01 0.  0.
<mgrwt>
<rscale>  0 0.12500294E+03</rscale>
<asrwt>0</asrwt>
<pdfrwt beam="1">  1        4 0.16525920E-02 0.12500294E+03</pdfrwt>
<pdfrwt beam="2">  1       -4 0.14773889E+00 0.12500294E+03</pdfrwt>
<totfact> 0.73805097E+02</totfact>
</mgrwt>
</event>
<event>
 5    1  0.1446384E-002  0.1250054E+03  0.7818608E-02  0.1235061E+00
         -4   -1    0    0    0  501 -0.00000000000E+00  0.00000000000E+00  0.34401018488E+01  0.36670425045E+01  0.12700000000E+01 0.  1.
          4   -1    0    0  501    0  0.00000000000E+00 -0.00000000000E+00 -0.10991137207E+04  0.10991144545E+04  0.12700000000E+01 0.  1.
         25    2    1    2    0    0  0.00000000000E+00  0.00000000000E+00 -0.10956736189E+04  0.11027814970E+04  0.12500540360E+03 0.  0.
    9000005    1    3    3    0    0  0.29964237667E+02  0.34871428763E+01 -0.64999782244E+02  0.71665803534E+02  0.10000000000E+01 0.  0.
    9000005    1    3    3    0    0 -0.29964237667E+02 -0.34871428763E+01 -0.10306738366E+04  0.10311156934E+04  0.10000000000E+01 0.  0.
<mgrwt>
<rscale>  0 0.12500540E+03</rscale>
<asrwt>0</asrwt>
<pdfrwt beam="2">  1        4 0.27480573E+00 0.12500540E+03</pdfrwt>
<pdfrwt beam="1">  1       -4 0.88848852E-03 0.12500540E+03</pdfrwt>
<totfact> 0.30614505E+02</totfact>
</mgrwt>
</event>
<event>
 5    1  0.1446384E-002  0.1250166E+03  0.7818608E-02  0.1235043E+00
         -4   -1    0    0    0  501 -0.00000000000E+00  0.00000000000E+00  0.37202782031E+03  0.37202998801E+03  0.12700000000E+01 0.  1.
          4   -1    0    0  501    0  0.00000000000E+00 -0.00000000000E+00 -0.10462080471E+02  0.10538881714E+02  0.12700000000E+01 0.  1.
         25    2    1    2    0    0  0.00000000000E+00  0.00000000000E+00  0.36156573984E+03  0.38256886973E+03  0.12501662235E+03 0.  0.
    9000005    1    3    3    0    0  0.20273535685E+02  0.37381192915E+02  0.40618948766E+02  0.58815549235E+02  0.10000000000E+01 0.  0.
    9000005    1    3    3    0    0 -0.20273535685E+02 -0.37381192915E+02  0.32094679107E+03  0.32375332049E+03  0.10000000000E+01 0.  0.
<mgrwt>
<rscale>  0 0.12501662E+03</rscale>
<asrwt>0</asrwt>
<pdfrwt beam="2">  1        4 0.26253913E-02 0.12501662E+03</pdfrwt>
<pdfrwt beam="1">  1       -4 0.93016825E-01 0.12501662E+03</pdfrwt>
<totfact> 0.10933144E+03</totfact>
</mgrwt>
</event>
<event>
 5    1  0.1446384E-002  0.1250024E+03  0.7818608E-02  0.1235066E+00
          4   -1    0    0  501    0  0.00000000000E+00  0.00000000000E+00  0.22880553864E+02  0.22915772846E+02  0.12700000000E+01 0.  1.
         -4   -1    0    0    0  501 -0.00000000000E+00 -0.00000000000E+00 -0.17056117405E+03  0.17056590220E+03  0.12700000000E+01 0.  1.
         25    2    1    2    0    0  0.00000000000E+00  0.00000000000E+00 -0.14768062019E+03  0.19348167505E+03  0.12500237198E+03 0.  0.
    9000005    1    3    3    0    0  0.18714086995E+02  0.59158239439E+02 -0.85369667232E+02  0.10554096091E+03  0.10000000000E+01 0.  0.
    9000005    1    3    3    0    0 -0.18714086995E+02 -0.59158239439E+02 -0.62310952958E+02  0.87940714144E+02  0.10000000000E+01 0.  0.
<mgrwt>
<rscale>  0 0.12500237E+03</rscale>
<asrwt>0</asrwt>
<pdfrwt beam="1">  1        4 0.57251324E-02 0.12500237E+03</pdfrwt>
<pdfrwt beam="2">  1       -4 0.42645283E-01 0.12500237E+03</pdfrwt>
<totfact> 0.16585506E+03</totfact>
</mgrwt>
</event>
<event>
 5    1  0.1446384E-002  0.1250017E+03  0.7818608E-02  0.1235067E+00
          4   -1    0    0  501    0  0.00000000000E+00  0.00000000000E+00  0.16018929198E+03  0.16019432626E+03  0.12700000000E+01 0. -1.
         -4   -1    0    0    0  501 -0.00000000000E+00 -0.00000000000E+00 -0.24363938749E+02  0.24397016444E+02  0.12700000000E+01 0. -1.
         25    2    1    2    0    0  0.00000000000E+00  0.00000000000E+00  0.13582535323E+03  0.18459134270E+03  0.12500174887E+03 0.  0.
    9000005    1    3    3    0    0 -0.33624061162E+02  0.51049828308E+02  0.48732671407E+02  0.78182707307E+02  0.10000000000E+01 0.  0.
    9000005    1    3    3    0    0  0.33624061162E+02 -0.51049828308E+02  0.87092681822E+02  0.10640863539E+03  0.10000000000E+01 0.  0.
<mgrwt>
<rscale>  0 0.12500175E+03</rscale>
<asrwt>0</asrwt>
<pdfrwt beam="1">  1        4 0.40052086E-01 0.12500175E+03</pdfrwt>
<pdfrwt beam="2">  1       -4 0.60957489E-02 0.12500175E+03</pdfrwt>
<totfact> 0.16957520E+03</totfact>
</mgrwt>
</event>
<event>
 5    1  0.1446384E-002  0.1250004E+03  0.7818608E-02  0.1235069E+00
         -4   -1    0    0    0  501 -0.00000000000E+00  0.00000000000E+00  0.11853326540E+03  0.11854006878E+03  0.12700000000E+01 0. -1.
          4   -1    0    0  501    0  0.00000000000E+00 -0.00000000000E+00 -0.32935104547E+02  0.32959581483E+02  0.12700000000E+01 0. -1.
         25    2    1    2    0    0  0.00000000000E+00  0.00000000000E+00  0.85598160852E+02  0.15149965026E+03  0.12500039555E+03 0.  0.
    9000005    1    3    3    0    0  0.55783178546E+02 -0.10236061494E+02  0.74606339299E+02  0.93721106626E+02  0.10000000000E+01 0.  0.
    9000005    1    3    3    0    0 -0.55783178546E+02  0.10236061494E+02  0.10991821552E+02  0.57778543636E+02  0.10000000000E+01 0.  0.
<mgrwt>
<rscale>  0 0.12500040E+03</rscale>
<asrwt>0</asrwt>
<pdfrwt beam="2">  1        4 0.82376863E-02 0.12500040E+03</pdfrwt>
<pdfrwt beam="1">  1       -4 0.29637226E-01 0.12500040E+03</pdfrwt>
<totfact> 0.18465118E+03</totfact>
</mgrwt>
</event>
<event>
 5    1  0.1446384E-002  0.1249961E+03  0.7818608E-02  0.1235075E+00
          4   -1    0    0  501    0  0.00000000000E+00  0.00000000000E+00  0.22952003989E+02  0.22987113501E+02  0.12700000000E+01 0.  1.
         -4   -1    0    0    0  501 -0.00000000000E+00 -0.00000000000E+00 -0.17001384071E+03  0.17001858408E+03  0.12700000000E+01 0.  1.
         25    2    1    2    0    0  0.00000000000E+00  0.00000000000E+00 -0.14706183672E+03  0.19300569758E+03  0.12499606186E+03 0.  0.
    9000005    1    3    3    0    0 -0.91294205706E+01 -0.61086494738E+02 -0.58874404704E+02  0.85335231227E+02  0.10000000000E+01 0.  0.
    9000005    1    3    3    0    0  0.91294205706E+01  0.61086494738E+02 -0.88187432019E+02  0.10767046636E+03  0.10000000000E+01 0.  0.
<mgrwt>
<rscale>  0 0.12499606E+03</rscale>
<asrwt>0</asrwt>
<pdfrwt beam="1">  1        4 0.57429831E-02 0.12499606E+03</pdfrwt>
<pdfrwt beam="2">  1       -4 0.42508438E-01 0.12499606E+03</pdfrwt>
<totfact> 0.16607502E+03</totfact>
</mgrwt>
</event>
<event>
 5    1  0.1446384E-002  0.1250032E+03  0.7818608E-02  0.1235064E+00
         -4   -1    0    0    0  501 -0.00000000000E+00  0.00000000000E+00  0.11400400330E+03  0.11401107695E+03  0.12700000000E+01 0. -1.
          4   -1    0    0  501    0  0.00000000000E+00 -0.00000000000E+00 -0.34245995551E+02  0.34269536199E+02  0.12700000000E+01 0. -1.
         25    2    1    2    0    0  0.00000000000E+00  0.00000000000E+00  0.79758007746E+02  0.14828061315E+03  0.12500320171E+03 0.  0.
    9000005    1    3    3    0    0 -0.47183377144E+02 -0.29130113062E+02  0.56918250699E+01  0.55751515122E+02  0.10000000000E+01 0.  0.
    9000005    1    3    3    0    0  0.47183377144E+02  0.29130113062E+02  0.74066182676E+02  0.92529098028E+02  0.10000000000E+01 0.  0.
<mgrwt>
<rscale>  0 0.12500320E+03</rscale>
<asrwt>0</asrwt>
<pdfrwt beam="2">  1        4 0.85653258E-02 0.12500320E+03</pdfrwt>
<pdfrwt beam="1">  1       -4 0.28504827E-01 0.12500320E+03</pdfrwt>
<totfact> 0.18622260E+03</totfact>
</mgrwt>
</event>
<event>
 5    1  0.1446384E-002  0.1250030E+03  0.7818608E-02  0.1235065E+00
         -4   -1    0    0    0  501 -0.00000000000E+00  0.00000000000E+00  0.37428850090E+02  0.37450390105E+02  0.12700000000E+01 0.  1.
          4   -1    0    0  501    0  0.00000000000E+00 -0.00000000000E+00 -0.10431427600E+03  0.10432200668E+03  0.12700000000E+01 0.  1.
         25    2    1    2    0    0  0.00000000000E+00  0.00000000000E+00 -0.66885425910E+02  0.14177239678E+03  0.12500300913E+03 0.  0.
    9000005    1    3    3    0    0  0.55319163839E+02 -0.41699997064E+01 -0.81067252086E+00  0.55491044100E+02  0.10000000000E+01 0.  0.
    9000005    1    3    3    0    0 -0.55319163839E+02  0.41699997064E+01 -0.66074753390E+02  0.86281352683E+02  0.10000000000E+01 0.  0.
<mgrwt>
<rscale>  0 0.12500301E+03</rscale>
<asrwt>0</asrwt>
<pdfrwt beam="2">  1        4 0.26082227E-01 0.12500301E+03</pdfrwt>
<pdfrwt beam="1">  1       -4 0.93608716E-02 0.12500301E+03</pdfrwt>
<totfact> 0.18948704E+03</totfact>
</mgrwt>
</event>
<event>
 5    1  0.1446384E-002  0.1249961E+03  0.7818608E-02  0.1235075E+00
         -4   -1    0    0    0  501 -0.00000000000E+00  0.00000000000E+00  0.97726586979E+03  0.97726669500E+03  0.12700000000E+01 0. -1.
          4   -1    0    0  501    0  0.00000000000E+00 -0.00000000000E+00 -0.38951414556E+01  0.40969533753E+01  0.12700000000E+01 0. -1.
         25    2    1    2    0    0  0.00000000000E+00  0.00000000000E+00  0.97337072834E+03  0.98136364838E+03  0.12499614224E+03 0.  0.
    9000005    1    3    3    0    0 -0.37246347193E+02 -0.37675334678E+02  0.22649487864E+03  0.23261051411E+03  0.10000000000E+01 0.  0.
    9000005    1    3    3    0    0  0.37246347193E+02  0.37675334678E+02  0.74687584969E+03  0.74875313427E+03  0.10000000000E+01 0.  0.
<mgrwt>
<rscale>  0 0.12499614E+03</rscale>
<asrwt>0</asrwt>
<pdfrwt beam="2">  1        4 0.99911487E-03 0.12499614E+03</pdfrwt>
<pdfrwt beam="1">  1       -4 0.24434183E+00 0.12499614E+03</pdfrwt>
<totfact> 0.38380102E+02</totfact>
</mgrwt>
</event>
<event>
 5    1  0.1446384E-002  0.1249980E+03  0.7818608E-02  0.1235072E+00
          4   -1    0    0  501    0  0.00000000000E+00  0.00000000000E+00  0.19909267641E+02  0.19949732780E+02  0.12700000000E+01 0.  1.
         -4   -1    0    0    0  501 -0.00000000000E+00 -0.00000000000E+00 -0.19595450062E+03  0.19595861607E+03  0.12700000000E+01 0.  1.
         25    2    1    2    0    0  0.00000000000E+00  0.00000000000E+00 -0.17604523297E+03  0.21590834885E+03  0.12499796418E+03 0.  0.
    9000005    1    3    3    0    0 -0.16730093643E+00 -0.57141041622E+02 -0.13171997371E+03  0.14358369720E+03  0.10000000000E+01 0.  0.
    9000005    1    3    3    0    0  0.16730093643E+00  0.57141041622E+02 -0.44325259263E+02  0.72324651648E+02  0.10000000000E+01 0.  0.
<mgrwt>
<rscale>  0 0.12499796E+03</rscale>
<asrwt>0</asrwt>
<pdfrwt beam="1">  1        4 0.49828901E-02 0.12499796E+03</pdfrwt>
<pdfrwt beam="2">  1       -4 0.48994192E-01 0.12499796E+03</pdfrwt>
<totfact> 0.15704999E+03</totfact>
</mgrwt>
</event>
<event>
 5    1  0.1446384E-002  0.1250378E+03  0.7818608E-02  0.1235010E+00
         -4   -1    0    0    0  501 -0.00000000000E+00  0.00000000000E+00  0.39915867129E+02  0.39936065763E+02  0.12700000000E+01 0. -1.
          4   -1    0    0  501    0  0.00000000000E+00 -0.00000000000E+00 -0.97872255158E+02  0.97880494633E+02  0.12700000000E+01 0. -1.
         25    2    1    2    0    0  0.00000000000E+00  0.00000000000E+00 -0.57956388029E+02  0.13781656040E+03  0.12503783990E+03 0.  0.
    9000005    1    3    3    0    0  0.24862535721E+02  0.47401607666E+02 -0.64566711970E+02  0.83874420335E+02  0.10000000000E+01 0.  0.
    9000005    1    3    3    0    0 -0.24862535721E+02 -0.47401607666E+02  0.66103239411E+01  0.53942140062E+02  0.10000000000E+01 0.  0.
<mgrwt>
<rscale>  0 0.12503784E+03</rscale>
<asrwt>0</asrwt>
<pdfrwt beam="2">  1        4 0.24471618E-01 0.12503784E+03</pdfrwt>
<pdfrwt beam="1">  1       -4 0.99825217E-02 0.12503784E+03</pdfrwt>
<totfact> 0.19135712E+03</totfact>
</mgrwt>
</event>
<event>
 5    1  0.1446384E-002  0.1249992E+03  0.7818608E-02  0.1235071E+00
         -4   -1    0    0    0  501 -0.00000000000E+00  0.00000000000E+00  0.12959386480E+02  0.13021466812E+02  0.12700000000E+01 0.  1.
          4   -1    0    0  501    0  0.00000000000E+00 -0.00000000000E+00 -0.30063502750E+03  0.30063770998E+03  0.12700000000E+01 0.  1.
         25    2    1    2    0    0  0.00000000000E+00  0.00000000000E+00 -0.28767564102E+03  0.31365917679E+03  0.12499921899E+03 0.  0.
    9000005    1    3    3    0    0 -0.26755564292E+02  0.82076398391E+01 -0.28404345014E+03  0.28542057939E+03  0.10000000000E+01 0.  0.
    9000005    1    3    3    0    0  0.26755564292E+02 -0.82076398391E+01 -0.36321908784E+01  0.28238597395E+02  0.10000000000E+01 0.  0.
<mgrwt>
<rscale>  0 0.12499922E+03</rscale>
<asrwt>0</asrwt>
<pdfrwt beam="2">  1        4 0.75166829E-01 0.12499922E+03</pdfrwt>
<pdfrwt beam="1">  1       -4 0.32479430E-02 0.12499922E+03</pdfrwt>
<totfact> 0.12596914E+03</totfact>
</mgrwt>
</event>
<event>
 5    1  0.1446384E-002  0.1250004E+03  0.7818608E-02  0.1235069E+00
         -4   -1    0    0    0  501 -0.00000000000E+00  0.00000000000E+00  0.13241858084E+02  0.13302620250E+02  0.12700000000E+01 0.  1.
          4   -1    0    0  501    0  0.00000000000E+00 -0.00000000000E+00 -0.29425694375E+03  0.29425968437E+03  0.12700000000E+01 0.  1.
         25    2    1    2    0    0  0.00000000000E+00  0.00000000000E+00 -0.28101508567E+03  0.30756230462E+03  0.12500037140E+03 0.  0.
    9000005    1    3    3    0    0 -0.68999212909E+01  0.59685126360E+02 -0.98222158371E+02  0.11514562787E+03  0.10000000000E+01 0.  0.
    9000005    1    3    3    0    0  0.68999212909E+01 -0.59685126360E+02 -0.18279292730E+03  0.19241667675E+03  0.10000000000E+01 0.  0.
<mgrwt>
<rscale>  0 0.12500037E+03</rscale>
<asrwt>0</asrwt>
<pdfrwt beam="2">  1        4 0.73572152E-01 0.12500037E+03</pdfrwt>
<pdfrwt beam="1">  1       -4 0.33184033E-02 0.12500037E+03</pdfrwt>
<totfact> 0.12761618E+03</totfact>
</mgrwt>
</event>
<event>
 5    1  0.1446384E-002  0.1250008E+03  0.7818608E-02  0.1235068E+00
          4   -1    0    0  501    0  0.00000000000E+00  0.00000000000E+00  0.27417658112E+03  0.27417952245E+03  0.12700000000E+01 0. -1.
         -4   -1    0    0    0  501 -0.00000000000E+00 -0.00000000000E+00 -0.14216051124E+02  0.14272666519E+02  0.12700000000E+01 0. -1.
         25    2    1    2    0    0  0.00000000000E+00  0.00000000000E+00  0.25996052999E+03  0.28845218897E+03  0.12500075267E+03 0.  0.
    9000005    1    3    3    0    0  0.46725885709E+02 -0.98389704436E+01  0.22300798723E+03  0.22806506989E+03  0.10000000000E+01 0.  0.
    9000005    1    3    3    0    0 -0.46725885709E+02  0.98389704436E+01  0.36952542761E+02  0.60387119083E+02  0.10000000000E+01 0.  0.
<mgrwt>
<rscale>  0 0.12500075E+03</rscale>
<asrwt>0</asrwt>
<pdfrwt beam="1">  1        4 0.68551591E-01 0.12500075E+03</pdfrwt>
<pdfrwt beam="2">  1       -4 0.35614573E-02 0.12500075E+03</pdfrwt>
<totfact> 0.13300760E+03</totfact>
</mgrwt>
</event>
<event>
 5    1  0.1446384E-002  0.1249993E+03  0.7818608E-02  0.1235070E+00
          4   -1    0    0  501    0  0.00000000000E+00  0.00000000000E+00  0.35415428085E+02  0.35438191918E+02  0.12700000000E+01 0.  1.
         -4   -1    0    0    0  501 -0.00000000000E+00 -0.00000000000E+00 -0.11023486726E+03  0.11024218276E+03  0.12700000000E+01 0.  1.
         25    2    1    2    0    0  0.00000000000E+00  0.00000000000E+00 -0.74819439173E+02  0.14568037468E+03  0.12499929235E+03 0.  0.
    9000005    1    3    3    0    0  0.41914156231E+02  0.44053639464E+02 -0.20614053123E+02  0.64214163771E+02  0.10000000000E+01 0.  0.
    9000005    1    3    3    0    0 -0.41914156231E+02 -0.44053639464E+02 -0.54205386050E+02  0.81466210906E+02  0.10000000000E+01 0.  0.
<mgrwt>
<rscale>  0 0.12499929E+03</rscale>
<asrwt>0</asrwt>
<pdfrwt beam="1">  1        4 0.88576172E-02 0.12499929E+03</pdfrwt>
<pdfrwt beam="2">  1       -4 0.27562476E-01 0.12499929E+03</pdfrwt>
<totfact> 0.18753546E+03</totfact>
</mgrwt>
</event>
<event>
 5    1  0.1446384E-002  0.1250057E+03  0.7818608E-02  0.1235060E+00
         -4   -1    0    0    0  501 -0.00000000000E+00  0.00000000000E+00  0.61409023502E+03  0.61409154826E+03  0.12700000000E+01 0.  1.
          4   -1    0    0  501    0  0.00000000000E+00 -0.00000000000E+00 -0.62968996523E+01  0.64236940487E+01  0.12700000000E+01 0.  1.
         25    2    1    2    0    0  0.00000000000E+00  0.00000000000E+00  0.60779333537E+03  0.62051524231E+03  0.12500570956E+03 0.  0.
    9000005    1    3    3    0    0  0.36643186664E+02  0.50480471012E+02  0.28492590109E+03  0.29167579638E+03  0.10000000000E+01 0.  0.
    9000005    1    3    3    0    0 -0.36643186664E+02 -0.50480471012E+02  0.32286743428E+03  0.32883944593E+03  0.10000000000E+01 0.  0.
<mgrwt>
<rscale>  0 0.12500571E+03</rscale>
<asrwt>0</asrwt>
<pdfrwt beam="2">  1        4 0.15902387E-02 0.12500571E+03</pdfrwt>
<pdfrwt beam="1">  1       -4 0.15353854E+00 0.12500571E+03</pdfrwt>
<totfact> 0.70970956E+02</totfact>
</mgrwt>
</event>
<event>
 5    1  0.1446384E-002  0.1249969E+03  0.7818608E-02  0.1235074E+00
         -4   -1    0    0    0  501 -0.00000000000E+00  0.00000000000E+00  0.14341737525E+02  0.14397858703E+02  0.12700000000E+01 0. -1.
          4   -1    0    0  501    0  0.00000000000E+00 -0.00000000000E+00 -0.27176627685E+03  0.27176924428E+03  0.12700000000E+01 0. -1.
         25    2    1    2    0    0  0.00000000000E+00  0.00000000000E+00 -0.25742453933E+03  0.28616710298E+03  0.12499686948E+03 0.  0.
    9000005    1    3    3    0    0 -0.14664676415E+02 -0.53090003546E+02 -0.61128472519E+02  0.82287856719E+02  0.10000000000E+01 0.  0.
    9000005    1    3    3    0    0  0.14664676415E+02  0.53090003546E+02 -0.19629606681E+03  0.20387924626E+03  0.10000000000E+01 0.  0.
<mgrwt>
<rscale>  0 0.12499687E+03</rscale>
<asrwt>0</asrwt>
<pdfrwt beam="2">  1        4 0.67948939E-01 0.12499687E+03</pdfrwt>
<pdfrwt beam="1">  1       -4 0.35928213E-02 0.12499687E+03</pdfrwt>
<totfact> 0.13368762E+03</totfact>
</mgrwt>
</event>
<event>
 5    1  0.1446384E-002  0.1250296E+03  0.7818608E-02  0.1235023E+00
          4   -1    0    0  501    0  0.00000000000E+00  0.00000000000E+00  0.80842699696E+01  0.81834174366E+01  0.12700000000E+01 0.  1.
         -4   -1    0    0    0  501 -0.00000000000E+00 -0.00000000000E+00 -0.48037370584E+03  0.48037538464E+03  0.12700000000E+01 0.  1.
         25    2    1    2    0    0  0.00000000000E+00  0.00000000000E+00 -0.47228943587E+03  0.48855880207E+03  0.12502956389E+03 0.  0.
    9000005    1    3    3    0    0 -0.58342689972E+02  0.20623179933E+02 -0.20165346938E+03  0.21093673634E+03  0.10000000000E+01 0.  0.
    9000005    1    3    3    0    0  0.58342689972E+02 -0.20623179933E+02 -0.27063596650E+03  0.27762206574E+03  0.10000000000E+01 0.  0.
<mgrwt>
<rscale>  0 0.12502956E+03</rscale>
<asrwt>0</asrwt>
<pdfrwt beam="1">  1        4 0.20336724E-02 0.12502956E+03</pdfrwt>
<pdfrwt beam="2">  1       -4 0.12010593E+00 0.12502956E+03</pdfrwt>
<totfact> 0.89394922E+02</totfact>
</mgrwt>
</event>
<event>
 5    1  0.1446384E-002  0.1249950E+03  0.7818608E-02  0.1235077E+00
          4   -1    0    0  501    0  0.00000000000E+00  0.00000000000E+00  0.31242722311E+03  0.31242980434E+03  0.12700000000E+01 0.  1.
         -4   -1    0    0    0  501 -0.00000000000E+00 -0.00000000000E+00 -0.12467009824E+02  0.12531529594E+02  0.12700000000E+01 0.  1.
         25    2    1    2    0    0  0.00000000000E+00  0.00000000000E+00  0.29996021329E+03  0.32496133393E+03  0.12499495589E+03 0.  0.
    9000005    1    3    3    0    0 -0.60493938034E+01  0.55950734817E+02  0.22059961204E+03  0.22766701281E+03  0.10000000000E+01 0.  0.
    9000005    1    3    3    0    0  0.60493938034E+01 -0.55950734817E+02  0.79360601248E+02  0.97294321121E+02  0.10000000000E+01 0.  0.
<mgrwt>
<rscale>  0 0.12499496E+03</rscale>
<asrwt>0</asrwt>
<pdfrwt beam="1">  1        4 0.78115191E-01 0.12499496E+03</pdfrwt>
<pdfrwt beam="2">  1       -4 0.31251402E-02 0.12499496E+03</pdfrwt>
<totfact> 0.12300640E+03</totfact>
</mgrwt>
</event>
<event>
 5    1  0.1446384E-002  0.1250016E+03  0.7818608E-02  0.1235067E+00
          4   -1    0    0  501    0  0.00000000000E+00  0.00000000000E+00  0.29591749617E+03  0.29592022141E+03  0.12700000000E+01 0. -1.
         -4   -1    0    0    0  501 -0.00000000000E+00 -0.00000000000E+00 -0.13167472529E+02  0.13228576371E+02  0.12700000000E+01 0. -1.
         25    2    1    2    0    0  0.00000000000E+00  0.00000000000E+00  0.28275002364E+03  0.30914879778E+03  0.12500161319E+03 0.  0.
    9000005    1    3    3    0    0 -0.14608083625E+02  0.58604264599E+02  0.18106091335E+03  0.19087144962E+03  0.10000000000E+01 0.  0.
    9000005    1    3    3    0    0  0.14608083625E+02 -0.58604264599E+02  0.10168911029E+03  0.11827734816E+03  0.10000000000E+01 0.  0.
<mgrwt>
<rscale>  0 0.12500161E+03</rscale>
<asrwt>0</asrwt>
<pdfrwt beam="1">  1        4 0.73987352E-01 0.12500161E+03</pdfrwt>
<pdfrwt beam="2">  1       -4 0.32998468E-02 0.12500161E+03</pdfrwt>
<totfact> 0.12717993E+03</totfact>
</mgrwt>
</event>
<event>
 5    1  0.1446384E-002  0.1249997E+03  0.7818608E-02  0.1235070E+00
         -4   -1    0    0    0  501 -0.00000000000E+00  0.00000000000E+00  0.80700341419E+01  0.81693543840E+01  0.12700000000E+01 0.  1.
          4   -1    0    0  501    0  0.00000000000E+00 -0.00000000000E+00 -0.48098094143E+03  0.48098261810E+03  0.12700000000E+01 0.  1.
         25    2    1    2    0    0  0.00000000000E+00  0.00000000000E+00 -0.47291090729E+03  0.48915197249E+03  0.12499970383E+03 0.  0.
    9000005    1    3    3    0    0  0.62469893928E+02 -0.16564148122E+01 -0.23650040249E+03  0.24461944267E+03  0.10000000000E+01 0.  0.
    9000005    1    3    3    0    0 -0.62469893928E+02  0.16564148122E+01 -0.23641050480E+03  0.24453252981E+03  0.10000000000E+01 0.  0.
<mgrwt>
<rscale>  0 0.12499970E+03</rscale>
<asrwt>0</asrwt>
<pdfrwt beam="2">  1        4 0.12025776E+00 0.12499970E+03</pdfrwt>
<pdfrwt beam="1">  1       -4 0.20301348E-02 0.12499970E+03</pdfrwt>
<totfact> 0.89358309E+02</totfact>
</mgrwt>
</event>
<event>
 5    1  0.1446384E-002  0.1249964E+03  0.7818608E-02  0.1235075E+00
          4   -1    0    0  501    0  0.00000000000E+00  0.00000000000E+00  0.42898760193E+03  0.42898948181E+03  0.12700000000E+01 0.  1.
         -4   -1    0    0    0  501 -0.00000000000E+00 -0.00000000000E+00 -0.90590223360E+01  0.91476109277E+01  0.12700000000E+01 0.  1.
         25    2    1    2    0    0  0.00000000000E+00  0.00000000000E+00  0.41992857959E+03  0.43813709274E+03  0.12499640026E+03 0.  0.
    9000005    1    3    3    0    0  0.13401279122E+02 -0.60385672990E+02  0.17880916777E+03  0.18920819819E+03  0.10000000000E+01 0.  0.
    9000005    1    3    3    0    0 -0.13401279122E+02  0.60385672990E+02  0.24111941182E+03  0.24892889455E+03  0.10000000000E+01 0.  0.
<mgrwt>
<rscale>  0 0.12499640E+03</rscale>
<asrwt>0</asrwt>
<pdfrwt beam="1">  1        4 0.10725820E+00 0.12499640E+03</pdfrwt>
<pdfrwt beam="2">  1       -4 0.22760642E-02 0.12499640E+03</pdfrwt>
<totfact> 0.98194544E+02</totfact>
</mgrwt>
</event>
<event>
 5    1  0.1446384E-002  0.1249612E+03  0.7818608E-02  0.1235130E+00
          4   -1    0    0  501    0  0.00000000000E+00  0.00000000000E+00  0.12720680241E+03  0.12721314192E+03  0.12700000000E+01 0. -1.
         -4   -1    0    0    0  501 -0.00000000000E+00 -0.00000000000E+00 -0.30668562230E+02  0.30694846623E+02  0.12700000000E+01 0. -1.
         25    2    1    2    0    0  0.00000000000E+00  0.00000000000E+00  0.96538240176E+02  0.15790798855E+03  0.12496119810E+03 0.  0.
    9000005    1    3    3    0    0  0.51560323850E+01  0.62146417617E+02  0.43530263705E+02  0.76056858671E+02  0.10000000000E+01 0.  0.
    9000005    1    3    3    0    0 -0.51560323850E+01 -0.62146417617E+02  0.53007976471E+02  0.81851129877E+02  0.10000000000E+01 0.  0.
<mgrwt>
<rscale>  0 0.12496120E+03</rscale>
<asrwt>0</asrwt>
<pdfrwt beam="1">  1        4 0.31805778E-01 0.12496120E+03</pdfrwt>
<pdfrwt beam="2">  1       -4 0.76712187E-02 0.12496120E+03</pdfrwt>
<totfact> 0.18173042E+03</totfact>
</mgrwt>
</event>
<event>
 5    1  0.1446384E-002  0.1250023E+03  0.7818608E-02  0.1235066E+00
         -4   -1    0    0    0  501 -0.00000000000E+00  0.00000000000E+00  0.19857470083E+02  0.19898040559E+02  0.12700000000E+01 0.  1.
          4   -1    0    0  501    0  0.00000000000E+00 -0.00000000000E+00 -0.19647823017E+03  0.19648233465E+03  0.12700000000E+01 0.  1.
         25    2    1    2    0    0  0.00000000000E+00  0.00000000000E+00 -0.17662076008E+03  0.21638037521E+03  0.12500229551E+03 0.  0.
    9000005    1    3    3    0    0  0.41434090098E+02 -0.46262542248E+02 -0.76269354397E+02  0.98361684906E+02  0.10000000000E+01 0.  0.
    9000005    1    3    3    0    0 -0.41434090098E+02  0.46262542248E+02 -0.10035140569E+03  0.11801869030E+03  0.10000000000E+01 0.  0.
<mgrwt>
<rscale>  0 0.12500230E+03</rscale>
<asrwt>0</asrwt>
<pdfrwt beam="2">  1        4 0.49125136E-01 0.12500230E+03</pdfrwt>
<pdfrwt beam="1">  1       -4 0.49699525E-02 0.12500230E+03</pdfrwt>
<totfact> 0.15685668E+03</totfact>
</mgrwt>
</event>
<event>
 5    1  0.1446384E-002  0.1250007E+03  0.7818608E-02  0.1235068E+00
         -4   -1    0    0    0  501 -0.00000000000E+00  0.00000000000E+00  0.19610482362E+02  0.19651562748E+02  0.12700000000E+01 0. -1.
          4   -1    0    0  501    0  0.00000000000E+00 -0.00000000000E+00 -0.19894272673E+03  0.19894678037E+03  0.12700000000E+01 0. -1.
         25    2    1    2    0    0  0.00000000000E+00  0.00000000000E+00 -0.17933224437E+03  0.21859834311E+03  0.12500072697E+03 0.  0.
    9000005    1    3    3    0    0 -0.38920161637E+02  0.11281678313E+02 -0.17286158656E+03  0.17755050931E+03  0.10000000000E+01 0.  0.
    9000005    1    3    3    0    0  0.38920161637E+02 -0.11281678313E+02 -0.64706578014E+01  0.41047833802E+02  0.10000000000E+01 0.  0.
<mgrwt>
<rscale>  0 0.12500073E+03</rscale>
<asrwt>0</asrwt>
<pdfrwt beam="2">  1        4 0.49741317E-01 0.12500073E+03</pdfrwt>
<pdfrwt beam="1">  1       -4 0.49082630E-02 0.12500073E+03</pdfrwt>
<totfact> 0.15603199E+03</totfact>
</mgrwt>
</event>
<event>
 5    1  0.1446384E-002  0.1250013E+03  0.7818608E-02  0.1235067E+00
          4   -1    0    0  501    0  0.00000000000E+00  0.00000000000E+00  0.25540915953E+02  0.25572471287E+02  0.12700000000E+01 0. -1.
         -4   -1    0    0    0  501 -0.00000000000E+00 -0.00000000000E+00 -0.15281554030E+03  0.15282081749E+03  0.12700000000E+01 0. -1.
         25    2    1    2    0    0  0.00000000000E+00  0.00000000000E+00 -0.12727462435E+03  0.17839328877E+03  0.12500134190E+03 0.  0.
    9000005    1    3    3    0    0 -0.97537117829E+01  0.59375295263E+02 -0.87720471657E+02  0.10637876540E+03  0.10000000000E+01 0.  0.
    9000005    1    3    3    0    0  0.97537117829E+01 -0.59375295263E+02 -0.39554152691E+02  0.72014523370E+02  0.10000000000E+01 0.  0.
<mgrwt>
<rscale>  0 0.12500134E+03</rscale>
<asrwt>0</asrwt>
<pdfrwt beam="1">  1        4 0.63898335E-02 0.12500134E+03</pdfrwt>
<pdfrwt beam="2">  1       -4 0.38208487E-01 0.12500134E+03</pdfrwt>
<totfact> 0.17224451E+03</totfact>
</mgrwt>
</event>
<event>
 5    1  0.1446384E-002  0.1249884E+03  0.7818608E-02  0.1235087E+00
          4   -1    0    0  501    0  0.00000000000E+00  0.00000000000E+00  0.10089207824E+03  0.10090007112E+03  0.12700000000E+01 0. -1.
         -4   -1    0    0    0  501 -0.00000000000E+00 -0.00000000000E+00 -0.38689959744E+02  0.38710798041E+02  0.12700000000E+01 0. -1.
         25    2    1    2    0    0  0.00000000000E+00  0.00000000000E+00  0.62202118498E+02  0.13961086916E+03  0.12498836443E+03 0.  0.
    9000005    1    3    3    0    0  0.38259991192E+02 -0.47561283570E+02  0.46029516164E+02  0.76456647710E+02  0.10000000000E+01 0.  0.
    9000005    1    3    3    0    0 -0.38259991192E+02  0.47561283570E+02  0.16172602334E+02  0.63154221451E+02  0.10000000000E+01 0.  0.
<mgrwt>
<rscale>  0 0.12498836E+03</rscale>
<asrwt>0</asrwt>
<pdfrwt beam="1">  1        4 0.25226623E-01 0.12498836E+03</pdfrwt>
<pdfrwt beam="2">  1       -4 0.96760940E-02 0.12498836E+03</pdfrwt>
<totfact> 0.19065440E+03</totfact>
</mgrwt>
</event>
<event>
 5    1  0.1446384E-002  0.1249965E+03  0.7818608E-02  0.1235075E+00
         -4   -1    0    0    0  501 -0.00000000000E+00  0.00000000000E+00  0.16307185695E+02  0.16356564593E+02  0.12700000000E+01 0. -1.
          4   -1    0    0  501    0  0.00000000000E+00 -0.00000000000E+00 -0.23911514696E+03  0.23911851958E+03  0.12700000000E+01 0. -1.
         25    2    1    2    0    0  0.00000000000E+00  0.00000000000E+00 -0.22280796127E+03  0.25547508417E+03  0.12499652407E+03 0.  0.
    9000005    1    3    3    0    0  0.45073198459E+02 -0.59878630642E+01 -0.19901814784E+03  0.20414864902E+03  0.10000000000E+01 0.  0.
    9000005    1    3    3    0    0 -0.45073198459E+02  0.59878630642E+01 -0.23789813423E+02  0.51326435159E+02  0.10000000000E+01 0.  0.
<mgrwt>
<rscale>  0 0.12499652E+03</rscale>
<asrwt>0</asrwt>
<pdfrwt beam="2">  1        4 0.59785370E-01 0.12499652E+03</pdfrwt>
<pdfrwt beam="1">  1       -4 0.40833911E-02 0.12499652E+03</pdfrwt>
<totfact> 0.14318758E+03</totfact>
</mgrwt>
</event>
<event>
 5    1  0.1446384E-002  0.1250042E+03  0.7818608E-02  0.1235063E+00
         -4   -1    0    0    0  501 -0.00000000000E+00  0.00000000000E+00  0.48629501198E+02  0.48646081926E+02  0.12700000000E+01 0. -1.
          4   -1    0    0  501    0  0.00000000000E+00 -0.00000000000E+00 -0.80296864799E+02  0.80306907527E+02  0.12700000000E+01 0. -1.
         25    2    1    2    0    0  0.00000000000E+00  0.00000000000E+00 -0.31667363601E+02  0.12895298945E+03  0.12500420621E+03 0.  0.
    9000005    1    3    3    0    0 -0.56817456839E+02 -0.25636690916E+02 -0.11214560993E+02  0.63342163691E+02  0.10000000000E+01 0.  0.
    9000005    1    3    3    0    0  0.56817456839E+02  0.25636690916E+02 -0.20452802607E+02  0.65610825762E+02  0.10000000000E+01 0.  0.
<mgrwt>
<rscale>  0 0.12500421E+03</rscale>
<asrwt>0</asrwt>
<pdfrwt beam="2">  1        4 0.20077544E-01 0.12500421E+03</pdfrwt>
<pdfrwt beam="1">  1       -4 0.12160703E-01 0.12500421E+03</pdfrwt>
<totfact> 0.19618912E+03</totfact>
</mgrwt>
</event>
<event>
 5    1  0.1446384E-002  0.1249985E+03  0.7818608E-02  0.1235072E+00
          4   -1    0    0  501    0  0.00000000000E+00  0.00000000000E+00  0.68837506342E+02  0.68849220616E+02  0.12700000000E+01 0. -1.
         -4   -1    0    0    0  501 -0.00000000000E+00 -0.00000000000E+00 -0.56720969513E+02  0.56735185577E+02  0.12700000000E+01 0. -1.
         25    2    1    2    0    0  0.00000000000E+00  0.00000000000E+00  0.12116536829E+02  0.12558440619E+03  0.12499853045E+03 0.  0.
    9000005    1    3    3    0    0 -0.46397658366E+02  0.13398578727E+02  0.45903877835E+02  0.66636556139E+02  0.10000000000E+01 0.  0.
    9000005    1    3    3    0    0  0.46397658366E+02 -0.13398578727E+02 -0.33787341005E+02  0.58947850054E+02  0.10000000000E+01 0.  0.
<mgrwt>
<rscale>  0 0.12499853E+03</rscale>
<asrwt>0</asrwt>
<pdfrwt beam="1">  1        4 0.17212618E-01 0.12499853E+03</pdfrwt>
<pdfrwt beam="2">  1       -4 0.14183484E-01 0.12499853E+03</pdfrwt>
<totfact> 0.19804076E+03</totfact>
</mgrwt>
</event>
<event>
 5    1  0.1446384E-002  0.1249984E+03  0.7818608E-02  0.1235072E+00
         -4   -1    0    0    0  501 -0.00000000000E+00  0.00000000000E+00  0.66398244204E+02  0.66410388745E+02  0.12700000000E+01 0.  1.
          4   -1    0    0  501    0  0.00000000000E+00 -0.00000000000E+00 -0.58804772908E+02  0.58818485332E+02  0.12700000000E+01 0.  1.
         25    2    1    2    0    0  0.00000000000E+00  0.00000000000E+00  0.75934712953E+01  0.12522887408E+03  0.12499844038E+03 0.  0.
    9000005    1    3    3    0    0 -0.49388350741E+01  0.10235528216E+02 -0.57765665723E+02  0.58881493410E+02  0.10000000000E+01 0.  0.
    9000005    1    3    3    0    0  0.49388350741E+01 -0.10235528216E+02  0.65359137018E+02  0.66347380668E+02  0.10000000000E+01 0.  0.
<mgrwt>
<rscale>  0 0.12499844E+03</rscale>
<asrwt>0</asrwt>
<pdfrwt beam="2">  1        4 0.14704425E-01 0.12499844E+03</pdfrwt>
<pdfrwt beam="1">  1       -4 0.16602793E-01 0.12499844E+03</pdfrwt>
<totfact> 0.19823371E+03</totfact>
</mgrwt>
</event>
<event>
 5    1  0.1446384E-002  0.1250051E+03  0.7818608E-02  0.1235061E+00
          4   -1    0    0  501    0  0.00000000000E+00  0.00000000000E+00  0.20769115525E+02  0.20807908586E+02  0.12700000000E+01 0. -1.
         -4   -1    0    0    0  501 -0.00000000000E+00 -0.00000000000E+00 -0.18787852675E+03  0.18788281910E+03  0.12700000000E+01 0. -1.
         25    2    1    2    0    0  0.00000000000E+00  0.00000000000E+00 -0.16710941122E+03  0.20869072769E+03  0.12500505791E+03 0.  0.
    9000005    1    3    3    0    0  0.30887641537E+02 -0.87209159351E+01 -0.17307667697E+03  0.17603021583E+03  0.10000000000E+01 0.  0.
    9000005    1    3    3    0    0 -0.30887641537E+02  0.87209159351E+01  0.59672657427E+01  0.32660511860E+02  0.10000000000E+01 0.  0.
<mgrwt>
<rscale>  0 0.12500506E+03</rscale>
<asrwt>0</asrwt>
<pdfrwt beam="1">  1        4 0.51976651E-02 0.12500506E+03</pdfrwt>
<pdfrwt beam="2">  1       -4 0.46975012E-01 0.12500506E+03</pdfrwt>
<totfact> 0.15978000E+03</totfact>
</mgrwt>
</event>
<event>
 5    1  0.1446384E-002  0.1250004E+03  0.7818608E-02  0.1235069E+00
         -4   -1    0    0    0  501 -0.00000000000E+00  0.00000000000E+00  0.51124716706E+02  0.51140488444E+02  0.12700000000E+01 0. -1.
          4   -1    0    0  501    0  0.00000000000E+00 -0.00000000000E+00 -0.76373912331E+02  0.76384470835E+02  0.12700000000E+01 0. -1.
         25    2    1    2    0    0  0.00000000000E+00  0.00000000000E+00 -0.25249195625E+02  0.12752495928E+03  0.12500037344E+03 0.  0.
    9000005    1    3    3    0    0 -0.20214126303E+02 -0.47173043518E+02 -0.49000958577E+02  0.70964786186E+02  0.10000000000E+01 0.  0.
    9000005    1    3    3    0    0  0.20214126303E+02  0.47173043518E+02  0.23751762952E+02  0.56560173093E+02  0.10000000000E+01 0.  0.
<mgrwt>
<rscale>  0 0.12500037E+03</rscale>
<asrwt>0</asrwt>
<pdfrwt beam="2">  1        4 0.19096769E-01 0.12500037E+03</pdfrwt>
<pdfrwt beam="1">  1       -4 0.12784471E-01 0.12500037E+03</pdfrwt>
<totfact> 0.19698250E+03</totfact>
</mgrwt>
</event>
<event>
 5    1  0.1446384E-002  0.1249818E+03  0.7818608E-02  0.1235098E+00
          4   -1    0    0  501    0  0.00000000000E+00  0.00000000000E+00  0.12936884654E+02  0.12999072449E+02  0.12700000000E+01 0. -1.
         -4   -1    0    0    0  501 -0.00000000000E+00 -0.00000000000E+00 -0.30107126739E+03  0.30107394598E+03  0.12700000000E+01 0. -1.
         25    2    1    2    0    0  0.00000000000E+00  0.00000000000E+00 -0.28813438274E+03  0.31407301843E+03  0.12498175223E+03 0.  0.
    9000005    1    3    3    0    0 -0.22900547592E+02  0.57917044870E+02 -0.13142966324E+03  0.14544268818E+03  0.10000000000E+01 0.  0.
    9000005    1    3    3    0    0  0.22900547592E+02 -0.57917044870E+02 -0.15670471950E+03  0.16863033025E+03  0.10000000000E+01 0.  0.
<mgrwt>
<rscale>  0 0.12498175E+03</rscale>
<asrwt>0</asrwt>
<pdfrwt beam="1">  1        4 0.32423304E-02 0.12498175E+03</pdfrwt>
<pdfrwt beam="2">  1       -4 0.75275902E-01 0.12498175E+03</pdfrwt>
<totfact> 0.12590862E+03</totfact>
</mgrwt>
</event>
<event>
 5    1  0.1446384E-002  0.1250087E+03  0.7818608E-02  0.1235056E+00
          4   -1    0    0  501    0  0.00000000000E+00  0.00000000000E+00  0.33287162056E+03  0.33287404326E+03  0.12700000000E+01 0.  1.
         -4   -1    0    0    0  501 -0.00000000000E+00 -0.00000000000E+00 -0.11699810707E+02  0.11768537317E+02  0.12700000000E+01 0.  1.
         25    2    1    2    0    0  0.00000000000E+00  0.00000000000E+00  0.32117180985E+03  0.34464258058E+03  0.12500870730E+03 0.  0.
    9000005    1    3    3    0    0  0.43406084024E+02  0.35298023133E+02  0.83798295868E+02  0.10076305354E+03  0.10000000000E+01 0.  0.
    9000005    1    3    3    0    0 -0.43406084024E+02 -0.35298023133E+02  0.23737351399E+03  0.24387952704E+03  0.10000000000E+01 0.  0.
<mgrwt>
<rscale>  0 0.12500871E+03</rscale>
<asrwt>0</asrwt>
<pdfrwt beam="1">  1        4 0.83226796E-01 0.12500871E+03</pdfrwt>
<pdfrwt beam="2">  1       -4 0.29338465E-02 0.12500871E+03</pdfrwt>
<totfact> 0.11803786E+03</totfact>
</mgrwt>
</event>
<event>
 5    1  0.1446384E-002  0.1250072E+03  0.7818608E-02  0.1235058E+00
          4   -1    0    0  501    0  0.00000000000E+00  0.00000000000E+00  0.66938890354E+03  0.66939010829E+03  0.12700000000E+01 0.  1.
         -4   -1    0    0    0  501 -0.00000000000E+00 -0.00000000000E+00 -0.57659063115E+01  0.59041151405E+01  0.12700000000E+01 0.  1.
         25    2    1    2    0    0  0.00000000000E+00  0.00000000000E+00  0.66362299723E+03  0.67529422343E+03  0.12500722281E+03 0.  0.
    9000005    1    3    3    0    0 -0.38763577632E+02  0.37571264488E+02  0.16171266080E+03  0.17048812137E+03  0.10000000000E+01 0.  0.
    9000005    1    3    3    0    0  0.38763577632E+02 -0.37571264488E+02  0.50191033643E+03  0.50480610206E+03  0.10000000000E+01 0.  0.
<mgrwt>
<rscale>  0 0.12500722E+03</rscale>
<asrwt>0</asrwt>
<pdfrwt beam="1">  1        4 0.16736463E+00 0.12500722E+03</pdfrwt>
<pdfrwt beam="2">  1       -4 0.14589035E-02 0.12500722E+03</pdfrwt>
<totfact> 0.64678961E+02</totfact>
</mgrwt>
</event>
<event>
 5    1  0.1446384E-002  0.1250005E+03  0.7818608E-02  0.1235068E+00
         -4   -1    0    0    0  501 -0.00000000000E+00  0.00000000000E+00  0.30287889778E+02  0.30314504238E+02  0.12700000000E+01 0. -1.
          4   -1    0    0  501    0  0.00000000000E+00 -0.00000000000E+00 -0.12888540796E+03  0.12889166491E+03  0.12700000000E+01 0. -1.
         25    2    1    2    0    0  0.00000000000E+00  0.00000000000E+00 -0.98597518178E+02  0.15920616915E+03  0.12500053482E+03 0.  0.
    9000005    1    3    3    0    0  0.23300837943E+01 -0.59304930876E+02 -0.74217279324E+02  0.95035302214E+02  0.10000000000E+01 0.  0.
    9000005    1    3    3    0    0 -0.23300837943E+01  0.59304930876E+02 -0.24380238855E+02  0.64170866936E+02  0.10000000000E+01 0.  0.
<mgrwt>
<rscale>  0 0.12500053E+03</rscale>
<asrwt>0</asrwt>
<pdfrwt beam="2">  1        4 0.32225460E-01 0.12500053E+03</pdfrwt>
<pdfrwt beam="1">  1       -4 0.75760817E-02 0.12500053E+03</pdfrwt>
<totfact> 0.18094952E+03</totfact>
</mgrwt>
</event>
<event>
 5    1  0.1446384E-002  0.1249817E+03  0.7818608E-02  0.1235098E+00
          4   -1    0    0  501    0  0.00000000000E+00  0.00000000000E+00  0.20654342169E+02  0.20693350391E+02  0.12700000000E+01 0. -1.
         -4   -1    0    0    0  501 -0.00000000000E+00 -0.00000000000E+00 -0.18885000102E+03  0.18885427130E+03  0.12700000000E+01 0. -1.
         25    2    1    2    0    0  0.00000000000E+00  0.00000000000E+00 -0.16819565885E+03  0.20954762169E+03  0.12498170305E+03 0.  0.
    9000005    1    3    3    0    0 -0.54529357300E+02 -0.11424489154E+02 -0.36671620452E+02  0.66706652641E+02  0.10000000000E+01 0.  0.
    9000005    1    3    3    0    0  0.54529357300E+02  0.11424489154E+02 -0.13152403840E+03  0.14284096905E+03  0.10000000000E+01 0.  0.
<mgrwt>
<rscale>  0 0.12498170E+03</rscale>
<asrwt>0</asrwt>
<pdfrwt beam="1">  1        4 0.51689959E-02 0.12498170E+03</pdfrwt>
<pdfrwt beam="2">  1       -4 0.47217905E-01 0.12498170E+03</pdfrwt>
<totfact> 0.15953489E+03</totfact>
</mgrwt>
</event>
<event>
 5    1  0.1446384E-002  0.1249989E+03  0.7818608E-02  0.1235071E+00
         -4   -1    0    0    0  501 -0.00000000000E+00  0.00000000000E+00  0.65761778804E+02  0.65774040863E+02  0.12700000000E+01 0.  1.
          4   -1    0    0  501    0  0.00000000000E+00 -0.00000000000E+00 -0.59374371800E+02  0.59387952706E+02  0.12700000000E+01 0.  1.
         25    2    1    2    0    0  0.00000000000E+00  0.00000000000E+00  0.63874070041E+01  0.12516199357E+03  0.12499890266E+03 0.  0.
    9000005    1    3    3    0    0  0.47981003530E+02  0.29163008901E+02 -0.24274252431E+02  0.61179221301E+02  0.10000000000E+01 0.  0.
    9000005    1    3    3    0    0 -0.47981003530E+02 -0.29163008901E+02  0.30661659435E+02  0.63982772269E+02  0.10000000000E+01 0.  0.
<mgrwt>
<rscale>  0 0.12499890E+03</rscale>
<asrwt>0</asrwt>
<pdfrwt beam="2">  1        4 0.14846823E-01 0.12499890E+03</pdfrwt>
<pdfrwt beam="1">  1       -4 0.16443675E-01 0.12499890E+03</pdfrwt>
<totfact> 0.19826782E+03</totfact>
</mgrwt>
</event>
<event>
 5    1  0.1446384E-002  0.1250003E+03  0.7818608E-02  0.1235069E+00
         -4   -1    0    0    0  501 -0.00000000000E+00  0.00000000000E+00  0.27244079600E+01  0.30058773648E+01  0.12700000000E+01 0. -1.
          4   -1    0    0  501    0  0.00000000000E+00 -0.00000000000E+00 -0.13630958916E+04  0.13630964832E+04  0.12700000000E+01 0. -1.
         25    2    1    2    0    0  0.00000000000E+00  0.00000000000E+00 -0.13603714836E+04  0.13661023606E+04  0.12500034450E+03 0.  0.
    9000005    1    3    3    0    0 -0.11697801818E+02  0.40362563050E+02 -0.11856698645E+04  0.11864147684E+04  0.10000000000E+01 0.  0.
    9000005    1    3    3    0    0  0.11697801818E+02 -0.40362563050E+02 -0.17470161911E+03  0.17968759218E+03  0.10000000000E+01 0.  0.
<mgrwt>
<rscale>  0 0.12500034E+03</rscale>
<asrwt>0</asrwt>
<pdfrwt beam="2">  1        4 0.34080701E+00 0.12500034E+03</pdfrwt>
<pdfrwt beam="1">  1       -4 0.71636429E-03 0.12500034E+03</pdfrwt>
<totfact> 0.17449877E+02</totfact>
</mgrwt>
</event>
<event>
 5    1  0.1446384E-002  0.1249996E+03  0.7818608E-02  0.1235070E+00
         -4   -1    0    0    0  501 -0.00000000000E+00  0.00000000000E+00  0.22855429018E+03  0.22855781864E+03  0.12700000000E+01 0.  1.
          4   -1    0    0  501    0  0.00000000000E+00 -0.00000000000E+00 -0.17063744238E+02  0.17110939992E+02  0.12700000000E+01 0.  1.
         25    2    1    2    0    0  0.00000000000E+00  0.00000000000E+00  0.21149054594E+03  0.24566875863E+03  0.12499955177E+03 0.  0.
    9000005    1    3    3    0    0  0.43555784162E+02 -0.44564200170E+02  0.96496035303E+02  0.11487192477E+03  0.10000000000E+01 0.  0.
    9000005    1    3    3    0    0 -0.43555784162E+02  0.44564200170E+02  0.11499451064E+03  0.13079683386E+03  0.10000000000E+01 0.  0.
<mgrwt>
<rscale>  0 0.12499955E+03</rscale>
<asrwt>0</asrwt>
<pdfrwt beam="2">  1        4 0.42722765E-02 0.12499955E+03</pdfrwt>
<pdfrwt beam="1">  1       -4 0.57144914E-01 0.12499955E+03</pdfrwt>
<totfact> 0.14643285E+03</totfact>
</mgrwt>
</event>
<event>
 5    1  0.1446384E-002  0.1249972E+03  0.7818608E-02  0.1235074E+00
         -4   -1    0    0    0  501 -0.00000000000E+00  0.00000000000E+00  0.18334969854E+03  0.18335409691E+03  0.12700000000E+01 0. -1.
          4   -1    0    0  501    0  0.00000000000E+00 -0.00000000000E+00 -0.21280360271E+02  0.21318223032E+02  0.12700000000E+01 0. -1.
         25    2    1    2    0    0  0.00000000000E+00  0.00000000000E+00  0.16206933827E+03  0.20467231995E+03  0.12499715255E+03 0.  0.
    9000005    1    3    3    0    0  0.37606920374E+02  0.29232735340E+02  0.14726887456E+03  0.15478357370E+03  0.10000000000E+01 0.  0.
    9000005    1    3    3    0    0 -0.37606920374E+02 -0.29232735340E+02  0.14800463714E+02  0.49888746243E+02  0.10000000000E+01 0.  0.
<mgrwt>
<rscale>  0 0.12499715E+03</rscale>
<asrwt>0</asrwt>
<pdfrwt beam="2">  1        4 0.53253727E-02 0.12499715E+03</pdfrwt>
<pdfrwt beam="1">  1       -4 0.45842707E-01 0.12499715E+03</pdfrwt>
<totfact> 0.16137710E+03</totfact>
</mgrwt>
</event>
<event>
 5    1  0.1446384E-002  0.1249988E+03  0.7818608E-02  0.1235071E+00
          4   -1    0    0  501    0  0.00000000000E+00  0.00000000000E+00  0.10062058029E+02  0.10141888965E+02  0.12700000000E+01 0. -1.
         -4   -1    0    0    0  501 -0.00000000000E+00 -0.00000000000E+00 -0.38659365024E+03  0.38659573627E+03  0.12700000000E+01 0. -1.
         25    2    1    2    0    0  0.00000000000E+00  0.00000000000E+00 -0.37653159221E+03  0.39673762524E+03  0.12499881338E+03 0.  0.
    9000005    1    3    3    0    0  0.30605141497E+02 -0.54406142367E+02 -0.17902708088E+03  0.18960062948E+03  0.10000000000E+01 0.  0.
    9000005    1    3    3    0    0 -0.30605141497E+02  0.54406142367E+02 -0.19750451133E+03  0.20713699575E+03  0.10000000000E+01 0.  0.
<mgrwt>
<rscale>  0 0.12499881E+03</rscale>
<asrwt>0</asrwt>
<pdfrwt beam="1">  1        4 0.25257554E-02 0.12499881E+03</pdfrwt>
<pdfrwt beam="2">  1       -4 0.96658603E-01 0.12499881E+03</pdfrwt>
<totfact> 0.10637000E+03</totfact>
</mgrwt>
</event>
<event>
 5    1  0.1446384E-002  0.1249970E+03  0.7818608E-02  0.1235074E+00
          4   -1    0    0  501    0  0.00000000000E+00  0.00000000000E+00  0.31006262604E+03  0.31006522696E+03  0.12700000000E+01 0. -1.
         -4   -1    0    0    0  501 -0.00000000000E+00 -0.00000000000E+00 -0.12562991646E+02  0.12627020991E+02  0.12700000000E+01 0. -1.
         25    2    1    2    0    0  0.00000000000E+00  0.00000000000E+00  0.29749963440E+03  0.32269224795E+03  0.12499701765E+03 0.  0.
    9000005    1    3    3    0    0 -0.78075148568E+01 -0.23544635680E+02  0.29682107131E+03  0.29785744162E+03  0.10000000000E+01 0.  0.
    9000005    1    3    3    0    0  0.78075148568E+01  0.23544635680E+02  0.67856309102E+00  0.24834806329E+02  0.10000000000E+01 0.  0.
<mgrwt>
<rscale>  0 0.12499702E+03</rscale>
<asrwt>0</asrwt>
<pdfrwt beam="1">  1        4 0.77523986E-01 0.12499702E+03</pdfrwt>
<pdfrwt beam="2">  1       -4 0.31490767E-02 0.12499702E+03</pdfrwt>
<totfact> 0.12358921E+03</totfact>
</mgrwt>
</event>
<event>
 5    1  0.1446384E-002  0.1250005E+03  0.7818608E-02  0.1235069E+00
          4   -1    0    0  501    0  0.00000000000E+00  0.00000000000E+00  0.26853843952E+03  0.26854144261E+03  0.12700000000E+01 0.  1.
         -4   -1    0    0    0  501 -0.00000000000E+00 -0.00000000000E+00 -0.14515635103E+02  0.14571086522E+02  0.12700000000E+01 0.  1.
         25    2    1    2    0    0  0.00000000000E+00  0.00000000000E+00  0.25402280442E+03  0.28311252913E+03  0.12500047595E+03 0.  0.
    9000005    1    3    3    0    0 -0.22412040529E+02 -0.29624369503E+02  0.24082929115E+03  0.24367940065E+03  0.10000000000E+01 0.  0.
    9000005    1    3    3    0    0  0.22412040529E+02  0.29624369503E+02  0.13193513269E+02  0.39433128478E+02  0.10000000000E+01 0.  0.
<mgrwt>
<rscale>  0 0.12500048E+03</rscale>
<asrwt>0</asrwt>
<pdfrwt beam="1">  1        4 0.67141915E-01 0.12500048E+03</pdfrwt>
<pdfrwt beam="2">  1       -4 0.36362157E-02 0.12500048E+03</pdfrwt>
<totfact> 0.13457769E+03</totfact>
</mgrwt>
</event>
<event>
 5    1  0.1446384E-002  0.1250034E+03  0.7818608E-02  0.1235064E+00
          4   -1    0    0  501    0  0.00000000000E+00  0.00000000000E+00  0.13429636127E+02  0.13489552495E+02  0.12700000000E+01 0.  1.
         -4   -1    0    0    0  501 -0.00000000000E+00 -0.00000000000E+00 -0.29017473991E+03  0.29017751908E+03  0.12700000000E+01 0.  1.
         25    2    1    2    0    0  0.00000000000E+00  0.00000000000E+00 -0.27674510378E+03  0.30366707158E+03  0.12500335153E+03 0.  0.
    9000005    1    3    3    0    0 -0.14225757802E+02 -0.60585981633E+02 -0.12453932428E+03  0.13922670953E+03  0.10000000000E+01 0.  0.
    9000005    1    3    3    0    0  0.14225757802E+02  0.60585981633E+02 -0.15220577950E+03  0.16444036204E+03  0.10000000000E+01 0.  0.
<mgrwt>
<rscale>  0 0.12500335E+03</rscale>
<asrwt>0</asrwt>
<pdfrwt beam="1">  1        4 0.33652469E-02 0.12500335E+03</pdfrwt>
<pdfrwt beam="2">  1       -4 0.72551501E-01 0.12500335E+03</pdfrwt>
<totfact> 0.12867913E+03</totfact>
</mgrwt>
</event>
<event>
 5    1  0.1446384E-002  0.1250008E+03  0.7818608E-02  0.1235068E+00
         -4   -1    0    0    0  501 -0.00000000000E+00  0.00000000000E+00  0.18772950421E+03  0.18773379997E+03  0.12700000000E+01 0. -1.
          4   -1    0    0  501    0  0.00000000000E+00 -0.00000000000E+00 -0.20784202222E+02  0.20822967176E+02  0.12700000000E+01 0. -1.
         25    2    1    2    0    0  0.00000000000E+00  0.00000000000E+00  0.16694530199E+03  0.20855676715E+03  0.12500076506E+03 0.  0.
    9000005    1    3    3    0    0  0.19831162454E+02  0.48088749510E+02  0.14125708091E+03  0.15053360336E+03  0.10000000000E+01 0.  0.
    9000005    1    3    3    0    0 -0.19831162454E+02 -0.48088749510E+02  0.25688221084E+02  0.58023163789E+02  0.10000000000E+01 0.  0.
<mgrwt>
<rscale>  0 0.12500077E+03</rscale>
<asrwt>0</asrwt>
<pdfrwt beam="2">  1        4 0.52014333E-02 0.12500077E+03</pdfrwt>
<pdfrwt beam="1">  1       -4 0.46937757E-01 0.12500077E+03</pdfrwt>
<totfact> 0.15984772E+03</totfact>
</mgrwt>
</event>
<event>
 5    1  0.1446384E-002  0.1250013E+03  0.7818608E-02  0.1235067E+00
          4   -1    0    0  501    0  0.00000000000E+00  0.00000000000E+00  0.16024408559E+02  0.16074656129E+02  0.12700000000E+01 0. -1.
         -4   -1    0    0    0  501 -0.00000000000E+00 -0.00000000000E+00 -0.24334019966E+03  0.24334351372E+03  0.12700000000E+01 0. -1.
         25    2    1    2    0    0  0.00000000000E+00  0.00000000000E+00 -0.22731579110E+03  0.25941816985E+03  0.12500127185E+03 0.  0.
    9000005    1    3    3    0    0  0.16501946671E+01 -0.61105623838E+02 -0.14061387975E+03  0.15332933048E+03  0.10000000000E+01 0.  0.
    9000005    1    3    3    0    0 -0.16501946671E+01  0.61105623838E+02 -0.86701911344E+02  0.10608883936E+03  0.10000000000E+01 0.  0.
<mgrwt>
<rscale>  0 0.12500127E+03</rscale>
<asrwt>0</asrwt>
<pdfrwt beam="1">  1        4 0.40127981E-02 0.12500127E+03</pdfrwt>
<pdfrwt beam="2">  1       -4 0.60841733E-01 0.12500127E+03</pdfrwt>
<totfact> 0.14189440E+03</totfact>
</mgrwt>
</event>
<event>
 5    1  0.1446384E-002  0.1250004E+03  0.7818608E-02  0.1235069E+00
          4   -1    0    0  501    0  0.00000000000E+00  0.00000000000E+00  0.27291947259E+03  0.27292242748E+03  0.12700000000E+01 0.  1.
         -4   -1    0    0    0  501 -0.00000000000E+00 -0.00000000000E+00 -0.14281720773E+02  0.14338076867E+02  0.12700000000E+01 0.  1.
         25    2    1    2    0    0  0.00000000000E+00  0.00000000000E+00  0.25863775182E+03  0.28726050435E+03  0.12500044276E+03 0.  0.
    9000005    1    3    3    0    0 -0.34786954217E+02  0.51671211595E+02  0.14086230607E+03  0.15402349029E+03  0.10000000000E+01 0.  0.
    9000005    1    3    3    0    0  0.34786954217E+02 -0.51671211595E+02  0.11777544575E+03  0.13323701405E+03  0.10000000000E+01 0.  0.
<mgrwt>
<rscale>  0 0.12500044E+03</rscale>
<asrwt>0</asrwt>
<pdfrwt beam="1">  1        4 0.68237279E-01 0.12500044E+03</pdfrwt>
<pdfrwt beam="2">  1       -4 0.35778442E-02 0.12500044E+03</pdfrwt>
<totfact> 0.13335633E+03</totfact>
</mgrwt>
</event>
<event>
 5    1  0.1446384E-002  0.1250025E+03  0.7818608E-02  0.1235065E+00
          4   -1    0    0  501    0  0.00000000000E+00  0.00000000000E+00  0.38561482974E+01  0.40598989755E+01  0.12700000000E+01 0. -1.
         -4   -1    0    0    0  501 -0.00000000000E+00 -0.00000000000E+00 -0.98675452490E+03  0.98675534217E+03  0.12700000000E+01 0. -1.
         25    2    1    2    0    0  0.00000000000E+00  0.00000000000E+00 -0.98289837660E+03  0.99081524115E+03  0.12500249345E+03 0.  0.
    9000005    1    3    3    0    0 -0.39805700479E+02 -0.47108049228E+02 -0.57140091934E+03  0.57472051705E+03  0.10000000000E+01 0.  0.
    9000005    1    3    3    0    0  0.39805700479E+02  0.47108049228E+02 -0.41149745726E+03  0.41609472410E+03  0.10000000000E+01 0.  0.
<mgrwt>
<rscale>  0 0.12500249E+03</rscale>
<asrwt>0</asrwt>
<pdfrwt beam="1">  1        4 0.98961145E-03 0.12500249E+03</pdfrwt>
<pdfrwt beam="2">  1       -4 0.24671336E+00 0.12500249E+03</pdfrwt>
<totfact> 0.37729109E+02</totfact>
</mgrwt>
</event>
<event>
 5    1  0.1446384E-002  0.1249801E+03  0.7818608E-02  0.1235100E+00
          4   -1    0    0  501    0  0.00000000000E+00  0.00000000000E+00  0.76352213382E+01  0.77401230535E+01  0.12700000000E+01 0.  1.
         -4   -1    0    0    0  501 -0.00000000000E+00 -0.00000000000E+00 -0.50785160220E+03  0.50785319016E+03  0.12700000000E+01 0.  1.
         25    2    1    2    0    0  0.00000000000E+00  0.00000000000E+00 -0.50021638086E+03  0.51559331322E+03  0.12498014622E+03 0.  0.
    9000005    1    3    3    0    0  0.26495872480E+02  0.47849318919E+02 -0.37472131985E+03  0.37869335369E+03  0.10000000000E+01 0.  0.
    9000005    1    3    3    0    0 -0.26495872480E+02 -0.47849318919E+02 -0.12549506102E+03  0.13689995953E+03  0.10000000000E+01 0.  0.
<mgrwt>
<rscale>  0 0.12498015E+03</rscale>
<asrwt>0</asrwt>
<pdfrwt beam="1">  1        4 0.19221183E-02 0.12498015E+03</pdfrwt>
<pdfrwt beam="2">  1       -4 0.12697610E+00 0.12498015E+03</pdfrwt>
<totfact> 0.85217269E+02</totfact>
</mgrwt>
</event>
<event>
 5    1  0.1446384E-002  0.1249995E+03  0.7818608E-02  0.1235070E+00
          4   -1    0    0  501    0  0.00000000000E+00  0.00000000000E+00  0.35398905731E+02  0.35421680182E+02  0.12700000000E+01 0. -1.
         -4   -1    0    0    0  501 -0.00000000000E+00 -0.00000000000E+00 -0.11028664762E+03  0.11029395969E+03  0.12700000000E+01 0. -1.
         25    2    1    2    0    0  0.00000000000E+00  0.00000000000E+00 -0.74887741888E+02  0.14571563987E+03  0.12499949527E+03 0.  0.
    9000005    1    3    3    0    0 -0.85363233639E+00  0.47485820331E+02 -0.84790108498E+02  0.97190505296E+02  0.10000000000E+01 0.  0.
    9000005    1    3    3    0    0  0.85363233639E+00 -0.47485820331E+02  0.99023666095E+01  0.48525134571E+02  0.10000000000E+01 0.  0.
<mgrwt>
<rscale>  0 0.12499950E+03</rscale>
<asrwt>0</asrwt>
<pdfrwt beam="1">  1        4 0.88534875E-02 0.12499950E+03</pdfrwt>
<pdfrwt beam="2">  1       -4 0.27575422E-01 0.12499950E+03</pdfrwt>
<totfact> 0.18751689E+03</totfact>
</mgrwt>
</event>
<event>
 5    1  0.1446384E-002  0.1250007E+03  0.7818608E-02  0.1235068E+00
         -4   -1    0    0    0  501 -0.00000000000E+00  0.00000000000E+00  0.20172425176E+03  0.20172824950E+03  0.12700000000E+01 0.  1.
          4   -1    0    0  501    0  0.00000000000E+00 -0.00000000000E+00 -0.19339512817E+02  0.19381167561E+02  0.12700000000E+01 0.  1.
         25    2    1    2    0    0  0.00000000000E+00  0.00000000000E+00  0.18238473894E+03  0.22110941706E+03  0.12500072526E+03 0.  0.
    9000005    1    3    3    0    0  0.34350874845E+02 -0.51218157480E+02  0.10905817559E+03  0.12529153172E+03  0.10000000000E+01 0.  0.
    9000005    1    3    3    0    0 -0.34350874845E+02  0.51218157480E+02  0.73326563352E+02  0.95817885342E+02  0.10000000000E+01 0.  0.
<mgrwt>
<rscale>  0 0.12500073E+03</rscale>
<asrwt>0</asrwt>
<pdfrwt beam="2">  1        4 0.48405848E-02 0.12500073E+03</pdfrwt>
<pdfrwt beam="1">  1       -4 0.50436769E-01 0.12500073E+03</pdfrwt>
<totfact> 0.15510022E+03</totfact>
</mgrwt>
</event>
<event>
 5    1  0.1446384E-002  0.1250086E+03  0.7818608E-02  0.1235056E+00
          4   -1    0    0  501    0  0.00000000000E+00  0.00000000000E+00  0.34806011127E+02  0.34829173269E+02  0.12700000000E+01 0. -1.
         -4   -1    0    0    0  501 -0.00000000000E+00 -0.00000000000E+00 -0.11218055800E+03  0.11218774662E+03  0.12700000000E+01 0. -1.
         25    2    1    2    0    0  0.00000000000E+00  0.00000000000E+00 -0.77374546869E+02  0.14701691989E+03  0.12500861663E+03 0.  0.
    9000005    1    3    3    0    0 -0.29670683446E+02  0.31467626026E+02 -0.91743195156E+02  0.10143162624E+03  0.10000000000E+01 0.  0.
    9000005    1    3    3    0    0  0.29670683446E+02 -0.31467626026E+02  0.14368648287E+02  0.45585293653E+02  0.10000000000E+01 0.  0.
<mgrwt>
<rscale>  0 0.12500862E+03</rscale>
<asrwt>0</asrwt>
<pdfrwt beam="1">  1        4 0.87052969E-02 0.12500862E+03</pdfrwt>
<pdfrwt beam="2">  1       -4 0.28048932E-01 0.12500862E+03</pdfrwt>
<totfact> 0.18682690E+03</totfact>
</mgrwt>
</event>
<event>
 5    1  0.1446384E-002  0.1250018E+03  0.7818608E-02  0.1235066E+00
         -4   -1    0    0    0  501 -0.00000000000E+00  0.00000000000E+00  0.14897434661E+03  0.14897975986E+03  0.12700000000E+01 0.  1.
          4   -1    0    0  501    0  0.00000000000E+00 -0.00000000000E+00 -0.26200456556E+02  0.26231218496E+02  0.12700000000E+01 0.  1.
         25    2    1    2    0    0  0.00000000000E+00  0.00000000000E+00  0.12277389005E+03  0.17521097835E+03  0.12500183542E+03 0.  0.
    9000005    1    3    3    0    0 -0.46791212786E+01  0.61716244256E+02  0.73491356845E+02  0.96087296309E+02  0.10000000000E+01 0.  0.
    9000005    1    3    3    0    0  0.46791212786E+01 -0.61716244256E+02  0.49282533207E+02  0.79123682045E+02  0.10000000000E+01 0.  0.
<mgrwt>
<rscale>  0 0.12500184E+03</rscale>
<asrwt>0</asrwt>
<pdfrwt beam="2">  1        4 0.65546361E-02 0.12500184E+03</pdfrwt>
<pdfrwt beam="1">  1       -4 0.37248108E-01 0.12500184E+03</pdfrwt>
<totfact> 0.17363800E+03</totfact>
</mgrwt>
</event>
<event>
 5    1  0.1446384E-002  0.1250023E+03  0.7818608E-02  0.1235066E+00
          4   -1    0    0  501    0  0.00000000000E+00  0.00000000000E+00  0.28811617902E+02  0.28839594764E+02  0.12700000000E+01 0.  1.
         -4   -1    0    0    0  501 -0.00000000000E+00 -0.00000000000E+00 -0.13548723621E+03  0.13549318830E+03  0.12700000000E+01 0.  1.
         25    2    1    2    0    0  0.00000000000E+00  0.00000000000E+00 -0.10667561830E+03  0.16433278306E+03  0.12500230417E+03 0.  0.
    9000005    1    3    3    0    0 -0.49670725227E+02  0.37666643747E+02 -0.59133710588E+02  0.85928765402E+02  0.10000000000E+01 0.  0.
    9000005    1    3    3    0    0  0.49670725227E+02 -0.37666643747E+02 -0.47541907716E+02  0.78404017658E+02  0.10000000000E+01 0.  0.
<mgrwt>
<rscale>  0 0.12500230E+03</rscale>
<asrwt>0</asrwt>
<pdfrwt beam="1">  1        4 0.72071460E-02 0.12500230E+03</pdfrwt>
<pdfrwt beam="2">  1       -4 0.33876048E-01 0.12500230E+03</pdfrwt>
<totfact> 0.17854778E+03</totfact>
</mgrwt>
</event>
<event>
 5    1  0.1446384E-002  0.1249986E+03  0.7818608E-02  0.1235071E+00
          4   -1    0    0  501    0  0.00000000000E+00  0.00000000000E+00  0.94040516506E+02  0.94049091674E+02  0.12700000000E+01 0. -1.
         -4   -1    0    0    0  501 -0.00000000000E+00 -0.00000000000E+00 -0.41516852158E+02  0.41536272258E+02  0.12700000000E+01 0. -1.
         25    2    1    2    0    0  0.00000000000E+00  0.00000000000E+00  0.52523664348E+02  0.13558536393E+03  0.12499862238E+03 0.  0.
    9000005    1    3    3    0    0  0.25150931147E+02  0.56735843145E+02  0.18317698177E+02  0.64715247828E+02  0.10000000000E+01 0.  0.
    9000005    1    3    3    0    0 -0.25150931147E+02 -0.56735843145E+02  0.34205966171E+02  0.70870116104E+02  0.10000000000E+01 0.  0.
<mgrwt>
<rscale>  0 0.12499862E+03</rscale>
<asrwt>0</asrwt>
<pdfrwt beam="1">  1        4 0.23513628E-01 0.12499862E+03</pdfrwt>
<pdfrwt beam="2">  1       -4 0.10382713E-01 0.12499862E+03</pdfrwt>
<totfact> 0.19269140E+03</totfact>
</mgrwt>
</event>
<event>
 5    1  0.1446384E-002  0.1249996E+03  0.7818608E-02  0.1235070E+00
         -4   -1    0    0    0  501 -0.00000000000E+00  0.00000000000E+00  0.38658239509E+02  0.38679094896E+02  0.12700000000E+01 0. -1.
          4   -1    0    0  501    0  0.00000000000E+00 -0.00000000000E+00 -0.10099300888E+03  0.10100099377E+03  0.12700000000E+01 0. -1.
         25    2    1    2    0    0  0.00000000000E+00  0.00000000000E+00 -0.62334769371E+02  0.13968008867E+03  0.12499961479E+03 0.  0.
    9000005    1    3    3    0    0  0.29473107215E+02 -0.49125797452E+02 -0.32711372354E+01  0.57390838668E+02  0.10000000000E+01 0.  0.
    9000005    1    3    3    0    0 -0.29473107215E+02  0.49125797452E+02 -0.59063632136E+02  0.82289249998E+02  0.10000000000E+01 0.  0.
<mgrwt>
<rscale>  0 0.12499961E+03</rscale>
<asrwt>0</asrwt>
<pdfrwt beam="2">  1        4 0.25251857E-01 0.12499961E+03</pdfrwt>
<pdfrwt beam="1">  1       -4 0.96681651E-02 0.12499961E+03</pdfrwt>
<totfact> 0.19056891E+03</totfact>
</mgrwt>
</event>
<event>
 5    1  0.1446384E-002  0.1249995E+03  0.7818608E-02  0.1235070E+00
          4   -1    0    0  501    0  0.00000000000E+00  0.00000000000E+00  0.25096504839E+02  0.25128618250E+02  0.12700000000E+01 0. -1.
         -4   -1    0    0    0  501 -0.00000000000E+00 -0.00000000000E+00 -0.15551356769E+03  0.15551875332E+03  0.12700000000E+01 0. -1.
         25    2    1    2    0    0  0.00000000000E+00  0.00000000000E+00 -0.13041706285E+03  0.18064737157E+03  0.12499945029E+03 0.  0.
    9000005    1    3    3    0    0 -0.54586181603E+02 -0.17895334862E+02 -0.29652231419E+02  0.64654072261E+02  0.10000000000E+01 0.  0.
    9000005    1    3    3    0    0  0.54586181603E+02  0.17895334862E+02 -0.10076483143E+03  0.11599329931E+03  0.10000000000E+01 0.  0.
<mgrwt>
<rscale>  0 0.12499945E+03</rscale>
<asrwt>0</asrwt>
<pdfrwt beam="1">  1        4 0.62787890E-02 0.12499945E+03</pdfrwt>
<pdfrwt beam="2">  1       -4 0.38883052E-01 0.12499945E+03</pdfrwt>
<totfact> 0.17127448E+03</totfact>
</mgrwt>
</event>
<event>
 5    1  0.1446384E-002  0.1249983E+03  0.7818608E-02  0.1235072E+00
         -4   -1    0    0    0  501 -0.00000000000E+00  0.00000000000E+00  0.18386385973E+02  0.18430195038E+02  0.12700000000E+01 0.  1.
          4   -1    0    0  501    0  0.00000000000E+00 -0.00000000000E+00 -0.21214902942E+03  0.21215283072E+03  0.12700000000E+01 0.  1.
         25    2    1    2    0    0  0.00000000000E+00  0.00000000000E+00 -0.19376264345E+03  0.23058302576E+03  0.12499827908E+03 0.  0.
    9000005    1    3    3    0    0  0.57254008868E+02  0.17570419690E+02 -0.63965046005E+02  0.87631434371E+02  0.10000000000E+01 0.  0.
    9000005    1    3    3    0    0 -0.57254008868E+02 -0.17570419690E+02 -0.12979759744E+03  0.14295159139E+03  0.10000000000E+01 0.  0.
<mgrwt>
<rscale>  0 0.12499828E+03</rscale>
<asrwt>0</asrwt>
<pdfrwt beam="2">  1        4 0.53043201E-01 0.12499828E+03</pdfrwt>
<pdfrwt beam="1">  1       -4 0.46025484E-02 0.12499828E+03</pdfrwt>
<totfact> 0.15167104E+03</totfact>
</mgrwt>
</event>
<event>
 5    1  0.1446384E-002  0.1249981E+03  0.7818608E-02  0.1235072E+00
          4   -1    0    0  501    0  0.00000000000E+00  0.00000000000E+00  0.17492027653E+02  0.17538070915E+02  0.12700000000E+01 0.  1.
         -4   -1    0    0    0  501 -0.00000000000E+00 -0.00000000000E+00 -0.22296781112E+03  0.22297142798E+03  0.12700000000E+01 0.  1.
         25    2    1    2    0    0  0.00000000000E+00  0.00000000000E+00 -0.20547578346E+03  0.24050949889E+03  0.12499808585E+03 0.  0.
    9000005    1    3    3    0    0 -0.13721046237E+02 -0.47962129465E+02 -0.30321520124E+02  0.58386878280E+02  0.10000000000E+01 0.  0.
    9000005    1    3    3    0    0  0.13721046237E+02  0.47962129465E+02 -0.17515426334E+03  0.18212262061E+03  0.10000000000E+01 0.  0.
<mgrwt>
<rscale>  0 0.12499809E+03</rscale>
<asrwt>0</asrwt>
<pdfrwt beam="1">  1        4 0.43792151E-02 0.12499809E+03</pdfrwt>
<pdfrwt beam="2">  1       -4 0.55748151E-01 0.12499809E+03</pdfrwt>
<totfact> 0.14819569E+03</totfact>
</mgrwt>
</event>
<event>
 5    1  0.1446384E-002  0.1250025E+03  0.7818608E-02  0.1235065E+00
         -4   -1    0    0    0  501 -0.00000000000E+00  0.00000000000E+00  0.40728496453E+02  0.40748292275E+02  0.12700000000E+01 0. -1.
          4   -1    0    0  501    0  0.00000000000E+00 -0.00000000000E+00 -0.95865961170E+02  0.95874373067E+02  0.12700000000E+01 0. -1.
         25    2    1    2    0    0  0.00000000000E+00  0.00000000000E+00 -0.55137464717E+02  0.13662266534E+03  0.12500245065E+03 0.  0.
    9000005    1    3    3    0    0  0.41930710076E+02 -0.33037395095E+02  0.79440431570E+01  0.53979271427E+02  0.10000000000E+01 0.  0.
    9000005    1    3    3    0    0 -0.41930710076E+02  0.33037395095E+02 -0.63081507874E+02  0.82643393915E+02  0.10000000000E+01 0.  0.
<mgrwt>
<rscale>  0 0.12500245E+03</rscale>
<asrwt>0</asrwt>
<pdfrwt beam="2">  1        4 0.23970016E-01 0.12500245E+03</pdfrwt>
<pdfrwt beam="1">  1       -4 0.10185650E-01 0.12500245E+03</pdfrwt>
<totfact> 0.19213379E+03</totfact>
</mgrwt>
</event>
<event>
 5    1  0.1446384E-002  0.1250019E+03  0.7818608E-02  0.1235066E+00
          4   -1    0    0  501    0  0.00000000000E+00  0.00000000000E+00  0.46676869375E+01  0.48373754605E+01  0.12700000000E+01 0.  1.
         -4   -1    0    0    0  501 -0.00000000000E+00 -0.00000000000E+00 -0.82178520590E+03  0.82178618724E+03  0.12700000000E+01 0.  1.
         25    2    1    2    0    0  0.00000000000E+00  0.00000000000E+00 -0.81711751897E+03  0.82662356270E+03  0.12500189844E+03 0.  0.
    9000005    1    3    3    0    0  0.30235338390E+02 -0.43138007579E+02 -0.18623337726E+03  0.19354310680E+03  0.10000000000E+01 0.  0.
    9000005    1    3    3    0    0 -0.30235338390E+02  0.43138007579E+02 -0.63088414170E+03  0.63308045590E+03  0.10000000000E+01 0.  0.
<mgrwt>
<rscale>  0 0.12500190E+03</rscale>
<asrwt>0</asrwt>
<pdfrwt beam="1">  1        4 0.11882583E-02 0.12500190E+03</pdfrwt>
<pdfrwt beam="2">  1       -4 0.20546715E+00 0.12500190E+03</pdfrwt>
<totfact> 0.50174311E+02</totfact>
</mgrwt>
</event>
<event>
 5    1  0.1446384E-002  0.1249996E+03  0.7818608E-02  0.1235070E+00
         -4   -1    0    0    0  501 -0.00000000000E+00  0.00000000000E+00  0.11582743121E+02  0.11652160238E+02  0.12700000000E+01 0.  1.
          4   -1    0    0  501    0  0.00000000000E+00 -0.00000000000E+00 -0.33616698357E+03  0.33616938252E+03  0.12700000000E+01 0.  1.
         25    2    1    2    0    0  0.00000000000E+00  0.00000000000E+00 -0.32458424045E+03  0.34782154276E+03  0.12499958583E+03 0.  0.
    9000005    1    3    3    0    0 -0.78327712214E+01  0.22622534020E+02 -0.16695967079E+01  0.24019136197E+02  0.10000000000E+01 0.  0.
    9000005    1    3    3    0    0  0.78327712214E+01 -0.22622534020E+02 -0.32291464374E+03  0.32380240656E+03  0.10000000000E+01 0.  0.
<mgrwt>
<rscale>  0 0.12499959E+03</rscale>
<asrwt>0</asrwt>
<pdfrwt beam="2">  1        4 0.84050691E-01 0.12499959E+03</pdfrwt>
<pdfrwt beam="1">  1       -4 0.29046639E-02 0.12499959E+03</pdfrwt>
<totfact> 0.11729567E+03</totfact>
</mgrwt>
</event>
<event>
 5    1  0.1446384E-002  0.1249638E+03  0.7818608E-02  0.1235126E+00
         -4   -1    0    0    0  501 -0.00000000000E+00  0.00000000000E+00  0.36406147182E+02  0.36428291926E+02  0.12700000000E+01 0.  1.
          4   -1    0    0  501    0  0.00000000000E+00 -0.00000000000E+00 -0.10717579978E+03  0.10718332407E+03  0.12700000000E+01 0.  1.
         25    2    1    2    0    0  0.00000000000E+00  0.00000000000E+00 -0.70769652602E+02  0.14361161600E+03  0.12496380484E+03 0.  0.
    9000005    1    3    3    0    0  0.18026941539E+02 -0.43190311221E+01  0.33178440060E+02  0.38018857635E+02  0.10000000000E+01 0.  0.
    9000005    1    3    3    0    0 -0.18026941539E+02  0.43190311221E+01 -0.10394809266E+03  0.10559275836E+03  0.10000000000E+01 0.  0.
<mgrwt>
<rscale>  0 0.12496380E+03</rscale>
<asrwt>0</asrwt>
<pdfrwt beam="2">  1        4 0.26797658E-01 0.12496380E+03</pdfrwt>
<pdfrwt beam="1">  1       -4 0.91052456E-02 0.12496380E+03</pdfrwt>
<totfact> 0.18872993E+03</totfact>
</mgrwt>
</event>
<event>
 5    1  0.1446384E-002  0.1249993E+03  0.7818608E-02  0.1235070E+00
          4   -1    0    0  501    0  0.00000000000E+00  0.00000000000E+00  0.27485319998E+02  0.27514645471E+02  0.12700000000E+01 0. -1.
         -4   -1    0    0    0  501 -0.00000000000E+00 -0.00000000000E+00 -0.14201185299E+03  0.14201753162E+03  0.12700000000E+01 0. -1.
         25    2    1    2    0    0  0.00000000000E+00  0.00000000000E+00 -0.11452653299E+03  0.16953217709E+03  0.12499932925E+03 0.  0.
    9000005    1    3    3    0    0 -0.58639116548E+02 -0.87857474497E+01 -0.84029236325E+02  0.10284769276E+03  0.10000000000E+01 0.  0.
    9000005    1    3    3    0    0  0.58639116548E+02  0.87857474497E+01 -0.30497296663E+02  0.66684484339E+02  0.10000000000E+01 0.  0.
<mgrwt>
<rscale>  0 0.12499933E+03</rscale>
<asrwt>0</asrwt>
<pdfrwt beam="1">  1        4 0.68757059E-02 0.12499933E+03</pdfrwt>
<pdfrwt beam="2">  1       -4 0.35507337E-01 0.12499933E+03</pdfrwt>
<totfact> 0.17618443E+03</totfact>
</mgrwt>
</event>
<event>
 5    1  0.1446384E-002  0.1250000E+03  0.7818608E-02  0.1235069E+00
         -4   -1    0    0    0  501 -0.00000000000E+00  0.00000000000E+00  0.14088666962E+02  0.14145792193E+02  0.12700000000E+01 0.  1.
          4   -1    0    0  501    0  0.00000000000E+00 -0.00000000000E+00 -0.27664217694E+03  0.27664509206E+03  0.12700000000E+01 0.  1.
         25    2    1    2    0    0  0.00000000000E+00  0.00000000000E+00 -0.26255350998E+03  0.29079088426E+03  0.12499997106E+03 0.  0.
    9000005    1    3    3    0    0 -0.24531038112E+02  0.49069396734E+01  0.19427941292E+01  0.25112234804E+02  0.10000000000E+01 0.  0.
    9000005    1    3    3    0    0  0.24531038112E+02 -0.49069396734E+01 -0.26449630411E+03  0.26567864945E+03  0.10000000000E+01 0.  0.
<mgrwt>
<rscale>  0 0.12499997E+03</rscale>
<asrwt>0</asrwt>
<pdfrwt beam="2">  1        4 0.69168032E-01 0.12499997E+03</pdfrwt>
<pdfrwt beam="1">  1       -4 0.35296727E-02 0.12499997E+03</pdfrwt>
<totfact> 0.13233151E+03</totfact>
</mgrwt>
</event>
<event>
 5    1  0.1446384E-002  0.1250008E+03  0.7818608E-02  0.1235068E+00
         -4   -1    0    0    0  501 -0.00000000000E+00  0.00000000000E+00  0.13266788746E+02  0.13327437249E+02  0.12700000000E+01 0.  1.
          4   -1    0    0  501    0  0.00000000000E+00 -0.00000000000E+00 -0.29370843344E+03  0.29371117918E+03  0.12700000000E+01 0.  1.
         25    2    1    2    0    0  0.00000000000E+00  0.00000000000E+00 -0.28044164470E+03  0.30703861643E+03  0.12500078359E+03 0.  0.
    9000005    1    3    3    0    0 -0.18030376044E+02 -0.43299983815E+02 -0.24165462046E+03  0.24616648563E+03  0.10000000000E+01 0.  0.
    9000005    1    3    3    0    0  0.18030376044E+02  0.43299983815E+02 -0.38787024238E+02  0.60872130798E+02  0.10000000000E+01 0.  0.
<mgrwt>
<rscale>  0 0.12500078E+03</rscale>
<asrwt>0</asrwt>
<pdfrwt beam="2">  1        4 0.73435011E-01 0.12500078E+03</pdfrwt>
<pdfrwt beam="1">  1       -4 0.33246224E-02 0.12500078E+03</pdfrwt>
<totfact> 0.12775827E+03</totfact>
</mgrwt>
</event>
<event>
 5    1  0.1446384E-002  0.1250095E+03  0.7818608E-02  0.1235054E+00
          4   -1    0    0  501    0  0.00000000000E+00  0.00000000000E+00  0.14444766231E+02  0.14500488663E+02  0.12700000000E+01 0. -1.
         -4   -1    0    0    0  501 -0.00000000000E+00 -0.00000000000E+00 -0.26988970696E+03  0.26989269502E+03  0.12700000000E+01 0. -1.
         25    2    1    2    0    0  0.00000000000E+00  0.00000000000E+00 -0.25544494073E+03  0.28439318368E+03  0.12500946036E+03 0.  0.
    9000005    1    3    3    0    0  0.22424889094E+02  0.58320111521E+02 -0.13071493455E+03  0.14488445456E+03  0.10000000000E+01 0.  0.
    9000005    1    3    3    0    0 -0.22424889094E+02 -0.58320111521E+02 -0.12473000618E+03  0.13950872912E+03  0.10000000000E+01 0.  0.
<mgrwt>
<rscale>  0 0.12500946E+03</rscale>
<asrwt>0</asrwt>
<pdfrwt beam="1">  1        4 0.36185312E-02 0.12500946E+03</pdfrwt>
<pdfrwt beam="2">  1       -4 0.67479749E-01 0.12500946E+03</pdfrwt>
<totfact> 0.13417111E+03</totfact>
</mgrwt>
</event>
<event>
 5    1  0.1446384E-002  0.1250015E+03  0.7818608E-02  0.1235067E+00
          4   -1    0    0  501    0  0.00000000000E+00  0.00000000000E+00  0.20897530802E+04  0.20897534661E+04  0.12700000000E+01 0.  1.
         -4   -1    0    0    0  501 -0.00000000000E+00 -0.00000000000E+00 -0.16531449747E+01  0.20846554409E+01  0.12700000000E+01 0.  1.
         25    2    1    2    0    0  0.00000000000E+00  0.00000000000E+00  0.20880999352E+04  0.20918381215E+04  0.12500154908E+03 0.  0.
    9000005    1    3    3    0    0 -0.46096086913E+02  0.32559076949E+02  0.14932096493E+04  0.14942760788E+04  0.10000000000E+01 0.  0.
    9000005    1    3    3    0    0  0.46096086913E+02 -0.32559076949E+02  0.59489028586E+03  0.59756204275E+03  0.10000000000E+01 0.  0.
<mgrwt>
<rscale>  0 0.12500155E+03</rscale>
<asrwt>0</asrwt>
<pdfrwt beam="1">  1        4 0.52249292E+00 0.12500155E+03</pdfrwt>
<pdfrwt beam="2">  1       -4 0.46727269E-03 0.12500155E+03</pdfrwt>
<totfact> 0.18021909E+01</totfact>
</mgrwt>
</event>
<event>
 5    1  0.1446384E-002  0.1249993E+03  0.7818608E-02  0.1235070E+00
          4   -1    0    0  501    0  0.00000000000E+00  0.00000000000E+00  0.27017764710E+02  0.27047597120E+02  0.12700000000E+01 0. -1.
         -4   -1    0    0    0  501 -0.00000000000E+00 -0.00000000000E+00 -0.14446684070E+03  0.14447242284E+03  0.12700000000E+01 0. -1.
         25    2    1    2    0    0  0.00000000000E+00  0.00000000000E+00 -0.11744907599E+03  0.17152001996E+03  0.12499932719E+03 0.  0.
    9000005    1    3    3    0    0 -0.32010827061E+02 -0.51697360225E+02 -0.38939716426E+02  0.72212267785E+02  0.10000000000E+01 0.  0.
    9000005    1    3    3    0    0  0.32010827061E+02  0.51697360225E+02 -0.78509359565E+02  0.99307752178E+02  0.10000000000E+01 0.  0.
<mgrwt>
<rscale>  0 0.12499933E+03</rscale>
<asrwt>0</asrwt>
<pdfrwt beam="1">  1        4 0.67588684E-02 0.12499933E+03</pdfrwt>
<pdfrwt beam="2">  1       -4 0.36121135E-01 0.12499933E+03</pdfrwt>
<totfact> 0.17528979E+03</totfact>
</mgrwt>
</event>
<event>
 5    1  0.1446384E-002  0.1249839E+03  0.7818608E-02  0.1235094E+00
         -4   -1    0    0    0  501 -0.00000000000E+00  0.00000000000E+00  0.58148240377E+03  0.58148379066E+03  0.12700000000E+01 0.  1.
          4   -1    0    0  501    0  0.00000000000E+00 -0.00000000000E+00 -0.66545692444E+01  0.67746728207E+01  0.12700000000E+01 0.  1.
         25    2    1    2    0    0  0.00000000000E+00  0.00000000000E+00  0.57482783453E+03  0.58825846348E+03  0.12498392099E+03 0.  0.
    9000005    1    3    3    0    0 -0.32583773185E+02  0.26010663461E+02  0.68364508166E+02  0.80080976926E+02  0.10000000000E+01 0.  0.
    9000005    1    3    3    0    0  0.32583773185E+02 -0.26010663461E+02  0.50646332636E+03  0.50817748655E+03  0.10000000000E+01 0.  0.
<mgrwt>
<rscale>  0 0.12498392E+03</rscale>
<asrwt>0</asrwt>
<pdfrwt beam="2">  1        4 0.16788286E-02 0.12498392E+03</pdfrwt>
<pdfrwt beam="1">  1       -4 0.14538579E+00 0.12498392E+03</pdfrwt>
<totfact> 0.75027663E+02</totfact>
</mgrwt>
</event>
<event>
 5    1  0.1446384E-002  0.1249963E+03  0.7818608E-02  0.1235075E+00
          4   -1    0    0  501    0  0.00000000000E+00  0.00000000000E+00  0.64899444419E+03  0.64899568681E+03  0.12700000000E+01 0. -1.
         -4   -1    0    0    0  501 -0.00000000000E+00 -0.00000000000E+00 -0.59503137555E+01  0.60843351148E+01  0.12700000000E+01 0. -1.
         25    2    1    2    0    0  0.00000000000E+00  0.00000000000E+00  0.64304413044E+03  0.65508002192E+03  0.12499632567E+03 0.  0.
    9000005    1    3    3    0    0 -0.12856594727E+02 -0.49567859749E+02  0.50922413832E+03  0.51179340343E+03  0.10000000000E+01 0.  0.
    9000005    1    3    3    0    0  0.12856594727E+02  0.49567859749E+02  0.13381999212E+03  0.14328661849E+03  0.10000000000E+01 0.  0.
<mgrwt>
<rscale>  0 0.12499633E+03</rscale>
<asrwt>0</asrwt>
<pdfrwt beam="1">  1        4 0.16226550E+00 0.12499633E+03</pdfrwt>
<pdfrwt beam="2">  1       -4 0.15044867E-02 0.12499633E+03</pdfrwt>
<totfact> 0.66938202E+02</totfact>
</mgrwt>
</event>
<event>
 5    1  0.1446384E-002  0.1249959E+03  0.7818608E-02  0.1235076E+00
         -4   -1    0    0    0  501 -0.00000000000E+00  0.00000000000E+00  0.54060662859E+02  0.54075578303E+02  0.12700000000E+01 0.  1.
          4   -1    0    0  501    0  0.00000000000E+00 -0.00000000000E+00 -0.72221573762E+02  0.72232739230E+02  0.12700000000E+01 0.  1.
         25    2    1    2    0    0  0.00000000000E+00  0.00000000000E+00 -0.18160910903E+02  0.12630831753E+03  0.12499588950E+03 0.  0.
    9000005    1    3    3    0    0  0.28778284940E+02 -0.55467896293E+02 -0.94244635301E+01  0.63203621068E+02  0.10000000000E+01 0.  0.
    9000005    1    3    3    0    0 -0.28778284940E+02  0.55467896293E+02 -0.87364473727E+01  0.63104696465E+02  0.10000000000E+01 0.  0.
<mgrwt>
<rscale>  0 0.12499589E+03</rscale>
<asrwt>0</asrwt>
<pdfrwt beam="2">  1        4 0.18058653E-01 0.12499589E+03</pdfrwt>
<pdfrwt beam="1">  1       -4 0.13518426E-01 0.12499589E+03</pdfrwt>
<totfact> 0.19766168E+03</totfact>
</mgrwt>
</event>
<event>
 5    1  0.1446384E-002  0.1249998E+03  0.7818608E-02  0.1235070E+00
          4   -1    0    0  501    0  0.00000000000E+00  0.00000000000E+00  0.12685727361E+03  0.12686363059E+03  0.12700000000E+01 0. -1.
         -4   -1    0    0    0  501 -0.00000000000E+00 -0.00000000000E+00 -0.30772138201E+02  0.30798334200E+02  0.12700000000E+01 0. -1.
         25    2    1    2    0    0  0.00000000000E+00  0.00000000000E+00  0.96085135409E+02  0.15766196479E+03  0.12499976759E+03 0.  0.
    9000005    1    3    3    0    0  0.10049298413E+02 -0.57828653757E+02  0.20987977676E+02  0.62342896957E+02  0.10000000000E+01 0.  0.
    9000005    1    3    3    0    0 -0.10049298413E+02  0.57828653757E+02  0.75097157732E+02  0.95319067838E+02  0.10000000000E+01 0.  0.
<mgrwt>
<rscale>  0 0.12499977E+03</rscale>
<asrwt>0</asrwt>
<pdfrwt beam="1">  1        4 0.31718387E-01 0.12499977E+03</pdfrwt>
<pdfrwt beam="2">  1       -4 0.76971038E-02 0.12499977E+03</pdfrwt>
<totfact> 0.18168442E+03</totfact>
</mgrwt>
</event>
<event>
 5    1  0.1446384E-002  0.1249956E+03  0.7818608E-02  0.1235076E+00
         -4   -1    0    0    0  501 -0.00000000000E+00  0.00000000000E+00  0.39526677777E+02  0.39547075190E+02  0.12700000000E+01 0.  1.
          4   -1    0    0  501    0  0.00000000000E+00 -0.00000000000E+00 -0.98768728786E+02  0.98776893483E+02  0.12700000000E+01 0.  1.
         25    2    1    2    0    0  0.00000000000E+00  0.00000000000E+00 -0.59242051009E+02  0.13832396867E+03  0.12499559873E+03 0.  0.
    9000005    1    3    3    0    0 -0.38625878740E+01  0.59867512976E+02 -0.48977139682E+02  0.77451913511E+02  0.10000000000E+01 0.  0.
    9000005    1    3    3    0    0  0.38625878740E+01 -0.59867512976E+02 -0.10264911327E+02  0.60872055162E+02  0.10000000000E+01 0.  0.
<mgrwt>
<rscale>  0 0.12499560E+03</rscale>
<asrwt>0</asrwt>
<pdfrwt beam="2">  1        4 0.24695752E-01 0.12499560E+03</pdfrwt>
<pdfrwt beam="1">  1       -4 0.98852399E-02 0.12499560E+03</pdfrwt>
<totfact> 0.19128380E+03</totfact>
</mgrwt>
</event>
<event>
 5    1  0.1446384E-002  0.1250009E+03  0.7818608E-02  0.1235068E+00
          4   -1    0    0  501    0  0.00000000000E+00  0.00000000000E+00  0.50380087350E+02  0.50396092124E+02  0.12700000000E+01 0.  1.
         -4   -1    0    0    0  501 -0.00000000000E+00 -0.00000000000E+00 -0.77503171583E+02  0.77513576265E+02  0.12700000000E+01 0.  1.
         25    2    1    2    0    0  0.00000000000E+00  0.00000000000E+00 -0.27123084233E+02  0.12790966839E+03  0.12500088627E+03 0.  0.
    9000005    1    3    3    0    0 -0.43027420803E+02 -0.32300854830E+02 -0.46091252126E+02  0.70852718270E+02  0.10000000000E+01 0.  0.
    9000005    1    3    3    0    0  0.43027420803E+02  0.32300854830E+02  0.18968167892E+02  0.57056950119E+02  0.10000000000E+01 0.  0.
<mgrwt>
<rscale>  0 0.12500089E+03</rscale>
<asrwt>0</asrwt>
<pdfrwt beam="1">  1        4 0.12598323E-01 0.12500089E+03</pdfrwt>
<pdfrwt beam="2">  1       -4 0.19379094E-01 0.12500089E+03</pdfrwt>
<totfact> 0.19677043E+03</totfact>
</mgrwt>
</event>
<event>
 5    1  0.1446384E-002  0.1249983E+03  0.7818608E-02  0.1235072E+00
          4   -1    0    0  501    0  0.00000000000E+00  0.00000000000E+00  0.30655580635E+03  0.30655843702E+03  0.12700000000E+01 0.  1.
         -4   -1    0    0    0  501 -0.00000000000E+00 -0.00000000000E+00 -0.12707694733E+02  0.12770998607E+02  0.12700000000E+01 0.  1.
         25    2    1    2    0    0  0.00000000000E+00  0.00000000000E+00  0.29384811162E+03  0.31932943563E+03  0.12499830301E+03 0.  0.
    9000005    1    3    3    0    0  0.41921504556E+02 -0.40075326629E+02  0.87465536477E+02  0.10495077141E+03  0.10000000000E+01 0.  0.
    9000005    1    3    3    0    0 -0.41921504556E+02  0.40075326629E+02  0.20638257514E+03  0.21437866422E+03  0.10000000000E+01 0.  0.
<mgrwt>
<rscale>  0 0.12499830E+03</rscale>
<asrwt>0</asrwt>
<pdfrwt beam="1">  1        4 0.76647198E-01 0.12499830E+03</pdfrwt>
<pdfrwt beam="2">  1       -4 0.31851653E-02 0.12499830E+03</pdfrwt>
<totfact> 0.12446580E+03</totfact>
</mgrwt>
</event>
<event>
 5    1  0.1446384E-002  0.1250012E+03  0.7818608E-02  0.1235067E+00
          4   -1    0    0  501    0  0.00000000000E+00  0.00000000000E+00  0.16933557337E+03  0.16934033574E+03  0.12700000000E+01 0.  1.
         -4   -1    0    0    0  501 -0.00000000000E+00 -0.00000000000E+00 -0.23045964383E+02  0.23080930968E+02  0.12700000000E+01 0.  1.
         25    2    1    2    0    0  0.00000000000E+00  0.00000000000E+00  0.14628960898E+03  0.19242126670E+03  0.12500117673E+03 0.  0.
    9000005    1    3    3    0    0 -0.55170466310E+02  0.17698220888E+02  0.37099018920E+02  0.68806573671E+02  0.10000000000E+01 0.  0.
    9000005    1    3    3    0    0  0.55170466310E+02 -0.17698220888E+02  0.10919059006E+03  0.12361469303E+03  0.10000000000E+01 0.  0.
<mgrwt>
<rscale>  0 0.12500118E+03</rscale>
<asrwt>0</asrwt>
<pdfrwt beam="1">  1        4 0.42338859E-01 0.12500118E+03</pdfrwt>
<pdfrwt beam="2">  1       -4 0.57664573E-02 0.12500118E+03</pdfrwt>
<totfact> 0.16629619E+03</totfact>
</mgrwt>
</event>
<event>
 5    1  0.1446384E-002  0.1250004E+03  0.7818608E-02  0.1235069E+00
          4   -1    0    0  501    0  0.00000000000E+00  0.00000000000E+00  0.32576144308E+03  0.32576391865E+03  0.12700000000E+01 0.  1.
         -4   -1    0    0    0  501 -0.00000000000E+00 -0.00000000000E+00 -0.11955049464E+02  0.12022317068E+02  0.12700000000E+01 0.  1.
         25    2    1    2    0    0  0.00000000000E+00  0.00000000000E+00  0.31380639361E+03  0.33778623572E+03  0.12500035348E+03 0.  0.
    9000005    1    3    3    0    0  0.44195787103E+02 -0.43657702848E+02  0.17523285450E+03  0.18592153160E+03  0.10000000000E+01 0.  0.
    9000005    1    3    3    0    0 -0.44195787103E+02  0.43657702848E+02  0.13857353911E+03  0.15186470412E+03  0.10000000000E+01 0.  0.
<mgrwt>
<rscale>  0 0.12500035E+03</rscale>
<asrwt>0</asrwt>
<pdfrwt beam="1">  1        4 0.81449079E-01 0.12500035E+03</pdfrwt>
<pdfrwt beam="2">  1       -4 0.29974802E-02 0.12500035E+03</pdfrwt>
<totfact> 0.11974326E+03</totfact>
</mgrwt>
</event>
<event>
 5    1  0.1446384E-002  0.1250001E+03  0.7818608E-02  0.1235069E+00
          4   -1    0    0  501    0  0.00000000000E+00  0.00000000000E+00  0.37047217641E+02  0.37068979416E+02  0.12700000000E+01 0. -1.
         -4   -1    0    0    0  501 -0.00000000000E+00 -0.00000000000E+00 -0.10538332220E+03  0.10539097446E+03  0.12700000000E+01 0. -1.
         25    2    1    2    0    0  0.00000000000E+00  0.00000000000E+00 -0.68336104555E+02  0.14245995387E+03  0.12500006109E+03 0.  0.
    9000005    1    3    3    0    0  0.32293858896E+02 -0.52122301414E+02 -0.47921206693E+02  0.77827178273E+02  0.10000000000E+01 0.  0.
    9000005    1    3    3    0    0 -0.32293858896E+02  0.52122301414E+02 -0.20414897862E+02  0.64632775600E+02  0.10000000000E+01 0.  0.
<mgrwt>
<rscale>  0 0.12500006E+03</rscale>
<asrwt>0</asrwt>
<pdfrwt beam="1">  1        4 0.92654814E-02 0.12500006E+03</pdfrwt>
<pdfrwt beam="2">  1       -4 0.26349507E-01 0.12500006E+03</pdfrwt>
<totfact> 0.18915167E+03</totfact>
</mgrwt>
</event>
<event>
 5    1  0.1446384E-002  0.1250445E+03  0.7818608E-02  0.1235000E+00
         -4   -1    0    0    0  501 -0.00000000000E+00  0.00000000000E+00  0.24939138019E+02  0.24971453805E+02  0.12700000000E+01 0. -1.
          4   -1    0    0  501    0  0.00000000000E+00 -0.00000000000E+00 -0.15660649084E+03  0.15661164029E+03  0.12700000000E+01 0. -1.
         25    2    1    2    0    0  0.00000000000E+00  0.00000000000E+00 -0.13166735282E+03  0.18158309410E+03  0.12504450512E+03 0.  0.
    9000005    1    3    3    0    0 -0.38788903327E+02  0.39117133073E+02 -0.22920243084E+02  0.59674673557E+02  0.10000000000E+01 0.  0.
    9000005    1    3    3    0    0  0.38788903327E+02 -0.39117133073E+02 -0.10874710974E+03  0.12190842054E+03  0.10000000000E+01 0.  0.
<mgrwt>
<rscale>  0 0.12504451E+03</rscale>
<asrwt>0</asrwt>
<pdfrwt beam="2">  1        4 0.39156303E-01 0.12504451E+03</pdfrwt>
<pdfrwt beam="1">  1       -4 0.62394681E-02 0.12504451E+03</pdfrwt>
<totfact> 0.17069296E+03</totfact>
</mgrwt>
</event>
<event>
 5    1  0.1446384E-002  0.1250027E+03  0.7818608E-02  0.1235065E+00
          4   -1    0    0  501    0  0.00000000000E+00  0.00000000000E+00  0.41117967216E+02  0.41137575621E+02  0.12700000000E+01 0.  1.
         -4   -1    0    0    0  501 -0.00000000000E+00 -0.00000000000E+00 -0.94958710562E+02  0.94967202820E+02  0.12700000000E+01 0.  1.
         25    2    1    2    0    0  0.00000000000E+00  0.00000000000E+00 -0.53840743345E+02  0.13610477844E+03  0.12500274025E+03 0.  0.
    9000005    1    3    3    0    0 -0.58498362963E+02  0.98672315885E+01 -0.48312194598E+02  0.76514631774E+02  0.10000000000E+01 0.  0.
    9000005    1    3    3    0    0  0.58498362963E+02 -0.98672315885E+01 -0.55285487471E+01  0.59590146668E+02  0.10000000000E+01 0.  0.
<mgrwt>
<rscale>  0 0.12500274E+03</rscale>
<asrwt>0</asrwt>
<pdfrwt beam="1">  1        4 0.10283005E-01 0.12500274E+03</pdfrwt>
<pdfrwt beam="2">  1       -4 0.23743190E-01 0.12500274E+03</pdfrwt>
<totfact> 0.19240196E+03</totfact>
</mgrwt>
</event>
<event>
 5    1  0.1446384E-002  0.1250086E+03  0.7818608E-02  0.1235056E+00
         -4   -1    0    0    0  501 -0.00000000000E+00  0.00000000000E+00  0.33844645380E+02  0.33868464992E+02  0.12700000000E+01 0.  1.
          4   -1    0    0  501    0  0.00000000000E+00 -0.00000000000E+00 -0.11536502193E+03  0.11537201214E+03  0.12700000000E+01 0.  1.
         25    2    1    2    0    0  0.00000000000E+00  0.00000000000E+00 -0.81520376553E+02  0.14924047713E+03  0.12500859259E+03 0.  0.
    9000005    1    3    3    0    0  0.30835812215E+02 -0.37324834067E+02 -0.87940302295E+02  0.10039166958E+03  0.10000000000E+01 0.  0.
    9000005    1    3    3    0    0 -0.30835812215E+02  0.37324834067E+02  0.64199257426E+01  0.48848807555E+02  0.10000000000E+01 0.  0.
<mgrwt>
<rscale>  0 0.12500859E+03</rscale>
<asrwt>0</asrwt>
<pdfrwt beam="2">  1        4 0.28845106E-01 0.12500859E+03</pdfrwt>
<pdfrwt beam="1">  1       -4 0.84650128E-02 0.12500859E+03</pdfrwt>
<totfact> 0.18572475E+03</totfact>
</mgrwt>
</event>
<event>
 5    1  0.1446384E-002  0.1249966E+03  0.7818608E-02  0.1235075E+00
          4   -1    0    0  501    0  0.00000000000E+00  0.00000000000E+00  0.57168993965E+02  0.57183098648E+02  0.12700000000E+01 0. -1.
         -4   -1    0    0    0  501 -0.00000000000E+00 -0.00000000000E+00 -0.68295966095E+02  0.68307773238E+02  0.12700000000E+01 0. -1.
         25    2    1    2    0    0  0.00000000000E+00  0.00000000000E+00 -0.11126972130E+02  0.12549087189E+03  0.12499659763E+03 0.  0.
    9000005    1    3    3    0    0  0.83372225996E+01 -0.51511464268E+02  0.28954108636E+02  0.59684844296E+02  0.10000000000E+01 0.  0.
    9000005    1    3    3    0    0 -0.83372225996E+01  0.51511464268E+02 -0.40081080766E+02  0.65806027590E+02  0.10000000000E+01 0.  0.
<mgrwt>
<rscale>  0 0.12499660E+03</rscale>
<asrwt>0</asrwt>
<pdfrwt beam="1">  1        4 0.14295487E-01 0.12499660E+03</pdfrwt>
<pdfrwt beam="2">  1       -4 0.17077230E-01 0.12499660E+03</pdfrwt>
<totfact> 0.19810034E+03</totfact>
</mgrwt>
</event>
<event>
 5    1  0.1446384E-002  0.1250021E+03  0.7818608E-02  0.1235066E+00
         -4   -1    0    0    0  501 -0.00000000000E+00  0.00000000000E+00  0.69974514260E+03  0.69974629509E+03  0.12700000000E+01 0. -1.
          4   -1    0    0  501    0  0.00000000000E+00 -0.00000000000E+00 -0.55091717236E+01  0.56536601489E+01  0.12700000000E+01 0. -1.
         25    2    1    2    0    0  0.00000000000E+00  0.00000000000E+00  0.69423597087E+03  0.70539995524E+03  0.12500205435E+03 0.  0.
    9000005    1    3    3    0    0  0.35234862242E+02 -0.23531397726E+02  0.60634220736E+03  0.60782159770E+03  0.10000000000E+01 0.  0.
    9000005    1    3    3    0    0 -0.35234862242E+02  0.23531397726E+02  0.87893763510E+02  0.97578357539E+02  0.10000000000E+01 0.  0.
<mgrwt>
<rscale>  0 0.12500205E+03</rscale>
<asrwt>0</asrwt>
<pdfrwt beam="2">  1        4 0.13954982E-02 0.12500205E+03</pdfrwt>
<pdfrwt beam="1">  1       -4 0.17495447E+00 0.12500205E+03</pdfrwt>
<totfact> 0.61501532E+02</totfact>
</mgrwt>
</event>
<event>
 5    1  0.1446384E-002  0.1249993E+03  0.7818608E-02  0.1235070E+00
         -4   -1    0    0    0  501 -0.00000000000E+00  0.00000000000E+00  0.26531528315E+02  0.26561906835E+02  0.12700000000E+01 0.  1.
          4   -1    0    0  501    0  0.00000000000E+00 -0.00000000000E+00 -0.14711145475E+03  0.14711693655E+03  0.12700000000E+01 0.  1.
         25    2    1    2    0    0  0.00000000000E+00  0.00000000000E+00 -0.12057992644E+03  0.17367884338E+03  0.12499928791E+03 0.  0.
    9000005    1    3    3    0    0  0.39706599808E+02 -0.40252832557E+02 -0.23311549642E+02  0.61166436416E+02  0.10000000000E+01 0.  0.
    9000005    1    3    3    0    0 -0.39706599808E+02  0.40252832557E+02 -0.97268376793E+02  0.11251240697E+03  0.10000000000E+01 0.  0.
<mgrwt>
<rscale>  0 0.12499929E+03</rscale>
<asrwt>0</asrwt>
<pdfrwt beam="2">  1        4 0.36782344E-01 0.12499929E+03</pdfrwt>
<pdfrwt beam="1">  1       -4 0.66373650E-02 0.12499929E+03</pdfrwt>
<totfact> 0.17432669E+03</totfact>
</mgrwt>
</event>
<event>
 5    1  0.1446384E-002  0.1249924E+03  0.7818608E-02  0.1235081E+00
         -4   -1    0    0    0  501 -0.00000000000E+00  0.00000000000E+00  0.25435118684E+02  0.25466805109E+02  0.12700000000E+01 0. -1.
          4   -1    0    0  501    0  0.00000000000E+00 -0.00000000000E+00 -0.15342846354E+03  0.15343371964E+03  0.12700000000E+01 0. -1.
         25    2    1    2    0    0  0.00000000000E+00  0.00000000000E+00 -0.12799334485E+03  0.17890052475E+03  0.12499240549E+03 0.  0.
    9000005    1    3    3    0    0 -0.36158242069E+02  0.44739724765E+02 -0.29062789466E+02  0.64457018029E+02  0.10000000000E+01 0.  0.
    9000005    1    3    3    0    0  0.36158242069E+02 -0.44739724765E+02 -0.98930555386E+02  0.11444350672E+03  0.10000000000E+01 0.  0.
<mgrwt>
<rscale>  0 0.12499241E+03</rscale>
<asrwt>0</asrwt>
<pdfrwt beam="2">  1        4 0.38361731E-01 0.12499241E+03</pdfrwt>
<pdfrwt beam="1">  1       -4 0.63633979E-02 0.12499241E+03</pdfrwt>
<totfact> 0.17205940E+03</totfact>
</mgrwt>
</event>
<event>
 5    1  0.1446384E-002  0.1250004E+03  0.7818608E-02  0.1235069E+00
         -4   -1    0    0    0  501 -0.00000000000E+00  0.00000000000E+00  0.98005603504E+02  0.98013831770E+02  0.12700000000E+01 0. -1.
          4   -1    0    0  501    0  0.00000000000E+00 -0.00000000000E+00 -0.39837652833E+02  0.39857891104E+02  0.12700000000E+01 0. -1.
         25    2    1    2    0    0  0.00000000000E+00  0.00000000000E+00  0.58167950671E+02  0.13787172287E+03  0.12500040593E+03 0.  0.
    9000005    1    3    3    0    0 -0.28871728871E+02 -0.46025781993E+02  0.63139259307E+02  0.83303753829E+02  0.10000000000E+01 0.  0.
    9000005    1    3    3    0    0  0.28871728871E+02  0.46025781993E+02 -0.49713086361E+01  0.54567969045E+02  0.10000000000E+01 0.  0.
<mgrwt>
<rscale>  0 0.12500041E+03</rscale>
<asrwt>0</asrwt>
<pdfrwt beam="2">  1        4 0.99629716E-02 0.12500041E+03</pdfrwt>
<pdfrwt beam="1">  1       -4 0.24504959E-01 0.12500041E+03</pdfrwt>
<totfact> 0.19149575E+03</totfact>
</mgrwt>
</event>
<event>
 5    1  0.1446384E-002  0.1249993E+03  0.7818608E-02  0.1235070E+00
          4   -1    0    0  501    0  0.00000000000E+00  0.00000000000E+00  0.97323728610E+01  0.98148857103E+01  0.12700000000E+01 0.  1.
         -4   -1    0    0    0  501 -0.00000000000E+00 -0.00000000000E+00 -0.39958431780E+03  0.39958633602E+03  0.12700000000E+01 0.  1.
         25    2    1    2    0    0  0.00000000000E+00  0.00000000000E+00 -0.38985194494E+03  0.40940122173E+03  0.12499928552E+03 0.  0.
    9000005    1    3    3    0    0 -0.41557251462E+02  0.82177558655E+01 -0.34539656703E+03  0.34798609912E+03  0.10000000000E+01 0.  0.
    9000005    1    3    3    0    0  0.41557251462E+02 -0.82177558655E+01 -0.44455377909E+02  0.61415122613E+02  0.10000000000E+01 0.  0.
<mgrwt>
<rscale>  0 0.12499929E+03</rscale>
<asrwt>0</asrwt>
<pdfrwt beam="1">  1        4 0.24436609E-02 0.12499929E+03</pdfrwt>
<pdfrwt beam="2">  1       -4 0.99906591E-01 0.12499929E+03</pdfrwt>
<totfact> 0.10378250E+03</totfact>
</mgrwt>
</event>
<event>
 5    1  0.1446384E-002  0.1250041E+03  0.7818608E-02  0.1235063E+00
         -4   -1    0    0    0  501 -0.00000000000E+00  0.00000000000E+00  0.67166210034E+02  0.67178215742E+02  0.12700000000E+01 0.  1.
          4   -1    0    0  501    0  0.00000000000E+00 -0.00000000000E+00 -0.58137676590E+02  0.58151546319E+02  0.12700000000E+01 0.  1.
         25    2    1    2    0    0  0.00000000000E+00  0.00000000000E+00  0.90285334439E+01  0.12532976206E+03  0.12500413930E+03 0.  0.
    9000005    1    3    3    0    0  0.21113090705E+01  0.21963129287E+02 -0.54107451121E+02  0.58441876603E+02  0.10000000000E+01 0.  0.
    9000005    1    3    3    0    0 -0.21113090705E+01 -0.21963129287E+02  0.63135984565E+02  0.66887885458E+02  0.10000000000E+01 0.  0.
<mgrwt>
<rscale>  0 0.12500414E+03</rscale>
<asrwt>0</asrwt>
<pdfrwt beam="2">  1        4 0.14537654E-01 0.12500414E+03</pdfrwt>
<pdfrwt beam="1">  1       -4 0.16794787E-01 0.12500414E+03</pdfrwt>
<totfact> 0.19815263E+03</totfact>
</mgrwt>
</event>
<event>
 5    1  0.1446384E-002  0.1250015E+03  0.7818608E-02  0.1235067E+00
          4   -1    0    0  501    0  0.00000000000E+00  0.00000000000E+00  0.11060055590E+03  0.11060784721E+03  0.12700000000E+01 0. -1.
         -4   -1    0    0    0  501 -0.00000000000E+00 -0.00000000000E+00 -0.35299497751E+02  0.35322336297E+02  0.12700000000E+01 0. -1.
         25    2    1    2    0    0  0.00000000000E+00  0.00000000000E+00  0.75301058147E+02  0.14593018351E+03  0.12500147640E+03 0.  0.
    9000005    1    3    3    0    0  0.84149671852E+01  0.52666425281E+02 -0.37211283701E+00  0.53345126231E+02  0.10000000000E+01 0.  0.
    9000005    1    3    3    0    0 -0.84149671852E+01 -0.52666425281E+02  0.75673170984E+02  0.92585057279E+02  0.10000000000E+01 0.  0.
<mgrwt>
<rscale>  0 0.12500148E+03</rscale>
<asrwt>0</asrwt>
<pdfrwt beam="1">  1        4 0.27653905E-01 0.12500148E+03</pdfrwt>
<pdfrwt beam="2">  1       -4 0.88286407E-02 0.12500148E+03</pdfrwt>
<totfact> 0.18740077E+03</totfact>
</mgrwt>
</event>
<event>
 5    1  0.1446384E-002  0.1249957E+03  0.7818608E-02  0.1235076E+00
         -4   -1    0    0    0  501 -0.00000000000E+00  0.00000000000E+00  0.31307100779E+02  0.31332849522E+02  0.12700000000E+01 0.  1.
          4   -1    0    0  501    0  0.00000000000E+00 -0.00000000000E+00 -0.12468320082E+03  0.12468966864E+03  0.12700000000E+01 0.  1.
         25    2    1    2    0    0  0.00000000000E+00  0.00000000000E+00 -0.93376100040E+02  0.15602251817E+03  0.12499572039E+03 0.  0.
    9000005    1    3    3    0    0  0.12602333034E+02 -0.43005527973E+02  0.76732859339E+01  0.45477176157E+02  0.10000000000E+01 0.  0.
    9000005    1    3    3    0    0 -0.12602333034E+02  0.43005527973E+02 -0.10104938597E+03  0.11054534201E+03  0.10000000000E+01 0.  0.
<mgrwt>
<rscale>  0 0.12499572E+03</rscale>
<asrwt>0</asrwt>
<pdfrwt beam="2">  1        4 0.31174826E-01 0.12499572E+03</pdfrwt>
<pdfrwt beam="1">  1       -4 0.78308026E-02 0.12499572E+03</pdfrwt>
<totfact> 0.18248379E+03</totfact>
</mgrwt>
</event>
<event>
 5    1  0.1446384E-002  0.1250005E+03  0.7818608E-02  0.1235068E+00
         -4   -1    0    0    0  501 -0.00000000000E+00  0.00000000000E+00  0.42706980415E+02  0.42725859572E+02  0.12700000000E+01 0. -1.
          4   -1    0    0  501    0  0.00000000000E+00 -0.00000000000E+00 -0.91423569367E+02  0.91432389971E+02  0.12700000000E+01 0. -1.
         25    2    1    2    0    0  0.00000000000E+00  0.00000000000E+00 -0.48716588952E+02  0.13415824954E+03  0.12500051952E+03 0.  0.
    9000005    1    3    3    0    0  0.48712422370E+02  0.23667260036E+02  0.91068741478E+01  0.54926991976E+02  0.10000000000E+01 0.  0.
    9000005    1    3    3    0    0 -0.48712422370E+02 -0.23667260036E+02 -0.57823463100E+02  0.79231257567E+02  0.10000000000E+01 0.  0.
<mgrwt>
<rscale>  0 0.12500052E+03</rscale>
<asrwt>0</asrwt>
<pdfrwt beam="2">  1        4 0.22859355E-01 0.12500052E+03</pdfrwt>
<pdfrwt beam="1">  1       -4 0.10680208E-01 0.12500052E+03</pdfrwt>
<totfact> 0.19343083E+03</totfact>
</mgrwt>
</event>
<event>
 4    1  0.1446384E-002  0.1250775E+03  0.7818608E-02  0.1234948E+00
          4   -1    0    0  501    0  0.00000000000E+00  0.00000000000E+00  0.62391946104E+02  0.62404870312E+02  0.12700000000E+01 0. -1.
         -4   -1    0    0    0  501 -0.00000000000E+00 -0.00000000000E+00 -0.62660019121E+02  0.62672888048E+02  0.12700000000E+01 0. -1.
    9000005    1    1    2    0    0  0.43376173599E+02 -0.42057980484E+02  0.15982057245E+02  0.62504338348E+02  0.10000000000E+01 0.  0.
    9000005    1    1    2    0    0 -0.43376173599E+02  0.42057980484E+02 -0.16250130262E+02  0.62573420012E+02  0.10000000000E+01 0.  0.
<mgrwt>
<rscale>  0 0.12507747E+03</rscale>
<asrwt>0</asrwt>
<pdfrwt beam="1">  1        4 0.15601211E-01 0.12507747E+03</pdfrwt>
<pdfrwt beam="2">  1       -4 0.15668229E-01 0.12507747E+03</pdfrwt>
<totfact> 0.19794934E+03</totfact>
</mgrwt>
</event>
<event>
 5    1  0.1446384E-002  0.1249990E+03  0.7818608E-02  0.1235071E+00
          4   -1    0    0  501    0  0.00000000000E+00  0.00000000000E+00  0.39760193589E+03  0.39760396417E+03  0.12700000000E+01 0.  1.
         -4   -1    0    0    0  501 -0.00000000000E+00 -0.00000000000E+00 -0.97812616781E+01  0.98633655522E+01  0.12700000000E+01 0.  1.
         25    2    1    2    0    0  0.00000000000E+00  0.00000000000E+00  0.38782067421E+03  0.40746732972E+03  0.12499899777E+03 0.  0.
    9000005    1    3    3    0    0  0.49972189415E+02  0.14300342001E+02  0.30699494888E+03  0.31136573051E+03  0.10000000000E+01 0.  0.
    9000005    1    3    3    0    0 -0.49972189415E+02 -0.14300342001E+02  0.80825725332E+02  0.96101599215E+02  0.10000000000E+01 0.  0.
<mgrwt>
<rscale>  0 0.12499900E+03</rscale>
<asrwt>0</asrwt>
<pdfrwt beam="1">  1        4 0.99410991E-01 0.12499900E+03</pdfrwt>
<pdfrwt beam="2">  1       -4 0.24558322E-02 0.12499900E+03</pdfrwt>
<totfact> 0.10417222E+03</totfact>
</mgrwt>
</event>
<event>
 5    1  0.1446384E-002  0.1249877E+03  0.7818608E-02  0.1235088E+00
          4   -1    0    0  501    0  0.00000000000E+00  0.00000000000E+00  0.86400442225E+02  0.86409775585E+02  0.12700000000E+01 0.  1.
         -4   -1    0    0    0  501 -0.00000000000E+00 -0.00000000000E+00 -0.45181412639E+02  0.45199258269E+02  0.12700000000E+01 0.  1.
         25    2    1    2    0    0  0.00000000000E+00  0.00000000000E+00  0.41219029586E+02  0.13160903385E+03  0.12498771696E+03 0.  0.
    9000005    1    3    3    0    0 -0.14362071459E+02 -0.28468605366E+02  0.77194120541E+02  0.83526419977E+02  0.10000000000E+01 0.  0.
    9000005    1    3    3    0    0  0.14362071459E+02  0.28468605366E+02 -0.35975090955E+02  0.48082613877E+02  0.10000000000E+01 0.  0.
<mgrwt>
<rscale>  0 0.12498772E+03</rscale>
<asrwt>0</asrwt>
<pdfrwt beam="1">  1        4 0.21603508E-01 0.12498772E+03</pdfrwt>
<pdfrwt beam="2">  1       -4 0.11298751E-01 0.12498772E+03</pdfrwt>
<totfact> 0.19483852E+03</totfact>
</mgrwt>
</event>
<event>
 5    1  0.1446384E-002  0.1250031E+03  0.7818608E-02  0.1235064E+00
          4   -1    0    0  501    0  0.00000000000E+00  0.00000000000E+00  0.82447236025E+03  0.82447333839E+03  0.12700000000E+01 0. -1.
         -4   -1    0    0    0  501 -0.00000000000E+00 -0.00000000000E+00 -0.46520124105E+01  0.48222525305E+01  0.12700000000E+01 0. -1.
         25    2    1    2    0    0  0.00000000000E+00  0.00000000000E+00  0.81982034784E+03  0.82929559092E+03  0.12500309752E+03 0.  0.
    9000005    1    3    3    0    0 -0.77799630551E+01 -0.53123188919E+02  0.19773577561E+03  0.20489762806E+03  0.10000000000E+01 0.  0.
    9000005    1    3    3    0    0  0.77799630551E+01  0.53123188919E+02  0.62208457223E+03  0.62439796286E+03  0.10000000000E+01 0.  0.
<mgrwt>
<rscale>  0 0.12500310E+03</rscale>
<asrwt>0</asrwt>
<pdfrwt beam="1">  1        4 0.20613949E+00 0.12500310E+03</pdfrwt>
<pdfrwt beam="2">  1       -4 0.11844054E-02 0.12500310E+03</pdfrwt>
<totfact> 0.49947072E+02</totfact>
</mgrwt>
</event>
<event>
 5    1  0.1446384E-002  0.1249971E+03  0.7818608E-02  0.1235074E+00
         -4   -1    0    0    0  501 -0.00000000000E+00  0.00000000000E+00  0.12194400466E+04  0.12194407079E+04  0.12700000000E+01 0. -1.
          4   -1    0    0  501    0  0.00000000000E+00 -0.00000000000E+00 -0.30765927786E+01  0.33284115018E+01  0.12700000000E+01 0. -1.
         25    2    1    2    0    0  0.00000000000E+00  0.00000000000E+00  0.12163634538E+04  0.12227691194E+04  0.12499707052E+03 0.  0.
    9000005    1    3    3    0    0  0.29619968859E+02  0.23169137314E+02  0.10964113415E+04  0.10970565078E+04  0.10000000000E+01 0.  0.
    9000005    1    3    3    0    0 -0.29619968859E+02 -0.23169137314E+02  0.11995211233E+03  0.12571261167E+03  0.10000000000E+01 0.  0.
<mgrwt>
<rscale>  0 0.12499707E+03</rscale>
<asrwt>0</asrwt>
<pdfrwt beam="2">  1        4 0.80070824E-03 0.12499707E+03</pdfrwt>
<pdfrwt beam="1">  1       -4 0.30489156E+00 0.12499707E+03</pdfrwt>
<totfact> 0.24032536E+02</totfact>
</mgrwt>
</event>
<event>
 5    1  0.1446384E-002  0.1249870E+03  0.7818608E-02  0.1235090E+00
          4   -1    0    0  501    0  0.00000000000E+00  0.00000000000E+00  0.11497667596E+02  0.11567595262E+02  0.12700000000E+01 0.  1.
         -4   -1    0    0    0  501 -0.00000000000E+00 -0.00000000000E+00 -0.33857133193E+03  0.33857371384E+03  0.12700000000E+01 0.  1.
         25    2    1    2    0    0  0.00000000000E+00  0.00000000000E+00 -0.32707366433E+03  0.35014130910E+03  0.12498701709E+03 0.  0.
    9000005    1    3    3    0    0 -0.51909233777E+02  0.34642380323E+02 -0.15477794523E+03  0.16688881147E+03  0.10000000000E+01 0.  0.
    9000005    1    3    3    0    0  0.51909233777E+02 -0.34642380323E+02 -0.17229571911E+03  0.18325249763E+03  0.10000000000E+01 0.  0.
<mgrwt>
<rscale>  0 0.12498702E+03</rscale>
<asrwt>0</asrwt>
<pdfrwt beam="1">  1        4 0.28834567E-02 0.12498702E+03</pdfrwt>
<pdfrwt beam="2">  1       -4 0.84651839E-01 0.12498702E+03</pdfrwt>
<totfact> 0.11677414E+03</totfact>
</mgrwt>
</event>
<event>
 5    1  0.1446384E-002  0.1249974E+03  0.7818608E-02  0.1235073E+00
         -4   -1    0    0    0  501 -0.00000000000E+00  0.00000000000E+00  0.40558903574E+02  0.40578782130E+02  0.12700000000E+01 0.  1.
          4   -1    0    0  501    0  0.00000000000E+00 -0.00000000000E+00 -0.96258913105E+02  0.96267290666E+02  0.12700000000E+01 0.  1.
         25    2    1    2    0    0  0.00000000000E+00  0.00000000000E+00 -0.55700009532E+02  0.13684607280E+03  0.12499742628E+03 0.  0.
    9000005    1    3    3    0    0 -0.90993984527E+01  0.53021682832E+02 -0.62660080193E+02  0.82591667572E+02  0.10000000000E+01 0.  0.
    9000005    1    3    3    0    0  0.90993984527E+01 -0.53021682832E+02  0.69600706616E+01  0.54254405224E+02  0.10000000000E+01 0.  0.
<mgrwt>
<rscale>  0 0.12499743E+03</rscale>
<asrwt>0</asrwt>
<pdfrwt beam="2">  1        4 0.24068260E-01 0.12499743E+03</pdfrwt>
<pdfrwt beam="1">  1       -4 0.10143258E-01 0.12499743E+03</pdfrwt>
<totfact> 0.19204027E+03</totfact>
</mgrwt>
</event>
<event>
 5    1  0.1446384E-002  0.1249994E+03  0.7818608E-02  0.1235070E+00
          4   -1    0    0  501    0  0.00000000000E+00  0.00000000000E+00  0.44200993358E+02  0.44219234659E+02  0.12700000000E+01 0. -1.
         -4   -1    0    0    0  501 -0.00000000000E+00 -0.00000000000E+00 -0.88332838358E+02  0.88341967560E+02  0.12700000000E+01 0. -1.
         25    2    1    2    0    0  0.00000000000E+00  0.00000000000E+00 -0.44131845001E+02  0.13256120222E+03  0.12499941036E+03 0.  0.
    9000005    1    3    3    0    0 -0.12979187759E+02 -0.46561161046E+01  0.42572720201E+02  0.44761314071E+02  0.10000000000E+01 0.  0.
    9000005    1    3    3    0    0  0.12979187759E+02  0.46561161046E+01 -0.86704565201E+02  0.87799888148E+02  0.10000000000E+01 0.  0.
<mgrwt>
<rscale>  0 0.12499941E+03</rscale>
<asrwt>0</asrwt>
<pdfrwt beam="1">  1        4 0.11053670E-01 0.12499941E+03</pdfrwt>
<pdfrwt beam="2">  1       -4 0.22086631E-01 0.12499941E+03</pdfrwt>
<totfact> 0.19427922E+03</totfact>
</mgrwt>
</event>
<event>
 5    1  0.1446384E-002  0.1249995E+03  0.7818608E-02  0.1235070E+00
         -4   -1    0    0    0  501 -0.00000000000E+00  0.00000000000E+00  0.81546704382E+03  0.81546803277E+03  0.12700000000E+01 0.  1.
          4   -1    0    0  501    0  0.00000000000E+00 -0.00000000000E+00 -0.47049772329E+01  0.48733674972E+01  0.12700000000E+01 0.  1.
         25    2    1    2    0    0  0.00000000000E+00  0.00000000000E+00  0.81076206659E+03  0.82034140026E+03  0.12499953745E+03 0.  0.
    9000005    1    3    3    0    0  0.47325003345E+02 -0.21226780481E+02  0.17662509017E+03  0.18408599792E+03  0.10000000000E+01 0.  0.
    9000005    1    3    3    0    0 -0.47325003345E+02  0.21226780481E+02  0.63413697642E+03  0.63625540235E+03  0.10000000000E+01 0.  0.
<mgrwt>
<rscale>  0 0.12499954E+03</rscale>
<asrwt>0</asrwt>
<pdfrwt beam="2">  1        4 0.11974168E-02 0.12499954E+03</pdfrwt>
<pdfrwt beam="1">  1       -4 0.20388792E+00 0.12499954E+03</pdfrwt>
<totfact> 0.50711278E+02</totfact>
</mgrwt>
</event>
<event>
 5    1  0.1446384E-002  0.1249994E+03  0.7818608E-02  0.1235070E+00
          4   -1    0    0  501    0  0.00000000000E+00  0.00000000000E+00  0.16919173587E+03  0.16919650228E+03  0.12700000000E+01 0. -1.
         -4   -1    0    0    0  501 -0.00000000000E+00 -0.00000000000E+00 -0.23064939098E+02  0.23099876961E+02  0.12700000000E+01 0. -1.
         25    2    1    2    0    0  0.00000000000E+00  0.00000000000E+00  0.14612679677E+03  0.19229637924E+03  0.12499942695E+03 0.  0.
    9000005    1    3    3    0    0  0.19849506653E+02  0.20958026677E+02 -0.12201786645E+02  0.31354830471E+02  0.10000000000E+01 0.  0.
    9000005    1    3    3    0    0 -0.19849506653E+02 -0.20958026677E+02  0.15832858341E+03  0.16094154877E+03  0.10000000000E+01 0.  0.
<mgrwt>
<rscale>  0 0.12499943E+03</rscale>
<asrwt>0</asrwt>
<pdfrwt beam="1">  1        4 0.42302897E-01 0.12499943E+03</pdfrwt>
<pdfrwt beam="2">  1       -4 0.57711978E-02 0.12499943E+03</pdfrwt>
<totfact> 0.16635446E+03</totfact>
</mgrwt>
</event>
<event>
 5    1  0.1446384E-002  0.1249956E+03  0.7818608E-02  0.1235076E+00
          4   -1    0    0  501    0  0.00000000000E+00  0.00000000000E+00  0.99098878677E+02  0.99107016174E+02  0.12700000000E+01 0. -1.
         -4   -1    0    0    0  501 -0.00000000000E+00 -0.00000000000E+00 -0.39394948677E+02  0.39415414260E+02  0.12700000000E+01 0. -1.
         25    2    1    2    0    0  0.00000000000E+00  0.00000000000E+00  0.59703930000E+02  0.13852243043E+03  0.12499561783E+03 0.  0.
    9000005    1    3    3    0    0  0.36336689912E+02  0.36952811388E+02  0.68546257248E+02  0.85938668165E+02  0.10000000000E+01 0.  0.
    9000005    1    3    3    0    0 -0.36336689912E+02 -0.36952811388E+02 -0.88423272489E+01  0.52583762269E+02  0.10000000000E+01 0.  0.
<mgrwt>
<rscale>  0 0.12499562E+03</rscale>
<asrwt>0</asrwt>
<pdfrwt beam="1">  1        4 0.24778295E-01 0.12499562E+03</pdfrwt>
<pdfrwt beam="2">  1       -4 0.98523126E-02 0.12499562E+03</pdfrwt>
<totfact> 0.19118143E+03</totfact>
</mgrwt>
</event>
<event>
 5    1  0.1446384E-002  0.1249999E+03  0.7818608E-02  0.1235070E+00
          4   -1    0    0  501    0  0.00000000000E+00  0.00000000000E+00  0.18494718982E+02  0.18538272040E+02  0.12700000000E+01 0.  1.
         -4   -1    0    0    0  501 -0.00000000000E+00 -0.00000000000E+00 -0.21091459199E+03  0.21091841554E+03  0.12700000000E+01 0.  1.
         25    2    1    2    0    0  0.00000000000E+00  0.00000000000E+00 -0.19241987301E+03  0.22945668758E+03  0.12499985579E+03 0.  0.
    9000005    1    3    3    0    0  0.45180401813E+02 -0.39252589062E+02 -0.12921125350E+03  0.14240288792E+03  0.10000000000E+01 0.  0.
    9000005    1    3    3    0    0 -0.45180401813E+02  0.39252589062E+02 -0.63208619512E+02  0.87053799668E+02  0.10000000000E+01 0.  0.
<mgrwt>
<rscale>  0 0.12499986E+03</rscale>
<asrwt>0</asrwt>
<pdfrwt beam="1">  1        4 0.46296025E-02 0.12499986E+03</pdfrwt>
<pdfrwt beam="2">  1       -4 0.52734563E-01 0.12499986E+03</pdfrwt>
<totfact> 0.15206796E+03</totfact>
</mgrwt>
</event>
<event>
 5    1  0.1446384E-002  0.1250002E+03  0.7818608E-02  0.1235069E+00
         -4   -1    0    0    0  501 -0.00000000000E+00  0.00000000000E+00  0.27756224522E+02  0.27785264075E+02  0.12700000000E+01 0. -1.
          4   -1    0    0  501    0  0.00000000000E+00 -0.00000000000E+00 -0.14062908431E+03  0.14063481878E+03  0.12700000000E+01 0. -1.
         25    2    1    2    0    0  0.00000000000E+00  0.00000000000E+00 -0.11287285979E+03  0.16842008286E+03  0.12500016733E+03 0.  0.
    9000005    1    3    3    0    0 -0.25482130614E+02 -0.47128197263E+02 -0.99779825185E+02  0.11325819825E+03  0.10000000000E+01 0.  0.
    9000005    1    3    3    0    0  0.25482130614E+02  0.47128197263E+02 -0.13093034604E+02  0.55161884604E+02  0.10000000000E+01 0.  0.
<mgrwt>
<rscale>  0 0.12500017E+03</rscale>
<asrwt>0</asrwt>
<pdfrwt beam="2">  1        4 0.35161616E-01 0.12500017E+03</pdfrwt>
<pdfrwt beam="1">  1       -4 0.69434033E-02 0.12500017E+03</pdfrwt>
<totfact> 0.17668476E+03</totfact>
</mgrwt>
</event>
<event>
 5    1  0.1446384E-002  0.1250086E+03  0.7818608E-02  0.1235056E+00
         -4   -1    0    0    0  501 -0.00000000000E+00  0.00000000000E+00  0.71047345815E+02  0.71058695790E+02  0.12700000000E+01 0.  1.
          4   -1    0    0  501    0  0.00000000000E+00 -0.00000000000E+00 -0.54965444459E+02  0.54980114447E+02  0.12700000000E+01 0.  1.
         25    2    1    2    0    0  0.00000000000E+00  0.00000000000E+00  0.16081901356E+02  0.12603881024E+03  0.12500861624E+03 0.  0.
    9000005    1    3    3    0    0 -0.25744905813E+02  0.46654806310E+02 -0.24882670529E+02  0.58818521061E+02  0.10000000000E+01 0.  0.
    9000005    1    3    3    0    0  0.25744905813E+02 -0.46654806310E+02  0.40964571885E+02  0.67220289176E+02  0.10000000000E+01 0.  0.
<mgrwt>
<rscale>  0 0.12500862E+03</rscale>
<asrwt>0</asrwt>
<pdfrwt beam="2">  1        4 0.13744614E-01 0.12500862E+03</pdfrwt>
<pdfrwt beam="1">  1       -4 0.17765089E-01 0.12500862E+03</pdfrwt>
<totfact> 0.19774837E+03</totfact>
</mgrwt>
</event>
<event>
 5    1  0.1446384E-002  0.1250019E+03  0.7818608E-02  0.1235066E+00
         -4   -1    0    0    0  501 -0.00000000000E+00  0.00000000000E+00  0.46864481346E+02  0.46881686316E+02  0.12700000000E+01 0.  1.
          4   -1    0    0  501    0  0.00000000000E+00 -0.00000000000E+00 -0.83317209699E+02  0.83326888410E+02  0.12700000000E+01 0.  1.
         25    2    1    2    0    0  0.00000000000E+00  0.00000000000E+00 -0.36452728353E+02  0.13020857473E+03  0.12500188610E+03 0.  0.
    9000005    1    3    3    0    0 -0.44102659694E+02  0.29041029308E+02 -0.53039112625E+02  0.74850340302E+02  0.10000000000E+01 0.  0.
    9000005    1    3    3    0    0  0.44102659694E+02 -0.29041029308E+02  0.16586384272E+02  0.55358234424E+02  0.10000000000E+01 0.  0.
<mgrwt>
<rscale>  0 0.12500189E+03</rscale>
<asrwt>0</asrwt>
<pdfrwt beam="2">  1        4 0.20832663E-01 0.12500189E+03</pdfrwt>
<pdfrwt beam="1">  1       -4 0.11719481E-01 0.12500189E+03</pdfrwt>
<totfact> 0.19552316E+03</totfact>
</mgrwt>
</event>
<event>
 5    1  0.1446384E-002  0.1249955E+03  0.7818608E-02  0.1235076E+00
         -4   -1    0    0    0  501 -0.00000000000E+00  0.00000000000E+00  0.81050607926E+01  0.82039569996E+01  0.12700000000E+01 0.  1.
          4   -1    0    0  501    0  0.00000000000E+00 -0.00000000000E+00 -0.47889554284E+03  0.47889722682E+03  0.12700000000E+01 0.  1.
         25    2    1    2    0    0  0.00000000000E+00  0.00000000000E+00 -0.47079048205E+03  0.48710118382E+03  0.12499554107E+03 0.  0.
    9000005    1    3    3    0    0 -0.18390339906E+02 -0.58296338520E+02 -0.28595109056E+03  0.29241356651E+03  0.10000000000E+01 0.  0.
    9000005    1    3    3    0    0  0.18390339906E+02  0.58296338520E+02 -0.18483939149E+03  0.19468761731E+03  0.10000000000E+01 0.  0.
<mgrwt>
<rscale>  0 0.12499554E+03</rscale>
<asrwt>0</asrwt>
<pdfrwt beam="2">  1        4 0.11973636E+00 0.12499554E+03</pdfrwt>
<pdfrwt beam="1">  1       -4 0.20388393E-02 0.12499554E+03</pdfrwt>
<totfact> 0.89703481E+02</totfact>
</mgrwt>
</event>
<event>
 5    1  0.1446384E-002  0.1250029E+03  0.7818608E-02  0.1235065E+00
         -4   -1    0    0    0  501 -0.00000000000E+00  0.00000000000E+00  0.22765887725E+03  0.22766241958E+03  0.12700000000E+01 0.  1.
          4   -1    0    0  501    0  0.00000000000E+00 -0.00000000000E+00 -0.17131970415E+02  0.17178978733E+02  0.12700000000E+01 0.  1.
         25    2    1    2    0    0  0.00000000000E+00  0.00000000000E+00  0.21052690684E+03  0.24484139832E+03  0.12500292728E+03 0.  0.
    9000005    1    3    3    0    0 -0.21747428257E+02  0.42412629971E+02  0.18443047896E+03  0.19049247593E+03  0.10000000000E+01 0.  0.
    9000005    1    3    3    0    0  0.21747428257E+02 -0.42412629971E+02  0.26096427881E+02  0.54348922391E+02  0.10000000000E+01 0.  0.
<mgrwt>
<rscale>  0 0.12500293E+03</rscale>
<asrwt>0</asrwt>
<pdfrwt beam="2">  1        4 0.42893115E-02 0.12500293E+03</pdfrwt>
<pdfrwt beam="1">  1       -4 0.56921037E-01 0.12500293E+03</pdfrwt>
<totfact> 0.14670116E+03</totfact>
</mgrwt>
</event>
<event>
 5    1  0.1446384E-002  0.1249993E+03  0.7818608E-02  0.1235070E+00
          4   -1    0    0  501    0  0.00000000000E+00  0.00000000000E+00  0.23731908636E+02  0.23765866016E+02  0.12700000000E+01 0.  1.
         -4   -1    0    0    0  501 -0.00000000000E+00 -0.00000000000E+00 -0.16444305226E+03  0.16444795632E+03  0.12700000000E+01 0.  1.
         25    2    1    2    0    0  0.00000000000E+00  0.00000000000E+00 -0.14071114363E+03  0.18821382233E+03  0.12499926791E+03 0.  0.
    9000005    1    3    3    0    0 -0.16968208126E+02  0.19962982106E+02 -0.15578127833E+03  0.15797229953E+03  0.10000000000E+01 0.  0.
    9000005    1    3    3    0    0  0.16968208126E+02 -0.19962982106E+02  0.15070134702E+02  0.30241522804E+02  0.10000000000E+01 0.  0.
<mgrwt>
<rscale>  0 0.12499927E+03</rscale>
<asrwt>0</asrwt>
<pdfrwt beam="1">  1        4 0.59378353E-02 0.12499927E+03</pdfrwt>
<pdfrwt beam="2">  1       -4 0.41115617E-01 0.12499927E+03</pdfrwt>
<totfact> 0.16805402E+03</totfact>
</mgrwt>
</event>
<event>
 5    1  0.1446384E-002  0.1249989E+03  0.7818608E-02  0.1235071E+00
          4   -1    0    0  501    0  0.00000000000E+00  0.00000000000E+00  0.56940576297E+02  0.56954737547E+02  0.12700000000E+01 0. -1.
         -4   -1    0    0    0  501 -0.00000000000E+00 -0.00000000000E+00 -0.68572428916E+02  0.68584188466E+02  0.12700000000E+01 0. -1.
         25    2    1    2    0    0  0.00000000000E+00  0.00000000000E+00 -0.11631852620E+02  0.12553892601E+03  0.12499888779E+03 0.  0.
    9000005    1    3    3    0    0  0.83015717767E+01 -0.60160255307E+02  0.89789114517E+01  0.61398642195E+02  0.10000000000E+01 0.  0.
    9000005    1    3    3    0    0 -0.83015717767E+01  0.60160255307E+02 -0.20610764072E+02  0.64140283817E+02  0.10000000000E+01 0.  0.
<mgrwt>
<rscale>  0 0.12499889E+03</rscale>
<asrwt>0</asrwt>
<pdfrwt beam="1">  1        4 0.14238384E-01 0.12499889E+03</pdfrwt>
<pdfrwt beam="2">  1       -4 0.17146347E-01 0.12499889E+03</pdfrwt>
<totfact> 0.19806372E+03</totfact>
</mgrwt>
</event>
<event>
 5    1  0.1446384E-002  0.1250014E+03  0.7818608E-02  0.1235067E+00
          4   -1    0    0  501    0  0.00000000000E+00  0.00000000000E+00  0.54431649008E+02  0.54446462821E+02  0.12700000000E+01 0.  1.
         -4   -1    0    0    0  501 -0.00000000000E+00 -0.00000000000E+00 -0.71735697798E+02  0.71746938879E+02  0.12700000000E+01 0.  1.
         25    2    1    2    0    0  0.00000000000E+00  0.00000000000E+00 -0.17304048790E+02  0.12619340170E+03  0.12500137811E+03 0.  0.
    9000005    1    3    3    0    0  0.39584452418E+02 -0.29009611139E+02  0.30406060651E+02  0.57740929470E+02  0.10000000000E+01 0.  0.
    9000005    1    3    3    0    0 -0.39584452418E+02  0.29009611139E+02 -0.47710109441E+02  0.68452472231E+02  0.10000000000E+01 0.  0.
<mgrwt>
<rscale>  0 0.12500138E+03</rscale>
<asrwt>0</asrwt>
<pdfrwt beam="1">  1        4 0.13611169E-01 0.12500138E+03</pdfrwt>
<pdfrwt beam="2">  1       -4 0.17937181E-01 0.12500138E+03</pdfrwt>
<totfact> 0.19769835E+03</totfact>
</mgrwt>
</event>
<event>
 5    1  0.1446384E-002  0.1250014E+03  0.7818608E-02  0.1235067E+00
         -4   -1    0    0    0  501 -0.00000000000E+00  0.00000000000E+00  0.32547765298E+03  0.32548013072E+03  0.12700000000E+01 0. -1.
          4   -1    0    0  501    0  0.00000000000E+00 -0.00000000000E+00 -0.11965738011E+02  0.12032945863E+02  0.12700000000E+01 0. -1.
         25    2    1    2    0    0  0.00000000000E+00  0.00000000000E+00  0.31351191497E+03  0.33751307658E+03  0.12500142412E+03 0.  0.
    9000005    1    3    3    0    0  0.14635454570E+02 -0.30848596267E+02  0.29807862207E+03  0.30002949415E+03  0.10000000000E+01 0.  0.
    9000005    1    3    3    0    0 -0.14635454570E+02  0.30848596267E+02  0.15433292899E+02  0.37483582430E+02  0.10000000000E+01 0.  0.
<mgrwt>
<rscale>  0 0.12500142E+03</rscale>
<asrwt>0</asrwt>
<pdfrwt beam="2">  1        4 0.30001453E-02 0.12500142E+03</pdfrwt>
<pdfrwt beam="1">  1       -4 0.81378122E-01 0.12500142E+03</pdfrwt>
<totfact> 0.11980815E+03</totfact>
</mgrwt>
</event>
<event>
 5    1  0.1446384E-002  0.1249992E+03  0.7818608E-02  0.1235071E+00
          4   -1    0    0  501    0  0.00000000000E+00  0.00000000000E+00  0.32961857664E+02  0.32986314748E+02  0.12700000000E+01 0. -1.
         -4   -1    0    0    0  501 -0.00000000000E+00 -0.00000000000E+00 -0.11843479154E+03  0.11844160058E+03  0.12700000000E+01 0. -1.
         25    2    1    2    0    0  0.00000000000E+00  0.00000000000E+00 -0.85472933876E+02  0.15142791532E+03  0.12499916445E+03 0.  0.
    9000005    1    3    3    0    0 -0.34386458332E+02  0.15415712952E+02 -0.10312756936E+03  0.10980149491E+03  0.10000000000E+01 0.  0.
    9000005    1    3    3    0    0  0.34386458332E+02 -0.15415712952E+02  0.17654635484E+02  0.41626420414E+02  0.10000000000E+01 0.  0.
<mgrwt>
<rscale>  0 0.12499916E+03</rscale>
<asrwt>0</asrwt>
<pdfrwt beam="1">  1        4 0.82443730E-02 0.12499916E+03</pdfrwt>
<pdfrwt beam="2">  1       -4 0.29612605E-01 0.12499916E+03</pdfrwt>
<totfact> 0.18469152E+03</totfact>
</mgrwt>
</event>
<event>
 5    1  0.1446384E-002  0.1249991E+03  0.7818608E-02  0.1235071E+00
          4   -1    0    0  501    0  0.00000000000E+00  0.00000000000E+00  0.10364216481E+03  0.10364994562E+03  0.12700000000E+01 0. -1.
         -4   -1    0    0    0  501 -0.00000000000E+00 -0.00000000000E+00 -0.37669325596E+02  0.37690728182E+02  0.12700000000E+01 0. -1.
         25    2    1    2    0    0  0.00000000000E+00  0.00000000000E+00  0.65972839212E+02  0.14134067380E+03  0.12499908222E+03 0.  0.
    9000005    1    3    3    0    0  0.30420559032E+02 -0.41797993355E+02 -0.67136061779E+01  0.52139765710E+02  0.10000000000E+01 0.  0.
    9000005    1    3    3    0    0 -0.30420559032E+02  0.41797993355E+02  0.72686445390E+02  0.89200908088E+02  0.10000000000E+01 0.  0.
<mgrwt>
<rscale>  0 0.12499908E+03</rscale>
<asrwt>0</asrwt>
<pdfrwt beam="1">  1        4 0.25914189E-01 0.12499908E+03</pdfrwt>
<pdfrwt beam="2">  1       -4 0.94209794E-02 0.12499908E+03</pdfrwt>
<totfact> 0.18972370E+03</totfact>
</mgrwt>
</event>
<event>
 5    1  0.1446384E-002  0.1250000E+03  0.7818608E-02  0.1235069E+00
          4   -1    0    0  501    0  0.00000000000E+00  0.00000000000E+00  0.35380945655E+01  0.37591239876E+01  0.12700000000E+01 0. -1.
         -4   -1    0    0    0  501 -0.00000000000E+00 -0.00000000000E+00 -0.10703920105E+04  0.10703927639E+04  0.12700000000E+01 0. -1.
         25    2    1    2    0    0  0.00000000000E+00  0.00000000000E+00 -0.10668539159E+04  0.10741518879E+04  0.12500000136E+03 0.  0.
    9000005    1    3    3    0    0 -0.40107747820E+02  0.39873132851E+02 -0.30497800135E+03  0.31017910869E+03  0.10000000000E+01 0.  0.
    9000005    1    3    3    0    0  0.40107747820E+02 -0.39873132851E+02 -0.76187591457E+03  0.76397277920E+03  0.10000000000E+01 0.  0.
<mgrwt>
<rscale>  0 0.12500000E+03</rscale>
<asrwt>0</asrwt>
<pdfrwt beam="1">  1        4 0.91225016E-03 0.12500000E+03</pdfrwt>
<pdfrwt beam="2">  1       -4 0.26762465E+00 0.12500000E+03</pdfrwt>
<totfact> 0.32344530E+02</totfact>
</mgrwt>
</event>
<event>
 5    1  0.1446384E-002  0.1249974E+03  0.7818608E-02  0.1235073E+00
          4   -1    0    0  501    0  0.00000000000E+00  0.00000000000E+00  0.92742914250E+02  0.92751609385E+02  0.12700000000E+01 0.  1.
         -4   -1    0    0    0  501 -0.00000000000E+00 -0.00000000000E+00 -0.42097127096E+02  0.42116279629E+02  0.12700000000E+01 0.  1.
         25    2    1    2    0    0  0.00000000000E+00  0.00000000000E+00  0.50645787154E+02  0.13486788901E+03  0.12499740690E+03 0.  0.
    9000005    1    3    3    0    0 -0.28765415091E+02  0.46392621106E+02  0.58144795769E+02  0.79759273275E+02  0.10000000000E+01 0.  0.
    9000005    1    3    3    0    0  0.28765415091E+02 -0.46392621106E+02 -0.74990086147E+01  0.55108615739E+02  0.10000000000E+01 0.  0.
<mgrwt>
<rscale>  0 0.12499741E+03</rscale>
<asrwt>0</asrwt>
<pdfrwt beam="1">  1        4 0.23189209E-01 0.12499741E+03</pdfrwt>
<pdfrwt beam="2">  1       -4 0.10527763E-01 0.12499741E+03</pdfrwt>
<totfact> 0.19307227E+03</totfact>
</mgrwt>
</event>
<event>
 5    1  0.1446384E-002  0.1249979E+03  0.7818608E-02  0.1235073E+00
          4   -1    0    0  501    0  0.00000000000E+00  0.00000000000E+00  0.16348489235E+02  0.16397743755E+02  0.12700000000E+01 0.  1.
         -4   -1    0    0    0  501 -0.00000000000E+00 -0.00000000000E+00 -0.23851797188E+03  0.23852135295E+03  0.12700000000E+01 0.  1.
         25    2    1    2    0    0  0.00000000000E+00  0.00000000000E+00 -0.22216948265E+03  0.25491909670E+03  0.12499786735E+03 0.  0.
    9000005    1    3    3    0    0 -0.38024704140E+02 -0.49563985216E+02 -0.10776488694E+03  0.12456619771E+03  0.10000000000E+01 0.  0.
    9000005    1    3    3    0    0  0.38024704140E+02  0.49563985216E+02 -0.11440459571E+03  0.13035289899E+03  0.10000000000E+01 0.  0.
<mgrwt>
<rscale>  0 0.12499787E+03</rscale>
<asrwt>0</asrwt>
<pdfrwt beam="1">  1        4 0.40937025E-02 0.12499787E+03</pdfrwt>
<pdfrwt beam="2">  1       -4 0.59636061E-01 0.12499787E+03</pdfrwt>
<totfact> 0.14336474E+03</totfact>
</mgrwt>
</event>
<event>
 5    1  0.1446384E-002  0.1249959E+03  0.7818608E-02  0.1235076E+00
         -4   -1    0    0    0  501 -0.00000000000E+00  0.00000000000E+00  0.77116922284E+03  0.77117026859E+03  0.12700000000E+01 0. -1.
          4   -1    0    0  501    0  0.00000000000E+00 -0.00000000000E+00 -0.49843521948E+01  0.51436044562E+01  0.12700000000E+01 0. -1.
         25    2    1    2    0    0  0.00000000000E+00  0.00000000000E+00  0.76618487065E+03  0.77631387305E+03  0.12499589384E+03 0.  0.
    9000005    1    3    3    0    0 -0.35018895437E+02  0.51740773182E+02  0.39085638077E+03  0.39581958142E+03  0.10000000000E+01 0.  0.
    9000005    1    3    3    0    0  0.35018895437E+02 -0.51740773182E+02  0.37532848987E+03  0.38049429162E+03  0.10000000000E+01 0.  0.
<mgrwt>
<rscale>  0 0.12499589E+03</rscale>
<asrwt>0</asrwt>
<pdfrwt beam="2">  1        4 0.12661252E-02 0.12499589E+03</pdfrwt>
<pdfrwt beam="1">  1       -4 0.19281236E+00 0.12499589E+03</pdfrwt>
<totfact> 0.54616287E+02</totfact>
</mgrwt>
</event>
<event>
 5    1  0.1446384E-002  0.1249975E+03  0.7818608E-02  0.1235073E+00
         -4   -1    0    0    0  501 -0.00000000000E+00  0.00000000000E+00  0.22069604660E+03  0.22069970069E+03  0.12700000000E+01 0.  1.
          4   -1    0    0  501    0  0.00000000000E+00 -0.00000000000E+00 -0.17672380967E+02  0.17717955555E+02  0.12700000000E+01 0.  1.
         25    2    1    2    0    0  0.00000000000E+00  0.00000000000E+00  0.20302366563E+03  0.23841765624E+03  0.12499747998E+03 0.  0.
    9000005    1    3    3    0    0  0.23875022490E+02  0.39133171438E+02  0.20506095107E+02  0.50228694411E+02  0.10000000000E+01 0.  0.
    9000005    1    3    3    0    0 -0.23875022490E+02 -0.39133171438E+02  0.18251757052E+03  0.18818896183E+03  0.10000000000E+01 0.  0.
<mgrwt>
<rscale>  0 0.12499748E+03</rscale>
<asrwt>0</asrwt>
<pdfrwt beam="2">  1        4 0.44242488E-02 0.12499748E+03</pdfrwt>
<pdfrwt beam="1">  1       -4 0.55180165E-01 0.12499748E+03</pdfrwt>
<totfact> 0.14891987E+03</totfact>
</mgrwt>
</event>
<event>
 5    1  0.1446384E-002  0.1249968E+03  0.7818608E-02  0.1235074E+00
          4   -1    0    0  501    0  0.00000000000E+00  0.00000000000E+00  0.64696292184E+02  0.64708756149E+02  0.12700000000E+01 0. -1.
         -4   -1    0    0    0  501 -0.00000000000E+00 -0.00000000000E+00 -0.60350230028E+02  0.60363591381E+02  0.12700000000E+01 0. -1.
         25    2    1    2    0    0  0.00000000000E+00  0.00000000000E+00  0.43460621559E+01  0.12507234753E+03  0.12499681540E+03 0.  0.
    9000005    1    3    3    0    0 -0.21509167198E+02 -0.41395989875E+02 -0.39430678513E+02  0.61090512023E+02  0.10000000000E+01 0.  0.
    9000005    1    3    3    0    0  0.21509167198E+02  0.41395989875E+02  0.43776740669E+02  0.63981835507E+02  0.10000000000E+01 0.  0.
<mgrwt>
<rscale>  0 0.12499682E+03</rscale>
<asrwt>0</asrwt>
<pdfrwt beam="1">  1        4 0.16177301E-01 0.12499682E+03</pdfrwt>
<pdfrwt beam="2">  1       -4 0.15090786E-01 0.12499682E+03</pdfrwt>
<totfact> 0.19832610E+03</totfact>
</mgrwt>
</event>
<event>
 5    1  0.1446384E-002  0.1250022E+03  0.7818608E-02  0.1235066E+00
          4   -1    0    0  501    0  0.00000000000E+00  0.00000000000E+00  0.11117528306E+03  0.11118253668E+03  0.12700000000E+01 0. -1.
         -4   -1    0    0    0  501 -0.00000000000E+00 -0.00000000000E+00 -0.35117310653E+02  0.35140267607E+02  0.12700000000E+01 0. -1.
         25    2    1    2    0    0  0.00000000000E+00  0.00000000000E+00  0.76057972406E+02  0.14632280429E+03  0.12500219154E+03 0.  0.
    9000005    1    3    3    0    0 -0.19958359406E+02  0.59213529959E+02  0.39081666865E+02  0.73708581083E+02  0.10000000000E+01 0.  0.
    9000005    1    3    3    0    0  0.19958359406E+02 -0.59213529959E+02  0.36976305540E+02  0.72614223206E+02  0.10000000000E+01 0.  0.
<mgrwt>
<rscale>  0 0.12500219E+03</rscale>
<asrwt>0</asrwt>
<pdfrwt beam="1">  1        4 0.27797597E-01 0.12500219E+03</pdfrwt>
<pdfrwt beam="2">  1       -4 0.87831041E-02 0.12500219E+03</pdfrwt>
<totfact> 0.18720124E+03</totfact>
</mgrwt>
</event>
<event>
 5    1  0.1446384E-002  0.1249975E+03  0.7818608E-02  0.1235073E+00
         -4   -1    0    0    0  501 -0.00000000000E+00  0.00000000000E+00  0.65117228474E+03  0.65117352319E+03  0.12700000000E+01 0.  1.
          4   -1    0    0  501    0  0.00000000000E+00 -0.00000000000E+00 -0.59300815387E+01  0.60645500291E+01  0.12700000000E+01 0.  1.
         25    2    1    2    0    0  0.00000000000E+00  0.00000000000E+00  0.64524220320E+03  0.65723807322E+03  0.12499753640E+03 0.  0.
    9000005    1    3    3    0    0 -0.18019018280E+02 -0.52057400635E+02  0.16749310174E+03  0.17632242374E+03  0.10000000000E+01 0.  0.
    9000005    1    3    3    0    0  0.18019018280E+02  0.52057400635E+02  0.47774910145E+03  0.48091564948E+03  0.10000000000E+01 0.  0.
<mgrwt>
<rscale>  0 0.12499754E+03</rscale>
<asrwt>0</asrwt>
<pdfrwt beam="2">  1        4 0.14994839E-02 0.12499754E+03</pdfrwt>
<pdfrwt beam="1">  1       -4 0.16281001E+00 0.12499754E+03</pdfrwt>
<totfact> 0.66692498E+02</totfact>
</mgrwt>
</event>
<event>
 5    1  0.1446384E-002  0.1249995E+03  0.7818608E-02  0.1235070E+00
         -4   -1    0    0    0  501 -0.00000000000E+00  0.00000000000E+00  0.58303302261E+02  0.58317132599E+02  0.12700000000E+01 0.  1.
          4   -1    0    0  501    0  0.00000000000E+00 -0.00000000000E+00 -0.66970440123E+02  0.66982480921E+02  0.12700000000E+01 0.  1.
         25    2    1    2    0    0  0.00000000000E+00  0.00000000000E+00 -0.86671378621E+01  0.12529961352E+03  0.12499949548E+03 0.  0.
    9000005    1    3    3    0    0 -0.45801369442E+02 -0.39191960711E+02  0.12181522664E+02  0.61507436311E+02  0.10000000000E+01 0.  0.
    9000005    1    3    3    0    0  0.45801369442E+02  0.39191960711E+02 -0.20848660526E+02  0.63792177208E+02  0.10000000000E+01 0.  0.
<mgrwt>
<rscale>  0 0.12499950E+03</rscale>
<asrwt>0</asrwt>
<pdfrwt beam="2">  1        4 0.16745844E-01 0.12499950E+03</pdfrwt>
<pdfrwt beam="1">  1       -4 0.14579059E-01 0.12499950E+03</pdfrwt>
<totfact> 0.19819049E+03</totfact>
</mgrwt>
</event>
<event>
 5    1  0.1446384E-002  0.1249877E+03  0.7818608E-02  0.1235089E+00
         -4   -1    0    0    0  501 -0.00000000000E+00  0.00000000000E+00  0.57353701233E+02  0.57367760503E+02  0.12700000000E+01 0. -1.
          4   -1    0    0  501    0  0.00000000000E+00 -0.00000000000E+00 -0.68066333553E+02  0.68078180523E+02  0.12700000000E+01 0. -1.
         25    2    1    2    0    0  0.00000000000E+00  0.00000000000E+00 -0.10712632320E+02  0.12544594103E+03  0.12498769391E+03 0.  0.
    9000005    1    3    3    0    0 -0.37226759826E+02  0.49576775775E+02 -0.13181861069E+02  0.63391243912E+02  0.10000000000E+01 0.  0.
    9000005    1    3    3    0    0  0.37226759826E+02 -0.49576775775E+02  0.24692287494E+01  0.62054697115E+02  0.10000000000E+01 0.  0.
<mgrwt>
<rscale>  0 0.12498769E+03</rscale>
<asrwt>0</asrwt>
<pdfrwt beam="2">  1        4 0.17019822E-01 0.12498769E+03</pdfrwt>
<pdfrwt beam="1">  1       -4 0.14341664E-01 0.12498769E+03</pdfrwt>
<totfact> 0.19816595E+03</totfact>
</mgrwt>
</event>
<event>
 5    1  0.1446384E-002  0.1249999E+03  0.7818608E-02  0.1235069E+00
          4   -1    0    0  501    0  0.00000000000E+00  0.00000000000E+00  0.26241728677E+02  0.26272442292E+02  0.12700000000E+01 0. -1.
         -4   -1    0    0    0  501 -0.00000000000E+00 -0.00000000000E+00 -0.14873580215E+03  0.14874122408E+03  0.12700000000E+01 0. -1.
         25    2    1    2    0    0  0.00000000000E+00  0.00000000000E+00 -0.12249407347E+03  0.17501366637E+03  0.12499994152E+03 0.  0.
    9000005    1    3    3    0    0  0.13918387279E+02  0.35701300852E+02  0.78699420029E+01  0.39131066611E+02  0.10000000000E+01 0.  0.
    9000005    1    3    3    0    0 -0.13918387279E+02 -0.35701300852E+02 -0.13036401547E+03  0.13588259976E+03  0.10000000000E+01 0.  0.
<mgrwt>
<rscale>  0 0.12499994E+03</rscale>
<asrwt>0</asrwt>
<pdfrwt beam="1">  1        4 0.65649495E-02 0.12499994E+03</pdfrwt>
<pdfrwt beam="2">  1       -4 0.37188465E-01 0.12499994E+03</pdfrwt>
<totfact> 0.17373276E+03</totfact>
</mgrwt>
</event>
<event>
 5    1  0.1446384E-002  0.1250008E+03  0.7818608E-02  0.1235068E+00
          4   -1    0    0  501    0  0.00000000000E+00  0.00000000000E+00  0.11189261153E+02  0.11261104082E+02  0.12700000000E+01 0.  1.
         -4   -1    0    0    0  501 -0.00000000000E+00 -0.00000000000E+00 -0.34792141910E+03  0.34792373700E+03  0.12700000000E+01 0.  1.
         25    2    1    2    0    0  0.00000000000E+00  0.00000000000E+00 -0.33673215795E+03  0.35918484109E+03  0.12500081547E+03 0.  0.
    9000005    1    3    3    0    0 -0.12443238701E+02 -0.56226991707E+02 -0.98629615691E+02  0.11421519110E+03  0.10000000000E+01 0.  0.
    9000005    1    3    3    0    0  0.12443238701E+02  0.56226991707E+02 -0.23810254226E+03  0.24496964999E+03  0.10000000000E+01 0.  0.
<mgrwt>
<rscale>  0 0.12500082E+03</rscale>
<asrwt>0</asrwt>
<pdfrwt beam="1">  1        4 0.28065865E-02 0.12500082E+03</pdfrwt>
<pdfrwt beam="2">  1       -4 0.86989589E-01 0.12500082E+03</pdfrwt>
<totfact> 0.11461071E+03</totfact>
</mgrwt>
</event>
<event>
 5    1  0.1446384E-002  0.1249988E+03  0.7818608E-02  0.1235071E+00
         -4   -1    0    0    0  501 -0.00000000000E+00  0.00000000000E+00  0.47909736109E+02  0.47926565848E+02  0.12700000000E+01 0.  1.
          4   -1    0    0  501    0  0.00000000000E+00 -0.00000000000E+00 -0.81495894713E+02  0.81505789703E+02  0.12700000000E+01 0.  1.
         25    2    1    2    0    0  0.00000000000E+00  0.00000000000E+00 -0.33586158604E+02  0.12943235555E+03  0.12499881845E+03 0.  0.
    9000005    1    3    3    0    0 -0.28389887956E+00 -0.49262686571E+01  0.47712772263E+02  0.47977675626E+02  0.10000000000E+01 0.  0.
    9000005    1    3    3    0    0  0.28389887956E+00  0.49262686571E+01 -0.81298930867E+02  0.81454679925E+02  0.10000000000E+01 0.  0.
<mgrwt>
<rscale>  0 0.12499882E+03</rscale>
<asrwt>0</asrwt>
<pdfrwt beam="2">  1        4 0.20377314E-01 0.12499882E+03</pdfrwt>
<pdfrwt beam="1">  1       -4 0.11980775E-01 0.12499882E+03</pdfrwt>
<totfact> 0.19595488E+03</totfact>
</mgrwt>
</event>
<event>
 5    1  0.1446384E-002  0.1249981E+03  0.7818608E-02  0.1235072E+00
         -4   -1    0    0    0  501 -0.00000000000E+00  0.00000000000E+00  0.37598025616E+02  0.37619468765E+02  0.12700000000E+01 0. -1.
          4   -1    0    0  501    0  0.00000000000E+00 -0.00000000000E+00 -0.10383697736E+03  0.10384474357E+03  0.12700000000E+01 0. -1.
         25    2    1    2    0    0  0.00000000000E+00  0.00000000000E+00 -0.66238951745E+02  0.14146421234E+03  0.12499809856E+03 0.  0.
    9000005    1    3    3    0    0 -0.38780503197E+02 -0.48762083366E+02 -0.38601419505E+02  0.73298961727E+02  0.10000000000E+01 0.  0.
    9000005    1    3    3    0    0  0.38780503197E+02  0.48762083366E+02 -0.27637532240E+02  0.68165250610E+02  0.10000000000E+01 0.  0.
<mgrwt>
<rscale>  0 0.12499810E+03</rscale>
<asrwt>0</asrwt>
<pdfrwt beam="2">  1        4 0.25962895E-01 0.12499810E+03</pdfrwt>
<pdfrwt beam="1">  1       -4 0.94031578E-02 0.12499810E+03</pdfrwt>
<totfact> 0.18966525E+03</totfact>
</mgrwt>
</event>
<event>
 5    1  0.1446384E-002  0.1249991E+03  0.7818608E-02  0.1235071E+00
         -4   -1    0    0    0  501 -0.00000000000E+00  0.00000000000E+00  0.10728601663E+02  0.10803508395E+02  0.12700000000E+01 0.  1.
          4   -1    0    0  501    0  0.00000000000E+00 -0.00000000000E+00 -0.36274893112E+03  0.36275115428E+03  0.12700000000E+01 0.  1.
         25    2    1    2    0    0  0.00000000000E+00  0.00000000000E+00 -0.35202032946E+03  0.37355466267E+03  0.12499909461E+03 0.  0.
    9000005    1    3    3    0    0 -0.23570793116E+01 -0.30053235094E+02 -0.12422657593E+02  0.32620165299E+02  0.10000000000E+01 0.  0.
    9000005    1    3    3    0    0  0.23570793116E+01  0.30053235094E+02 -0.33959767186E+03  0.34093449737E+03  0.10000000000E+01 0.  0.
<mgrwt>
<rscale>  0 0.12499909E+03</rscale>
<asrwt>0</asrwt>
<pdfrwt beam="2">  1        4 0.90696833E-01 0.12499909E+03</pdfrwt>
<pdfrwt beam="1">  1       -4 0.26917929E-02 0.12499909E+03</pdfrwt>
<totfact> 0.11135247E+03</totfact>
</mgrwt>
</event>
<event>
 5    1  0.1446384E-002  0.1249951E+03  0.7818608E-02  0.1235077E+00
         -4   -1    0    0    0  501 -0.00000000000E+00  0.00000000000E+00  0.17449289802E+02  0.17495445538E+02  0.12700000000E+01 0.  1.
          4   -1    0    0  501    0  0.00000000000E+00 -0.00000000000E+00 -0.22350166196E+03  0.22350527019E+03  0.12700000000E+01 0.  1.
         25    2    1    2    0    0  0.00000000000E+00  0.00000000000E+00 -0.20605237216E+03  0.24100071572E+03  0.12499505952E+03 0.  0.
    9000005    1    3    3    0    0  0.45709961633E+00 -0.34236259864E+02 -0.20381547347E+03  0.20667384367E+03  0.10000000000E+01 0.  0.
    9000005    1    3    3    0    0 -0.45709961633E+00  0.34236259864E+02 -0.22368986923E+01  0.34326872058E+02  0.10000000000E+01 0.  0.
<mgrwt>
<rscale>  0 0.12499506E+03</rscale>
<asrwt>0</asrwt>
<pdfrwt beam="2">  1        4 0.55881627E-01 0.12499506E+03</pdfrwt>
<pdfrwt beam="1">  1       -4 0.43685436E-02 0.12499506E+03</pdfrwt>
<totfact> 0.14803723E+03</totfact>
</mgrwt>
</event>
<event>
 5    1  0.1446384E-002  0.1250001E+03  0.7818608E-02  0.1235069E+00
          4   -1    0    0  501    0  0.00000000000E+00  0.00000000000E+00  0.26429436976E+03  0.26429742107E+03  0.12700000000E+01 0.  1.
         -4   -1    0    0    0  501 -0.00000000000E+00 -0.00000000000E+00 -0.14749519603E+02  0.14804094991E+02  0.12700000000E+01 0.  1.
         25    2    1    2    0    0  0.00000000000E+00  0.00000000000E+00  0.24954485016E+03  0.27910151607E+03  0.12500009612E+03 0.  0.
    9000005    1    3    3    0    0 -0.80034932328E+01  0.40538984603E+02  0.22944792102E+03  0.23314118820E+03  0.10000000000E+01 0.  0.
    9000005    1    3    3    0    0  0.80034932328E+01 -0.40538984603E+02  0.20096929139E+02  0.45960327864E+02  0.10000000000E+01 0.  0.
<mgrwt>
<rscale>  0 0.12500010E+03</rscale>
<asrwt>0</asrwt>
<pdfrwt beam="1">  1        4 0.66080798E-01 0.12500010E+03</pdfrwt>
<pdfrwt beam="2">  1       -4 0.36945831E-02 0.12500010E+03</pdfrwt>
<totfact> 0.13577642E+03</totfact>
</mgrwt>
</event>
<event>
 5    1  0.1446384E-002  0.1250002E+03  0.7818608E-02  0.1235069E+00
         -4   -1    0    0    0  501 -0.00000000000E+00  0.00000000000E+00  0.79233400886E+02  0.79243578389E+02  0.12700000000E+01 0.  1.
          4   -1    0    0  501    0  0.00000000000E+00 -0.00000000000E+00 -0.49279179936E+02  0.49295542143E+02  0.12700000000E+01 0.  1.
         25    2    1    2    0    0  0.00000000000E+00  0.00000000000E+00  0.29954220950E+02  0.12853912053E+03  0.12500020062E+03 0.  0.
    9000005    1    3    3    0    0 -0.26547332369E+02 -0.22067362553E+02 -0.38589255391E+02  0.51786677607E+02  0.10000000000E+01 0.  0.
    9000005    1    3    3    0    0  0.26547332369E+02  0.22067362553E+02  0.68543476341E+02  0.76752442925E+02  0.10000000000E+01 0.  0.
<mgrwt>
<rscale>  0 0.12500020E+03</rscale>
<asrwt>0</asrwt>
<pdfrwt beam="2">  1        4 0.12323113E-01 0.12500020E+03</pdfrwt>
<pdfrwt beam="1">  1       -4 0.19811667E-01 0.12500020E+03</pdfrwt>
<totfact> 0.19643159E+03</totfact>
</mgrwt>
</event>
<event>
 5    1  0.1446384E-002  0.1250005E+03  0.7818608E-02  0.1235068E+00
          4   -1    0    0  501    0  0.00000000000E+00  0.00000000000E+00  0.35509187508E+03  0.35509414617E+03  0.12700000000E+01 0.  1.
         -4   -1    0    0    0  501 -0.00000000000E+00 -0.00000000000E+00 -0.10961802058E+02  0.11035125933E+02  0.12700000000E+01 0.  1.
         25    2    1    2    0    0  0.00000000000E+00  0.00000000000E+00  0.34413007302E+03  0.36612927211E+03  0.12500054695E+03 0.  0.
    9000005    1    3    3    0    0  0.51368363134E+02  0.32928671365E+01  0.27585876251E+03  0.28062182480E+03  0.10000000000E+01 0.  0.
    9000005    1    3    3    0    0 -0.51368363134E+02 -0.32928671365E+01  0.68271310515E+02  0.85507447304E+02  0.10000000000E+01 0.  0.
<mgrwt>
<rscale>  0 0.12500055E+03</rscale>
<asrwt>0</asrwt>
<pdfrwt beam="1">  1        4 0.88782412E-01 0.12500055E+03</pdfrwt>
<pdfrwt beam="2">  1       -4 0.27499001E-02 0.12500055E+03</pdfrwt>
<totfact> 0.11301725E+03</totfact>
</mgrwt>
</event>
<event>
 5    1  0.1446384E-002  0.1250092E+03  0.7818608E-02  0.1235055E+00
          4   -1    0    0  501    0  0.00000000000E+00  0.00000000000E+00  0.49215535566E+01  0.50827737910E+01  0.12700000000E+01 0.  1.
         -4   -1    0    0    0  501 -0.00000000000E+00 -0.00000000000E+00 -0.78086583140E+03  0.78086686417E+03  0.12700000000E+01 0.  1.
         25    2    1    2    0    0  0.00000000000E+00  0.00000000000E+00 -0.77594427785E+03  0.78594963796E+03  0.12500924399E+03 0.  0.
    9000005    1    3    3    0    0  0.34098151687E+02 -0.65976958697E+01 -0.71463776984E+03  0.71548190447E+03  0.10000000000E+01 0.  0.
    9000005    1    3    3    0    0 -0.34098151687E+02  0.65976958697E+01 -0.61306508011E+02  0.70467733493E+02  0.10000000000E+01 0.  0.
<mgrwt>
<rscale>  0 0.12500924E+03</rscale>
<asrwt>0</asrwt>
<pdfrwt beam="1">  1        4 0.12506727E-02 0.12500924E+03</pdfrwt>
<pdfrwt beam="2">  1       -4 0.19523632E+00 0.12500924E+03</pdfrwt>
<totfact> 0.53722491E+02</totfact>
</mgrwt>
</event>
<event>
 5    1  0.1446384E-002  0.1249996E+03  0.7818608E-02  0.1235070E+00
          4   -1    0    0  501    0  0.00000000000E+00  0.00000000000E+00  0.18052070707E+04  0.18052075174E+04  0.12700000000E+01 0. -1.
         -4   -1    0    0    0  501 -0.00000000000E+00 -0.00000000000E+00 -0.19770357875E+01  0.23498022268E+01  0.12700000000E+01 0. -1.
         25    2    1    2    0    0  0.00000000000E+00  0.00000000000E+00  0.18032300349E+04  0.18075573196E+04  0.12499962021E+03 0.  0.
    9000005    1    3    3    0    0  0.14857677065E+02  0.59239767372E+02  0.71025188390E+03  0.71287364883E+03  0.10000000000E+01 0.  0.
    9000005    1    3    3    0    0 -0.14857677065E+02 -0.59239767372E+02  0.10929781510E+04  0.10946836708E+04  0.10000000000E+01 0.  0.
<mgrwt>
<rscale>  0 0.12499962E+03</rscale>
<asrwt>0</asrwt>
<pdfrwt beam="1">  1        4 0.45134887E+00 0.12499962E+03</pdfrwt>
<pdfrwt beam="2">  1       -4 0.54091005E-03 0.12499962E+03</pdfrwt>
<totfact> 0.50228100E+01</totfact>
</mgrwt>
</event>
<event>
 5    1  0.1446384E-002  0.1250016E+03  0.7818608E-02  0.1235067E+00
          4   -1    0    0  501    0  0.00000000000E+00  0.00000000000E+00  0.17883637297E+02  0.17928674880E+02  0.12700000000E+01 0.  1.
         -4   -1    0    0    0  501 -0.00000000000E+00 -0.00000000000E+00 -0.21811001555E+03  0.21811371296E+03  0.12700000000E+01 0.  1.
         25    2    1    2    0    0  0.00000000000E+00  0.00000000000E+00 -0.20022637825E+03  0.23604238784E+03  0.12500162523E+03 0.  0.
    9000005    1    3    3    0    0  0.33355218875E+02 -0.20113213470E+02 -0.19239440052E+03  0.19630006962E+03  0.10000000000E+01 0.  0.
    9000005    1    3    3    0    0 -0.33355218875E+02  0.20113213470E+02 -0.78319777306E+01  0.39742318220E+02  0.10000000000E+01 0.  0.
<mgrwt>
<rscale>  0 0.12500163E+03</rscale>
<asrwt>0</asrwt>
<pdfrwt beam="1">  1        4 0.44770019E-02 0.12500163E+03</pdfrwt>
<pdfrwt beam="2">  1       -4 0.54533587E-01 0.12500163E+03</pdfrwt>
<totfact> 0.14973221E+03</totfact>
</mgrwt>
</event>
<event>
 5    1  0.1446384E-002  0.1249883E+03  0.7818608E-02  0.1235088E+00
          4   -1    0    0  501    0  0.00000000000E+00  0.00000000000E+00  0.60073059418E+01  0.61400834423E+01  0.12700000000E+01 0.  1.
         -4   -1    0    0    0  501 -0.00000000000E+00 -0.00000000000E+00 -0.64288873882E+03  0.64288999324E+03  0.12700000000E+01 0.  1.
         25    2    1    2    0    0  0.00000000000E+00  0.00000000000E+00 -0.63688143288E+03  0.64903007668E+03  0.12498832300E+03 0.  0.
    9000005    1    3    3    0    0 -0.19944243932E+02  0.20679841762E+02 -0.60658279140E+03  0.60726362606E+03  0.10000000000E+01 0.  0.
    9000005    1    3    3    0    0  0.19944243932E+02 -0.20679841762E+02 -0.30298641486E+02  0.41766450618E+02  0.10000000000E+01 0.  0.
<mgrwt>
<rscale>  0 0.12498832E+03</rscale>
<asrwt>0</asrwt>
<pdfrwt beam="1">  1        4 0.15185827E-02 0.12498832E+03</pdfrwt>
<pdfrwt beam="2">  1       -4 0.16073871E+00 0.12498832E+03</pdfrwt>
<totfact> 0.67639962E+02</totfact>
</mgrwt>
</event>
<event>
 5    1  0.1446384E-002  0.1250002E+03  0.7818608E-02  0.1235069E+00
         -4   -1    0    0    0  501 -0.00000000000E+00  0.00000000000E+00  0.14066676877E+03  0.14067250171E+03  0.12700000000E+01 0. -1.
          4   -1    0    0  501    0  0.00000000000E+00 -0.00000000000E+00 -0.27748815108E+02  0.27777862407E+02  0.12700000000E+01 0. -1.
         25    2    1    2    0    0  0.00000000000E+00  0.00000000000E+00  0.11291795367E+03  0.16845036412E+03  0.12500024364E+03 0.  0.
    9000005    1    3    3    0    0 -0.29336542448E+02 -0.35944215449E+02  0.42211419628E-01  0.46407123686E+02  0.10000000000E+01 0.  0.
    9000005    1    3    3    0    0  0.29336542448E+02  0.35944215449E+02  0.11287574225E+03  0.12204324043E+03  0.10000000000E+01 0.  0.
<mgrwt>
<rscale>  0 0.12500024E+03</rscale>
<asrwt>0</asrwt>
<pdfrwt beam="2">  1        4 0.69415514E-02 0.12500024E+03</pdfrwt>
<pdfrwt beam="1">  1       -4 0.35171039E-01 0.12500024E+03</pdfrwt>
<totfact> 0.17667070E+03</totfact>
</mgrwt>
</event>
<event>
 5    1  0.1446384E-002  0.1249975E+03  0.7818608E-02  0.1235073E+00
         -4   -1    0    0    0  501 -0.00000000000E+00  0.00000000000E+00  0.17865071428E+03  0.17865522834E+03  0.12700000000E+01 0.  1.
          4   -1    0    0  501    0  0.00000000000E+00 -0.00000000000E+00 -0.21841174165E+02  0.21878066388E+02  0.12700000000E+01 0.  1.
         25    2    1    2    0    0  0.00000000000E+00  0.00000000000E+00  0.15680954012E+03  0.20053329473E+03  0.12499748167E+03 0.  0.
    9000005    1    3    3    0    0 -0.40848185049E+02 -0.12330962747E+02  0.51589902846E+01  0.42991185664E+02  0.10000000000E+01 0.  0.
    9000005    1    3    3    0    0  0.40848185049E+02  0.12330962747E+02  0.15165054983E+03  0.15754210907E+03  0.10000000000E+01 0.  0.
<mgrwt>
<rscale>  0 0.12499748E+03</rscale>
<asrwt>0</asrwt>
<pdfrwt beam="2">  1        4 0.54654695E-02 0.12499748E+03</pdfrwt>
<pdfrwt beam="1">  1       -4 0.44667853E-01 0.12499748E+03</pdfrwt>
<totfact> 0.16301659E+03</totfact>
</mgrwt>
</event>
<event>
 5    1  0.1446384E-002  0.1249984E+03  0.7818608E-02  0.1235072E+00
         -4   -1    0    0    0  501 -0.00000000000E+00  0.00000000000E+00  0.63505249360E+02  0.63517947040E+02  0.12700000000E+01 0. -1.
          4   -1    0    0  501    0  0.00000000000E+00 -0.00000000000E+00 -0.61483727887E+02  0.61496842967E+02  0.12700000000E+01 0. -1.
         25    2    1    2    0    0  0.00000000000E+00  0.00000000000E+00  0.20215214726E+01  0.12501479001E+03  0.12499844468E+03 0.  0.
    9000005    1    3    3    0    0 -0.17602805707E+02  0.59882052267E+02  0.40826181218E+01  0.62557067732E+02  0.10000000000E+01 0.  0.
    9000005    1    3    3    0    0  0.17602805707E+02 -0.59882052267E+02 -0.20610966493E+01  0.62457722276E+02  0.10000000000E+01 0.  0.
<mgrwt>
<rscale>  0 0.12499844E+03</rscale>
<asrwt>0</asrwt>
<pdfrwt beam="2">  1        4 0.15374159E-01 0.12499844E+03</pdfrwt>
<pdfrwt beam="1">  1       -4 0.15879539E-01 0.12499844E+03</pdfrwt>
<totfact> 0.19834975E+03</totfact>
</mgrwt>
</event>
<event>
 5    1  0.1446384E-002  0.1250010E+03  0.7818608E-02  0.1235068E+00
         -4   -1    0    0    0  501 -0.00000000000E+00  0.00000000000E+00  0.47703232642E+02  0.47720135210E+02  0.12700000000E+01 0. -1.
          4   -1    0    0  501    0  0.00000000000E+00 -0.00000000000E+00 -0.81851505626E+02  0.81861357631E+02  0.12700000000E+01 0. -1.
         25    2    1    2    0    0  0.00000000000E+00  0.00000000000E+00 -0.34148272985E+02  0.12958149284E+03  0.12500103495E+03 0.  0.
    9000005    1    3    3    0    0  0.20468961512E+02  0.41442375822E+02  0.26524891887E+02  0.53301208136E+02  0.10000000000E+01 0.  0.
    9000005    1    3    3    0    0 -0.20468961512E+02 -0.41442375822E+02 -0.60673164871E+02  0.76280284705E+02  0.10000000000E+01 0.  0.
<mgrwt>
<rscale>  0 0.12500103E+03</rscale>
<asrwt>0</asrwt>
<pdfrwt beam="2">  1        4 0.20466221E-01 0.12500103E+03</pdfrwt>
<pdfrwt beam="1">  1       -4 0.11929153E-01 0.12500103E+03</pdfrwt>
<totfact> 0.19586434E+03</totfact>
</mgrwt>
</event>
<event>
 5    1  0.1446384E-002  0.1250014E+03  0.7818608E-02  0.1235067E+00
          4   -1    0    0  501    0  0.00000000000E+00  0.00000000000E+00  0.15796030600E+03  0.15796541131E+03  0.12700000000E+01 0. -1.
         -4   -1    0    0    0  501 -0.00000000000E+00 -0.00000000000E+00 -0.24708045587E+02  0.24740663223E+02  0.12700000000E+01 0. -1.
         25    2    1    2    0    0  0.00000000000E+00  0.00000000000E+00  0.13325226041E+03  0.18270607454E+03  0.12500137906E+03 0.  0.
    9000005    1    3    3    0    0 -0.25321471987E+02  0.57129837529E+02  0.65772716795E+02  0.90730620819E+02  0.10000000000E+01 0.  0.
    9000005    1    3    3    0    0  0.25321471987E+02 -0.57129837529E+02  0.67479543617E+02  0.91975453716E+02  0.10000000000E+01 0.  0.
<mgrwt>
<rscale>  0 0.12500138E+03</rscale>
<asrwt>0</asrwt>
<pdfrwt beam="1">  1        4 0.39494791E-01 0.12500138E+03</pdfrwt>
<pdfrwt beam="2">  1       -4 0.61817269E-02 0.12500138E+03</pdfrwt>
<totfact> 0.17038173E+03</totfact>
</mgrwt>
</event>
<event>
 5    1  0.1446384E-002  0.1249995E+03  0.7818608E-02  0.1235070E+00
         -4   -1    0    0    0  501 -0.00000000000E+00  0.00000000000E+00  0.18773225859E+03  0.18773655429E+03  0.12700000000E+01 0.  1.
          4   -1    0    0  501    0  0.00000000000E+00 -0.00000000000E+00 -0.20783479267E+02  0.20822245566E+02  0.12700000000E+01 0.  1.
         25    2    1    2    0    0  0.00000000000E+00  0.00000000000E+00  0.16694877932E+03  0.20855879985E+03  0.12499951231E+03 0.  0.
    9000005    1    3    3    0    0  0.35680509428E+01  0.36750006669E+02  0.16759484464E+03  0.17161679966E+03  0.10000000000E+01 0.  0.
    9000005    1    3    3    0    0 -0.35680509428E+01 -0.36750006669E+02 -0.64606531305E+00  0.36942000190E+02  0.10000000000E+01 0.  0.
<mgrwt>
<rscale>  0 0.12499951E+03</rscale>
<asrwt>0</asrwt>
<pdfrwt beam="2">  1        4 0.52012526E-02 0.12499951E+03</pdfrwt>
<pdfrwt beam="1">  1       -4 0.46938447E-01 0.12499951E+03</pdfrwt>
<totfact> 0.15985156E+03</totfact>
</mgrwt>
</event>
<event>
 5    1  0.1446384E-002  0.1250024E+03  0.7818608E-02  0.1235066E+00
         -4   -1    0    0    0  501 -0.00000000000E+00  0.00000000000E+00  0.39975646189E+03  0.39975847924E+03  0.12700000000E+01 0.  1.
          4   -1    0    0  501    0  0.00000000000E+00 -0.00000000000E+00 -0.97286357097E+01  0.98111799888E+01  0.12700000000E+01 0.  1.
         25    2    1    2    0    0  0.00000000000E+00  0.00000000000E+00  0.39002782618E+03  0.40956965922E+03  0.12500240223E+03 0.  0.
    9000005    1    3    3    0    0 -0.32041280129E+01 -0.60368337246E+02  0.24690240800E+03  0.25419756422E+03  0.10000000000E+01 0.  0.
    9000005    1    3    3    0    0  0.32041280129E+01  0.60368337246E+02  0.14312541818E+03  0.15537209501E+03  0.10000000000E+01 0.  0.
<mgrwt>
<rscale>  0 0.12500240E+03</rscale>
<asrwt>0</asrwt>
<pdfrwt beam="2">  1        4 0.24427291E-02 0.12500240E+03</pdfrwt>
<pdfrwt beam="1">  1       -4 0.99949688E-01 0.12500240E+03</pdfrwt>
<totfact> 0.10374130E+03</totfact>
</mgrwt>
</event>
<event>
 4    1  0.1446384E-002  0.1248236E+03  0.7818608E-02  0.1235345E+00
         -4   -1    0    0    0  501 -0.00000000000E+00  0.00000000000E+00  0.17964524531E+02  0.18009359834E+02  0.12700000000E+01 0. -1.
          4   -1    0    0  501    0  0.00000000000E+00 -0.00000000000E+00 -0.21651221859E+03  0.21651594329E+03  0.12700000000E+01 0. -1.
    9000005    1    1    2    0    0 -0.39796299698E+02  0.27939743415E+02 -0.25785485078E+02  0.55047851661E+02  0.10000000000E+01 0.  0.
    9000005    1    1    2    0    0  0.39796299698E+02 -0.27939743415E+02 -0.17276220898E+03  0.17947745146E+03  0.10000000000E+01 0.  0.
<mgrwt>
<rscale>  0 0.12482360E+03</rscale>
<asrwt>0</asrwt>
<pdfrwt beam="2">  1        4 0.54134116E-01 0.12482360E+03</pdfrwt>
<pdfrwt beam="1">  1       -4 0.44972018E-02 0.12482360E+03</pdfrwt>
<totfact> 0.15088189E+03</totfact>
</mgrwt>
</event>
<event>
 5    1  0.1446384E-002  0.1249588E+03  0.7818608E-02  0.1235134E+00
          4   -1    0    0  501    0  0.00000000000E+00  0.00000000000E+00  0.79636350844E+02  0.79646476857E+02  0.12700000000E+01 0.  1.
         -4   -1    0    0    0  501 -0.00000000000E+00 -0.00000000000E+00 -0.48997323633E+02  0.49013779932E+02  0.12700000000E+01 0.  1.
         25    2    1    2    0    0  0.00000000000E+00  0.00000000000E+00  0.30639027212E+02  0.12866025679E+03  0.12495883998E+03 0.  0.
    9000005    1    3    3    0    0 -0.53628468410E+02  0.11525755646E+02 -0.15462924213E+02  0.56999628880E+02  0.10000000000E+01 0.  0.
    9000005    1    3    3    0    0  0.53628468410E+02 -0.11525755646E+02  0.46101951425E+02  0.71660627909E+02  0.10000000000E+01 0.  0.
<mgrwt>
<rscale>  0 0.12495884E+03</rscale>
<asrwt>0</asrwt>
<pdfrwt beam="1">  1        4 0.19912410E-01 0.12495884E+03</pdfrwt>
<pdfrwt beam="2">  1       -4 0.12252654E-01 0.12495884E+03</pdfrwt>
<totfact> 0.19655562E+03</totfact>
</mgrwt>
</event>
<event>
 5    1  0.1446384E-002  0.1249941E+03  0.7818608E-02  0.1235078E+00
          4   -1    0    0  501    0  0.00000000000E+00  0.00000000000E+00  0.13959924864E+03  0.13960502541E+03  0.12700000000E+01 0.  1.
         -4   -1    0    0    0  501 -0.00000000000E+00 -0.00000000000E+00 -0.27958485542E+02  0.27987315231E+02  0.12700000000E+01 0.  1.
         25    2    1    2    0    0  0.00000000000E+00  0.00000000000E+00  0.11164076309E+03  0.16759234064E+03  0.12499413049E+03 0.  0.
    9000005    1    3    3    0    0 -0.45748602105E+02 -0.13159658959E+01 -0.12262286053E+01  0.45794868680E+02  0.10000000000E+01 0.  0.
    9000005    1    3    3    0    0  0.45748602105E+02  0.13159658959E+01  0.11286699170E+03  0.12179747196E+03  0.10000000000E+01 0.  0.
<mgrwt>
<rscale>  0 0.12499413E+03</rscale>
<asrwt>0</asrwt>
<pdfrwt beam="1">  1        4 0.34904137E-01 0.12499413E+03</pdfrwt>
<pdfrwt beam="2">  1       -4 0.69939473E-02 0.12499413E+03</pdfrwt>
<totfact> 0.17708606E+03</totfact>
</mgrwt>
</event>
<event>
 5    1  0.1446384E-002  0.1249962E+03  0.7818608E-02  0.1235075E+00
         -4   -1    0    0    0  501 -0.00000000000E+00  0.00000000000E+00  0.12815463252E+02  0.12878237394E+02  0.12700000000E+01 0.  1.
          4   -1    0    0  501    0  0.00000000000E+00 -0.00000000000E+00 -0.30398019059E+03  0.30398284355E+03  0.12700000000E+01 0.  1.
         25    2    1    2    0    0  0.00000000000E+00  0.00000000000E+00 -0.29116472734E+03  0.31686108094E+03  0.12499618462E+03 0.  0.
    9000005    1    3    3    0    0 -0.56140437713E+01 -0.55495419767E+02 -0.74163213320E+02  0.92803239774E+02  0.10000000000E+01 0.  0.
    9000005    1    3    3    0    0  0.56140437713E+01  0.55495419767E+02 -0.21700151402E+03  0.22405784117E+03  0.10000000000E+01 0.  0.
<mgrwt>
<rscale>  0 0.12499618E+03</rscale>
<asrwt>0</asrwt>
<pdfrwt beam="2">  1        4 0.76003202E-01 0.12499618E+03</pdfrwt>
<pdfrwt beam="1">  1       -4 0.32120452E-02 0.12499618E+03</pdfrwt>
<totfact> 0.12512407E+03</totfact>
</mgrwt>
</event>
<event>
 5    1  0.1446384E-002  0.1249961E+03  0.7818608E-02  0.1235075E+00
          4   -1    0    0  501    0  0.00000000000E+00  0.00000000000E+00  0.19568962507E+01  0.23328829666E+01  0.12700000000E+01 0. -1.
         -4   -1    0    0    0  501 -0.00000000000E+00 -0.00000000000E+00 -0.18206998835E+04  0.18207003264E+04  0.12700000000E+01 0. -1.
         25    2    1    2    0    0  0.00000000000E+00  0.00000000000E+00 -0.18187429872E+04  0.18230332094E+04  0.12499611557E+03 0.  0.
    9000005    1    3    3    0    0  0.34367832270E+01  0.38247178035E+02 -0.16283772965E+04  0.16288303404E+04  0.10000000000E+01 0.  0.
    9000005    1    3    3    0    0 -0.34367832270E+01 -0.38247178035E+02 -0.19036569070E+03  0.19420286894E+03  0.10000000000E+01 0.  0.
<mgrwt>
<rscale>  0 0.12499612E+03</rscale>
<asrwt>0</asrwt>
<pdfrwt beam="1">  1        4 0.53628402E-03 0.12499612E+03</pdfrwt>
<pdfrwt beam="2">  1       -4 0.45521672E+00 0.12499612E+03</pdfrwt>
<totfact> 0.47721414E+01</totfact>
</mgrwt>
</event>
<event>
 5    1  0.1446384E-002  0.1250006E+03  0.7818608E-02  0.1235068E+00
          4   -1    0    0  501    0  0.00000000000E+00  0.00000000000E+00  0.30966397801E+03  0.30966658227E+03  0.12700000000E+01 0.  1.
         -4   -1    0    0    0  501 -0.00000000000E+00 -0.00000000000E+00 -0.12579973450E+02  0.12643916798E+02  0.12700000000E+01 0.  1.
         25    2    1    2    0    0  0.00000000000E+00  0.00000000000E+00  0.29708400456E+03  0.32231049907E+03  0.12500060819E+03 0.  0.
    9000005    1    3    3    0    0  0.92159819461E+01 -0.57100696298E+02  0.20955237303E+03  0.21739048020E+03  0.10000000000E+01 0.  0.
    9000005    1    3    3    0    0 -0.92159819461E+01  0.57100696298E+02  0.87531631530E+02  0.10492001887E+03  0.10000000000E+01 0.  0.
<mgrwt>
<rscale>  0 0.12500061E+03</rscale>
<asrwt>0</asrwt>
<pdfrwt beam="1">  1        4 0.77424313E-01 0.12500061E+03</pdfrwt>
<pdfrwt beam="2">  1       -4 0.31533118E-02 0.12500061E+03</pdfrwt>
<totfact> 0.12367850E+03</totfact>
</mgrwt>
</event>
<event>
 5    1  0.1446384E-002  0.1250038E+03  0.7818608E-02  0.1235063E+00
          4   -1    0    0  501    0  0.00000000000E+00  0.00000000000E+00  0.75104766646E+01  0.76170965419E+01  0.12700000000E+01 0. -1.
         -4   -1    0    0    0  501 -0.00000000000E+00 -0.00000000000E+00 -0.51636495474E+03  0.51636651653E+03  0.12700000000E+01 0. -1.
         25    2    1    2    0    0  0.00000000000E+00  0.00000000000E+00 -0.50885447808E+03  0.52398361307E+03  0.12500378755E+03 0.  0.
    9000005    1    3    3    0    0 -0.13226684935E+02  0.10410018094E+02 -0.21493834083E+01  0.16998044597E+02  0.10000000000E+01 0.  0.
    9000005    1    3    3    0    0  0.13226684935E+02 -0.10410018094E+02 -0.50670509467E+03  0.50698556847E+03  0.10000000000E+01 0.  0.
<mgrwt>
<rscale>  0 0.12500379E+03</rscale>
<asrwt>0</asrwt>
<pdfrwt beam="1">  1        4 0.18911436E-02 0.12500379E+03</pdfrwt>
<pdfrwt beam="2">  1       -4 0.12910464E+00 0.12500379E+03</pdfrwt>
<totfact> 0.83907155E+02</totfact>
</mgrwt>
</event>
<event>
 5    1  0.1446384E-002  0.1249997E+03  0.7818608E-02  0.1235070E+00
         -4   -1    0    0    0  501 -0.00000000000E+00  0.00000000000E+00  0.24149873166E+03  0.24150207099E+03  0.12700000000E+01 0. -1.
          4   -1    0    0  501    0  0.00000000000E+00 -0.00000000000E+00 -0.16146572791E+02  0.16196441365E+02  0.12700000000E+01 0. -1.
         25    2    1    2    0    0  0.00000000000E+00  0.00000000000E+00  0.22535215887E+03  0.25769851236E+03  0.12499971106E+03 0.  0.
    9000005    1    3    3    0    0 -0.57630269327E+01  0.56556148351E+02  0.16617517078E+03  0.17563313406E+03  0.10000000000E+01 0.  0.
    9000005    1    3    3    0    0  0.57630269327E+01 -0.56556148351E+02  0.59176988083E+02  0.82065378292E+02  0.10000000000E+01 0.  0.
<mgrwt>
<rscale>  0 0.12499971E+03</rscale>
<asrwt>0</asrwt>
<pdfrwt beam="2">  1        4 0.40432941E-02 0.12499971E+03</pdfrwt>
<pdfrwt beam="1">  1       -4 0.60381335E-01 0.12499971E+03</pdfrwt>
<totfact> 0.14245448E+03</totfact>
</mgrwt>
</event>
<event>
 5    1  0.1446384E-002  0.1249998E+03  0.7818608E-02  0.1235070E+00
          4   -1    0    0  501    0  0.00000000000E+00  0.00000000000E+00  0.19805225648E+03  0.19805632834E+03  0.12700000000E+01 0.  1.
         -4   -1    0    0    0  501 -0.00000000000E+00 -0.00000000000E+00 -0.19698558463E+02  0.19739455553E+02  0.12700000000E+01 0.  1.
         25    2    1    2    0    0  0.00000000000E+00  0.00000000000E+00  0.17835369802E+03  0.21779578390E+03  0.12499984755E+03 0.  0.
    9000005    1    3    3    0    0 -0.69545458077E+01 -0.10756672998E+02  0.19574897612E+03  0.19617016433E+03  0.10000000000E+01 0.  0.
    9000005    1    3    3    0    0  0.69545458077E+01  0.10756672998E+02 -0.17395278102E+02  0.21625619566E+02  0.10000000000E+01 0.  0.
<mgrwt>
<rscale>  0 0.12499985E+03</rscale>
<asrwt>0</asrwt>
<pdfrwt beam="1">  1        4 0.49518685E-01 0.12499985E+03</pdfrwt>
<pdfrwt beam="2">  1       -4 0.49302608E-02 0.12499985E+03</pdfrwt>
<totfact> 0.15633482E+03</totfact>
</mgrwt>
</event>
<event>
 5    1  0.1446384E-002  0.1250019E+03  0.7818608E-02  0.1235066E+00
         -4   -1    0    0    0  501 -0.00000000000E+00  0.00000000000E+00  0.40047750162E+02  0.40067882313E+02  0.12700000000E+01 0. -1.
          4   -1    0    0  501    0  0.00000000000E+00 -0.00000000000E+00 -0.97493939853E+02  0.97502211298E+02  0.12700000000E+01 0. -1.
         25    2    1    2    0    0  0.00000000000E+00  0.00000000000E+00 -0.57446189690E+02  0.13757009361E+03  0.12500186377E+03 0.  0.
    9000005    1    3    3    0    0 -0.59766214500E+02  0.12582948958E+02 -0.14162785658E+02  0.62704987822E+02  0.10000000000E+01 0.  0.
    9000005    1    3    3    0    0  0.59766214500E+02 -0.12582948958E+02 -0.43283404032E+02  0.74865105789E+02  0.10000000000E+01 0.  0.
<mgrwt>
<rscale>  0 0.12500186E+03</rscale>
<asrwt>0</asrwt>
<pdfrwt beam="2">  1        4 0.24377035E-01 0.12500186E+03</pdfrwt>
<pdfrwt beam="1">  1       -4 0.10015488E-01 0.12500186E+03</pdfrwt>
<totfact> 0.19164517E+03</totfact>
</mgrwt>
</event>
<event>
 5    1  0.1446384E-002  0.1250009E+03  0.7818608E-02  0.1235068E+00
          4   -1    0    0  501    0  0.00000000000E+00  0.00000000000E+00  0.16862722045E+03  0.16863200283E+03  0.12700000000E+01 0. -1.
         -4   -1    0    0    0  501 -0.00000000000E+00 -0.00000000000E+00 -0.23142818809E+02  0.23177639276E+02  0.12700000000E+01 0. -1.
         25    2    1    2    0    0  0.00000000000E+00  0.00000000000E+00  0.14548440165E+03  0.19180964211E+03  0.12500091073E+03 0.  0.
    9000005    1    3    3    0    0 -0.99045437234E+01  0.34701943140E+02  0.15102977688E+03  0.15528463655E+03  0.10000000000E+01 0.  0.
    9000005    1    3    3    0    0  0.99045437234E+01 -0.34701943140E+02 -0.55453752376E+01  0.36525005552E+02  0.10000000000E+01 0.  0.
<mgrwt>
<rscale>  0 0.12500091E+03</rscale>
<asrwt>0</asrwt>
<pdfrwt beam="1">  1        4 0.42161754E-01 0.12500091E+03</pdfrwt>
<pdfrwt beam="2">  1       -4 0.57906553E-02 0.12500091E+03</pdfrwt>
<totfact> 0.16654985E+03</totfact>
</mgrwt>
</event>
<event>
 5    1  0.1446384E-002  0.1249992E+03  0.7818608E-02  0.1235071E+00
         -4   -1    0    0    0  501 -0.00000000000E+00  0.00000000000E+00  0.16721332130E+03  0.16721814411E+03  0.12700000000E+01 0. -1.
          4   -1    0    0  501    0  0.00000000000E+00 -0.00000000000E+00 -0.23338144228E+02  0.23372673703E+02  0.12700000000E+01 0. -1.
         25    2    1    2    0    0  0.00000000000E+00  0.00000000000E+00  0.14387517707E+03  0.19059081781E+03  0.12499917303E+03 0.  0.
    9000005    1    3    3    0    0  0.47093284896E+02 -0.22321271611E+02  0.12451738931E+03  0.13498739530E+03  0.10000000000E+01 0.  0.
    9000005    1    3    3    0    0 -0.47093284896E+02  0.22321271611E+02  0.19357787761E+02  0.55603422517E+02  0.10000000000E+01 0.  0.
<mgrwt>
<rscale>  0 0.12499917E+03</rscale>
<asrwt>0</asrwt>
<pdfrwt beam="2">  1        4 0.58394551E-02 0.12499917E+03</pdfrwt>
<pdfrwt beam="1">  1       -4 0.41808249E-01 0.12499917E+03</pdfrwt>
<totfact> 0.16706184E+03</totfact>
</mgrwt>
</event>
<event>
 5    1  0.1446384E-002  0.1249975E+03  0.7818608E-02  0.1235073E+00
         -4   -1    0    0    0  501 -0.00000000000E+00  0.00000000000E+00  0.89062815941E+03  0.89062906489E+03  0.12700000000E+01 0.  1.
          4   -1    0    0  501    0  0.00000000000E+00 -0.00000000000E+00 -0.42929050957E+01  0.44768218818E+01  0.12700000000E+01 0.  1.
         25    2    1    2    0    0  0.00000000000E+00  0.00000000000E+00  0.88633525431E+03  0.89510588677E+03  0.12499746198E+03 0.  0.
    9000005    1    3    3    0    0  0.36194083871E+02 -0.46443104217E+02  0.29327901548E+03  0.29913300479E+03  0.10000000000E+01 0.  0.
    9000005    1    3    3    0    0 -0.36194083871E+02  0.46443104217E+02  0.59305623884E+03  0.59597288198E+03  0.10000000000E+01 0.  0.
<mgrwt>
<rscale>  0 0.12499746E+03</rscale>
<asrwt>0</asrwt>
<pdfrwt beam="2">  1        4 0.10963289E-02 0.12499746E+03</pdfrwt>
<pdfrwt beam="1">  1       -4 0.22268018E+00 0.12499746E+03</pdfrwt>
<totfact> 0.44652050E+02</totfact>
</mgrwt>
</event>
<event>
 5    1  0.1446384E-002  0.1249959E+03  0.7818608E-02  0.1235076E+00
          4   -1    0    0  501    0  0.00000000000E+00  0.00000000000E+00  0.14407815795E+03  0.14408375515E+03  0.12700000000E+01 0. -1.
         -4   -1    0    0    0  501 -0.00000000000E+00 -0.00000000000E+00 -0.27089222689E+02  0.27118976491E+02  0.12700000000E+01 0. -1.
         25    2    1    2    0    0  0.00000000000E+00  0.00000000000E+00  0.11698893526E+03  0.17120273164E+03  0.12499585732E+03 0.  0.
    9000005    1    3    3    0    0 -0.50345042191E+02  0.24014673801E+02  0.19908161335E+02  0.59233965921E+02  0.10000000000E+01 0.  0.
    9000005    1    3    3    0    0  0.50345042191E+02 -0.24014673801E+02  0.97080773928E+02  0.11196876572E+03  0.10000000000E+01 0.  0.
<mgrwt>
<rscale>  0 0.12499586E+03</rscale>
<asrwt>0</asrwt>
<pdfrwt beam="1">  1        4 0.36023958E-01 0.12499586E+03</pdfrwt>
<pdfrwt beam="2">  1       -4 0.67767246E-02 0.12499586E+03</pdfrwt>
<totfact> 0.17544622E+03</totfact>
</mgrwt>
</event>
<event>
 5    1  0.1446384E-002  0.1250032E+03  0.7818608E-02  0.1235064E+00
          4   -1    0    0  501    0  0.00000000000E+00  0.00000000000E+00  0.83014565344E+02  0.83024279336E+02  0.12700000000E+01 0. -1.
         -4   -1    0    0    0  501 -0.00000000000E+00 -0.00000000000E+00 -0.47036377586E+02  0.47053519703E+02  0.12700000000E+01 0. -1.
         25    2    1    2    0    0  0.00000000000E+00  0.00000000000E+00  0.35978187758E+02  0.13007779904E+03  0.12500321519E+03 0.  0.
    9000005    1    3    3    0    0 -0.17942300015E+02 -0.63986187362E+01 -0.43946739099E+02  0.47908082084E+02  0.10000000000E+01 0.  0.
    9000005    1    3    3    0    0  0.17942300015E+02  0.63986187362E+01  0.79924926856E+02  0.82169716956E+02  0.10000000000E+01 0.  0.
<mgrwt>
<rscale>  0 0.12500322E+03</rscale>
<asrwt>0</asrwt>
<pdfrwt beam="1">  1        4 0.20756998E-01 0.12500322E+03</pdfrwt>
<pdfrwt beam="2">  1       -4 0.11762451E-01 0.12500322E+03</pdfrwt>
<totfact> 0.19558733E+03</totfact>
</mgrwt>
</event>
<event>
 5    1  0.1446384E-002  0.1249775E+03  0.7818608E-02  0.1235104E+00
          4   -1    0    0  501    0  0.00000000000E+00  0.00000000000E+00  0.44768248460E+03  0.44768428598E+03  0.12700000000E+01 0. -1.
         -4   -1    0    0    0  501 -0.00000000000E+00 -0.00000000000E+00 -0.86742982138E+01  0.87667753195E+01  0.12700000000E+01 0. -1.
         25    2    1    2    0    0  0.00000000000E+00  0.00000000000E+00  0.43900818638E+03  0.45645106130E+03  0.12497753259E+03 0.  0.
    9000005    1    3    3    0    0  0.12827725986E+02 -0.55759345331E+02  0.12781909240E+03  0.14004419134E+03  0.10000000000E+01 0.  0.
    9000005    1    3    3    0    0 -0.12827725986E+02  0.55759345331E+02  0.31118909398E+03  0.31640686996E+03  0.10000000000E+01 0.  0.
<mgrwt>
<rscale>  0 0.12497753E+03</rscale>
<asrwt>0</asrwt>
<pdfrwt beam="1">  1        4 0.11193239E+00 0.12497753E+03</pdfrwt>
<pdfrwt beam="2">  1       -4 0.21803596E-02 0.12497753E+03</pdfrwt>
<totfact> 0.94918648E+02</totfact>
</mgrwt>
</event>
<event>
 5    1  0.1446384E-002  0.1250012E+03  0.7818608E-02  0.1235067E+00
         -4   -1    0    0    0  501 -0.00000000000E+00  0.00000000000E+00  0.14928315956E+02  0.14982240062E+02  0.12700000000E+01 0. -1.
          4   -1    0    0  501    0  0.00000000000E+00 -0.00000000000E+00 -0.26114477598E+03  0.26114786409E+03  0.12700000000E+01 0. -1.
         25    2    1    2    0    0  0.00000000000E+00  0.00000000000E+00 -0.24621646002E+03  0.27613010416E+03  0.12500115694E+03 0.  0.
    9000005    1    3    3    0    0  0.31271041540E+02 -0.39997140566E+02 -0.20359885295E+03  0.20983598884E+03  0.10000000000E+01 0.  0.
    9000005    1    3    3    0    0 -0.31271041540E+02  0.39997140566E+02 -0.42617607076E+02  0.66294115314E+02  0.10000000000E+01 0.  0.
<mgrwt>
<rscale>  0 0.12500116E+03</rscale>
<asrwt>0</asrwt>
<pdfrwt beam="2">  1        4 0.65293306E-01 0.12500116E+03</pdfrwt>
<pdfrwt beam="1">  1       -4 0.37392064E-02 0.12500116E+03</pdfrwt>
<totfact> 0.13667089E+03</totfact>
</mgrwt>
</event>
<event>
 5    1  0.1446384E-002  0.1249971E+03  0.7818608E-02  0.1235074E+00
         -4   -1    0    0    0  501 -0.00000000000E+00  0.00000000000E+00  0.28693754775E+03  0.28694035827E+03  0.12700000000E+01 0. -1.
          4   -1    0    0  501    0  0.00000000000E+00 -0.00000000000E+00 -0.13580463850E+02  0.13639717679E+02  0.12700000000E+01 0. -1.
         25    2    1    2    0    0  0.00000000000E+00  0.00000000000E+00  0.27335708390E+03  0.30058007595E+03  0.12499714694E+03 0.  0.
    9000005    1    3    3    0    0  0.58993047227E+02 -0.11645186110E+02  0.17757828447E+03  0.18748556503E+03  0.10000000000E+01 0.  0.
    9000005    1    3    3    0    0 -0.58993047227E+02  0.11645186110E+02  0.95778799430E+02  0.11309451092E+03  0.10000000000E+01 0.  0.
<mgrwt>
<rscale>  0 0.12499715E+03</rscale>
<asrwt>0</asrwt>
<pdfrwt beam="2">  1        4 0.34028741E-02 0.12499715E+03</pdfrwt>
<pdfrwt beam="1">  1       -4 0.71742143E-01 0.12499715E+03</pdfrwt>
<totfact> 0.12955661E+03</totfact>
</mgrwt>
</event>
<event>
 5    1  0.1446384E-002  0.1249998E+03  0.7818608E-02  0.1235070E+00
         -4   -1    0    0    0  501 -0.00000000000E+00  0.00000000000E+00  0.67854902529E+02  0.67866786407E+02  0.12700000000E+01 0. -1.
          4   -1    0    0  501    0  0.00000000000E+00 -0.00000000000E+00 -0.57543588633E+02  0.57557601520E+02  0.12700000000E+01 0. -1.
         25    2    1    2    0    0  0.00000000000E+00  0.00000000000E+00  0.10311313896E+02  0.12542438793E+03  0.12499981557E+03 0.  0.
    9000005    1    3    3    0    0 -0.24243904979E+02 -0.57535329173E+02  0.78400834579E+01  0.62932884411E+02  0.10000000000E+01 0.  0.
    9000005    1    3    3    0    0  0.24243904979E+02  0.57535329173E+02  0.24712304382E+01  0.62491503515E+02  0.10000000000E+01 0.  0.
<mgrwt>
<rscale>  0 0.12499982E+03</rscale>
<asrwt>0</asrwt>
<pdfrwt beam="2">  1        4 0.14389134E-01 0.12499982E+03</pdfrwt>
<pdfrwt beam="1">  1       -4 0.16966963E-01 0.12499982E+03</pdfrwt>
<totfact> 0.19812143E+03</totfact>
</mgrwt>
</event>
<event>
 5    1  0.1446384E-002  0.1250000E+03  0.7818608E-02  0.1235069E+00
          4   -1    0    0  501    0  0.00000000000E+00  0.00000000000E+00  0.14268175010E+03  0.14268740207E+03  0.12700000000E+01 0.  1.
         -4   -1    0    0    0  501 -0.00000000000E+00 -0.00000000000E+00 -0.27356455121E+02  0.27385918586E+02  0.12700000000E+01 0.  1.
         25    2    1    2    0    0  0.00000000000E+00  0.00000000000E+00  0.11532529497E+03  0.17007332066E+03  0.12500004296E+03 0.  0.
    9000005    1    3    3    0    0 -0.55794167546E+02 -0.75041953488E+01  0.20752110601E+02  0.60007934262E+02  0.10000000000E+01 0.  0.
    9000005    1    3    3    0    0  0.55794167546E+02  0.75041953488E+01  0.94573184374E+02  0.11006538640E+03  0.10000000000E+01 0.  0.
<mgrwt>
<rscale>  0 0.12500004E+03</rscale>
<asrwt>0</asrwt>
<pdfrwt beam="1">  1        4 0.35674826E-01 0.12500004E+03</pdfrwt>
<pdfrwt beam="2">  1       -4 0.68435033E-02 0.12500004E+03</pdfrwt>
<totfact> 0.17593723E+03</totfact>
</mgrwt>
</event>
<event>
 5    1  0.1446384E-002  0.1249972E+03  0.7818608E-02  0.1235074E+00
          4   -1    0    0  501    0  0.00000000000E+00  0.00000000000E+00  0.30152968947E+03  0.30153236399E+03  0.12700000000E+01 0. -1.
         -4   -1    0    0    0  501 -0.00000000000E+00 -0.00000000000E+00 -0.12920333543E+02  0.12982600620E+02  0.12700000000E+01 0. -1.
         25    2    1    2    0    0  0.00000000000E+00  0.00000000000E+00  0.28860935593E+03  0.31451496460E+03  0.12499721050E+03 0.  0.
    9000005    1    3    3    0    0 -0.10117637476E+01  0.32865259162E+02  0.10593502995E+02  0.34559676379E+02  0.10000000000E+01 0.  0.
    9000005    1    3    3    0    0  0.10117637476E+01 -0.32865259162E+02  0.27801585293E+03  0.27995528823E+03  0.10000000000E+01 0.  0.
<mgrwt>
<rscale>  0 0.12499721E+03</rscale>
<asrwt>0</asrwt>
<pdfrwt beam="1">  1        4 0.75390539E-01 0.12499721E+03</pdfrwt>
<pdfrwt beam="2">  1       -4 0.32382012E-02 0.12499721E+03</pdfrwt>
<totfact> 0.12574584E+03</totfact>
</mgrwt>
</event>
<event>
 5    1  0.1446384E-002  0.1249973E+03  0.7818608E-02  0.1235074E+00
          4   -1    0    0  501    0  0.00000000000E+00  0.00000000000E+00  0.24886813049E+03  0.24887137094E+03  0.12700000000E+01 0.  1.
         -4   -1    0    0    0  501 -0.00000000000E+00 -0.00000000000E+00 -0.15666336780E+02  0.15717729101E+02  0.12700000000E+01 0.  1.
         25    2    1    2    0    0  0.00000000000E+00  0.00000000000E+00  0.23320179371E+03  0.26458910004E+03  0.12499726105E+03 0.  0.
    9000005    1    3    3    0    0  0.69921956498E+01  0.48076322653E+02  0.33402425987E+02  0.58965631190E+02  0.10000000000E+01 0.  0.
    9000005    1    3    3    0    0 -0.69921956498E+01 -0.48076322653E+02  0.19979936772E+03  0.20562346885E+03  0.10000000000E+01 0.  0.
<mgrwt>
<rscale>  0 0.12499726E+03</rscale>
<asrwt>0</asrwt>
<pdfrwt beam="1">  1        4 0.62223861E-01 0.12499726E+03</pdfrwt>
<pdfrwt beam="2">  1       -4 0.39234134E-02 0.12499726E+03</pdfrwt>
<totfact> 0.14025849E+03</totfact>
</mgrwt>
</event>
<event>
 5    1  0.1446384E-002  0.1249989E+03  0.7818608E-02  0.1235071E+00
         -4   -1    0    0    0  501 -0.00000000000E+00  0.00000000000E+00  0.25608563712E+02  0.25640035791E+02  0.12700000000E+01 0. -1.
          4   -1    0    0  501    0  0.00000000000E+00 -0.00000000000E+00 -0.15240648291E+03  0.15241177426E+03  0.12700000000E+01 0. -1.
         25    2    1    2    0    0  0.00000000000E+00  0.00000000000E+00 -0.12679791920E+03  0.17805181005E+03  0.12499893899E+03 0.  0.
    9000005    1    3    3    0    0  0.38833644058E+02 -0.29100777319E+02 -0.11948369215E+03  0.12896611897E+03  0.10000000000E+01 0.  0.
    9000005    1    3    3    0    0 -0.38833644058E+02  0.29100777319E+02 -0.73142270414E+01  0.49085691078E+02  0.10000000000E+01 0.  0.
<mgrwt>
<rscale>  0 0.12499894E+03</rscale>
<asrwt>0</asrwt>
<pdfrwt beam="2">  1        4 0.38106214E-01 0.12499894E+03</pdfrwt>
<pdfrwt beam="1">  1       -4 0.64067368E-02 0.12499894E+03</pdfrwt>
<totfact> 0.17240299E+03</totfact>
</mgrwt>
</event>
<event>
 5    1  0.1446384E-002  0.1250006E+03  0.7818608E-02  0.1235068E+00
         -4   -1    0    0    0  501 -0.00000000000E+00  0.00000000000E+00  0.96753427813E+01  0.97583378674E+01  0.12700000000E+01 0.  1.
          4   -1    0    0  501    0  0.00000000000E+00 -0.00000000000E+00 -0.40192792238E+03  0.40192992883E+03  0.12700000000E+01 0.  1.
         25    2    1    2    0    0  0.00000000000E+00  0.00000000000E+00 -0.39225257960E+03  0.41168826670E+03  0.12500057093E+03 0.  0.
    9000005    1    3    3    0    0 -0.46994160672E+02  0.40789986952E+02 -0.17720332450E+03  0.18781451591E+03  0.10000000000E+01 0.  0.
    9000005    1    3    3    0    0  0.46994160672E+02 -0.40789986952E+02 -0.21504925510E+03  0.22387375078E+03  0.10000000000E+01 0.  0.
<mgrwt>
<rscale>  0 0.12500057E+03</rscale>
<asrwt>0</asrwt>
<pdfrwt beam="2">  1        4 0.10049255E+00 0.12500057E+03</pdfrwt>
<pdfrwt beam="1">  1       -4 0.24294622E-02 0.12500057E+03</pdfrwt>
<totfact> 0.10331722E+03</totfact>
</mgrwt>
</event>
<event>
 5    1  0.1446384E-002  0.1249991E+03  0.7818608E-02  0.1235071E+00
          4   -1    0    0  501    0  0.00000000000E+00  0.00000000000E+00  0.14668879600E+04  0.14668885098E+04  0.12700000000E+01 0.  1.
         -4   -1    0    0    0  501 -0.00000000000E+00 -0.00000000000E+00 -0.25109096122E+01  0.28138171726E+01  0.12700000000E+01 0.  1.
         25    2    1    2    0    0  0.00000000000E+00  0.00000000000E+00  0.14643770504E+04  0.14697023270E+04  0.12499913646E+03 0.  0.
    9000005    1    3    3    0    0  0.96176064952E+01  0.35423609475E+02  0.13753879417E+03  0.14235606895E+03  0.10000000000E+01 0.  0.
    9000005    1    3    3    0    0 -0.96176064952E+01 -0.35423609475E+02  0.13268382562E+04  0.13273462580E+04  0.10000000000E+01 0.  0.
<mgrwt>
<rscale>  0 0.12499914E+03</rscale>
<asrwt>0</asrwt>
<pdfrwt beam="1">  1        4 0.36676004E+00 0.12499914E+03</pdfrwt>
<pdfrwt beam="2">  1       -4 0.66565935E-03 0.12499914E+03</pdfrwt>
<totfact> 0.13517165E+02</totfact>
</mgrwt>
</event>
<event>
 5    1  0.1446384E-002  0.1249996E+03  0.7818608E-02  0.1235070E+00
         -4   -1    0    0    0  501 -0.00000000000E+00  0.00000000000E+00  0.89444034865E+02  0.89453050663E+02  0.12700000000E+01 0.  1.
          4   -1    0    0  501    0  0.00000000000E+00 -0.00000000000E+00 -0.43651822723E+02  0.43670293416E+02  0.12700000000E+01 0.  1.
         25    2    1    2    0    0  0.00000000000E+00  0.00000000000E+00  0.45792212143E+02  0.13312334408E+03  0.12499959218E+03 0.  0.
    9000005    1    3    3    0    0 -0.37979290153E+02  0.16220583986E+02 -0.27052851673E+02  0.49380062870E+02  0.10000000000E+01 0.  0.
    9000005    1    3    3    0    0  0.37979290153E+02 -0.16220583986E+02  0.72845063816E+02  0.83743281209E+02  0.10000000000E+01 0.  0.
<mgrwt>
<rscale>  0 0.12499959E+03</rscale>
<asrwt>0</asrwt>
<pdfrwt beam="2">  1        4 0.10916392E-01 0.12499959E+03</pdfrwt>
<pdfrwt beam="1">  1       -4 0.22364444E-01 0.12499959E+03</pdfrwt>
<totfact> 0.19398076E+03</totfact>
</mgrwt>
</event>
<event>
 5    1  0.1446384E-002  0.1250014E+03  0.7818608E-02  0.1235067E+00
          4   -1    0    0  501    0  0.00000000000E+00  0.00000000000E+00  0.87334428567E+02  0.87343662123E+02  0.12700000000E+01 0.  1.
         -4   -1    0    0    0  501 -0.00000000000E+00 -0.00000000000E+00 -0.44707903983E+02  0.44725938543E+02  0.12700000000E+01 0.  1.
         25    2    1    2    0    0  0.00000000000E+00  0.00000000000E+00  0.42626524584E+02  0.13206960067E+03  0.12500143528E+03 0.  0.
    9000005    1    3    3    0    0  0.59930102365E+02 -0.16461797735E+02  0.14406679673E+02  0.63805645310E+02  0.10000000000E+01 0.  0.
    9000005    1    3    3    0    0 -0.59930102365E+02  0.16461797735E+02  0.28219844910E+02  0.68263955357E+02  0.10000000000E+01 0.  0.
<mgrwt>
<rscale>  0 0.12500144E+03</rscale>
<asrwt>0</asrwt>
<pdfrwt beam="1">  1        4 0.21837016E-01 0.12500144E+03</pdfrwt>
<pdfrwt beam="2">  1       -4 0.11180385E-01 0.12500144E+03</pdfrwt>
<totfact> 0.19453102E+03</totfact>
</mgrwt>
</event>
<event>
 5    1  0.1446384E-002  0.1250000E+03  0.7818608E-02  0.1235069E+00
         -4   -1    0    0    0  501 -0.00000000000E+00  0.00000000000E+00  0.29241870622E+02  0.29269436234E+02  0.12700000000E+01 0. -1.
          4   -1    0    0  501    0  0.00000000000E+00 -0.00000000000E+00 -0.13349058095E+03  0.13349662206E+03  0.12700000000E+01 0. -1.
         25    2    1    2    0    0  0.00000000000E+00  0.00000000000E+00 -0.10424871033E+03  0.16276605830E+03  0.12499998451E+03 0.  0.
    9000005    1    3    3    0    0 -0.22967378885E+02 -0.19736719200E+02 -0.12330460000E+03  0.12697268588E+03  0.10000000000E+01 0.  0.
    9000005    1    3    3    0    0  0.22967378885E+02  0.19736719200E+02  0.19055889676E+02  0.35793372417E+02  0.10000000000E+01 0.  0.
<mgrwt>
<rscale>  0 0.12499998E+03</rscale>
<asrwt>0</asrwt>
<pdfrwt beam="2">  1        4 0.33376844E-01 0.12499998E+03</pdfrwt>
<pdfrwt beam="1">  1       -4 0.73146688E-02 0.12499998E+03</pdfrwt>
<totfact> 0.17928358E+03</totfact>
</mgrwt>
</event>
<event>
 5    1  0.1446384E-002  0.1249969E+03  0.7818608E-02  0.1235074E+00
          4   -1    0    0  501    0  0.00000000000E+00  0.00000000000E+00  0.89237700135E+02  0.89246736777E+02  0.12700000000E+01 0. -1.
         -4   -1    0    0    0  501 -0.00000000000E+00 -0.00000000000E+00 -0.43750885172E+02  0.43769314060E+02  0.12700000000E+01 0. -1.
         25    2    1    2    0    0  0.00000000000E+00  0.00000000000E+00  0.45486814963E+02  0.13301605084E+03  0.12499687774E+03 0.  0.
    9000005    1    3    3    0    0 -0.34833460289E+01 -0.49477659043E+02  0.63193650752E+02  0.80340587123E+02  0.10000000000E+01 0.  0.
    9000005    1    3    3    0    0  0.34833460289E+01  0.49477659043E+02 -0.17706835789E+02  0.52675463714E+02  0.10000000000E+01 0.  0.
<mgrwt>
<rscale>  0 0.12499688E+03</rscale>
<asrwt>0</asrwt>
<pdfrwt beam="1">  1        4 0.22312858E-01 0.12499688E+03</pdfrwt>
<pdfrwt beam="2">  1       -4 0.10941155E-01 0.12499688E+03</pdfrwt>
<totfact> 0.19404979E+03</totfact>
</mgrwt>
</event>
<event>
 5    1  0.1446384E-002  0.1250035E+03  0.7818608E-02  0.1235064E+00
          4   -1    0    0  501    0  0.00000000000E+00  0.00000000000E+00  0.59663910922E+01  0.61000592345E+01  0.12700000000E+01 0.  1.
         -4   -1    0    0    0  501 -0.00000000000E+00 -0.00000000000E+00 -0.64735862325E+03  0.64735986900E+03  0.12700000000E+01 0.  1.
         25    2    1    2    0    0  0.00000000000E+00  0.00000000000E+00 -0.64139223216E+03  0.65345992824E+03  0.12500352931E+03 0.  0.
    9000005    1    3    3    0    0  0.48498229862E+02  0.11128430988E+02 -0.51834592903E+03  0.52072970188E+03  0.10000000000E+01 0.  0.
    9000005    1    3    3    0    0 -0.48498229862E+02 -0.11128430988E+02 -0.12304630312E+03  0.13273022635E+03  0.10000000000E+01 0.  0.
<mgrwt>
<rscale>  0 0.12500353E+03</rscale>
<asrwt>0</asrwt>
<pdfrwt beam="1">  1        4 0.15084642E-02 0.12500353E+03</pdfrwt>
<pdfrwt beam="2">  1       -4 0.16185628E+00 0.12500353E+03</pdfrwt>
<totfact> 0.67111153E+02</totfact>
</mgrwt>
</event>
<event>
 5    1  0.1446384E-002  0.1249682E+03  0.7818608E-02  0.1235119E+00
         -4   -1    0    0    0  501 -0.00000000000E+00  0.00000000000E+00  0.52801250069E+02  0.52816521173E+02  0.12700000000E+01 0. -1.
          4   -1    0    0  501    0  0.00000000000E+00 -0.00000000000E+00 -0.73911183841E+02  0.73922094104E+02  0.12700000000E+01 0. -1.
         25    2    1    2    0    0  0.00000000000E+00  0.00000000000E+00 -0.21109933772E+02  0.12673861528E+03  0.12496818515E+03 0.  0.
    9000005    1    3    3    0    0  0.44422592831E+02  0.32778411544E+02  0.19107829593E+02  0.58428590338E+02  0.10000000000E+01 0.  0.
    9000005    1    3    3    0    0 -0.44422592831E+02 -0.32778411544E+02 -0.40217763365E+02  0.68310024940E+02  0.10000000000E+01 0.  0.
<mgrwt>
<rscale>  0 0.12496819E+03</rscale>
<asrwt>0</asrwt>
<pdfrwt beam="2">  1        4 0.18481069E-01 0.12496819E+03</pdfrwt>
<pdfrwt beam="1">  1       -4 0.13203585E-01 0.12496819E+03</pdfrwt>
<totfact> 0.19755754E+03</totfact>
</mgrwt>
</event>
<event>
 5    1  0.1446384E-002  0.1249989E+03  0.7818608E-02  0.1235071E+00
         -4   -1    0    0    0  501 -0.00000000000E+00  0.00000000000E+00  0.10439266043E+03  0.10440038530E+03  0.12700000000E+01 0. -1.
          4   -1    0    0  501    0  0.00000000000E+00 -0.00000000000E+00 -0.37398295318E+02  0.37419852922E+02  0.12700000000E+01 0. -1.
         25    2    1    2    0    0  0.00000000000E+00  0.00000000000E+00  0.66994365112E+02  0.14182023823E+03  0.12499894005E+03 0.  0.
    9000005    1    3    3    0    0 -0.76356415920E+01 -0.56320447781E+02  0.40225975733E+01  0.56986640119E+02  0.10000000000E+01 0.  0.
    9000005    1    3    3    0    0  0.76356415920E+01  0.56320447781E+02  0.62971767538E+02  0.84833598106E+02  0.10000000000E+01 0.  0.
<mgrwt>
<rscale>  0 0.12499894E+03</rscale>
<asrwt>0</asrwt>
<pdfrwt beam="2">  1        4 0.93532342E-02 0.12499894E+03</pdfrwt>
<pdfrwt beam="1">  1       -4 0.26101825E-01 0.12499894E+03</pdfrwt>
<totfact> 0.18948074E+03</totfact>
</mgrwt>
</event>
<event>
 5    1  0.1446384E-002  0.1250001E+03  0.7818608E-02  0.1235069E+00
         -4   -1    0    0    0  501 -0.00000000000E+00  0.00000000000E+00  0.29071789071E+02  0.29099515800E+02  0.12700000000E+01 0. -1.
          4   -1    0    0  501    0  0.00000000000E+00 -0.00000000000E+00 -0.13427100386E+03  0.13427700986E+03  0.12700000000E+01 0. -1.
         25    2    1    2    0    0  0.00000000000E+00  0.00000000000E+00 -0.10519921479E+03  0.16337652566E+03  0.12500005738E+03 0.  0.
    9000005    1    3    3    0    0 -0.28008394496E+01  0.60016145598E+02 -0.30133026346E+02  0.67221884166E+02  0.10000000000E+01 0.  0.
    9000005    1    3    3    0    0  0.28008394496E+01 -0.60016145598E+02 -0.75066188443E+02  0.96154641497E+02  0.10000000000E+01 0.  0.
<mgrwt>
<rscale>  0 0.12500006E+03</rscale>
<asrwt>0</asrwt>
<pdfrwt beam="2">  1        4 0.33571966E-01 0.12500006E+03</pdfrwt>
<pdfrwt beam="1">  1       -4 0.72721642E-02 0.12500006E+03</pdfrwt>
<totfact> 0.17899975E+03</totfact>
</mgrwt>
</event>
<event>
 5    1  0.1446384E-002  0.1250030E+03  0.7818608E-02  0.1235065E+00
         -4   -1    0    0    0  501 -0.00000000000E+00  0.00000000000E+00  0.18551538959E+03  0.18551973662E+03  0.12700000000E+01 0.  1.
          4   -1    0    0  501    0  0.00000000000E+00 -0.00000000000E+00 -0.21033464717E+02  0.21071771116E+02  0.12700000000E+01 0.  1.
         25    2    1    2    0    0  0.00000000000E+00  0.00000000000E+00  0.16448192488E+03  0.20659150774E+03  0.12500298980E+03 0.  0.
    9000005    1    3    3    0    0  0.18513259382E+02  0.34234148298E+02  0.16304933265E+03  0.16763293996E+03  0.10000000000E+01 0.  0.
    9000005    1    3    3    0    0 -0.18513259382E+02 -0.34234148298E+02  0.14325922267E+01  0.38958567776E+02  0.10000000000E+01 0.  0.
<mgrwt>
<rscale>  0 0.12500299E+03</rscale>
<asrwt>0</asrwt>
<pdfrwt beam="2">  1        4 0.52636979E-02 0.12500299E+03</pdfrwt>
<pdfrwt beam="1">  1       -4 0.46384179E-01 0.12500299E+03</pdfrwt>
<totfact> 0.16060357E+03</totfact>
</mgrwt>
</event>
<event>
 5    1  0.1446384E-002  0.1249979E+03  0.7818608E-02  0.1235073E+00
         -4   -1    0    0    0  501 -0.00000000000E+00  0.00000000000E+00  0.33856947146E+03  0.33857185339E+03  0.12700000000E+01 0.  1.
          4   -1    0    0  501    0  0.00000000000E+00 -0.00000000000E+00 -0.11499751819E+02  0.11569666888E+02  0.12700000000E+01 0.  1.
         25    2    1    2    0    0  0.00000000000E+00  0.00000000000E+00  0.32706971964E+03  0.35014152028E+03  0.12499793083E+03 0.  0.
    9000005    1    3    3    0    0 -0.42826565295E+02 -0.13284057355E+02  0.41609890171E+02  0.61179766548E+02  0.10000000000E+01 0.  0.
    9000005    1    3    3    0    0  0.42826565295E+02  0.13284057355E+02  0.28545982947E+03  0.28896175373E+03  0.10000000000E+01 0.  0.
<mgrwt>
<rscale>  0 0.12499793E+03</rscale>
<asrwt>0</asrwt>
<pdfrwt beam="2">  1        4 0.28839749E-02 0.12499793E+03</pdfrwt>
<pdfrwt beam="1">  1       -4 0.84651409E-01 0.12499793E+03</pdfrwt>
<totfact> 0.11674496E+03</totfact>
</mgrwt>
</event>
<event>
 5    1  0.1446384E-002  0.1250000E+03  0.7818608E-02  0.1235069E+00
         -4   -1    0    0    0  501 -0.00000000000E+00  0.00000000000E+00  0.77157625607E+02  0.77168076880E+02  0.12700000000E+01 0. -1.
          4   -1    0    0  501    0  0.00000000000E+00 -0.00000000000E+00 -0.50605006262E+02  0.50620939924E+02  0.12700000000E+01 0. -1.
         25    2    1    2    0    0  0.00000000000E+00  0.00000000000E+00  0.26552619345E+02  0.12778901680E+03  0.12499996489E+03 0.  0.
    9000005    1    3    3    0    0  0.38630936602E+02  0.47241524871E+02 -0.48269657378E+00  0.61035595605E+02  0.10000000000E+01 0.  0.
    9000005    1    3    3    0    0 -0.38630936602E+02 -0.47241524871E+02  0.27035315919E+02  0.66753421199E+02  0.10000000000E+01 0.  0.
<mgrwt>
<rscale>  0 0.12499996E+03</rscale>
<asrwt>0</asrwt>
<pdfrwt beam="2">  1        4 0.12654550E-01 0.12499996E+03</pdfrwt>
<pdfrwt beam="1">  1       -4 0.19292704E-01 0.12499996E+03</pdfrwt>
<totfact> 0.19684038E+03</totfact>
</mgrwt>
</event>
<event>
 5    1  0.1446384E-002  0.1249864E+03  0.7818608E-02  0.1235091E+00
          4   -1    0    0  501    0  0.00000000000E+00  0.00000000000E+00  0.87406974019E+02  0.87416199912E+02  0.12700000000E+01 0. -1.
         -4   -1    0    0    0  501 -0.00000000000E+00 -0.00000000000E+00 -0.44660020593E+02  0.44678074482E+02  0.12700000000E+01 0. -1.
         25    2    1    2    0    0  0.00000000000E+00  0.00000000000E+00  0.42746953425E+02  0.13209427439E+03  0.12498638046E+03 0.  0.
    9000005    1    3    3    0    0 -0.25714405841E+02 -0.24638405225E+02  0.75636458541E+02  0.83607150056E+02  0.10000000000E+01 0.  0.
    9000005    1    3    3    0    0  0.25714405841E+02  0.24638405225E+02 -0.32889505116E+02  0.48487124338E+02  0.10000000000E+01 0.  0.
<mgrwt>
<rscale>  0 0.12498638E+03</rscale>
<asrwt>0</asrwt>
<pdfrwt beam="1">  1        4 0.21855153E-01 0.12498638E+03</pdfrwt>
<pdfrwt beam="2">  1       -4 0.11168415E-01 0.12498638E+03</pdfrwt>
<totfact> 0.19458627E+03</totfact>
</mgrwt>
</event>
<event>
 5    1  0.1446384E-002  0.1250029E+03  0.7818608E-02  0.1235065E+00
          4   -1    0    0  501    0  0.00000000000E+00  0.00000000000E+00  0.17743160099E+03  0.17743614606E+03  0.12700000000E+01 0.  1.
         -4   -1    0    0    0  501 -0.00000000000E+00 -0.00000000000E+00 -0.21993386507E+02  0.22030023832E+02  0.12700000000E+01 0.  1.
         25    2    1    2    0    0  0.00000000000E+00  0.00000000000E+00  0.15543821448E+03  0.19946616990E+03  0.12500285761E+03 0.  0.
    9000005    1    3    3    0    0 -0.46147219873E+02  0.41795766946E+02  0.86308703807E+02  0.10642670900E+03  0.10000000000E+01 0.  0.
    9000005    1    3    3    0    0  0.46147219873E+02 -0.41795766946E+02  0.69129510678E+02  0.93039460892E+02  0.10000000000E+01 0.  0.
<mgrwt>
<rscale>  0 0.12500286E+03</rscale>
<asrwt>0</asrwt>
<pdfrwt beam="1">  1        4 0.44363047E-01 0.12500286E+03</pdfrwt>
<pdfrwt beam="2">  1       -4 0.55034946E-02 0.12500286E+03</pdfrwt>
<totfact> 0.16342359E+03</totfact>
</mgrwt>
</event>
<event>
 5    1  0.1446384E-002  0.1250001E+03  0.7818608E-02  0.1235069E+00
          4   -1    0    0  501    0  0.00000000000E+00  0.00000000000E+00  0.14354290311E+02  0.14410362602E+02  0.12700000000E+01 0.  1.
         -4   -1    0    0    0  501 -0.00000000000E+00 -0.00000000000E+00 -0.27154358607E+03  0.27154655592E+03  0.12700000000E+01 0.  1.
         25    2    1    2    0    0  0.00000000000E+00  0.00000000000E+00 -0.25718929575E+03  0.28595691852E+03  0.12500010161E+03 0.  0.
    9000005    1    3    3    0    0 -0.16734275150E+02  0.54481894010E+02 -0.69960004376E+02  0.90242534051E+02  0.10000000000E+01 0.  0.
    9000005    1    3    3    0    0  0.16734275150E+02 -0.54481894010E+02 -0.18722929138E+03  0.19571438447E+03  0.10000000000E+01 0.  0.
<mgrwt>
<rscale>  0 0.12500010E+03</rscale>
<asrwt>0</asrwt>
<pdfrwt beam="1">  1        4 0.35959537E-02 0.12500010E+03</pdfrwt>
<pdfrwt beam="2">  1       -4 0.67893260E-01 0.12500010E+03</pdfrwt>
<totfact> 0.13373942E+03</totfact>
</mgrwt>
</event>
<event>
 5    1  0.1446384E-002  0.1250040E+03  0.7818608E-02  0.1235063E+00
         -4   -1    0    0    0  501 -0.00000000000E+00  0.00000000000E+00  0.60800974401E+02  0.60814236722E+02  0.12700000000E+01 0. -1.
          4   -1    0    0  501    0  0.00000000000E+00 -0.00000000000E+00 -0.64224097202E+02  0.64236652788E+02  0.12700000000E+01 0. -1.
         25    2    1    2    0    0  0.00000000000E+00  0.00000000000E+00 -0.34231228011E+01  0.12505088951E+03  0.12500402873E+03 0.  0.
    9000005    1    3    3    0    0 -0.32011403753E+02 -0.52916684046E+02 -0.10692475444E+02  0.62771286842E+02  0.10000000000E+01 0.  0.
    9000005    1    3    3    0    0  0.32011403753E+02  0.52916684046E+02  0.72693526428E+01  0.62279602669E+02  0.10000000000E+01 0.  0.
<mgrwt>
<rscale>  0 0.12500403E+03</rscale>
<asrwt>0</asrwt>
<pdfrwt beam="2">  1        4 0.16059252E-01 0.12500403E+03</pdfrwt>
<pdfrwt beam="1">  1       -4 0.15203471E-01 0.12500403E+03</pdfrwt>
<totfact> 0.19830426E+03</totfact>
</mgrwt>
</event>
<event>
 5    1  0.1446384E-002  0.1249950E+03  0.7818608E-02  0.1235077E+00
          4   -1    0    0  501    0  0.00000000000E+00  0.00000000000E+00  0.77811635688E+02  0.77821999129E+02  0.12700000000E+01 0.  1.
         -4   -1    0    0    0  501 -0.00000000000E+00 -0.00000000000E+00 -0.50175620571E+02  0.50191690544E+02  0.12700000000E+01 0.  1.
         25    2    1    2    0    0  0.00000000000E+00  0.00000000000E+00  0.27636015117E+02  0.12801368967E+03  0.12499502155E+03 0.  0.
    9000005    1    3    3    0    0 -0.25365575280E+02 -0.55765853000E+02  0.26431951102E+02  0.66729984333E+02  0.10000000000E+01 0.  0.
    9000005    1    3    3    0    0  0.25365575280E+02  0.55765853000E+02  0.12040640155E+01  0.61283705340E+02  0.10000000000E+01 0.  0.
<mgrwt>
<rscale>  0 0.12499502E+03</rscale>
<asrwt>0</asrwt>
<pdfrwt beam="1">  1        4 0.19456213E-01 0.12499502E+03</pdfrwt>
<pdfrwt beam="2">  1       -4 0.12547209E-01 0.12499502E+03</pdfrwt>
<totfact> 0.19674075E+03</totfact>
</mgrwt>
</event>
<event>
 5    1  0.1446384E-002  0.1250201E+03  0.7818608E-02  0.1235038E+00
          4   -1    0    0  501    0  0.00000000000E+00  0.00000000000E+00  0.23546174637E+03  0.23546517132E+03  0.12700000000E+01 0.  1.
         -4   -1    0    0    0  501 -0.00000000000E+00 -0.00000000000E+00 -0.16567230011E+02  0.16615836129E+02  0.12700000000E+01 0.  1.
         25    2    1    2    0    0  0.00000000000E+00  0.00000000000E+00  0.21889451636E+03  0.25208100745E+03  0.12502009848E+03 0.  0.
    9000005    1    3    3    0    0  0.88841624154E+01  0.58676864266E+02  0.14899001219E+03  0.16037745002E+03  0.10000000000E+01 0.  0.
    9000005    1    3    3    0    0 -0.88841624154E+01 -0.58676864266E+02  0.69904504167E+02  0.91703557427E+02  0.10000000000E+01 0.  0.
<mgrwt>
<rscale>  0 0.12502010E+03</rscale>
<asrwt>0</asrwt>
<pdfrwt beam="1">  1        4 0.58871940E-01 0.12502010E+03</pdfrwt>
<pdfrwt beam="2">  1       -4 0.41483114E-02 0.12502010E+03</pdfrwt>
<totfact> 0.14422349E+03</totfact>
</mgrwt>
</event>
<event>
 5    1  0.1446384E-002  0.1249905E+03  0.7818608E-02  0.1235084E+00
         -4   -1    0    0    0  501 -0.00000000000E+00  0.00000000000E+00  0.59404434420E+02  0.59418008455E+02  0.12700000000E+01 0. -1.
          4   -1    0    0  501    0  0.00000000000E+00 -0.00000000000E+00 -0.65719633740E+02  0.65731903661E+02  0.12700000000E+01 0. -1.
         25    2    1    2    0    0  0.00000000000E+00  0.00000000000E+00 -0.63151993192E+01  0.12514991212E+03  0.12499047468E+03 0.  0.
    9000005    1    3    3    0    0  0.10260372313E+02 -0.40530967701E+02 -0.49656261699E+02  0.64921328612E+02  0.10000000000E+01 0.  0.
    9000005    1    3    3    0    0 -0.10260372313E+02  0.40530967701E+02  0.43341062380E+02  0.60228583505E+02  0.10000000000E+01 0.  0.
<mgrwt>
<rscale>  0 0.12499047E+03</rscale>
<asrwt>0</asrwt>
<pdfrwt beam="2">  1        4 0.16433139E-01 0.12499047E+03</pdfrwt>
<pdfrwt beam="1">  1       -4 0.14854339E-01 0.12499047E+03</pdfrwt>
<totfact> 0.19831347E+03</totfact>
</mgrwt>
</event>
<event>
 5    1  0.1446384E-002  0.1250015E+03  0.7818608E-02  0.1235067E+00
         -4   -1    0    0    0  501 -0.00000000000E+00  0.00000000000E+00  0.18309182041E+03  0.18309622498E+03  0.12700000000E+01 0. -1.
          4   -1    0    0  501    0  0.00000000000E+00 -0.00000000000E+00 -0.21311861047E+02  0.21349667943E+02  0.12700000000E+01 0. -1.
         25    2    1    2    0    0  0.00000000000E+00  0.00000000000E+00  0.16177995936E+03  0.20444589292E+03  0.12500147151E+03 0.  0.
    9000005    1    3    3    0    0 -0.27041056148E+02  0.44439119851E+02  0.24249752420E+02  0.57403001517E+02  0.10000000000E+01 0.  0.
    9000005    1    3    3    0    0  0.27041056148E+02 -0.44439119851E+02  0.13753020694E+03  0.14704289140E+03  0.10000000000E+01 0.  0.
<mgrwt>
<rscale>  0 0.12500147E+03</rscale>
<asrwt>0</asrwt>
<pdfrwt beam="2">  1        4 0.53332418E-02 0.12500147E+03</pdfrwt>
<pdfrwt beam="1">  1       -4 0.45778230E-01 0.12500147E+03</pdfrwt>
<totfact> 0.16145007E+03</totfact>
</mgrwt>
</event>
<event>
 5    1  0.1446384E-002  0.1250044E+03  0.7818608E-02  0.1235062E+00
         -4   -1    0    0    0  501 -0.00000000000E+00  0.00000000000E+00  0.33303934764E+03  0.33304176911E+03  0.12700000000E+01 0.  1.
          4   -1    0    0  501    0  0.00000000000E+00 -0.00000000000E+00 -0.11693064905E+02  0.11761830932E+02  0.12700000000E+01 0.  1.
         25    2    1    2    0    0  0.00000000000E+00  0.00000000000E+00  0.32134628273E+03  0.34480360005E+03  0.12500435664E+03 0.  0.
    9000005    1    3    3    0    0 -0.31068440966E+02  0.44084036852E+02  0.73583533772E+02  0.91236981381E+02  0.10000000000E+01 0.  0.
    9000005    1    3    3    0    0  0.31068440966E+02 -0.44084036852E+02  0.24776274896E+03  0.25356661866E+03  0.10000000000E+01 0.  0.
<mgrwt>
<rscale>  0 0.12500436E+03</rscale>
<asrwt>0</asrwt>
<pdfrwt beam="2">  1        4 0.29321648E-02 0.12500436E+03</pdfrwt>
<pdfrwt beam="1">  1       -4 0.83268731E-01 0.12500436E+03</pdfrwt>
<totfact> 0.11801059E+03</totfact>
</mgrwt>
</event>
<event>
 5    1  0.1446384E-002  0.1250012E+03  0.7818608E-02  0.1235067E+00
         -4   -1    0    0    0  501 -0.00000000000E+00  0.00000000000E+00  0.24928874552E+02  0.24961203626E+02  0.12700000000E+01 0. -1.
          4   -1    0    0  501    0  0.00000000000E+00 -0.00000000000E+00 -0.15656227878E+03  0.15656742968E+03  0.12700000000E+01 0. -1.
         25    2    1    2    0    0  0.00000000000E+00  0.00000000000E+00 -0.13163340423E+03  0.18152863331E+03  0.12500116640E+03 0.  0.
    9000005    1    3    3    0    0 -0.47890323088E+02  0.41803137492E+01 -0.12380293902E+03  0.13281237058E+03  0.10000000000E+01 0.  0.
    9000005    1    3    3    0    0  0.47890323088E+02 -0.41803137492E+01 -0.78304652027E+01  0.48716262724E+02  0.10000000000E+01 0.  0.
<mgrwt>
<rscale>  0 0.12500117E+03</rscale>
<asrwt>0</asrwt>
<pdfrwt beam="2">  1        4 0.39145252E-01 0.12500117E+03</pdfrwt>
<pdfrwt beam="1">  1       -4 0.62369041E-02 0.12500117E+03</pdfrwt>
<totfact> 0.17088791E+03</totfact>
</mgrwt>
</event>
<event>
 5    1  0.1446384E-002  0.1250002E+03  0.7818608E-02  0.1235069E+00
          4   -1    0    0  501    0  0.00000000000E+00  0.00000000000E+00  0.16227038813E+03  0.16227535785E+03  0.12700000000E+01 0.  1.
         -4   -1    0    0    0  501 -0.00000000000E+00 -0.00000000000E+00 -0.24050462133E+02  0.24083970371E+02  0.12700000000E+01 0.  1.
         25    2    1    2    0    0  0.00000000000E+00  0.00000000000E+00  0.13821992600E+03  0.18635932822E+03  0.12500020508E+03 0.  0.
    9000005    1    3    3    0    0 -0.16802863770E+02  0.60050137753E+02  0.62979678140E+02  0.88632923531E+02  0.10000000000E+01 0.  0.
    9000005    1    3    3    0    0  0.16802863770E+02 -0.60050137753E+02  0.75240247859E+02  0.97726404687E+02  0.10000000000E+01 0.  0.
<mgrwt>
<rscale>  0 0.12500021E+03</rscale>
<asrwt>0</asrwt>
<pdfrwt beam="1">  1        4 0.40572407E-01 0.12500021E+03</pdfrwt>
<pdfrwt beam="2">  1       -4 0.60174253E-02 0.12500021E+03</pdfrwt>
<totfact> 0.16883131E+03</totfact>
</mgrwt>
</event>
<event>
 5    1  0.1446384E-002  0.1249993E+03  0.7818608E-02  0.1235070E+00
         -4   -1    0    0    0  501 -0.00000000000E+00  0.00000000000E+00  0.57490787889E+01  0.58876826444E+01  0.12700000000E+01 0.  1.
          4   -1    0    0  501    0  0.00000000000E+00 -0.00000000000E+00 -0.67121665871E+03  0.67121786019E+03  0.12700000000E+01 0.  1.
         25    2    1    2    0    0  0.00000000000E+00  0.00000000000E+00 -0.66546757992E+03  0.67710554283E+03  0.12499926481E+03 0.  0.
    9000005    1    3    3    0    0 -0.19619199299E+02 -0.98174868040E+01 -0.64969780176E+03  0.65006886530E+03  0.10000000000E+01 0.  0.
    9000005    1    3    3    0    0  0.19619199299E+02  0.98174868040E+01 -0.15769778165E+02  0.27036677526E+02  0.10000000000E+01 0.  0.
<mgrwt>
<rscale>  0 0.12499926E+03</rscale>
<asrwt>0</asrwt>
<pdfrwt beam="2">  1        4 0.16782138E+00 0.12499926E+03</pdfrwt>
<pdfrwt beam="1">  1       -4 0.14547476E-02 0.12499926E+03</pdfrwt>
<totfact> 0.64494084E+02</totfact>
</mgrwt>
</event>
<event>
 5    1  0.1446384E-002  0.1250018E+03  0.7818608E-02  0.1235066E+00
          4   -1    0    0  501    0  0.00000000000E+00  0.00000000000E+00  0.18126544671E+03  0.18126989565E+03  0.12700000000E+01 0.  1.
         -4   -1    0    0    0  501 -0.00000000000E+00 -0.00000000000E+00 -0.21527081681E+02  0.21564511256E+02  0.12700000000E+01 0.  1.
         25    2    1    2    0    0  0.00000000000E+00  0.00000000000E+00  0.15973836503E+03  0.20283440691E+03  0.12500180545E+03 0.  0.
    9000005    1    3    3    0    0  0.42213899318E+02 -0.28967500563E+02  0.13801886273E+03  0.14721187403E+03  0.10000000000E+01 0.  0.
    9000005    1    3    3    0    0 -0.42213899318E+02  0.28967500563E+02  0.21719502296E+02  0.55622532885E+02  0.10000000000E+01 0.  0.
<mgrwt>
<rscale>  0 0.12500181E+03</rscale>
<asrwt>0</asrwt>
<pdfrwt beam="1">  1        4 0.45321596E-01 0.12500181E+03</pdfrwt>
<pdfrwt beam="2">  1       -4 0.53870053E-02 0.12500181E+03</pdfrwt>
<totfact> 0.16208496E+03</totfact>
</mgrwt>
</event>
<event>
 5    1  0.1446384E-002  0.1249877E+03  0.7818608E-02  0.1235089E+00
          4   -1    0    0  501    0  0.00000000000E+00  0.00000000000E+00  0.11826617853E+03  0.11827299727E+03  0.12700000000E+01 0. -1.
         -4   -1    0    0    0  501 -0.00000000000E+00 -0.00000000000E+00 -0.33002810031E+02  0.33027236789E+02  0.12700000000E+01 0. -1.
         25    2    1    2    0    0  0.00000000000E+00  0.00000000000E+00  0.85263368495E+02  0.15130023406E+03  0.12498767467E+03 0.  0.
    9000005    1    3    3    0    0  0.39212626591E+02  0.33675614503E+02  0.12872350975E+00  0.51698101185E+02  0.10000000000E+01 0.  0.
    9000005    1    3    3    0    0 -0.39212626591E+02 -0.33675614503E+02  0.85134644986E+02  0.99602132875E+02  0.10000000000E+01 0.  0.
<mgrwt>
<rscale>  0 0.12498767E+03</rscale>
<asrwt>0</asrwt>
<pdfrwt beam="1">  1        4 0.29570450E-01 0.12498767E+03</pdfrwt>
<pdfrwt beam="2">  1       -4 0.82546083E-02 0.12498767E+03</pdfrwt>
<totfact> 0.18480332E+03</totfact>
</mgrwt>
</event>
<event>
 5    1  0.1446384E-002  0.1250003E+03  0.7818608E-02  0.1235069E+00
          4   -1    0    0  501    0  0.00000000000E+00  0.00000000000E+00  0.37824065002E+02  0.37845380078E+02  0.12700000000E+01 0. -1.
         -4   -1    0    0    0  501 -0.00000000000E+00 -0.00000000000E+00 -0.10322039376E+03  0.10322820636E+03  0.12700000000E+01 0. -1.
         25    2    1    2    0    0  0.00000000000E+00  0.00000000000E+00 -0.65396328762E+02  0.14107358644E+03  0.12500030790E+03 0.  0.
    9000005    1    3    3    0    0  0.42699194717E+01  0.57453103905E+02 -0.60022482867E+02  0.83203304081E+02  0.10000000000E+01 0.  0.
    9000005    1    3    3    0    0 -0.42699194717E+01 -0.57453103905E+02 -0.53738458949E+01  0.57870282359E+02  0.10000000000E+01 0.  0.
<mgrwt>
<rscale>  0 0.12500031E+03</rscale>
<asrwt>0</asrwt>
<pdfrwt beam="1">  1        4 0.94596574E-02 0.12500031E+03</pdfrwt>
<pdfrwt beam="2">  1       -4 0.25808739E-01 0.12500031E+03</pdfrwt>
<totfact> 0.18985417E+03</totfact>
</mgrwt>
</event>
<event>
 5    1  0.1446384E-002  0.1250009E+03  0.7818608E-02  0.1235068E+00
          4   -1    0    0  501    0  0.00000000000E+00  0.00000000000E+00  0.20584126215E+02  0.20623267249E+02  0.12700000000E+01 0. -1.
         -4   -1    0    0    0  501 -0.00000000000E+00 -0.00000000000E+00 -0.18955132964E+03  0.18955558411E+03  0.12700000000E+01 0. -1.
         25    2    1    2    0    0  0.00000000000E+00  0.00000000000E+00 -0.16896720342E+03  0.21017885136E+03  0.12500093490E+03 0.  0.
    9000005    1    3    3    0    0 -0.44695877925E+02 -0.25159482816E+02 -0.24454678179E+02  0.56830910286E+02  0.10000000000E+01 0.  0.
    9000005    1    3    3    0    0  0.44695877925E+02  0.25159482816E+02 -0.14451252525E+03  0.15334794107E+03  0.10000000000E+01 0.  0.
<mgrwt>
<rscale>  0 0.12500093E+03</rscale>
<asrwt>0</asrwt>
<pdfrwt beam="1">  1        4 0.51514566E-02 0.12500093E+03</pdfrwt>
<pdfrwt beam="2">  1       -4 0.47393252E-01 0.12500093E+03</pdfrwt>
<totfact> 0.15922076E+03</totfact>
</mgrwt>
</event>
<event>
 5    1  0.1446384E-002  0.1249953E+03  0.7818608E-02  0.1235077E+00
         -4   -1    0    0    0  501 -0.00000000000E+00  0.00000000000E+00  0.16268388802E+03  0.16268884511E+03  0.12700000000E+01 0.  1.
          4   -1    0    0  501    0  0.00000000000E+00 -0.00000000000E+00 -0.23987377953E+02  0.24020974190E+02  0.12700000000E+01 0.  1.
         25    2    1    2    0    0  0.00000000000E+00  0.00000000000E+00  0.13869651007E+03  0.18670981930E+03  0.12499533878E+03 0.  0.
    9000005    1    3    3    0    0  0.47497458659E+02  0.92515127542E+01  0.10286984586E+02  0.49481523008E+02  0.10000000000E+01 0.  0.
    9000005    1    3    3    0    0 -0.47497458659E+02 -0.92515127542E+01  0.12840952549E+03  0.13722829629E+03  0.10000000000E+01 0.  0.
<mgrwt>
<rscale>  0 0.12499534E+03</rscale>
<asrwt>0</asrwt>
<pdfrwt beam="2">  1        4 0.60016638E-02 0.12499534E+03</pdfrwt>
<pdfrwt beam="1">  1       -4 0.40675790E-01 0.12499534E+03</pdfrwt>
<totfact> 0.16870228E+03</totfact>
</mgrwt>
</event>
<event>
 5    1  0.1446384E-002  0.1250200E+03  0.7818608E-02  0.1235038E+00
         -4   -1    0    0    0  501 -0.00000000000E+00  0.00000000000E+00  0.82812483113E+02  0.82822220807E+02  0.12700000000E+01 0. -1.
          4   -1    0    0  501    0  0.00000000000E+00 -0.00000000000E+00 -0.47163860263E+02  0.47180956062E+02  0.12700000000E+01 0. -1.
         25    2    1    2    0    0  0.00000000000E+00  0.00000000000E+00  0.35648622850E+02  0.13000317687E+03  0.12502000514E+03 0.  0.
    9000005    1    3    3    0    0 -0.60582835682E+02  0.14053292148E+02  0.24295328279E+02  0.66776028451E+02  0.10000000000E+01 0.  0.
    9000005    1    3    3    0    0  0.60582835682E+02 -0.14053292148E+02  0.11353294572E+02  0.63227148418E+02  0.10000000000E+01 0.  0.
<mgrwt>
<rscale>  0 0.12502001E+03</rscale>
<asrwt>0</asrwt>
<pdfrwt beam="2">  1        4 0.11794319E-01 0.12502001E+03</pdfrwt>
<pdfrwt beam="1">  1       -4 0.20706475E-01 0.12502001E+03</pdfrwt>
<totfact> 0.19555079E+03</totfact>
</mgrwt>
</event>
<event>
 5    1  0.1446384E-002  0.1250121E+03  0.7818608E-02  0.1235050E+00
         -4   -1    0    0    0  501 -0.00000000000E+00  0.00000000000E+00  0.28743901387E+03  0.28744181949E+03  0.12700000000E+01 0. -1.
          4   -1    0    0  501    0  0.00000000000E+00 -0.00000000000E+00 -0.13559929247E+02  0.13619272418E+02  0.12700000000E+01 0. -1.
         25    2    1    2    0    0  0.00000000000E+00  0.00000000000E+00  0.27387908462E+03  0.30106109191E+03  0.12501211169E+03 0.  0.
    9000005    1    3    3    0    0  0.12253917985E+02  0.61271472655E+02  0.13384125815E+03  0.14771199765E+03  0.10000000000E+01 0.  0.
    9000005    1    3    3    0    0 -0.12253917985E+02 -0.61271472655E+02  0.14003782648E+03  0.15334909426E+03  0.10000000000E+01 0.  0.
<mgrwt>
<rscale>  0 0.12501211E+03</rscale>
<asrwt>0</asrwt>
<pdfrwt beam="2">  1        4 0.33977510E-02 0.12501211E+03</pdfrwt>
<pdfrwt beam="1">  1       -4 0.71867521E-01 0.12501211E+03</pdfrwt>
<totfact> 0.12937779E+03</totfact>
</mgrwt>
</event>
<event>
 5    1  0.1446384E-002  0.1249995E+03  0.7818608E-02  0.1235070E+00
          4   -1    0    0  501    0  0.00000000000E+00  0.00000000000E+00  0.18872456853E+03  0.18872884164E+03  0.12700000000E+01 0.  1.
         -4   -1    0    0    0  501 -0.00000000000E+00 -0.00000000000E+00 -0.20673981411E+02  0.20712952648E+02  0.12700000000E+01 0.  1.
         25    2    1    2    0    0  0.00000000000E+00  0.00000000000E+00  0.16805058712E+03  0.20944179428E+03  0.12499946145E+03 0.  0.
    9000005    1    3    3    0    0 -0.56522383878E+02 -0.21102862505E+02  0.56744015980E+02  0.82831117550E+02  0.10000000000E+01 0.  0.
    9000005    1    3    3    0    0  0.56522383878E+02  0.21102862505E+02  0.11130657114E+03  0.12661067673E+03  0.10000000000E+01 0.  0.
<mgrwt>
<rscale>  0 0.12499946E+03</rscale>
<asrwt>0</asrwt>
<pdfrwt beam="1">  1        4 0.47186547E-01 0.12499946E+03</pdfrwt>
<pdfrwt beam="2">  1       -4 0.51739010E-02 0.12499946E+03</pdfrwt>
<totfact> 0.15951030E+03</totfact>
</mgrwt>
</event>
<event>
 5    1  0.1446384E-002  0.1250024E+03  0.7818608E-02  0.1235066E+00
          4   -1    0    0  501    0  0.00000000000E+00  0.00000000000E+00  0.49445707988E+01  0.51050641900E+01  0.12700000000E+01 0.  1.
         -4   -1    0    0    0  501 -0.00000000000E+00 -0.00000000000E+00 -0.77725968780E+03  0.77726072536E+03  0.12700000000E+01 0.  1.
         25    2    1    2    0    0  0.00000000000E+00  0.00000000000E+00 -0.77231511700E+03  0.78236578955E+03  0.12500235478E+03 0.  0.
    9000005    1    3    3    0    0 -0.87434249691E+01  0.54587793648E+02 -0.56853739702E+03  0.57121978827E+03  0.10000000000E+01 0.  0.
    9000005    1    3    3    0    0  0.87434249691E+01 -0.54587793648E+02 -0.20377771998E+03  0.21114600128E+03  0.10000000000E+01 0.  0.
<mgrwt>
<rscale>  0 0.12500235E+03</rscale>
<asrwt>0</asrwt>
<pdfrwt beam="1">  1        4 0.12563367E-02 0.12500235E+03</pdfrwt>
<pdfrwt beam="2">  1       -4 0.19433470E+00 0.12500235E+03</pdfrwt>
<totfact> 0.54055650E+02</totfact>
</mgrwt>
</event>
<event>
 5    1  0.1446384E-002  0.1249969E+03  0.7818608E-02  0.1235074E+00
          4   -1    0    0  501    0  0.00000000000E+00  0.00000000000E+00  0.24143059675E+02  0.24176439574E+02  0.12700000000E+01 0.  1.
         -4   -1    0    0    0  501 -0.00000000000E+00 -0.00000000000E+00 -0.16164036925E+03  0.16164535834E+03  0.12700000000E+01 0.  1.
         25    2    1    2    0    0  0.00000000000E+00  0.00000000000E+00 -0.13749730958E+03  0.18582179791E+03  0.12499692172E+03 0.  0.
    9000005    1    3    3    0    0 -0.51970783272E+02 -0.25657197769E+02 -0.10347951159E+03  0.11860971053E+03  0.10000000000E+01 0.  0.
    9000005    1    3    3    0    0  0.51970783272E+02  0.25657197769E+02 -0.34017797987E+02  0.67212087389E+02  0.10000000000E+01 0.  0.
<mgrwt>
<rscale>  0 0.12499692E+03</rscale>
<asrwt>0</asrwt>
<pdfrwt beam="1">  1        4 0.60405615E-02 0.12499692E+03</pdfrwt>
<pdfrwt beam="2">  1       -4 0.40414885E-01 0.12499692E+03</pdfrwt>
<totfact> 0.16907162E+03</totfact>
</mgrwt>
</event>
<event>
 5    1  0.1446384E-002  0.1250002E+03  0.7818608E-02  0.1235069E+00
          4   -1    0    0  501    0  0.00000000000E+00  0.00000000000E+00  0.10344488946E+02  0.10422156761E+02  0.12700000000E+01 0.  1.
         -4   -1    0    0    0  501 -0.00000000000E+00 -0.00000000000E+00 -0.37612657762E+03  0.37612872170E+03  0.12700000000E+01 0.  1.
         25    2    1    2    0    0  0.00000000000E+00  0.00000000000E+00 -0.36578208867E+03  0.38655087846E+03  0.12500018099E+03 0.  0.
    9000005    1    3    3    0    0  0.26084742778E+02 -0.45450685727E+02 -0.77609261755E+02  0.93650286433E+02  0.10000000000E+01 0.  0.
    9000005    1    3    3    0    0 -0.26084742778E+02  0.45450685727E+02 -0.28817282692E+03  0.29290059203E+03  0.10000000000E+01 0.  0.
<mgrwt>
<rscale>  0 0.12500018E+03</rscale>
<asrwt>0</asrwt>
<pdfrwt beam="1">  1        4 0.25961000E-02 0.12500018E+03</pdfrwt>
<pdfrwt beam="2">  1       -4 0.94041575E-01 0.12500018E+03</pdfrwt>
<totfact> 0.10851534E+03</totfact>
</mgrwt>
</event>
<event>
 5    1  0.1446384E-002  0.1249984E+03  0.7818608E-02  0.1235072E+00
          4   -1    0    0  501    0  0.00000000000E+00  0.00000000000E+00  0.17763125489E+02  0.17808467849E+02  0.12700000000E+01 0. -1.
         -4   -1    0    0    0  501 -0.00000000000E+00 -0.00000000000E+00 -0.21957465082E+03  0.21957832357E+03  0.12700000000E+01 0. -1.
         25    2    1    2    0    0  0.00000000000E+00  0.00000000000E+00 -0.20181152533E+03  0.23738679142E+03  0.12499838793E+03 0.  0.
    9000005    1    3    3    0    0 -0.37666541768E+02  0.26774966352E+02 -0.21018926884E+02  0.50778563186E+02  0.10000000000E+01 0.  0.
    9000005    1    3    3    0    0  0.37666541768E+02 -0.26774966352E+02 -0.18079259845E+03  0.18660822824E+03  0.10000000000E+01 0.  0.
<mgrwt>
<rscale>  0 0.12499839E+03</rscale>
<asrwt>0</asrwt>
<pdfrwt beam="1">  1        4 0.44469089E-02 0.12499839E+03</pdfrwt>
<pdfrwt beam="2">  1       -4 0.54899781E-01 0.12499839E+03</pdfrwt>
<totfact> 0.14927464E+03</totfact>
</mgrwt>
</event>
<event>
 5    1  0.1446384E-002  0.1249946E+03  0.7818608E-02  0.1235078E+00
          4   -1    0    0  501    0  0.00000000000E+00  0.00000000000E+00  0.31735768324E+02  0.31761169549E+02  0.12700000000E+01 0.  1.
         -4   -1    0    0    0  501 -0.00000000000E+00 -0.00000000000E+00 -0.12299803851E+03  0.12300459494E+03  0.12700000000E+01 0.  1.
         25    2    1    2    0    0  0.00000000000E+00  0.00000000000E+00 -0.91262270183E+02  0.15476576449E+03  0.12499455948E+03 0.  0.
    9000005    1    3    3    0    0  0.54978550863E+02  0.23824192015E+02 -0.23666896844E+02  0.64431011061E+02  0.10000000000E+01 0.  0.
    9000005    1    3    3    0    0 -0.54978550863E+02 -0.23824192015E+02 -0.67595373339E+02  0.90334753429E+02  0.10000000000E+01 0.  0.
<mgrwt>
<rscale>  0 0.12499456E+03</rscale>
<asrwt>0</asrwt>
<pdfrwt beam="1">  1        4 0.79379371E-02 0.12499456E+03</pdfrwt>
<pdfrwt beam="2">  1       -4 0.30753503E-01 0.12499456E+03</pdfrwt>
<totfact> 0.18309220E+03</totfact>
</mgrwt>
</event>
<event>
 5    1  0.1446384E-002  0.1249967E+03  0.7818608E-02  0.1235074E+00
          4   -1    0    0  501    0  0.00000000000E+00  0.00000000000E+00  0.35329654925E+03  0.35329883189E+03  0.12700000000E+01 0.  1.
         -4   -1    0    0    0  501 -0.00000000000E+00 -0.00000000000E+00 -0.11017195369E+02  0.11090153010E+02  0.12700000000E+01 0.  1.
         25    2    1    2    0    0  0.00000000000E+00  0.00000000000E+00  0.34227935388E+03  0.36438898490E+03  0.12499670484E+03 0.  0.
    9000005    1    3    3    0    0  0.33267156048E+02  0.26472627357E+02  0.30465215033E+03  0.30760597584E+03  0.10000000000E+01 0.  0.
    9000005    1    3    3    0    0 -0.33267156048E+02 -0.26472627357E+02  0.37627203554E+02  0.56783009061E+02  0.10000000000E+01 0.  0.
<mgrwt>
<rscale>  0 0.12499670E+03</rscale>
<asrwt>0</asrwt>
<pdfrwt beam="1">  1        4 0.88333547E-01 0.12499670E+03</pdfrwt>
<pdfrwt beam="2">  1       -4 0.27637037E-02 0.12499670E+03</pdfrwt>
<totfact> 0.11342357E+03</totfact>
</mgrwt>
</event>
<event>
 5    1  0.1446384E-002  0.1249976E+03  0.7818608E-02  0.1235073E+00
         -4   -1    0    0    0  501 -0.00000000000E+00  0.00000000000E+00  0.19503760424E+03  0.19504173904E+03  0.12700000000E+01 0.  1.
          4   -1    0    0  501    0  0.00000000000E+00 -0.00000000000E+00 -0.20002921006E+02  0.20043197069E+02  0.12700000000E+01 0.  1.
         25    2    1    2    0    0  0.00000000000E+00  0.00000000000E+00  0.17503468324E+03  0.21508493611E+03  0.12499755760E+03 0.  0.
    9000005    1    3    3    0    0 -0.86370279848E+01 -0.51501681663E+02  0.28457116133E+02  0.59479651354E+02  0.10000000000E+01 0.  0.
    9000005    1    3    3    0    0  0.86370279848E+01  0.51501681663E+02  0.14657756710E+03  0.15560528476E+03  0.10000000000E+01 0.  0.
<mgrwt>
<rscale>  0 0.12499756E+03</rscale>
<asrwt>0</asrwt>
<pdfrwt beam="2">  1        4 0.50062816E-02 0.12499756E+03</pdfrwt>
<pdfrwt beam="1">  1       -4 0.48764952E-01 0.12499756E+03</pdfrwt>
<totfact> 0.15736208E+03</totfact>
</mgrwt>
</event>
<event>
 5    1  0.1446384E-002  0.1250005E+03  0.7818608E-02  0.1235069E+00
         -4   -1    0    0    0  501 -0.00000000000E+00  0.00000000000E+00  0.25363892300E+03  0.25364210250E+03  0.12700000000E+01 0.  1.
          4   -1    0    0  501    0  0.00000000000E+00 -0.00000000000E+00 -0.15371485966E+02  0.15423860762E+02  0.12700000000E+01 0.  1.
         25    2    1    2    0    0  0.00000000000E+00  0.00000000000E+00  0.23826743703E+03  0.26906596326E+03  0.12500048414E+03 0.  0.
    9000005    1    3    3    0    0 -0.51336820545E+02  0.34173590833E+02  0.14087062655E+03  0.15378178331E+03  0.10000000000E+01 0.  0.
    9000005    1    3    3    0    0  0.51336820545E+02 -0.34173590833E+02  0.97396810478E+02  0.11528417994E+03  0.10000000000E+01 0.  0.
<mgrwt>
<rscale>  0 0.12500048E+03</rscale>
<asrwt>0</asrwt>
<pdfrwt beam="2">  1        4 0.38498157E-02 0.12500048E+03</pdfrwt>
<pdfrwt beam="1">  1       -4 0.63416676E-01 0.12500048E+03</pdfrwt>
<totfact> 0.13884434E+03</totfact>
</mgrwt>
</event>
<event>
 5    1  0.1446384E-002  0.1250004E+03  0.7818608E-02  0.1235069E+00
          4   -1    0    0  501    0  0.00000000000E+00  0.00000000000E+00  0.40549721585E+02  0.40569604640E+02  0.12700000000E+01 0.  1.
         -4   -1    0    0    0  501 -0.00000000000E+00 -0.00000000000E+00 -0.96285220820E+02  0.96293596092E+02  0.12700000000E+01 0.  1.
         25    2    1    2    0    0  0.00000000000E+00  0.00000000000E+00 -0.55735499235E+02  0.13686320073E+03  0.12500035936E+03 0.  0.
    9000005    1    3    3    0    0  0.40329096794E+02  0.19247670791E+02 -0.75698367453E+02  0.87909906803E+02  0.10000000000E+01 0.  0.
    9000005    1    3    3    0    0 -0.40329096794E+02 -0.19247670791E+02  0.19962868218E+02  0.48953293930E+02  0.10000000000E+01 0.  0.
<mgrwt>
<rscale>  0 0.12500036E+03</rscale>
<asrwt>0</asrwt>
<pdfrwt beam="1">  1        4 0.10140963E-01 0.12500036E+03</pdfrwt>
<pdfrwt beam="2">  1       -4 0.24074837E-01 0.12500036E+03</pdfrwt>
<totfact> 0.19201823E+03</totfact>
</mgrwt>
</event>
<event>
 5    1  0.1446384E-002  0.1250007E+03  0.7818608E-02  0.1235068E+00
          4   -1    0    0  501    0  0.00000000000E+00  0.00000000000E+00  0.69338554171E+01  0.70492021495E+01  0.12700000000E+01 0. -1.
         -4   -1    0    0    0  501 -0.00000000000E+00 -0.00000000000E+00 -0.55860180305E+03  0.55860324674E+03  0.12700000000E+01 0. -1.
         25    2    1    2    0    0  0.00000000000E+00  0.00000000000E+00 -0.55166794763E+03  0.56565244889E+03  0.12500067396E+03 0.  0.
    9000005    1    3    3    0    0 -0.49317302591E+02 -0.25164256612E+02 -0.40697534667E+03  0.41072541794E+03  0.10000000000E+01 0.  0.
    9000005    1    3    3    0    0  0.49317302591E+02  0.25164256612E+02 -0.14469260096E+03  0.15492703095E+03  0.10000000000E+01 0.  0.
<mgrwt>
<rscale>  0 0.12500067E+03</rscale>
<asrwt>0</asrwt>
<pdfrwt beam="1">  1        4 0.17480646E-02 0.12500067E+03</pdfrwt>
<pdfrwt beam="2">  1       -4 0.13966490E+00 0.12500067E+03</pdfrwt>
<totfact> 0.78000676E+02</totfact>
</mgrwt>
</event>
<event>
 5    1  0.1446384E-002  0.1250029E+03  0.7818608E-02  0.1235065E+00
          4   -1    0    0  501    0  0.00000000000E+00  0.00000000000E+00  0.20373652459E+02  0.20413197067E+02  0.12700000000E+01 0.  1.
         -4   -1    0    0    0  501 -0.00000000000E+00 -0.00000000000E+00 -0.19151170587E+03  0.19151591680E+03  0.12700000000E+01 0.  1.
         25    2    1    2    0    0  0.00000000000E+00  0.00000000000E+00 -0.17113805342E+03  0.21192911386E+03  0.12500286387E+03 0.  0.
    9000005    1    3    3    0    0  0.34146572613E+02  0.52841905594E+01 -0.17385198901E+03  0.17725525429E+03  0.10000000000E+01 0.  0.
    9000005    1    3    3    0    0 -0.34146572613E+02 -0.52841905594E+01  0.27139355975E+01  0.34673859571E+02  0.10000000000E+01 0.  0.
<mgrwt>
<rscale>  0 0.12500286E+03</rscale>
<asrwt>0</asrwt>
<pdfrwt beam="1">  1        4 0.50988831E-02 0.12500286E+03</pdfrwt>
<pdfrwt beam="2">  1       -4 0.47883390E-01 0.12500286E+03</pdfrwt>
<totfact> 0.15854221E+03</totfact>
</mgrwt>
</event>
<event>
 5    1  0.1446384E-002  0.1250025E+03  0.7818608E-02  0.1235065E+00
          4   -1    0    0  501    0  0.00000000000E+00  0.00000000000E+00  0.57746764305E+02  0.57760727901E+02  0.12700000000E+01 0. -1.
         -4   -1    0    0    0  501 -0.00000000000E+00 -0.00000000000E+00 -0.67619107781E+02  0.67631033092E+02  0.12700000000E+01 0. -1.
         25    2    1    2    0    0  0.00000000000E+00  0.00000000000E+00 -0.98723434754E+01  0.12539176099E+03  0.12500252221E+03 0.  0.
    9000005    1    3    3    0    0 -0.45727402237E+02 -0.13654927924E+02 -0.45409736705E+02  0.65882445003E+02  0.10000000000E+01 0.  0.
    9000005    1    3    3    0    0  0.45727402237E+02  0.13654927924E+02  0.35537393230E+02  0.59509315990E+02  0.10000000000E+01 0.  0.
<mgrwt>
<rscale>  0 0.12500252E+03</rscale>
<asrwt>0</asrwt>
<pdfrwt beam="1">  1        4 0.14439927E-01 0.12500252E+03</pdfrwt>
<pdfrwt beam="2">  1       -4 0.16908013E-01 0.12500252E+03</pdfrwt>
<totfact> 0.19812655E+03</totfact>
</mgrwt>
</event>
<event>
 5    1  0.1446384E-002  0.1249978E+03  0.7818608E-02  0.1235073E+00
         -4   -1    0    0    0  501 -0.00000000000E+00  0.00000000000E+00  0.39574618708E+01  0.41562488447E+01  0.12700000000E+01 0.  1.
          4   -1    0    0  501    0  0.00000000000E+00 -0.00000000000E+00 -0.96264246783E+03  0.96264330558E+03  0.12700000000E+01 0.  1.
         25    2    1    2    0    0  0.00000000000E+00  0.00000000000E+00 -0.95868500596E+03  0.96679955442E+03  0.12499775109E+03 0.  0.
    9000005    1    3    3    0    0 -0.55304485681E+02 -0.29073787656E+02 -0.47073601480E+03  0.47486552507E+03  0.10000000000E+01 0.  0.
    9000005    1    3    3    0    0  0.55304485681E+02  0.29073787656E+02 -0.48794899115E+03  0.49193402935E+03  0.10000000000E+01 0.  0.
<mgrwt>
<rscale>  0 0.12499775E+03</rscale>
<asrwt>0</asrwt>
<pdfrwt beam="2">  1        4 0.24068479E+00 0.12499775E+03</pdfrwt>
<pdfrwt beam="1">  1       -4 0.10143219E-02 0.12499775E+03</pdfrwt>
<totfact> 0.39389524E+02</totfact>
</mgrwt>
</event>
<event>
 5    1  0.1446384E-002  0.1250049E+03  0.7818608E-02  0.1235062E+00
          4   -1    0    0  501    0  0.00000000000E+00  0.00000000000E+00  0.44111241797E+02  0.44129520198E+02  0.12700000000E+01 0.  1.
         -4   -1    0    0    0  501 -0.00000000000E+00 -0.00000000000E+00 -0.88520304022E+02  0.88529413892E+02  0.12700000000E+01 0.  1.
         25    2    1    2    0    0  0.00000000000E+00  0.00000000000E+00 -0.44409062225E+02  0.13265893409E+03  0.12500491185E+03 0.  0.
    9000005    1    3    3    0    0 -0.23312437318E+02  0.56408941021E+02 -0.79619484199E+01  0.61561603159E+02  0.10000000000E+01 0.  0.
    9000005    1    3    3    0    0  0.23312437318E+02 -0.56408941021E+02 -0.36447113805E+02  0.71097330931E+02  0.10000000000E+01 0.  0.
<mgrwt>
<rscale>  0 0.12500491E+03</rscale>
<asrwt>0</asrwt>
<pdfrwt beam="1">  1        4 0.11031234E-01 0.12500491E+03</pdfrwt>
<pdfrwt beam="2">  1       -4 0.22133499E-01 0.12500491E+03</pdfrwt>
<totfact> 0.19420248E+03</totfact>
</mgrwt>
</event>
<event>
 5    1  0.1446384E-002  0.1249980E+03  0.7818608E-02  0.1235072E+00
         -4   -1    0    0    0  501 -0.00000000000E+00  0.00000000000E+00  0.11319523091E+03  0.11320235510E+03  0.12700000000E+01 0.  1.
          4   -1    0    0  501    0  0.00000000000E+00 -0.00000000000E+00 -0.34487935775E+02  0.34511311392E+02  0.12700000000E+01 0.  1.
         25    2    1    2    0    0  0.00000000000E+00  0.00000000000E+00  0.78707295136E+02  0.14771366650E+03  0.12499795583E+03 0.  0.
    9000005    1    3    3    0    0 -0.54158165294E+02  0.28568324117E+02  0.24600191003E+02  0.65995646888E+02  0.10000000000E+01 0.  0.
    9000005    1    3    3    0    0  0.54158165294E+02 -0.28568324117E+02  0.54107104133E+02  0.81718019607E+02  0.10000000000E+01 0.  0.
<mgrwt>
<rscale>  0 0.12499796E+03</rscale>
<asrwt>0</asrwt>
<pdfrwt beam="2">  1        4 0.86257965E-02 0.12499796E+03</pdfrwt>
<pdfrwt beam="1">  1       -4 0.28302620E-01 0.12499796E+03</pdfrwt>
<totfact> 0.18652662E+03</totfact>
</mgrwt>
</event>
<event>
 5    1  0.1446384E-002  0.1250009E+03  0.7818608E-02  0.1235068E+00
         -4   -1    0    0    0  501 -0.00000000000E+00  0.00000000000E+00  0.40062806885E+02  0.40082931473E+02  0.12700000000E+01 0.  1.
          4   -1    0    0  501    0  0.00000000000E+00 -0.00000000000E+00 -0.97455859312E+02  0.97464133989E+02  0.12700000000E+01 0.  1.
         25    2    1    2    0    0  0.00000000000E+00  0.00000000000E+00 -0.57393052427E+02  0.13754706546E+03  0.12500093100E+03 0.  0.
    9000005    1    3    3    0    0  0.21222509635E+02 -0.16768727937E+02 -0.90686662860E+02  0.94639611012E+02  0.10000000000E+01 0.  0.
    9000005    1    3    3    0    0 -0.21222509635E+02  0.16768727937E+02  0.33293610432E+02  0.42907454451E+02  0.10000000000E+01 0.  0.
<mgrwt>
<rscale>  0 0.12500093E+03</rscale>
<asrwt>0</asrwt>
<pdfrwt beam="2">  1        4 0.24367514E-01 0.12500093E+03</pdfrwt>
<pdfrwt beam="1">  1       -4 0.10019252E-01 0.12500093E+03</pdfrwt>
<totfact> 0.19166126E+03</totfact>
</mgrwt>
</event>
<event>
 5    1  0.1446384E-002  0.1250015E+03  0.7818608E-02  0.1235067E+00
         -4   -1    0    0    0  501 -0.00000000000E+00  0.00000000000E+00  0.15990408126E+03  0.15990912451E+03  0.12700000000E+01 0.  1.
          4   -1    0    0  501    0  0.00000000000E+00 -0.00000000000E+00 -0.24407347035E+02  0.24440365981E+02  0.12700000000E+01 0.  1.
         25    2    1    2    0    0  0.00000000000E+00  0.00000000000E+00  0.13549673422E+03  0.18434949049E+03  0.12500147863E+03 0.  0.
    9000005    1    3    3    0    0  0.56313547598E+02 -0.48274521948E+01  0.10706781107E+03  0.12107450642E+03  0.10000000000E+01 0.  0.
    9000005    1    3    3    0    0 -0.56313547598E+02  0.48274521948E+01  0.28428923152E+02  0.63274984072E+02  0.10000000000E+01 0.  0.
<mgrwt>
<rscale>  0 0.12500148E+03</rscale>
<asrwt>0</asrwt>
<pdfrwt beam="2">  1        4 0.61065946E-02 0.12500148E+03</pdfrwt>
<pdfrwt beam="1">  1       -4 0.39980778E-01 0.12500148E+03</pdfrwt>
<totfact> 0.16967926E+03</totfact>
</mgrwt>
</event>
<event>
 5    1  0.1446384E-002  0.1250087E+03  0.7818608E-02  0.1235056E+00
          4   -1    0    0  501    0  0.00000000000E+00  0.00000000000E+00  0.12053589813E+02  0.12120310531E+02  0.12700000000E+01 0.  1.
         -4   -1    0    0    0  501 -0.00000000000E+00 -0.00000000000E+00 -0.32315590502E+03  0.32315840055E+03  0.12700000000E+01 0.  1.
         25    2    1    2    0    0  0.00000000000E+00  0.00000000000E+00 -0.31110231520E+03  0.33527871108E+03  0.12500865402E+03 0.  0.
    9000005    1    3    3    0    0  0.22778698644E+02  0.52242074716E+01 -0.31100862501E+03  0.31188704091E+03  0.10000000000E+01 0.  0.
    9000005    1    3    3    0    0 -0.22778698644E+02 -0.52242074716E+01 -0.93690191131E-01  0.23391670173E+02  0.10000000000E+01 0.  0.
<mgrwt>
<rscale>  0 0.12500865E+03</rscale>
<asrwt>0</asrwt>
<pdfrwt beam="1">  1        4 0.30220506E-02 0.12500865E+03</pdfrwt>
<pdfrwt beam="2">  1       -4 0.80797600E-01 0.12500865E+03</pdfrwt>
<totfact> 0.12034518E+03</totfact>
</mgrwt>
</event>
<event>
 5    1  0.1446384E-002  0.1249999E+03  0.7818608E-02  0.1235069E+00
         -4   -1    0    0    0  501 -0.00000000000E+00  0.00000000000E+00  0.42068888560E+02  0.42088053942E+02  0.12700000000E+01 0. -1.
          4   -1    0    0  501    0  0.00000000000E+00 -0.00000000000E+00 -0.92808920568E+02  0.92817609520E+02  0.12700000000E+01 0. -1.
         25    2    1    2    0    0  0.00000000000E+00  0.00000000000E+00 -0.50740032009E+02  0.13490566346E+03  0.12499994874E+03 0.  0.
    9000005    1    3    3    0    0 -0.20195173128E+02 -0.22052232105E+02  0.33851974057E+02  0.45178558034E+02  0.10000000000E+01 0.  0.
    9000005    1    3    3    0    0  0.20195173128E+02  0.22052232105E+02 -0.84592006065E+02  0.89727105429E+02  0.10000000000E+01 0.  0.
<mgrwt>
<rscale>  0 0.12499995E+03</rscale>
<asrwt>0</asrwt>
<pdfrwt beam="2">  1        4 0.23205712E-01 0.12499995E+03</pdfrwt>
<pdfrwt beam="1">  1       -4 0.10520704E-01 0.12499995E+03</pdfrwt>
<totfact> 0.19304102E+03</totfact>
</mgrwt>
</event>
<event>
 5    1  0.1446384E-002  0.1250002E+03  0.7818608E-02  0.1235069E+00
         -4   -1    0    0    0  501 -0.00000000000E+00  0.00000000000E+00  0.70035066627E+02  0.70046580627E+02  0.12700000000E+01 0.  1.
          4   -1    0    0  501    0  0.00000000000E+00 -0.00000000000E+00 -0.55752458613E+02  0.55766921570E+02  0.12700000000E+01 0.  1.
         25    2    1    2    0    0  0.00000000000E+00  0.00000000000E+00  0.14282608014E+02  0.12581350220E+03  0.12500017777E+03 0.  0.
    9000005    1    3    3    0    0  0.40674957011E+02  0.46328196318E+02 -0.31480887648E+01  0.61738678029E+02  0.10000000000E+01 0.  0.
    9000005    1    3    3    0    0 -0.40674957011E+02 -0.46328196318E+02  0.17430696779E+02  0.64074824168E+02  0.10000000000E+01 0.  0.
<mgrwt>
<rscale>  0 0.12500018E+03</rscale>
<asrwt>0</asrwt>
<pdfrwt beam="2">  1        4 0.13941362E-01 0.12500018E+03</pdfrwt>
<pdfrwt beam="1">  1       -4 0.17512014E-01 0.12500018E+03</pdfrwt>
<totfact> 0.19790919E+03</totfact>
</mgrwt>
</event>
<event>
 5    1  0.1446384E-002  0.1249993E+03  0.7818608E-02  0.1235070E+00
          4   -1    0    0  501    0  0.00000000000E+00  0.00000000000E+00  0.13789009422E+03  0.13789594260E+03  0.12700000000E+01 0.  1.
         -4   -1    0    0    0  501 -0.00000000000E+00 -0.00000000000E+00 -0.28307730660E+02  0.28336205023E+02  0.12700000000E+01 0.  1.
         25    2    1    2    0    0  0.00000000000E+00  0.00000000000E+00  0.10958236356E+03  0.16623214762E+03  0.12499932999E+03 0.  0.
    9000005    1    3    3    0    0  0.26484444469E+02  0.25234405494E+01 -0.20406907492E+02  0.33544528980E+02  0.10000000000E+01 0.  0.
    9000005    1    3    3    0    0 -0.26484444469E+02 -0.25234405494E+01  0.12998927106E+03  0.13268761864E+03  0.10000000000E+01 0.  0.
<mgrwt>
<rscale>  0 0.12499933E+03</rscale>
<asrwt>0</asrwt>
<pdfrwt beam="1">  1        4 0.34476813E-01 0.12499933E+03</pdfrwt>
<pdfrwt beam="2">  1       -4 0.70812231E-02 0.12499933E+03</pdfrwt>
<totfact> 0.17768621E+03</totfact>
</mgrwt>
</event>
<event>
 5    1  0.1446384E-002  0.1249994E+03  0.7818608E-02  0.1235070E+00
          4   -1    0    0  501    0  0.00000000000E+00  0.00000000000E+00  0.30879903302E+03  0.30880164458E+03  0.12700000000E+01 0.  1.
         -4   -1    0    0    0  501 -0.00000000000E+00 -0.00000000000E+00 -0.12615145232E+02  0.12678911201E+02  0.12700000000E+01 0.  1.
         25    2    1    2    0    0  0.00000000000E+00  0.00000000000E+00  0.29618388779E+03  0.32148055578E+03  0.12499940943E+03 0.  0.
    9000005    1    3    3    0    0 -0.42254444085E+02  0.30304598062E+02  0.58948026217E+02  0.78610918476E+02  0.10000000000E+01 0.  0.
    9000005    1    3    3    0    0  0.42254444085E+02 -0.30304598062E+02  0.23723586157E+03  0.24286963731E+03  0.10000000000E+01 0.  0.
<mgrwt>
<rscale>  0 0.12499941E+03</rscale>
<asrwt>0</asrwt>
<pdfrwt beam="1">  1        4 0.77208057E-01 0.12499941E+03</pdfrwt>
<pdfrwt beam="2">  1       -4 0.31620834E-02 0.12499941E+03</pdfrwt>
<totfact> 0.12389851E+03</totfact>
</mgrwt>
</event>
<event>
 5    1  0.1446384E-002  0.1249999E+03  0.7818608E-02  0.1235070E+00
         -4   -1    0    0    0  501 -0.00000000000E+00  0.00000000000E+00  0.40122275324E+02  0.40142370099E+02  0.12700000000E+01 0. -1.
          4   -1    0    0  501    0  0.00000000000E+00 -0.00000000000E+00 -0.97309803109E+02  0.97318090205E+02  0.12700000000E+01 0. -1.
         25    2    1    2    0    0  0.00000000000E+00  0.00000000000E+00 -0.57187527785E+02  0.13746046030E+03  0.12499985925E+03 0.  0.
    9000005    1    3    3    0    0  0.27778520232E+02 -0.54407026277E+02 -0.14110011364E+02  0.62704570131E+02  0.10000000000E+01 0.  0.
    9000005    1    3    3    0    0 -0.27778520232E+02  0.54407026277E+02 -0.43077516420E+02  0.74755890173E+02  0.10000000000E+01 0.  0.
<mgrwt>
<rscale>  0 0.12499986E+03</rscale>
<asrwt>0</asrwt>
<pdfrwt beam="2">  1        4 0.24330998E-01 0.12499986E+03</pdfrwt>
<pdfrwt beam="1">  1       -4 0.10034117E-01 0.12499986E+03</pdfrwt>
<totfact> 0.19171087E+03</totfact>
</mgrwt>
</event>
<event>
 5    1  0.1446384E-002  0.1249988E+03  0.7818608E-02  0.1235071E+00
          4   -1    0    0  501    0  0.00000000000E+00  0.00000000000E+00  0.24397975678E+02  0.24431007289E+02  0.12700000000E+01 0. -1.
         -4   -1    0    0    0  501 -0.00000000000E+00 -0.00000000000E+00 -0.15995855271E+03  0.15996359425E+03  0.12700000000E+01 0. -1.
         25    2    1    2    0    0  0.00000000000E+00  0.00000000000E+00 -0.13556057703E+03  0.18439460154E+03  0.12499879612E+03 0.  0.
    9000005    1    3    3    0    0 -0.61304023282E+02  0.79554294269E+01 -0.81276501516E+02  0.10211925297E+03  0.10000000000E+01 0.  0.
    9000005    1    3    3    0    0  0.61304023282E+02 -0.79554294269E+01 -0.54284075518E+02  0.82275348573E+02  0.10000000000E+01 0.  0.
<mgrwt>
<rscale>  0 0.12499880E+03</rscale>
<asrwt>0</asrwt>
<pdfrwt beam="1">  1        4 0.61042535E-02 0.12499880E+03</pdfrwt>
<pdfrwt beam="2">  1       -4 0.39994394E-01 0.12499880E+03</pdfrwt>
<totfact> 0.16967058E+03</totfact>
</mgrwt>
</event>
<event>
 5    1  0.1446384E-002  0.1249976E+03  0.7818608E-02  0.1235073E+00
          4   -1    0    0  501    0  0.00000000000E+00  0.00000000000E+00  0.62143173204E+02  0.62156149140E+02  0.12700000000E+01 0. -1.
         -4   -1    0    0    0  501 -0.00000000000E+00 -0.00000000000E+00 -0.62830523131E+02  0.62843357142E+02  0.12700000000E+01 0. -1.
         25    2    1    2    0    0  0.00000000000E+00  0.00000000000E+00 -0.68734992667E+00  0.12499950628E+03  0.12499761646E+03 0.  0.
    9000005    1    3    3    0    0 -0.17785574707E+02  0.57724653589E+02  0.15676515136E+02  0.62411660981E+02  0.10000000000E+01 0.  0.
    9000005    1    3    3    0    0  0.17785574707E+02 -0.57724653589E+02 -0.16363865063E+02  0.62587845301E+02  0.10000000000E+01 0.  0.
<mgrwt>
<rscale>  0 0.12499762E+03</rscale>
<asrwt>0</asrwt>
<pdfrwt beam="1">  1        4 0.15539020E-01 0.12499762E+03</pdfrwt>
<pdfrwt beam="2">  1       -4 0.15710857E-01 0.12499762E+03</pdfrwt>
<totfact> 0.19836188E+03</totfact>
</mgrwt>
</event>
<event>
 5    1  0.1446384E-002  0.1250006E+03  0.7818608E-02  0.1235068E+00
          4   -1    0    0  501    0  0.00000000000E+00  0.00000000000E+00  0.23041864876E+02  0.23076837672E+02  0.12700000000E+01 0.  1.
         -4   -1    0    0    0  501 -0.00000000000E+00 -0.00000000000E+00 -0.16936420502E+03  0.16936896659E+03  0.12700000000E+01 0.  1.
         25    2    1    2    0    0  0.00000000000E+00  0.00000000000E+00 -0.14632234014E+03  0.19244580426E+03  0.12500064140E+03 0.  0.
    9000005    1    3    3    0    0  0.57165113595E+02  0.24844067003E+02 -0.66239624104E+02  0.90960242299E+02  0.10000000000E+01 0.  0.
    9000005    1    3    3    0    0 -0.57165113595E+02 -0.24844067003E+02 -0.80082716041E+02  0.10148556196E+03  0.10000000000E+01 0.  0.
<mgrwt>
<rscale>  0 0.12500064E+03</rscale>
<asrwt>0</asrwt>
<pdfrwt beam="1">  1        4 0.57654335E-02 0.12500064E+03</pdfrwt>
<pdfrwt beam="2">  1       -4 0.42346014E-01 0.12500064E+03</pdfrwt>
<totfact> 0.16628813E+03</totfact>
</mgrwt>
</event>
<event>
 5    1  0.1446384E-002  0.1250005E+03  0.7818608E-02  0.1235069E+00
         -4   -1    0    0    0  501 -0.00000000000E+00  0.00000000000E+00  0.46668274096E+01  0.48365460890E+01  0.12700000000E+01 0. -1.
          4   -1    0    0  501    0  0.00000000000E+00 -0.00000000000E+00 -0.82191252371E+03  0.82191350490E+03  0.12700000000E+01 0. -1.
         25    2    1    2    0    0  0.00000000000E+00  0.00000000000E+00 -0.81724569630E+03  0.82675005099E+03  0.12500047473E+03 0.  0.
    9000005    1    3    3    0    0  0.52427156268E+02  0.14695043885E+02 -0.61148206821E+03  0.61390216710E+03  0.10000000000E+01 0.  0.
    9000005    1    3    3    0    0 -0.52427156268E+02 -0.14695043885E+02 -0.20576362809E+03  0.21284788389E+03  0.10000000000E+01 0.  0.
<mgrwt>
<rscale>  0 0.12500047E+03</rscale>
<asrwt>0</asrwt>
<pdfrwt beam="2">  1        4 0.20549898E+00 0.12500047E+03</pdfrwt>
<pdfrwt beam="1">  1       -4 0.11880471E-02 0.12500047E+03</pdfrwt>
<totfact> 0.50165218E+02</totfact>
</mgrwt>
</event>
<event>
 5    1  0.1446384E-002  0.1250008E+03  0.7818608E-02  0.1235068E+00
         -4   -1    0    0    0  501 -0.00000000000E+00  0.00000000000E+00  0.61957334268E+01  0.63245563240E+01  0.12700000000E+01 0. -1.
          4   -1    0    0  501    0  0.00000000000E+00 -0.00000000000E+00 -0.62386548926E+03  0.62386678192E+03  0.12700000000E+01 0. -1.
         25    2    1    2    0    0  0.00000000000E+00  0.00000000000E+00 -0.61766975583E+03  0.63019133824E+03  0.12500078213E+03 0.  0.
    9000005    1    3    3    0    0  0.37871572864E+02 -0.40535914663E+02 -0.16377609015E+03  0.17291912594E+03  0.10000000000E+01 0.  0.
    9000005    1    3    3    0    0 -0.37871572864E+02  0.40535914663E+02 -0.45389366568E+03  0.45727221231E+03  0.10000000000E+01 0.  0.
<mgrwt>
<rscale>  0 0.12500078E+03</rscale>
<asrwt>0</asrwt>
<pdfrwt beam="2">  1        4 0.15598243E+00 0.12500078E+03</pdfrwt>
<pdfrwt beam="1">  1       -4 0.15651999E-02 0.12500078E+03</pdfrwt>
<totfact> 0.69822793E+02</totfact>
</mgrwt>
</event>
<event>
 5    1  0.1446384E-002  0.1250028E+03  0.7818608E-02  0.1235065E+00
         -4   -1    0    0    0  501 -0.00000000000E+00  0.00000000000E+00  0.62975718797E+02  0.62988523224E+02  0.12700000000E+01 0. -1.
          4   -1    0    0  501    0  0.00000000000E+00 -0.00000000000E+00 -0.62005072333E+02  0.62018077163E+02  0.12700000000E+01 0. -1.
         25    2    1    2    0    0  0.00000000000E+00  0.00000000000E+00  0.97064646321E+00  0.12500660039E+03  0.12500283191E+03 0.  0.
    9000005    1    3    3    0    0 -0.38978624688E+02 -0.40629687967E+02 -0.26632320581E+02  0.62292738152E+02  0.10000000000E+01 0.  0.
    9000005    1    3    3    0    0  0.38978624688E+02  0.40629687967E+02  0.27602967044E+02  0.62713862236E+02  0.10000000000E+01 0.  0.
<mgrwt>
<rscale>  0 0.12500283E+03</rscale>
<asrwt>0</asrwt>
<pdfrwt beam="2">  1        4 0.15504494E-01 0.12500283E+03</pdfrwt>
<pdfrwt beam="1">  1       -4 0.15747156E-01 0.12500283E+03</pdfrwt>
<totfact> 0.19833383E+03</totfact>
</mgrwt>
</event>
<event>
 4    1  0.1446384E-002  0.1256364E+03  0.7818608E-02  0.1234078E+00
         -4   -1    0    0    0  501 -0.00000000000E+00  0.00000000000E+00  0.36646047770E+02  0.36668047633E+02  0.12700000000E+01 0.  1.
          4   -1    0    0  501    0  0.00000000000E+00 -0.00000000000E+00 -0.10762407974E+03  0.10763157269E+03  0.12700000000E+01 0.  1.
    9000005    1    1    2    0    0  0.11643119386E+02  0.57507310845E+02 -0.61234771303E+02  0.84813620641E+02  0.10000000000E+01 0.  0.
    9000005    1    1    2    0    0 -0.11643119386E+02 -0.57507310845E+02 -0.97432606659E+01  0.59485999682E+02  0.10000000000E+01 0.  0.
<mgrwt>
<rscale>  0 0.12563638E+03</rscale>
<asrwt>0</asrwt>
<pdfrwt beam="2">  1        4 0.26909706E-01 0.12563638E+03</pdfrwt>
<pdfrwt beam="1">  1       -4 0.91651988E-02 0.12563638E+03</pdfrwt>
<totfact> 0.18546028E+03</totfact>
</mgrwt>
</event>
<event>
 5    1  0.1446384E-002  0.1250029E+03  0.7818608E-02  0.1235065E+00
          4   -1    0    0  501    0  0.00000000000E+00  0.00000000000E+00  0.10630650785E+02  0.10706242857E+02  0.12700000000E+01 0.  1.
         -4   -1    0    0    0  501 -0.00000000000E+00 -0.00000000000E+00 -0.36609030867E+03  0.36609251153E+03  0.12700000000E+01 0.  1.
         25    2    1    2    0    0  0.00000000000E+00  0.00000000000E+00 -0.35545965788E+03  0.37679875439E+03  0.12500293168E+03 0.  0.
    9000005    1    3    3    0    0  0.32964476262E+02  0.12802105178E+02 -0.33304430062E+03  0.33491798513E+03  0.10000000000E+01 0.  0.
    9000005    1    3    3    0    0 -0.32964476262E+02 -0.12802105178E+02 -0.22415357265E+02  0.41880769256E+02  0.10000000000E+01 0.  0.
<mgrwt>
<rscale>  0 0.12500293E+03</rscale>
<asrwt>0</asrwt>
<pdfrwt beam="1">  1        4 0.26673883E-02 0.12500293E+03</pdfrwt>
<pdfrwt beam="2">  1       -4 0.91532260E-01 0.12500293E+03</pdfrwt>
<totfact> 0.11062518E+03</totfact>
</mgrwt>
</event>
<event>
 5    1  0.1446384E-002  0.1250024E+03  0.7818608E-02  0.1235066E+00
         -4   -1    0    0    0  501 -0.00000000000E+00  0.00000000000E+00  0.71167013410E+02  0.71178344302E+02  0.12700000000E+01 0. -1.
          4   -1    0    0  501    0  0.00000000000E+00 -0.00000000000E+00 -0.54867513922E+02  0.54882210087E+02  0.12700000000E+01 0. -1.
         25    2    1    2    0    0  0.00000000000E+00  0.00000000000E+00  0.16299499487E+02  0.12606055439E+03  0.12500235874E+03 0.  0.
    9000005    1    3    3    0    0 -0.55552639423E+02 -0.17430416521E+02 -0.14746685112E+02  0.60069791815E+02  0.10000000000E+01 0.  0.
    9000005    1    3    3    0    0  0.55552639423E+02  0.17430416521E+02  0.31046184599E+02  0.65990762574E+02  0.10000000000E+01 0.  0.
<mgrwt>
<rscale>  0 0.12500236E+03</rscale>
<asrwt>0</asrwt>
<pdfrwt beam="2">  1        4 0.13720132E-01 0.12500236E+03</pdfrwt>
<pdfrwt beam="1">  1       -4 0.17795007E-01 0.12500236E+03</pdfrwt>
<totfact> 0.19776557E+03</totfact>
</mgrwt>
</event>
<event>
 5    1  0.1446384E-002  0.1249988E+03  0.7818608E-02  0.1235071E+00
         -4   -1    0    0    0  501 -0.00000000000E+00  0.00000000000E+00  0.25171297252E+02  0.25203315365E+02  0.12700000000E+01 0. -1.
          4   -1    0    0  501    0  0.00000000000E+00 -0.00000000000E+00 -0.15505053604E+03  0.15505573716E+03  0.12700000000E+01 0. -1.
         25    2    1    2    0    0  0.00000000000E+00  0.00000000000E+00 -0.12987923878E+03  0.18025905252E+03  0.12499883739E+03 0.  0.
    9000005    1    3    3    0    0 -0.11897770070E+02  0.59498753819E+02 -0.43379654945E+02  0.74595261926E+02  0.10000000000E+01 0.  0.
    9000005    1    3    3    0    0  0.11897770070E+02 -0.59498753819E+02 -0.86499583839E+02  0.10566379060E+03  0.10000000000E+01 0.  0.
<mgrwt>
<rscale>  0 0.12499884E+03</rscale>
<asrwt>0</asrwt>
<pdfrwt beam="2">  1        4 0.38767284E-01 0.12499884E+03</pdfrwt>
<pdfrwt beam="1">  1       -4 0.62974772E-02 0.12499884E+03</pdfrwt>
<totfact> 0.17144469E+03</totfact>
</mgrwt>
</event>
<event>
 5    1  0.1446384E-002  0.1250000E+03  0.7818608E-02  0.1235069E+00
         -4   -1    0    0    0  501 -0.00000000000E+00  0.00000000000E+00  0.16248544528E+03  0.16249040842E+03  0.12700000000E+01 0. -1.
          4   -1    0    0  501    0  0.00000000000E+00 -0.00000000000E+00 -0.24018525546E+02  0.24052078276E+02  0.12700000000E+01 0. -1.
         25    2    1    2    0    0  0.00000000000E+00  0.00000000000E+00  0.13846691974E+03  0.18654248670E+03  0.12500004593E+03 0.  0.
    9000005    1    3    3    0    0 -0.62259497397E+02  0.33985829592E+01  0.62998143875E+02  0.88642887554E+02  0.10000000000E+01 0.  0.
    9000005    1    3    3    0    0  0.62259497397E+02 -0.33985829592E+01  0.75468775863E+02  0.97899599144E+02  0.10000000000E+01 0.  0.
<mgrwt>
<rscale>  0 0.12500005E+03</rscale>
<asrwt>0</asrwt>
<pdfrwt beam="2">  1        4 0.60094459E-02 0.12500005E+03</pdfrwt>
<pdfrwt beam="1">  1       -4 0.40626175E-01 0.12500005E+03</pdfrwt>
<totfact> 0.16875454E+03</totfact>
</mgrwt>
</event>
<event>
 5    1  0.1446384E-002  0.1250013E+03  0.7818608E-02  0.1235067E+00
         -4   -1    0    0    0  501 -0.00000000000E+00  0.00000000000E+00  0.25415886337E+02  0.25447596709E+02  0.12700000000E+01 0.  1.
          4   -1    0    0  501    0  0.00000000000E+00 -0.00000000000E+00 -0.15356632633E+03  0.15357157772E+03  0.12700000000E+01 0.  1.
         25    2    1    2    0    0  0.00000000000E+00  0.00000000000E+00 -0.12815043999E+03  0.17901917442E+03  0.12500131816E+03 0.  0.
    9000005    1    3    3    0    0  0.24821602945E+02 -0.54028557137E+02 -0.36522448887E+02  0.69786003122E+02  0.10000000000E+01 0.  0.
    9000005    1    3    3    0    0 -0.24821602945E+02  0.54028557137E+02 -0.91627991105E+02  0.10923317130E+03  0.10000000000E+01 0.  0.
<mgrwt>
<rscale>  0 0.12500132E+03</rscale>
<asrwt>0</asrwt>
<pdfrwt beam="2">  1        4 0.38396199E-01 0.12500132E+03</pdfrwt>
<pdfrwt beam="1">  1       -4 0.63585922E-02 0.12500132E+03</pdfrwt>
<totfact> 0.17197227E+03</totfact>
</mgrwt>
</event>
<event>
 5    1  0.1446384E-002  0.1249983E+03  0.7818608E-02  0.1235072E+00
          4   -1    0    0  501    0  0.00000000000E+00  0.00000000000E+00  0.38647517910E+02  0.38668379080E+02  0.12700000000E+01 0. -1.
         -4   -1    0    0    0  501 -0.00000000000E+00 -0.00000000000E+00 -0.10101891772E+03  0.10102690056E+03  0.12700000000E+01 0. -1.
         25    2    1    2    0    0  0.00000000000E+00  0.00000000000E+00 -0.62371399809E+02  0.13969527964E+03  0.12499831855E+03 0.  0.
    9000005    1    3    3    0    0 -0.18179049212E+02  0.35294342382E+02  0.22747987204E+02  0.45767230157E+02  0.10000000000E+01 0.  0.
    9000005    1    3    3    0    0  0.18179049212E+02 -0.35294342382E+02 -0.85119387013E+02  0.93928049484E+02  0.10000000000E+01 0.  0.
<mgrwt>
<rscale>  0 0.12499832E+03</rscale>
<asrwt>0</asrwt>
<pdfrwt beam="1">  1        4 0.96654852E-02 0.12499832E+03</pdfrwt>
<pdfrwt beam="2">  1       -4 0.25258334E-01 0.12499832E+03</pdfrwt>
<totfact> 0.19056689E+03</totfact>
</mgrwt>
</event>
<event>
 5    1  0.1446384E-002  0.1250000E+03  0.7818608E-02  0.1235069E+00
         -4   -1    0    0    0  501 -0.00000000000E+00  0.00000000000E+00  0.65715569001E+02  0.65727839681E+02  0.12700000000E+01 0.  1.
          4   -1    0    0  501    0  0.00000000000E+00 -0.00000000000E+00 -0.59417198944E+02  0.59430770064E+02  0.12700000000E+01 0.  1.
         25    2    1    2    0    0  0.00000000000E+00  0.00000000000E+00  0.62983700573E+01  0.12515860975E+03  0.12500003251E+03 0.  0.
    9000005    1    3    3    0    0 -0.44711432503E+02 -0.42015451605E+02  0.15031913549E+02  0.63177280686E+02  0.10000000000E+01 0.  0.
    9000005    1    3    3    0    0  0.44711432503E+02  0.42015451605E+02 -0.87335434916E+01  0.61981329059E+02  0.10000000000E+01 0.  0.
<mgrwt>
<rscale>  0 0.12500003E+03</rscale>
<asrwt>0</asrwt>
<pdfrwt beam="2">  1        4 0.14857530E-01 0.12500003E+03</pdfrwt>
<pdfrwt beam="1">  1       -4 0.16432122E-01 0.12500003E+03</pdfrwt>
<totfact> 0.19826441E+03</totfact>
</mgrwt>
</event>
<event>
 5    1  0.1446384E-002  0.1250017E+03  0.7818608E-02  0.1235067E+00
         -4   -1    0    0    0  501 -0.00000000000E+00  0.00000000000E+00  0.77902412638E+02  0.77912764004E+02  0.12700000000E+01 0. -1.
          4   -1    0    0  501    0  0.00000000000E+00 -0.00000000000E+00 -0.50122483486E+02  0.50138570490E+02  0.12700000000E+01 0. -1.
         25    2    1    2    0    0  0.00000000000E+00  0.00000000000E+00  0.27779929152E+02  0.12805133449E+03  0.12500167920E+03 0.  0.
    9000005    1    3    3    0    0 -0.42754017524E+02  0.39127518756E+02 -0.10057407738E+02  0.58830435906E+02  0.10000000000E+01 0.  0.
    9000005    1    3    3    0    0  0.42754017524E+02 -0.39127518756E+02  0.37837336891E+02  0.69220898589E+02  0.10000000000E+01 0.  0.
<mgrwt>
<rscale>  0 0.12500168E+03</rscale>
<asrwt>0</asrwt>
<pdfrwt beam="2">  1        4 0.12533926E-01 0.12500168E+03</pdfrwt>
<pdfrwt beam="1">  1       -4 0.19478908E-01 0.12500168E+03</pdfrwt>
<totfact> 0.19668970E+03</totfact>
</mgrwt>
</event>
<event>
 5    1  0.1446384E-002  0.1249990E+03  0.7818608E-02  0.1235071E+00
         -4   -1    0    0    0  501 -0.00000000000E+00  0.00000000000E+00  0.41545968350E+02  0.41565374846E+02  0.12700000000E+01 0.  1.
          4   -1    0    0  501    0  0.00000000000E+00 -0.00000000000E+00 -0.93975170369E+02  0.93983751499E+02  0.12700000000E+01 0.  1.
         25    2    1    2    0    0  0.00000000000E+00  0.00000000000E+00 -0.52429202019E+02  0.13554912635E+03  0.12499897771E+03 0.  0.
    9000005    1    3    3    0    0 -0.11992523273E+02  0.59339682078E+02 -0.43019948308E+02  0.74274722726E+02  0.10000000000E+01 0.  0.
    9000005    1    3    3    0    0  0.11992523273E+02 -0.59339682078E+02 -0.94092537111E+01  0.61274403620E+02  0.10000000000E+01 0.  0.
<mgrwt>
<rscale>  0 0.12499898E+03</rscale>
<asrwt>0</asrwt>
<pdfrwt beam="2">  1        4 0.23497291E-01 0.12499898E+03</pdfrwt>
<pdfrwt beam="1">  1       -4 0.10389991E-01 0.12499898E+03</pdfrwt>
<totfact> 0.19270873E+03</totfact>
</mgrwt>
</event>
<event>
 5    1  0.1446384E-002  0.1250077E+03  0.7818608E-02  0.1235057E+00
         -4   -1    0    0    0  501 -0.00000000000E+00  0.00000000000E+00  0.27586898457E+01  0.30369836458E+01  0.12700000000E+01 0. -1.
          4   -1    0    0  501    0  0.00000000000E+00 -0.00000000000E+00 -0.13478755187E+04  0.13478761170E+04  0.12700000000E+01 0. -1.
         25    2    1    2    0    0  0.00000000000E+00  0.00000000000E+00 -0.13451168289E+04  0.13509131007E+04  0.12500768881E+03 0.  0.
    9000005    1    3    3    0    0  0.75382554465E+01  0.35023520548E+02 -0.12259447359E+04  0.12264684944E+04  0.10000000000E+01 0.  0.
    9000005    1    3    3    0    0 -0.75382554465E+01 -0.35023520548E+02 -0.11917209300E+03  0.12444460629E+03  0.10000000000E+01 0.  0.
<mgrwt>
<rscale>  0 0.12500769E+03</rscale>
<asrwt>0</asrwt>
<pdfrwt beam="2">  1        4 0.33700159E+00 0.12500769E+03</pdfrwt>
<pdfrwt beam="1">  1       -4 0.72453860E-03 0.12500769E+03</pdfrwt>
<totfact> 0.18080523E+02</totfact>
</mgrwt>
</event>
<event>
 5    1  0.1446384E-002  0.1250017E+03  0.7818608E-02  0.1235067E+00
          4   -1    0    0  501    0  0.00000000000E+00  0.00000000000E+00  0.29029186297E+03  0.29029464103E+03  0.12700000000E+01 0. -1.
         -4   -1    0    0    0  501 -0.00000000000E+00 -0.00000000000E+00 -0.13423837628E+02  0.13483779762E+02  0.12700000000E+01 0. -1.
         25    2    1    2    0    0  0.00000000000E+00  0.00000000000E+00  0.27686802535E+03  0.30377842079E+03  0.12500170190E+03 0.  0.
    9000005    1    3    3    0    0 -0.33218824018E+02  0.47319201910E+02  0.19608441040E+03  0.20443261271E+03  0.10000000000E+01 0.  0.
    9000005    1    3    3    0    0  0.33218824018E+02 -0.47319201910E+02  0.80783614949E+02  0.99345808079E+02  0.10000000000E+01 0.  0.
<mgrwt>
<rscale>  0 0.12500170E+03</rscale>
<asrwt>0</asrwt>
<pdfrwt beam="1">  1        4 0.72580801E-01 0.12500170E+03</pdfrwt>
<pdfrwt beam="2">  1       -4 0.33637996E-02 0.12500170E+03</pdfrwt>
<totfact> 0.12865315E+03</totfact>
</mgrwt>
</event>
<event>
 5    1  0.1446384E-002  0.1249991E+03  0.7818608E-02  0.1235071E+00
          4   -1    0    0  501    0  0.00000000000E+00  0.00000000000E+00  0.10153264480E+02  0.10232383867E+02  0.12700000000E+01 0. -1.
         -4   -1    0    0    0  501 -0.00000000000E+00 -0.00000000000E+00 -0.38314963654E+03  0.38315174133E+03  0.12700000000E+01 0. -1.
         25    2    1    2    0    0  0.00000000000E+00  0.00000000000E+00 -0.37299637206E+03  0.39338412520E+03  0.12499910553E+03 0.  0.
    9000005    1    3    3    0    0  0.54413779037E+02 -0.13684765448E+02 -0.99906612434E+02  0.11458823396E+03  0.10000000000E+01 0.  0.
    9000005    1    3    3    0    0 -0.54413779037E+02  0.13684765448E+02 -0.27308975963E+03  0.27879589124E+03  0.10000000000E+01 0.  0.
<mgrwt>
<rscale>  0 0.12499911E+03</rscale>
<asrwt>0</asrwt>
<pdfrwt beam="1">  1        4 0.25484704E-02 0.12499911E+03</pdfrwt>
<pdfrwt beam="2">  1       -4 0.95797514E-01 0.12499911E+03</pdfrwt>
<totfact> 0.10706978E+03</totfact>
</mgrwt>
</event>
<event>
 5    1  0.1446384E-002  0.1250042E+03  0.7818608E-02  0.1235063E+00
         -4   -1    0    0    0  501 -0.00000000000E+00  0.00000000000E+00  0.16618210715E+04  0.16618215568E+04  0.12700000000E+01 0. -1.
          4   -1    0    0  501    0  0.00000000000E+00 -0.00000000000E+00 -0.21786882962E+01  0.25218213045E+01  0.12700000000E+01 0. -1.
         25    2    1    2    0    0  0.00000000000E+00  0.00000000000E+00  0.16596423832E+04  0.16643433781E+04  0.12500416013E+03 0.  0.
    9000005    1    3    3    0    0 -0.13255421338E+02 -0.50399724577E+02  0.37058933266E+03  0.37423694622E+03  0.10000000000E+01 0.  0.
    9000005    1    3    3    0    0  0.13255421338E+02  0.50399724577E+02  0.12890530505E+04  0.12901064319E+04  0.10000000000E+01 0.  0.
<mgrwt>
<rscale>  0 0.12500416E+03</rscale>
<asrwt>0</asrwt>
<pdfrwt beam="2">  1        4 0.58762450E-03 0.12500416E+03</pdfrwt>
<pdfrwt beam="1">  1       -4 0.41549812E+00 0.12500416E+03</pdfrwt>
<totfact> 0.78762941E+01</totfact>
</mgrwt>
</event>
<event>
 5    1  0.1446384E-002  0.1249956E+03  0.7818608E-02  0.1235076E+00
          4   -1    0    0  501    0  0.00000000000E+00  0.00000000000E+00  0.53172813217E+02  0.53187977640E+02  0.12700000000E+01 0. -1.
         -4   -1    0    0    0  501 -0.00000000000E+00 -0.00000000000E+00 -0.73426981171E+02  0.73437963370E+02  0.12700000000E+01 0. -1.
         25    2    1    2    0    0  0.00000000000E+00  0.00000000000E+00 -0.20254167954E+02  0.12662594101E+03  0.12499559039E+03 0.  0.
    9000005    1    3    3    0    0  0.30189761096E+02 -0.16260240432E+02  0.42795650811E+02  0.54847833342E+02  0.10000000000E+01 0.  0.
    9000005    1    3    3    0    0 -0.30189761096E+02  0.16260240432E+02 -0.63049818765E+02  0.71778107667E+02  0.10000000000E+01 0.  0.
<mgrwt>
<rscale>  0 0.12499559E+03</rscale>
<asrwt>0</asrwt>
<pdfrwt beam="1">  1        4 0.13296472E-01 0.12499559E+03</pdfrwt>
<pdfrwt beam="2">  1       -4 0.18360014E-01 0.12499559E+03</pdfrwt>
<totfact> 0.19749169E+03</totfact>
</mgrwt>
</event>
<event>
 5    1  0.1446384E-002  0.1250012E+03  0.7818608E-02  0.1235067E+00
         -4   -1    0    0    0  501 -0.00000000000E+00  0.00000000000E+00  0.60089480974E+02  0.60102900294E+02  0.12700000000E+01 0. -1.
          4   -1    0    0  501    0  0.00000000000E+00 -0.00000000000E+00 -0.64981611903E+02  0.64994021152E+02  0.12700000000E+01 0. -1.
         25    2    1    2    0    0  0.00000000000E+00  0.00000000000E+00 -0.48921309290E+01  0.12509692145E+03  0.12500122723E+03 0.  0.
    9000005    1    3    3    0    0 -0.41411328297E+02 -0.29945070313E+02 -0.38441939120E+02  0.63956141462E+02  0.10000000000E+01 0.  0.
    9000005    1    3    3    0    0  0.41411328297E+02  0.29945070313E+02  0.33549808191E+02  0.61140779984E+02  0.10000000000E+01 0.  0.
<mgrwt>
<rscale>  0 0.12500123E+03</rscale>
<asrwt>0</asrwt>
<pdfrwt beam="2">  1        4 0.16248632E-01 0.12500123E+03</pdfrwt>
<pdfrwt beam="1">  1       -4 0.15025599E-01 0.12500123E+03</pdfrwt>
<totfact> 0.19829231E+03</totfact>
</mgrwt>
</event>
<event>
 5    1  0.1446384E-002  0.1250060E+03  0.7818608E-02  0.1235060E+00
          4   -1    0    0  501    0  0.00000000000E+00  0.00000000000E+00  0.24872957872E+02  0.24905359530E+02  0.12700000000E+01 0. -1.
         -4   -1    0    0    0  501 -0.00000000000E+00 -0.00000000000E+00 -0.15692591308E+03  0.15693105205E+03  0.12700000000E+01 0. -1.
         25    2    1    2    0    0  0.00000000000E+00  0.00000000000E+00 -0.13205295521E+03  0.18183641158E+03  0.12500599024E+03 0.  0.
    9000005    1    3    3    0    0 -0.36255659756E+02  0.47824491124E+02 -0.91387402712E+02  0.10933577726E+03  0.10000000000E+01 0.  0.
    9000005    1    3    3    0    0  0.36255659756E+02 -0.47824491124E+02 -0.40665552497E+02  0.72500634311E+02  0.10000000000E+01 0.  0.
<mgrwt>
<rscale>  0 0.12500599E+03</rscale>
<asrwt>0</asrwt>
<pdfrwt beam="1">  1        4 0.62229325E-02 0.12500599E+03</pdfrwt>
<pdfrwt beam="2">  1       -4 0.39236168E-01 0.12500599E+03</pdfrwt>
<totfact> 0.17073651E+03</totfact>
</mgrwt>
</event>
<event>
 5    1  0.1446384E-002  0.1250134E+03  0.7818608E-02  0.1235048E+00
         -4   -1    0    0    0  501 -0.00000000000E+00  0.00000000000E+00  0.10042270823E+03  0.10043073847E+03  0.12700000000E+01 0.  1.
          4   -1    0    0  501    0  0.00000000000E+00 -0.00000000000E+00 -0.38886465509E+02  0.38907198560E+02  0.12700000000E+01 0.  1.
         25    2    1    2    0    0  0.00000000000E+00  0.00000000000E+00  0.61536242723E+02  0.13933793703E+03  0.12501340539E+03 0.  0.
    9000005    1    3    3    0    0  0.58307669476E+02  0.10262978428E+02  0.84492951917E+01  0.59812236500E+02  0.10000000000E+01 0.  0.
    9000005    1    3    3    0    0 -0.58307669476E+02 -0.10262978428E+02  0.53086947532E+02  0.79525700526E+02  0.10000000000E+01 0.  0.
<mgrwt>
<rscale>  0 0.12501341E+03</rscale>
<asrwt>0</asrwt>
<pdfrwt beam="2">  1        4 0.97252118E-02 0.12501341E+03</pdfrwt>
<pdfrwt beam="1">  1       -4 0.25109272E-01 0.12501341E+03</pdfrwt>
<totfact> 0.19068302E+03</totfact>
</mgrwt>
</event>
<event>
 5    1  0.1446384E-002  0.1249963E+03  0.7818608E-02  0.1235075E+00
         -4   -1    0    0    0  501 -0.00000000000E+00  0.00000000000E+00  0.80983710116E+03  0.80983809697E+03  0.12700000000E+01 0. -1.
          4   -1    0    0  501    0  0.00000000000E+00 -0.00000000000E+00 -0.47385950154E+01  0.49058315013E+01  0.12700000000E+01 0. -1.
         25    2    1    2    0    0  0.00000000000E+00  0.00000000000E+00  0.80509850614E+03  0.81474392847E+03  0.12499625753E+03 0.  0.
    9000005    1    3    3    0    0 -0.20171286952E+02 -0.29112953243E+02  0.73812754787E+03  0.73897748395E+03  0.10000000000E+01 0.  0.
    9000005    1    3    3    0    0  0.20171286952E+02  0.29112953243E+02  0.66970958269E+02  0.75766444521E+02  0.10000000000E+01 0.  0.
<mgrwt>
<rscale>  0 0.12499626E+03</rscale>
<asrwt>0</asrwt>
<pdfrwt beam="2">  1        4 0.12056777E-02 0.12499626E+03</pdfrwt>
<pdfrwt beam="1">  1       -4 0.20248032E+00 0.12499626E+03</pdfrwt>
<totfact> 0.51195743E+02</totfact>
</mgrwt>
</event>
<event>
 5    1  0.1446384E-002  0.1250005E+03  0.7818608E-02  0.1235068E+00
          4   -1    0    0  501    0  0.00000000000E+00  0.00000000000E+00  0.61530057269E+01  0.62827047897E+01  0.12700000000E+01 0.  1.
         -4   -1    0    0    0  501 -0.00000000000E+00 -0.00000000000E+00 -0.62810613623E+03  0.62810742017E+03  0.12700000000E+01 0.  1.
         25    2    1    2    0    0  0.00000000000E+00  0.00000000000E+00 -0.62195313050E+03  0.63439012496E+03  0.12500053640E+03 0.  0.
    9000005    1    3    3    0    0 -0.56983224826E+02 -0.44601951918E+01 -0.43919714396E+03  0.44290192201E+03  0.10000000000E+01 0.  0.
    9000005    1    3    3    0    0  0.56983224826E+02  0.44601951918E+01 -0.18275598654E+03  0.19148820295E+03  0.10000000000E+01 0.  0.
<mgrwt>
<rscale>  0 0.12500054E+03</rscale>
<asrwt>0</asrwt>
<pdfrwt beam="1">  1        4 0.15546264E-02 0.12500054E+03</pdfrwt>
<pdfrwt beam="2">  1       -4 0.15704269E+00 0.12500054E+03</pdfrwt>
<totfact> 0.69325064E+02</totfact>
</mgrwt>
</event>
<event>
 5    1  0.1446384E-002  0.1249973E+03  0.7818608E-02  0.1235074E+00
         -4   -1    0    0    0  501 -0.00000000000E+00  0.00000000000E+00  0.19320284351E+03  0.19320701757E+03  0.12700000000E+01 0.  1.
          4   -1    0    0  501    0  0.00000000000E+00 -0.00000000000E+00 -0.20193169168E+02  0.20233066526E+02  0.12700000000E+01 0.  1.
         25    2    1    2    0    0  0.00000000000E+00  0.00000000000E+00  0.17300967434E+03  0.21344008410E+03  0.12499728831E+03 0.  0.
    9000005    1    3    3    0    0  0.43641388273E+02  0.27948144326E+02  0.14613286457E+03  0.15505316395E+03  0.10000000000E+01 0.  0.
    9000005    1    3    3    0    0 -0.43641388273E+02 -0.27948144326E+02  0.26876809769E+02  0.58386920154E+02  0.10000000000E+01 0.  0.
<mgrwt>
<rscale>  0 0.12499729E+03</rscale>
<asrwt>0</asrwt>
<pdfrwt beam="2">  1        4 0.50538013E-02 0.12499729E+03</pdfrwt>
<pdfrwt beam="1">  1       -4 0.48306219E-01 0.12499729E+03</pdfrwt>
<totfact> 0.15798649E+03</totfact>
</mgrwt>
</event>
<event>
 5    1  0.1446384E-002  0.1250081E+03  0.7818608E-02  0.1235057E+00
         -4   -1    0    0    0  501 -0.00000000000E+00  0.00000000000E+00  0.15840146158E+03  0.15840655267E+03  0.12700000000E+01 0.  1.
          4   -1    0    0  501    0  0.00000000000E+00 -0.00000000000E+00 -0.24641796509E+02  0.24674501721E+02  0.12700000000E+01 0.  1.
         25    2    1    2    0    0  0.00000000000E+00  0.00000000000E+00  0.13375966507E+03  0.18308105439E+03  0.12500809765E+03 0.  0.
    9000005    1    3    3    0    0  0.26557941820E+02 -0.52114777601E+02  0.34643621294E+02  0.67988637392E+02  0.10000000000E+01 0.  0.
    9000005    1    3    3    0    0 -0.26557941820E+02  0.52114777601E+02  0.99116043774E+02  0.11509241700E+03  0.10000000000E+01 0.  0.
<mgrwt>
<rscale>  0 0.12500810E+03</rscale>
<asrwt>0</asrwt>
<pdfrwt beam="2">  1        4 0.61651738E-02 0.12500810E+03</pdfrwt>
<pdfrwt beam="1">  1       -4 0.39605089E-01 0.12500810E+03</pdfrwt>
<totfact> 0.17019470E+03</totfact>
</mgrwt>
</event>
<event>
 5    1  0.1446384E-002  0.1250010E+03  0.7818608E-02  0.1235068E+00
         -4   -1    0    0    0  501 -0.00000000000E+00  0.00000000000E+00  0.25036898113E+03  0.25037220215E+03  0.12700000000E+01 0.  1.
          4   -1    0    0  501    0  0.00000000000E+00 -0.00000000000E+00 -0.15573049463E+02  0.15624748625E+02  0.12700000000E+01 0.  1.
         25    2    1    2    0    0  0.00000000000E+00  0.00000000000E+00  0.23479593166E+03  0.26599695078E+03  0.12500099318E+03 0.  0.
    9000005    1    3    3    0    0 -0.28526274009E+02  0.18897958157E+02  0.22867272793E+03  0.23122088494E+03  0.10000000000E+01 0.  0.
    9000005    1    3    3    0    0  0.28526274009E+02 -0.18897958157E+02  0.61232037319E+01  0.34776065840E+02  0.10000000000E+01 0.  0.
<mgrwt>
<rscale>  0 0.12500099E+03</rscale>
<asrwt>0</asrwt>
<pdfrwt beam="2">  1        4 0.39001274E-02 0.12500099E+03</pdfrwt>
<pdfrwt beam="1">  1       -4 0.62599110E-01 0.12500099E+03</pdfrwt>
<totfact> 0.13980267E+03</totfact>
</mgrwt>
</event>
<event>
 5    1  0.1446384E-002  0.1249929E+03  0.7818608E-02  0.1235080E+00
          4   -1    0    0  501    0  0.00000000000E+00  0.00000000000E+00  0.54575045853E+02  0.54589820754E+02  0.12700000000E+01 0. -1.
         -4   -1    0    0    0  501 -0.00000000000E+00 -0.00000000000E+00 -0.71537548821E+02  0.71548821034E+02  0.12700000000E+01 0. -1.
         25    2    1    2    0    0  0.00000000000E+00  0.00000000000E+00 -0.16962502968E+02  0.12613864179E+03  0.12499292158E+03 0.  0.
    9000005    1    3    3    0    0  0.58318527771E+02 -0.12563921485E+02  0.10287743989E+02  0.60545358872E+02  0.10000000000E+01 0.  0.
    9000005    1    3    3    0    0 -0.58318527771E+02  0.12563921485E+02 -0.27250246957E+02  0.65593282916E+02  0.10000000000E+01 0.  0.
<mgrwt>
<rscale>  0 0.12499292E+03</rscale>
<asrwt>0</asrwt>
<pdfrwt beam="1">  1        4 0.13647017E-01 0.12499292E+03</pdfrwt>
<pdfrwt beam="2">  1       -4 0.17887643E-01 0.12499292E+03</pdfrwt>
<totfact> 0.19776704E+03</totfact>
</mgrwt>
</event>
<event>
 5    1  0.1446384E-002  0.1249991E+03  0.7818608E-02  0.1235071E+00
          4   -1    0    0  501    0  0.00000000000E+00  0.00000000000E+00  0.42789186585E+03  0.42789375055E+03  0.12700000000E+01 0. -1.
         -4   -1    0    0    0  501 -0.00000000000E+00 -0.00000000000E+00 -0.90828375192E+01  0.91711960725E+01  0.12700000000E+01 0. -1.
         25    2    1    2    0    0  0.00000000000E+00  0.00000000000E+00  0.41880902833E+03  0.43706494663E+03  0.12499906142E+03 0.  0.
    9000005    1    3    3    0    0 -0.39342141507E+02  0.28167010457E+02  0.71124779372E+02  0.86028593021E+02  0.10000000000E+01 0.  0.
    9000005    1    3    3    0    0  0.39342141507E+02 -0.28167010457E+02  0.34768424896E+03  0.35103635360E+03  0.10000000000E+01 0.  0.
<mgrwt>
<rscale>  0 0.12499906E+03</rscale>
<asrwt>0</asrwt>
<pdfrwt beam="1">  1        4 0.10698424E+00 0.12499906E+03</pdfrwt>
<pdfrwt beam="2">  1       -4 0.22819900E-02 0.12499906E+03</pdfrwt>
<totfact> 0.98388660E+02</totfact>
</mgrwt>
</event>
<event>
 5    1  0.1446384E-002  0.1250011E+03  0.7818608E-02  0.1235068E+00
         -4   -1    0    0    0  501 -0.00000000000E+00  0.00000000000E+00  0.34099500619E+02  0.34123142330E+02  0.12700000000E+01 0.  1.
          4   -1    0    0  501    0  0.00000000000E+00 -0.00000000000E+00 -0.11448959761E+03  0.11449664126E+03  0.12700000000E+01 0.  1.
         25    2    1    2    0    0  0.00000000000E+00  0.00000000000E+00 -0.80390096991E+02  0.14861978359E+03  0.12500108952E+03 0.  0.
    9000005    1    3    3    0    0 -0.11354582163E+02 -0.53816396491E+02 -0.75468690921E+02  0.93389798033E+02  0.10000000000E+01 0.  0.
    9000005    1    3    3    0    0  0.11354582163E+02  0.53816396491E+02 -0.49214060700E+01  0.55229985561E+02  0.10000000000E+01 0.  0.
<mgrwt>
<rscale>  0 0.12500109E+03</rscale>
<asrwt>0</asrwt>
<pdfrwt beam="2">  1        4 0.28626234E-01 0.12500109E+03</pdfrwt>
<pdfrwt beam="1">  1       -4 0.85287111E-02 0.12500109E+03</pdfrwt>
<totfact> 0.18606383E+03</totfact>
</mgrwt>
</event>
<event>
 5    1  0.1446384E-002  0.1250042E+03  0.7818608E-02  0.1235063E+00
          4   -1    0    0  501    0  0.00000000000E+00  0.00000000000E+00  0.84823276115E+01  0.85768748218E+01  0.12700000000E+01 0. -1.
         -4   -1    0    0    0  501 -0.00000000000E+00 -0.00000000000E+00 -0.45789966864E+03  0.45790142983E+03  0.12700000000E+01 0. -1.
         25    2    1    2    0    0  0.00000000000E+00  0.00000000000E+00 -0.44941734102E+03  0.46647830465E+03  0.12500424910E+03 0.  0.
    9000005    1    3    3    0    0  0.54730259814E+02 -0.25983537935E+02 -0.28191088920E+03  0.28834925877E+03  0.10000000000E+01 0.  0.
    9000005    1    3    3    0    0 -0.54730259814E+02  0.25983537935E+02 -0.16750645182E+03  0.17812904588E+03  0.10000000000E+01 0.  0.
<mgrwt>
<rscale>  0 0.12500425E+03</rscale>
<asrwt>0</asrwt>
<pdfrwt beam="1">  1        4 0.21326220E-02 0.12500425E+03</pdfrwt>
<pdfrwt beam="2">  1       -4 0.11448687E+00 0.12500425E+03</pdfrwt>
<totfact> 0.93123086E+02</totfact>
</mgrwt>
</event>
<event>
 5    1  0.1446384E-002  0.1249974E+03  0.7818608E-02  0.1235073E+00
          4   -1    0    0  501    0  0.00000000000E+00  0.00000000000E+00  0.22236096240E+03  0.22236458913E+03  0.12700000000E+01 0.  1.
         -4   -1    0    0    0  501 -0.00000000000E+00 -0.00000000000E+00 -0.17539686074E+02  0.17585604555E+02  0.12700000000E+01 0.  1.
         25    2    1    2    0    0  0.00000000000E+00  0.00000000000E+00  0.20482127633E+03  0.23995019369E+03  0.12499736083E+03 0.  0.
    9000005    1    3    3    0    0 -0.59267848578E+02 -0.69218568681E+01  0.13804030576E+03  0.15038855007E+03  0.10000000000E+01 0.  0.
    9000005    1    3    3    0    0  0.59267848578E+02  0.69218568681E+01  0.66780970565E+02  0.89561643616E+02  0.10000000000E+01 0.  0.
<mgrwt>
<rscale>  0 0.12499736E+03</rscale>
<asrwt>0</asrwt>
<pdfrwt beam="1">  1        4 0.55596433E-01 0.12499736E+03</pdfrwt>
<pdfrwt beam="2">  1       -4 0.43911147E-02 0.12499736E+03</pdfrwt>
<totfact> 0.14839069E+03</totfact>
</mgrwt>
</event>
<event>
 5    1  0.1446384E-002  0.1249673E+03  0.7818608E-02  0.1235120E+00
         -4   -1    0    0    0  501 -0.00000000000E+00  0.00000000000E+00  0.73218901797E+02  0.73229915201E+02  0.12700000000E+01 0.  1.
          4   -1    0    0  501    0  0.00000000000E+00 -0.00000000000E+00 -0.53299789011E+02  0.53314917318E+02  0.12700000000E+01 0.  1.
         25    2    1    2    0    0  0.00000000000E+00  0.00000000000E+00  0.19919112786E+02  0.12654483252E+03  0.12496729005E+03 0.  0.
    9000005    1    3    3    0    0  0.39964209011E+02 -0.47650107022E+02  0.39231647014E+01  0.62322242597E+02  0.10000000000E+01 0.  0.
    9000005    1    3    3    0    0 -0.39964209011E+02  0.47650107022E+02  0.15995948085E+02  0.64222589921E+02  0.10000000000E+01 0.  0.
<mgrwt>
<rscale>  0 0.12496729E+03</rscale>
<asrwt>0</asrwt>
<pdfrwt beam="2">  1        4 0.13328215E-01 0.12496729E+03</pdfrwt>
<pdfrwt beam="1">  1       -4 0.18307993E-01 0.12496729E+03</pdfrwt>
<totfact> 0.19766625E+03</totfact>
</mgrwt>
</event>
<event>
 5    1  0.1446384E-002  0.1249966E+03  0.7818608E-02  0.1235075E+00
         -4   -1    0    0    0  501 -0.00000000000E+00  0.00000000000E+00  0.33463491180E+03  0.33463732174E+03  0.12700000000E+01 0.  1.
          4   -1    0    0  501    0  0.00000000000E+00 -0.00000000000E+00 -0.11635523274E+02  0.11704627370E+02  0.12700000000E+01 0.  1.
         25    2    1    2    0    0  0.00000000000E+00  0.00000000000E+00  0.32299938853E+03  0.34634194911E+03  0.12499656283E+03 0.  0.
    9000005    1    3    3    0    0  0.50042985518E+02  0.13874639241E+02  0.25781197857E+03  0.26299205749E+03  0.10000000000E+01 0.  0.
    9000005    1    3    3    0    0 -0.50042985518E+02 -0.13874639241E+02  0.65187409964E+02  0.83349891610E+02  0.10000000000E+01 0.  0.
<mgrwt>
<rscale>  0 0.12499656E+03</rscale>
<asrwt>0</asrwt>
<pdfrwt beam="2">  1        4 0.29178201E-02 0.12499656E+03</pdfrwt>
<pdfrwt beam="1">  1       -4 0.83667666E-01 0.12499656E+03</pdfrwt>
<totfact> 0.11765981E+03</totfact>
</mgrwt>
</event>
<event>
 5    1  0.1446384E-002  0.1249801E+03  0.7818608E-02  0.1235100E+00
          4   -1    0    0  501    0  0.00000000000E+00  0.00000000000E+00  0.64191524850E+02  0.64204086806E+02  0.12700000000E+01 0. -1.
         -4   -1    0    0    0  501 -0.00000000000E+00 -0.00000000000E+00 -0.60808515036E+02  0.60821775713E+02  0.12700000000E+01 0. -1.
         25    2    1    2    0    0  0.00000000000E+00  0.00000000000E+00  0.33830098140E+01  0.12502586252E+03  0.12498008459E+03 0.  0.
    9000005    1    3    3    0    0 -0.31982410696E+02 -0.47120892829E+02 -0.24023012055E+02  0.61817135514E+02  0.10000000000E+01 0.  0.
    9000005    1    3    3    0    0  0.31982410696E+02  0.47120892829E+02  0.27406021869E+02  0.63208727005E+02  0.10000000000E+01 0.  0.
<mgrwt>
<rscale>  0 0.12498008E+03</rscale>
<asrwt>0</asrwt>
<pdfrwt beam="1">  1        4 0.16051109E-01 0.12498008E+03</pdfrwt>
<pdfrwt beam="2">  1       -4 0.15205357E-01 0.12498008E+03</pdfrwt>
<totfact> 0.19842898E+03</totfact>
</mgrwt>
</event>
<event>
 5    1  0.1446384E-002  0.1249966E+03  0.7818608E-02  0.1235075E+00
          4   -1    0    0  501    0  0.00000000000E+00  0.00000000000E+00  0.72108840694E+03  0.72108952531E+03  0.12700000000E+01 0. -1.
         -4   -1    0    0    0  501 -0.00000000000E+00 -0.00000000000E+00 -0.53412838755E+01  0.54901924774E+01  0.12700000000E+01 0. -1.
         25    2    1    2    0    0  0.00000000000E+00  0.00000000000E+00  0.71574712306E+03  0.72657971779E+03  0.12499656850E+03 0.  0.
    9000005    1    3    3    0    0  0.55679740790E+02 -0.15439431487E+02  0.21953070058E+03  0.22700955503E+03  0.10000000000E+01 0.  0.
    9000005    1    3    3    0    0 -0.55679740790E+02  0.15439431487E+02  0.49621642248E+03  0.49957016276E+03  0.10000000000E+01 0.  0.
<mgrwt>
<rscale>  0 0.12499657E+03</rscale>
<asrwt>0</asrwt>
<pdfrwt beam="1">  1        4 0.18029086E+00 0.12499657E+03</pdfrwt>
<pdfrwt beam="2">  1       -4 0.13540743E-02 0.12499657E+03</pdfrwt>
<totfact> 0.59358861E+02</totfact>
</mgrwt>
</event>
<event>
 5    1  0.1446384E-002  0.1250032E+03  0.7818608E-02  0.1235064E+00
         -4   -1    0    0    0  501 -0.00000000000E+00  0.00000000000E+00  0.17390374259E+03  0.17390837987E+03  0.12700000000E+01 0. -1.
          4   -1    0    0  501    0  0.00000000000E+00 -0.00000000000E+00 -0.22440395855E+02  0.22476304547E+02  0.12700000000E+01 0. -1.
         25    2    1    2    0    0  0.00000000000E+00  0.00000000000E+00  0.15146334674E+03  0.19638468442E+03  0.12500319543E+03 0.  0.
    9000005    1    3    3    0    0 -0.59503770871E+02 -0.29272782621E+01  0.46081824025E+02  0.75324645445E+02  0.10000000000E+01 0.  0.
    9000005    1    3    3    0    0  0.59503770871E+02  0.29272782621E+01  0.10538152272E+03  0.12106003897E+03  0.10000000000E+01 0.  0.
<mgrwt>
<rscale>  0 0.12500320E+03</rscale>
<asrwt>0</asrwt>
<pdfrwt beam="2">  1        4 0.56151672E-02 0.12500320E+03</pdfrwt>
<pdfrwt beam="1">  1       -4 0.43481004E-01 0.12500320E+03</pdfrwt>
<totfact> 0.16466617E+03</totfact>
</mgrwt>
</event>
<event>
 5    1  0.1446384E-002  0.1250002E+03  0.7818608E-02  0.1235069E+00
          4   -1    0    0  501    0  0.00000000000E+00  0.00000000000E+00  0.52447456792E+02  0.52462830880E+02  0.12700000000E+01 0.  1.
         -4   -1    0    0    0  501 -0.00000000000E+00 -0.00000000000E+00 -0.74447839326E+02  0.74458670955E+02  0.12700000000E+01 0.  1.
         25    2    1    2    0    0  0.00000000000E+00  0.00000000000E+00 -0.22000382534E+02  0.12692150184E+03  0.12500020319E+03 0.  0.
    9000005    1    3    3    0    0  0.35634072550E+02  0.42213670682E+01 -0.62949615612E+02  0.72465586123E+02  0.10000000000E+01 0.  0.
    9000005    1    3    3    0    0 -0.35634072550E+02 -0.42213670682E+01  0.40949233078E+02  0.54455915712E+02  0.10000000000E+01 0.  0.
<mgrwt>
<rscale>  0 0.12500020E+03</rscale>
<asrwt>0</asrwt>
<pdfrwt beam="1">  1        4 0.13115140E-01 0.12500020E+03</pdfrwt>
<pdfrwt beam="2">  1       -4 0.18615235E-01 0.12500020E+03</pdfrwt>
<totfact> 0.19731111E+03</totfact>
</mgrwt>
</event>
<event>
 5    1  0.1446384E-002  0.1249982E+03  0.7818608E-02  0.1235072E+00
          4   -1    0    0  501    0  0.00000000000E+00  0.00000000000E+00  0.39412706545E+03  0.39412911161E+03  0.12700000000E+01 0.  1.
         -4   -1    0    0    0  501 -0.00000000000E+00 -0.00000000000E+00 -0.98680883886E+01  0.99494757874E+01  0.12700000000E+01 0.  1.
         25    2    1    2    0    0  0.00000000000E+00  0.00000000000E+00  0.38425897706E+03  0.40407858740E+03  0.12499817336E+03 0.  0.
    9000005    1    3    3    0    0  0.44677634868E+02  0.41182661049E+02  0.14494645890E+03  0.15717053979E+03  0.10000000000E+01 0.  0.
    9000005    1    3    3    0    0 -0.44677634868E+02 -0.41182661049E+02  0.23931251816E+03  0.24690804761E+03  0.10000000000E+01 0.  0.
<mgrwt>
<rscale>  0 0.12499817E+03</rscale>
<asrwt>0</asrwt>
<pdfrwt beam="1">  1        4 0.98542189E-01 0.12499817E+03</pdfrwt>
<pdfrwt beam="2">  1       -4 0.24774515E-02 0.12499817E+03</pdfrwt>
<totfact> 0.10486104E+03</totfact>
</mgrwt>
</event>
<event>
 5    1  0.1446384E-002  0.1249842E+03  0.7818608E-02  0.1235094E+00
         -4   -1    0    0    0  501 -0.00000000000E+00  0.00000000000E+00  0.11143862409E+02  0.11215996139E+02  0.12700000000E+01 0.  1.
          4   -1    0    0  501    0  0.00000000000E+00 -0.00000000000E+00 -0.34923691242E+03  0.34923922159E+03  0.12700000000E+01 0.  1.
         25    2    1    2    0    0  0.00000000000E+00  0.00000000000E+00 -0.33809305001E+03  0.36045521773E+03  0.12498421309E+03 0.  0.
    9000005    1    3    3    0    0 -0.49206590675E+02 -0.37158116225E+02 -0.19820911848E+03  0.20758099339E+03  0.10000000000E+01 0.  0.
    9000005    1    3    3    0    0  0.49206590675E+02  0.37158116225E+02 -0.13988393153E+03  0.15287422434E+03  0.10000000000E+01 0.  0.
<mgrwt>
<rscale>  0 0.12498421E+03</rscale>
<asrwt>0</asrwt>
<pdfrwt beam="2">  1        4 0.87318497E-01 0.12498421E+03</pdfrwt>
<pdfrwt beam="1">  1       -4 0.27952721E-02 0.12498421E+03</pdfrwt>
<totfact> 0.11435992E+03</totfact>
</mgrwt>
</event>
<event>
 5    1  0.1446384E-002  0.1249856E+03  0.7818608E-02  0.1235092E+00
          4   -1    0    0  501    0  0.00000000000E+00  0.00000000000E+00  0.10540523650E+02  0.10616757453E+02  0.12700000000E+01 0.  1.
         -4   -1    0    0    0  501 -0.00000000000E+00 -0.00000000000E+00 -0.36909580112E+03  0.36909798604E+03  0.12700000000E+01 0.  1.
         25    2    1    2    0    0  0.00000000000E+00  0.00000000000E+00 -0.35855527747E+03  0.37971474350E+03  0.12498559689E+03 0.  0.
    9000005    1    3    3    0    0  0.58935683092E+02 -0.11977954074E+02 -0.12776793861E+03  0.14121803094E+03  0.10000000000E+01 0.  0.
    9000005    1    3    3    0    0 -0.58935683092E+02  0.11977954074E+02 -0.23078733885E+03  0.23849671256E+03  0.10000000000E+01 0.  0.
<mgrwt>
<rscale>  0 0.12498560E+03</rscale>
<asrwt>0</asrwt>
<pdfrwt beam="1">  1        4 0.26449345E-02 0.12498560E+03</pdfrwt>
<pdfrwt beam="2">  1       -4 0.92283710E-01 0.12498560E+03</pdfrwt>
<totfact> 0.11002947E+03</totfact>
</mgrwt>
</event>
<event>
 4    1  0.1446384E-002  0.1247918E+03  0.7818608E-02  0.1235395E+00
          4   -1    0    0  501    0  0.00000000000E+00  0.00000000000E+00  0.11042795647E+02  0.11115585261E+02  0.12700000000E+01 0.  1.
         -4   -1    0    0    0  501 -0.00000000000E+00 -0.00000000000E+00 -0.35132791623E+03  0.35133021165E+03  0.12700000000E+01 0.  1.
    9000005    1    1    2    0    0  0.68417837439E+01  0.52954706418E+02 -0.26386247025E+03  0.26921258169E+03  0.10000000000E+01 0.  0.
    9000005    1    1    2    0    0 -0.68417837439E+01 -0.52954706418E+02 -0.76422650332E+02  0.93233215220E+02  0.10000000000E+01 0.  0.
<mgrwt>
<rscale>  0 0.12479180E+03</rscale>
<asrwt>0</asrwt>
<pdfrwt beam="1">  1        4 0.27700857E-02 0.12479180E+03</pdfrwt>
<pdfrwt beam="2">  1       -4 0.87841328E-01 0.12479180E+03</pdfrwt>
<totfact> 0.11440269E+03</totfact>
</mgrwt>
</event>
<event>
 5    1  0.1446384E-002  0.1249989E+03  0.7818608E-02  0.1235071E+00
          4   -1    0    0  501    0  0.00000000000E+00  0.00000000000E+00  0.39595112816E+02  0.39615474993E+02  0.12700000000E+01 0.  1.
         -4   -1    0    0    0  501 -0.00000000000E+00 -0.00000000000E+00 -0.98603345330E+02  0.98611523720E+02  0.12700000000E+01 0.  1.
         25    2    1    2    0    0  0.00000000000E+00  0.00000000000E+00 -0.59008232514E+02  0.13822699871E+03  0.12499892667E+03 0.  0.
    9000005    1    3    3    0    0 -0.49221039492E+01 -0.61943868907E+02 -0.22176162386E+02  0.65985242142E+02  0.10000000000E+01 0.  0.
    9000005    1    3    3    0    0  0.49221039492E+01  0.61943868907E+02 -0.36832070128E+02  0.72241756570E+02  0.10000000000E+01 0.  0.
<mgrwt>
<rscale>  0 0.12499893E+03</rscale>
<asrwt>0</asrwt>
<pdfrwt beam="1">  1        4 0.99023460E-02 0.12499893E+03</pdfrwt>
<pdfrwt beam="2">  1       -4 0.24654403E-01 0.12499893E+03</pdfrwt>
<totfact> 0.19131895E+03</totfact>
</mgrwt>
</event>
<event>
 5    1  0.1446384E-002  0.1249977E+03  0.7818608E-02  0.1235073E+00
          4   -1    0    0  501    0  0.00000000000E+00  0.00000000000E+00  0.54035890749E+02  0.54050813028E+02  0.12700000000E+01 0. -1.
         -4   -1    0    0    0  501 -0.00000000000E+00 -0.00000000000E+00 -0.72256793055E+02  0.72267953081E+02  0.12700000000E+01 0. -1.
         25    2    1    2    0    0  0.00000000000E+00  0.00000000000E+00 -0.18220902306E+02  0.12631876611E+03  0.12499771754E+03 0.  0.
    9000005    1    3    3    0    0 -0.25327780235E+02  0.39457062437E+02 -0.50859913807E+02  0.69181551445E+02  0.10000000000E+01 0.  0.
    9000005    1    3    3    0    0  0.25327780235E+02 -0.39457062437E+02  0.32639011501E+02  0.57137214665E+02  0.10000000000E+01 0.  0.
<mgrwt>
<rscale>  0 0.12499772E+03</rscale>
<asrwt>0</asrwt>
<pdfrwt beam="1">  1        4 0.13512233E-01 0.12499772E+03</pdfrwt>
<pdfrwt beam="2">  1       -4 0.18067458E-01 0.12499772E+03</pdfrwt>
<totfact> 0.19764759E+03</totfact>
</mgrwt>
</event>
<event>
 5    1  0.1446384E-002  0.1249968E+03  0.7818608E-02  0.1235074E+00
         -4   -1    0    0    0  501 -0.00000000000E+00  0.00000000000E+00  0.37001384358E+03  0.37001602309E+03  0.12700000000E+01 0.  1.
          4   -1    0    0  501    0  0.00000000000E+00 -0.00000000000E+00 -0.10516084009E+02  0.10592493704E+02  0.12700000000E+01 0.  1.
         25    2    1    2    0    0  0.00000000000E+00  0.00000000000E+00  0.35949775957E+03  0.38060851679E+03  0.12499681563E+03 0.  0.
    9000005    1    3    3    0    0 -0.17479324267E+02  0.55644068028E+02  0.24805766745E+03  0.25482424426E+03  0.10000000000E+01 0.  0.
    9000005    1    3    3    0    0  0.17479324267E+02 -0.55644068028E+02  0.11144009213E+03  0.12578427253E+03  0.10000000000E+01 0.  0.
<mgrwt>
<rscale>  0 0.12499682E+03</rscale>
<asrwt>0</asrwt>
<pdfrwt beam="2">  1        4 0.26388445E-02 0.12499682E+03</pdfrwt>
<pdfrwt beam="1">  1       -4 0.92513290E-01 0.12499682E+03</pdfrwt>
<totfact> 0.10980643E+03</totfact>
</mgrwt>
</event>
<event>
 5    1  0.1446384E-002  0.1250073E+03  0.7818608E-02  0.1235058E+00
         -4   -1    0    0    0  501 -0.00000000000E+00  0.00000000000E+00  0.49896981607E+02  0.49913141290E+02  0.12700000000E+01 0. -1.
          4   -1    0    0  501    0  0.00000000000E+00 -0.00000000000E+00 -0.78261461905E+02  0.78271765787E+02  0.12700000000E+01 0. -1.
         25    2    1    2    0    0  0.00000000000E+00  0.00000000000E+00 -0.28364480298E+02  0.12818490708E+03  0.12500730643E+03 0.  0.
    9000005    1    3    3    0    0  0.17479924344E+02 -0.14932939124E+02  0.45408353924E+02  0.50906375161E+02  0.10000000000E+01 0.  0.
    9000005    1    3    3    0    0 -0.17479924344E+02  0.14932939124E+02 -0.73772834222E+02  0.77278531916E+02  0.10000000000E+01 0.  0.
<mgrwt>
<rscale>  0 0.12500731E+03</rscale>
<asrwt>0</asrwt>
<pdfrwt beam="2">  1        4 0.19568673E-01 0.12500731E+03</pdfrwt>
<pdfrwt beam="1">  1       -4 0.12477553E-01 0.12500731E+03</pdfrwt>
<totfact> 0.19659126E+03</totfact>
</mgrwt>
</event>
<event>
 5    1  0.1446384E-002  0.1250044E+03  0.7818608E-02  0.1235062E+00
         -4   -1    0    0    0  501 -0.00000000000E+00  0.00000000000E+00  0.13412162605E+03  0.13412763874E+03  0.12700000000E+01 0.  1.
          4   -1    0    0  501    0  0.00000000000E+00 -0.00000000000E+00 -0.29106216133E+02  0.29133910098E+02  0.12700000000E+01 0.  1.
         25    2    1    2    0    0  0.00000000000E+00  0.00000000000E+00  0.10501540991E+03  0.16326154884E+03  0.12500438796E+03 0.  0.
    9000005    1    3    3    0    0  0.27092175341E+02  0.44902115857E+02  0.81148336769E+01  0.53075761876E+02  0.10000000000E+01 0.  0.
    9000005    1    3    3    0    0 -0.27092175341E+02 -0.44902115857E+02  0.96900576238E+02  0.11018578696E+03  0.10000000000E+01 0.  0.
<mgrwt>
<rscale>  0 0.12500439E+03</rscale>
<asrwt>0</asrwt>
<pdfrwt beam="2">  1        4 0.72807674E-02 0.12500439E+03</pdfrwt>
<pdfrwt beam="1">  1       -4 0.33534620E-01 0.12500439E+03</pdfrwt>
<totfact> 0.17903507E+03</totfact>
</mgrwt>
</event>
<event>
 5    1  0.1446384E-002  0.1250094E+03  0.7818608E-02  0.1235055E+00
          4   -1    0    0  501    0  0.00000000000E+00  0.00000000000E+00  0.99402024732E+01  0.10021004202E+02  0.12700000000E+01 0.  1.
         -4   -1    0    0    0  501 -0.00000000000E+00 -0.00000000000E+00 -0.39136135441E+03  0.39136341503E+03  0.12700000000E+01 0.  1.
         25    2    1    2    0    0  0.00000000000E+00  0.00000000000E+00 -0.38142115193E+03  0.40138441923E+03  0.12500942708E+03 0.  0.
    9000005    1    3    3    0    0 -0.40334418169E+02 -0.38167219351E+02 -0.28278019170E+03  0.28818264823E+03  0.10000000000E+01 0.  0.
    9000005    1    3    3    0    0  0.40334418169E+02  0.38167219351E+02 -0.98640960227E+02  0.11320177100E+03  0.10000000000E+01 0.  0.
<mgrwt>
<rscale>  0 0.12500943E+03</rscale>
<asrwt>0</asrwt>
<pdfrwt beam="1">  1        4 0.24954097E-02 0.12500943E+03</pdfrwt>
<pdfrwt beam="2">  1       -4 0.97850645E-01 0.12500943E+03</pdfrwt>
<totfact> 0.10538480E+03</totfact>
</mgrwt>
</event>
<event>
 5    1  0.1446384E-002  0.1250094E+03  0.7818608E-02  0.1235055E+00
          4   -1    0    0  501    0  0.00000000000E+00  0.00000000000E+00  0.83700759803E+02  0.83710394167E+02  0.12700000000E+01 0. -1.
         -4   -1    0    0    0  501 -0.00000000000E+00 -0.00000000000E+00 -0.46655272157E+02  0.46672554248E+02  0.12700000000E+01 0. -1.
         25    2    1    2    0    0  0.00000000000E+00  0.00000000000E+00  0.37045487646E+02  0.13038294841E+03  0.12500937998E+03 0.  0.
    9000005    1    3    3    0    0  0.40790418571E+02  0.41841036596E+02  0.41640947682E+02  0.71760010553E+02  0.10000000000E+01 0.  0.
    9000005    1    3    3    0    0 -0.40790418571E+02 -0.41841036596E+02 -0.45954600366E+01  0.58622937862E+02  0.10000000000E+01 0.  0.
<mgrwt>
<rscale>  0 0.12500938E+03</rscale>
<asrwt>0</asrwt>
<pdfrwt beam="1">  1        4 0.20928554E-01 0.12500938E+03</pdfrwt>
<pdfrwt beam="2">  1       -4 0.11667183E-01 0.12500938E+03</pdfrwt>
<totfact> 0.19539540E+03</totfact>
</mgrwt>
</event>
<event>
 5    1  0.1446384E-002  0.1250012E+03  0.7818608E-02  0.1235067E+00
         -4   -1    0    0    0  501 -0.00000000000E+00  0.00000000000E+00  0.59900207240E+01  0.61231730560E+01  0.12700000000E+01 0.  1.
          4   -1    0    0  501    0  0.00000000000E+00 -0.00000000000E+00 -0.64483664688E+03  0.64483789750E+03  0.12700000000E+01 0.  1.
         25    2    1    2    0    0  0.00000000000E+00  0.00000000000E+00 -0.63884662615E+03  0.65096107056E+03  0.12500121454E+03 0.  0.
    9000005    1    3    3    0    0  0.97525886206E+01 -0.35430226424E+02 -0.58264929585E+03  0.58380785871E+03  0.10000000000E+01 0.  0.
    9000005    1    3    3    0    0 -0.97525886206E+01  0.35430226424E+02 -0.56197330302E+02  0.67153211854E+02  0.10000000000E+01 0.  0.
<mgrwt>
<rscale>  0 0.12500121E+03</rscale>
<asrwt>0</asrwt>
<pdfrwt beam="2">  1        4 0.16122573E+00 0.12500121E+03</pdfrwt>
<pdfrwt beam="1">  1       -4 0.15143077E-02 0.12500121E+03</pdfrwt>
<totfact> 0.67399300E+02</totfact>
</mgrwt>
</event>
<event>
 5    1  0.1446384E-002  0.1249999E+03  0.7818608E-02  0.1235069E+00
          4   -1    0    0  501    0  0.00000000000E+00  0.00000000000E+00  0.26479797782E+03  0.26480102333E+03  0.12700000000E+01 0. -1.
         -4   -1    0    0    0  501 -0.00000000000E+00 -0.00000000000E+00 -0.14721323755E+02  0.14776003285E+02  0.12700000000E+01 0. -1.
         25    2    1    2    0    0  0.00000000000E+00  0.00000000000E+00  0.25007665406E+03  0.27957702662E+03  0.12499992361E+03 0.  0.
    9000005    1    3    3    0    0 -0.23860892365E+02  0.57327645797E+02  0.10931122027E+03  0.12572089736E+03  0.10000000000E+01 0.  0.
    9000005    1    3    3    0    0  0.23860892365E+02 -0.57327645797E+02  0.14076543380E+03  0.15385612926E+03  0.10000000000E+01 0.  0.
<mgrwt>
<rscale>  0 0.12499992E+03</rscale>
<asrwt>0</asrwt>
<pdfrwt beam="1">  1        4 0.66206711E-01 0.12499992E+03</pdfrwt>
<pdfrwt beam="2">  1       -4 0.36875465E-02 0.12499992E+03</pdfrwt>
<totfact> 0.13563414E+03</totfact>
</mgrwt>
</event>
<event>
 5    1  0.1446384E-002  0.1250010E+03  0.7818608E-02  0.1235068E+00
         -4   -1    0    0    0  501 -0.00000000000E+00  0.00000000000E+00  0.45027390848E+01  0.46784141828E+01  0.12700000000E+01 0.  1.
          4   -1    0    0  501    0  0.00000000000E+00 -0.00000000000E+00 -0.85076609299E+03  0.85076704090E+03  0.12700000000E+01 0.  1.
         25    2    1    2    0    0  0.00000000000E+00  0.00000000000E+00 -0.84626335391E+03  0.85544545508E+03  0.12500104983E+03 0.  0.
    9000005    1    3    3    0    0  0.45220538145E+02  0.41475513349E+02 -0.34210030508E+03  0.34756112270E+03  0.10000000000E+01 0.  0.
    9000005    1    3    3    0    0 -0.45220538145E+02 -0.41475513349E+02 -0.50416304883E+03  0.50788433239E+03  0.10000000000E+01 0.  0.
<mgrwt>
<rscale>  0 0.12500105E+03</rscale>
<asrwt>0</asrwt>
<pdfrwt beam="2">  1        4 0.21271306E+00 0.12500105E+03</pdfrwt>
<pdfrwt beam="1">  1       -4 0.11477656E-02 0.12500105E+03</pdfrwt>
<totfact> 0.47784885E+02</totfact>
</mgrwt>
</event>
<event>
 5    1  0.1446384E-002  0.1249989E+03  0.7818608E-02  0.1235071E+00
          4   -1    0    0  501    0  0.00000000000E+00  0.00000000000E+00  0.19467728546E+02  0.19509109533E+02  0.12700000000E+01 0. -1.
         -4   -1    0    0    0  501 -0.00000000000E+00 -0.00000000000E+00 -0.20039262885E+03  0.20039665316E+03  0.12700000000E+01 0. -1.
         25    2    1    2    0    0  0.00000000000E+00  0.00000000000E+00 -0.18092490030E+03  0.21990576269E+03  0.12499889966E+03 0.  0.
    9000005    1    3    3    0    0  0.30601449721E+02  0.48367510708E+02 -0.46329297830E+02  0.73642845237E+02  0.10000000000E+01 0.  0.
    9000005    1    3    3    0    0 -0.30601449721E+02 -0.48367510708E+02 -0.13459560247E+03  0.14626291745E+03  0.10000000000E+01 0.  0.
<mgrwt>
<rscale>  0 0.12499890E+03</rscale>
<asrwt>0</asrwt>
<pdfrwt beam="1">  1        4 0.48726084E-02 0.12499890E+03</pdfrwt>
<pdfrwt beam="2">  1       -4 0.50103826E-01 0.12499890E+03</pdfrwt>
<totfact> 0.15555232E+03</totfact>
</mgrwt>
</event>
<event>
 5    1  0.1446384E-002  0.1249995E+03  0.7818608E-02  0.1235070E+00
         -4   -1    0    0    0  501 -0.00000000000E+00  0.00000000000E+00  0.18152442852E+03  0.18152887112E+03  0.12700000000E+01 0. -1.
          4   -1    0    0  501    0  0.00000000000E+00 -0.00000000000E+00 -0.21495532336E+02  0.21533016751E+02  0.12700000000E+01 0. -1.
         25    2    1    2    0    0  0.00000000000E+00  0.00000000000E+00  0.16002889619E+03  0.20306188787E+03  0.12499953077E+03 0.  0.
    9000005    1    3    3    0    0  0.11210624382E+02  0.48033037362E+02  0.17679945056E+02  0.52406404517E+02  0.10000000000E+01 0.  0.
    9000005    1    3    3    0    0 -0.11210624382E+02 -0.48033037362E+02  0.14234895113E+03  0.15065548336E+03  0.10000000000E+01 0.  0.
<mgrwt>
<rscale>  0 0.12499953E+03</rscale>
<asrwt>0</asrwt>
<pdfrwt beam="2">  1        4 0.53791240E-02 0.12499953E+03</pdfrwt>
<pdfrwt beam="1">  1       -4 0.45386348E-01 0.12499953E+03</pdfrwt>
<totfact> 0.16200344E+03</totfact>
</mgrwt>
</event>
<event>
 5    1  0.1446384E-002  0.1249985E+03  0.7818608E-02  0.1235072E+00
          4   -1    0    0  501    0  0.00000000000E+00  0.00000000000E+00  0.73637653782E+02  0.73648604566E+02  0.12700000000E+01 0. -1.
         -4   -1    0    0    0  501 -0.00000000000E+00 -0.00000000000E+00 -0.53023122814E+02  0.53038330036E+02  0.12700000000E+01 0. -1.
         25    2    1    2    0    0  0.00000000000E+00  0.00000000000E+00  0.20614530968E+02  0.12668693460E+03  0.12499848204E+03 0.  0.
    9000005    1    3    3    0    0  0.32286949037E+02  0.26686794919E+02  0.57307403942E+02  0.70991342062E+02  0.10000000000E+01 0.  0.
    9000005    1    3    3    0    0 -0.32286949037E+02 -0.26686794919E+02 -0.36692872974E+02  0.55695592539E+02  0.10000000000E+01 0.  0.
<mgrwt>
<rscale>  0 0.12499848E+03</rscale>
<asrwt>0</asrwt>
<pdfrwt beam="1">  1        4 0.18412683E-01 0.12499848E+03</pdfrwt>
<pdfrwt beam="2">  1       -4 0.13259051E-01 0.12499848E+03</pdfrwt>
<totfact> 0.19744545E+03</totfact>
</mgrwt>
</event>
<event>
 5    1  0.1446384E-002  0.1250016E+03  0.7818608E-02  0.1235067E+00
          4   -1    0    0  501    0  0.00000000000E+00  0.00000000000E+00  0.22428916088E+02  0.22464843131E+02  0.12700000000E+01 0. -1.
         -4   -1    0    0    0  501 -0.00000000000E+00 -0.00000000000E+00 -0.17398825384E+03  0.17399288886E+03  0.12700000000E+01 0. -1.
         25    2    1    2    0    0  0.00000000000E+00  0.00000000000E+00 -0.15155933775E+03  0.19645773199E+03  0.12500163039E+03 0.  0.
    9000005    1    3    3    0    0 -0.40906101801E+02 -0.13688369935E+02 -0.47131250080E+01  0.43403849868E+02  0.10000000000E+01 0.  0.
    9000005    1    3    3    0    0  0.40906101801E+02  0.13688369935E+02 -0.14684621274E+03  0.15305388212E+03  0.10000000000E+01 0.  0.
<mgrwt>
<rscale>  0 0.12500163E+03</rscale>
<asrwt>0</asrwt>
<pdfrwt beam="1">  1        4 0.56122998E-02 0.12500163E+03</pdfrwt>
<pdfrwt beam="2">  1       -4 0.43502130E-01 0.12500163E+03</pdfrwt>
<totfact> 0.16464248E+03</totfact>
</mgrwt>
</event>
<event>
 5    1  0.1446384E-002  0.1249979E+03  0.7818608E-02  0.1235073E+00
         -4   -1    0    0    0  501 -0.00000000000E+00  0.00000000000E+00  0.49297471268E+02  0.49313827405E+02  0.12700000000E+01 0.  1.
          4   -1    0    0  501    0  0.00000000000E+00 -0.00000000000E+00 -0.79201104488E+02  0.79211286141E+02  0.12700000000E+01 0.  1.
         25    2    1    2    0    0  0.00000000000E+00  0.00000000000E+00 -0.29903633221E+02  0.12852511355E+03  0.12499791011E+03 0.  0.
    9000005    1    3    3    0    0  0.73309156095E+01 -0.60885213996E+02 -0.27306180174E+02  0.67137017231E+02  0.10000000000E+01 0.  0.
    9000005    1    3    3    0    0 -0.73309156095E+01  0.60885213996E+02 -0.25974530470E+01  0.61388096316E+02  0.10000000000E+01 0.  0.
<mgrwt>
<rscale>  0 0.12499791E+03</rscale>
<asrwt>0</asrwt>
<pdfrwt beam="2">  1        4 0.19803593E-01 0.12499791E+03</pdfrwt>
<pdfrwt beam="1">  1       -4 0.12327685E-01 0.12499791E+03</pdfrwt>
<totfact> 0.19644969E+03</totfact>
</mgrwt>
</event>
<event>
 5    1  0.1446384E-002  0.1249967E+03  0.7818608E-02  0.1235074E+00
          4   -1    0    0  501    0  0.00000000000E+00  0.00000000000E+00  0.32580360509E+02  0.32605103756E+02  0.12700000000E+01 0. -1.
         -4   -1    0    0    0  501 -0.00000000000E+00 -0.00000000000E+00 -0.11981589070E+03  0.11982262126E+03  0.12700000000E+01 0. -1.
         25    2    1    2    0    0  0.00000000000E+00  0.00000000000E+00 -0.87235530195E+02  0.15242772501E+03  0.12499669445E+03 0.  0.
    9000005    1    3    3    0    0  0.35210344577E+02  0.46185329853E+02 -0.15485873439E+02  0.60113769929E+02  0.10000000000E+01 0.  0.
    9000005    1    3    3    0    0 -0.35210344577E+02 -0.46185329853E+02 -0.71749656756E+02  0.92313955085E+02  0.10000000000E+01 0.  0.
<mgrwt>
<rscale>  0 0.12499669E+03</rscale>
<asrwt>0</asrwt>
<pdfrwt beam="1">  1        4 0.81490246E-02 0.12499669E+03</pdfrwt>
<pdfrwt beam="2">  1       -4 0.29957906E-01 0.12499669E+03</pdfrwt>
<totfact> 0.18421467E+03</totfact>
</mgrwt>
</event>
<event>
 5    1  0.1446384E-002  0.1249998E+03  0.7818608E-02  0.1235070E+00
         -4   -1    0    0    0  501 -0.00000000000E+00  0.00000000000E+00  0.26190912237E+02  0.26221685373E+02  0.12700000000E+01 0. -1.
          4   -1    0    0  501    0  0.00000000000E+00 -0.00000000000E+00 -0.14902382091E+03  0.14902923236E+03  0.12700000000E+01 0. -1.
         25    2    1    2    0    0  0.00000000000E+00  0.00000000000E+00 -0.12283290867E+03  0.17525091773E+03  0.12499984286E+03 0.  0.
    9000005    1    3    3    0    0 -0.31496078608E+02  0.53752291957E+02 -0.54558304970E+02  0.82818599961E+02  0.10000000000E+01 0.  0.
    9000005    1    3    3    0    0  0.31496078608E+02 -0.53752291957E+02 -0.68274603702E+02  0.92432317774E+02  0.10000000000E+01 0.  0.
<mgrwt>
<rscale>  0 0.12499984E+03</rscale>
<asrwt>0</asrwt>
<pdfrwt beam="2">  1        4 0.37260476E-01 0.12499984E+03</pdfrwt>
<pdfrwt beam="1">  1       -4 0.65522515E-02 0.12499984E+03</pdfrwt>
<totfact> 0.17362840E+03</totfact>
</mgrwt>
</event>
<event>
 5    1  0.1446384E-002  0.1250055E+03  0.7818608E-02  0.1235061E+00
         -4   -1    0    0    0  501 -0.00000000000E+00  0.00000000000E+00  0.19564130745E+03  0.19564542949E+03  0.12700000000E+01 0. -1.
          4   -1    0    0  501    0  0.00000000000E+00 -0.00000000000E+00 -0.19943626260E+02  0.19984021828E+02  0.12700000000E+01 0. -1.
         25    2    1    2    0    0  0.00000000000E+00  0.00000000000E+00  0.17569768119E+03  0.21562945132E+03  0.12500554028E+03 0.  0.
    9000005    1    3    3    0    0  0.59697359152E+02  0.18070348024E+02  0.94592550220E+02  0.11330958796E+03  0.10000000000E+01 0.  0.
    9000005    1    3    3    0    0 -0.59697359152E+02 -0.18070348024E+02  0.81105130974E+02  0.10231986336E+03  0.10000000000E+01 0.  0.
<mgrwt>
<rscale>  0 0.12500554E+03</rscale>
<asrwt>0</asrwt>
<pdfrwt beam="2">  1        4 0.49914713E-02 0.12500554E+03</pdfrwt>
<pdfrwt beam="1">  1       -4 0.48915891E-01 0.12500554E+03</pdfrwt>
<totfact> 0.15712760E+03</totfact>
</mgrwt>
</event>
<event>
 5    1  0.1446384E-002  0.1249920E+03  0.7818608E-02  0.1235082E+00
          4   -1    0    0  501    0  0.00000000000E+00  0.00000000000E+00  0.85113749664E+01  0.86056030479E+01  0.12700000000E+01 0.  1.
         -4   -1    0    0    0  501 -0.00000000000E+00 -0.00000000000E+00 -0.45626494002E+03  0.45626670752E+03  0.12700000000E+01 0.  1.
         25    2    1    2    0    0  0.00000000000E+00  0.00000000000E+00 -0.44775356505E+03  0.46487231056E+03  0.12499204021E+03 0.  0.
    9000005    1    3    3    0    0 -0.43835265580E+02  0.21117002333E+02 -0.36970105581E+03  0.37289050533E+03  0.10000000000E+01 0.  0.
    9000005    1    3    3    0    0  0.43835265580E+02 -0.21117002333E+02 -0.78052509236E+02  0.91981805234E+02  0.10000000000E+01 0.  0.
<mgrwt>
<rscale>  0 0.12499204E+03</rscale>
<asrwt>0</asrwt>
<pdfrwt beam="1">  1        4 0.21398447E-02 0.12499204E+03</pdfrwt>
<pdfrwt beam="2">  1       -4 0.11407815E+00 0.12499204E+03</pdfrwt>
<totfact> 0.93423828E+02</totfact>
</mgrwt>
</event>
<event>
 5    1  0.1446384E-002  0.1249991E+03  0.7818608E-02  0.1235071E+00
         -4   -1    0    0    0  501 -0.00000000000E+00  0.00000000000E+00  0.34994700593E+01  0.37227933996E+01  0.12700000000E+01 0.  1.
          4   -1    0    0  501    0  0.00000000000E+00 -0.00000000000E+00 -0.10814852511E+04  0.10814859967E+04  0.12700000000E+01 0.  1.
         25    2    1    2    0    0  0.00000000000E+00  0.00000000000E+00 -0.10779857810E+04  0.10852087901E+04  0.12499909669E+03 0.  0.
    9000005    1    3    3    0    0 -0.37025574544E+01 -0.52745131869E+02 -0.82816572491E+03  0.82985253255E+03  0.10000000000E+01 0.  0.
    9000005    1    3    3    0    0  0.37025574544E+01  0.52745131869E+02 -0.24982005609E+03  0.25535625759E+03  0.10000000000E+01 0.  0.
<mgrwt>
<rscale>  0 0.12499910E+03</rscale>
<asrwt>0</asrwt>
<pdfrwt beam="2">  1        4 0.27039821E+00 0.12499910E+03</pdfrwt>
<pdfrwt beam="1">  1       -4 0.90287985E-03 0.12499910E+03</pdfrwt>
<totfact> 0.31671045E+02</totfact>
</mgrwt>
</event>
<event>
 5    1  0.1446384E-002  0.1249967E+03  0.7818608E-02  0.1235074E+00
          4   -1    0    0  501    0  0.00000000000E+00  0.00000000000E+00  0.16480603242E+02  0.16529464093E+02  0.12700000000E+01 0. -1.
         -4   -1    0    0    0  501 -0.00000000000E+00 -0.00000000000E+00 -0.23660706275E+03  0.23661047112E+03  0.12700000000E+01 0. -1.
         25    2    1    2    0    0  0.00000000000E+00  0.00000000000E+00 -0.22012645951E+03  0.25313993522E+03  0.12499667445E+03 0.  0.
    9000005    1    3    3    0    0 -0.10017682839E+02 -0.60197211215E+02 -0.13730794263E+03  0.15026153638E+03  0.10000000000E+01 0.  0.
    9000005    1    3    3    0    0  0.10017682839E+02  0.60197211215E+02 -0.82818516888E+02  0.10287839884E+03  0.10000000000E+01 0.  0.
<mgrwt>
<rscale>  0 0.12499667E+03</rscale>
<asrwt>0</asrwt>
<pdfrwt beam="1">  1        4 0.41266852E-02 0.12499667E+03</pdfrwt>
<pdfrwt beam="2">  1       -4 0.59158289E-01 0.12499667E+03</pdfrwt>
<totfact> 0.14395217E+03</totfact>
</mgrwt>
</event>
<event>
 5    1  0.1446384E-002  0.1249911E+03  0.7818608E-02  0.1235083E+00
          4   -1    0    0  501    0  0.00000000000E+00  0.00000000000E+00  0.43666531597E+03  0.43666716280E+03  0.12700000000E+01 0.  1.
         -4   -1    0    0    0  501 -0.00000000000E+00 -0.00000000000E+00 -0.88974069776E+01  0.89875887158E+01  0.12700000000E+01 0.  1.
         25    2    1    2    0    0  0.00000000000E+00  0.00000000000E+00  0.42776790899E+03  0.44565475152E+03  0.12499109404E+03 0.  0.
    9000005    1    3    3    0    0  0.15323870913E+02  0.19980229409E+02  0.41779340684E+03  0.41855269846E+03  0.10000000000E+01 0.  0.
    9000005    1    3    3    0    0 -0.15323870913E+02 -0.19980229409E+02  0.99745021516E+01  0.27102053061E+02  0.10000000000E+01 0.  0.
<mgrwt>
<rscale>  0 0.12499109E+03</rscale>
<asrwt>0</asrwt>
<pdfrwt beam="1">  1        4 0.10917783E+00 0.12499109E+03</pdfrwt>
<pdfrwt beam="2">  1       -4 0.22358554E-02 0.12499109E+03</pdfrwt>
<totfact> 0.96821972E+02</totfact>
</mgrwt>
</event>
<event>
 5    1  0.1446384E-002  0.1250019E+03  0.7818608E-02  0.1235066E+00
         -4   -1    0    0    0  501 -0.00000000000E+00  0.00000000000E+00  0.87209249535E+03  0.87209342008E+03  0.12700000000E+01 0.  1.
          4   -1    0    0  501    0  0.00000000000E+00 -0.00000000000E+00 -0.43883432501E+01  0.45684194730E+01  0.12700000000E+01 0.  1.
         25    2    1    2    0    0  0.00000000000E+00  0.00000000000E+00  0.86770415210E+03  0.87666183955E+03  0.12500194141E+03 0.  0.
    9000005    1    3    3    0    0 -0.22192443268E+02  0.57819577036E+02  0.37527483808E+03  0.38035222113E+03  0.10000000000E+01 0.  0.
    9000005    1    3    3    0    0  0.22192443268E+02 -0.57819577036E+02  0.49242931402E+03  0.49630961842E+03  0.10000000000E+01 0.  0.
<mgrwt>
<rscale>  0 0.12500194E+03</rscale>
<asrwt>0</asrwt>
<pdfrwt beam="2">  1        4 0.11197108E-02 0.12500194E+03</pdfrwt>
<pdfrwt beam="1">  1       -4 0.21804578E+00 0.12500194E+03</pdfrwt>
<totfact> 0.46083640E+02</totfact>
</mgrwt>
</event>
<event>
 5    1  0.1446384E-002  0.1250008E+03  0.7818608E-02  0.1235068E+00
          4   -1    0    0  501    0  0.00000000000E+00  0.00000000000E+00  0.72308929131E+02  0.72320081112E+02  0.12700000000E+01 0.  1.
         -4   -1    0    0    0  501 -0.00000000000E+00 -0.00000000000E+00 -0.53999607381E+02  0.54014539684E+02  0.12700000000E+01 0.  1.
         25    2    1    2    0    0  0.00000000000E+00  0.00000000000E+00  0.18309321750E+02  0.12633462080E+03  0.12500082059E+03 0.  0.
    9000005    1    3    3    0    0 -0.17750991049E+02  0.38090633145E+02  0.55900838038E+02  0.69942102556E+02  0.10000000000E+01 0.  0.
    9000005    1    3    3    0    0  0.17750991049E+02 -0.38090633145E+02 -0.37591516289E+02  0.56392518240E+02  0.10000000000E+01 0.  0.
<mgrwt>
<rscale>  0 0.12500082E+03</rscale>
<asrwt>0</asrwt>
<pdfrwt beam="1">  1        4 0.18080493E-01 0.12500082E+03</pdfrwt>
<pdfrwt beam="2">  1       -4 0.13503162E-01 0.12500082E+03</pdfrwt>
<totfact> 0.19762469E+03</totfact>
</mgrwt>
</event>
<event>
 5    1  0.1446384E-002  0.1250021E+03  0.7818608E-02  0.1235066E+00
         -4   -1    0    0    0  501 -0.00000000000E+00  0.00000000000E+00  0.16795305263E+02  0.16843253215E+02  0.12700000000E+01 0.  1.
          4   -1    0    0  501    0  0.00000000000E+00 -0.00000000000E+00 -0.23220660953E+03  0.23221008249E+03  0.12700000000E+01 0.  1.
         25    2    1    2    0    0  0.00000000000E+00  0.00000000000E+00 -0.21541130427E+03  0.24905333570E+03  0.12500213606E+03 0.  0.
    9000005    1    3    3    0    0 -0.36684240963E+02  0.37960079432E+02 -0.41066675443E+02  0.66889259208E+02  0.10000000000E+01 0.  0.
    9000005    1    3    3    0    0  0.36684240963E+02 -0.37960079432E+02 -0.17434462882E+03  0.18216407650E+03  0.10000000000E+01 0.  0.
<mgrwt>
<rscale>  0 0.12500214E+03</rscale>
<asrwt>0</asrwt>
<pdfrwt beam="2">  1        4 0.58058070E-01 0.12500214E+03</pdfrwt>
<pdfrwt beam="1">  1       -4 0.42052547E-02 0.12500214E+03</pdfrwt>
<totfact> 0.14528819E+03</totfact>
</mgrwt>
</event>
<event>
 5    1  0.1446384E-002  0.1250000E+03  0.7818608E-02  0.1235069E+00
         -4   -1    0    0    0  501 -0.00000000000E+00  0.00000000000E+00  0.59115953621E+03  0.59116090039E+03  0.12700000000E+01 0.  1.
          4   -1    0    0  501    0  0.00000000000E+00 -0.00000000000E+00 -0.65453733718E+01  0.66674442312E+01  0.12700000000E+01 0.  1.
         25    2    1    2    0    0  0.00000000000E+00  0.00000000000E+00  0.58461416284E+03  0.59782834462E+03  0.12500004097E+03 0.  0.
    9000005    1    3    3    0    0  0.77743963816E+01  0.53595095068E+02  0.14317066285E+03  0.15307421127E+03  0.10000000000E+01 0.  0.
    9000005    1    3    3    0    0 -0.77743963816E+01 -0.53595095068E+02  0.44144349999E+03  0.44475413335E+03  0.10000000000E+01 0.  0.
<mgrwt>
<rscale>  0 0.12500004E+03</rscale>
<asrwt>0</asrwt>
<pdfrwt beam="2">  1        4 0.16517727E-02 0.12500004E+03</pdfrwt>
<pdfrwt beam="1">  1       -4 0.14780531E+00 0.12500004E+03</pdfrwt>
<totfact> 0.73776739E+02</totfact>
</mgrwt>
</event>
<event>
 5    1  0.1446384E-002  0.1250033E+03  0.7818608E-02  0.1235064E+00
         -4   -1    0    0    0  501 -0.00000000000E+00  0.00000000000E+00  0.15320623658E+03  0.15321150031E+03  0.12700000000E+01 0.  1.
          4   -1    0    0  501    0  0.00000000000E+00 -0.00000000000E+00 -0.25476515941E+02  0.25508150942E+02  0.12700000000E+01 0.  1.
         25    2    1    2    0    0  0.00000000000E+00  0.00000000000E+00  0.12772972064E+03  0.17871965125E+03  0.12500332879E+03 0.  0.
    9000005    1    3    3    0    0 -0.10281179625E+02  0.21421845485E+02 -0.18773152285E+02  0.30298999409E+02  0.10000000000E+01 0.  0.
    9000005    1    3    3    0    0  0.10281179625E+02 -0.21421845485E+02  0.14650287292E+03  0.14842065184E+03  0.10000000000E+01 0.  0.
<mgrwt>
<rscale>  0 0.12500333E+03</rscale>
<asrwt>0</asrwt>
<pdfrwt beam="2">  1        4 0.63737414E-02 0.12500333E+03</pdfrwt>
<pdfrwt beam="1">  1       -4 0.38306171E-01 0.12500333E+03</pdfrwt>
<totfact> 0.17209448E+03</totfact>
</mgrwt>
</event>
<event>
 5    1  0.1446384E-002  0.1249975E+03  0.7818608E-02  0.1235073E+00
          4   -1    0    0  501    0  0.00000000000E+00  0.00000000000E+00  0.62112464227E+01  0.63397541059E+01  0.12700000000E+01 0.  1.
         -4   -1    0    0    0  501 -0.00000000000E+00 -0.00000000000E+00 -0.62230624304E+03  0.62230753894E+03  0.12700000000E+01 0.  1.
         25    2    1    2    0    0  0.00000000000E+00  0.00000000000E+00 -0.61609499662E+03  0.62864729305E+03  0.12499749678E+03 0.  0.
    9000005    1    3    3    0    0 -0.20328508906E+02 -0.10813392815E+02 -0.60021856480E+03  0.60066088875E+03  0.10000000000E+01 0.  0.
    9000005    1    3    3    0    0  0.20328508906E+02  0.10813392815E+02 -0.15876431812E+02  0.27986404299E+02  0.10000000000E+01 0.  0.
<mgrwt>
<rscale>  0 0.12499750E+03</rscale>
<asrwt>0</asrwt>
<pdfrwt beam="1">  1        4 0.15690392E-02 0.12499750E+03</pdfrwt>
<pdfrwt beam="2">  1       -4 0.15559258E+00 0.12499750E+03</pdfrwt>
<totfact> 0.70012243E+02</totfact>
</mgrwt>
</event>
<event>
 5    1  0.1446384E-002  0.1249820E+03  0.7818608E-02  0.1235097E+00
         -4   -1    0    0    0  501 -0.00000000000E+00  0.00000000000E+00  0.38224736807E+03  0.38224947782E+03  0.12700000000E+01 0.  1.
          4   -1    0    0  501    0  0.00000000000E+00 -0.00000000000E+00 -0.10174610980E+02  0.10253565653E+02  0.12700000000E+01 0.  1.
         25    2    1    2    0    0  0.00000000000E+00  0.00000000000E+00  0.37207275709E+03  0.39250304347E+03  0.12498200898E+03 0.  0.
    9000005    1    3    3    0    0 -0.15141754570E+02 -0.58861715683E+02  0.23156260001E+03  0.23940804504E+03  0.10000000000E+01 0.  0.
    9000005    1    3    3    0    0  0.15141754570E+02  0.58861715683E+02  0.14051015708E+03  0.15309499844E+03  0.10000000000E+01 0.  0.
<mgrwt>
<rscale>  0 0.12498201E+03</rscale>
<asrwt>0</asrwt>
<pdfrwt beam="2">  1        4 0.25537857E-02 0.12498201E+03</pdfrwt>
<pdfrwt beam="1">  1       -4 0.95571979E-01 0.12498201E+03</pdfrwt>
<totfact> 0.10729667E+03</totfact>
</mgrwt>
</event>
<event>
 5    1  0.1446384E-002  0.1249987E+03  0.7818608E-02  0.1235071E+00
          4   -1    0    0  501    0  0.00000000000E+00  0.00000000000E+00  0.20335515304E+02  0.20375133931E+02  0.12700000000E+01 0.  1.
         -4   -1    0    0    0  501 -0.00000000000E+00 -0.00000000000E+00 -0.19185738830E+03  0.19186159163E+03  0.12700000000E+01 0.  1.
         25    2    1    2    0    0  0.00000000000E+00  0.00000000000E+00 -0.17152187299E+03  0.21223672556E+03  0.12499869905E+03 0.  0.
    9000005    1    3    3    0    0 -0.26205281360E+02  0.40665298664E+02 -0.15292584645E+03  0.16039855922E+03  0.10000000000E+01 0.  0.
    9000005    1    3    3    0    0  0.26205281360E+02 -0.40665298664E+02 -0.18596026537E+02  0.51838166341E+02  0.10000000000E+01 0.  0.
<mgrwt>
<rscale>  0 0.12499870E+03</rscale>
<asrwt>0</asrwt>
<pdfrwt beam="1">  1        4 0.50893572E-02 0.12499870E+03</pdfrwt>
<pdfrwt beam="2">  1       -4 0.47969819E-01 0.12499870E+03</pdfrwt>
<totfact> 0.15843990E+03</totfact>
</mgrwt>
</event>
<event>
 5    1  0.1446384E-002  0.1249858E+03  0.7818608E-02  0.1235092E+00
         -4   -1    0    0    0  501 -0.00000000000E+00  0.00000000000E+00  0.91170248825E+01  0.92050552800E+01  0.12700000000E+01 0.  1.
          4   -1    0    0  501    0  0.00000000000E+00 -0.00000000000E+00 -0.42621194171E+03  0.42621383384E+03  0.12700000000E+01 0.  1.
         25    2    1    2    0    0  0.00000000000E+00  0.00000000000E+00 -0.41709491683E+03  0.43541888912E+03  0.12498575662E+03 0.  0.
    9000005    1    3    3    0    0 -0.15433494466E+02  0.56352018732E+02 -0.13138286531E+03  0.14379221142E+03  0.10000000000E+01 0.  0.
    9000005    1    3    3    0    0  0.15433494466E+02 -0.56352018732E+02 -0.28571205151E+03  0.29162667770E+03  0.10000000000E+01 0.  0.
<mgrwt>
<rscale>  0 0.12498576E+03</rscale>
<asrwt>0</asrwt>
<pdfrwt beam="2">  1        4 0.10656416E+00 0.12498576E+03</pdfrwt>
<pdfrwt beam="1">  1       -4 0.22904980E-02 0.12498576E+03</pdfrwt>
<totfact> 0.98726999E+02</totfact>
</mgrwt>
</event>
<event>
 5    1  0.1446384E-002  0.1250284E+03  0.7818608E-02  0.1235025E+00
          4   -1    0    0  501    0  0.00000000000E+00  0.00000000000E+00  0.63608400226E+02  0.63621077320E+02  0.12700000000E+01 0. -1.
         -4   -1    0    0    0  501 -0.00000000000E+00 -0.00000000000E+00 -0.61413463136E+02  0.61426593218E+02  0.12700000000E+01 0. -1.
         25    2    1    2    0    0  0.00000000000E+00  0.00000000000E+00  0.21949370899E+01  0.12504767054E+03  0.12502840540E+03 0.  0.
    9000005    1    3    3    0    0  0.29260883203E+02 -0.53928429723E+02  0.13038768930E+02  0.62733438559E+02  0.10000000000E+01 0.  0.
    9000005    1    3    3    0    0 -0.29260883203E+02  0.53928429723E+02 -0.10843831840E+02  0.62314231979E+02  0.10000000000E+01 0.  0.
<mgrwt>
<rscale>  0 0.12502841E+03</rscale>
<asrwt>0</asrwt>
<pdfrwt beam="1">  1        4 0.15905326E-01 0.12502841E+03</pdfrwt>
<pdfrwt beam="2">  1       -4 0.15356592E-01 0.12502841E+03</pdfrwt>
<totfact> 0.19819294E+03</totfact>
</mgrwt>
</event>
<event>
 5    1  0.1446384E-002  0.1249976E+03  0.7818608E-02  0.1235073E+00
          4   -1    0    0  501    0  0.00000000000E+00  0.00000000000E+00  0.54725833145E+03  0.54725980507E+03  0.12700000000E+01 0.  1.
         -4   -1    0    0    0  501 -0.00000000000E+00 -0.00000000000E+00 -0.70795911137E+01  0.71926010829E+01  0.12700000000E+01 0.  1.
         25    2    1    2    0    0  0.00000000000E+00  0.00000000000E+00  0.54017874034E+03  0.55445240615E+03  0.12499759667E+03 0.  0.
    9000005    1    3    3    0    0 -0.32541070432E+02  0.52401409741E+02  0.31450643117E+03  0.32049980383E+03  0.10000000000E+01 0.  0.
    9000005    1    3    3    0    0  0.32541070432E+02 -0.52401409741E+02  0.22567230917E+03  0.23395260232E+03  0.10000000000E+01 0.  0.
<mgrwt>
<rscale>  0 0.12499760E+03</rscale>
<asrwt>0</asrwt>
<pdfrwt beam="1">  1        4 0.13682889E+00 0.12499760E+03</pdfrwt>
<pdfrwt beam="2">  1       -4 0.17842083E-02 0.12499760E+03</pdfrwt>
<totfact> 0.79553311E+02</totfact>
</mgrwt>
</event>
<event>
 5    1  0.1446384E-002  0.1249995E+03  0.7818608E-02  0.1235070E+00
          4   -1    0    0  501    0  0.00000000000E+00  0.00000000000E+00  0.72976964756E+02  0.72988014667E+02  0.12700000000E+01 0. -1.
         -4   -1    0    0    0  501 -0.00000000000E+00 -0.00000000000E+00 -0.53504132950E+02  0.53519203495E+02  0.12700000000E+01 0. -1.
         25    2    1    2    0    0  0.00000000000E+00  0.00000000000E+00  0.19472831806E+02  0.12650721816E+03  0.12499954027E+03 0.  0.
    9000005    1    3    3    0    0  0.47401644608E+01  0.43764266453E+02  0.54627258674E+02  0.70163505952E+02  0.10000000000E+01 0.  0.
    9000005    1    3    3    0    0 -0.47401644608E+01 -0.43764266453E+02 -0.35154426868E+02  0.56343712211E+02  0.10000000000E+01 0.  0.
<mgrwt>
<rscale>  0 0.12499954E+03</rscale>
<asrwt>0</asrwt>
<pdfrwt beam="1">  1        4 0.18247506E-01 0.12499954E+03</pdfrwt>
<pdfrwt beam="2">  1       -4 0.13379298E-01 0.12499954E+03</pdfrwt>
<totfact> 0.19753748E+03</totfact>
</mgrwt>
</event>
<event>
 5    1  0.1446384E-002  0.1249971E+03  0.7818608E-02  0.1235074E+00
         -4   -1    0    0    0  501 -0.00000000000E+00  0.00000000000E+00  0.57706302183E+02  0.57720275568E+02  0.12700000000E+01 0. -1.
          4   -1    0    0  501    0  0.00000000000E+00 -0.00000000000E+00 -0.67660673892E+02  0.67672591878E+02  0.12700000000E+01 0. -1.
         25    2    1    2    0    0  0.00000000000E+00  0.00000000000E+00 -0.99543717088E+01  0.12539286745E+03  0.12499712673E+03 0.  0.
    9000005    1    3    3    0    0 -0.22385563398E+02 -0.54960199318E+02  0.14663704491E+02  0.61137232413E+02  0.10000000000E+01 0.  0.
    9000005    1    3    3    0    0  0.22385563398E+02  0.54960199318E+02 -0.24618076200E+02  0.64255635033E+02  0.10000000000E+01 0.  0.
<mgrwt>
<rscale>  0 0.12499713E+03</rscale>
<asrwt>0</asrwt>
<pdfrwt beam="2">  1        4 0.16918405E-01 0.12499713E+03</pdfrwt>
<pdfrwt beam="1">  1       -4 0.14429812E-01 0.12499713E+03</pdfrwt>
<totfact> 0.19815096E+03</totfact>
</mgrwt>
</event>
<event>
 5    1  0.1446384E-002  0.1250019E+03  0.7818608E-02  0.1235066E+00
          4   -1    0    0  501    0  0.00000000000E+00  0.00000000000E+00  0.36989630572E+01  0.39109113642E+01  0.12700000000E+01 0. -1.
         -4   -1    0    0    0  501 -0.00000000000E+00 -0.00000000000E+00 -0.10264449931E+04  0.10264457788E+04  0.12700000000E+01 0. -1.
         25    2    1    2    0    0  0.00000000000E+00  0.00000000000E+00 -0.10227460300E+04  0.10303566901E+04  0.12500186775E+03 0.  0.
    9000005    1    3    3    0    0  0.27454538760E+02 -0.24504729588E+02 -0.95043053898E+02  0.10192357708E+03  0.10000000000E+01 0.  0.
    9000005    1    3    3    0    0 -0.27454538760E+02  0.24504729588E+02 -0.92770297612E+03  0.92843311304E+03  0.10000000000E+01 0.  0.
<mgrwt>
<rscale>  0 0.12500187E+03</rscale>
<asrwt>0</asrwt>
<pdfrwt beam="1">  1        4 0.95133602E-03 0.12500187E+03</pdfrwt>
<pdfrwt beam="2">  1       -4 0.25663689E+00 0.12500187E+03</pdfrwt>
<totfact> 0.35103626E+02</totfact>
</mgrwt>
</event>
<event>
 5    1  0.1446384E-002  0.1249996E+03  0.7818608E-02  0.1235070E+00
          4   -1    0    0  501    0  0.00000000000E+00  0.00000000000E+00  0.18648411708E+02  0.18691606652E+02  0.12700000000E+01 0.  1.
         -4   -1    0    0    0  501 -0.00000000000E+00 -0.00000000000E+00 -0.20917930459E+03  0.20918315986E+03  0.12700000000E+01 0.  1.
         25    2    1    2    0    0  0.00000000000E+00  0.00000000000E+00 -0.19053089288E+03  0.22787476651E+03  0.12499955228E+03 0.  0.
    9000005    1    3    3    0    0  0.53663688116E+01  0.27115480825E+02  0.69070092677E+01  0.28508840587E+02  0.10000000000E+01 0.  0.
    9000005    1    3    3    0    0 -0.53663688116E+01 -0.27115480825E+02 -0.19743790215E+03  0.19936592593E+03  0.10000000000E+01 0.  0.
<mgrwt>
<rscale>  0 0.12499955E+03</rscale>
<asrwt>0</asrwt>
<pdfrwt beam="1">  1        4 0.46679849E-02 0.12499955E+03</pdfrwt>
<pdfrwt beam="2">  1       -4 0.52300700E-01 0.12499955E+03</pdfrwt>
<totfact> 0.15263708E+03</totfact>
</mgrwt>
</event>
<event>
 5    1  0.1446384E-002  0.1249984E+03  0.7818608E-02  0.1235072E+00
          4   -1    0    0  501    0  0.00000000000E+00  0.00000000000E+00  0.47080238284E+02  0.47097364437E+02  0.12700000000E+01 0.  1.
         -4   -1    0    0    0  501 -0.00000000000E+00 -0.00000000000E+00 -0.82930859715E+02  0.82940583511E+02  0.12700000000E+01 0.  1.
         25    2    1    2    0    0  0.00000000000E+00  0.00000000000E+00 -0.35850621431E+02  0.13003794795E+03  0.12499840339E+03 0.  0.
    9000005    1    3    3    0    0 -0.16011994258E+01 -0.57585066220E+02 -0.43120456373E+02  0.71965112721E+02  0.10000000000E+01 0.  0.
    9000005    1    3    3    0    0  0.16011994258E+01  0.57585066220E+02  0.72698349425E+01  0.58072835226E+02  0.10000000000E+01 0.  0.
<mgrwt>
<rscale>  0 0.12499840E+03</rscale>
<asrwt>0</asrwt>
<pdfrwt beam="1">  1        4 0.11773416E-01 0.12499840E+03</pdfrwt>
<pdfrwt beam="2">  1       -4 0.20736071E-01 0.12499840E+03</pdfrwt>
<totfact> 0.19563072E+03</totfact>
</mgrwt>
</event>
<event>
 5    1  0.1446384E-002  0.1249970E+03  0.7818608E-02  0.1235074E+00
         -4   -1    0    0    0  501 -0.00000000000E+00  0.00000000000E+00  0.49009873964E+02  0.49026326050E+02  0.12700000000E+01 0.  1.
          4   -1    0    0  501    0  0.00000000000E+00 -0.00000000000E+00 -0.79664622814E+02  0.79674745234E+02  0.12700000000E+01 0.  1.
         25    2    1    2    0    0  0.00000000000E+00  0.00000000000E+00 -0.30654748850E+02  0.12870107128E+03  0.12499700845E+03 0.  0.
    9000005    1    3    3    0    0  0.14983267633E+02  0.56983132083E+02 -0.36764708296E+02  0.69456601033E+02  0.10000000000E+01 0.  0.
    9000005    1    3    3    0    0 -0.14983267633E+02 -0.56983132083E+02  0.61099594460E+01  0.59244470251E+02  0.10000000000E+01 0.  0.
<mgrwt>
<rscale>  0 0.12499701E+03</rscale>
<asrwt>0</asrwt>
<pdfrwt beam="2">  1        4 0.19919477E-01 0.12499701E+03</pdfrwt>
<pdfrwt beam="1">  1       -4 0.12255790E-01 0.12499701E+03</pdfrwt>
<totfact> 0.19635845E+03</totfact>
</mgrwt>
</event>
<event>
 5    1  0.1446384E-002  0.1249980E+03  0.7818608E-02  0.1235072E+00
          4   -1    0    0  501    0  0.00000000000E+00  0.00000000000E+00  0.15321451064E+03  0.15321977408E+03  0.12700000000E+01 0.  1.
         -4   -1    0    0    0  501 -0.00000000000E+00 -0.00000000000E+00 -0.25472945368E+02  0.25504584798E+02  0.12700000000E+01 0.  1.
         25    2    1    2    0    0  0.00000000000E+00  0.00000000000E+00  0.12774156527E+03  0.17872435888E+03  0.12499795582E+03 0.  0.
    9000005    1    3    3    0    0 -0.42068883779E+02 -0.39624448988E+02  0.29877344556E+02  0.65065687254E+02  0.10000000000E+01 0.  0.
    9000005    1    3    3    0    0  0.42068883779E+02  0.39624448988E+02  0.97864220713E+02  0.11365867163E+03  0.10000000000E+01 0.  0.
<mgrwt>
<rscale>  0 0.12499796E+03</rscale>
<asrwt>0</asrwt>
<pdfrwt beam="1">  1        4 0.38308240E-01 0.12499796E+03</pdfrwt>
<pdfrwt beam="2">  1       -4 0.63728493E-02 0.12499796E+03</pdfrwt>
<totfact> 0.17211388E+03</totfact>
</mgrwt>
</event>
<event>
 5    1  0.1446384E-002  0.1249912E+03  0.7818608E-02  0.1235083E+00
         -4   -1    0    0    0  501 -0.00000000000E+00  0.00000000000E+00  0.57436123004E+02  0.57450162103E+02  0.12700000000E+01 0.  1.
          4   -1    0    0  501    0  0.00000000000E+00 -0.00000000000E+00 -0.67972531594E+02  0.67984394910E+02  0.12700000000E+01 0.  1.
         25    2    1    2    0    0  0.00000000000E+00  0.00000000000E+00 -0.10536408591E+02  0.12543455701E+03  0.12499124844E+03 0.  0.
    9000005    1    3    3    0    0 -0.11413792118E+02 -0.60389448246E+02  0.60653414267E+01  0.61765269177E+02  0.10000000000E+01 0.  0.
    9000005    1    3    3    0    0  0.11413792118E+02  0.60389448246E+02 -0.16601750017E+02  0.63669287836E+02  0.10000000000E+01 0.  0.
<mgrwt>
<rscale>  0 0.12499125E+03</rscale>
<asrwt>0</asrwt>
<pdfrwt beam="2">  1        4 0.16996371E-01 0.12499125E+03</pdfrwt>
<pdfrwt beam="1">  1       -4 0.14362269E-01 0.12499125E+03</pdfrwt>
<totfact> 0.19815564E+03</totfact>
</mgrwt>
</event>
<event>
 4    1  0.1446384E-002  0.1251171E+03  0.7818608E-02  0.1234886E+00
         -4   -1    0    0    0  501 -0.00000000000E+00  0.00000000000E+00  0.63795788024E+02  0.63808427889E+02  0.12700000000E+01 0.  1.
          4   -1    0    0  501    0  0.00000000000E+00 -0.00000000000E+00 -0.61320058209E+02  0.61333208287E+02  0.12700000000E+01 0.  1.
    9000005    1    1    2    0    0 -0.43380375178E+02 -0.44868059480E+02  0.54309706657E+01  0.62653772069E+02  0.10000000000E+01 0.  0.
    9000005    1    1    2    0    0  0.43380375178E+02  0.44868059480E+02 -0.29552408505E+01  0.62487864107E+02  0.10000000000E+01 0.  0.
<mgrwt>
<rscale>  0 0.12511714E+03</rscale>
<asrwt>0</asrwt>
<pdfrwt beam="2">  1        4 0.15333238E-01 0.12511714E+03</pdfrwt>
<pdfrwt beam="1">  1       -4 0.15952171E-01 0.12511714E+03</pdfrwt>
<totfact> 0.19773127E+03</totfact>
</mgrwt>
</event>
<event>
 5    1  0.1446384E-002  0.1250028E+03  0.7818608E-02  0.1235065E+00
         -4   -1    0    0    0  501 -0.00000000000E+00  0.00000000000E+00  0.14887485743E+02  0.14941557206E+02  0.12700000000E+01 0. -1.
          4   -1    0    0  501    0  0.00000000000E+00 -0.00000000000E+00 -0.26186549867E+03  0.26186857829E+03  0.12700000000E+01 0. -1.
         25    2    1    2    0    0  0.00000000000E+00  0.00000000000E+00 -0.24697801293E+03  0.27681013549E+03  0.12500284894E+03 0.  0.
    9000005    1    3    3    0    0  0.58105014134E+02  0.10169862767E+02 -0.77793905625E+02  0.97634576501E+02  0.10000000000E+01 0.  0.
    9000005    1    3    3    0    0 -0.58105014134E+02 -0.10169862767E+02 -0.16918410730E+03  0.17917555899E+03  0.10000000000E+01 0.  0.
<mgrwt>
<rscale>  0 0.12500285E+03</rscale>
<asrwt>0</asrwt>
<pdfrwt beam="2">  1        4 0.65473504E-01 0.12500285E+03</pdfrwt>
<pdfrwt beam="1">  1       -4 0.37290162E-02 0.12500285E+03</pdfrwt>
<totfact> 0.13645933E+03</totfact>
</mgrwt>
</event>
<event>
 5    1  0.1446384E-002  0.1250014E+03  0.7818608E-02  0.1235067E+00
          4   -1    0    0  501    0  0.00000000000E+00  0.00000000000E+00  0.11830046779E+03  0.11830728455E+03  0.12700000000E+01 0. -1.
         -4   -1    0    0    0  501 -0.00000000000E+00 -0.00000000000E+00 -0.33000517455E+02  0.33024945909E+02  0.12700000000E+01 0. -1.
         25    2    1    2    0    0  0.00000000000E+00  0.00000000000E+00  0.85299950333E+02  0.15133223046E+03  0.12500144979E+03 0.  0.
    9000005    1    3    3    0    0  0.52080274839E+02 -0.25056559121E+02  0.13869368030E+02  0.59443633400E+02  0.10000000000E+01 0.  0.
    9000005    1    3    3    0    0 -0.52080274839E+02  0.25056559121E+02  0.71430582303E+02  0.91888597064E+02  0.10000000000E+01 0.  0.
<mgrwt>
<rscale>  0 0.12500145E+03</rscale>
<asrwt>0</asrwt>
<pdfrwt beam="1">  1        4 0.29579022E-01 0.12500145E+03</pdfrwt>
<pdfrwt beam="2">  1       -4 0.82540351E-02 0.12500145E+03</pdfrwt>
<totfact> 0.18472845E+03</totfact>
</mgrwt>
</event>
<event>
 5    1  0.1446384E-002  0.1250285E+03  0.7818608E-02  0.1235025E+00
          4   -1    0    0  501    0  0.00000000000E+00  0.00000000000E+00  0.17933921206E+02  0.17978832827E+02  0.12700000000E+01 0. -1.
         -4   -1    0    0    0  501 -0.00000000000E+00 -0.00000000000E+00 -0.21759361268E+03  0.21759731887E+03  0.12700000000E+01 0. -1.
         25    2    1    2    0    0  0.00000000000E+00  0.00000000000E+00 -0.19965969147E+03  0.23557615170E+03  0.12502852014E+03 0.  0.
    9000005    1    3    3    0    0 -0.60031793767E+02  0.82954141939E+00 -0.13260201906E+03  0.14556373127E+03  0.10000000000E+01 0.  0.
    9000005    1    3    3    0    0  0.60031793767E+02 -0.82954141939E+00 -0.67057672412E+02  0.90012420428E+02  0.10000000000E+01 0.  0.
<mgrwt>
<rscale>  0 0.12502852E+03</rscale>
<asrwt>0</asrwt>
<pdfrwt beam="1">  1        4 0.44895582E-02 0.12502852E+03</pdfrwt>
<pdfrwt beam="2">  1       -4 0.54404472E-01 0.12502852E+03</pdfrwt>
<totfact> 0.14980245E+03</totfact>
</mgrwt>
</event>
<event>
 5    1  0.1446384E-002  0.1250044E+03  0.7818608E-02  0.1235062E+00
          4   -1    0    0  501    0  0.00000000000E+00  0.00000000000E+00  0.80869553830E+01  0.81860703251E+01  0.12700000000E+01 0.  1.
         -4   -1    0    0    0  501 -0.00000000000E+00 -0.00000000000E+00 -0.48002274935E+03  0.48002442937E+03  0.12700000000E+01 0.  1.
         25    2    1    2    0    0  0.00000000000E+00  0.00000000000E+00 -0.47193579396E+03  0.48821049969E+03  0.12500439347E+03 0.  0.
    9000005    1    3    3    0    0 -0.48805086501E+02 -0.30850836911E+02 -0.32935980032E+03  0.33438389416E+03  0.10000000000E+01 0.  0.
    9000005    1    3    3    0    0  0.48805086501E+02  0.30850836911E+02 -0.14257599364E+03  0.15382660553E+03  0.10000000000E+01 0.  0.
<mgrwt>
<rscale>  0 0.12500439E+03</rscale>
<asrwt>0</asrwt>
<pdfrwt beam="1">  1        4 0.20343398E-02 0.12500439E+03</pdfrwt>
<pdfrwt beam="2">  1       -4 0.12001819E+00 0.12500439E+03</pdfrwt>
<totfact> 0.89503126E+02</totfact>
</mgrwt>
</event>
<event>
 5    1  0.1446384E-002  0.1249873E+03  0.7818608E-02  0.1235089E+00
          4   -1    0    0  501    0  0.00000000000E+00  0.00000000000E+00  0.95414580769E+02  0.95423032457E+02  0.12700000000E+01 0. -1.
         -4   -1    0    0    0  501 -0.00000000000E+00 -0.00000000000E+00 -0.40911326622E+02  0.40931034020E+02  0.12700000000E+01 0. -1.
         25    2    1    2    0    0  0.00000000000E+00  0.00000000000E+00  0.54503254147E+02  0.13635406648E+03  0.12498730628E+03 0.  0.
    9000005    1    3    3    0    0 -0.52618387916E+02  0.78019518914E+01 -0.85155361768E+01  0.53880233450E+02  0.10000000000E+01 0.  0.
    9000005    1    3    3    0    0  0.52618387916E+02 -0.78019518914E+01  0.63018790324E+02  0.82473833027E+02  0.10000000000E+01 0.  0.
<mgrwt>
<rscale>  0 0.12498731E+03</rscale>
<asrwt>0</asrwt>
<pdfrwt beam="1">  1        4 0.23857165E-01 0.12498731E+03</pdfrwt>
<pdfrwt beam="2">  1       -4 0.10231352E-01 0.12498731E+03</pdfrwt>
<totfact> 0.19234141E+03</totfact>
</mgrwt>
</event>
<event>
 5    1  0.1446384E-002  0.1250005E+03  0.7818608E-02  0.1235069E+00
          4   -1    0    0  501    0  0.00000000000E+00  0.00000000000E+00  0.22308207676E+02  0.22344328804E+02  0.12700000000E+01 0. -1.
         -4   -1    0    0    0  501 -0.00000000000E+00 -0.00000000000E+00 -0.17492502070E+03  0.17492963090E+03  0.12700000000E+01 0. -1.
         25    2    1    2    0    0  0.00000000000E+00  0.00000000000E+00 -0.15261681303E+03  0.19727395971E+03  0.12500049424E+03 0.  0.
    9000005    1    3    3    0    0  0.60737757672E+02 -0.12641757136E+02 -0.88159692260E+02  0.10780547560E+03  0.10000000000E+01 0.  0.
    9000005    1    3    3    0    0 -0.60737757672E+02  0.12641757136E+02 -0.64457120768E+02  0.89468484106E+02  0.10000000000E+01 0.  0.
<mgrwt>
<rscale>  0 0.12500049E+03</rscale>
<asrwt>0</asrwt>
<pdfrwt beam="1">  1        4 0.55821438E-02 0.12500049E+03</pdfrwt>
<pdfrwt beam="2">  1       -4 0.43736343E-01 0.12500049E+03</pdfrwt>
<totfact> 0.16431593E+03</totfact>
</mgrwt>
</event>
<event>
 5    1  0.1446384E-002  0.1250056E+03  0.7818608E-02  0.1235061E+00
         -4   -1    0    0    0  501 -0.00000000000E+00  0.00000000000E+00  0.69801438041E+02  0.69812990572E+02  0.12700000000E+01 0.  1.
          4   -1    0    0  501    0  0.00000000000E+00 -0.00000000000E+00 -0.55943930765E+02  0.55958344235E+02  0.12700000000E+01 0.  1.
         25    2    1    2    0    0  0.00000000000E+00  0.00000000000E+00  0.13857507276E+02  0.12577133481E+03  0.12500559248E+03 0.  0.
    9000005    1    3    3    0    0  0.11987280458E+02 -0.16262193526E+02  0.66430226750E+02  0.69441549933E+02  0.10000000000E+01 0.  0.
    9000005    1    3    3    0    0 -0.11987280458E+02  0.16262193526E+02 -0.52572719474E+02  0.56329784874E+02  0.10000000000E+01 0.  0.
<mgrwt>
<rscale>  0 0.12500559E+03</rscale>
<asrwt>0</asrwt>
<pdfrwt beam="2">  1        4 0.13989229E-01 0.12500559E+03</pdfrwt>
<pdfrwt beam="1">  1       -4 0.17453605E-01 0.12500559E+03</pdfrwt>
<totfact> 0.19790692E+03</totfact>
</mgrwt>
</event>
<event>
 5    1  0.1446384E-002  0.1249900E+03  0.7818608E-02  0.1235085E+00
          4   -1    0    0  501    0  0.00000000000E+00  0.00000000000E+00  0.23469790702E+01  0.26685596782E+01  0.12700000000E+01 0.  1.
         -4   -1    0    0    0  501 -0.00000000000E+00 -0.00000000000E+00 -0.15570869579E+04  0.15570874759E+04  0.12700000000E+01 0.  1.
         25    2    1    2    0    0  0.00000000000E+00  0.00000000000E+00 -0.15547399789E+04  0.15597560355E+04  0.12498995363E+03 0.  0.
    9000005    1    3    3    0    0  0.25338193210E+01  0.58438331631E+02 -0.10516717087E+04  0.10532976036E+04  0.10000000000E+01 0.  0.
    9000005    1    3    3    0    0 -0.25338193210E+01 -0.58438331631E+02 -0.50306827018E+03  0.50645843196E+03  0.10000000000E+01 0.  0.
<mgrwt>
<rscale>  0 0.12498995E+03</rscale>
<asrwt>0</asrwt>
<pdfrwt beam="1">  1        4 0.62701243E-03 0.12498995E+03</pdfrwt>
<pdfrwt beam="2">  1       -4 0.38930868E+00 0.12498995E+03</pdfrwt>
<totfact> 0.10637681E+02</totfact>
</mgrwt>
</event>
<event>
 5    1  0.1446384E-002  0.1249970E+03  0.7818608E-02  0.1235074E+00
         -4   -1    0    0    0  501 -0.00000000000E+00  0.00000000000E+00  0.86730518023E+01  0.87655420577E+01  0.12700000000E+01 0. -1.
          4   -1    0    0  501    0  0.00000000000E+00 -0.00000000000E+00 -0.44788580948E+03  0.44788761005E+03  0.12700000000E+01 0. -1.
         25    2    1    2    0    0  0.00000000000E+00  0.00000000000E+00 -0.43921275768E+03  0.45665315211E+03  0.12499701925E+03 0.  0.
    9000005    1    3    3    0    0 -0.57885782679E+02  0.63831299760E+01 -0.30239687858E+03  0.30795515966E+03  0.10000000000E+01 0.  0.
    9000005    1    3    3    0    0  0.57885782679E+02 -0.63831299760E+01 -0.13681587910E+03  0.14869799245E+03  0.10000000000E+01 0.  0.
<mgrwt>
<rscale>  0 0.12499702E+03</rscale>
<asrwt>0</asrwt>
<pdfrwt beam="2">  1        4 0.11198316E+00 0.12499702E+03</pdfrwt>
<pdfrwt beam="1">  1       -4 0.21800508E-02 0.12499702E+03</pdfrwt>
<totfact> 0.94841115E+02</totfact>
</mgrwt>
</event>
<event>
 5    1  0.1446384E-002  0.1249967E+03  0.7818608E-02  0.1235074E+00
          4   -1    0    0  501    0  0.00000000000E+00  0.00000000000E+00  0.35692599015E+02  0.35715186188E+02  0.12700000000E+01 0. -1.
         -4   -1    0    0    0  501 -0.00000000000E+00 -0.00000000000E+00 -0.10937477773E+03  0.10938215076E+03  0.12700000000E+01 0. -1.
         25    2    1    2    0    0  0.00000000000E+00  0.00000000000E+00 -0.73682178716E+02  0.14509733694E+03  0.12499669487E+03 0.  0.
    9000005    1    3    3    0    0  0.61545824867E+02 -0.91939127615E+01 -0.43471622174E+02  0.75915733052E+02  0.10000000000E+01 0.  0.
    9000005    1    3    3    0    0 -0.61545824867E+02  0.91939127615E+01 -0.30210556543E+02  0.69181603892E+02  0.10000000000E+01 0.  0.
<mgrwt>
<rscale>  0 0.12499669E+03</rscale>
<asrwt>0</asrwt>
<pdfrwt beam="1">  1        4 0.89268950E-02 0.12499669E+03</pdfrwt>
<pdfrwt beam="2">  1       -4 0.27347439E-01 0.12499669E+03</pdfrwt>
<totfact> 0.18783923E+03</totfact>
</mgrwt>
</event>
<event>
 5    1  0.1446384E-002  0.1250010E+03  0.7818608E-02  0.1235068E+00
         -4   -1    0    0    0  501 -0.00000000000E+00  0.00000000000E+00  0.34919129502E+02  0.34942216660E+02  0.12700000000E+01 0.  1.
          4   -1    0    0  501    0  0.00000000000E+00 -0.00000000000E+00 -0.11180368952E+03  0.11181090238E+03  0.12700000000E+01 0.  1.
         25    2    1    2    0    0  0.00000000000E+00  0.00000000000E+00 -0.76884560021E+02  0.14675311904E+03  0.12500096951E+03 0.  0.
    9000005    1    3    3    0    0 -0.59123923977E+01  0.62211858635E+02 -0.38210859460E+02  0.73255317345E+02  0.10000000000E+01 0.  0.
    9000005    1    3    3    0    0  0.59123923977E+01 -0.62211858635E+02 -0.38673700561E+02  0.73497801694E+02  0.10000000000E+01 0.  0.
<mgrwt>
<rscale>  0 0.12500097E+03</rscale>
<asrwt>0</asrwt>
<pdfrwt beam="2">  1        4 0.27954709E-01 0.12500097E+03</pdfrwt>
<pdfrwt beam="1">  1       -4 0.87335701E-02 0.12500097E+03</pdfrwt>
<totfact> 0.18699169E+03</totfact>
</mgrwt>
</event>
<event>
 5    1  0.1446384E-002  0.1250000E+03  0.7818608E-02  0.1235069E+00
          4   -1    0    0  501    0  0.00000000000E+00  0.00000000000E+00  0.31103622469E+03  0.31103881747E+03  0.12700000000E+01 0.  1.
         -4   -1    0    0    0  501 -0.00000000000E+00 -0.00000000000E+00 -0.12524060815E+02  0.12588288180E+02  0.12700000000E+01 0.  1.
         25    2    1    2    0    0  0.00000000000E+00  0.00000000000E+00  0.29851216388E+03  0.32362710565E+03  0.12499996610E+03 0.  0.
    9000005    1    3    3    0    0 -0.51774507724E+02 -0.28295860953E+02  0.95945420238E+02  0.11264004200E+03  0.10000000000E+01 0.  0.
    9000005    1    3    3    0    0  0.51774507724E+02  0.28295860953E+02  0.20256674364E+03  0.21098706365E+03  0.10000000000E+01 0.  0.
<mgrwt>
<rscale>  0 0.12499997E+03</rscale>
<asrwt>0</asrwt>
<pdfrwt beam="1">  1        4 0.77767410E-01 0.12499997E+03</pdfrwt>
<pdfrwt beam="2">  1       -4 0.31393677E-02 0.12499997E+03</pdfrwt>
<totfact> 0.12333787E+03</totfact>
</mgrwt>
</event>
<event>
 5    1  0.1446384E-002  0.1250057E+03  0.7818608E-02  0.1235060E+00
         -4   -1    0    0    0  501 -0.00000000000E+00  0.00000000000E+00  0.19305451616E+03  0.19305869343E+03  0.12700000000E+01 0. -1.
          4   -1    0    0  501    0  0.00000000000E+00 -0.00000000000E+00 -0.20211424658E+02  0.20251286051E+02  0.12700000000E+01 0. -1.
         25    2    1    2    0    0  0.00000000000E+00  0.00000000000E+00  0.17284309150E+03  0.21330997948E+03  0.12500565214E+03 0.  0.
    9000005    1    3    3    0    0 -0.91592660772E+00 -0.50954272839E+02  0.24697245233E+02  0.56640363383E+02  0.10000000000E+01 0.  0.
    9000005    1    3    3    0    0  0.91592660772E+00  0.50954272839E+02  0.14814584626E+03  0.15666961610E+03  0.10000000000E+01 0.  0.
<mgrwt>
<rscale>  0 0.12500565E+03</rscale>
<asrwt>0</asrwt>
<pdfrwt beam="2">  1        4 0.50583611E-02 0.12500565E+03</pdfrwt>
<pdfrwt beam="1">  1       -4 0.48269133E-01 0.12500565E+03</pdfrwt>
<totfact> 0.15800545E+03</totfact>
</mgrwt>
</event>
<event>
 5    1  0.1446384E-002  0.1249922E+03  0.7818608E-02  0.1235081E+00
          4   -1    0    0  501    0  0.00000000000E+00  0.00000000000E+00  0.18997149099E+02  0.19039552881E+02  0.12700000000E+01 0.  1.
         -4   -1    0    0    0  501 -0.00000000000E+00 -0.00000000000E+00 -0.20532379433E+03  0.20532772199E+03  0.12700000000E+01 0.  1.
         25    2    1    2    0    0  0.00000000000E+00  0.00000000000E+00 -0.18632664523E+03  0.22436727487E+03  0.12499222100E+03 0.  0.
    9000005    1    3    3    0    0 -0.48866579971E+02 -0.23446771951E+02 -0.37341308757E+02  0.65826036586E+02  0.10000000000E+01 0.  0.
    9000005    1    3    3    0    0  0.48866579971E+02  0.23446771951E+02 -0.14898533647E+03  0.15854123828E+03  0.10000000000E+01 0.  0.
<mgrwt>
<rscale>  0 0.12499222E+03</rscale>
<asrwt>0</asrwt>
<pdfrwt beam="1">  1        4 0.47550793E-02 0.12499222E+03</pdfrwt>
<pdfrwt beam="2">  1       -4 0.51336733E-01 0.12499222E+03</pdfrwt>
<totfact> 0.15393454E+03</totfact>
</mgrwt>
</event>
<event>
 5    1  0.1446384E-002  0.1250057E+03  0.7818608E-02  0.1235060E+00
         -4   -1    0    0    0  501 -0.00000000000E+00  0.00000000000E+00  0.79292245509E+01  0.80302865440E+01  0.12700000000E+01 0.  1.
          4   -1    0    0  501    0  0.00000000000E+00 -0.00000000000E+00 -0.48946297451E+03  0.48946462212E+03  0.12700000000E+01 0.  1.
         25    2    1    2    0    0  0.00000000000E+00  0.00000000000E+00 -0.48153374995E+03  0.49749490867E+03  0.12500572709E+03 0.  0.
    9000005    1    3    3    0    0  0.55832930132E+02  0.16165926970E+02 -0.33212461734E+03  0.33717416082E+03  0.10000000000E+01 0.  0.
    9000005    1    3    3    0    0 -0.55832930132E+02 -0.16165926970E+02 -0.14940913262E+03  0.16032074785E+03  0.10000000000E+01 0.  0.
<mgrwt>
<rscale>  0 0.12500573E+03</rscale>
<asrwt>0</asrwt>
<pdfrwt beam="2">  1        4 0.12237848E+00 0.12500573E+03</pdfrwt>
<pdfrwt beam="1">  1       -4 0.19951465E-02 0.12500573E+03</pdfrwt>
<totfact> 0.87995380E+02</totfact>
</mgrwt>
</event>
<event>
 4    1  0.1446384E-002  0.1250818E+03  0.7818608E-02  0.1234942E+00
          4   -1    0    0  501    0  0.00000000000E+00  0.00000000000E+00  0.97004085995E+02  0.97012399206E+02  0.12700000000E+01 0.  1.
         -4   -1    0    0    0  501 -0.00000000000E+00 -0.00000000000E+00 -0.40301567630E+02  0.40321573053E+02  0.12700000000E+01 0.  1.
    9000005    1    1    2    0    0 -0.40353918298E+02  0.21030315971E+01  0.80749075443E+02  0.90301022413E+02  0.10000000000E+01 0.  0.
    9000005    1    1    2    0    0  0.40353918298E+02 -0.21030315971E+01 -0.24046557078E+02  0.47032949846E+02  0.10000000000E+01 0.  0.
<mgrwt>
<rscale>  0 0.12508175E+03</rscale>
<asrwt>0</asrwt>
<pdfrwt beam="1">  1        4 0.24254561E-01 0.12508175E+03</pdfrwt>
<pdfrwt beam="2">  1       -4 0.10078932E-01 0.12508175E+03</pdfrwt>
<totfact> 0.19141049E+03</totfact>
</mgrwt>
</event>
<event>
 5    1  0.1446384E-002  0.1249995E+03  0.7818608E-02  0.1235070E+00
          4   -1    0    0  501    0  0.00000000000E+00  0.00000000000E+00  0.70331914122E+02  0.70343379533E+02  0.12700000000E+01 0.  1.
         -4   -1    0    0    0  501 -0.00000000000E+00 -0.00000000000E+00 -0.55516528176E+02  0.55531052580E+02  0.12700000000E+01 0.  1.
         25    2    1    2    0    0  0.00000000000E+00  0.00000000000E+00  0.14815385947E+02  0.12587443211E+03  0.12499950800E+03 0.  0.
    9000005    1    3    3    0    0  0.19556598180E+02  0.35967606465E+02 -0.40136012040E+02  0.57341335088E+02  0.10000000000E+01 0.  0.
    9000005    1    3    3    0    0 -0.19556598180E+02 -0.35967606465E+02  0.54951397987E+02  0.68533097025E+02  0.10000000000E+01 0.  0.
<mgrwt>
<rscale>  0 0.12499951E+03</rscale>
<asrwt>0</asrwt>
<pdfrwt beam="1">  1        4 0.17586227E-01 0.12499951E+03</pdfrwt>
<pdfrwt beam="2">  1       -4 0.13882381E-01 0.12499951E+03</pdfrwt>
<totfact> 0.19787935E+03</totfact>
</mgrwt>
</event>
<event>
 5    1  0.1446384E-002  0.1250074E+03  0.7818608E-02  0.1235058E+00
         -4   -1    0    0    0  501 -0.00000000000E+00  0.00000000000E+00  0.38643534842E+02  0.38664398160E+02  0.12700000000E+01 0.  1.
          4   -1    0    0  501    0  0.00000000000E+00 -0.00000000000E+00 -0.10104398803E+03  0.10105196889E+03  0.12700000000E+01 0.  1.
         25    2    1    2    0    0  0.00000000000E+00  0.00000000000E+00 -0.62400453189E+02  0.13971636705E+03  0.12500738644E+03 0.  0.
    9000005    1    3    3    0    0 -0.12428457602E+02  0.60486906777E+02 -0.20446268023E+02  0.65055225200E+02  0.10000000000E+01 0.  0.
    9000005    1    3    3    0    0  0.12428457602E+02 -0.60486906777E+02 -0.41954185166E+02  0.74661141853E+02  0.10000000000E+01 0.  0.
<mgrwt>
<rscale>  0 0.12500739E+03</rscale>
<asrwt>0</asrwt>
<pdfrwt beam="2">  1        4 0.25264602E-01 0.12500739E+03</pdfrwt>
<pdfrwt beam="1">  1       -4 0.96644894E-02 0.12500739E+03</pdfrwt>
<totfact> 0.19051580E+03</totfact>
</mgrwt>
</event>
<event>
 5    1  0.1446384E-002  0.1249997E+03  0.7818608E-02  0.1235070E+00
         -4   -1    0    0    0  501 -0.00000000000E+00  0.00000000000E+00  0.16192441740E+03  0.16192939774E+03  0.12700000000E+01 0.  1.
          4   -1    0    0  501    0  0.00000000000E+00 -0.00000000000E+00 -0.24101706606E+02  0.24135143698E+02  0.12700000000E+01 0.  1.
         25    2    1    2    0    0  0.00000000000E+00  0.00000000000E+00  0.13782271080E+03  0.18606454143E+03  0.12499965587E+03 0.  0.
    9000005    1    3    3    0    0  0.24864246016E+01 -0.26703935413E+02 -0.15106967067E+02  0.30797774722E+02  0.10000000000E+01 0.  0.
    9000005    1    3    3    0    0 -0.24864246016E+01  0.26703935413E+02  0.15292967786E+03  0.15526676671E+03  0.10000000000E+01 0.  0.
<mgrwt>
<rscale>  0 0.12499966E+03</rscale>
<asrwt>0</asrwt>
<pdfrwt beam="2">  1        4 0.60302289E-02 0.12499966E+03</pdfrwt>
<pdfrwt beam="1">  1       -4 0.40485906E-01 0.12499966E+03</pdfrwt>
<totfact> 0.16895813E+03</totfact>
</mgrwt>
</event>
<event>
 5    1  0.1446384E-002  0.1249991E+03  0.7818608E-02  0.1235071E+00
         -4   -1    0    0    0  501 -0.00000000000E+00  0.00000000000E+00  0.38668169444E+02  0.38689019477E+02  0.12700000000E+01 0.  1.
          4   -1    0    0  501    0  0.00000000000E+00 -0.00000000000E+00 -0.10096618055E+03  0.10097416756E+03  0.12700000000E+01 0.  1.
         25    2    1    2    0    0  0.00000000000E+00  0.00000000000E+00 -0.62298011108E+02  0.13966318704E+03  0.12499905450E+03 0.  0.
    9000005    1    3    3    0    0  0.54330567291E+02 -0.17492690271E+01 -0.65592741516E+02  0.85195529365E+02  0.10000000000E+01 0.  0.
    9000005    1    3    3    0    0 -0.54330567291E+02  0.17492690271E+01  0.32947304077E+01  0.54467657676E+02  0.10000000000E+01 0.  0.
<mgrwt>
<rscale>  0 0.12499905E+03</rscale>
<asrwt>0</asrwt>
<pdfrwt beam="2">  1        4 0.25245149E-01 0.12499905E+03</pdfrwt>
<pdfrwt beam="1">  1       -4 0.96706472E-02 0.12499905E+03</pdfrwt>
<totfact> 0.19058006E+03</totfact>
</mgrwt>
</event>
<event>
 5    1  0.1446384E-002  0.1249995E+03  0.7818608E-02  0.1235070E+00
         -4   -1    0    0    0  501 -0.00000000000E+00  0.00000000000E+00  0.79341651780E+02  0.79351815399E+02  0.12700000000E+01 0.  1.
          4   -1    0    0  501    0  0.00000000000E+00 -0.00000000000E+00 -0.49211368024E+02  0.49227752770E+02  0.12700000000E+01 0.  1.
         25    2    1    2    0    0  0.00000000000E+00  0.00000000000E+00  0.30130283756E+02  0.12857956817E+03  0.12499948540E+03 0.  0.
    9000005    1    3    3    0    0 -0.59562945047E+01  0.30405370141E+02  0.70889675651E+02  0.77371248481E+02  0.10000000000E+01 0.  0.
    9000005    1    3    3    0    0  0.59562945047E+01 -0.30405370141E+02 -0.40759391895E+02  0.51208319688E+02  0.10000000000E+01 0.  0.
<mgrwt>
<rscale>  0 0.12499949E+03</rscale>
<asrwt>0</asrwt>
<pdfrwt beam="2">  1        4 0.12306161E-01 0.12499949E+03</pdfrwt>
<pdfrwt beam="1">  1       -4 0.19838731E-01 0.12499949E+03</pdfrwt>
<totfact> 0.19641294E+03</totfact>
</mgrwt>
</event>
<event>
 5    1  0.1446384E-002  0.1249885E+03  0.7818608E-02  0.1235087E+00
         -4   -1    0    0    0  501 -0.00000000000E+00  0.00000000000E+00  0.19353893986E+02  0.19395517843E+02  0.12700000000E+01 0. -1.
          4   -1    0    0  501    0  0.00000000000E+00 -0.00000000000E+00 -0.20153528807E+03  0.20153928957E+03  0.12700000000E+01 0. -1.
         25    2    1    2    0    0  0.00000000000E+00  0.00000000000E+00 -0.18218139409E+03  0.22093480741E+03  0.12498851457E+03 0.  0.
    9000005    1    3    3    0    0 -0.59478140370E+02 -0.86885233796E+01 -0.60916670008E+02  0.85586098785E+02  0.10000000000E+01 0.  0.
    9000005    1    3    3    0    0  0.59478140370E+02  0.86885233796E+01 -0.12126472408E+03  0.13534870863E+03  0.10000000000E+01 0.  0.
<mgrwt>
<rscale>  0 0.12498851E+03</rscale>
<asrwt>0</asrwt>
<pdfrwt beam="2">  1        4 0.50389519E-01 0.12498851E+03</pdfrwt>
<pdfrwt beam="1">  1       -4 0.48441773E-02 0.12498851E+03</pdfrwt>
<totfact> 0.15520846E+03</totfact>
</mgrwt>
</event>
<event>
 5    1  0.1446384E-002  0.1249991E+03  0.7818608E-02  0.1235071E+00
         -4   -1    0    0    0  501 -0.00000000000E+00  0.00000000000E+00  0.22005901296E+03  0.22006267763E+03  0.12700000000E+01 0. -1.
          4   -1    0    0  501    0  0.00000000000E+00 -0.00000000000E+00 -0.17724132315E+02  0.17769574174E+02  0.12700000000E+01 0. -1.
         25    2    1    2    0    0  0.00000000000E+00  0.00000000000E+00  0.20233488064E+03  0.23783225180E+03  0.12499910428E+03 0.  0.
    9000005    1    3    3    0    0  0.69341633651E+01  0.61448219685E+02  0.84019344217E+02  0.10432744858E+03  0.10000000000E+01 0.  0.
    9000005    1    3    3    0    0 -0.69341633651E+01 -0.61448219685E+02  0.11831553642E+03  0.13350480322E+03  0.10000000000E+01 0.  0.
<mgrwt>
<rscale>  0 0.12499910E+03</rscale>
<asrwt>0</asrwt>
<pdfrwt beam="2">  1        4 0.44371715E-02 0.12499910E+03</pdfrwt>
<pdfrwt beam="1">  1       -4 0.55020891E-01 0.12499910E+03</pdfrwt>
<totfact> 0.14911736E+03</totfact>
</mgrwt>
</event>
<event>
 5    1  0.1446384E-002  0.1250041E+03  0.7818608E-02  0.1235063E+00
         -4   -1    0    0    0  501 -0.00000000000E+00  0.00000000000E+00  0.14190861289E+03  0.14191429565E+03  0.12700000000E+01 0. -1.
          4   -1    0    0  501    0  0.00000000000E+00 -0.00000000000E+00 -0.27507443569E+02  0.27536745481E+02  0.12700000000E+01 0. -1.
         25    2    1    2    0    0  0.00000000000E+00  0.00000000000E+00  0.11440116932E+03  0.16945104114E+03  0.12500411114E+03 0.  0.
    9000005    1    3    3    0    0 -0.34769910498E+02 -0.51787163167E+02  0.62389048993E+02  0.88228398938E+02  0.10000000000E+01 0.  0.
    9000005    1    3    3    0    0  0.34769910498E+02  0.51787163167E+02  0.52012120325E+02  0.81222642198E+02  0.10000000000E+01 0.  0.
<mgrwt>
<rscale>  0 0.12500411E+03</rscale>
<asrwt>0</asrwt>
<pdfrwt beam="2">  1        4 0.68812341E-02 0.12500411E+03</pdfrwt>
<pdfrwt beam="1">  1       -4 0.35481526E-01 0.12500411E+03</pdfrwt>
<totfact> 0.17620154E+03</totfact>
</mgrwt>
</event>
<event>
 5    1  0.1446384E-002  0.1249973E+03  0.7818608E-02  0.1235073E+00
         -4   -1    0    0    0  501 -0.00000000000E+00  0.00000000000E+00  0.11071419905E+03  0.11072148288E+03  0.12700000000E+01 0. -1.
          4   -1    0    0  501    0  0.00000000000E+00 -0.00000000000E+00 -0.35260895342E+02  0.35283758874E+02  0.12700000000E+01 0. -1.
         25    2    1    2    0    0  0.00000000000E+00  0.00000000000E+00  0.75453303708E+02  0.14600524175E+03  0.12499731829E+03 0.  0.
    9000005    1    3    3    0    0  0.15992670657E-01  0.59257272809E+02  0.14551256073E+02  0.61025926374E+02  0.10000000000E+01 0.  0.
    9000005    1    3    3    0    0 -0.15992670657E-01 -0.59257272809E+02  0.60902047634E+02  0.84979315381E+02  0.10000000000E+01 0.  0.
<mgrwt>
<rscale>  0 0.12499732E+03</rscale>
<asrwt>0</asrwt>
<pdfrwt beam="2">  1        4 0.88189923E-02 0.12499732E+03</pdfrwt>
<pdfrwt beam="1">  1       -4 0.27682318E-01 0.12499732E+03</pdfrwt>
<totfact> 0.18738133E+03</totfact>
</mgrwt>
</event>
<event>
 5    1  0.1446384E-002  0.1249953E+03  0.7818608E-02  0.1235077E+00
          4   -1    0    0  501    0  0.00000000000E+00  0.00000000000E+00  0.31414654862E+03  0.31414911573E+03  0.12700000000E+01 0. -1.
         -4   -1    0    0    0  501 -0.00000000000E+00 -0.00000000000E+00 -0.12398496069E+02  0.12463370522E+02  0.12700000000E+01 0. -1.
         25    2    1    2    0    0  0.00000000000E+00  0.00000000000E+00  0.30174805255E+03  0.32661248625E+03  0.12499531572E+03 0.  0.
    9000005    1    3    3    0    0 -0.35802925115E+02 -0.50337405663E+02  0.17556006397E+03  0.18611297622E+03  0.10000000000E+01 0.  0.
    9000005    1    3    3    0    0  0.35802925115E+02  0.50337405663E+02  0.12618798858E+03  0.14049951003E+03  0.10000000000E+01 0.  0.
<mgrwt>
<rscale>  0 0.12499532E+03</rscale>
<asrwt>0</asrwt>
<pdfrwt beam="1">  1        4 0.78545067E-01 0.12499532E+03</pdfrwt>
<pdfrwt beam="2">  1       -4 0.31080542E-02 0.12499532E+03</pdfrwt>
<totfact> 0.12257972E+03</totfact>
</mgrwt>
</event>
<event>
 5    1  0.1446384E-002  0.1249990E+03  0.7818608E-02  0.1235071E+00
         -4   -1    0    0    0  501 -0.00000000000E+00  0.00000000000E+00  0.17193540939E+03  0.17194009975E+03  0.12700000000E+01 0.  1.
          4   -1    0    0  501    0  0.00000000000E+00 -0.00000000000E+00 -0.22696187691E+02  0.22731692319E+02  0.12700000000E+01 0.  1.
         25    2    1    2    0    0  0.00000000000E+00  0.00000000000E+00  0.14923922170E+03  0.19467179207E+03  0.12499904533E+03 0.  0.
    9000005    1    3    3    0    0 -0.53254378143E+02  0.17760659006E+02  0.31863174147E+02  0.64557971363E+02  0.10000000000E+01 0.  0.
    9000005    1    3    3    0    0  0.53254378143E+02 -0.17760659006E+02  0.11737604755E+03  0.13011382071E+03  0.10000000000E+01 0.  0.
<mgrwt>
<rscale>  0 0.12499905E+03</rscale>
<asrwt>0</asrwt>
<pdfrwt beam="2">  1        4 0.56790713E-02 0.12499905E+03</pdfrwt>
<pdfrwt beam="1">  1       -4 0.42988876E-01 0.12499905E+03</pdfrwt>
<totfact> 0.16538003E+03</totfact>
</mgrwt>
</event>
<event>
 5    1  0.1446384E-002  0.1249994E+03  0.7818608E-02  0.1235070E+00
         -4   -1    0    0    0  501 -0.00000000000E+00  0.00000000000E+00  0.82091554309E+02  0.82101377509E+02  0.12700000000E+01 0.  1.
          4   -1    0    0  501    0  0.00000000000E+00 -0.00000000000E+00 -0.47562483540E+02  0.47579436109E+02  0.12700000000E+01 0.  1.
         25    2    1    2    0    0  0.00000000000E+00  0.00000000000E+00  0.34529070769E+02  0.12968081362E+03  0.12499942677E+03 0.  0.
    9000005    1    3    3    0    0  0.37681547347E+02  0.48524819724E+02  0.54059167719E+01  0.61682907485E+02  0.10000000000E+01 0.  0.
    9000005    1    3    3    0    0 -0.37681547347E+02 -0.48524819724E+02  0.29123153997E+02  0.67997906133E+02  0.10000000000E+01 0.  0.
<mgrwt>
<rscale>  0 0.12499943E+03</rscale>
<asrwt>0</asrwt>
<pdfrwt beam="2">  1        4 0.11893968E-01 0.12499943E+03</pdfrwt>
<pdfrwt beam="1">  1       -4 0.20526235E-01 0.12499943E+03</pdfrwt>
<totfact> 0.19581819E+03</totfact>
</mgrwt>
</event>
<event>
 5    1  0.1446384E-002  0.1250335E+03  0.7818608E-02  0.1235017E+00
         -4   -1    0    0    0  501 -0.00000000000E+00  0.00000000000E+00  0.19433235479E+02  0.19474689758E+02  0.12700000000E+01 0. -1.
          4   -1    0    0  501    0  0.00000000000E+00 -0.00000000000E+00 -0.20085886930E+03  0.20086288427E+03  0.12700000000E+01 0. -1.
         25    2    1    2    0    0  0.00000000000E+00  0.00000000000E+00 -0.18142563382E+03  0.22033757403E+03  0.12503353918E+03 0.  0.
    9000005    1    3    3    0    0  0.21100034298E+01  0.29390657319E+02 -0.18786070514E+03  0.19016021505E+03  0.10000000000E+01 0.  0.
    9000005    1    3    3    0    0 -0.21100034298E+01 -0.29390657319E+02  0.64350713161E+01  0.30177358980E+02  0.10000000000E+01 0.  0.
<mgrwt>
<rscale>  0 0.12503354E+03</rscale>
<asrwt>0</asrwt>
<pdfrwt beam="2">  1        4 0.50220395E-01 0.12503354E+03</pdfrwt>
<pdfrwt beam="1">  1       -4 0.48639931E-02 0.12503354E+03</pdfrwt>
<totfact> 0.15526811E+03</totfact>
</mgrwt>
</event>
<event>
 5    1  0.1446384E-002  0.1250022E+03  0.7818608E-02  0.1235066E+00
         -4   -1    0    0    0  501 -0.00000000000E+00  0.00000000000E+00  0.36303970145E+02  0.36326177177E+02  0.12700000000E+01 0. -1.
          4   -1    0    0  501    0  0.00000000000E+00 -0.00000000000E+00 -0.10754326965E+03  0.10755076823E+03  0.12700000000E+01 0. -1.
         25    2    1    2    0    0  0.00000000000E+00  0.00000000000E+00 -0.71239299503E+02  0.14387694541E+03  0.12500215048E+03 0.  0.
    9000005    1    3    3    0    0  0.50546858317E+02 -0.26968445358E+02 -0.64350829739E+02  0.86164442892E+02  0.10000000000E+01 0.  0.
    9000005    1    3    3    0    0 -0.50546858317E+02  0.26968445358E+02 -0.68884697632E+01  0.57712502514E+02  0.10000000000E+01 0.  0.
<mgrwt>
<rscale>  0 0.12500215E+03</rscale>
<asrwt>0</asrwt>
<pdfrwt beam="2">  1        4 0.26889530E-01 0.12500215E+03</pdfrwt>
<pdfrwt beam="1">  1       -4 0.90797060E-02 0.12500215E+03</pdfrwt>
<totfact> 0.18842785E+03</totfact>
</mgrwt>
</event>
<event>
 5    1  0.1446384E-002  0.1250019E+03  0.7818608E-02  0.1235066E+00
          4   -1    0    0  501    0  0.00000000000E+00  0.00000000000E+00  0.12132678179E+03  0.12133342853E+03  0.12700000000E+01 0. -1.
         -4   -1    0    0    0  501 -0.00000000000E+00 -0.00000000000E+00 -0.32177021540E+02  0.32202074703E+02  0.12700000000E+01 0. -1.
         25    2    1    2    0    0  0.00000000000E+00  0.00000000000E+00  0.89149760251E+02  0.15353550324E+03  0.12500188399E+03 0.  0.
    9000005    1    3    3    0    0  0.60231023037E+02 -0.12806067272E+02  0.57665923618E+02  0.84369012331E+02  0.10000000000E+01 0.  0.
    9000005    1    3    3    0    0 -0.60231023037E+02  0.12806067272E+02  0.31483836633E+02  0.69166490905E+02  0.10000000000E+01 0.  0.
<mgrwt>
<rscale>  0 0.12500188E+03</rscale>
<asrwt>0</asrwt>
<pdfrwt beam="1">  1        4 0.30335657E-01 0.12500188E+03</pdfrwt>
<pdfrwt beam="2">  1       -4 0.80482180E-02 0.12500188E+03</pdfrwt>
<totfact> 0.18365491E+03</totfact>
</mgrwt>
</event>
<event>
 5    1  0.1446384E-002  0.1249972E+03  0.7818608E-02  0.1235074E+00
         -4   -1    0    0    0  501 -0.00000000000E+00  0.00000000000E+00  0.16122256309E+03  0.16122756511E+03  0.12700000000E+01 0. -1.
          4   -1    0    0  501    0  0.00000000000E+00 -0.00000000000E+00 -0.24205803264E+02  0.24239096758E+02  0.12700000000E+01 0. -1.
         25    2    1    2    0    0  0.00000000000E+00  0.00000000000E+00  0.13701675983E+03  0.18546666187E+03  0.12499716072E+03 0.  0.
    9000005    1    3    3    0    0  0.47658688879E+02  0.25742461654E+02  0.22271772082E+02  0.58575223340E+02  0.10000000000E+01 0.  0.
    9000005    1    3    3    0    0 -0.47658688879E+02 -0.25742461654E+02  0.11474498775E+03  0.12689143853E+03  0.10000000000E+01 0.  0.
<mgrwt>
<rscale>  0 0.12499716E+03</rscale>
<asrwt>0</asrwt>
<pdfrwt beam="2">  1        4 0.60562378E-02 0.12499716E+03</pdfrwt>
<pdfrwt beam="1">  1       -4 0.40310427E-01 0.12499716E+03</pdfrwt>
<totfact> 0.16922123E+03</totfact>
</mgrwt>
</event>
<event>
 5    1  0.1446384E-002  0.1250007E+03  0.7818608E-02  0.1235068E+00
         -4   -1    0    0    0  501 -0.00000000000E+00  0.00000000000E+00  0.40489986183E+02  0.40509898557E+02  0.12700000000E+01 0. -1.
          4   -1    0    0  501    0  0.00000000000E+00 -0.00000000000E+00 -0.96427794523E+02  0.96436157413E+02  0.12700000000E+01 0. -1.
         25    2    1    2    0    0  0.00000000000E+00  0.00000000000E+00 -0.55937808340E+02  0.13694605597E+03  0.12500073537E+03 0.  0.
    9000005    1    3    3    0    0 -0.51289986241E+02  0.25230254453E+02 -0.55642798894E+02  0.79776873197E+02  0.10000000000E+01 0.  0.
    9000005    1    3    3    0    0  0.51289986241E+02 -0.25230254453E+02 -0.29500944537E+00  0.57169182773E+02  0.10000000000E+01 0.  0.
<mgrwt>
<rscale>  0 0.12500074E+03</rscale>
<asrwt>0</asrwt>
<pdfrwt beam="2">  1        4 0.24110483E-01 0.12500074E+03</pdfrwt>
<pdfrwt beam="1">  1       -4 0.10126031E-01 0.12500074E+03</pdfrwt>
<totfact> 0.19197355E+03</totfact>
</mgrwt>
</event>
<event>
 5    1  0.1446384E-002  0.1249943E+03  0.7818608E-02  0.1235078E+00
          4   -1    0    0  501    0  0.00000000000E+00  0.00000000000E+00  0.12918222310E+03  0.12918846568E+03  0.12700000000E+01 0. -1.
         -4   -1    0    0    0  501 -0.00000000000E+00 -0.00000000000E+00 -0.30215223503E+02  0.30241901913E+02  0.12700000000E+01 0. -1.
         25    2    1    2    0    0  0.00000000000E+00  0.00000000000E+00  0.98966999594E+02  0.15943036759E+03  0.12499430028E+03 0.  0.
    9000005    1    3    3    0    0 -0.40824364895E+02 -0.40460337685E+02  0.18208325147E+02  0.60301001644E+02  0.10000000000E+01 0.  0.
    9000005    1    3    3    0    0  0.40824364895E+02  0.40460337685E+02  0.80758674447E+02  0.99129365947E+02  0.10000000000E+01 0.  0.
<mgrwt>
<rscale>  0 0.12499430E+03</rscale>
<asrwt>0</asrwt>
<pdfrwt beam="1">  1        4 0.32299670E-01 0.12499430E+03</pdfrwt>
<pdfrwt beam="2">  1       -4 0.75579211E-02 0.12499430E+03</pdfrwt>
<totfact> 0.18086991E+03</totfact>
</mgrwt>
</event>
<event>
 5    1  0.1446384E-002  0.1249995E+03  0.7818608E-02  0.1235070E+00
          4   -1    0    0  501    0  0.00000000000E+00  0.00000000000E+00  0.24686925351E+02  0.24719570855E+02  0.12700000000E+01 0. -1.
         -4   -1    0    0    0  501 -0.00000000000E+00 -0.00000000000E+00 -0.15809039727E+03  0.15809549838E+03  0.12700000000E+01 0. -1.
         25    2    1    2    0    0  0.00000000000E+00  0.00000000000E+00 -0.13340347192E+03  0.18281506924E+03  0.12499945288E+03 0.  0.
    9000005    1    3    3    0    0 -0.56051749467E+02  0.23332450778E+02 -0.45057625293E+02  0.75613434485E+02  0.10000000000E+01 0.  0.
    9000005    1    3    3    0    0  0.56051749467E+02 -0.23332450778E+02 -0.88345846626E+02  0.10720163475E+03  0.10000000000E+01 0.  0.
<mgrwt>
<rscale>  0 0.12499945E+03</rscale>
<asrwt>0</asrwt>
<pdfrwt beam="1">  1        4 0.61764501E-02 0.12499945E+03</pdfrwt>
<pdfrwt beam="2">  1       -4 0.39527315E-01 0.12499945E+03</pdfrwt>
<totfact> 0.17034265E+03</totfact>
</mgrwt>
</event>
<event>
 5    1  0.1446384E-002  0.1249975E+03  0.7818608E-02  0.1235073E+00
         -4   -1    0    0    0  501 -0.00000000000E+00  0.00000000000E+00  0.50369390587E+03  0.50369550694E+03  0.12700000000E+01 0. -1.
          4   -1    0    0  501    0  0.00000000000E+00 -0.00000000000E+00 -0.77012740936E+01  0.78052881218E+01  0.12700000000E+01 0. -1.
         25    2    1    2    0    0  0.00000000000E+00  0.00000000000E+00  0.49599263177E+03  0.51150079506E+03  0.12499749026E+03 0.  0.
    9000005    1    3    3    0    0 -0.33814741285E+02 -0.28743467381E+01  0.33272980916E+02  0.47537247042E+02  0.10000000000E+01 0.  0.
    9000005    1    3    3    0    0  0.33814741285E+02  0.28743467381E+01  0.46271965086E+03  0.46396354802E+03  0.10000000000E+01 0.  0.
<mgrwt>
<rscale>  0 0.12499749E+03</rscale>
<asrwt>0</asrwt>
<pdfrwt beam="2">  1        4 0.19385205E-02 0.12499749E+03</pdfrwt>
<pdfrwt beam="1">  1       -4 0.12593667E+00 0.12499749E+03</pdfrwt>
<totfact> 0.85811061E+02</totfact>
</mgrwt>
</event>
<event>
 5    1  0.1446384E-002  0.1249948E+03  0.7818608E-02  0.1235077E+00
          4   -1    0    0  501    0  0.00000000000E+00  0.00000000000E+00  0.33354292435E+03  0.33354534217E+03  0.12700000000E+01 0.  1.
         -4   -1    0    0    0  501 -0.00000000000E+00 -0.00000000000E+00 -0.11673507335E+02  0.11742387896E+02  0.12700000000E+01 0.  1.
         25    2    1    2    0    0  0.00000000000E+00  0.00000000000E+00  0.32186941701E+03  0.34528773006E+03  0.12499477959E+03 0.  0.
    9000005    1    3    3    0    0 -0.23131797496E+02 -0.25963913288E+02  0.17509142940E+02  0.38945794832E+02  0.10000000000E+01 0.  0.
    9000005    1    3    3    0    0  0.23131797496E+02  0.25963913288E+02  0.30436027407E+03  0.30634193523E+03  0.10000000000E+01 0.  0.
<mgrwt>
<rscale>  0 0.12499478E+03</rscale>
<asrwt>0</asrwt>
<pdfrwt beam="1">  1        4 0.83394639E-01 0.12499478E+03</pdfrwt>
<pdfrwt beam="2">  1       -4 0.29272893E-02 0.12499478E+03</pdfrwt>
<totfact> 0.11791921E+03</totfact>
</mgrwt>
</event>
<event>
 5    1  0.1446384E-002  0.1249972E+03  0.7818608E-02  0.1235074E+00
         -4   -1    0    0    0  501 -0.00000000000E+00  0.00000000000E+00  0.18693815686E+03  0.18694247080E+03  0.12700000000E+01 0.  1.
          4   -1    0    0  501    0  0.00000000000E+00 -0.00000000000E+00 -0.20871138987E+02  0.20909742767E+02  0.12700000000E+01 0.  1.
         25    2    1    2    0    0  0.00000000000E+00  0.00000000000E+00  0.16606701787E+03  0.20785221357E+03  0.12499715301E+03 0.  0.
    9000005    1    3    3    0    0  0.23824452289E+02  0.50996981131E+02  0.12816940896E+03  0.13998819238E+03  0.10000000000E+01 0.  0.
    9000005    1    3    3    0    0 -0.23824452289E+02 -0.50996981131E+02  0.37897608908E+02  0.67864021191E+02  0.10000000000E+01 0.  0.
<mgrwt>
<rscale>  0 0.12499715E+03</rscale>
<asrwt>0</asrwt>
<pdfrwt beam="2">  1        4 0.52231495E-02 0.12499715E+03</pdfrwt>
<pdfrwt beam="1">  1       -4 0.46739903E-01 0.12499715E+03</pdfrwt>
<totfact> 0.16013435E+03</totfact>
</mgrwt>
</event>
<event>
 5    1  0.1446384E-002  0.1249961E+03  0.7818608E-02  0.1235075E+00
         -4   -1    0    0    0  501 -0.00000000000E+00  0.00000000000E+00  0.75496051654E+02  0.75506732914E+02  0.12700000000E+01 0. -1.
          4   -1    0    0  501    0  0.00000000000E+00 -0.00000000000E+00 -0.51715712309E+02  0.51731303865E+02  0.12700000000E+01 0. -1.
         25    2    1    2    0    0  0.00000000000E+00  0.00000000000E+00  0.23780339345E+02  0.12723803678E+03  0.12499605379E+03 0.  0.
    9000005    1    3    3    0    0  0.23579755896E+02  0.43171411464E+02 -0.27339728326E+02  0.56287089114E+02  0.10000000000E+01 0.  0.
    9000005    1    3    3    0    0 -0.23579755896E+02 -0.43171411464E+02  0.51120067671E+02  0.70950947666E+02  0.10000000000E+01 0.  0.
<mgrwt>
<rscale>  0 0.12499605E+03</rscale>
<asrwt>0</asrwt>
<pdfrwt beam="2">  1        4 0.12932212E-01 0.12499605E+03</pdfrwt>
<pdfrwt beam="1">  1       -4 0.18877297E-01 0.12499605E+03</pdfrwt>
<totfact> 0.19715902E+03</totfact>
</mgrwt>
</event>
<event>
 5    1  0.1446384E-002  0.1250163E+03  0.7818608E-02  0.1235044E+00
         -4   -1    0    0    0  501 -0.00000000000E+00  0.00000000000E+00  0.28264035596E+02  0.28292553935E+02  0.12700000000E+01 0.  1.
          4   -1    0    0  501    0  0.00000000000E+00 -0.00000000000E+00 -0.13814060405E+03  0.13814644182E+03  0.12700000000E+01 0.  1.
         25    2    1    2    0    0  0.00000000000E+00  0.00000000000E+00 -0.10987656846E+03  0.16643899576E+03  0.12501631499E+03 0.  0.
    9000005    1    3    3    0    0 -0.27838948079E+02 -0.19197321118E+02  0.15039029705E+02  0.37023189797E+02  0.10000000000E+01 0.  0.
    9000005    1    3    3    0    0  0.27838948079E+02  0.19197321118E+02 -0.12491559816E+03  0.12941580596E+03  0.10000000000E+01 0.  0.
<mgrwt>
<rscale>  0 0.12501631E+03</rscale>
<asrwt>0</asrwt>
<pdfrwt beam="2">  1        4 0.34539444E-01 0.12501631E+03</pdfrwt>
<pdfrwt beam="1">  1       -4 0.70703038E-02 0.12501631E+03</pdfrwt>
<totfact> 0.17752143E+03</totfact>
</mgrwt>
</event>
<event>
 5    1  0.1446384E-002  0.1250006E+03  0.7818608E-02  0.1235068E+00
          4   -1    0    0  501    0  0.00000000000E+00  0.00000000000E+00  0.20321969641E+02  0.20361614623E+02  0.12700000000E+01 0. -1.
         -4   -1    0    0    0  501 -0.00000000000E+00 -0.00000000000E+00 -0.19199088661E+03  0.19199508703E+03  0.12700000000E+01 0. -1.
         25    2    1    2    0    0  0.00000000000E+00  0.00000000000E+00 -0.17166891697E+03  0.21235670165E+03  0.12500060672E+03 0.  0.
    9000005    1    3    3    0    0 -0.29069533848E+02  0.24767168165E+02 -0.16986872514E+03  0.17411155676E+03  0.10000000000E+01 0.  0.
    9000005    1    3    3    0    0  0.29069533848E+02 -0.24767168165E+02 -0.18001918340E+01  0.38245144891E+02  0.10000000000E+01 0.  0.
<mgrwt>
<rscale>  0 0.12500061E+03</rscale>
<asrwt>0</asrwt>
<pdfrwt beam="1">  1        4 0.50859737E-02 0.12500061E+03</pdfrwt>
<pdfrwt beam="2">  1       -4 0.48003197E-01 0.12500061E+03</pdfrwt>
<totfact> 0.15838711E+03</totfact>
</mgrwt>
</event>
<event>
 5    1  0.1446384E-002  0.1250017E+03  0.7818608E-02  0.1235067E+00
          4   -1    0    0  501    0  0.00000000000E+00  0.00000000000E+00  0.68955577256E+03  0.68955694208E+03  0.12700000000E+01 0.  1.
         -4   -1    0    0    0  501 -0.00000000000E+00 -0.00000000000E+00 -0.55926668112E+01  0.57350520539E+01  0.12700000000E+01 0.  1.
         25    2    1    2    0    0  0.00000000000E+00  0.00000000000E+00  0.68396310575E+03  0.69529199414E+03  0.12500170831E+03 0.  0.
    9000005    1    3    3    0    0 -0.12569347010E+02  0.58805986268E+02  0.43657665353E+03  0.44069979228E+03  0.10000000000E+01 0.  0.
    9000005    1    3    3    0    0  0.12569347010E+02 -0.58805986268E+02  0.24738645222E+03  0.25459220186E+03  0.10000000000E+01 0.  0.
<mgrwt>
<rscale>  0 0.12500171E+03</rscale>
<asrwt>0</asrwt>
<pdfrwt beam="1">  1        4 0.17240693E+00 0.12500171E+03</pdfrwt>
<pdfrwt beam="2">  1       -4 0.14161107E-02 0.12500171E+03</pdfrwt>
<totfact> 0.62554251E+02</totfact>
</mgrwt>
</event>
<event>
 5    1  0.1446384E-002  0.1249965E+03  0.7818608E-02  0.1235075E+00
          4   -1    0    0  501    0  0.00000000000E+00  0.00000000000E+00  0.16326658689E+02  0.16375978870E+02  0.12700000000E+01 0. -1.
         -4   -1    0    0    0  501 -0.00000000000E+00 -0.00000000000E+00 -0.23883082345E+03  0.23883420009E+03  0.12700000000E+01 0. -1.
         25    2    1    2    0    0  0.00000000000E+00  0.00000000000E+00 -0.22250416477E+03  0.25521017896E+03  0.12499652838E+03 0.  0.
    9000005    1    3    3    0    0  0.56220681658E+02 -0.12251305227E+02 -0.16102082635E+03  0.17099580709E+03  0.10000000000E+01 0.  0.
    9000005    1    3    3    0    0 -0.56220681658E+02  0.12251305227E+02 -0.61483338420E+02  0.84214371868E+02  0.10000000000E+01 0.  0.
<mgrwt>
<rscale>  0 0.12499653E+03</rscale>
<asrwt>0</asrwt>
<pdfrwt beam="1">  1        4 0.40882525E-02 0.12499653E+03</pdfrwt>
<pdfrwt beam="2">  1       -4 0.59714282E-01 0.12499653E+03</pdfrwt>
<totfact> 0.14327404E+03</totfact>
</mgrwt>
</event>
<event>
 5    1  0.1446384E-002  0.1249997E+03  0.7818608E-02  0.1235070E+00
         -4   -1    0    0    0  501 -0.00000000000E+00  0.00000000000E+00  0.32773548888E+03  0.32773794955E+03  0.12700000000E+01 0.  1.
          4   -1    0    0  501    0  0.00000000000E+00 -0.00000000000E+00 -0.11882501310E+02  0.11950177295E+02  0.12700000000E+01 0.  1.
         25    2    1    2    0    0  0.00000000000E+00  0.00000000000E+00  0.31585298757E+03  0.33968812684E+03  0.12499965504E+03 0.  0.
    9000005    1    3    3    0    0 -0.54939501251E+02 -0.43021473055E+01  0.77846459377E+02  0.95383061948E+02  0.10000000000E+01 0.  0.
    9000005    1    3    3    0    0  0.54939501251E+02  0.43021473055E+01  0.23800652820E+03  0.24430506489E+03  0.10000000000E+01 0.  0.
<mgrwt>
<rscale>  0 0.12499966E+03</rscale>
<asrwt>0</asrwt>
<pdfrwt beam="2">  1        4 0.29793924E-02 0.12499966E+03</pdfrwt>
<pdfrwt beam="1">  1       -4 0.81942641E-01 0.12499966E+03</pdfrwt>
<totfact> 0.11927460E+03</totfact>
</mgrwt>
</event>
<event>
 5    1  0.1446384E-002  0.1249991E+03  0.7818608E-02  0.1235071E+00
          4   -1    0    0  501    0  0.00000000000E+00  0.00000000000E+00  0.13965363048E+02  0.14022990590E+02  0.12700000000E+01 0.  1.
         -4   -1    0    0    0  501 -0.00000000000E+00 -0.00000000000E+00 -0.27907105884E+03  0.27907394859E+03  0.12700000000E+01 0.  1.
         25    2    1    2    0    0  0.00000000000E+00  0.00000000000E+00 -0.26510569579E+03  0.29309693918E+03  0.12499914326E+03 0.  0.
    9000005    1    3    3    0    0 -0.13300679577E+02 -0.19483759849E+02 -0.26824055958E+03  0.26927777996E+03  0.10000000000E+01 0.  0.
    9000005    1    3    3    0    0  0.13300679577E+02  0.19483759849E+02  0.31348637890E+01  0.23819159222E+02  0.10000000000E+01 0.  0.
<mgrwt>
<rscale>  0 0.12499914E+03</rscale>
<asrwt>0</asrwt>
<pdfrwt beam="1">  1        4 0.34989063E-02 0.12499914E+03</pdfrwt>
<pdfrwt beam="2">  1       -4 0.69775311E-01 0.12499914E+03</pdfrwt>
<totfact> 0.13167017E+03</totfact>
</mgrwt>
</event>
<event>
 5    1  0.1446384E-002  0.1249914E+03  0.7818608E-02  0.1235083E+00
         -4   -1    0    0    0  501 -0.00000000000E+00  0.00000000000E+00  0.53265690295E+03  0.53265841696E+03  0.12700000000E+01 0. -1.
          4   -1    0    0  501    0  0.00000000000E+00 -0.00000000000E+00 -0.72759803617E+01  0.73859860699E+01  0.12700000000E+01 0. -1.
         25    2    1    2    0    0  0.00000000000E+00  0.00000000000E+00  0.52538092259E+03  0.54004440303E+03  0.12499137341E+03 0.  0.
    9000005    1    3    3    0    0  0.31658188277E+02 -0.45409520474E+02  0.38794809045E+03  0.39187879034E+03  0.10000000000E+01 0.  0.
    9000005    1    3    3    0    0 -0.31658188277E+02  0.45409520474E+02  0.13743283213E+03  0.14816561269E+03  0.10000000000E+01 0.  0.
<mgrwt>
<rscale>  0 0.12499137E+03</rscale>
<asrwt>0</asrwt>
<pdfrwt beam="2">  1        4 0.18329352E-02 0.12499137E+03</pdfrwt>
<pdfrwt beam="1">  1       -4 0.13317815E+00 0.12499137E+03</pdfrwt>
<totfact> 0.81587111E+02</totfact>
</mgrwt>
</event>
<event>
 5    1  0.1446384E-002  0.1250023E+03  0.7818608E-02  0.1235066E+00
          4   -1    0    0  501    0  0.00000000000E+00  0.00000000000E+00  0.62015708318E+03  0.62015838357E+03  0.12700000000E+01 0. -1.
         -4   -1    0    0    0  501 -0.00000000000E+00 -0.00000000000E+00 -0.62336999886E+01  0.63617541251E+01  0.12700000000E+01 0. -1.
         25    2    1    2    0    0  0.00000000000E+00  0.00000000000E+00  0.61392338319E+03  0.62652013770E+03  0.12500225004E+03 0.  0.
    9000005    1    3    3    0    0 -0.33018787520E+02 -0.93557257203E+01  0.45198128970E+02  0.56759499606E+02  0.10000000000E+01 0.  0.
    9000005    1    3    3    0    0  0.33018787520E+02  0.93557257203E+01  0.56872525422E+03  0.56976063809E+03  0.10000000000E+01 0.  0.
<mgrwt>
<rscale>  0 0.12500225E+03</rscale>
<asrwt>0</asrwt>
<pdfrwt beam="1">  1        4 0.15505541E+00 0.12500225E+03</pdfrwt>
<pdfrwt beam="2">  1       -4 0.15745947E-02 0.12500225E+03</pdfrwt>
<totfact> 0.70259162E+02</totfact>
</mgrwt>
</event>
<event>
 5    1  0.1446384E-002  0.1250058E+03  0.7818608E-02  0.1235060E+00
          4   -1    0    0  501    0  0.00000000000E+00  0.00000000000E+00  0.63542471946E+01  0.64799195527E+01  0.12700000000E+01 0.  1.
         -4   -1    0    0    0  501 -0.00000000000E+00 -0.00000000000E+00 -0.60865673978E+03  0.60865806474E+03  0.12700000000E+01 0.  1.
         25    2    1    2    0    0  0.00000000000E+00  0.00000000000E+00 -0.60230249258E+03  0.61513798429E+03  0.12500578847E+03 0.  0.
    9000005    1    3    3    0    0 -0.42406947885E+01 -0.94362073614E+01  0.21354912732E+01  0.10610646759E+02  0.10000000000E+01 0.  0.
    9000005    1    3    3    0    0  0.42406947885E+01  0.94362073614E+01 -0.60443798385E+03  0.60452733753E+03  0.10000000000E+01 0.  0.
<mgrwt>
<rscale>  0 0.12500579E+03</rscale>
<asrwt>0</asrwt>
<pdfrwt beam="1">  1        4 0.16044385E-02 0.12500579E+03</pdfrwt>
<pdfrwt beam="2">  1       -4 0.15217986E+00 0.12500579E+03</pdfrwt>
<totfact> 0.71621067E+02</totfact>
</mgrwt>
</event>
<event>
 5    1  0.1446384E-002  0.1250001E+03  0.7818608E-02  0.1235069E+00
          4   -1    0    0  501    0  0.00000000000E+00  0.00000000000E+00  0.24268719525E+02  0.24301926824E+02  0.12700000000E+01 0. -1.
         -4   -1    0    0    0  501 -0.00000000000E+00 -0.00000000000E+00 -0.16081277871E+03  0.16081779347E+03  0.12700000000E+01 0. -1.
         25    2    1    2    0    0  0.00000000000E+00  0.00000000000E+00 -0.13654405919E+03  0.18511972030E+03  0.12500012297E+03 0.  0.
    9000005    1    3    3    0    0  0.44328164434E+02  0.41847338259E+02 -0.47908379336E+02  0.77539658834E+02  0.10000000000E+01 0.  0.
    9000005    1    3    3    0    0 -0.44328164434E+02 -0.41847338259E+02 -0.88635679852E+02  0.10758006146E+03  0.10000000000E+01 0.  0.
<mgrwt>
<rscale>  0 0.12500012E+03</rscale>
<asrwt>0</asrwt>
<pdfrwt beam="1">  1        4 0.60719581E-02 0.12500012E+03</pdfrwt>
<pdfrwt beam="2">  1       -4 0.40207969E-01 0.12500012E+03</pdfrwt>
<totfact> 0.16935690E+03</totfact>
</mgrwt>
</event>
<event>
 5    1  0.1446384E-002  0.1250033E+03  0.7818608E-02  0.1235064E+00
         -4   -1    0    0    0  501 -0.00000000000E+00  0.00000000000E+00  0.80405011575E+02  0.80415040797E+02  0.12700000000E+01 0. -1.
          4   -1    0    0  501    0  0.00000000000E+00 -0.00000000000E+00 -0.48563347949E+02  0.48579951256E+02  0.12700000000E+01 0. -1.
         25    2    1    2    0    0  0.00000000000E+00  0.00000000000E+00  0.31841663626E+02  0.12899499205E+03  0.12500326569E+03 0.  0.
    9000005    1    3    3    0    0 -0.61311890673E+02  0.10675558346E+02  0.10052532446E+02  0.63048940454E+02  0.10000000000E+01 0.  0.
    9000005    1    3    3    0    0  0.61311890673E+02 -0.10675558346E+02  0.21789131179E+02  0.65946051598E+02  0.10000000000E+01 0.  0.
<mgrwt>
<rscale>  0 0.12500327E+03</rscale>
<asrwt>0</asrwt>
<pdfrwt beam="2">  1        4 0.12144166E-01 0.12500327E+03</pdfrwt>
<pdfrwt beam="1">  1       -4 0.20104582E-01 0.12500327E+03</pdfrwt>
<totfact> 0.19617071E+03</totfact>
</mgrwt>
</event>
<event>
 5    1  0.1446384E-002  0.1249907E+03  0.7818608E-02  0.1235084E+00
          4   -1    0    0  501    0  0.00000000000E+00  0.00000000000E+00  0.41401317492E+03  0.41401512280E+03  0.12700000000E+01 0.  1.
         -4   -1    0    0    0  501 -0.00000000000E+00 -0.00000000000E+00 -0.93889651438E+01  0.94744691920E+01  0.12700000000E+01 0.  1.
         25    2    1    2    0    0  0.00000000000E+00  0.00000000000E+00  0.40462420978E+03  0.42348959199E+03  0.12499073321E+03 0.  0.
    9000005    1    3    3    0    0  0.46282458734E+02  0.15214683619E+02  0.33488944267E+03  0.33841615121E+03  0.10000000000E+01 0.  0.
    9000005    1    3    3    0    0 -0.46282458734E+02 -0.15214683619E+02  0.69734767103E+02  0.85073440785E+02  0.10000000000E+01 0.  0.
<mgrwt>
<rscale>  0 0.12499073E+03</rscale>
<asrwt>0</asrwt>
<pdfrwt beam="1">  1        4 0.10351422E+00 0.12499073E+03</pdfrwt>
<pdfrwt beam="2">  1       -4 0.23581730E-02 0.12499073E+03</pdfrwt>
<totfact> 0.10099894E+03</totfact>
</mgrwt>
</event>
<event>
 5    1  0.1446384E-002  0.1249994E+03  0.7818608E-02  0.1235070E+00
          4   -1    0    0  501    0  0.00000000000E+00  0.00000000000E+00  0.23957579932E+02  0.23991217897E+02  0.12700000000E+01 0. -1.
         -4   -1    0    0    0  501 -0.00000000000E+00 -0.00000000000E+00 -0.16289655175E+03  0.16290150236E+03  0.12700000000E+01 0. -1.
         25    2    1    2    0    0  0.00000000000E+00  0.00000000000E+00 -0.13893897182E+03  0.18689272026E+03  0.12499940398E+03 0.  0.
    9000005    1    3    3    0    0 -0.30262016777E+01 -0.62276122645E+02 -0.75766779129E+02  0.98127866418E+02  0.10000000000E+01 0.  0.
    9000005    1    3    3    0    0  0.30262016777E+01  0.62276122645E+02 -0.63172192689E+02  0.88764853841E+02  0.10000000000E+01 0.  0.
<mgrwt>
<rscale>  0 0.12499940E+03</rscale>
<asrwt>0</asrwt>
<pdfrwt beam="1">  1        4 0.59942190E-02 0.12499940E+03</pdfrwt>
<pdfrwt beam="2">  1       -4 0.40728958E-01 0.12499940E+03</pdfrwt>
<totfact> 0.16860923E+03</totfact>
</mgrwt>
</event>
<event>
 5    1  0.1446384E-002  0.1250024E+03  0.7818608E-02  0.1235066E+00
         -4   -1    0    0    0  501 -0.00000000000E+00  0.00000000000E+00  0.10413062025E+02  0.10490222149E+02  0.12700000000E+01 0.  1.
          4   -1    0    0  501    0  0.00000000000E+00 -0.00000000000E+00 -0.37368126061E+03  0.37368341872E+03  0.12700000000E+01 0.  1.
         25    2    1    2    0    0  0.00000000000E+00  0.00000000000E+00 -0.36326819858E+03  0.38417364087E+03  0.12500240894E+03 0.  0.
    9000005    1    3    3    0    0  0.34094372440E+02 -0.46590649283E+02 -0.10811238268E+03  0.12256590929E+03  0.10000000000E+01 0.  0.
    9000005    1    3    3    0    0 -0.34094372440E+02  0.46590649283E+02 -0.25515581590E+03  0.26160773158E+03  0.10000000000E+01 0.  0.
<mgrwt>
<rscale>  0 0.12500241E+03</rscale>
<asrwt>0</asrwt>
<pdfrwt beam="2">  1        4 0.93430185E-01 0.12500241E+03</pdfrwt>
<pdfrwt beam="1">  1       -4 0.26131815E-02 0.12500241E+03</pdfrwt>
<totfact> 0.10902031E+03</totfact>
</mgrwt>
</event>
<event>
 5    1  0.1446384E-002  0.1249999E+03  0.7818608E-02  0.1235069E+00
         -4   -1    0    0    0  501 -0.00000000000E+00  0.00000000000E+00  0.15233494917E+03  0.15234024301E+03  0.12700000000E+01 0.  1.
          4   -1    0    0  501    0  0.00000000000E+00 -0.00000000000E+00 -0.25621011326E+02  0.25652468134E+02  0.12700000000E+01 0.  1.
         25    2    1    2    0    0  0.00000000000E+00  0.00000000000E+00  0.12671393785E+03  0.17799271114E+03  0.12499993270E+03 0.  0.
    9000005    1    3    3    0    0 -0.16620868558E+02  0.58808123132E+02  0.81955487701E+02  0.10223673793E+03  0.10000000000E+01 0.  0.
    9000005    1    3    3    0    0  0.16620868558E+02 -0.58808123132E+02  0.44758450145E+02  0.75755973212E+02  0.10000000000E+01 0.  0.
<mgrwt>
<rscale>  0 0.12499993E+03</rscale>
<asrwt>0</asrwt>
<pdfrwt beam="2">  1        4 0.64098468E-02 0.12499993E+03</pdfrwt>
<pdfrwt beam="1">  1       -4 0.38088330E-01 0.12499993E+03</pdfrwt>
<totfact> 0.17242480E+03</totfact>
</mgrwt>
</event>
<event>
 5    1  0.1446384E-002  0.1250019E+03  0.7818608E-02  0.1235066E+00
         -4   -1    0    0    0  501 -0.00000000000E+00  0.00000000000E+00  0.73508737062E+02  0.73519707048E+02  0.12700000000E+01 0.  1.
          4   -1    0    0  501    0  0.00000000000E+00 -0.00000000000E+00 -0.53119007498E+02  0.53134187277E+02  0.12700000000E+01 0.  1.
         25    2    1    2    0    0  0.00000000000E+00  0.00000000000E+00  0.20389729564E+02  0.12665389432E+03  0.12500187149E+03 0.  0.
    9000005    1    3    3    0    0  0.32597972630E+02 -0.40559266564E+02 -0.24870095083E+02  0.57681917038E+02  0.10000000000E+01 0.  0.
    9000005    1    3    3    0    0 -0.32597972630E+02  0.40559266564E+02  0.45259824647E+02  0.68971977287E+02  0.10000000000E+01 0.  0.
<mgrwt>
<rscale>  0 0.12500187E+03</rscale>
<asrwt>0</asrwt>
<pdfrwt beam="2">  1        4 0.13283021E-01 0.12500187E+03</pdfrwt>
<pdfrwt beam="1">  1       -4 0.18380453E-01 0.12500187E+03</pdfrwt>
<totfact> 0.19744761E+03</totfact>
</mgrwt>
</event>
<event>
 5    1  0.1446384E-002  0.1250172E+03  0.7818608E-02  0.1235042E+00
          4   -1    0    0  501    0  0.00000000000E+00  0.00000000000E+00  0.62344789384E+02  0.62357723365E+02  0.12700000000E+01 0. -1.
         -4   -1    0    0    0  501 -0.00000000000E+00 -0.00000000000E+00 -0.62646955251E+02  0.62659826861E+02  0.12700000000E+01 0. -1.
         25    2    1    2    0    0  0.00000000000E+00  0.00000000000E+00 -0.30216586719E+00  0.12501755023E+03  0.12501718506E+03 0.  0.
    9000005    1    3    3    0    0  0.16943865442E+01  0.62477422663E+02 -0.30872771045E+00  0.62509156138E+02  0.10000000000E+01 0.  0.
    9000005    1    3    3    0    0 -0.16943865442E+01 -0.62477422663E+02  0.65618432579E-02  0.62508394087E+02  0.10000000000E+01 0.  0.
<mgrwt>
<rscale>  0 0.12501719E+03</rscale>
<asrwt>0</asrwt>
<pdfrwt beam="1">  1        4 0.15589423E-01 0.12501719E+03</pdfrwt>
<pdfrwt beam="2">  1       -4 0.15664965E-01 0.12501719E+03</pdfrwt>
<totfact> 0.19826130E+03</totfact>
</mgrwt>
</event>
<event>
 5    1  0.1446384E-002  0.1249981E+03  0.7818608E-02  0.1235072E+00
         -4   -1    0    0    0  501 -0.00000000000E+00  0.00000000000E+00  0.48714633610E+03  0.48714799156E+03  0.12700000000E+01 0. -1.
          4   -1    0    0  501    0  0.00000000000E+00 -0.00000000000E+00 -0.79664222023E+01  0.80670182041E+01  0.12700000000E+01 0. -1.
         25    2    1    2    0    0  0.00000000000E+00  0.00000000000E+00  0.47917991390E+03  0.49521500976E+03  0.12499806401E+03 0.  0.
    9000005    1    3    3    0    0 -0.47468335084E+01  0.49102383508E+02  0.39156714137E+03  0.39466365768E+03  0.10000000000E+01 0.  0.
    9000005    1    3    3    0    0  0.47468335084E+01 -0.49102383508E+02  0.87612772533E+02  0.10055135208E+03  0.10000000000E+01 0.  0.
<mgrwt>
<rscale>  0 0.12499806E+03</rscale>
<asrwt>0</asrwt>
<pdfrwt beam="2">  1        4 0.20043869E-02 0.12499806E+03</pdfrwt>
<pdfrwt beam="1">  1       -4 0.12179937E+00 0.12499806E+03</pdfrwt>
<totfact> 0.88376838E+02</totfact>
</mgrwt>
</event>
<event>
 5    1  0.1446384E-002  0.1250154E+03  0.7818608E-02  0.1235045E+00
         -4   -1    0    0    0  501 -0.00000000000E+00  0.00000000000E+00  0.55460118196E+03  0.55460263607E+03  0.12700000000E+01 0. -1.
          4   -1    0    0  501    0  0.00000000000E+00 -0.00000000000E+00 -0.69863783289E+01  0.71008719292E+01  0.12700000000E+01 0. -1.
         25    2    1    2    0    0  0.00000000000E+00  0.00000000000E+00  0.54761480363E+03  0.56170350800E+03  0.12501543000E+03 0.  0.
    9000005    1    3    3    0    0  0.56271202073E+02 -0.27120801597E+01  0.39540385539E+03  0.39939831299E+03  0.10000000000E+01 0.  0.
    9000005    1    3    3    0    0 -0.56271202073E+02  0.27120801597E+01  0.15221094824E+03  0.16230519501E+03  0.10000000000E+01 0.  0.
<mgrwt>
<rscale>  0 0.12501543E+03</rscale>
<asrwt>0</asrwt>
<pdfrwt beam="2">  1        4 0.17610882E-02 0.12501543E+03</pdfrwt>
<pdfrwt beam="1">  1       -4 0.13866478E+00 0.12501543E+03</pdfrwt>
<totfact> 0.78515236E+02</totfact>
</mgrwt>
</event>
<event>
 5    1  0.1446384E-002  0.1250020E+03  0.7818608E-02  0.1235066E+00
         -4   -1    0    0    0  501 -0.00000000000E+00  0.00000000000E+00  0.64192041279E+02  0.64204603134E+02  0.12700000000E+01 0.  1.
          4   -1    0    0  501    0  0.00000000000E+00 -0.00000000000E+00 -0.60829369861E+02  0.60842625993E+02  0.12700000000E+01 0.  1.
         25    2    1    2    0    0  0.00000000000E+00  0.00000000000E+00  0.33626714178E+01  0.12504722913E+03  0.12500200780E+03 0.  0.
    9000005    1    3    3    0    0  0.32851723004E+02 -0.43963960790E+02  0.31580439187E+02  0.63327637663E+02  0.10000000000E+01 0.  0.
    9000005    1    3    3    0    0 -0.32851723004E+02  0.43963960790E+02 -0.28217767769E+02  0.61719591465E+02  0.10000000000E+01 0.  0.
<mgrwt>
<rscale>  0 0.12500201E+03</rscale>
<asrwt>0</asrwt>
<pdfrwt beam="2">  1        4 0.15210570E-01 0.12500201E+03</pdfrwt>
<pdfrwt beam="1">  1       -4 0.16051238E-01 0.12500201E+03</pdfrwt>
<totfact> 0.19831563E+03</totfact>
</mgrwt>
</event>
<event>
 5    1  0.1446384E-002  0.1249973E+03  0.7818608E-02  0.1235074E+00
         -4   -1    0    0    0  501 -0.00000000000E+00  0.00000000000E+00  0.18165316333E+02  0.18209657258E+02  0.12700000000E+01 0. -1.
          4   -1    0    0  501    0  0.00000000000E+00 -0.00000000000E+00 -0.21472124906E+03  0.21472500483E+03  0.12700000000E+01 0. -1.
         25    2    1    2    0    0  0.00000000000E+00  0.00000000000E+00 -0.19655593273E+03  0.23293466208E+03  0.12499728841E+03 0.  0.
    9000005    1    3    3    0    0 -0.42608257163E+02 -0.45662050523E+02 -0.10227219878E+03  0.11983776149E+03  0.10000000000E+01 0.  0.
    9000005    1    3    3    0    0  0.42608257163E+02  0.45662050523E+02 -0.94283733951E+02  0.11309690059E+03  0.10000000000E+01 0.  0.
<mgrwt>
<rscale>  0 0.12499729E+03</rscale>
<asrwt>0</asrwt>
<pdfrwt beam="2">  1        4 0.53686316E-01 0.12499729E+03</pdfrwt>
<pdfrwt beam="1">  1       -4 0.45473418E-02 0.12499729E+03</pdfrwt>
<totfact> 0.15083957E+03</totfact>
</mgrwt>
</event>
<event>
 5    1  0.1446384E-002  0.1250177E+03  0.7818608E-02  0.1235042E+00
         -4   -1    0    0    0  501 -0.00000000000E+00  0.00000000000E+00  0.63763563688E+02  0.63776209939E+02  0.12700000000E+01 0. -1.
          4   -1    0    0  501    0  0.00000000000E+00 -0.00000000000E+00 -0.61253567020E+02  0.61266731369E+02  0.12700000000E+01 0. -1.
         25    2    1    2    0    0  0.00000000000E+00  0.00000000000E+00  0.25099966681E+01  0.12504294131E+03  0.12501774709E+03 0.  0.
    9000005    1    3    3    0    0 -0.40173880969E+02  0.32992431222E+02  0.35959512885E+02  0.63218097069E+02  0.10000000000E+01 0.  0.
    9000005    1    3    3    0    0  0.40173880969E+02 -0.32992431222E+02 -0.33449516217E+02  0.61824844239E+02  0.10000000000E+01 0.  0.
<mgrwt>
<rscale>  0 0.12501775E+03</rscale>
<asrwt>0</asrwt>
<pdfrwt beam="2">  1        4 0.15316618E-01 0.12501775E+03</pdfrwt>
<pdfrwt beam="1">  1       -4 0.15944117E-01 0.12501775E+03</pdfrwt>
<totfact> 0.19824493E+03</totfact>
</mgrwt>
</event>
<event>
 5    1  0.1446384E-002  0.1249918E+03  0.7818608E-02  0.1235082E+00
          4   -1    0    0  501    0  0.00000000000E+00  0.00000000000E+00  0.30839383099E+03  0.30839644598E+03  0.12700000000E+01 0. -1.
         -4   -1    0    0    0  501 -0.00000000000E+00 -0.00000000000E+00 -0.12630265180E+02  0.12693955196E+02  0.12700000000E+01 0. -1.
         25    2    1    2    0    0  0.00000000000E+00  0.00000000000E+00  0.29576356581E+03  0.32109040117E+03  0.12499183520E+03 0.  0.
    9000005    1    3    3    0    0  0.54979966186E+02  0.15205987492E+02  0.82351343148E+02  0.10018364365E+03  0.10000000000E+01 0.  0.
    9000005    1    3    3    0    0 -0.54979966186E+02 -0.15205987492E+02  0.21341222266E+03  0.22090675752E+03  0.10000000000E+01 0.  0.
<mgrwt>
<rscale>  0 0.12499184E+03</rscale>
<asrwt>0</asrwt>
<pdfrwt beam="1">  1        4 0.77106747E-01 0.12499184E+03</pdfrwt>
<pdfrwt beam="2">  1       -4 0.31658544E-02 0.12499184E+03</pdfrwt>
<totfact> 0.12402203E+03</totfact>
</mgrwt>
</event>
<event>
 5    1  0.1446384E-002  0.1250009E+03  0.7818608E-02  0.1235068E+00
         -4   -1    0    0    0  501 -0.00000000000E+00  0.00000000000E+00  0.13293087098E+02  0.13353616162E+02  0.12700000000E+01 0. -1.
          4   -1    0    0  501    0  0.00000000000E+00 -0.00000000000E+00 -0.29313042174E+03  0.29313317289E+03  0.12700000000E+01 0. -1.
         25    2    1    2    0    0  0.00000000000E+00  0.00000000000E+00 -0.27983733464E+03  0.30648678905E+03  0.12500087202E+03 0.  0.
    9000005    1    3    3    0    0  0.45541202339E+02  0.11360940629E+02 -0.38758824657E+02  0.60879541484E+02  0.10000000000E+01 0.  0.
    9000005    1    3    3    0    0 -0.45541202339E+02 -0.11360940629E+02 -0.24107850998E+03  0.24560724757E+03  0.10000000000E+01 0.  0.
<mgrwt>
<rscale>  0 0.12500087E+03</rscale>
<asrwt>0</asrwt>
<pdfrwt beam="2">  1        4 0.73290494E-01 0.12500087E+03</pdfrwt>
<pdfrwt beam="1">  1       -4 0.33311828E-02 0.12500087E+03</pdfrwt>
<totfact> 0.12790926E+03</totfact>
</mgrwt>
</event>
<event>
 5    1  0.1446384E-002  0.1250014E+03  0.7818608E-02  0.1235067E+00
          4   -1    0    0  501    0  0.00000000000E+00  0.00000000000E+00  0.10145250879E+04  0.10145258828E+04  0.12700000000E+01 0.  1.
         -4   -1    0    0    0  501 -0.00000000000E+00 -0.00000000000E+00 -0.37448715599E+01  0.39543599988E+01  0.12700000000E+01 0.  1.
         25    2    1    2    0    0  0.00000000000E+00  0.00000000000E+00  0.10107802164E+04  0.10184802428E+04  0.12500143693E+03 0.  0.
    9000005    1    3    3    0    0 -0.54920599769E+01 -0.14448260054E+02  0.99874449951E+03  0.99886460056E+03  0.10000000000E+01 0.  0.
    9000005    1    3    3    0    0  0.54920599769E+01  0.14448260054E+02  0.12035716845E+02  0.19615642262E+02  0.10000000000E+01 0.  0.
<mgrwt>
<rscale>  0 0.12500144E+03</rscale>
<asrwt>0</asrwt>
<pdfrwt beam="1">  1        4 0.25365762E+00 0.12500144E+03</pdfrwt>
<pdfrwt beam="2">  1       -4 0.96250309E-03 0.12500144E+03</pdfrwt>
<totfact> 0.35878743E+02</totfact>
</mgrwt>
</event>
<event>
 5    1  0.1446384E-002  0.1250001E+03  0.7818608E-02  0.1235069E+00
         -4   -1    0    0    0  501 -0.00000000000E+00  0.00000000000E+00  0.76483683743E+02  0.76494227096E+02  0.12700000000E+01 0. -1.
          4   -1    0    0  501    0  0.00000000000E+00 -0.00000000000E+00 -0.51051110853E+02  0.51066905323E+02  0.12700000000E+01 0. -1.
         25    2    1    2    0    0  0.00000000000E+00  0.00000000000E+00  0.25432572891E+02  0.12756113242E+03  0.12500010696E+03 0.  0.
    9000005    1    3    3    0    0  0.23263033066E+02  0.46593009758E+02  0.47966427427E+02  0.70808582996E+02  0.10000000000E+01 0.  0.
    9000005    1    3    3    0    0 -0.23263033066E+02 -0.46593009758E+02 -0.22533854536E+02  0.56752549423E+02  0.10000000000E+01 0.  0.
<mgrwt>
<rscale>  0 0.12500011E+03</rscale>
<asrwt>0</asrwt>
<pdfrwt beam="2">  1        4 0.12766070E-01 0.12500011E+03</pdfrwt>
<pdfrwt beam="1">  1       -4 0.19124213E-01 0.12500011E+03</pdfrwt>
<totfact> 0.19696399E+03</totfact>
</mgrwt>
</event>
<event>
 5    1  0.1446384E-002  0.1249984E+03  0.7818608E-02  0.1235072E+00
         -4   -1    0    0    0  501 -0.00000000000E+00  0.00000000000E+00  0.87402078187E+01  0.88319948321E+01  0.12700000000E+01 0.  1.
          4   -1    0    0  501    0  0.00000000000E+00 -0.00000000000E+00 -0.44449048944E+03  0.44449230376E+03  0.12700000000E+01 0.  1.
         25    2    1    2    0    0  0.00000000000E+00  0.00000000000E+00 -0.43575028162E+03  0.45332429859E+03  0.12499844704E+03 0.  0.
    9000005    1    3    3    0    0  0.52978096419E+02 -0.22902814779E+02 -0.13099193139E+03  0.14314714009E+03  0.10000000000E+01 0.  0.
    9000005    1    3    3    0    0 -0.52978096419E+02  0.22902814779E+02 -0.30475835023E+03  0.31017715851E+03  0.10000000000E+01 0.  0.
<mgrwt>
<rscale>  0 0.12499845E+03</rscale>
<asrwt>0</asrwt>
<pdfrwt beam="2">  1        4 0.11113425E+00 0.12499845E+03</pdfrwt>
<pdfrwt beam="1">  1       -4 0.21967536E-02 0.12499845E+03</pdfrwt>
<totfact> 0.95426588E+02</totfact>
</mgrwt>
</event>
<event>
 5    1  0.1446384E-002  0.1250023E+03  0.7818608E-02  0.1235066E+00
         -4   -1    0    0    0  501 -0.00000000000E+00  0.00000000000E+00  0.44144671522E+02  0.44162936086E+02  0.12700000000E+01 0. -1.
          4   -1    0    0  501    0  0.00000000000E+00 -0.00000000000E+00 -0.88449639436E+02  0.88458756584E+02  0.12700000000E+01 0. -1.
         25    2    1    2    0    0  0.00000000000E+00  0.00000000000E+00 -0.44304967915E+02  0.13262169267E+03  0.12500233272E+03 0.  0.
    9000005    1    3    3    0    0  0.90398589843E+01  0.50850117274E+02 -0.59481509561E+02  0.78781364908E+02  0.10000000000E+01 0.  0.
    9000005    1    3    3    0    0 -0.90398589843E+01 -0.50850117274E+02  0.15176541646E+02  0.53840327762E+02  0.10000000000E+01 0.  0.
<mgrwt>
<rscale>  0 0.12500233E+03</rscale>
<asrwt>0</asrwt>
<pdfrwt beam="2">  1        4 0.22115832E-01 0.12500233E+03</pdfrwt>
<pdfrwt beam="1">  1       -4 0.11039591E-01 0.12500233E+03</pdfrwt>
<totfact> 0.19423390E+03</totfact>
</mgrwt>
</event>
<event>
 5    1  0.1446384E-002  0.1250064E+03  0.7818608E-02  0.1235059E+00
          4   -1    0    0  501    0  0.00000000000E+00  0.00000000000E+00  0.27518996156E+03  0.27519289207E+03  0.12700000000E+01 0. -1.
         -4   -1    0    0    0  501 -0.00000000000E+00 -0.00000000000E+00 -0.14164767002E+02  0.14221586558E+02  0.12700000000E+01 0. -1.
         25    2    1    2    0    0  0.00000000000E+00  0.00000000000E+00  0.26102519456E+03  0.28941447862E+03  0.12500635281E+03 0.  0.
    9000005    1    3    3    0    0 -0.44998774542E+01  0.22636886894E+02 -0.39477961255E+01  0.23436352950E+02  0.10000000000E+01 0.  0.
    9000005    1    3    3    0    0  0.44998774542E+01 -0.22636886894E+02  0.26497299068E+03  0.26597812567E+03  0.10000000000E+01 0.  0.
<mgrwt>
<rscale>  0 0.12500635E+03</rscale>
<asrwt>0</asrwt>
<pdfrwt beam="1">  1        4 0.68804958E-01 0.12500635E+03</pdfrwt>
<pdfrwt beam="2">  1       -4 0.35486606E-02 0.12500635E+03</pdfrwt>
<totfact> 0.13271075E+03</totfact>
</mgrwt>
</event>
<event>
 5    1  0.1446384E-002  0.1249991E+03  0.7818608E-02  0.1235071E+00
          4   -1    0    0  501    0  0.00000000000E+00  0.00000000000E+00  0.12164028687E+03  0.12164691648E+03  0.12700000000E+01 0. -1.
         -4   -1    0    0    0  501 -0.00000000000E+00 -0.00000000000E+00 -0.32092590383E+02  0.32117709406E+02  0.12700000000E+01 0. -1.
         25    2    1    2    0    0  0.00000000000E+00  0.00000000000E+00  0.89547696485E+02  0.15376462589E+03  0.12499908091E+03 0.  0.
    9000005    1    3    3    0    0 -0.59747990481E+02 -0.16435195549E+02  0.54710841046E+02  0.82669305956E+02  0.10000000000E+01 0.  0.
    9000005    1    3    3    0    0  0.59747990481E+02  0.16435195549E+02  0.34836855439E+02  0.71095319931E+02  0.10000000000E+01 0.  0.
<mgrwt>
<rscale>  0 0.12499908E+03</rscale>
<asrwt>0</asrwt>
<pdfrwt beam="1">  1        4 0.30414040E-01 0.12499908E+03</pdfrwt>
<pdfrwt beam="2">  1       -4 0.80271163E-02 0.12499908E+03</pdfrwt>
<totfact> 0.18355602E+03</totfact>
</mgrwt>
</event>
<event>
 5    1  0.1446384E-002  0.1250002E+03  0.7818608E-02  0.1235069E+00
          4   -1    0    0  501    0  0.00000000000E+00  0.00000000000E+00  0.50992814892E+01  0.52550520174E+01  0.12700000000E+01 0.  1.
         -4   -1    0    0    0  501 -0.00000000000E+00 -0.00000000000E+00 -0.75436073865E+03  0.75436180770E+03  0.12700000000E+01 0.  1.
         25    2    1    2    0    0  0.00000000000E+00  0.00000000000E+00 -0.74926145717E+03  0.75961685972E+03  0.12500016952E+03 0.  0.
    9000005    1    3    3    0    0  0.58990914082E+02 -0.95776254657E+00 -0.24943787733E+03  0.25632225791E+03  0.10000000000E+01 0.  0.
    9000005    1    3    3    0    0 -0.58990914082E+02  0.95776254657E+00 -0.49982357984E+03  0.50329460181E+03  0.10000000000E+01 0.  0.
<mgrwt>
<rscale>  0 0.12500017E+03</rscale>
<asrwt>0</asrwt>
<pdfrwt beam="1">  1        4 0.12944279E-02 0.12500017E+03</pdfrwt>
<pdfrwt beam="2">  1       -4 0.18860941E+00 0.12500017E+03</pdfrwt>
<totfact> 0.56159358E+02</totfact>
</mgrwt>
</event>
<event>
 5    1  0.1446384E-002  0.1250059E+03  0.7818608E-02  0.1235060E+00
         -4   -1    0    0    0  501 -0.00000000000E+00  0.00000000000E+00  0.98684010947E+01  0.99497859357E+01  0.12700000000E+01 0. -1.
          4   -1    0    0  501    0  0.00000000000E+00 -0.00000000000E+00 -0.39416320753E+03  0.39416525351E+03  0.12700000000E+01 0. -1.
         25    2    1    2    0    0  0.00000000000E+00  0.00000000000E+00 -0.38429480644E+03  0.40411503944E+03  0.12500586726E+03 0.  0.
    9000005    1    3    3    0    0 -0.13799576497E+02  0.44609968747E+02 -0.57875027295E+02  0.74370669000E+02  0.10000000000E+01 0.  0.
    9000005    1    3    3    0    0  0.13799576497E+02 -0.44609968747E+02 -0.32641977914E+03  0.32974437044E+03  0.10000000000E+01 0.  0.
<mgrwt>
<rscale>  0 0.12500587E+03</rscale>
<asrwt>0</asrwt>
<pdfrwt beam="2">  1        4 0.98551178E-01 0.12500587E+03</pdfrwt>
<pdfrwt beam="1">  1       -4 0.24775304E-02 0.12500587E+03</pdfrwt>
<totfact> 0.10483528E+03</totfact>
</mgrwt>
</event>
<event>
 5    1  0.1446384E-002  0.1250052E+03  0.7818608E-02  0.1235061E+00
         -4   -1    0    0    0  501 -0.00000000000E+00  0.00000000000E+00  0.44627223587E+02  0.44645290738E+02  0.12700000000E+01 0. -1.
          4   -1    0    0  501    0  0.00000000000E+00 -0.00000000000E+00 -0.87497506399E+02  0.87506722747E+02  0.12700000000E+01 0. -1.
         25    2    1    2    0    0  0.00000000000E+00  0.00000000000E+00 -0.42870282812E+02  0.13215201349E+03  0.12500517397E+03 0.  0.
    9000005    1    3    3    0    0 -0.42316365380E+01  0.10986229411E+02 -0.86319772765E+02  0.87124664445E+02  0.10000000000E+01 0.  0.
    9000005    1    3    3    0    0  0.42316365380E+01 -0.10986229411E+02  0.43449489953E+02  0.45027349041E+02  0.10000000000E+01 0.  0.
<mgrwt>
<rscale>  0 0.12500517E+03</rscale>
<asrwt>0</asrwt>
<pdfrwt beam="2">  1        4 0.21877787E-01 0.12500517E+03</pdfrwt>
<pdfrwt beam="1">  1       -4 0.11160216E-01 0.12500517E+03</pdfrwt>
<totfact> 0.19447026E+03</totfact>
</mgrwt>
</event>
<event>
 5    1  0.1446384E-002  0.1249955E+03  0.7818608E-02  0.1235076E+00
         -4   -1    0    0    0  501 -0.00000000000E+00  0.00000000000E+00  0.80942037516E+02  0.80952000206E+02  0.12700000000E+01 0.  1.
          4   -1    0    0  501    0  0.00000000000E+00 -0.00000000000E+00 -0.48235085657E+02  0.48251801918E+02  0.12700000000E+01 0.  1.
         25    2    1    2    0    0  0.00000000000E+00  0.00000000000E+00  0.32706951859E+02  0.12920380212E+03  0.12499551105E+03 0.  0.
    9000005    1    3    3    0    0  0.84302472249E+00 -0.42594704290E+02  0.63608590166E+02  0.76564170910E+02  0.10000000000E+01 0.  0.
    9000005    1    3    3    0    0 -0.84302472249E+00  0.42594704290E+02 -0.30901638307E+02  0.52639631214E+02  0.10000000000E+01 0.  0.
<mgrwt>
<rscale>  0 0.12499551E+03</rscale>
<asrwt>0</asrwt>
<pdfrwt beam="2">  1        4 0.12062106E-01 0.12499551E+03</pdfrwt>
<pdfrwt beam="1">  1       -4 0.20238844E-01 0.12499551E+03</pdfrwt>
<totfact> 0.19609337E+03</totfact>
</mgrwt>
</event>
<event>
 5    1  0.1446384E-002  0.1249982E+03  0.7818608E-02  0.1235072E+00
         -4   -1    0    0    0  501 -0.00000000000E+00  0.00000000000E+00  0.52508694778E+03  0.52508848362E+03  0.12700000000E+01 0. -1.
          4   -1    0    0  501    0  0.00000000000E+00 -0.00000000000E+00 -0.73832650348E+01  0.74916955741E+01  0.12700000000E+01 0. -1.
         25    2    1    2    0    0  0.00000000000E+00  0.00000000000E+00  0.51770368274E+03  0.53258017919E+03  0.12499817655E+03 0.  0.
    9000005    1    3    3    0    0 -0.51145880185E+02  0.19068099701E+02  0.12922260083E+03  0.14028176664E+03  0.10000000000E+01 0.  0.
    9000005    1    3    3    0    0  0.51145880185E+02 -0.19068099701E+02  0.38848108192E+03  0.39229841256E+03  0.10000000000E+01 0.  0.
<mgrwt>
<rscale>  0 0.12499818E+03</rscale>
<asrwt>0</asrwt>
<pdfrwt beam="2">  1        4 0.18595620E-02 0.12499818E+03</pdfrwt>
<pdfrwt beam="1">  1       -4 0.13128548E+00 0.12499818E+03</pdfrwt>
<totfact> 0.82651225E+02</totfact>
</mgrwt>
</event>
<event>
 5    1  0.1446384E-002  0.1250027E+03  0.7818608E-02  0.1235065E+00
          4   -1    0    0  501    0  0.00000000000E+00  0.00000000000E+00  0.74065403565E+03  0.74065512449E+03  0.12700000000E+01 0.  1.
         -4   -1    0    0    0  501 -0.00000000000E+00 -0.00000000000E+00 -0.51967261993E+01  0.53496601005E+01  0.12700000000E+01 0.  1.
         25    2    1    2    0    0  0.00000000000E+00  0.00000000000E+00  0.73545730945E+03  0.74600478459E+03  0.12500273836E+03 0.  0.
    9000005    1    3    3    0    0 -0.33893016431E+02 -0.51293730242E+02  0.30083540571E+03  0.30705492124E+03  0.10000000000E+01 0.  0.
    9000005    1    3    3    0    0  0.33893016431E+02  0.51293730242E+02  0.43462190374E+03  0.43894986335E+03  0.10000000000E+01 0.  0.
<mgrwt>
<rscale>  0 0.12500274E+03</rscale>
<asrwt>0</asrwt>
<pdfrwt beam="1">  1        4 0.18518275E+00 0.12500274E+03</pdfrwt>
<pdfrwt beam="2">  1       -4 0.13184345E-02 0.12500274E+03</pdfrwt>
<totfact> 0.57449641E+02</totfact>
</mgrwt>
</event>
<event>
 5    1  0.1446384E-002  0.1249994E+03  0.7818608E-02  0.1235070E+00
         -4   -1    0    0    0  501 -0.00000000000E+00  0.00000000000E+00  0.61321879517E+02  0.61335029204E+02  0.12700000000E+01 0.  1.
          4   -1    0    0  501    0  0.00000000000E+00 -0.00000000000E+00 -0.63673795145E+02  0.63686459221E+02  0.12700000000E+01 0.  1.
         25    2    1    2    0    0  0.00000000000E+00  0.00000000000E+00 -0.23519156277E+01  0.12502148843E+03  0.12499936424E+03 0.  0.
    9000005    1    3    3    0    0  0.67483341252E+01  0.10842018719E+02  0.60007746452E+02  0.61359750795E+02  0.10000000000E+01 0.  0.
    9000005    1    3    3    0    0 -0.67483341252E+01 -0.10842018719E+02 -0.62359662080E+02  0.63661737630E+02  0.10000000000E+01 0.  0.
<mgrwt>
<rscale>  0 0.12499936E+03</rscale>
<asrwt>0</asrwt>
<pdfrwt beam="2">  1        4 0.15921676E-01 0.12499936E+03</pdfrwt>
<pdfrwt beam="1">  1       -4 0.15333697E-01 0.12499936E+03</pdfrwt>
<totfact> 0.19834185E+03</totfact>
</mgrwt>
</event>
<event>
 5    1  0.1446384E-002  0.1249997E+03  0.7818608E-02  0.1235070E+00
         -4   -1    0    0    0  501 -0.00000000000E+00  0.00000000000E+00  0.97124762240E+02  0.97133065123E+02  0.12700000000E+01 0. -1.
          4   -1    0    0  501    0  0.00000000000E+00 -0.00000000000E+00 -0.40198632060E+02  0.40218688684E+02  0.12700000000E+01 0. -1.
         25    2    1    2    0    0  0.00000000000E+00  0.00000000000E+00  0.56926130180E+02  0.13735175381E+03  0.12499967991E+03 0.  0.
    9000005    1    3    3    0    0 -0.35065175646E+02  0.28267862780E+01 -0.28290295507E+02  0.45154159096E+02  0.10000000000E+01 0.  0.
    9000005    1    3    3    0    0  0.35065175646E+02 -0.28267862780E+01  0.85216425687E+02  0.92197594712E+02  0.10000000000E+01 0.  0.
<mgrwt>
<rscale>  0 0.12499968E+03</rscale>
<asrwt>0</asrwt>
<pdfrwt beam="2">  1        4 0.10053203E-01 0.12499968E+03</pdfrwt>
<pdfrwt beam="1">  1       -4 0.24284735E-01 0.12499968E+03</pdfrwt>
<totfact> 0.19176796E+03</totfact>
</mgrwt>
</event>
<event>
 5    1  0.1446384E-002  0.1250012E+03  0.7818608E-02  0.1235067E+00
         -4   -1    0    0    0  501 -0.00000000000E+00  0.00000000000E+00  0.18879439048E+03  0.18879866201E+03  0.12700000000E+01 0. -1.
          4   -1    0    0  501    0  0.00000000000E+00 -0.00000000000E+00 -0.20666913449E+02  0.20705897989E+02  0.12700000000E+01 0. -1.
         25    2    1    2    0    0  0.00000000000E+00  0.00000000000E+00  0.16812747703E+03  0.20950456000E+03  0.12500124850E+03 0.  0.
    9000005    1    3    3    0    0  0.52036582710E+02 -0.12545710841E+02  0.13811705713E+03  0.14813008564E+03  0.10000000000E+01 0.  0.
    9000005    1    3    3    0    0 -0.52036582710E+02  0.12545710841E+02  0.30010419902E+02  0.61374474363E+02  0.10000000000E+01 0.  0.
<mgrwt>
<rscale>  0 0.12500125E+03</rscale>
<asrwt>0</asrwt>
<pdfrwt beam="2">  1        4 0.51721354E-02 0.12500125E+03</pdfrwt>
<pdfrwt beam="1">  1       -4 0.47204004E-01 0.12500125E+03</pdfrwt>
<totfact> 0.15947949E+03</totfact>
</mgrwt>
</event>
<event>
 5    1  0.1446384E-002  0.1249992E+03  0.7818608E-02  0.1235071E+00
         -4   -1    0    0    0  501 -0.00000000000E+00  0.00000000000E+00  0.13314732572E+02  0.13375163680E+02  0.12700000000E+01 0. -1.
          4   -1    0    0  501    0  0.00000000000E+00 -0.00000000000E+00 -0.29264829617E+03  0.29265105185E+03  0.12700000000E+01 0. -1.
         25    2    1    2    0    0  0.00000000000E+00  0.00000000000E+00 -0.27933356360E+03  0.30602621553E+03  0.12499921936E+03 0.  0.
    9000005    1    3    3    0    0 -0.59578238947E+02 -0.16961866165E+02 -0.15984493153E+03  0.17143125034E+03  0.10000000000E+01 0.  0.
    9000005    1    3    3    0    0  0.59578238947E+02  0.16961866165E+02 -0.11948863207E+03  0.13459496519E+03  0.10000000000E+01 0.  0.
<mgrwt>
<rscale>  0 0.12499922E+03</rscale>
<asrwt>0</asrwt>
<pdfrwt beam="2">  1        4 0.73169951E-01 0.12499922E+03</pdfrwt>
<pdfrwt beam="1">  1       -4 0.33365825E-02 0.12499922E+03</pdfrwt>
<totfact> 0.12804056E+03</totfact>
</mgrwt>
</event>
<event>
 5    1  0.1446384E-002  0.1250052E+03  0.7818608E-02  0.1235061E+00
         -4   -1    0    0    0  501 -0.00000000000E+00  0.00000000000E+00  0.45366284584E+01  0.47110399881E+01  0.12700000000E+01 0. -1.
          4   -1    0    0  501    0  0.00000000000E+00 -0.00000000000E+00 -0.84470232773E+03  0.84470328245E+03  0.12700000000E+01 0. -1.
         25    2    1    2    0    0  0.00000000000E+00  0.00000000000E+00 -0.84016569928E+03  0.84941432244E+03  0.12500515558E+03 0.  0.
    9000005    1    3    3    0    0  0.21873029408E+02 -0.14524297367E+02 -0.80543904124E+03  0.80586750387E+03  0.10000000000E+01 0.  0.
    9000005    1    3    3    0    0 -0.21873029408E+02  0.14524297367E+02 -0.34726658033E+02  0.43546818570E+02  0.10000000000E+01 0.  0.
<mgrwt>
<rscale>  0 0.12500516E+03</rscale>
<asrwt>0</asrwt>
<pdfrwt beam="2">  1        4 0.21119698E+00 0.12500516E+03</pdfrwt>
<pdfrwt beam="1">  1       -4 0.11560808E-02 0.12500516E+03</pdfrwt>
<totfact> 0.48273426E+02</totfact>
</mgrwt>
</event>
<event>
 5    1  0.1446384E-002  0.1249944E+03  0.7818608E-02  0.1235078E+00
          4   -1    0    0  501    0  0.00000000000E+00  0.00000000000E+00  0.61800961735E+03  0.61801092226E+03  0.12700000000E+01 0. -1.
         -4   -1    0    0    0  501 -0.00000000000E+00 -0.00000000000E+00 -0.62550029203E+01  0.63826296722E+01  0.12700000000E+01 0. -1.
         25    2    1    2    0    0  0.00000000000E+00  0.00000000000E+00  0.61175461443E+03  0.62439355193E+03  0.12499439757E+03 0.  0.
    9000005    1    3    3    0    0 -0.51214037295E+02 -0.25704307288E+02  0.43039249344E+03  0.43419153312E+03  0.10000000000E+01 0.  0.
    9000005    1    3    3    0    0  0.51214037295E+02  0.25704307288E+02  0.18136212099E+03  0.19020201881E+03  0.10000000000E+01 0.  0.
<mgrwt>
<rscale>  0 0.12499440E+03</rscale>
<asrwt>0</asrwt>
<pdfrwt beam="1">  1        4 0.15451853E+00 0.12499440E+03</pdfrwt>
<pdfrwt beam="2">  1       -4 0.15798671E-02 0.12499440E+03</pdfrwt>
<totfact> 0.70524677E+02</totfact>
</mgrwt>
</event>
<event>
 5    1  0.1446384E-002  0.1250003E+03  0.7818608E-02  0.1235069E+00
         -4   -1    0    0    0  501 -0.00000000000E+00  0.00000000000E+00  0.13218273309E+03  0.13218883397E+03  0.12700000000E+01 0.  1.
          4   -1    0    0  501    0  0.00000000000E+00 -0.00000000000E+00 -0.29531614400E+02  0.29558909809E+02  0.12700000000E+01 0.  1.
         25    2    1    2    0    0  0.00000000000E+00  0.00000000000E+00  0.10265111869E+03  0.16174774378E+03  0.12500032180E+03 0.  0.
    9000005    1    3    3    0    0  0.17968154130E+02  0.47701951380E+02  0.45461403951E+01  0.51185917212E+02  0.10000000000E+01 0.  0.
    9000005    1    3    3    0    0 -0.17968154130E+02 -0.47701951380E+02  0.98104978296E+02  0.11056182657E+03  0.10000000000E+01 0.  0.
<mgrwt>
<rscale>  0 0.12500032E+03</rscale>
<asrwt>0</asrwt>
<pdfrwt beam="2">  1        4 0.73870783E-02 0.12500032E+03</pdfrwt>
<pdfrwt beam="1">  1       -4 0.33049857E-01 0.12500032E+03</pdfrwt>
<totfact> 0.17975677E+03</totfact>
</mgrwt>
</event>
<event>
 5    1  0.1446384E-002  0.1250006E+03  0.7818608E-02  0.1235068E+00
         -4   -1    0    0    0  501 -0.00000000000E+00  0.00000000000E+00  0.16999315631E+03  0.16999790026E+03  0.12700000000E+01 0. -1.
          4   -1    0    0  501    0  0.00000000000E+00 -0.00000000000E+00 -0.22956455224E+02  0.22991557939E+02  0.12700000000E+01 0. -1.
         25    2    1    2    0    0  0.00000000000E+00  0.00000000000E+00  0.14703670108E+03  0.19298945819E+03  0.12500055803E+03 0.  0.
    9000005    1    3    3    0    0  0.33036963267E+02  0.14037058152E+02  0.15249656483E+03  0.15666742555E+03  0.10000000000E+01 0.  0.
    9000005    1    3    3    0    0 -0.33036963267E+02 -0.14037058152E+02 -0.54598637446E+01  0.36322032647E+02  0.10000000000E+01 0.  0.
<mgrwt>
<rscale>  0 0.12500056E+03</rscale>
<asrwt>0</asrwt>
<pdfrwt beam="2">  1        4 0.57440948E-02 0.12500056E+03</pdfrwt>
<pdfrwt beam="1">  1       -4 0.42503269E-01 0.12500056E+03</pdfrwt>
<totfact> 0.16606443E+03</totfact>
</mgrwt>
</event>
<event>
 5    1  0.1446384E-002  0.1250030E+03  0.7818608E-02  0.1235065E+00
          4   -1    0    0  501    0  0.00000000000E+00  0.00000000000E+00  0.36214270409E+02  0.36236532412E+02  0.12700000000E+01 0. -1.
         -4   -1    0    0    0  501 -0.00000000000E+00 -0.00000000000E+00 -0.10781099598E+03  0.10781847594E+03  0.12700000000E+01 0. -1.
         25    2    1    2    0    0  0.00000000000E+00  0.00000000000E+00 -0.71596725570E+02  0.14405500835E+03  0.12500301724E+03 0.  0.
    9000005    1    3    3    0    0  0.48605228510E+00  0.60264840545E+02 -0.54851586173E+02  0.81497139572E+02  0.10000000000E+01 0.  0.
    9000005    1    3    3    0    0 -0.48605228510E+00 -0.60264840545E+02 -0.16745139397E+02  0.62557868779E+02  0.10000000000E+01 0.  0.
<mgrwt>
<rscale>  0 0.12500302E+03</rscale>
<asrwt>0</asrwt>
<pdfrwt beam="1">  1        4 0.90572856E-02 0.12500302E+03</pdfrwt>
<pdfrwt beam="2">  1       -4 0.26956466E-01 0.12500302E+03</pdfrwt>
<totfact> 0.18833456E+03</totfact>
</mgrwt>
</event>
<event>
 5    1  0.1446384E-002  0.1250020E+03  0.7818608E-02  0.1235066E+00
          4   -1    0    0  501    0  0.00000000000E+00  0.00000000000E+00  0.21438554419E+03  0.21438930584E+03  0.12700000000E+01 0. -1.
         -4   -1    0    0    0  501 -0.00000000000E+00 -0.00000000000E+00 -0.18195192854E+02  0.18239461149E+02  0.12700000000E+01 0. -1.
         25    2    1    2    0    0  0.00000000000E+00  0.00000000000E+00  0.19619035134E+03  0.23262876699E+03  0.12500195708E+03 0.  0.
    9000005    1    3    3    0    0 -0.22333208475E+02 -0.31799490139E-01  0.20671450585E+03  0.20791984066E+03  0.10000000000E+01 0.  0.
    9000005    1    3    3    0    0  0.22333208475E+02  0.31799490139E-01 -0.10524154513E+02  0.24708926327E+02  0.10000000000E+01 0.  0.
<mgrwt>
<rscale>  0 0.12500196E+03</rscale>
<asrwt>0</asrwt>
<pdfrwt beam="1">  1        4 0.53602390E-01 0.12500196E+03</pdfrwt>
<pdfrwt beam="2">  1       -4 0.45548019E-02 0.12500196E+03</pdfrwt>
<totfact> 0.15093152E+03</totfact>
</mgrwt>
</event>
<event>
 5    1  0.1446384E-002  0.1250016E+03  0.7818608E-02  0.1235067E+00
          4   -1    0    0  501    0  0.00000000000E+00  0.00000000000E+00  0.47964734848E+01  0.49617595559E+01  0.12700000000E+01 0.  1.
         -4   -1    0    0    0  501 -0.00000000000E+00 -0.00000000000E+00 -0.80046112787E+03  0.80046213535E+03  0.12700000000E+01 0.  1.
         25    2    1    2    0    0  0.00000000000E+00  0.00000000000E+00 -0.79566465438E+03  0.80542389491E+03  0.12500163299E+03 0.  0.
    9000005    1    3    3    0    0  0.44851097616E+01 -0.42863318645E+02 -0.68942110531E+03  0.69076757360E+03  0.10000000000E+01 0.  0.
    9000005    1    3    3    0    0 -0.44851097616E+01  0.42863318645E+02 -0.10624354908E+03  0.11465632130E+03  0.10000000000E+01 0.  0.
<mgrwt>
<rscale>  0 0.12500163E+03</rscale>
<asrwt>0</asrwt>
<pdfrwt beam="1">  1        4 0.12199078E-02 0.12500163E+03</pdfrwt>
<pdfrwt beam="2">  1       -4 0.20013562E+00 0.12500163E+03</pdfrwt>
<totfact> 0.51999576E+02</totfact>
</mgrwt>
</event>
<event>
 5    1  0.1446384E-002  0.1250030E+03  0.7818608E-02  0.1235065E+00
          4   -1    0    0  501    0  0.00000000000E+00  0.00000000000E+00  0.17012509261E+03  0.17012983288E+03  0.12700000000E+01 0. -1.
         -4   -1    0    0    0  501 -0.00000000000E+00 -0.00000000000E+00 -0.22939506507E+02  0.22974635118E+02  0.12700000000E+01 0. -1.
         25    2    1    2    0    0  0.00000000000E+00  0.00000000000E+00  0.14718558611E+03  0.19310446800E+03  0.12500295518E+03 0.  0.
    9000005    1    3    3    0    0 -0.12009557684E+02  0.47510468534E+02  0.13350154503E+03  0.14221510687E+03  0.10000000000E+01 0.  0.
    9000005    1    3    3    0    0  0.12009557684E+02 -0.47510468534E+02  0.13684041073E+02  0.50889361130E+02  0.10000000000E+01 0.  0.
<mgrwt>
<rscale>  0 0.12500296E+03</rscale>
<asrwt>0</asrwt>
<pdfrwt beam="1">  1        4 0.42536256E-01 0.12500296E+03</pdfrwt>
<pdfrwt beam="2">  1       -4 0.57398603E-02 0.12500296E+03</pdfrwt>
<totfact> 0.16600789E+03</totfact>
</mgrwt>
</event>
<event>
 5    1  0.1446384E-002  0.1250002E+03  0.7818608E-02  0.1235069E+00
          4   -1    0    0  501    0  0.00000000000E+00  0.00000000000E+00  0.32745267859E+02  0.32769886591E+02  0.12700000000E+01 0.  1.
         -4   -1    0    0    0  501 -0.00000000000E+00 -0.00000000000E+00 -0.11921951631E+03  0.11922628053E+03  0.12700000000E+01 0.  1.
         25    2    1    2    0    0  0.00000000000E+00  0.00000000000E+00 -0.86474248453E+02  0.15199616712E+03  0.12500015670E+03 0.  0.
    9000005    1    3    3    0    0 -0.31641418365E+02  0.35599469473E+02 -0.92431374153E+02  0.10398586688E+03  0.10000000000E+01 0.  0.
    9000005    1    3    3    0    0  0.31641418365E+02 -0.35599469473E+02  0.59571256993E+01  0.48010300244E+02  0.10000000000E+01 0.  0.
<mgrwt>
<rscale>  0 0.12500016E+03</rscale>
<asrwt>0</asrwt>
<pdfrwt beam="1">  1        4 0.81902401E-02 0.12500016E+03</pdfrwt>
<pdfrwt beam="2">  1       -4 0.29808801E-01 0.12500016E+03</pdfrwt>
<totfact> 0.18440996E+03</totfact>
</mgrwt>
</event>
<event>
 5    1  0.1446384E-002  0.1249964E+03  0.7818608E-02  0.1235075E+00
          4   -1    0    0  501    0  0.00000000000E+00  0.00000000000E+00  0.95475103837E+01  0.96316070584E+01  0.12700000000E+01 0. -1.
         -4   -1    0    0    0  501 -0.00000000000E+00 -0.00000000000E+00 -0.40723529221E+03  0.40723727251E+03  0.12700000000E+01 0. -1.
         25    2    1    2    0    0  0.00000000000E+00  0.00000000000E+00 -0.39768778182E+03  0.41686887956E+03  0.12499636370E+03 0.  0.
    9000005    1    3    3    0    0  0.51106550298E+02  0.34158613972E+02 -0.16135873073E+03  0.17267405820E+03  0.10000000000E+01 0.  0.
    9000005    1    3    3    0    0 -0.51106550298E+02 -0.34158613972E+02 -0.23632905109E+03  0.24419482137E+03  0.10000000000E+01 0.  0.
<mgrwt>
<rscale>  0 0.12499636E+03</rscale>
<asrwt>0</asrwt>
<pdfrwt beam="1">  1        4 0.23976386E-02 0.12499636E+03</pdfrwt>
<pdfrwt beam="2">  1       -4 0.10181952E+00 0.12499636E+03</pdfrwt>
<totfact> 0.10228926E+03</totfact>
</mgrwt>
</event>
<event>
 5    1  0.1446384E-002  0.1250116E+03  0.7818608E-02  0.1235051E+00
         -4   -1    0    0    0  501 -0.00000000000E+00  0.00000000000E+00  0.38470368492E+02  0.38491325671E+02  0.12700000000E+01 0.  1.
          4   -1    0    0  501    0  0.00000000000E+00 -0.00000000000E+00 -0.10150546758E+03  0.10151341216E+03  0.12700000000E+01 0.  1.
         25    2    1    2    0    0  0.00000000000E+00  0.00000000000E+00 -0.63035099086E+02  0.14000473783E+03  0.12501161105E+03 0.  0.
    9000005    1    3    3    0    0 -0.46531547553E+01 -0.37042442963E+02 -0.87650499899E+02  0.95275414260E+02  0.10000000000E+01 0.  0.
    9000005    1    3    3    0    0  0.46531547553E+01  0.37042442963E+02  0.24615400813E+02  0.44729323570E+02  0.10000000000E+01 0.  0.
<mgrwt>
<rscale>  0 0.12501161E+03</rscale>
<asrwt>0</asrwt>
<pdfrwt beam="2">  1        4 0.25379979E-01 0.12501161E+03</pdfrwt>
<pdfrwt beam="1">  1       -4 0.96212051E-02 0.12501161E+03</pdfrwt>
<totfact> 0.19034946E+03</totfact>
</mgrwt>
</event>
<event>
 5    1  0.1446384E-002  0.1250022E+03  0.7818608E-02  0.1235066E+00
         -4   -1    0    0    0  501 -0.00000000000E+00  0.00000000000E+00  0.17414031412E+02  0.17460280353E+02  0.12700000000E+01 0. -1.
          4   -1    0    0  501    0  0.00000000000E+00 -0.00000000000E+00 -0.22397854355E+03  0.22398214409E+03  0.12700000000E+01 0. -1.
         25    2    1    2    0    0  0.00000000000E+00  0.00000000000E+00 -0.20656451214E+03  0.24144242444E+03  0.12500218656E+03 0.  0.
    9000005    1    3    3    0    0 -0.36502480201E+02  0.90134295242E+01 -0.68671590458E+01  0.38233896558E+02  0.10000000000E+01 0.  0.
    9000005    1    3    3    0    0  0.36502480201E+02 -0.90134295242E+01 -0.19969735309E+03  0.20320852789E+03  0.10000000000E+01 0.  0.
<mgrwt>
<rscale>  0 0.12500219E+03</rscale>
<asrwt>0</asrwt>
<pdfrwt beam="2">  1        4 0.56000858E-01 0.12500219E+03</pdfrwt>
<pdfrwt beam="1">  1       -4 0.43597397E-02 0.12500219E+03</pdfrwt>
<totfact> 0.14786143E+03</totfact>
</mgrwt>
</event>
<event>
 5    1  0.1446384E-002  0.1249996E+03  0.7818608E-02  0.1235070E+00
         -4   -1    0    0    0  501 -0.00000000000E+00  0.00000000000E+00  0.24996700980E+02  0.25028942444E+02  0.12700000000E+01 0. -1.
          4   -1    0    0  501    0  0.00000000000E+00 -0.00000000000E+00 -0.15613398588E+03  0.15613915091E+03  0.12700000000E+01 0. -1.
         25    2    1    2    0    0  0.00000000000E+00  0.00000000000E+00 -0.13113728490E+03  0.18116809335E+03  0.12499956223E+03 0.  0.
    9000005    1    3    3    0    0  0.20766495856E+02 -0.56939780328E+02 -0.43500574110E+02  0.74610226389E+02  0.10000000000E+01 0.  0.
    9000005    1    3    3    0    0 -0.20766495856E+02  0.56939780328E+02 -0.87636710790E+02  0.10655786697E+03  0.10000000000E+01 0.  0.
<mgrwt>
<rscale>  0 0.12499956E+03</rscale>
<asrwt>0</asrwt>
<pdfrwt beam="2">  1        4 0.39038169E-01 0.12499956E+03</pdfrwt>
<pdfrwt beam="1">  1       -4 0.62538515E-02 0.12499956E+03</pdfrwt>
<totfact> 0.17104947E+03</totfact>
</mgrwt>
</event>
<event>
 5    1  0.1446384E-002  0.1249990E+03  0.7818608E-02  0.1235071E+00
          4   -1    0    0  501    0  0.00000000000E+00  0.00000000000E+00  0.83839401446E+03  0.83839497636E+03  0.12700000000E+01 0. -1.
         -4   -1    0    0    0  501 -0.00000000000E+00 -0.00000000000E+00 -0.45716061746E+01  0.47447321332E+01  0.12700000000E+01 0. -1.
         25    2    1    2    0    0  0.00000000000E+00  0.00000000000E+00  0.83382240829E+03  0.84313970849E+03  0.12499903790E+03 0.  0.
    9000005    1    3    3    0    0 -0.13002360686E+02 -0.43061370571E+02  0.12430400220E+03  0.13219617234E+03  0.10000000000E+01 0.  0.
    9000005    1    3    3    0    0  0.13002360686E+02  0.43061370571E+02  0.70951840609E+03  0.71094353615E+03  0.10000000000E+01 0.  0.
<mgrwt>
<rscale>  0 0.12499904E+03</rscale>
<asrwt>0</asrwt>
<pdfrwt beam="1">  1        4 0.20962024E+00 0.12499904E+03</pdfrwt>
<pdfrwt beam="2">  1       -4 0.11646627E-02 0.12499904E+03</pdfrwt>
<totfact> 0.48796790E+02</totfact>
</mgrwt>
</event>
<event>
 5    1  0.1446384E-002  0.1250028E+03  0.7818608E-02  0.1235065E+00
          4   -1    0    0  501    0  0.00000000000E+00  0.00000000000E+00  0.25446686000E+03  0.25447002915E+03  0.12700000000E+01 0.  1.
         -4   -1    0    0    0  501 -0.00000000000E+00 -0.00000000000E+00 -0.15321875239E+02  0.15374419041E+02  0.12700000000E+01 0.  1.
         25    2    1    2    0    0  0.00000000000E+00  0.00000000000E+00  0.23914498476E+03  0.26984444819E+03  0.12500280991E+03 0.  0.
    9000005    1    3    3    0    0 -0.54843848350E+02 -0.29912518495E+02  0.12319703606E+03  0.13813441337E+03  0.10000000000E+01 0.  0.
    9000005    1    3    3    0    0  0.54843848350E+02  0.29912518495E+02  0.11594794870E+03  0.13171003482E+03  0.10000000000E+01 0.  0.
<mgrwt>
<rscale>  0 0.12500281E+03</rscale>
<asrwt>0</asrwt>
<pdfrwt beam="1">  1        4 0.63623678E-01 0.12500281E+03</pdfrwt>
<pdfrwt beam="2">  1       -4 0.38374330E-02 0.12500281E+03</pdfrwt>
<totfact> 0.13859506E+03</totfact>
</mgrwt>
</event>
<event>
 5    1  0.1446384E-002  0.1250062E+03  0.7818608E-02  0.1235060E+00
         -4   -1    0    0    0  501 -0.00000000000E+00  0.00000000000E+00  0.44184448975E+03  0.44184631494E+03  0.12700000000E+01 0.  1.
          4   -1    0    0  501    0  0.00000000000E+00 -0.00000000000E+00 -0.87941979323E+01  0.88854272419E+01  0.12700000000E+01 0.  1.
         25    2    1    2    0    0  0.00000000000E+00  0.00000000000E+00  0.43305029182E+03  0.45073174218E+03  0.12500619250E+03 0.  0.
    9000005    1    3    3    0    0  0.42156388463E+02 -0.11295097346E+02  0.55238298374E+02  0.70406036102E+02  0.10000000000E+01 0.  0.
    9000005    1    3    3    0    0 -0.42156388463E+02  0.11295097346E+02  0.37781199344E+03  0.38032570608E+03  0.10000000000E+01 0.  0.
<mgrwt>
<rscale>  0 0.12500619E+03</rscale>
<asrwt>0</asrwt>
<pdfrwt beam="2">  1        4 0.22101813E-02 0.12500619E+03</pdfrwt>
<pdfrwt beam="1">  1       -4 0.11047275E+00 0.12500619E+03</pdfrwt>
<totfact> 0.95872234E+02</totfact>
</mgrwt>
</event>
<event>
 5    1  0.1446384E-002  0.1250002E+03  0.7818608E-02  0.1235069E+00
         -4   -1    0    0    0  501 -0.00000000000E+00  0.00000000000E+00  0.74169442811E+02  0.74180315090E+02  0.12700000000E+01 0. -1.
          4   -1    0    0  501    0  0.00000000000E+00 -0.00000000000E+00 -0.52644350414E+02  0.52659667019E+02  0.12700000000E+01 0. -1.
         25    2    1    2    0    0  0.00000000000E+00  0.00000000000E+00  0.21525092397E+02  0.12683998211E+03  0.12500020583E+03 0.  0.
    9000005    1    3    3    0    0 -0.36162249395E+02  0.31977711241E+02  0.51032677326E+02  0.70253942612E+02  0.10000000000E+01 0.  0.
    9000005    1    3    3    0    0  0.36162249395E+02 -0.31977711241E+02 -0.29507584929E+02  0.56586039496E+02  0.10000000000E+01 0.  0.
<mgrwt>
<rscale>  0 0.12500021E+03</rscale>
<asrwt>0</asrwt>
<pdfrwt beam="2">  1        4 0.13164361E-01 0.12500021E+03</pdfrwt>
<pdfrwt beam="1">  1       -4 0.18545634E-01 0.12500021E+03</pdfrwt>
<totfact> 0.19735501E+03</totfact>
</mgrwt>
</event>
<event>
 5    1  0.1446384E-002  0.1250076E+03  0.7818608E-02  0.1235057E+00
          4   -1    0    0  501    0  0.00000000000E+00  0.00000000000E+00  0.18477305812E+02  0.18520899818E+02  0.12700000000E+01 0.  1.
         -4   -1    0    0    0  501 -0.00000000000E+00 -0.00000000000E+00 -0.21113907772E+03  0.21114289721E+03  0.12700000000E+01 0.  1.
         25    2    1    2    0    0  0.00000000000E+00  0.00000000000E+00 -0.19266177191E+03  0.22966379702E+03  0.12500760500E+03 0.  0.
    9000005    1    3    3    0    0 -0.54102086691E+02  0.16777113719E+02 -0.47819866561E+02  0.74136677610E+02  0.10000000000E+01 0.  0.
    9000005    1    3    3    0    0  0.54102086691E+02 -0.16777113719E+02 -0.14484190535E+03  0.15552711941E+03  0.10000000000E+01 0.  0.
<mgrwt>
<rscale>  0 0.12500761E+03</rscale>
<asrwt>0</asrwt>
<pdfrwt beam="1">  1        4 0.46252538E-02 0.12500761E+03</pdfrwt>
<pdfrwt beam="2">  1       -4 0.52790689E-01 0.12500761E+03</pdfrwt>
<totfact> 0.15196669E+03</totfact>
</mgrwt>
</event>
<event>
 5    1  0.1446384E-002  0.1249931E+03  0.7818608E-02  0.1235080E+00
          4   -1    0    0  501    0  0.00000000000E+00  0.00000000000E+00  0.97324854335E+02  0.97333140149E+02  0.12700000000E+01 0.  1.
         -4   -1    0    0    0  501 -0.00000000000E+00 -0.00000000000E+00 -0.40111696576E+02  0.40131796648E+02  0.12700000000E+01 0.  1.
         25    2    1    2    0    0  0.00000000000E+00  0.00000000000E+00  0.57213157759E+02  0.13746493680E+03  0.12499305352E+03 0.  0.
    9000005    1    3    3    0    0 -0.45677889022E+02  0.42638673336E+02  0.28014484540E+02  0.68486037653E+02  0.10000000000E+01 0.  0.
    9000005    1    3    3    0    0  0.45677889022E+02 -0.42638673336E+02  0.29198673219E+02  0.68978899144E+02  0.10000000000E+01 0.  0.
<mgrwt>
<rscale>  0 0.12499305E+03</rscale>
<asrwt>0</asrwt>
<pdfrwt beam="1">  1        4 0.24334762E-01 0.12499305E+03</pdfrwt>
<pdfrwt beam="2">  1       -4 0.10031472E-01 0.12499305E+03</pdfrwt>
<totfact> 0.19173899E+03</totfact>
</mgrwt>
</event>
<event>
 5    1  0.1446384E-002  0.1249642E+03  0.7818608E-02  0.1235125E+00
          4   -1    0    0  501    0  0.00000000000E+00  0.00000000000E+00  0.85714476213E+02  0.85723884259E+02  0.12700000000E+01 0.  1.
         -4   -1    0    0    0  501 -0.00000000000E+00 -0.00000000000E+00 -0.45525986413E+02  0.45543697027E+02  0.12700000000E+01 0.  1.
         25    2    1    2    0    0  0.00000000000E+00  0.00000000000E+00  0.40188489800E+02  0.13126758129E+03  0.12496424762E+03 0.  0.
    9000005    1    3    3    0    0  0.36625338050E+02 -0.28087485349E+02  0.64321352677E+02  0.79174229587E+02  0.10000000000E+01 0.  0.
    9000005    1    3    3    0    0 -0.36625338050E+02  0.28087485349E+02 -0.24132862877E+02  0.52093351698E+02  0.10000000000E+01 0.  0.
<mgrwt>
<rscale>  0 0.12496425E+03</rscale>
<asrwt>0</asrwt>
<pdfrwt beam="1">  1        4 0.21432009E-01 0.12496425E+03</pdfrwt>
<pdfrwt beam="2">  1       -4 0.11384887E-01 0.12496425E+03</pdfrwt>
<totfact> 0.19512756E+03</totfact>
</mgrwt>
</event>
<event>
 5    1  0.1446384E-002  0.1249991E+03  0.7818608E-02  0.1235071E+00
         -4   -1    0    0    0  501 -0.00000000000E+00  0.00000000000E+00  0.18889813290E+03  0.18890240208E+03  0.12700000000E+01 0.  1.
          4   -1    0    0  501    0  0.00000000000E+00 -0.00000000000E+00 -0.20654841656E+02  0.20693848937E+02  0.12700000000E+01 0.  1.
         25    2    1    2    0    0  0.00000000000E+00  0.00000000000E+00  0.16824329124E+03  0.20959625102E+03  0.12499913357E+03 0.  0.
    9000005    1    3    3    0    0 -0.21434072459E+02 -0.22144938854E+02  0.17527717777E+03  0.17796883667E+03  0.10000000000E+01 0.  0.
    9000005    1    3    3    0    0  0.21434072459E+02  0.22144938854E+02 -0.70338865235E+01  0.31627414352E+02  0.10000000000E+01 0.  0.
<mgrwt>
<rscale>  0 0.12499913E+03</rscale>
<asrwt>0</asrwt>
<pdfrwt beam="2">  1        4 0.51691201E-02 0.12499913E+03</pdfrwt>
<pdfrwt beam="1">  1       -4 0.47229942E-01 0.12499913E+03</pdfrwt>
<totfact> 0.15945190E+03</totfact>
</mgrwt>
</event>
<event>
 5    1  0.1446384E-002  0.1250035E+03  0.7818608E-02  0.1235064E+00
          4   -1    0    0  501    0  0.00000000000E+00  0.00000000000E+00  0.20082208371E+02  0.20122325737E+02  0.12700000000E+01 0.  1.
         -4   -1    0    0    0  501 -0.00000000000E+00 -0.00000000000E+00 -0.19428743559E+03  0.19429158635E+03  0.12700000000E+01 0.  1.
         25    2    1    2    0    0  0.00000000000E+00  0.00000000000E+00 -0.17420522722E+03  0.21441391209E+03  0.12500345798E+03 0.  0.
    9000005    1    3    3    0    0 -0.36146921644E+02  0.18254039174E+01 -0.17448910484E+03  0.17820600369E+03  0.10000000000E+01 0.  0.
    9000005    1    3    3    0    0  0.36146921644E+02 -0.18254039174E+01  0.28387762599E+00  0.36207908395E+02  0.10000000000E+01 0.  0.
<mgrwt>
<rscale>  0 0.12500346E+03</rscale>
<asrwt>0</asrwt>
<pdfrwt beam="1">  1        4 0.50260862E-02 0.12500346E+03</pdfrwt>
<pdfrwt beam="2">  1       -4 0.48577387E-01 0.12500346E+03</pdfrwt>
<totfact> 0.15759448E+03</totfact>
</mgrwt>
</event>
<event>
 5    1  0.1446384E-002  0.1249450E+03  0.7818608E-02  0.1235155E+00
         -4   -1    0    0    0  501 -0.00000000000E+00  0.00000000000E+00  0.41143615455E+03  0.41143811463E+03  0.12700000000E+01 0. -1.
          4   -1    0    0  501    0  0.00000000000E+00 -0.00000000000E+00 -0.94413327367E+01  0.95263667704E+01  0.12700000000E+01 0. -1.
         25    2    1    2    0    0  0.00000000000E+00  0.00000000000E+00  0.40199482181E+03  0.42096448140E+03  0.12494501925E+03 0.  0.
    9000005    1    3    3    0    0  0.32132338735E+02 -0.32103895684E+02  0.34546754106E+03  0.34844220358E+03  0.10000000000E+01 0.  0.
    9000005    1    3    3    0    0 -0.32132338735E+02  0.32103895684E+02  0.56527280748E+02  0.72522277815E+02  0.10000000000E+01 0.  0.
<mgrwt>
<rscale>  0 0.12494502E+03</rscale>
<asrwt>0</asrwt>
<pdfrwt beam="2">  1        4 0.23712077E-02 0.12494502E+03</pdfrwt>
<pdfrwt beam="1">  1       -4 0.10286990E+00 0.12494502E+03</pdfrwt>
<totfact> 0.10159860E+03</totfact>
</mgrwt>
</event>
<event>
 5    1  0.1446384E-002  0.1250018E+03  0.7818608E-02  0.1235066E+00
         -4   -1    0    0    0  501 -0.00000000000E+00  0.00000000000E+00  0.87675685971E+02  0.87684883592E+02  0.12700000000E+01 0. -1.
          4   -1    0    0  501    0  0.00000000000E+00 -0.00000000000E+00 -0.44534087589E+02  0.44552192510E+02  0.12700000000E+01 0. -1.
         25    2    1    2    0    0  0.00000000000E+00  0.00000000000E+00  0.43141598382E+02  0.13223707610E+03  0.12500178713E+03 0.  0.
    9000005    1    3    3    0    0  0.45571831243E+02  0.21070695359E+02 -0.17793135597E+02  0.53276276898E+02  0.10000000000E+01 0.  0.
    9000005    1    3    3    0    0 -0.45571831243E+02 -0.21070695359E+02  0.60934733979E+02  0.78960799203E+02  0.10000000000E+01 0.  0.
<mgrwt>
<rscale>  0 0.12500179E+03</rscale>
<asrwt>0</asrwt>
<pdfrwt beam="2">  1        4 0.11136935E-01 0.12500179E+03</pdfrwt>
<pdfrwt beam="1">  1       -4 0.21922334E-01 0.12500179E+03</pdfrwt>
<totfact> 0.19444044E+03</totfact>
</mgrwt>
</event>
<event>
 5    1  0.1446384E-002  0.1250011E+03  0.7818608E-02  0.1235067E+00
         -4   -1    0    0    0  501 -0.00000000000E+00  0.00000000000E+00  0.60213083358E+02  0.60226475138E+02  0.12700000000E+01 0. -1.
          4   -1    0    0  501    0  0.00000000000E+00 -0.00000000000E+00 -0.64848137896E+02  0.64860572682E+02  0.12700000000E+01 0. -1.
         25    2    1    2    0    0  0.00000000000E+00  0.00000000000E+00 -0.46350545376E+01  0.12508704782E+03  0.12500114320E+03 0.  0.
    9000005    1    3    3    0    0  0.20580744507E+02  0.49734714890E+02 -0.34091711225E+02  0.63720904607E+02  0.10000000000E+01 0.  0.
    9000005    1    3    3    0    0 -0.20580744507E+02 -0.49734714890E+02  0.29456656687E+02  0.61366143213E+02  0.10000000000E+01 0.  0.
<mgrwt>
<rscale>  0 0.12500114E+03</rscale>
<asrwt>0</asrwt>
<pdfrwt beam="2">  1        4 0.16215263E-01 0.12500114E+03</pdfrwt>
<pdfrwt beam="1">  1       -4 0.15056499E-01 0.12500114E+03</pdfrwt>
<totfact> 0.19829805E+03</totfact>
</mgrwt>
</event>
<event>
 5    1  0.1446384E-002  0.1249898E+03  0.7818608E-02  0.1235085E+00
          4   -1    0    0  501    0  0.00000000000E+00  0.00000000000E+00  0.12907423163E+03  0.12908047943E+03  0.12700000000E+01 0.  1.
         -4   -1    0    0    0  501 -0.00000000000E+00 -0.00000000000E+00 -0.30238325946E+02  0.30264983991E+02  0.12700000000E+01 0.  1.
         25    2    1    2    0    0  0.00000000000E+00  0.00000000000E+00  0.98835905685E+02  0.15934546343E+03  0.12498976143E+03 0.  0.
    9000005    1    3    3    0    0 -0.13687678308E+02 -0.52358249731E+02  0.95924260499E+01  0.54970478349E+02  0.10000000000E+01 0.  0.
    9000005    1    3    3    0    0  0.13687678308E+02  0.52358249731E+02  0.89243479635E+02  0.10437498508E+03  0.10000000000E+01 0.  0.
<mgrwt>
<rscale>  0 0.12498976E+03</rscale>
<asrwt>0</asrwt>
<pdfrwt beam="1">  1        4 0.32272671E-01 0.12498976E+03</pdfrwt>
<pdfrwt beam="2">  1       -4 0.75636947E-02 0.12498976E+03</pdfrwt>
<totfact> 0.18092907E+03</totfact>
</mgrwt>
</event>
<event>
 5    1  0.1446384E-002  0.1249982E+03  0.7818608E-02  0.1235072E+00
         -4   -1    0    0    0  501 -0.00000000000E+00  0.00000000000E+00  0.38889924290E+02  0.38910655498E+02  0.12700000000E+01 0.  1.
          4   -1    0    0  501    0  0.00000000000E+00 -0.00000000000E+00 -0.10038940176E+03  0.10039743466E+03  0.12700000000E+01 0.  1.
         25    2    1    2    0    0  0.00000000000E+00  0.00000000000E+00 -0.61499477469E+02  0.13930809015E+03  0.12499823300E+03 0.  0.
    9000005    1    3    3    0    0  0.11271648304E+01  0.36552424634E+02 -0.87224208011E+02  0.94585478327E+02  0.10000000000E+01 0.  0.
    9000005    1    3    3    0    0 -0.11271648304E+01 -0.36552424634E+02  0.25724730542E+02  0.44722611827E+02  0.10000000000E+01 0.  0.
<mgrwt>
<rscale>  0 0.12499823E+03</rscale>
<asrwt>0</asrwt>
<pdfrwt beam="2">  1        4 0.25100945E-01 0.12499823E+03</pdfrwt>
<pdfrwt beam="1">  1       -4 0.97260768E-02 0.12499823E+03</pdfrwt>
<totfact> 0.19076581E+03</totfact>
</mgrwt>
</event>
<event>
 5    1  0.1446384E-002  0.1249954E+03  0.7818608E-02  0.1235076E+00
          4   -1    0    0  501    0  0.00000000000E+00  0.00000000000E+00  0.63898665641E+01  0.65148518561E+01  0.12700000000E+01 0.  1.
         -4   -1    0    0    0  501 -0.00000000000E+00 -0.00000000000E+00 -0.60522836919E+03  0.60522970166E+03  0.12700000000E+01 0.  1.
         25    2    1    2    0    0  0.00000000000E+00  0.00000000000E+00 -0.59883850263E+03  0.61174455352E+03  0.12499538604E+03 0.  0.
    9000005    1    3    3    0    0 -0.44649869341E+01  0.50551071173E+02 -0.12096001188E+03  0.13117801409E+03  0.10000000000E+01 0.  0.
    9000005    1    3    3    0    0  0.44649869341E+01 -0.50551071173E+02 -0.47787849075E+03  0.48056653943E+03  0.10000000000E+01 0.  0.
<mgrwt>
<rscale>  0 0.12499539E+03</rscale>
<asrwt>0</asrwt>
<pdfrwt beam="1">  1        4 0.16132584E-02 0.12499539E+03</pdfrwt>
<pdfrwt beam="2">  1       -4 0.15132269E+00 0.12499539E+03</pdfrwt>
<totfact> 0.72052250E+02</totfact>
</mgrwt>
</event>
<event>
 5    1  0.1446384E-002  0.1250120E+03  0.7818608E-02  0.1235051E+00
         -4   -1    0    0    0  501 -0.00000000000E+00  0.00000000000E+00  0.14786980968E+02  0.14841418603E+02  0.12700000000E+01 0. -1.
          4   -1    0    0  501    0  0.00000000000E+00 -0.00000000000E+00 -0.26367750607E+03  0.26368056452E+03  0.12700000000E+01 0. -1.
         25    2    1    2    0    0  0.00000000000E+00  0.00000000000E+00 -0.24889052510E+03  0.27852198313E+03  0.12501200582E+03 0.  0.
    9000005    1    3    3    0    0 -0.47882967233E+02 -0.24576028468E+02 -0.19522437748E+03  0.20251004244E+03  0.10000000000E+01 0.  0.
    9000005    1    3    3    0    0  0.47882967233E+02  0.24576028468E+02 -0.53666147619E+02  0.76011940684E+02  0.10000000000E+01 0.  0.
<mgrwt>
<rscale>  0 0.12501201E+03</rscale>
<asrwt>0</asrwt>
<pdfrwt beam="2">  1        4 0.65926548E-01 0.12501201E+03</pdfrwt>
<pdfrwt beam="1">  1       -4 0.37039331E-02 0.12501201E+03</pdfrwt>
<totfact> 0.13591368E+03</totfact>
</mgrwt>
</event>
<event>
 5    1  0.1446384E-002  0.1249983E+03  0.7818608E-02  0.1235072E+00
         -4   -1    0    0    0  501 -0.00000000000E+00  0.00000000000E+00  0.46901146950E+01  0.48590200506E+01  0.12700000000E+01 0.  1.
          4   -1    0    0  501    0  0.00000000000E+00 -0.00000000000E+00 -0.81794552914E+03  0.81794651508E+03  0.12700000000E+01 0.  1.
         25    2    1    2    0    0  0.00000000000E+00  0.00000000000E+00 -0.81325541444E+03  0.82280553513E+03  0.12499831809E+03 0.  0.
    9000005    1    3    3    0    0 -0.11979102295E+02  0.59924097475E+02 -0.32061323598E+03  0.32638664715E+03  0.10000000000E+01 0.  0.
    9000005    1    3    3    0    0  0.11979102295E+02 -0.59924097475E+02 -0.49264217846E+03  0.49641888799E+03  0.10000000000E+01 0.  0.
<mgrwt>
<rscale>  0 0.12499832E+03</rscale>
<asrwt>0</asrwt>
<pdfrwt beam="2">  1        4 0.20450714E+00 0.12499832E+03</pdfrwt>
<pdfrwt beam="1">  1       -4 0.11937679E-02 0.12499832E+03</pdfrwt>
<totfact> 0.50502565E+02</totfact>
</mgrwt>
</event>
<event>
 5    1  0.1446384E-002  0.1249978E+03  0.7818608E-02  0.1235073E+00
          4   -1    0    0  501    0  0.00000000000E+00  0.00000000000E+00  0.20335857363E+03  0.20336253925E+03  0.12700000000E+01 0. -1.
         -4   -1    0    0    0  501 -0.00000000000E+00 -0.00000000000E+00 -0.19182859081E+02  0.19224853251E+02  0.12700000000E+01 0. -1.
         25    2    1    2    0    0  0.00000000000E+00  0.00000000000E+00  0.18417571455E+03  0.22258739250E+03  0.12499781386E+03 0.  0.
    9000005    1    3    3    0    0 -0.30865786377E+02  0.49411994813E+02  0.13233674895E+03  0.14459687798E+03  0.10000000000E+01 0.  0.
    9000005    1    3    3    0    0  0.30865786377E+02 -0.49411994813E+02  0.51838965606E+02  0.77990514520E+02  0.10000000000E+01 0.  0.
<mgrwt>
<rscale>  0 0.12499781E+03</rscale>
<asrwt>0</asrwt>
<pdfrwt beam="1">  1        4 0.50845388E-01 0.12499781E+03</pdfrwt>
<pdfrwt beam="2">  1       -4 0.48014598E-02 0.12499781E+03</pdfrwt>
<totfact> 0.15456627E+03</totfact>
</mgrwt>
</event>
<event>
 5    1  0.1446384E-002  0.1250016E+03  0.7818608E-02  0.1235067E+00
         -4   -1    0    0    0  501 -0.00000000000E+00  0.00000000000E+00  0.35136518532E+02  0.35159462945E+02  0.12700000000E+01 0.  1.
          4   -1    0    0  501    0  0.00000000000E+00 -0.00000000000E+00 -0.11111347787E+03  0.11112073553E+03  0.12700000000E+01 0.  1.
         25    2    1    2    0    0  0.00000000000E+00  0.00000000000E+00 -0.75976959337E+02  0.14628019847E+03  0.12500159245E+03 0.  0.
    9000005    1    3    3    0    0  0.11088290554E+02  0.55018681426E+02 -0.58265278281E+01  0.56435395984E+02  0.10000000000E+01 0.  0.
    9000005    1    3    3    0    0 -0.11088290554E+02 -0.55018681426E+02 -0.70150431509E+02  0.89844802488E+02  0.10000000000E+01 0.  0.
<mgrwt>
<rscale>  0 0.12500159E+03</rscale>
<asrwt>0</asrwt>
<pdfrwt beam="2">  1        4 0.27782144E-01 0.12500159E+03</pdfrwt>
<pdfrwt beam="1">  1       -4 0.87879051E-02 0.12500159E+03</pdfrwt>
<totfact> 0.18722515E+03</totfact>
</mgrwt>
</event>
<event>
 4    1  0.1446384E-002  0.1249239E+03  0.7818608E-02  0.1235188E+00
         -4   -1    0    0    0  501 -0.00000000000E+00  0.00000000000E+00  0.42162877778E+02  0.42182000457E+02  0.12700000000E+01 0. -1.
          4   -1    0    0  501    0  0.00000000000E+00 -0.00000000000E+00 -0.92489376582E+02  0.92498095551E+02  0.12700000000E+01 0. -1.
    9000005    1    1    2    0    0  0.23415045052E+01  0.57350884668E+02  0.13738582001E+01  0.57423811280E+02  0.10000000000E+01 0.  0.
    9000005    1    1    2    0    0 -0.23415045052E+01 -0.57350884668E+02 -0.51700357004E+02  0.77256284728E+02  0.10000000000E+01 0.  0.
<mgrwt>
<rscale>  0 0.12492386E+03</rscale>
<asrwt>0</asrwt>
<pdfrwt beam="2">  1        4 0.23125824E-01 0.12492386E+03</pdfrwt>
<pdfrwt beam="1">  1       -4 0.10544200E-01 0.12492386E+03</pdfrwt>
<totfact> 0.19350261E+03</totfact>
</mgrwt>
</event>
<event>
 5    1  0.1446384E-002  0.1250016E+03  0.7818608E-02  0.1235067E+00
         -4   -1    0    0    0  501 -0.00000000000E+00  0.00000000000E+00  0.49199519269E+02  0.49215907959E+02  0.12700000000E+01 0.  1.
          4   -1    0    0  501    0  0.00000000000E+00 -0.00000000000E+00 -0.79363405445E+02  0.79373566279E+02  0.12700000000E+01 0.  1.
         25    2    1    2    0    0  0.00000000000E+00  0.00000000000E+00 -0.30163886176E+02  0.12858947424E+03  0.12500157141E+03 0.  0.
    9000005    1    3    3    0    0  0.23743079031E+01  0.58553305579E+02 -0.37412646121E+02  0.69532963564E+02  0.10000000000E+01 0.  0.
    9000005    1    3    3    0    0 -0.23743079031E+01 -0.58553305579E+02  0.72487599449E+01  0.59056510674E+02  0.10000000000E+01 0.  0.
<mgrwt>
<rscale>  0 0.12500157E+03</rscale>
<asrwt>0</asrwt>
<pdfrwt beam="2">  1        4 0.19844170E-01 0.12500157E+03</pdfrwt>
<pdfrwt beam="1">  1       -4 0.12303199E-01 0.12500157E+03</pdfrwt>
<totfact> 0.19639801E+03</totfact>
</mgrwt>
</event>
<event>
 5    1  0.1446384E-002  0.1250009E+03  0.7818608E-02  0.1235068E+00
          4   -1    0    0  501    0  0.00000000000E+00  0.00000000000E+00  0.47197446257E+01  0.48876261448E+01  0.12700000000E+01 0. -1.
         -4   -1    0    0    0  501 -0.00000000000E+00 -0.00000000000E+00 -0.81302107035E+03  0.81302206227E+03  0.12700000000E+01 0. -1.
         25    2    1    2    0    0  0.00000000000E+00  0.00000000000E+00 -0.80830132573E+03  0.81790968842E+03  0.12500090092E+03 0.  0.
    9000005    1    3    3    0    0  0.66574183416E+01  0.16655207739E+02 -0.79584862819E+03  0.79605135271E+03  0.10000000000E+01 0.  0.
    9000005    1    3    3    0    0 -0.66574183416E+01 -0.16655207739E+02 -0.12452697541E+02  0.21858335706E+02  0.10000000000E+01 0.  0.
<mgrwt>
<rscale>  0 0.12500090E+03</rscale>
<asrwt>0</asrwt>
<pdfrwt beam="1">  1        4 0.12010481E-02 0.12500090E+03</pdfrwt>
<pdfrwt beam="2">  1       -4 0.20327591E+00 0.12500090E+03</pdfrwt>
<totfact> 0.50918164E+02</totfact>
</mgrwt>
</event>
<event>
 5    1  0.1446384E-002  0.1250026E+03  0.7818608E-02  0.1235065E+00
          4   -1    0    0  501    0  0.00000000000E+00  0.00000000000E+00  0.28772141125E+02  0.28800156335E+02  0.12700000000E+01 0. -1.
         -4   -1    0    0    0  501 -0.00000000000E+00 -0.00000000000E+00 -0.13567357277E+03  0.13567951669E+03  0.12700000000E+01 0. -1.
         25    2    1    2    0    0  0.00000000000E+00  0.00000000000E+00 -0.10690143165E+03  0.16447967302E+03  0.12500258697E+03 0.  0.
    9000005    1    3    3    0    0 -0.32171849348E+02 -0.49962603013E+02 -0.78901426449E+02  0.98781196014E+02  0.10000000000E+01 0.  0.
    9000005    1    3    3    0    0  0.32171849348E+02  0.49962603013E+02 -0.28000005199E+02  0.65698477010E+02  0.10000000000E+01 0.  0.
<mgrwt>
<rscale>  0 0.12500259E+03</rscale>
<asrwt>0</asrwt>
<pdfrwt beam="1">  1        4 0.71972805E-02 0.12500259E+03</pdfrwt>
<pdfrwt beam="2">  1       -4 0.33922636E-01 0.12500259E+03</pdfrwt>
<totfact> 0.17847878E+03</totfact>
</mgrwt>
</event>
<event>
 5    1  0.1446384E-002  0.1250479E+03  0.7818608E-02  0.1234994E+00
          4   -1    0    0  501    0  0.00000000000E+00  0.00000000000E+00  0.29159136637E+01  0.31804799157E+01  0.12700000000E+01 0. -1.
         -4   -1    0    0    0  501 -0.00000000000E+00 -0.00000000000E+00 -0.12822134346E+04  0.12822140635E+04  0.12700000000E+01 0. -1.
         25    2    1    2    0    0  0.00000000000E+00  0.00000000000E+00 -0.12792975209E+04  0.12853945435E+04  0.12504793201E+03 0.  0.
    9000005    1    3    3    0    0  0.21648183066E+01  0.49910570364E+02 -0.10259742601E+04  0.10271903105E+04  0.10000000000E+01 0.  0.
    9000005    1    3    3    0    0 -0.21648183066E+01 -0.49910570364E+02 -0.25332326079E+03  0.25820423298E+03  0.10000000000E+01 0.  0.
<mgrwt>
<rscale>  0 0.12504793E+03</rscale>
<asrwt>0</asrwt>
<pdfrwt beam="1">  1        4 0.76213221E-03 0.12504793E+03</pdfrwt>
<pdfrwt beam="2">  1       -4 0.32058466E+00 0.12504793E+03</pdfrwt>
<totfact> 0.20965776E+02</totfact>
</mgrwt>
</event>
<event>
 5    1  0.1446384E-002  0.1249983E+03  0.7818608E-02  0.1235072E+00
         -4   -1    0    0    0  501 -0.00000000000E+00  0.00000000000E+00  0.15706127776E+03  0.15706641230E+03  0.12700000000E+01 0. -1.
          4   -1    0    0  501    0  0.00000000000E+00 -0.00000000000E+00 -0.24848432542E+02  0.24880866138E+02  0.12700000000E+01 0. -1.
         25    2    1    2    0    0  0.00000000000E+00  0.00000000000E+00  0.13221284522E+03  0.18194727843E+03  0.12499830275E+03 0.  0.
    9000005    1    3    3    0    0  0.38240142311E+02 -0.20696515566E+02  0.13143812444E+03  0.13844722748E+03  0.10000000000E+01 0.  0.
    9000005    1    3    3    0    0 -0.38240142311E+02  0.20696515566E+02  0.77472077526E+00  0.43500050952E+02  0.10000000000E+01 0.  0.
<mgrwt>
<rscale>  0 0.12499830E+03</rscale>
<asrwt>0</asrwt>
<pdfrwt beam="2">  1        4 0.62168043E-02 0.12499830E+03</pdfrwt>
<pdfrwt beam="1">  1       -4 0.39270015E-01 0.12499830E+03</pdfrwt>
<totfact> 0.17071931E+03</totfact>
</mgrwt>
</event>
<event>
 5    1  0.1446384E-002  0.1249990E+03  0.7818608E-02  0.1235071E+00
         -4   -1    0    0    0  501 -0.00000000000E+00  0.00000000000E+00  0.12606948961E+02  0.12670756178E+02  0.12700000000E+01 0. -1.
          4   -1    0    0  501    0  0.00000000000E+00 -0.00000000000E+00 -0.30899684708E+03  0.30899945697E+03  0.12700000000E+01 0. -1.
         25    2    1    2    0    0  0.00000000000E+00  0.00000000000E+00 -0.29638989812E+03  0.32167021314E+03  0.12499901727E+03 0.  0.
    9000005    1    3    3    0    0  0.49319597174E+01  0.22791454529E+02  0.10038225340E+01  0.23361983774E+02  0.10000000000E+01 0.  0.
    9000005    1    3    3    0    0 -0.49319597174E+01 -0.22791454529E+02 -0.29739372065E+03  0.29830822937E+03  0.10000000000E+01 0.  0.
<mgrwt>
<rscale>  0 0.12499902E+03</rscale>
<asrwt>0</asrwt>
<pdfrwt beam="2">  1        4 0.77257489E-01 0.12499902E+03</pdfrwt>
<pdfrwt beam="1">  1       -4 0.31600404E-02 0.12499902E+03</pdfrwt>
<totfact> 0.12385010E+03</totfact>
</mgrwt>
</event>
<event>
 5    1  0.1446384E-002  0.1249985E+03  0.7818608E-02  0.1235072E+00
          4   -1    0    0  501    0  0.00000000000E+00  0.00000000000E+00  0.26543974103E+03  0.26544277918E+03  0.12700000000E+01 0. -1.
         -4   -1    0    0    0  501 -0.00000000000E+00 -0.00000000000E+00 -0.14685266963E+02  0.14740080250E+02  0.12700000000E+01 0. -1.
         25    2    1    2    0    0  0.00000000000E+00  0.00000000000E+00  0.25075447407E+03  0.28018285943E+03  0.12499851380E+03 0.  0.
    9000005    1    3    3    0    0  0.51743759531E+02  0.23340853876E+02  0.18395456803E+03  0.19251622064E+03  0.10000000000E+01 0.  0.
    9000005    1    3    3    0    0 -0.51743759531E+02 -0.23340853876E+02  0.66799906036E+02  0.87666638789E+02  0.10000000000E+01 0.  0.
<mgrwt>
<rscale>  0 0.12499851E+03</rscale>
<asrwt>0</asrwt>
<pdfrwt beam="1">  1        4 0.66367164E-01 0.12499851E+03</pdfrwt>
<pdfrwt beam="2">  1       -4 0.36785483E-02 0.12499851E+03</pdfrwt>
<totfact> 0.13545689E+03</totfact>
</mgrwt>
</event>
<event>
 5    1  0.1446384E-002  0.1249958E+03  0.7818608E-02  0.1235076E+00
          4   -1    0    0  501    0  0.00000000000E+00  0.00000000000E+00  0.56601787082E+02  0.56616033072E+02  0.12700000000E+01 0.  1.
         -4   -1    0    0    0  501 -0.00000000000E+00 -0.00000000000E+00 -0.68979478490E+02  0.68991168657E+02  0.12700000000E+01 0.  1.
         25    2    1    2    0    0  0.00000000000E+00  0.00000000000E+00 -0.12377691408E+02  0.12560720173E+03  0.12499584746E+03 0.  0.
    9000005    1    3    3    0    0 -0.95824146857E+01 -0.60014490887E+02  0.84228596884E+01  0.61363721799E+02  0.10000000000E+01 0.  0.
    9000005    1    3    3    0    0  0.95824146857E+01  0.60014490887E+02 -0.20800551096E+02  0.64243479931E+02  0.10000000000E+01 0.  0.
<mgrwt>
<rscale>  0 0.12499585E+03</rscale>
<asrwt>0</asrwt>
<pdfrwt beam="1">  1        4 0.14153689E-01 0.12499585E+03</pdfrwt>
<pdfrwt beam="2">  1       -4 0.17248112E-01 0.12499585E+03</pdfrwt>
<totfact> 0.19804085E+03</totfact>
</mgrwt>
</event>
<event>
 5    1  0.1446384E-002  0.1250008E+03  0.7818608E-02  0.1235068E+00
         -4   -1    0    0    0  501 -0.00000000000E+00  0.00000000000E+00  0.16367042031E+02  0.16416240886E+02  0.12700000000E+01 0.  1.
          4   -1    0    0  501    0  0.00000000000E+00 -0.00000000000E+00 -0.23825944939E+03  0.23826283412E+03  0.12700000000E+01 0.  1.
         25    2    1    2    0    0  0.00000000000E+00  0.00000000000E+00 -0.22189240736E+03  0.25467907501E+03  0.12500076321E+03 0.  0.
    9000005    1    3    3    0    0 -0.42786682497E+02  0.27644292505E+02 -0.37192984245E+02  0.63081100055E+02  0.10000000000E+01 0.  0.
    9000005    1    3    3    0    0  0.42786682497E+02 -0.27644292505E+02 -0.18469942311E+03  0.19159797495E+03  0.10000000000E+01 0.  0.
<mgrwt>
<rscale>  0 0.12500076E+03</rscale>
<asrwt>0</asrwt>
<pdfrwt beam="2">  1        4 0.59571424E-01 0.12500076E+03</pdfrwt>
<pdfrwt beam="1">  1       -4 0.40983342E-02 0.12500076E+03</pdfrwt>
<totfact> 0.14343369E+03</totfact>
</mgrwt>
</event>
<event>
 5    1  0.1446384E-002  0.1249996E+03  0.7818608E-02  0.1235070E+00
         -4   -1    0    0    0  501 -0.00000000000E+00  0.00000000000E+00  0.17963674556E+03  0.17964123484E+03  0.12700000000E+01 0.  1.
          4   -1    0    0  501    0  0.00000000000E+00 -0.00000000000E+00 -0.21721808045E+02  0.21758902655E+02  0.12700000000E+01 0.  1.
         25    2    1    2    0    0  0.00000000000E+00  0.00000000000E+00  0.15791493751E+03  0.20140013749E+03  0.12499955157E+03 0.  0.
    9000005    1    3    3    0    0  0.37478080819E+00  0.40912023880E+02  0.15506525759E+03  0.16037508619E+03  0.10000000000E+01 0.  0.
    9000005    1    3    3    0    0 -0.37478080819E+00 -0.40912023880E+02  0.28496799185E+01  0.41025051301E+02  0.10000000000E+01 0.  0.
<mgrwt>
<rscale>  0 0.12499955E+03</rscale>
<asrwt>0</asrwt>
<pdfrwt beam="2">  1        4 0.54356501E-02 0.12499955E+03</pdfrwt>
<pdfrwt beam="1">  1       -4 0.44914384E-01 0.12499955E+03</pdfrwt>
<totfact> 0.16266299E+03</totfact>
</mgrwt>
</event>
<event>
 5    1  0.1446384E-002  0.1250001E+03  0.7818608E-02  0.1235069E+00
          4   -1    0    0  501    0  0.00000000000E+00  0.00000000000E+00  0.50811146061E+02  0.50827015101E+02  0.12700000000E+01 0.  1.
         -4   -1    0    0    0  501 -0.00000000000E+00 -0.00000000000E+00 -0.76844816080E+02  0.76855309891E+02  0.12700000000E+01 0.  1.
         25    2    1    2    0    0  0.00000000000E+00  0.00000000000E+00 -0.26033670019E+02  0.12768232499E+03  0.12500009656E+03 0.  0.
    9000005    1    3    3    0    0  0.92689616901E+00  0.57856849923E+02  0.11090041434E+02  0.58925913133E+02  0.10000000000E+01 0.  0.
    9000005    1    3    3    0    0 -0.92689616901E+00 -0.57856849923E+02 -0.37123711453E+02  0.68756411858E+02  0.10000000000E+01 0.  0.
<mgrwt>
<rscale>  0 0.12500010E+03</rscale>
<asrwt>0</asrwt>
<pdfrwt beam="1">  1        4 0.12706082E-01 0.12500010E+03</pdfrwt>
<pdfrwt beam="2">  1       -4 0.19214499E-01 0.12500010E+03</pdfrwt>
<totfact> 0.19689793E+03</totfact>
</mgrwt>
</event>
<event>
 5    1  0.1446384E-002  0.1249963E+03  0.7818608E-02  0.1235075E+00
          4   -1    0    0  501    0  0.00000000000E+00  0.00000000000E+00  0.83329464574E+02  0.83339141862E+02  0.12700000000E+01 0.  1.
         -4   -1    0    0    0  501 -0.00000000000E+00 -0.00000000000E+00 -0.46853426888E+02  0.46870635916E+02  0.12700000000E+01 0.  1.
         25    2    1    2    0    0  0.00000000000E+00  0.00000000000E+00  0.36476037686E+02  0.13020977778E+03  0.12499633956E+03 0.  0.
    9000005    1    3    3    0    0 -0.17575568835E+02  0.58512172269E+02  0.45584236503E+01  0.61272784739E+02  0.10000000000E+01 0.  0.
    9000005    1    3    3    0    0  0.17575568835E+02 -0.58512172269E+02  0.31917614036E+02  0.68936993039E+02  0.10000000000E+01 0.  0.
<mgrwt>
<rscale>  0 0.12499634E+03</rscale>
<asrwt>0</asrwt>
<pdfrwt beam="1">  1        4 0.20835727E-01 0.12499634E+03</pdfrwt>
<pdfrwt beam="2">  1       -4 0.11716718E-01 0.12499634E+03</pdfrwt>
<totfact> 0.19554782E+03</totfact>
</mgrwt>
</event>
<event>
 5    1  0.1446384E-002  0.1249974E+03  0.7818608E-02  0.1235073E+00
          4   -1    0    0  501    0  0.00000000000E+00  0.00000000000E+00  0.61071738323E+02  0.61084941858E+02  0.12700000000E+01 0. -1.
         -4   -1    0    0    0  501 -0.00000000000E+00 -0.00000000000E+00 -0.63932570284E+02  0.63945183111E+02  0.12700000000E+01 0. -1.
         25    2    1    2    0    0  0.00000000000E+00  0.00000000000E+00 -0.28608319608E+01  0.12503012497E+03  0.12499739113E+03 0.  0.
    9000005    1    3    3    0    0 -0.44504371490E+02  0.33839378117E+02  0.26493634430E+02  0.61876128340E+02  0.10000000000E+01 0.  0.
    9000005    1    3    3    0    0  0.44504371490E+02 -0.33839378117E+02 -0.29354466391E+02  0.63153996629E+02  0.10000000000E+01 0.  0.
<mgrwt>
<rscale>  0 0.12499739E+03</rscale>
<asrwt>0</asrwt>
<pdfrwt beam="1">  1        4 0.15271162E-01 0.12499739E+03</pdfrwt>
<pdfrwt beam="2">  1       -4 0.15986370E-01 0.12499739E+03</pdfrwt>
<totfact> 0.19834632E+03</totfact>
</mgrwt>
</event>
<event>
 5    1  0.1446384E-002  0.1250010E+03  0.7818608E-02  0.1235068E+00
         -4   -1    0    0    0  501 -0.00000000000E+00  0.00000000000E+00  0.34141564071E+01  0.36427138197E+01  0.12700000000E+01 0. -1.
          4   -1    0    0  501    0  0.00000000000E+00 -0.00000000000E+00 -0.11068654110E+04  0.11068661396E+04  0.12700000000E+01 0. -1.
         25    2    1    2    0    0  0.00000000000E+00  0.00000000000E+00 -0.11034512546E+04  0.11105088534E+04  0.12500096894E+03 0.  0.
    9000005    1    3    3    0    0 -0.51148200078E+02  0.35731735585E+02 -0.52042258454E+03  0.52415032366E+03  0.10000000000E+01 0.  0.
    9000005    1    3    3    0    0  0.51148200078E+02 -0.35731735585E+02 -0.58302867010E+03  0.58635852979E+03  0.10000000000E+01 0.  0.
<mgrwt>
<rscale>  0 0.12500097E+03</rscale>
<asrwt>0</asrwt>
<pdfrwt beam="2">  1        4 0.27674382E+00 0.12500097E+03</pdfrwt>
<pdfrwt beam="1">  1       -4 0.88220364E-03 0.12500097E+03</pdfrwt>
<totfact> 0.30162334E+02</totfact>
</mgrwt>
</event>
<event>
 5    1  0.1446384E-002  0.1249999E+03  0.7818608E-02  0.1235069E+00
          4   -1    0    0  501    0  0.00000000000E+00  0.00000000000E+00  0.15863672428E+02  0.15914427508E+02  0.12700000000E+01 0.  1.
         -4   -1    0    0    0  501 -0.00000000000E+00 -0.00000000000E+00 -0.24579263349E+03  0.24579591448E+03  0.12700000000E+01 0.  1.
         25    2    1    2    0    0  0.00000000000E+00  0.00000000000E+00 -0.22992896106E+03  0.26171034199E+03  0.12499990389E+03 0.  0.
    9000005    1    3    3    0    0  0.25287284737E+02  0.54317634628E+02 -0.77782167803E+02  0.98188175607E+02  0.10000000000E+01 0.  0.
    9000005    1    3    3    0    0 -0.25287284737E+02 -0.54317634628E+02 -0.15214679325E+03  0.16352216638E+03  0.10000000000E+01 0.  0.
<mgrwt>
<rscale>  0 0.12499990E+03</rscale>
<asrwt>0</asrwt>
<pdfrwt beam="1">  1        4 0.39726734E-02 0.12499990E+03</pdfrwt>
<pdfrwt beam="2">  1       -4 0.61454901E-01 0.12499990E+03</pdfrwt>
<totfact> 0.14116427E+03</totfact>
</mgrwt>
</event>
<event>
 5    1  0.1446384E-002  0.1250002E+03  0.7818608E-02  0.1235069E+00
          4   -1    0    0  501    0  0.00000000000E+00  0.00000000000E+00  0.56124595671E+02  0.56138962755E+02  0.12700000000E+01 0.  1.
         -4   -1    0    0    0  501 -0.00000000000E+00 -0.00000000000E+00 -0.69570765469E+02  0.69582356298E+02  0.12700000000E+01 0.  1.
         25    2    1    2    0    0  0.00000000000E+00  0.00000000000E+00 -0.13446169798E+02  0.12572131905E+03  0.12500020233E+03 0.  0.
    9000005    1    3    3    0    0 -0.43240913378E+01 -0.48435430863E+02  0.32753491661E+02  0.58638553400E+02  0.10000000000E+01 0.  0.
    9000005    1    3    3    0    0  0.43240913378E+01  0.48435430863E+02 -0.46199661459E+02  0.67082765654E+02  0.10000000000E+01 0.  0.
<mgrwt>
<rscale>  0 0.12500020E+03</rscale>
<asrwt>0</asrwt>
<pdfrwt beam="1">  1        4 0.14034394E-01 0.12500020E+03</pdfrwt>
<pdfrwt beam="2">  1       -4 0.17395936E-01 0.12500020E+03</pdfrwt>
<totfact> 0.19795893E+03</totfact>
</mgrwt>
</event>
<event>
 5    1  0.1446384E-002  0.1249950E+03  0.7818608E-02  0.1235077E+00
         -4   -1    0    0    0  501 -0.00000000000E+00  0.00000000000E+00  0.21217931875E+03  0.21218311951E+03  0.12700000000E+01 0. -1.
          4   -1    0    0  501    0  0.00000000000E+00 -0.00000000000E+00 -0.18382783679E+02  0.18426601308E+02  0.12700000000E+01 0. -1.
         25    2    1    2    0    0  0.00000000000E+00  0.00000000000E+00  0.19379653508E+03  0.23060972082E+03  0.12499498522E+03 0.  0.
    9000005    1    3    3    0    0  0.42845748181E+02  0.43297896511E+02  0.12262662145E+03  0.13692609053E+03  0.10000000000E+01 0.  0.
    9000005    1    3    3    0    0 -0.42845748181E+02 -0.43297896511E+02  0.71169913626E+02  0.93683630294E+02  0.10000000000E+01 0.  0.
<mgrwt>
<rscale>  0 0.12499499E+03</rscale>
<asrwt>0</asrwt>
<pdfrwt beam="2">  1        4 0.46016482E-02 0.12499499E+03</pdfrwt>
<pdfrwt beam="1">  1       -4 0.53050782E-01 0.12499499E+03</pdfrwt>
<totfact> 0.15167302E+03</totfact>
</mgrwt>
</event>
<event>
 5    1  0.1446384E-002  0.1249993E+03  0.7818608E-02  0.1235070E+00
         -4   -1    0    0    0  501 -0.00000000000E+00  0.00000000000E+00  0.22194991226E+01  0.25571617773E+01  0.12700000000E+01 0.  1.
          4   -1    0    0  501    0  0.00000000000E+00 -0.00000000000E+00 -0.16352013616E+04  0.16352018548E+04  0.12700000000E+01 0.  1.
         25    2    1    2    0    0  0.00000000000E+00  0.00000000000E+00 -0.16329818624E+04  0.16377590165E+04  0.12499933254E+03 0.  0.
    9000005    1    3    3    0    0  0.14280458029E+02  0.60593132657E+02 -0.88795357123E+03  0.89013370000E+03  0.10000000000E+01 0.  0.
    9000005    1    3    3    0    0 -0.14280458029E+02 -0.60593132657E+02 -0.74502829122E+03  0.74762531654E+03  0.10000000000E+01 0.  0.
<mgrwt>
<rscale>  0 0.12499933E+03</rscale>
<asrwt>0</asrwt>
<pdfrwt beam="2">  1        4 0.40883877E+00 0.12499933E+03</pdfrwt>
<pdfrwt beam="1">  1       -4 0.59714987E-03 0.12499933E+03</pdfrwt>
<totfact> 0.85212370E+01</totfact>
</mgrwt>
</event>
<event>
 5    1  0.1446384E-002  0.1250032E+03  0.7818608E-02  0.1235064E+00
          4   -1    0    0  501    0  0.00000000000E+00  0.00000000000E+00  0.28825737909E+02  0.28853701080E+02  0.12700000000E+01 0. -1.
         -4   -1    0    0    0  501 -0.00000000000E+00 -0.00000000000E+00 -0.13542280726E+03  0.13542876219E+03  0.12700000000E+01 0. -1.
         25    2    1    2    0    0  0.00000000000E+00  0.00000000000E+00 -0.10659706935E+03  0.16428246327E+03  0.12500317013E+03 0.  0.
    9000005    1    3    3    0    0 -0.18272682463E+02  0.25884748214E+02  0.17493474294E+02  0.36206805401E+02  0.10000000000E+01 0.  0.
    9000005    1    3    3    0    0  0.18272682463E+02 -0.25884748214E+02 -0.12409054365E+03  0.12807565786E+03  0.10000000000E+01 0.  0.
<mgrwt>
<rscale>  0 0.12500317E+03</rscale>
<asrwt>0</asrwt>
<pdfrwt beam="1">  1        4 0.72106746E-02 0.12500317E+03</pdfrwt>
<pdfrwt beam="2">  1       -4 0.33859940E-01 0.12500317E+03</pdfrwt>
<totfact> 0.17856743E+03</totfact>
</mgrwt>
</event>
<event>
 5    1  0.1446384E-002  0.1249972E+03  0.7818608E-02  0.1235074E+00
          4   -1    0    0  501    0  0.00000000000E+00  0.00000000000E+00  0.75176253483E+01  0.76241452555E+01  0.12700000000E+01 0.  1.
         -4   -1    0    0    0  501 -0.00000000000E+00 -0.00000000000E+00 -0.51582605903E+03  0.51582762244E+03  0.12700000000E+01 0.  1.
         25    2    1    2    0    0  0.00000000000E+00  0.00000000000E+00 -0.50830843368E+03  0.52345176770E+03  0.12499715738E+03 0.  0.
    9000005    1    3    3    0    0  0.88289999279E+01  0.17750385031E+02 -0.59800538924E+01  0.20731339875E+02  0.10000000000E+01 0.  0.
    9000005    1    3    3    0    0 -0.88289999279E+01 -0.17750385031E+02 -0.50232837979E+03  0.50272042782E+03  0.10000000000E+01 0.  0.
<mgrwt>
<rscale>  0 0.12499716E+03</rscale>
<asrwt>0</asrwt>
<pdfrwt beam="1">  1        4 0.18929185E-02 0.12499716E+03</pdfrwt>
<pdfrwt beam="2">  1       -4 0.12896991E+00 0.12499716E+03</pdfrwt>
<totfact> 0.83999082E+02</totfact>
</mgrwt>
</event>
<event>
 5    1  0.1446384E-002  0.1249974E+03  0.7818608E-02  0.1235073E+00
          4   -1    0    0  501    0  0.00000000000E+00  0.00000000000E+00  0.72625824638E+02  0.72636927966E+02  0.12700000000E+01 0.  1.
         -4   -1    0    0    0  501 -0.00000000000E+00 -0.00000000000E+00 -0.53761029553E+02  0.53776028103E+02  0.12700000000E+01 0.  1.
         25    2    1    2    0    0  0.00000000000E+00  0.00000000000E+00  0.18864795085E+02  0.12641295607E+03  0.12499741985E+03 0.  0.
    9000005    1    3    3    0    0 -0.18256320091E+02  0.25980213235E+02 -0.44999264621E+02  0.55083559429E+02  0.10000000000E+01 0.  0.
    9000005    1    3    3    0    0  0.18256320091E+02 -0.25980213235E+02  0.63864059706E+02  0.71329396640E+02  0.10000000000E+01 0.  0.
<mgrwt>
<rscale>  0 0.12499742E+03</rscale>
<asrwt>0</asrwt>
<pdfrwt beam="1">  1        4 0.18159719E-01 0.12499742E+03</pdfrwt>
<pdfrwt beam="2">  1       -4 0.13443520E-01 0.12499742E+03</pdfrwt>
<totfact> 0.19759813E+03</totfact>
</mgrwt>
</event>
<event>
 5    1  0.1446384E-002  0.1249969E+03  0.7818608E-02  0.1235074E+00
          4   -1    0    0  501    0  0.00000000000E+00  0.00000000000E+00  0.63527429723E+02  0.63540122971E+02  0.12700000000E+01 0. -1.
         -4   -1    0    0    0  501 -0.00000000000E+00 -0.00000000000E+00 -0.61460732986E+02  0.61473852971E+02  0.12700000000E+01 0. -1.
         25    2    1    2    0    0  0.00000000000E+00  0.00000000000E+00  0.20666967372E+01  0.12501397594E+03  0.12499689174E+03 0.  0.
    9000005    1    3    3    0    0 -0.61876749374E+02  0.16901551065E+01  0.96058090963E+01  0.62648705539E+02  0.10000000000E+01 0.  0.
    9000005    1    3    3    0    0  0.61876749374E+02 -0.16901551065E+01 -0.75391123590E+01  0.62365270403E+02  0.10000000000E+01 0.  0.
<mgrwt>
<rscale>  0 0.12499689E+03</rscale>
<asrwt>0</asrwt>
<pdfrwt beam="1">  1        4 0.15885084E-01 0.12499689E+03</pdfrwt>
<pdfrwt beam="2">  1       -4 0.15368410E-01 0.12499689E+03</pdfrwt>
<totfact> 0.19835740E+03</totfact>
</mgrwt>
</event>
<event>
 5    1  0.1446384E-002  0.1250225E+03  0.7818608E-02  0.1235034E+00
         -4   -1    0    0    0  501 -0.00000000000E+00  0.00000000000E+00  0.28503474415E+02  0.28531753429E+02  0.12700000000E+01 0. -1.
          4   -1    0    0  501    0  0.00000000000E+00 -0.00000000000E+00 -0.13699482204E+03  0.13700070863E+03  0.12700000000E+01 0. -1.
         25    2    1    2    0    0  0.00000000000E+00  0.00000000000E+00 -0.10849134763E+03  0.16553246206E+03  0.12502249192E+03 0.  0.
    9000005    1    3    3    0    0  0.17476465902E+02 -0.10037140271E+01  0.25198058329E+02  0.30698150528E+02  0.10000000000E+01 0.  0.
    9000005    1    3    3    0    0 -0.17476465902E+02  0.10037140271E+01 -0.13368940595E+03  0.13483431153E+03  0.10000000000E+01 0.  0.
<mgrwt>
<rscale>  0 0.12502249E+03</rscale>
<asrwt>0</asrwt>
<pdfrwt beam="2">  1        4 0.34252974E-01 0.12502249E+03</pdfrwt>
<pdfrwt beam="1">  1       -4 0.71301397E-02 0.12502249E+03</pdfrwt>
<totfact> 0.17791159E+03</totfact>
</mgrwt>
</event>
<event>
 5    1  0.1446384E-002  0.1249984E+03  0.7818608E-02  0.1235072E+00
         -4   -1    0    0    0  501 -0.00000000000E+00  0.00000000000E+00  0.73328410318E+03  0.73328520295E+03  0.12700000000E+01 0.  1.
          4   -1    0    0  501    0  0.00000000000E+00 -0.00000000000E+00 -0.52501121703E+01  0.54015347634E+01  0.12700000000E+01 0.  1.
         25    2    1    2    0    0  0.00000000000E+00  0.00000000000E+00  0.72803399101E+03  0.73868673772E+03  0.12499841767E+03 0.  0.
    9000005    1    3    3    0    0 -0.52048483836E+02 -0.34091529328E+02  0.32962246119E+03  0.33544484489E+03  0.10000000000E+01 0.  0.
    9000005    1    3    3    0    0  0.52048483836E+02  0.34091529328E+02  0.39841152981E+03  0.40324189282E+03  0.10000000000E+01 0.  0.
<mgrwt>
<rscale>  0 0.12499842E+03</rscale>
<asrwt>0</asrwt>
<pdfrwt beam="2">  1        4 0.13315932E-02 0.12499842E+03</pdfrwt>
<pdfrwt beam="1">  1       -4 0.18334011E+00 0.12499842E+03</pdfrwt>
<totfact> 0.58163714E+02</totfact>
</mgrwt>
</event>
<event>
 5    1  0.1446384E-002  0.1249934E+03  0.7818608E-02  0.1235080E+00
         -4   -1    0    0    0  501 -0.00000000000E+00  0.00000000000E+00  0.55816526966E+02  0.55830973326E+02  0.12700000000E+01 0. -1.
          4   -1    0    0  501    0  0.00000000000E+00 -0.00000000000E+00 -0.69947110640E+02  0.69958639116E+02  0.12700000000E+01 0. -1.
         25    2    1    2    0    0  0.00000000000E+00  0.00000000000E+00 -0.14130583674E+02  0.12578961244E+03  0.12499341264E+03 0.  0.
    9000005    1    3    3    0    0  0.73479184795E+01 -0.61535762089E+02  0.99801004541E+00  0.61989014719E+02  0.10000000000E+01 0.  0.
    9000005    1    3    3    0    0 -0.73479184795E+01  0.61535762089E+02 -0.15128593720E+02  0.63800597723E+02  0.10000000000E+01 0.  0.
<mgrwt>
<rscale>  0 0.12499341E+03</rscale>
<asrwt>0</asrwt>
<pdfrwt beam="2">  1        4 0.17490024E-01 0.12499341E+03</pdfrwt>
<pdfrwt beam="1">  1       -4 0.13957379E-01 0.12499341E+03</pdfrwt>
<totfact> 0.19795344E+03</totfact>
</mgrwt>
</event>
<event>
 5    1  0.1446384E-002  0.1250601E+03  0.7818608E-02  0.1234975E+00
         -4   -1    0    0    0  501 -0.00000000000E+00  0.00000000000E+00  0.13579827320E+03  0.13580421166E+03  0.12700000000E+01 0.  1.
          4   -1    0    0  501    0  0.00000000000E+00 -0.00000000000E+00 -0.28772182065E+02  0.28800197236E+02  0.12700000000E+01 0.  1.
         25    2    1    2    0    0  0.00000000000E+00  0.00000000000E+00  0.10702609114E+03  0.16460440890E+03  0.12506009453E+03 0.  0.
    9000005    1    3    3    0    0  0.32513949337E+02 -0.16230437471E+02 -0.13450789794E+02  0.38762194831E+02  0.10000000000E+01 0.  0.
    9000005    1    3    3    0    0 -0.32513949337E+02  0.16230437471E+02  0.12047688093E+03  0.12584221407E+03  0.10000000000E+01 0.  0.
<mgrwt>
<rscale>  0 0.12506009E+03</rscale>
<asrwt>0</asrwt>
<pdfrwt beam="2">  1        4 0.71972898E-02 0.12506009E+03</pdfrwt>
<pdfrwt beam="1">  1       -4 0.33953812E-01 0.12506009E+03</pdfrwt>
<totfact> 0.17818308E+03</totfact>
</mgrwt>
</event>
<event>
 5    1  0.1446384E-002  0.1250034E+03  0.7818608E-02  0.1235064E+00
          4   -1    0    0  501    0  0.00000000000E+00  0.00000000000E+00  0.29311953055E+03  0.29312228180E+03  0.12700000000E+01 0.  1.
         -4   -1    0    0    0  501 -0.00000000000E+00 -0.00000000000E+00 -0.13294118926E+02  0.13354643313E+02  0.12700000000E+01 0.  1.
         25    2    1    2    0    0  0.00000000000E+00  0.00000000000E+00  0.27982541162E+03  0.30647692511E+03  0.12500337851E+03 0.  0.
    9000005    1    3    3    0    0  0.45634745420E+02 -0.64510427738E+01  0.36435088580E+02  0.58759353487E+02  0.10000000000E+01 0.  0.
    9000005    1    3    3    0    0 -0.45634745420E+02  0.64510427738E+01  0.24339032304E+03  0.24771757163E+03  0.10000000000E+01 0.  0.
<mgrwt>
<rscale>  0 0.12500338E+03</rscale>
<asrwt>0</asrwt>
<pdfrwt beam="1">  1        4 0.73287795E-01 0.12500338E+03</pdfrwt>
<pdfrwt beam="2">  1       -4 0.33314391E-02 0.12500338E+03</pdfrwt>
<totfact> 0.12790460E+03</totfact>
</mgrwt>
</event>
<event>
 5    1  0.1446384E-002  0.1250129E+03  0.7818608E-02  0.1235049E+00
         -4   -1    0    0    0  501 -0.00000000000E+00  0.00000000000E+00  0.87923879596E+01  0.88836358566E+01  0.12700000000E+01 0. -1.
          4   -1    0    0  501    0  0.00000000000E+00 -0.00000000000E+00 -0.44198193150E+03  0.44198375612E+03  0.12700000000E+01 0. -1.
         25    2    1    2    0    0  0.00000000000E+00  0.00000000000E+00 -0.43318954354E+03  0.45086739198E+03  0.12501289739E+03 0.  0.
    9000005    1    3    3    0    0  0.41519626676E+02  0.13401480626E+02 -0.37798923178E+03  0.38050011620E+03  0.10000000000E+01 0.  0.
    9000005    1    3    3    0    0 -0.41519626676E+02 -0.13401480626E+02 -0.55200311760E+02  0.70367275780E+02  0.10000000000E+01 0.  0.
<mgrwt>
<rscale>  0 0.12501290E+03</rscale>
<asrwt>0</asrwt>
<pdfrwt beam="2">  1        4 0.11050704E+00 0.12501290E+03</pdfrwt>
<pdfrwt beam="1">  1       -4 0.22097325E-02 0.12501290E+03</pdfrwt>
<totfact> 0.95833393E+02</totfact>
</mgrwt>
</event>
<event>
 5    1  0.1446384E-002  0.1250372E+03  0.7818608E-02  0.1235011E+00
          4   -1    0    0  501    0  0.00000000000E+00  0.00000000000E+00  0.27551653912E+02  0.27580908855E+02  0.12700000000E+01 0.  1.
         -4   -1    0    0    0  501 -0.00000000000E+00 -0.00000000000E+00 -0.14175617587E+03  0.14176186475E+03  0.12700000000E+01 0.  1.
         25    2    1    2    0    0  0.00000000000E+00  0.00000000000E+00 -0.11420452196E+03  0.16934277360E+03  0.12503720301E+03 0.  0.
    9000005    1    3    3    0    0  0.27339725659E+02  0.54335538506E+02 -0.76623742146E+02  0.97836645509E+02  0.10000000000E+01 0.  0.
    9000005    1    3    3    0    0 -0.27339725659E+02 -0.54335538506E+02 -0.37580779810E+02  0.71506128094E+02  0.10000000000E+01 0.  0.
<mgrwt>
<rscale>  0 0.12503720E+03</rscale>
<asrwt>0</asrwt>
<pdfrwt beam="1">  1        4 0.68922818E-02 0.12503720E+03</pdfrwt>
<pdfrwt beam="2">  1       -4 0.35443410E-01 0.12503720E+03</pdfrwt>
<totfact> 0.17611517E+03</totfact>
</mgrwt>
</event>
<event>
 5    1  0.1446384E-002  0.1250037E+03  0.7818608E-02  0.1235063E+00
          4   -1    0    0  501    0  0.00000000000E+00  0.00000000000E+00  0.21732255820E+03  0.21732626901E+03  0.12700000000E+01 0.  1.
         -4   -1    0    0    0  501 -0.00000000000E+00 -0.00000000000E+00 -0.17949208935E+02  0.17994082399E+02  0.12700000000E+01 0.  1.
         25    2    1    2    0    0  0.00000000000E+00  0.00000000000E+00  0.19937334926E+03  0.23532035141E+03  0.12500374151E+03 0.  0.
    9000005    1    3    3    0    0 -0.26483254565E+02 -0.51940714499E+02  0.57328888143E+02  0.81772868427E+02  0.10000000000E+01 0.  0.
    9000005    1    3    3    0    0  0.26483254565E+02  0.51940714499E+02  0.14204446112E+03  0.15354748298E+03  0.10000000000E+01 0.  0.
<mgrwt>
<rscale>  0 0.12500374E+03</rscale>
<asrwt>0</asrwt>
<pdfrwt beam="1">  1        4 0.54336712E-01 0.12500374E+03</pdfrwt>
<pdfrwt beam="2">  1       -4 0.44933753E-02 0.12500374E+03</pdfrwt>
<totfact> 0.14997756E+03</totfact>
</mgrwt>
</event>
<event>
 5    1  0.1446384E-002  0.1250152E+03  0.7818608E-02  0.1235046E+00
         -4   -1    0    0    0  501 -0.00000000000E+00  0.00000000000E+00  0.26745179154E+01  0.29607340441E+01  0.12700000000E+01 0.  1.
          4   -1    0    0  501    0  0.00000000000E+00 -0.00000000000E+00 -0.13864118607E+04  0.13864124423E+04  0.12700000000E+01 0.  1.
         25    2    1    2    0    0  0.00000000000E+00  0.00000000000E+00 -0.13837373427E+04  0.13893731764E+04  0.12501515729E+03 0.  0.
    9000005    1    3    3    0    0  0.46508382170E+02  0.35046370661E+02 -0.94405758082E+03  0.94585252212E+03  0.10000000000E+01 0.  0.
    9000005    1    3    3    0    0 -0.46508382170E+02 -0.35046370661E+02 -0.43967976193E+03  0.44352065426E+03  0.10000000000E+01 0.  0.
<mgrwt>
<rscale>  0 0.12501516E+03</rscale>
<asrwt>0</asrwt>
<pdfrwt beam="2">  1        4 0.34663647E+00 0.12501516E+03</pdfrwt>
<pdfrwt beam="1">  1       -4 0.70448396E-03 0.12501516E+03</pdfrwt>
<totfact> 0.16501905E+02</totfact>
</mgrwt>
</event>
<event>
 5    1  0.1446384E-002  0.1249988E+03  0.7818608E-02  0.1235071E+00
         -4   -1    0    0    0  501 -0.00000000000E+00  0.00000000000E+00  0.26610446659E+02  0.26640735189E+02  0.12700000000E+01 0. -1.
          4   -1    0    0  501    0  0.00000000000E+00 -0.00000000000E+00 -0.14667451562E+03  0.14668001374E+03  0.12700000000E+01 0. -1.
         25    2    1    2    0    0  0.00000000000E+00  0.00000000000E+00 -0.12006406896E+03  0.17332074893E+03  0.12499880542E+03 0.  0.
    9000005    1    3    3    0    0  0.19447780152E+02  0.58872320577E+02 -0.70862368395E+02  0.94162845844E+02  0.10000000000E+01 0.  0.
    9000005    1    3    3    0    0 -0.19447780152E+02 -0.58872320577E+02 -0.49201700563E+02  0.79157903088E+02  0.10000000000E+01 0.  0.
<mgrwt>
<rscale>  0 0.12499881E+03</rscale>
<asrwt>0</asrwt>
<pdfrwt beam="2">  1        4 0.36673100E-01 0.12499881E+03</pdfrwt>
<pdfrwt beam="1">  1       -4 0.66570854E-02 0.12499881E+03</pdfrwt>
<totfact> 0.17448783E+03</totfact>
</mgrwt>
</event>
<event>
 5    1  0.1446384E-002  0.1249995E+03  0.7818608E-02  0.1235070E+00
         -4   -1    0    0    0  501 -0.00000000000E+00  0.00000000000E+00  0.34341138344E+03  0.34341373178E+03  0.12700000000E+01 0. -1.
          4   -1    0    0  501    0  0.00000000000E+00 -0.00000000000E+00 -0.11336907883E+02  0.11407821017E+02  0.12700000000E+01 0. -1.
         25    2    1    2    0    0  0.00000000000E+00  0.00000000000E+00  0.33207447555E+03  0.35482155279E+03  0.12499950805E+03 0.  0.
    9000005    1    3    3    0    0 -0.91704052733E+01  0.61484110560E+02  0.14789980605E+03  0.16043610820E+03  0.10000000000E+01 0.  0.
    9000005    1    3    3    0    0  0.91704052733E+01 -0.61484110560E+02  0.18417466951E+03  0.19438544460E+03  0.10000000000E+01 0.  0.
<mgrwt>
<rscale>  0 0.12499951E+03</rscale>
<asrwt>0</asrwt>
<pdfrwt beam="2">  1        4 0.28433847E-02 0.12499951E+03</pdfrwt>
<pdfrwt beam="1">  1       -4 0.85862002E-01 0.12499951E+03</pdfrwt>
<totfact> 0.11563290E+03</totfact>
</mgrwt>
</event>
<event>
 5    1  0.1446384E-002  0.1249998E+03  0.7818608E-02  0.1235070E+00
         -4   -1    0    0    0  501 -0.00000000000E+00  0.00000000000E+00  0.28548895651E+03  0.28549178130E+03  0.12700000000E+01 0. -1.
          4   -1    0    0  501    0  0.00000000000E+00 -0.00000000000E+00 -0.13650242669E+02  0.13709194905E+02  0.12700000000E+01 0. -1.
         25    2    1    2    0    0  0.00000000000E+00  0.00000000000E+00  0.27183871384E+03  0.29920097620E+03  0.12499975127E+03 0.  0.
    9000005    1    3    3    0    0  0.36440910515E+02  0.38144066183E+02  0.55730666713E+02  0.76745142885E+02  0.10000000000E+01 0.  0.
    9000005    1    3    3    0    0 -0.36440910515E+02 -0.38144066183E+02  0.21610804713E+03  0.22245583332E+03  0.10000000000E+01 0.  0.
<mgrwt>
<rscale>  0 0.12499975E+03</rscale>
<asrwt>0</asrwt>
<pdfrwt beam="2">  1        4 0.34202830E-02 0.12499975E+03</pdfrwt>
<pdfrwt beam="1">  1       -4 0.71379957E-01 0.12499975E+03</pdfrwt>
<totfact> 0.12993554E+03</totfact>
</mgrwt>
</event>
<event>
 5    1  0.1446384E-002  0.1249994E+03  0.7818608E-02  0.1235070E+00
         -4   -1    0    0    0  501 -0.00000000000E+00  0.00000000000E+00  0.86521819164E+03  0.86521912372E+03  0.12700000000E+01 0. -1.
          4   -1    0    0  501    0  0.00000000000E+00 -0.00000000000E+00 -0.44244453465E+01  0.46031094517E+01  0.12700000000E+01 0. -1.
         25    2    1    2    0    0  0.00000000000E+00  0.00000000000E+00  0.86079374630E+03  0.86982223317E+03  0.12499937462E+03 0.  0.
    9000005    1    3    3    0    0 -0.20181272890E+02 -0.73880291103E+01  0.83872836980E+03  0.83900425806E+03  0.10000000000E+01 0.  0.
    9000005    1    3    3    0    0  0.20181272890E+02  0.73880291103E+01  0.22065376502E+02  0.30817975108E+02  0.10000000000E+01 0.  0.
<mgrwt>
<rscale>  0 0.12499937E+03</rscale>
<asrwt>0</asrwt>
<pdfrwt beam="2">  1        4 0.11285607E-02 0.12499937E+03</pdfrwt>
<pdfrwt beam="1">  1       -4 0.21632703E+00 0.12499937E+03</pdfrwt>
<totfact> 0.46628673E+02</totfact>
</mgrwt>
</event>
<event>
 5    1  0.1446384E-002  0.1250001E+03  0.7818608E-02  0.1235069E+00
          4   -1    0    0  501    0  0.00000000000E+00  0.00000000000E+00  0.13524756988E+02  0.13584253810E+02  0.12700000000E+01 0. -1.
         -4   -1    0    0    0  501 -0.00000000000E+00 -0.00000000000E+00 -0.28812771848E+03  0.28813051740E+03  0.12700000000E+01 0. -1.
         25    2    1    2    0    0  0.00000000000E+00  0.00000000000E+00 -0.27460296150E+03  0.30171477121E+03  0.12500006682E+03 0.  0.
    9000005    1    3    3    0    0  0.52184991312E+02 -0.26885701421E+02 -0.18902152089E+03  0.19792991087E+03  0.10000000000E+01 0.  0.
    9000005    1    3    3    0    0 -0.52184991312E+02  0.26885701421E+02 -0.85581440605E+02  0.10378486034E+03  0.10000000000E+01 0.  0.
<mgrwt>
<rscale>  0 0.12500007E+03</rscale>
<asrwt>0</asrwt>
<pdfrwt beam="1">  1        4 0.33889772E-02 0.12500007E+03</pdfrwt>
<pdfrwt beam="2">  1       -4 0.72039697E-01 0.12500007E+03</pdfrwt>
<totfact> 0.12923114E+03</totfact>
</mgrwt>
</event>
<event>
 5    1  0.1446384E-002  0.1249946E+03  0.7818608E-02  0.1235078E+00
          4   -1    0    0  501    0  0.00000000000E+00  0.00000000000E+00  0.13065222307E+02  0.13126802121E+02  0.12700000000E+01 0. -1.
         -4   -1    0    0    0  501 -0.00000000000E+00 -0.00000000000E+00 -0.29818933701E+03  0.29819204149E+03  0.12700000000E+01 0. -1.
         25    2    1    2    0    0  0.00000000000E+00  0.00000000000E+00 -0.28512411471E+03  0.31131884361E+03  0.12499464629E+03 0.  0.
    9000005    1    3    3    0    0  0.38966585235E+02  0.42025932905E+02 -0.80528105418E+02  0.98845078601E+02  0.10000000000E+01 0.  0.
    9000005    1    3    3    0    0 -0.38966585235E+02 -0.42025932905E+02 -0.20459600929E+03  0.21247376501E+03  0.10000000000E+01 0.  0.
<mgrwt>
<rscale>  0 0.12499465E+03</rscale>
<asrwt>0</asrwt>
<pdfrwt beam="1">  1        4 0.32743421E-02 0.12499465E+03</pdfrwt>
<pdfrwt beam="2">  1       -4 0.74555348E-01 0.12499465E+03</pdfrwt>
<totfact> 0.12661205E+03</totfact>
</mgrwt>
</event>
<event>
 5    1  0.1446384E-002  0.1250007E+03  0.7818608E-02  0.1235068E+00
          4   -1    0    0  501    0  0.00000000000E+00  0.00000000000E+00  0.19515209730E+03  0.19515622968E+03  0.12700000000E+01 0.  1.
         -4   -1    0    0    0  501 -0.00000000000E+00 -0.00000000000E+00 -0.19992171828E+02  0.20032469504E+02  0.12700000000E+01 0.  1.
         25    2    1    2    0    0  0.00000000000E+00  0.00000000000E+00  0.17515992547E+03  0.21518869918E+03  0.12500070705E+03 0.  0.
    9000005    1    3    3    0    0  0.26491156920E+02  0.41224079446E+02  0.15434415881E+03  0.16193926479E+03  0.10000000000E+01 0.  0.
    9000005    1    3    3    0    0 -0.26491156920E+02 -0.41224079446E+02  0.20815766660E+02  0.53249434389E+02  0.10000000000E+01 0.  0.
<mgrwt>
<rscale>  0 0.12500071E+03</rscale>
<asrwt>0</asrwt>
<pdfrwt beam="1">  1        4 0.48793578E-01 0.12500071E+03</pdfrwt>
<pdfrwt beam="2">  1       -4 0.50035967E-02 0.12500071E+03</pdfrwt>
<totfact> 0.15731145E+03</totfact>
</mgrwt>
</event>
<event>
 5    1  0.1446384E-002  0.1249988E+03  0.7818608E-02  0.1235071E+00
         -4   -1    0    0    0  501 -0.00000000000E+00  0.00000000000E+00  0.67734284149E+02  0.67746189185E+02  0.12700000000E+01 0.  1.
          4   -1    0    0  501    0  0.00000000000E+00 -0.00000000000E+00 -0.57645111643E+02  0.57659099857E+02  0.12700000000E+01 0.  1.
         25    2    1    2    0    0  0.00000000000E+00  0.00000000000E+00  0.10089172506E+02  0.12540528904E+03  0.12499878047E+03 0.  0.
    9000005    1    3    3    0    0 -0.16323414040E+02  0.39256476961E+02  0.50993630475E+02  0.66399361280E+02  0.10000000000E+01 0.  0.
    9000005    1    3    3    0    0  0.16323414040E+02 -0.39256476961E+02 -0.40904457970E+02  0.59005927763E+02  0.10000000000E+01 0.  0.
<mgrwt>
<rscale>  0 0.12499878E+03</rscale>
<asrwt>0</asrwt>
<pdfrwt beam="2">  1        4 0.14414515E-01 0.12499878E+03</pdfrwt>
<pdfrwt beam="1">  1       -4 0.16936808E-01 0.12499878E+03</pdfrwt>
<totfact> 0.19813657E+03</totfact>
</mgrwt>
</event>
<event>
 5    1  0.1446384E-002  0.1249864E+03  0.7818608E-02  0.1235091E+00
          4   -1    0    0  501    0  0.00000000000E+00  0.00000000000E+00  0.29687899269E+03  0.29688170910E+03  0.12700000000E+01 0. -1.
         -4   -1    0    0    0  501 -0.00000000000E+00 -0.00000000000E+00 -0.13121418118E+02  0.13182735431E+02  0.12700000000E+01 0. -1.
         25    2    1    2    0    0  0.00000000000E+00  0.00000000000E+00  0.28375757457E+03  0.31006444453E+03  0.12498639381E+03 0.  0.
    9000005    1    3    3    0    0 -0.45668303699E+02 -0.56296228806E+00  0.24766876900E+03  0.25184663989E+03  0.10000000000E+01 0.  0.
    9000005    1    3    3    0    0  0.45668303699E+02  0.56296228806E+00  0.36088805571E+02  0.58217804638E+02  0.10000000000E+01 0.  0.
<mgrwt>
<rscale>  0 0.12498639E+03</rscale>
<asrwt>0</asrwt>
<pdfrwt beam="1">  1        4 0.74227754E-01 0.12498639E+03</pdfrwt>
<pdfrwt beam="2">  1       -4 0.32883587E-02 0.12498639E+03</pdfrwt>
<totfact> 0.12697551E+03</totfact>
</mgrwt>
</event>
<event>
 5    1  0.1446384E-002  0.1249981E+03  0.7818608E-02  0.1235072E+00
          4   -1    0    0  501    0  0.00000000000E+00  0.00000000000E+00  0.97562417120E+02  0.97570682760E+02  0.12700000000E+01 0. -1.
         -4   -1    0    0    0  501 -0.00000000000E+00 -0.00000000000E+00 -0.40017213467E+02  0.40037360973E+02  0.12700000000E+01 0. -1.
         25    2    1    2    0    0  0.00000000000E+00  0.00000000000E+00  0.57545203653E+02  0.13760804373E+03  0.12499809293E+03 0.  0.
    9000005    1    3    3    0    0  0.56425492699E+02 -0.13636245407E+02  0.54244322304E+02  0.79455836270E+02  0.10000000000E+01 0.  0.
    9000005    1    3    3    0    0 -0.56425492699E+02  0.13636245407E+02  0.33008813484E+01  0.58152207463E+02  0.10000000000E+01 0.  0.
<mgrwt>
<rscale>  0 0.12499809E+03</rscale>
<asrwt>0</asrwt>
<pdfrwt beam="1">  1        4 0.24394156E-01 0.12499809E+03</pdfrwt>
<pdfrwt beam="2">  1       -4 0.10007855E-01 0.12499809E+03</pdfrwt>
<totfact> 0.19164240E+03</totfact>
</mgrwt>
</event>
<event>
 5    1  0.1446384E-002  0.1249988E+03  0.7818608E-02  0.1235071E+00
         -4   -1    0    0    0  501 -0.00000000000E+00  0.00000000000E+00  0.94046867165E+02  0.94055441754E+02  0.12700000000E+01 0. -1.
          4   -1    0    0  501    0  0.00000000000E+00 -0.00000000000E+00 -0.41514166876E+02  0.41533588232E+02  0.12700000000E+01 0. -1.
         25    2    1    2    0    0  0.00000000000E+00  0.00000000000E+00  0.52532700290E+02  0.13558902999E+03  0.12499880181E+03 0.  0.
    9000005    1    3    3    0    0 -0.75632187727E+01 -0.28891692184E+02  0.85810044795E+02  0.90864162040E+02  0.10000000000E+01 0.  0.
    9000005    1    3    3    0    0  0.75632187727E+01  0.28891692184E+02 -0.33277344505E+02  0.44724867946E+02  0.10000000000E+01 0.  0.
<mgrwt>
<rscale>  0 0.12499880E+03</rscale>
<asrwt>0</asrwt>
<pdfrwt beam="2">  1        4 0.10382041E-01 0.12499880E+03</pdfrwt>
<pdfrwt beam="1">  1       -4 0.23515216E-01 0.12499880E+03</pdfrwt>
<totfact> 0.19268867E+03</totfact>
</mgrwt>
</event>
<event>
 5    1  0.1446384E-002  0.1249980E+03  0.7818608E-02  0.1235072E+00
         -4   -1    0    0    0  501 -0.00000000000E+00  0.00000000000E+00  0.12109684338E+03  0.12110350274E+03  0.12700000000E+01 0.  1.
          4   -1    0    0  501    0  0.00000000000E+00 -0.00000000000E+00 -0.32236167154E+02  0.32261174386E+02  0.12700000000E+01 0.  1.
         25    2    1    2    0    0  0.00000000000E+00  0.00000000000E+00  0.88860676226E+02  0.15336467713E+03  0.12499801763E+03 0.  0.
    9000005    1    3    3    0    0 -0.18308011871E+01 -0.82841140900E+01  0.12039296897E+03  0.12069567248E+03  0.10000000000E+01 0.  0.
    9000005    1    3    3    0    0  0.18308011871E+01  0.82841140900E+01 -0.31532292740E+02  0.32669004648E+02  0.10000000000E+01 0.  0.
<mgrwt>
<rscale>  0 0.12499802E+03</rscale>
<asrwt>0</asrwt>
<pdfrwt beam="2">  1        4 0.80630002E-02 0.12499802E+03</pdfrwt>
<pdfrwt beam="1">  1       -4 0.30278169E-01 0.12499802E+03</pdfrwt>
<totfact> 0.18375415E+03</totfact>
</mgrwt>
</event>
<event>
 5    1  0.1446384E-002  0.1249991E+03  0.7818608E-02  0.1235071E+00
         -4   -1    0    0    0  501 -0.00000000000E+00  0.00000000000E+00  0.59536522162E+03  0.59536657616E+03  0.12700000000E+01 0.  1.
          4   -1    0    0  501    0  0.00000000000E+00 -0.00000000000E+00 -0.64981766253E+01  0.66211176891E+01  0.12700000000E+01 0.  1.
         25    2    1    2    0    0  0.00000000000E+00  0.00000000000E+00  0.58886704499E+03  0.60198769385E+03  0.12499914748E+03 0.  0.
    9000005    1    3    3    0    0  0.41084885938E+02 -0.47075094832E+02  0.28923697118E+03  0.29591055727E+03  0.10000000000E+01 0.  0.
    9000005    1    3    3    0    0 -0.41084885938E+02  0.47075094832E+02  0.29963007381E+03  0.30607713658E+03  0.10000000000E+01 0.  0.
<mgrwt>
<rscale>  0 0.12499915E+03</rscale>
<asrwt>0</asrwt>
<pdfrwt beam="2">  1        4 0.16400813E-02 0.12499915E+03</pdfrwt>
<pdfrwt beam="1">  1       -4 0.14885682E+00 0.12499915E+03</pdfrwt>
<totfact> 0.73254785E+02</totfact>
</mgrwt>
</event>
<event>
 5    1  0.1446384E-002  0.1250026E+03  0.7818608E-02  0.1235065E+00
          4   -1    0    0  501    0  0.00000000000E+00  0.00000000000E+00  0.10493820335E+03  0.10494588807E+03  0.12700000000E+01 0. -1.
         -4   -1    0    0    0  501 -0.00000000000E+00 -0.00000000000E+00 -0.37205976018E+02  0.37227644990E+02  0.12700000000E+01 0. -1.
         25    2    1    2    0    0  0.00000000000E+00  0.00000000000E+00  0.67732227329E+02  0.14217353306E+03  0.12500263550E+03 0.  0.
    9000005    1    3    3    0    0  0.39790177676E+02 -0.45306922588E+02  0.52535498764E+02  0.79980960886E+02  0.10000000000E+01 0.  0.
    9000005    1    3    3    0    0 -0.39790177676E+02  0.45306922588E+02  0.15196728565E+02  0.62192572169E+02  0.10000000000E+01 0.  0.
<mgrwt>
<rscale>  0 0.12500264E+03</rscale>
<asrwt>0</asrwt>
<pdfrwt beam="1">  1        4 0.26238220E-01 0.12500264E+03</pdfrwt>
<pdfrwt beam="2">  1       -4 0.93051633E-02 0.12500264E+03</pdfrwt>
<totfact> 0.18928531E+03</totfact>
</mgrwt>
</event>
<event>
 5    1  0.1446384E-002  0.1249975E+03  0.7818608E-02  0.1235073E+00
          4   -1    0    0  501    0  0.00000000000E+00  0.00000000000E+00  0.19502238560E+03  0.19502652073E+03  0.12700000000E+01 0.  1.
         -4   -1    0    0    0  501 -0.00000000000E+00 -0.00000000000E+00 -0.20004475239E+02  0.20044748180E+02  0.12700000000E+01 0.  1.
         25    2    1    2    0    0  0.00000000000E+00  0.00000000000E+00  0.17501791036E+03  0.21507126891E+03  0.12499752702E+03 0.  0.
    9000005    1    3    3    0    0  0.90361886171E+00 -0.42377860370E+02  0.16651440576E+03  0.17182766629E+03  0.10000000000E+01 0.  0.
    9000005    1    3    3    0    0 -0.90361886171E+00  0.42377860370E+02  0.85035046012E+01  0.43243602615E+02  0.10000000000E+01 0.  0.
<mgrwt>
<rscale>  0 0.12499753E+03</rscale>
<asrwt>0</asrwt>
<pdfrwt beam="1">  1        4 0.48761147E-01 0.12499753E+03</pdfrwt>
<pdfrwt beam="2">  1       -4 0.50066699E-02 0.12499753E+03</pdfrwt>
<totfact> 0.15736736E+03</totfact>
</mgrwt>
</event>
<event>
 5    1  0.1446384E-002  0.1250031E+03  0.7818608E-02  0.1235064E+00
         -4   -1    0    0    0  501 -0.00000000000E+00  0.00000000000E+00  0.12833555251E+02  0.12896241328E+02  0.12700000000E+01 0.  1.
          4   -1    0    0  501    0  0.00000000000E+00 -0.00000000000E+00 -0.30358734894E+03  0.30359000533E+03  0.12700000000E+01 0.  1.
         25    2    1    2    0    0  0.00000000000E+00  0.00000000000E+00 -0.29075379369E+03  0.31648624666E+03  0.12500310308E+03 0.  0.
    9000005    1    3    3    0    0 -0.61510683675E+02  0.94483267344E+01 -0.13091910860E+03  0.14496085016E+03  0.10000000000E+01 0.  0.
    9000005    1    3    3    0    0  0.61510683675E+02 -0.94483267344E+01 -0.15983468509E+03  0.17152539650E+03  0.10000000000E+01 0.  0.
<mgrwt>
<rscale>  0 0.12500310E+03</rscale>
<asrwt>0</asrwt>
<pdfrwt beam="2">  1        4 0.75904982E-01 0.12500310E+03</pdfrwt>
<pdfrwt beam="1">  1       -4 0.32165576E-02 0.12500310E+03</pdfrwt>
<totfact> 0.12520374E+03</totfact>
</mgrwt>
</event>
<event>
 5    1  0.1446384E-002  0.1249954E+03  0.7818608E-02  0.1235076E+00
          4   -1    0    0  501    0  0.00000000000E+00  0.00000000000E+00  0.14106510213E+03  0.14107081888E+03  0.12700000000E+01 0. -1.
         -4   -1    0    0    0  501 -0.00000000000E+00 -0.00000000000E+00 -0.27668251877E+02  0.27697383666E+02  0.12700000000E+01 0. -1.
         25    2    1    2    0    0  0.00000000000E+00  0.00000000000E+00  0.11339685025E+03  0.16876820254E+03  0.12499544209E+03 0.  0.
    9000005    1    3    3    0    0 -0.44097938066E+02 -0.43806001679E+02  0.65382940016E+02  0.90219303754E+02  0.10000000000E+01 0.  0.
    9000005    1    3    3    0    0  0.44097938066E+02  0.43806001679E+02  0.48013910234E+02  0.78548898787E+02  0.10000000000E+01 0.  0.
<mgrwt>
<rscale>  0 0.12499544E+03</rscale>
<asrwt>0</asrwt>
<pdfrwt beam="1">  1        4 0.35270631E-01 0.12499544E+03</pdfrwt>
<pdfrwt beam="2">  1       -4 0.69214191E-02 0.12499544E+03</pdfrwt>
<totfact> 0.17654618E+03</totfact>
</mgrwt>
</event>
<event>
 5    1  0.1446384E-002  0.1250054E+03  0.7818608E-02  0.1235061E+00
          4   -1    0    0  501    0  0.00000000000E+00  0.00000000000E+00  0.27546697377E+03  0.27546990133E+03  0.12700000000E+01 0. -1.
         -4   -1    0    0    0  501 -0.00000000000E+00 -0.00000000000E+00 -0.14150248665E+02  0.14207126285E+02  0.12700000000E+01 0. -1.
         25    2    1    2    0    0  0.00000000000E+00  0.00000000000E+00  0.26131672511E+03  0.28967702762E+03  0.12500539791E+03 0.  0.
    9000005    1    3    3    0    0  0.25227015013E+02  0.56439541375E+02  0.15186696611E+03  0.16397072761E+03  0.10000000000E+01 0.  0.
    9000005    1    3    3    0    0 -0.25227015013E+02 -0.56439541375E+02  0.10944975900E+03  0.12570630001E+03  0.10000000000E+01 0.  0.
<mgrwt>
<rscale>  0 0.12500540E+03</rscale>
<asrwt>0</asrwt>
<pdfrwt beam="1">  1        4 0.68874217E-01 0.12500540E+03</pdfrwt>
<pdfrwt beam="2">  1       -4 0.35450379E-02 0.12500540E+03</pdfrwt>
<totfact> 0.13263748E+03</totfact>
</mgrwt>
</event>
<event>
 5    1  0.1446384E-002  0.1249952E+03  0.7818608E-02  0.1235077E+00
         -4   -1    0    0    0  501 -0.00000000000E+00  0.00000000000E+00  0.11421204703E+02  0.11491597664E+02  0.12700000000E+01 0.  1.
          4   -1    0    0  501    0  0.00000000000E+00 -0.00000000000E+00 -0.34086881653E+03  0.34087118239E+03  0.12700000000E+01 0.  1.
         25    2    1    2    0    0  0.00000000000E+00  0.00000000000E+00 -0.32944761183E+03  0.35236278006E+03  0.12499519922E+03 0.  0.
    9000005    1    3    3    0    0  0.27972331155E+02 -0.50763652094E+02 -0.98880127777E+02  0.11461971625E+03  0.10000000000E+01 0.  0.
    9000005    1    3    3    0    0 -0.27972331155E+02  0.50763652094E+02 -0.23056748406E+03  0.23774306381E+03  0.10000000000E+01 0.  0.
<mgrwt>
<rscale>  0 0.12499520E+03</rscale>
<asrwt>0</asrwt>
<pdfrwt beam="2">  1        4 0.85226265E-01 0.12499520E+03</pdfrwt>
<pdfrwt beam="1">  1       -4 0.28643972E-02 0.12499520E+03</pdfrwt>
<totfact> 0.11622444E+03</totfact>
</mgrwt>
</event>
<event>
 5    1  0.1446384E-002  0.1249848E+03  0.7818608E-02  0.1235093E+00
          4   -1    0    0  501    0  0.00000000000E+00  0.00000000000E+00  0.15671262883E+03  0.15671777479E+03  0.12700000000E+01 0. -1.
         -4   -1    0    0    0  501 -0.00000000000E+00 -0.00000000000E+00 -0.24898403881E+02  0.24930772467E+02  0.12700000000E+01 0. -1.
         25    2    1    2    0    0  0.00000000000E+00  0.00000000000E+00  0.13181422495E+03  0.18164854725E+03  0.12498481836E+03 0.  0.
    9000005    1    3    3    0    0  0.55300339035E+02  0.24959952427E+02  0.87618967675E+02  0.10657959570E+03  0.10000000000E+01 0.  0.
    9000005    1    3    3    0    0 -0.55300339035E+02 -0.24959952427E+02  0.44195257273E+02  0.75068951557E+02  0.10000000000E+01 0.  0.
<mgrwt>
<rscale>  0 0.12498482E+03</rscale>
<asrwt>0</asrwt>
<pdfrwt beam="1">  1        4 0.39182846E-01 0.12498482E+03</pdfrwt>
<pdfrwt beam="2">  1       -4 0.62292904E-02 0.12498482E+03</pdfrwt>
<totfact> 0.17090109E+03</totfact>
</mgrwt>
</event>
<event>
 5    1  0.1446384E-002  0.1249996E+03  0.7818608E-02  0.1235070E+00
         -4   -1    0    0    0  501 -0.00000000000E+00  0.00000000000E+00  0.83364682039E+02  0.83374355239E+02  0.12700000000E+01 0.  1.
          4   -1    0    0  501    0  0.00000000000E+00 -0.00000000000E+00 -0.46836066744E+02  0.46853282148E+02  0.12700000000E+01 0.  1.
         25    2    1    2    0    0  0.00000000000E+00  0.00000000000E+00  0.36528615295E+02  0.13022763739E+03  0.12499959122E+03 0.  0.
    9000005    1    3    3    0    0 -0.53006786927E+02  0.26282148732E+02  0.39224243785E+02  0.70993042637E+02  0.10000000000E+01 0.  0.
    9000005    1    3    3    0    0  0.53006786927E+02 -0.26282148732E+02 -0.26956284901E+01  0.59234594751E+02  0.10000000000E+01 0.  0.
<mgrwt>
<rscale>  0 0.12499959E+03</rscale>
<asrwt>0</asrwt>
<pdfrwt beam="2">  1        4 0.11712378E-01 0.12499959E+03</pdfrwt>
<pdfrwt beam="1">  1       -4 0.20844531E-01 0.12499959E+03</pdfrwt>
<totfact> 0.19552339E+03</totfact>
</mgrwt>
</event>
<event>
 5    1  0.1446384E-002  0.1250010E+03  0.7818608E-02  0.1235068E+00
          4   -1    0    0  501    0  0.00000000000E+00  0.00000000000E+00  0.11474743524E+03  0.11475446307E+03  0.12700000000E+01 0. -1.
         -4   -1    0    0    0  501 -0.00000000000E+00 -0.00000000000E+00 -0.34022790530E+02  0.34046485508E+02  0.12700000000E+01 0. -1.
         25    2    1    2    0    0  0.00000000000E+00  0.00000000000E+00  0.80724644709E+02  0.14880094858E+03  0.12500101613E+03 0.  0.
    9000005    1    3    3    0    0  0.29116489383E+02  0.12662384805E+02 -0.23711696054E+02  0.39640263277E+02  0.10000000000E+01 0.  0.
    9000005    1    3    3    0    0 -0.29116489383E+02 -0.12662384805E+02  0.10443634076E+03  0.10916068530E+03  0.10000000000E+01 0.  0.
<mgrwt>
<rscale>  0 0.12500102E+03</rscale>
<asrwt>0</asrwt>
<pdfrwt beam="1">  1        4 0.28690699E-01 0.12500102E+03</pdfrwt>
<pdfrwt beam="2">  1       -4 0.85095381E-02 0.12500102E+03</pdfrwt>
<totfact> 0.18597456E+03</totfact>
</mgrwt>
</event>
<event>
 5    1  0.1446384E-002  0.1250209E+03  0.7818608E-02  0.1235037E+00
          4   -1    0    0  501    0  0.00000000000E+00  0.00000000000E+00  0.17980149913E+03  0.17980598430E+03  0.12700000000E+01 0.  1.
         -4   -1    0    0    0  501 -0.00000000000E+00 -0.00000000000E+00 -0.21709300589E+02  0.21746416534E+02  0.12700000000E+01 0.  1.
         25    2    1    2    0    0  0.00000000000E+00  0.00000000000E+00  0.15809219855E+03  0.20155240084E+03  0.12502090642E+03 0.  0.
    9000005    1    3    3    0    0 -0.55358362544E+02  0.26331273976E+02  0.98703251804E+02  0.11619473400E+03  0.10000000000E+01 0.  0.
    9000005    1    3    3    0    0  0.55358362544E+02 -0.26331273976E+02  0.59388946741E+02  0.85357666836E+02  0.10000000000E+01 0.  0.
<mgrwt>
<rscale>  0 0.12502091E+03</rscale>
<asrwt>0</asrwt>
<pdfrwt beam="1">  1        4 0.44955574E-01 0.12502091E+03</pdfrwt>
<pdfrwt beam="2">  1       -4 0.54325254E-02 0.12502091E+03</pdfrwt>
<totfact> 0.16252212E+03</totfact>
</mgrwt>
</event>
<event>
 5    1  0.1446384E-002  0.1250010E+03  0.7818608E-02  0.1235068E+00
          4   -1    0    0  501    0  0.00000000000E+00  0.00000000000E+00  0.13764558341E+03  0.13765144217E+03  0.12700000000E+01 0.  1.
         -4   -1    0    0    0  501 -0.00000000000E+00 -0.00000000000E+00 -0.28358813371E+02  0.28387236495E+02  0.12700000000E+01 0.  1.
         25    2    1    2    0    0  0.00000000000E+00  0.00000000000E+00  0.10928677004E+03  0.16603867867E+03  0.12500097883E+03 0.  0.
    9000005    1    3    3    0    0  0.17966511548E+02 -0.22557304949E+01  0.13409107322E+03  0.13531186117E+03  0.10000000000E+01 0.  0.
    9000005    1    3    3    0    0 -0.17966511548E+02  0.22557304949E+01 -0.24804303179E+02  0.30726817496E+02  0.10000000000E+01 0.  0.
<mgrwt>
<rscale>  0 0.12500098E+03</rscale>
<asrwt>0</asrwt>
<pdfrwt beam="1">  1        4 0.34415681E-01 0.12500098E+03</pdfrwt>
<pdfrwt beam="2">  1       -4 0.70939887E-02 0.12500098E+03</pdfrwt>
<totfact> 0.17776809E+03</totfact>
</mgrwt>
</event>
<event>
 5    1  0.1446384E-002  0.1250022E+03  0.7818608E-02  0.1235066E+00
         -4   -1    0    0    0  501 -0.00000000000E+00  0.00000000000E+00  0.27417189199E+02  0.27446587467E+02  0.12700000000E+01 0. -1.
          4   -1    0    0  501    0  0.00000000000E+00 -0.00000000000E+00 -0.14237092321E+03  0.14237658752E+03  0.12700000000E+01 0. -1.
         25    2    1    2    0    0  0.00000000000E+00  0.00000000000E+00 -0.11495373401E+03  0.16982317499E+03  0.12500219919E+03 0.  0.
    9000005    1    3    3    0    0  0.47403277719E+02 -0.37083478301E+02 -0.80336752382E+02  0.10038550137E+03  0.10000000000E+01 0.  0.
    9000005    1    3    3    0    0 -0.47403277719E+02  0.37083478301E+02 -0.34616981627E+02  0.69437673625E+02  0.10000000000E+01 0.  0.
<mgrwt>
<rscale>  0 0.12500220E+03</rscale>
<asrwt>0</asrwt>
<pdfrwt beam="2">  1        4 0.35597112E-01 0.12500220E+03</pdfrwt>
<pdfrwt beam="1">  1       -4 0.68586805E-02 0.12500220E+03</pdfrwt>
<totfact> 0.17604127E+03</totfact>
</mgrwt>
</event>
<event>
 5    1  0.1446384E-002  0.1250014E+03  0.7818608E-02  0.1235067E+00
         -4   -1    0    0    0  501 -0.00000000000E+00  0.00000000000E+00  0.30489807154E+03  0.30490071652E+03  0.12700000000E+01 0.  1.
          4   -1    0    0  501    0  0.00000000000E+00 -0.00000000000E+00 -0.12777767222E+02  0.12840725648E+02  0.12700000000E+01 0.  1.
         25    2    1    2    0    0  0.00000000000E+00  0.00000000000E+00  0.29212030432E+03  0.31774144216E+03  0.12500140747E+03 0.  0.
    9000005    1    3    3    0    0  0.55353944958E+02  0.22979477049E+02  0.10107332629E+03  0.11751141594E+03  0.10000000000E+01 0.  0.
    9000005    1    3    3    0    0 -0.55353944958E+02 -0.22979477049E+02  0.19104697803E+03  0.20023002623E+03  0.10000000000E+01 0.  0.
<mgrwt>
<rscale>  0 0.12500141E+03</rscale>
<asrwt>0</asrwt>
<pdfrwt beam="2">  1        4 0.32026424E-02 0.12500141E+03</pdfrwt>
<pdfrwt beam="1">  1       -4 0.76232715E-01 0.12500141E+03</pdfrwt>
<totfact> 0.12487591E+03</totfact>
</mgrwt>
</event>
<event>
 5    1  0.1446384E-002  0.1249995E+03  0.7818608E-02  0.1235070E+00
         -4   -1    0    0    0  501 -0.00000000000E+00  0.00000000000E+00  0.11222497051E+02  0.11294128565E+02  0.12700000000E+01 0.  1.
          4   -1    0    0  501    0  0.00000000000E+00 -0.00000000000E+00 -0.34689035045E+03  0.34689267524E+03  0.12700000000E+01 0.  1.
         25    2    1    2    0    0  0.00000000000E+00  0.00000000000E+00 -0.33566785340E+03  0.35818680381E+03  0.12499951446E+03 0.  0.
    9000005    1    3    3    0    0  0.35007629869E+02 -0.10818842063E+02 -0.22774852904E+02  0.43154089232E+02  0.10000000000E+01 0.  0.
    9000005    1    3    3    0    0 -0.35007629869E+02  0.10818842063E+02 -0.31289300050E+03  0.31503271458E+03  0.10000000000E+01 0.  0.
<mgrwt>
<rscale>  0 0.12499951E+03</rscale>
<asrwt>0</asrwt>
<pdfrwt beam="2">  1        4 0.86731797E-01 0.12499951E+03</pdfrwt>
<pdfrwt beam="1">  1       -4 0.28148700E-02 0.12499951E+03</pdfrwt>
<totfact> 0.11484597E+03</totfact>
</mgrwt>
</event>
<event>
 5    1  0.1446384E-002  0.1249998E+03  0.7818608E-02  0.1235070E+00
         -4   -1    0    0    0  501 -0.00000000000E+00  0.00000000000E+00  0.29285557126E+01  0.31920743353E+01  0.12700000000E+01 0. -1.
          4   -1    0    0  501    0  0.00000000000E+00 -0.00000000000E+00 -0.12761529846E+04  0.12761536165E+04  0.12700000000E+01 0. -1.
         25    2    1    2    0    0  0.00000000000E+00  0.00000000000E+00 -0.12732244289E+04  0.12793456909E+04  0.12499980176E+03 0.  0.
    9000005    1    3    3    0    0 -0.30452681899E+02  0.54569448827E+02 -0.63439265683E+03  0.63746390770E+03  0.10000000000E+01 0.  0.
    9000005    1    3    3    0    0  0.30452681899E+02 -0.54569448827E+02 -0.63883177204E+03  0.64188178316E+03  0.10000000000E+01 0.  0.
<mgrwt>
<rscale>  0 0.12499980E+03</rscale>
<asrwt>0</asrwt>
<pdfrwt beam="2">  1        4 0.31906944E+00 0.12499980E+03</pdfrwt>
<pdfrwt beam="1">  1       -4 0.76516212E-03 0.12499980E+03</pdfrwt>
<totfact> 0.21271060E+02</totfact>
</mgrwt>
</event>
<event>
 5    1  0.1446384E-002  0.1250042E+03  0.7818608E-02  0.1235063E+00
          4   -1    0    0  501    0  0.00000000000E+00  0.00000000000E+00  0.26390603834E+02  0.26421144387E+02  0.12700000000E+01 0. -1.
         -4   -1    0    0    0  501 -0.00000000000E+00 -0.00000000000E+00 -0.14790787000E+03  0.14791332228E+03  0.12700000000E+01 0. -1.
         25    2    1    2    0    0  0.00000000000E+00  0.00000000000E+00 -0.12151726617E+03  0.17433446667E+03  0.12500424110E+03 0.  0.
    9000005    1    3    3    0    0 -0.16803970345E+02  0.31293077329E+02  0.10951377599E+02  0.37182829094E+02  0.10000000000E+01 0.  0.
    9000005    1    3    3    0    0  0.16803970345E+02 -0.31293077329E+02 -0.13246864377E+03  0.13715163758E+03  0.10000000000E+01 0.  0.
<mgrwt>
<rscale>  0 0.12500424E+03</rscale>
<asrwt>0</asrwt>
<pdfrwt beam="1">  1        4 0.66021505E-02 0.12500424E+03</pdfrwt>
<pdfrwt beam="2">  1       -4 0.36981464E-01 0.12500424E+03</pdfrwt>
<totfact> 0.17401586E+03</totfact>
</mgrwt>
</event>
<event>
 5    1  0.1446384E-002  0.1249987E+03  0.7818608E-02  0.1235071E+00
          4   -1    0    0  501    0  0.00000000000E+00  0.00000000000E+00  0.23968645176E+03  0.23968981634E+03  0.12700000000E+01 0.  1.
         -4   -1    0    0    0  501 -0.00000000000E+00 -0.00000000000E+00 -0.16268768306E+02  0.16318263455E+02  0.12700000000E+01 0.  1.
         25    2    1    2    0    0  0.00000000000E+00  0.00000000000E+00  0.22341768345E+03  0.25600807979E+03  0.12499870255E+03 0.  0.
    9000005    1    3    3    0    0 -0.17315925696E+02  0.19367278469E+02  0.22811214468E+03  0.22958894422E+03  0.10000000000E+01 0.  0.
    9000005    1    3    3    0    0  0.17315925696E+02 -0.19367278469E+02 -0.46944612300E+01  0.26419135570E+02  0.10000000000E+01 0.  0.
<mgrwt>
<rscale>  0 0.12499870E+03</rscale>
<asrwt>0</asrwt>
<pdfrwt beam="1">  1        4 0.59928220E-01 0.12499870E+03</pdfrwt>
<pdfrwt beam="2">  1       -4 0.40737996E-02 0.12499870E+03</pdfrwt>
<totfact> 0.14300666E+03</totfact>
</mgrwt>
</event>
<event>
 5    1  0.1446384E-002  0.1249977E+03  0.7818608E-02  0.1235073E+00
          4   -1    0    0  501    0  0.00000000000E+00  0.00000000000E+00  0.35503015186E+02  0.35525722896E+02  0.12700000000E+01 0.  1.
         -4   -1    0    0    0  501 -0.00000000000E+00 -0.00000000000E+00 -0.10996032074E+03  0.10996765451E+03  0.12700000000E+01 0.  1.
         25    2    1    2    0    0  0.00000000000E+00  0.00000000000E+00 -0.74457305555E+02  0.14549337740E+03  0.12499773005E+03 0.  0.
    9000005    1    3    3    0    0 -0.64553663808E+01  0.43641614884E+02  0.14287239541E+02  0.46383052061E+02  0.10000000000E+01 0.  0.
    9000005    1    3    3    0    0  0.64553663808E+01 -0.43641614884E+02 -0.88744545096E+02  0.99110325340E+02  0.10000000000E+01 0.  0.
<mgrwt>
<rscale>  0 0.12499773E+03</rscale>
<asrwt>0</asrwt>
<pdfrwt beam="1">  1        4 0.88795092E-02 0.12499773E+03</pdfrwt>
<pdfrwt beam="2">  1       -4 0.27493835E-01 0.12499773E+03</pdfrwt>
<totfact> 0.18763606E+03</totfact>
</mgrwt>
</event>
<event>
 5    1  0.1446384E-002  0.1249987E+03  0.7818608E-02  0.1235071E+00
         -4   -1    0    0    0  501 -0.00000000000E+00  0.00000000000E+00  0.25362266936E+01  0.28364318856E+01  0.12700000000E+01 0. -1.
          4   -1    0    0  501    0  0.00000000000E+00 -0.00000000000E+00 -0.14537904539E+04  0.14537910086E+04  0.12700000000E+01 0. -1.
         25    2    1    2    0    0  0.00000000000E+00  0.00000000000E+00 -0.14512542272E+04  0.14566274405E+04  0.12499867382E+03 0.  0.
    9000005    1    3    3    0    0 -0.16136814641E+02  0.60312333016E+02 -0.75688016871E+03  0.75945148896E+03  0.10000000000E+01 0.  0.
    9000005    1    3    3    0    0  0.16136814641E+02 -0.60312333016E+02 -0.69437405849E+03  0.69717595154E+03  0.10000000000E+01 0.  0.
<mgrwt>
<rscale>  0 0.12499867E+03</rscale>
<asrwt>0</asrwt>
<pdfrwt beam="2">  1        4 0.36348251E+00 0.12499867E+03</pdfrwt>
<pdfrwt beam="1">  1       -4 0.67165665E-03 0.12499867E+03</pdfrwt>
<totfact> 0.13977077E+02</totfact>
</mgrwt>
</event>
<event>
 5    1  0.1446384E-002  0.1249988E+03  0.7818608E-02  0.1235071E+00
          4   -1    0    0  501    0  0.00000000000E+00  0.00000000000E+00  0.10889353370E+02  0.10963161807E+02  0.12700000000E+01 0.  1.
         -4   -1    0    0    0  501 -0.00000000000E+00 -0.00000000000E+00 -0.35742858192E+03  0.35743083817E+03  0.12700000000E+01 0.  1.
         25    2    1    2    0    0  0.00000000000E+00  0.00000000000E+00 -0.34653922855E+03  0.36839399998E+03  0.12499880917E+03 0.  0.
    9000005    1    3    3    0    0 -0.33611933233E+02  0.52384718801E+02 -0.18974610486E+03  0.19969603183E+03  0.10000000000E+01 0.  0.
    9000005    1    3    3    0    0  0.33611933233E+02 -0.52384718801E+02 -0.15679312370E+03  0.16869796815E+03  0.10000000000E+01 0.  0.
<mgrwt>
<rscale>  0 0.12499881E+03</rscale>
<asrwt>0</asrwt>
<pdfrwt beam="1">  1        4 0.27318476E-02 0.12499881E+03</pdfrwt>
<pdfrwt beam="2">  1       -4 0.89366615E-01 0.12499881E+03</pdfrwt>
<totfact> 0.11250896E+03</totfact>
</mgrwt>
</event>
<event>
 5    1  0.1446384E-002  0.1249994E+03  0.7818608E-02  0.1235070E+00
         -4   -1    0    0    0  501 -0.00000000000E+00  0.00000000000E+00  0.19279294677E+02  0.19321079247E+02  0.12700000000E+01 0.  1.
          4   -1    0    0  501    0  0.00000000000E+00 -0.00000000000E+00 -0.20234868547E+03  0.20235267088E+03  0.12700000000E+01 0.  1.
         25    2    1    2    0    0  0.00000000000E+00  0.00000000000E+00 -0.18306939079E+03  0.22167375013E+03  0.12499939860E+03 0.  0.
    9000005    1    3    3    0    0  0.52027328520E+02 -0.15208537361E+02 -0.36385995846E+02  0.65292290627E+02  0.10000000000E+01 0.  0.
    9000005    1    3    3    0    0 -0.52027328520E+02  0.15208537361E+02 -0.14668339495E+03  0.15638145950E+03  0.10000000000E+01 0.  0.
<mgrwt>
<rscale>  0 0.12499940E+03</rscale>
<asrwt>0</asrwt>
<pdfrwt beam="2">  1        4 0.50592886E-01 0.12499940E+03</pdfrwt>
<pdfrwt beam="1">  1       -4 0.48255455E-02 0.12499940E+03</pdfrwt>
<totfact> 0.15489677E+03</totfact>
</mgrwt>
</event>
<event>
 5    1  0.1446384E-002  0.1249996E+03  0.7818608E-02  0.1235070E+00
          4   -1    0    0  501    0  0.00000000000E+00  0.00000000000E+00  0.11929022684E+03  0.11929698705E+03  0.12700000000E+01 0. -1.
         -4   -1    0    0    0  501 -0.00000000000E+00 -0.00000000000E+00 -0.32725568420E+02  0.32750201960E+02  0.12700000000E+01 0. -1.
         25    2    1    2    0    0  0.00000000000E+00  0.00000000000E+00  0.86564658419E+02  0.15204718901E+03  0.12499963039E+03 0.  0.
    9000005    1    3    3    0    0 -0.57734982910E+02  0.23883584494E+02  0.44758636967E+02  0.76864097230E+02  0.10000000000E+01 0.  0.
    9000005    1    3    3    0    0  0.57734982910E+02 -0.23883584494E+02  0.41806021452E+02  0.75183091780E+02  0.10000000000E+01 0.  0.
<mgrwt>
<rscale>  0 0.12499963E+03</rscale>
<asrwt>0</asrwt>
<pdfrwt beam="1">  1        4 0.29826481E-01 0.12499963E+03</pdfrwt>
<pdfrwt beam="2">  1       -4 0.81853164E-02 0.12499963E+03</pdfrwt>
<totfact> 0.18438735E+03</totfact>
</mgrwt>
</event>
<event>
 4    1  0.1446384E-002  0.1245298E+03  0.7818608E-02  0.1235806E+00
         -4   -1    0    0    0  501 -0.00000000000E+00  0.00000000000E+00  0.22906348969E+03  0.22906701030E+03  0.12700000000E+01 0. -1.
          4   -1    0    0  501    0  0.00000000000E+00 -0.00000000000E+00 -0.16897606049E+02  0.16945264536E+02  0.12700000000E+01 0. -1.
    9000005    1    1    2    0    0 -0.12268323206E+01 -0.28529756674E+02 -0.32062622158E+01  0.28752952037E+02  0.10000000000E+01 0.  0.
    9000005    1    1    2    0    0  0.12268323206E+01  0.28529756674E+02  0.21537214586E+03  0.21725932280E+03  0.10000000000E+01 0.  0.
<mgrwt>
<rscale>  0 0.12452982E+03</rscale>
<asrwt>0</asrwt>
<pdfrwt beam="2">  1        4 0.42307990E-02 0.12452982E+03</pdfrwt>
<pdfrwt beam="1">  1       -4 0.57272269E-01 0.12452982E+03</pdfrwt>
<totfact> 0.14791006E+03</totfact>
</mgrwt>
</event>
<event>
 5    1  0.1446384E-002  0.1250011E+03  0.7818608E-02  0.1235068E+00
         -4   -1    0    0    0  501 -0.00000000000E+00  0.00000000000E+00  0.25834388873E+02  0.25865586180E+02  0.12700000000E+01 0.  1.
          4   -1    0    0  501    0  0.00000000000E+00 -0.00000000000E+00 -0.15108106047E+03  0.15108639824E+03  0.12700000000E+01 0.  1.
         25    2    1    2    0    0  0.00000000000E+00  0.00000000000E+00 -0.12524667160E+03  0.17695198442E+03  0.12500110417E+03 0.  0.
    9000005    1    3    3    0    0  0.88419891511E+01 -0.60810253755E+02 -0.46529520624E+02  0.77084784642E+02  0.10000000000E+01 0.  0.
    9000005    1    3    3    0    0 -0.88419891511E+01  0.60810253755E+02 -0.78717150978E+02  0.99867199781E+02  0.10000000000E+01 0.  0.
<mgrwt>
<rscale>  0 0.12500110E+03</rscale>
<asrwt>0</asrwt>
<pdfrwt beam="2">  1        4 0.37774829E-01 0.12500110E+03</pdfrwt>
<pdfrwt beam="1">  1       -4 0.64631645E-02 0.12500110E+03</pdfrwt>
<totfact> 0.17287524E+03</totfact>
</mgrwt>
</event>
<event>
 5    1  0.1446384E-002  0.1249891E+03  0.7818608E-02  0.1235086E+00
         -4   -1    0    0    0  501 -0.00000000000E+00  0.00000000000E+00  0.74647135856E+02  0.74657938570E+02  0.12700000000E+01 0.  1.
          4   -1    0    0  501    0  0.00000000000E+00 -0.00000000000E+00 -0.52298105597E+02  0.52313523577E+02  0.12700000000E+01 0.  1.
         25    2    1    2    0    0  0.00000000000E+00  0.00000000000E+00  0.22349030259E+02  0.12697146215E+03  0.12498909171E+03 0.  0.
    9000005    1    3    3    0    0 -0.60922186862E+00 -0.43322516843E+02  0.56914823278E+02  0.71536764853E+02  0.10000000000E+01 0.  0.
    9000005    1    3    3    0    0  0.60922186862E+00  0.43322516843E+02 -0.34565793019E+02  0.55434697293E+02  0.10000000000E+01 0.  0.
<mgrwt>
<rscale>  0 0.12498909E+03</rscale>
<asrwt>0</asrwt>
<pdfrwt beam="2">  1        4 0.13077804E-01 0.12498909E+03</pdfrwt>
<pdfrwt beam="1">  1       -4 0.18665061E-01 0.12498909E+03</pdfrwt>
<totfact> 0.19733548E+03</totfact>
</mgrwt>
</event>
<event>
 5    1  0.1446384E-002  0.1249770E+03  0.7818608E-02  0.1235105E+00
         -4   -1    0    0    0  501 -0.00000000000E+00  0.00000000000E+00  0.68793559254E+02  0.68805281010E+02  0.12700000000E+01 0. -1.
          4   -1    0    0  501    0  0.00000000000E+00 -0.00000000000E+00 -0.56737672315E+02  0.56751884195E+02  0.12700000000E+01 0. -1.
         25    2    1    2    0    0  0.00000000000E+00  0.00000000000E+00  0.12055886939E+02  0.12555716520E+03  0.12497702719E+03 0.  0.
    9000005    1    3    3    0    0  0.51824122811E+02  0.25772010086E+02 -0.17615918609E+02  0.60508320068E+02  0.10000000000E+01 0.  0.
    9000005    1    3    3    0    0 -0.51824122811E+02 -0.25772010086E+02  0.29671805549E+02  0.65048845136E+02  0.10000000000E+01 0.  0.
<mgrwt>
<rscale>  0 0.12497703E+03</rscale>
<asrwt>0</asrwt>
<pdfrwt beam="2">  1        4 0.14187660E-01 0.12497703E+03</pdfrwt>
<pdfrwt beam="1">  1       -4 0.17201631E-01 0.12497703E+03</pdfrwt>
<totfact> 0.19815517E+03</totfact>
</mgrwt>
</event>
<event>
 5    1  0.1446384E-002  0.1250079E+03  0.7818608E-02  0.1235057E+00
          4   -1    0    0  501    0  0.00000000000E+00  0.00000000000E+00  0.89022603507E+02  0.89031661982E+02  0.12700000000E+01 0. -1.
         -4   -1    0    0    0  501 -0.00000000000E+00 -0.00000000000E+00 -0.43864367853E+02  0.43882749084E+02  0.12700000000E+01 0. -1.
         25    2    1    2    0    0  0.00000000000E+00  0.00000000000E+00  0.45158235654E+02  0.13291441107E+03  0.12500789744E+03 0.  0.
    9000005    1    3    3    0    0 -0.28233747156E+02  0.55659414948E+02  0.26045478642E+02  0.67634916341E+02  0.10000000000E+01 0.  0.
    9000005    1    3    3    0    0  0.28233747156E+02 -0.55659414948E+02  0.19112757012E+02  0.65279494724E+02  0.10000000000E+01 0.  0.
<mgrwt>
<rscale>  0 0.12500790E+03</rscale>
<asrwt>0</asrwt>
<pdfrwt beam="1">  1        4 0.22259081E-01 0.12500790E+03</pdfrwt>
<pdfrwt beam="2">  1       -4 0.10969522E-01 0.12500790E+03</pdfrwt>
<totfact> 0.19405367E+03</totfact>
</mgrwt>
</event>
<event>
 5    1  0.1446384E-002  0.1249990E+03  0.7818608E-02  0.1235071E+00
         -4   -1    0    0    0  501 -0.00000000000E+00  0.00000000000E+00  0.55805553712E+02  0.55820002912E+02  0.12700000000E+01 0. -1.
          4   -1    0    0  501    0  0.00000000000E+00 -0.00000000000E+00 -0.69967132574E+02  0.69978657751E+02  0.12700000000E+01 0. -1.
         25    2    1    2    0    0  0.00000000000E+00  0.00000000000E+00 -0.14161578862E+02  0.12579866066E+03  0.12499901083E+03 0.  0.
    9000005    1    3    3    0    0 -0.35582725811E+02 -0.18351090052E+02 -0.55369983147E+02  0.68335407484E+02  0.10000000000E+01 0.  0.
    9000005    1    3    3    0    0  0.35582725811E+02  0.18351090052E+02  0.41208404285E+02  0.57463253179E+02  0.10000000000E+01 0.  0.
<mgrwt>
<rscale>  0 0.12499901E+03</rscale>
<asrwt>0</asrwt>
<pdfrwt beam="2">  1        4 0.17495030E-01 0.12499901E+03</pdfrwt>
<pdfrwt beam="1">  1       -4 0.13954635E-01 0.12499901E+03</pdfrwt>
<totfact> 0.19792262E+03</totfact>
</mgrwt>
</event>
<event>
 5    1  0.1446384E-002  0.1250006E+03  0.7818608E-02  0.1235068E+00
         -4   -1    0    0    0  501 -0.00000000000E+00  0.00000000000E+00  0.17396476857E+01  0.21538974141E+01  0.12700000000E+01 0. -1.
          4   -1    0    0  501    0  0.00000000000E+00 -0.00000000000E+00 -0.20061295209E+04  0.20061299229E+04  0.12700000000E+01 0. -1.
         25    2    1    2    0    0  0.00000000000E+00  0.00000000000E+00 -0.20043898732E+04  0.20082838203E+04  0.12500055625E+03 0.  0.
    9000005    1    3    3    0    0  0.49735402090E+02  0.26452816439E+02 -0.56753876040E+03  0.57032850733E+03  0.10000000000E+01 0.  0.
    9000005    1    3    3    0    0 -0.49735402090E+02 -0.26452816439E+02 -0.14368511128E+04  0.14379553130E+04  0.10000000000E+01 0.  0.
<mgrwt>
<rscale>  0 0.12500056E+03</rscale>
<asrwt>0</asrwt>
<pdfrwt beam="2">  1        4 0.50157711E+00 0.12500056E+03</pdfrwt>
<pdfrwt beam="1">  1       -4 0.48675027E-03 0.12500056E+03</pdfrwt>
<totfact> 0.24791882E+01</totfact>
</mgrwt>
</event>
<event>
 5    1  0.1446384E-002  0.1250024E+03  0.7818608E-02  0.1235066E+00
          4   -1    0    0  501    0  0.00000000000E+00  0.00000000000E+00  0.59996516650E+02  0.60009956758E+02  0.12700000000E+01 0. -1.
         -4   -1    0    0    0  501 -0.00000000000E+00 -0.00000000000E+00 -0.65083528296E+02  0.65095918117E+02  0.12700000000E+01 0. -1.
         25    2    1    2    0    0  0.00000000000E+00  0.00000000000E+00 -0.50870116465E+01  0.12510587488E+03  0.12500240894E+03 0.  0.
    9000005    1    3    3    0    0  0.70453631780E+01  0.44106223451E+02 -0.46287857542E+02  0.64331655079E+02  0.10000000000E+01 0.  0.
    9000005    1    3    3    0    0 -0.70453631780E+01 -0.44106223451E+02  0.41200845895E+02  0.60774219796E+02  0.10000000000E+01 0.  0.
<mgrwt>
<rscale>  0 0.12500241E+03</rscale>
<asrwt>0</asrwt>
<pdfrwt beam="1">  1        4 0.15002358E-01 0.12500241E+03</pdfrwt>
<pdfrwt beam="2">  1       -4 0.16274111E-01 0.12500241E+03</pdfrwt>
<totfact> 0.19828197E+03</totfact>
</mgrwt>
</event>
<event>
 5    1  0.1446384E-002  0.1249993E+03  0.7818608E-02  0.1235070E+00
         -4   -1    0    0    0  501 -0.00000000000E+00  0.00000000000E+00  0.29384145939E+03  0.29384420388E+03  0.12700000000E+01 0.  1.
          4   -1    0    0  501    0  0.00000000000E+00 -0.00000000000E+00 -0.13260440778E+02  0.13321118182E+02  0.12700000000E+01 0.  1.
         25    2    1    2    0    0  0.00000000000E+00  0.00000000000E+00  0.28058101861E+03  0.30716532206E+03  0.12499930830E+03 0.  0.
    9000005    1    3    3    0    0 -0.15000648680E+02 -0.60471882814E+02  0.12841908370E+03  0.14273867427E+03  0.10000000000E+01 0.  0.
    9000005    1    3    3    0    0  0.15000648680E+02  0.60471882814E+02  0.15216193491E+03  0.16442664780E+03  0.10000000000E+01 0.  0.
<mgrwt>
<rscale>  0 0.12499931E+03</rscale>
<asrwt>0</asrwt>
<pdfrwt beam="2">  1        4 0.33230378E-02 0.12499931E+03</pdfrwt>
<pdfrwt beam="1">  1       -4 0.73468295E-01 0.12499931E+03</pdfrwt>
<totfact> 0.12772787E+03</totfact>
</mgrwt>
</event>
<event>
 5    1  0.1446384E-002  0.1249997E+03  0.7818608E-02  0.1235070E+00
         -4   -1    0    0    0  501 -0.00000000000E+00  0.00000000000E+00  0.10729862654E+04  0.10729870170E+04  0.12700000000E+01 0.  1.
          4   -1    0    0  501    0  0.00000000000E+00 -0.00000000000E+00 -0.35289877303E+01  0.37505538792E+01  0.12700000000E+01 0.  1.
         25    2    1    2    0    0  0.00000000000E+00  0.00000000000E+00  0.10694572776E+04  0.10767375708E+04  0.12499971107E+03 0.  0.
    9000005    1    3    3    0    0  0.37207252895E+01  0.49264823680E+02  0.20509951836E+03  0.21096843148E+03  0.10000000000E+01 0.  0.
    9000005    1    3    3    0    0 -0.37207252895E+01 -0.49264823680E+02  0.86435775928E+03  0.86576913936E+03  0.10000000000E+01 0.  0.
<mgrwt>
<rscale>  0 0.12499971E+03</rscale>
<asrwt>0</asrwt>
<pdfrwt beam="2">  1        4 0.91003628E-03 0.12499971E+03</pdfrwt>
<pdfrwt beam="1">  1       -4 0.26827447E+00 0.12499971E+03</pdfrwt>
<totfact> 0.32185959E+02</totfact>
</mgrwt>
</event>
<event>
 5    1  0.1446384E-002  0.1249990E+03  0.7818608E-02  0.1235071E+00
          4   -1    0    0  501    0  0.00000000000E+00  0.00000000000E+00  0.21454854432E+04  0.21454858191E+04  0.12700000000E+01 0.  1.
         -4   -1    0    0    0  501 -0.00000000000E+00 -0.00000000000E+00 -0.15987611203E+01  0.20417975218E+01  0.12700000000E+01 0.  1.
         25    2    1    2    0    0  0.00000000000E+00  0.00000000000E+00  0.21438866821E+04  0.21475276166E+04  0.12499903391E+03 0.  0.
    9000005    1    3    3    0    0 -0.44590781951E+02 -0.28495085304E+02  0.16430142407E+04  0.16438665100E+04  0.10000000000E+01 0.  0.
    9000005    1    3    3    0    0  0.44590781951E+02  0.28495085304E+02  0.50087244139E+03  0.50366110657E+03  0.10000000000E+01 0.  0.
<mgrwt>
<rscale>  0 0.12499903E+03</rscale>
<asrwt>0</asrwt>
<pdfrwt beam="1">  1        4 0.53642716E+00 0.12499903E+03</pdfrwt>
<pdfrwt beam="2">  1       -4 0.45511650E-03 0.12499903E+03</pdfrwt>
<totfact> 0.14460522E+01</totfact>
</mgrwt>
</event>
<event>
 5    1  0.1446384E-002  0.1249894E+03  0.7818608E-02  0.1235086E+00
          4   -1    0    0  501    0  0.00000000000E+00  0.00000000000E+00  0.27890041117E+03  0.27890330268E+03  0.12700000000E+01 0. -1.
         -4   -1    0    0    0  501 -0.00000000000E+00 -0.00000000000E+00 -0.13971760457E+02  0.14029361720E+02  0.12700000000E+01 0. -1.
         25    2    1    2    0    0  0.00000000000E+00  0.00000000000E+00  0.26492865071E+03  0.29293266440E+03  0.12498942319E+03 0.  0.
    9000005    1    3    3    0    0  0.33745950150E+02 -0.47227887126E+02  0.78238782234E+02  0.97424686396E+02  0.10000000000E+01 0.  0.
    9000005    1    3    3    0    0 -0.33745950150E+02  0.47227887126E+02  0.18668986847E+03  0.19550797801E+03  0.10000000000E+01 0.  0.
<mgrwt>
<rscale>  0 0.12498942E+03</rscale>
<asrwt>0</asrwt>
<pdfrwt beam="1">  1        4 0.69732666E-01 0.12498942E+03</pdfrwt>
<pdfrwt beam="2">  1       -4 0.35005016E-02 0.12498942E+03</pdfrwt>
<totfact> 0.13174662E+03</totfact>
</mgrwt>
</event>
<event>
 4    1  0.1446384E-002  0.1250645E+03  0.7818608E-02  0.1234969E+00
         -4   -1    0    0    0  501 -0.00000000000E+00  0.00000000000E+00  0.76183175839E+02  0.76193760774E+02  0.12700000000E+01 0. -1.
          4   -1    0    0  501    0  0.00000000000E+00 -0.00000000000E+00 -0.51305337265E+02  0.51321053495E+02  0.12700000000E+01 0. -1.
    9000005    1    1    2    0    0 -0.14517728771E+01  0.12985593186E+02 -0.49902706767E+02  0.51594703387E+02  0.10000000000E+01 0.  0.
    9000005    1    1    2    0    0  0.14517728771E+01 -0.12985593186E+02  0.74780545341E+02  0.75920110882E+02  0.10000000000E+01 0.  0.
<mgrwt>
<rscale>  0 0.12506447E+03</rscale>
<asrwt>0</asrwt>
<pdfrwt beam="2">  1        4 0.12829622E-01 0.12506447E+03</pdfrwt>
<pdfrwt beam="1">  1       -4 0.19049081E-01 0.12506447E+03</pdfrwt>
<totfact> 0.19669366E+03</totfact>
</mgrwt>
</event>
<event>
 5    1  0.1446384E-002  0.1249997E+03  0.7818608E-02  0.1235070E+00
         -4   -1    0    0    0  501 -0.00000000000E+00  0.00000000000E+00  0.27377435253E+02  0.27406876163E+02  0.12700000000E+01 0. -1.
          4   -1    0    0  501    0  0.00000000000E+00 -0.00000000000E+00 -0.14257164416E+03  0.14257730050E+03  0.12700000000E+01 0. -1.
         25    2    1    2    0    0  0.00000000000E+00  0.00000000000E+00 -0.11519420890E+03  0.16998417666E+03  0.12499965820E+03 0.  0.
    9000005    1    3    3    0    0 -0.19634913335E+02  0.49448642033E+02 -0.13020286086E+02  0.54783445221E+02  0.10000000000E+01 0.  0.
    9000005    1    3    3    0    0  0.19634913335E+02 -0.49448642033E+02 -0.10217392282E+03  0.11520073144E+03  0.10000000000E+01 0.  0.
<mgrwt>
<rscale>  0 0.12499966E+03</rscale>
<asrwt>0</asrwt>
<pdfrwt beam="2">  1        4 0.35647296E-01 0.12499966E+03</pdfrwt>
<pdfrwt beam="1">  1       -4 0.68487464E-02 0.12499966E+03</pdfrwt>
<totfact> 0.17597901E+03</totfact>
</mgrwt>
</event>
<event>
 5    1  0.1446384E-002  0.1249924E+03  0.7818608E-02  0.1235081E+00
          4   -1    0    0  501    0  0.00000000000E+00  0.00000000000E+00  0.14592693525E+02  0.14647853233E+02  0.12700000000E+01 0. -1.
         -4   -1    0    0    0  501 -0.00000000000E+00 -0.00000000000E+00 -0.26709108353E+03  0.26709410289E+03  0.12700000000E+01 0. -1.
         25    2    1    2    0    0  0.00000000000E+00  0.00000000000E+00 -0.25249839000E+03  0.28174195612E+03  0.12499237132E+03 0.  0.
    9000005    1    3    3    0    0 -0.10797470600E+02  0.16462876936E+02 -0.25992849892E+03  0.26067496282E+03  0.10000000000E+01 0.  0.
    9000005    1    3    3    0    0  0.10797470600E+02 -0.16462876936E+02  0.74301089210E+01  0.21066993306E+02  0.10000000000E+01 0.  0.
<mgrwt>
<rscale>  0 0.12499237E+03</rscale>
<asrwt>0</asrwt>
<pdfrwt beam="1">  1        4 0.36554466E-02 0.12499237E+03</pdfrwt>
<pdfrwt beam="2">  1       -4 0.66780027E-01 0.12499237E+03</pdfrwt>
<totfact> 0.13501018E+03</totfact>
</mgrwt>
</event>
<event>
 5    1  0.1446384E-002  0.1249988E+03  0.7818608E-02  0.1235071E+00
          4   -1    0    0  501    0  0.00000000000E+00  0.00000000000E+00  0.12508644879E+02  0.12572950995E+02  0.12700000000E+01 0.  1.
         -4   -1    0    0    0  501 -0.00000000000E+00 -0.00000000000E+00 -0.31141171816E+03  0.31141430780E+03  0.12700000000E+01 0.  1.
         25    2    1    2    0    0  0.00000000000E+00  0.00000000000E+00 -0.29890307328E+03  0.32398725880E+03  0.12499878659E+03 0.  0.
    9000005    1    3    3    0    0 -0.53049524159E+02  0.29853761621E+02 -0.11282599530E+03  0.12820376092E+03  0.10000000000E+01 0.  0.
    9000005    1    3    3    0    0  0.53049524159E+02 -0.29853761621E+02 -0.18607707797E+03  0.19578349788E+03  0.10000000000E+01 0.  0.
<mgrwt>
<rscale>  0 0.12499879E+03</rscale>
<asrwt>0</asrwt>
<pdfrwt beam="1">  1        4 0.31355242E-02 0.12499879E+03</pdfrwt>
<pdfrwt beam="2">  1       -4 0.77861266E-01 0.12499879E+03</pdfrwt>
<totfact> 0.12324779E+03</totfact>
</mgrwt>
</event>
<event>
 5    1  0.1446384E-002  0.1250485E+03  0.7818608E-02  0.1234994E+00
          4   -1    0    0  501    0  0.00000000000E+00  0.00000000000E+00  0.38290195876E+03  0.38290406490E+03  0.12700000000E+01 0. -1.
         -4   -1    0    0    0  501 -0.00000000000E+00 -0.00000000000E+00 -0.10167973481E+02  0.10246979297E+02  0.12700000000E+01 0. -1.
         25    2    1    2    0    0  0.00000000000E+00  0.00000000000E+00  0.37273398527E+03  0.39315104420E+03  0.12504846971E+03 0.  0.
    9000005    1    3    3    0    0  0.62184205231E+02 -0.43796833170E+01  0.20118813872E+03  0.21062697873E+03  0.10000000000E+01 0.  0.
    9000005    1    3    3    0    0 -0.62184205231E+02  0.43796833170E+01  0.17154584655E+03  0.18252406547E+03  0.10000000000E+01 0.  0.
<mgrwt>
<rscale>  0 0.12504847E+03</rscale>
<asrwt>0</asrwt>
<pdfrwt beam="1">  1        4 0.95735628E-01 0.12504847E+03</pdfrwt>
<pdfrwt beam="2">  1       -4 0.25521324E-02 0.12504847E+03</pdfrwt>
<totfact> 0.10699831E+03</totfact>
</mgrwt>
</event>
<event>
 5    1  0.1446384E-002  0.1250046E+03  0.7818608E-02  0.1235062E+00
          4   -1    0    0  501    0  0.00000000000E+00  0.00000000000E+00  0.34464312178E+03  0.34464546173E+03  0.12700000000E+01 0. -1.
         -4   -1    0    0    0  501 -0.00000000000E+00 -0.00000000000E+00 -0.11297068450E+02  0.11368230099E+02  0.12700000000E+01 0. -1.
         25    2    1    2    0    0  0.00000000000E+00  0.00000000000E+00  0.33334605333E+03  0.35601369183E+03  0.12500462991E+03 0.  0.
    9000005    1    3    3    0    0 -0.53095681802E+02  0.25255243011E+02  0.22699161761E+03  0.23448491037E+03  0.10000000000E+01 0.  0.
    9000005    1    3    3    0    0  0.53095681802E+02 -0.25255243011E+02  0.10635443572E+03  0.12152878146E+03  0.10000000000E+01 0.  0.
<mgrwt>
<rscale>  0 0.12500463E+03</rscale>
<asrwt>0</asrwt>
<pdfrwt beam="1">  1        4 0.86169965E-01 0.12500463E+03</pdfrwt>
<pdfrwt beam="2">  1       -4 0.28334549E-02 0.12500463E+03</pdfrwt>
<totfact> 0.11533973E+03</totfact>
</mgrwt>
</event>
<event>
 5    1  0.1446384E-002  0.1250002E+03  0.7818608E-02  0.1235069E+00
         -4   -1    0    0    0  501 -0.00000000000E+00  0.00000000000E+00  0.54638134114E+02  0.54652891959E+02  0.12700000000E+01 0. -1.
          4   -1    0    0  501    0  0.00000000000E+00 -0.00000000000E+00 -0.71463293127E+02  0.71474577050E+02  0.12700000000E+01 0. -1.
         25    2    1    2    0    0  0.00000000000E+00  0.00000000000E+00 -0.16825159013E+02  0.12612746901E+03  0.12500020985E+03 0.  0.
    9000005    1    3    3    0    0  0.15096945250E+02  0.13663173774E+02  0.51202057338E+02  0.55111257916E+02  0.10000000000E+01 0.  0.
    9000005    1    3    3    0    0 -0.15096945250E+02 -0.13663173774E+02 -0.68027216351E+02  0.71016211093E+02  0.10000000000E+01 0.  0.
<mgrwt>
<rscale>  0 0.12500021E+03</rscale>
<asrwt>0</asrwt>
<pdfrwt beam="2">  1        4 0.17869078E-01 0.12500021E+03</pdfrwt>
<pdfrwt beam="1">  1       -4 0.13662789E-01 0.12500021E+03</pdfrwt>
<totfact> 0.19773936E+03</totfact>
</mgrwt>
</event>
<event>
 5    1  0.1446384E-002  0.1249906E+03  0.7818608E-02  0.1235084E+00
         -4   -1    0    0    0  501 -0.00000000000E+00  0.00000000000E+00  0.18461223551E+03  0.18461660381E+03  0.12700000000E+01 0.  1.
          4   -1    0    0  501    0  0.00000000000E+00 -0.00000000000E+00 -0.21132348510E+02  0.21170475988E+02  0.12700000000E+01 0.  1.
         25    2    1    2    0    0  0.00000000000E+00  0.00000000000E+00  0.16347988700E+03  0.20578707979E+03  0.12499059467E+03 0.  0.
    9000005    1    3    3    0    0 -0.51266428563E+02  0.18250698887E+02  0.31172381757E+02  0.62722022384E+02  0.10000000000E+01 0.  0.
    9000005    1    3    3    0    0  0.51266428563E+02 -0.18250698887E+02  0.13230750525E+03  0.14306505741E+03  0.10000000000E+01 0.  0.
<mgrwt>
<rscale>  0 0.12499059E+03</rscale>
<asrwt>0</asrwt>
<pdfrwt beam="2">  1        4 0.52883992E-02 0.12499059E+03</pdfrwt>
<pdfrwt beam="1">  1       -4 0.46158370E-01 0.12499059E+03</pdfrwt>
<totfact> 0.16096409E+03</totfact>
</mgrwt>
</event>
<event>
 5    1  0.1446384E-002  0.1249968E+03  0.7818608E-02  0.1235074E+00
          4   -1    0    0  501    0  0.00000000000E+00  0.00000000000E+00  0.54093621899E+03  0.54093770983E+03  0.12700000000E+01 0.  1.
         -4   -1    0    0    0  501 -0.00000000000E+00 -0.00000000000E+00 -0.71635524756E+01  0.72752583508E+01  0.12700000000E+01 0.  1.
         25    2    1    2    0    0  0.00000000000E+00  0.00000000000E+00  0.53377266652E+03  0.54821296818E+03  0.12499679581E+03 0.  0.
    9000005    1    3    3    0    0  0.39098257709E+02 -0.26067053152E+02  0.86220264536E+02  0.98199282241E+02  0.10000000000E+01 0.  0.
    9000005    1    3    3    0    0 -0.39098257709E+02  0.26067053152E+02  0.44755240198E+03  0.45001368594E+03  0.10000000000E+01 0.  0.
<mgrwt>
<rscale>  0 0.12499680E+03</rscale>
<asrwt>0</asrwt>
<pdfrwt beam="1">  1        4 0.13524820E+00 0.12499680E+03</pdfrwt>
<pdfrwt beam="2">  1       -4 0.18050377E-02 0.12499680E+03</pdfrwt>
<totfact> 0.80422111E+02</totfact>
</mgrwt>
</event>
<event>
 5    1  0.1446384E-002  0.1250017E+03  0.7818608E-02  0.1235067E+00
          4   -1    0    0  501    0  0.00000000000E+00  0.00000000000E+00  0.13412201700E+03  0.13412802968E+03  0.12700000000E+01 0. -1.
         -4   -1    0    0    0  501 -0.00000000000E+00 -0.00000000000E+00 -0.29104875746E+02  0.29132570985E+02  0.12700000000E+01 0. -1.
         25    2    1    2    0    0  0.00000000000E+00  0.00000000000E+00  0.10501714126E+03  0.16326060066E+03  0.12500169507E+03 0.  0.
    9000005    1    3    3    0    0  0.32507250665E+02 -0.45611208926E+02  0.88709306512E+02  0.10491637044E+03  0.10000000000E+01 0.  0.
    9000005    1    3    3    0    0 -0.32507250665E+02  0.45611208926E+02  0.16307834746E+02  0.58344230217E+02  0.10000000000E+01 0.  0.
<mgrwt>
<rscale>  0 0.12500170E+03</rscale>
<asrwt>0</asrwt>
<pdfrwt beam="1">  1        4 0.33534717E-01 0.12500170E+03</pdfrwt>
<pdfrwt beam="2">  1       -4 0.72804326E-02 0.12500170E+03</pdfrwt>
<totfact> 0.17904672E+03</totfact>
</mgrwt>
</event>
<event>
 5    1  0.1446384E-002  0.1250024E+03  0.7818608E-02  0.1235065E+00
         -4   -1    0    0    0  501 -0.00000000000E+00  0.00000000000E+00  0.45863285998E+02  0.45880866410E+02  0.12700000000E+01 0.  1.
          4   -1    0    0  501    0  0.00000000000E+00 -0.00000000000E+00 -0.85136270462E+02  0.85145742396E+02  0.12700000000E+01 0.  1.
         25    2    1    2    0    0  0.00000000000E+00  0.00000000000E+00 -0.39272984463E+02  0.13102660881E+03  0.12500241960E+03 0.  0.
    9000005    1    3    3    0    0 -0.36080982939E+01 -0.55863458486E+02  0.94809479481E+01  0.56785849833E+02  0.10000000000E+01 0.  0.
    9000005    1    3    3    0    0  0.36080982939E+01  0.55863458486E+02 -0.48753932411E+02  0.74240758973E+02  0.10000000000E+01 0.  0.
<mgrwt>
<rscale>  0 0.12500242E+03</rscale>
<asrwt>0</asrwt>
<pdfrwt beam="2">  1        4 0.21287449E-01 0.12500242E+03</pdfrwt>
<pdfrwt beam="1">  1       -4 0.11469203E-01 0.12500242E+03</pdfrwt>
<totfact> 0.19508249E+03</totfact>
</mgrwt>
</event>
<event>
 5    1  0.1446384E-002  0.1249994E+03  0.7818608E-02  0.1235070E+00
         -4   -1    0    0    0  501 -0.00000000000E+00  0.00000000000E+00  0.73810130081E+03  0.73810239341E+03  0.12700000000E+01 0. -1.
          4   -1    0    0  501    0  0.00000000000E+00 -0.00000000000E+00 -0.52149436232E+01  0.53673584745E+01  0.12700000000E+01 0. -1.
         25    2    1    2    0    0  0.00000000000E+00  0.00000000000E+00  0.73288635718E+03  0.74346975188E+03  0.12499943766E+03 0.  0.
    9000005    1    3    3    0    0 -0.93209982695E+01 -0.59008780134E+02  0.25737019293E+03  0.26421455931E+03  0.10000000000E+01 0.  0.
    9000005    1    3    3    0    0  0.93209982695E+01  0.59008780134E+02  0.47551616425E+03  0.47925519257E+03  0.10000000000E+01 0.  0.
<mgrwt>
<rscale>  0 0.12499944E+03</rscale>
<asrwt>0</asrwt>
<pdfrwt beam="2">  1        4 0.13229246E-02 0.12499944E+03</pdfrwt>
<pdfrwt beam="1">  1       -4 0.18454448E+00 0.12499944E+03</pdfrwt>
<totfact> 0.57698310E+02</totfact>
</mgrwt>
</event>
<event>
 5    1  0.1446384E-002  0.1249974E+03  0.7818608E-02  0.1235073E+00
          4   -1    0    0  501    0  0.00000000000E+00  0.00000000000E+00  0.29854090699E+01  0.32443130729E+01  0.12700000000E+01 0. -1.
         -4   -1    0    0    0  501 -0.00000000000E+00 -0.00000000000E+00 -0.12537564753E+04  0.12537571186E+04  0.12700000000E+01 0. -1.
         25    2    1    2    0    0  0.00000000000E+00  0.00000000000E+00 -0.12507710663E+04  0.12570014316E+04  0.12499735568E+03 0.  0.
    9000005    1    3    3    0    0  0.19131980673E+02  0.38761530327E+02 -0.17156162642E+03  0.17692620093E+03  0.10000000000E+01 0.  0.
    9000005    1    3    3    0    0 -0.19131980673E+02 -0.38761530327E+02 -0.10792094399E+04  0.10800752307E+04  0.10000000000E+01 0.  0.
<mgrwt>
<rscale>  0 0.12499736E+03</rscale>
<asrwt>0</asrwt>
<pdfrwt beam="1">  1        4 0.77879997E-03 0.12499736E+03</pdfrwt>
<pdfrwt beam="2">  1       -4 0.31346983E+00 0.12499736E+03</pdfrwt>
<totfact> 0.22336442E+02</totfact>
</mgrwt>
</event>
<event>
 5    1  0.1446384E-002  0.1250002E+03  0.7818608E-02  0.1235069E+00
          4   -1    0    0  501    0  0.00000000000E+00  0.00000000000E+00  0.17775744245E+03  0.17776197919E+03  0.12700000000E+01 0.  1.
         -4   -1    0    0    0  501 -0.00000000000E+00 -0.00000000000E+00 -0.21952061639E+02  0.21988767819E+02  0.12700000000E+01 0.  1.
         25    2    1    2    0    0  0.00000000000E+00  0.00000000000E+00  0.15580538081E+03  0.19975074701E+03  0.12500017697E+03 0.  0.
    9000005    1    3    3    0    0  0.44244697973E+02 -0.38720689726E+02  0.44065138216E+02  0.73482116992E+02  0.10000000000E+01 0.  0.
    9000005    1    3    3    0    0 -0.44244697973E+02  0.38720689726E+02  0.11174024259E+03  0.12626863002E+03  0.10000000000E+01 0.  0.
<mgrwt>
<rscale>  0 0.12500018E+03</rscale>
<asrwt>0</asrwt>
<pdfrwt beam="1">  1        4 0.44444515E-01 0.12500018E+03</pdfrwt>
<pdfrwt beam="2">  1       -4 0.54931709E-02 0.12500018E+03</pdfrwt>
<totfact> 0.16331960E+03</totfact>
</mgrwt>
</event>
<event>
 5    1  0.1446384E-002  0.1250007E+03  0.7818608E-02  0.1235068E+00
         -4   -1    0    0    0  501 -0.00000000000E+00  0.00000000000E+00  0.13749607055E+03  0.13750193568E+03  0.12700000000E+01 0.  1.
          4   -1    0    0  501    0  0.00000000000E+00 -0.00000000000E+00 -0.28389536987E+02  0.28417929382E+02  0.12700000000E+01 0.  1.
         25    2    1    2    0    0  0.00000000000E+00  0.00000000000E+00  0.10910653356E+03  0.16591986506E+03  0.12500066383E+03 0.  0.
    9000005    1    3    3    0    0  0.26394433213E+02 -0.25437671367E+02 -0.12626347701E+02  0.38783577523E+02  0.10000000000E+01 0.  0.
    9000005    1    3    3    0    0 -0.26394433213E+02  0.25437671367E+02  0.12173288126E+03  0.12713628754E+03  0.10000000000E+01 0.  0.
<mgrwt>
<rscale>  0 0.12500066E+03</rscale>
<asrwt>0</asrwt>
<pdfrwt beam="2">  1        4 0.71016665E-02 0.12500066E+03</pdfrwt>
<pdfrwt beam="1">  1       -4 0.34378300E-01 0.12500066E+03</pdfrwt>
<totfact> 0.17782390E+03</totfact>
</mgrwt>
</event>
<event>
 5    1  0.1446384E-002  0.1250010E+03  0.7818608E-02  0.1235068E+00
         -4   -1    0    0    0  501 -0.00000000000E+00  0.00000000000E+00  0.17805121136E+02  0.17850356822E+02  0.12700000000E+01 0.  1.
          4   -1    0    0  501    0  0.00000000000E+00 -0.00000000000E+00 -0.21906709556E+03  0.21907077682E+03  0.12700000000E+01 0.  1.
         25    2    1    2    0    0  0.00000000000E+00  0.00000000000E+00 -0.20126197442E+03  0.23692113364E+03  0.12500096487E+03 0.  0.
    9000005    1    3    3    0    0  0.36189734930E+00  0.60552360354E+02 -0.12990737268E+03  0.14333054381E+03  0.10000000000E+01 0.  0.
    9000005    1    3    3    0    0 -0.36189734930E+00 -0.60552360354E+02 -0.71354601749E+02  0.93590589831E+02  0.10000000000E+01 0.  0.
<mgrwt>
<rscale>  0 0.12500096E+03</rscale>
<asrwt>0</asrwt>
<pdfrwt beam="2">  1        4 0.54772880E-01 0.12500096E+03</pdfrwt>
<pdfrwt beam="1">  1       -4 0.44573956E-02 0.12500096E+03</pdfrwt>
<totfact> 0.14942786E+03</totfact>
</mgrwt>
</event>
<event>
 5    1  0.1446384E-002  0.1250001E+03  0.7818608E-02  0.1235069E+00
          4   -1    0    0  501    0  0.00000000000E+00  0.00000000000E+00  0.15437672538E+03  0.15438194920E+03  0.12700000000E+01 0. -1.
         -4   -1    0    0    0  501 -0.00000000000E+00 -0.00000000000E+00 -0.25281816067E+02  0.25313694390E+02  0.12700000000E+01 0. -1.
         25    2    1    2    0    0  0.00000000000E+00  0.00000000000E+00  0.12909490931E+03  0.17969564359E+03  0.12500011486E+03 0.  0.
    9000005    1    3    3    0    0  0.53086265877E+02  0.23985207617E+02  0.97069945350E+02  0.11321226126E+03  0.10000000000E+01 0.  0.
    9000005    1    3    3    0    0 -0.53086265877E+02 -0.23985207617E+02  0.32024963960E+02  0.66483382328E+02  0.10000000000E+01 0.  0.
<mgrwt>
<rscale>  0 0.12500011E+03</rscale>
<asrwt>0</asrwt>
<pdfrwt beam="1">  1        4 0.38598819E-01 0.12500011E+03</pdfrwt>
<pdfrwt beam="2">  1       -4 0.63250919E-02 0.12500011E+03</pdfrwt>
<totfact> 0.17168350E+03</totfact>
</mgrwt>
</event>
<event>
 5    1  0.1446384E-002  0.1249993E+03  0.7818608E-02  0.1235070E+00
          4   -1    0    0  501    0  0.00000000000E+00  0.00000000000E+00  0.93806866694E+01  0.94662654933E+01  0.12700000000E+01 0. -1.
         -4   -1    0    0    0  501 -0.00000000000E+00 -0.00000000000E+00 -0.41443201300E+03  0.41443395891E+03  0.12700000000E+01 0. -1.
         25    2    1    2    0    0  0.00000000000E+00  0.00000000000E+00 -0.40505132633E+03  0.42390022441E+03  0.12499929315E+03 0.  0.
    9000005    1    3    3    0    0 -0.26747925305E+02 -0.54849110823E+02 -0.24819136627E+03  0.25558527101E+03  0.10000000000E+01 0.  0.
    9000005    1    3    3    0    0  0.26747925305E+02  0.54849110823E+02 -0.15685996006E+03  0.16831495340E+03  0.10000000000E+01 0.  0.
<mgrwt>
<rscale>  0 0.12499929E+03</rscale>
<asrwt>0</asrwt>
<pdfrwt beam="1">  1        4 0.23561136E-02 0.12499929E+03</pdfrwt>
<pdfrwt beam="2">  1       -4 0.10361888E+00 0.12499929E+03</pdfrwt>
<totfact> 0.10089935E+03</totfact>
</mgrwt>
</event>
<event>
 5    1  0.1446384E-002  0.1249948E+03  0.7818608E-02  0.1235077E+00
          4   -1    0    0  501    0  0.00000000000E+00  0.00000000000E+00  0.10899561092E+03  0.10900300959E+03  0.12700000000E+01 0. -1.
         -4   -1    0    0    0  501 -0.00000000000E+00 -0.00000000000E+00 -0.35815726808E+02  0.35838236379E+02  0.12700000000E+01 0. -1.
         25    2    1    2    0    0  0.00000000000E+00  0.00000000000E+00  0.73179884116E+02  0.14484124597E+03  0.12499476427E+03 0.  0.
    9000005    1    3    3    0    0  0.30547114014E+02 -0.47784133416E+02  0.61850162700E+01  0.57058776776E+02  0.10000000000E+01 0.  0.
    9000005    1    3    3    0    0 -0.30547114014E+02  0.47784133416E+02  0.66994867846E+02  0.87782469198E+02  0.10000000000E+01 0.  0.
<mgrwt>
<rscale>  0 0.12499476E+03</rscale>
<asrwt>0</asrwt>
<pdfrwt beam="1">  1        4 0.27252641E-01 0.12499476E+03</pdfrwt>
<pdfrwt beam="2">  1       -4 0.89576703E-02 0.12499476E+03</pdfrwt>
<totfact> 0.18797619E+03</totfact>
</mgrwt>
</event>
<event>
 5    1  0.1446384E-002  0.1250130E+03  0.7818608E-02  0.1235049E+00
          4   -1    0    0  501    0  0.00000000000E+00  0.00000000000E+00  0.64030072278E+02  0.64042665903E+02  0.12700000000E+01 0.  1.
         -4   -1    0    0    0  501 -0.00000000000E+00 -0.00000000000E+00 -0.60993995826E+02  0.61007216187E+02  0.12700000000E+01 0.  1.
         25    2    1    2    0    0  0.00000000000E+00  0.00000000000E+00  0.30360764520E+01  0.12504988209E+03  0.12501302032E+03 0.  0.
    9000005    1    3    3    0    0 -0.56646440295E+02  0.21907835480E+02  0.16263190669E+02  0.62882937465E+02  0.10000000000E+01 0.  0.
    9000005    1    3    3    0    0  0.56646440295E+02 -0.21907835480E+02 -0.13227114217E+02  0.62166944625E+02  0.10000000000E+01 0.  0.
<mgrwt>
<rscale>  0 0.12501302E+03</rscale>
<asrwt>0</asrwt>
<pdfrwt beam="1">  1        4 0.16010745E-01 0.12501302E+03</pdfrwt>
<pdfrwt beam="2">  1       -4 0.15251726E-01 0.12501302E+03</pdfrwt>
<totfact> 0.19826310E+03</totfact>
</mgrwt>
</event>
<event>
 5    1  0.1446384E-002  0.1250013E+03  0.7818608E-02  0.1235067E+00
         -4   -1    0    0    0  501 -0.00000000000E+00  0.00000000000E+00  0.51155629577E+02  0.51171391787E+02  0.12700000000E+01 0. -1.
          4   -1    0    0  501    0  0.00000000000E+00 -0.00000000000E+00 -0.76328866486E+02  0.76339431221E+02  0.12700000000E+01 0. -1.
         25    2    1    2    0    0  0.00000000000E+00  0.00000000000E+00 -0.25173236909E+02  0.12751082301E+03  0.12500127250E+03 0.  0.
    9000005    1    3    3    0    0  0.17047127197E+02  0.43189344577E+02 -0.55252218579E+02  0.72178471088E+02  0.10000000000E+01 0.  0.
    9000005    1    3    3    0    0 -0.17047127197E+02 -0.43189344577E+02  0.30078981670E+02  0.55332351920E+02  0.10000000000E+01 0.  0.
<mgrwt>
<rscale>  0 0.12500127E+03</rscale>
<asrwt>0</asrwt>
<pdfrwt beam="2">  1        4 0.19085507E-01 0.12500127E+03</pdfrwt>
<pdfrwt beam="1">  1       -4 0.12792198E-01 0.12500127E+03</pdfrwt>
<totfact> 0.19698609E+03</totfact>
</mgrwt>
</event>
<event>
 5    1  0.1446384E-002  0.1250030E+03  0.7818608E-02  0.1235065E+00
          4   -1    0    0  501    0  0.00000000000E+00  0.00000000000E+00  0.71501776311E+02  0.71513054162E+02  0.12700000000E+01 0. -1.
         -4   -1    0    0    0  501 -0.00000000000E+00 -0.00000000000E+00 -0.54611136154E+02  0.54625901292E+02  0.12700000000E+01 0. -1.
         25    2    1    2    0    0  0.00000000000E+00  0.00000000000E+00  0.16890640157E+02  0.12613895545E+03  0.12500296940E+03 0.  0.
    9000005    1    3    3    0    0  0.52702237220E+02 -0.33580506577E+02  0.89592218195E+01  0.63138291754E+02  0.10000000000E+01 0.  0.
    9000005    1    3    3    0    0 -0.52702237220E+02  0.33580506577E+02  0.79314183377E+01  0.63000663701E+02  0.10000000000E+01 0.  0.
<mgrwt>
<rscale>  0 0.12500297E+03</rscale>
<asrwt>0</asrwt>
<pdfrwt beam="1">  1        4 0.17878699E-01 0.12500297E+03</pdfrwt>
<pdfrwt beam="2">  1       -4 0.13656040E-01 0.12500297E+03</pdfrwt>
<totfact> 0.19772040E+03</totfact>
</mgrwt>
</event>
<event>
 5    1  0.1446384E-002  0.1249947E+03  0.7818608E-02  0.1235078E+00
         -4   -1    0    0    0  501 -0.00000000000E+00  0.00000000000E+00  0.27303503084E+03  0.27303798448E+03  0.12700000000E+01 0.  1.
          4   -1    0    0  501    0  0.00000000000E+00 -0.00000000000E+00 -0.14274330913E+02  0.14330716068E+02  0.12700000000E+01 0.  1.
         25    2    1    2    0    0  0.00000000000E+00  0.00000000000E+00  0.25876069993E+03  0.28736870054E+03  0.12499468079E+03 0.  0.
    9000005    1    3    3    0    0  0.54012840792E+02  0.24979789581E+02  0.17321569718E+03  0.18315582057E+03  0.10000000000E+01 0.  0.
    9000005    1    3    3    0    0 -0.54012840792E+02 -0.24979789581E+02  0.85545002748E+02  0.10421287998E+03  0.10000000000E+01 0.  0.
<mgrwt>
<rscale>  0 0.12499468E+03</rscale>
<asrwt>0</asrwt>
<pdfrwt beam="2">  1        4 0.35760002E-02 0.12499468E+03</pdfrwt>
<pdfrwt beam="1">  1       -4 0.68266174E-01 0.12499468E+03</pdfrwt>
<totfact> 0.13334231E+03</totfact>
</mgrwt>
</event>
<event>
 5    1  0.1446384E-002  0.1249954E+03  0.7818608E-02  0.1235076E+00
         -4   -1    0    0    0  501 -0.00000000000E+00  0.00000000000E+00  0.11113620689E+03  0.11114346306E+03  0.12700000000E+01 0. -1.
          4   -1    0    0  501    0  0.00000000000E+00 -0.00000000000E+00 -0.35125870561E+02  0.35148821924E+02  0.12700000000E+01 0. -1.
         25    2    1    2    0    0  0.00000000000E+00  0.00000000000E+00  0.76010336327E+02  0.14629228499E+03  0.12499544559E+03 0.  0.
    9000005    1    3    3    0    0  0.64881197816E+01 -0.24463802408E+02 -0.28864379981E+02  0.38402158249E+02  0.10000000000E+01 0.  0.
    9000005    1    3    3    0    0 -0.64881197816E+01  0.24463802408E+02  0.10487471631E+03  0.10789012674E+03  0.10000000000E+01 0.  0.
<mgrwt>
<rscale>  0 0.12499545E+03</rscale>
<asrwt>0</asrwt>
<pdfrwt beam="2">  1        4 0.87852436E-02 0.12499545E+03</pdfrwt>
<pdfrwt beam="1">  1       -4 0.27787828E-01 0.12499545E+03</pdfrwt>
<totfact> 0.18724590E+03</totfact>
</mgrwt>
</event>
<event>
 5    1  0.1446384E-002  0.1250138E+03  0.7818608E-02  0.1235048E+00
          4   -1    0    0  501    0  0.00000000000E+00  0.00000000000E+00  0.31346769638E+02  0.31372485823E+02  0.12700000000E+01 0.  1.
         -4   -1    0    0    0  501 -0.00000000000E+00 -0.00000000000E+00 -0.12456161909E+03  0.12456809322E+03  0.12700000000E+01 0.  1.
         25    2    1    2    0    0  0.00000000000E+00  0.00000000000E+00 -0.93214849449E+02  0.15594057905E+03  0.12501382338E+03 0.  0.
    9000005    1    3    3    0    0  0.12555918130E+02 -0.26584398537E+02 -0.11540317747E+03  0.11909355439E+03  0.10000000000E+01 0.  0.
    9000005    1    3    3    0    0 -0.12555918130E+02  0.26584398537E+02  0.22188328025E+02  0.36847024659E+02  0.10000000000E+01 0.  0.
<mgrwt>
<rscale>  0 0.12501382E+03</rscale>
<asrwt>0</asrwt>
<pdfrwt beam="1">  1        4 0.78407165E-02 0.12501382E+03</pdfrwt>
<pdfrwt beam="2">  1       -4 0.31144427E-01 0.12501382E+03</pdfrwt>
<totfact> 0.18244621E+03</totfact>
</mgrwt>
</event>
<event>
 5    1  0.1446384E-002  0.1250015E+03  0.7818608E-02  0.1235067E+00
          4   -1    0    0  501    0  0.00000000000E+00  0.00000000000E+00  0.79610974189E+02  0.79621103430E+02  0.12700000000E+01 0. -1.
         -4   -1    0    0    0  501 -0.00000000000E+00 -0.00000000000E+00 -0.49046470871E+02  0.49062910685E+02  0.12700000000E+01 0. -1.
         25    2    1    2    0    0  0.00000000000E+00  0.00000000000E+00  0.30564503319E+02  0.12868401411E+03  0.12500154649E+03 0.  0.
    9000005    1    3    3    0    0 -0.43786738363E+02  0.17200737323E+02 -0.27065993910E+02  0.54283624117E+02  0.10000000000E+01 0.  0.
    9000005    1    3    3    0    0  0.43786738363E+02 -0.17200737323E+02  0.57630497229E+02  0.74400389998E+02  0.10000000000E+01 0.  0.
<mgrwt>
<rscale>  0 0.12500155E+03</rscale>
<asrwt>0</asrwt>
<pdfrwt beam="1">  1        4 0.19906065E-01 0.12500155E+03</pdfrwt>
<pdfrwt beam="2">  1       -4 0.12264939E-01 0.12500155E+03</pdfrwt>
<totfact> 0.19634689E+03</totfact>
</mgrwt>
</event>
<event>
 5    1  0.1446384E-002  0.1250006E+03  0.7818608E-02  0.1235068E+00
          4   -1    0    0  501    0  0.00000000000E+00  0.00000000000E+00  0.20733710298E+02  0.20772569478E+02  0.12700000000E+01 0.  1.
         -4   -1    0    0    0  501 -0.00000000000E+00 -0.00000000000E+00 -0.18818527008E+03  0.18818955544E+03  0.12700000000E+01 0.  1.
         25    2    1    2    0    0  0.00000000000E+00  0.00000000000E+00 -0.16745155979E+03  0.20896212492E+03  0.12500057910E+03 0.  0.
    9000005    1    3    3    0    0 -0.13535947623E+02  0.46878969780E+00  0.18258836354E+02  0.22755806882E+02  0.10000000000E+01 0.  0.
    9000005    1    3    3    0    0  0.13535947623E+02 -0.46878969780E+00 -0.18571039614E+03  0.18620631804E+03  0.10000000000E+01 0.  0.
<mgrwt>
<rscale>  0 0.12500058E+03</rscale>
<asrwt>0</asrwt>
<pdfrwt beam="1">  1        4 0.51888212E-02 0.12500058E+03</pdfrwt>
<pdfrwt beam="2">  1       -4 0.47051705E-01 0.12500058E+03</pdfrwt>
<totfact> 0.15969152E+03</totfact>
</mgrwt>
</event>
<event>
 5    1  0.1446384E-002  0.1249983E+03  0.7818608E-02  0.1235072E+00
         -4   -1    0    0    0  501 -0.00000000000E+00  0.00000000000E+00  0.71662856423E+03  0.71662968957E+03  0.12700000000E+01 0.  1.
          4   -1    0    0  501    0  0.00000000000E+00 -0.00000000000E+00 -0.53756056046E+01  0.55235890159E+01  0.12700000000E+01 0.  1.
         25    2    1    2    0    0  0.00000000000E+00  0.00000000000E+00  0.71125295862E+03  0.72215327858E+03  0.12499834645E+03 0.  0.
    9000005    1    3    3    0    0 -0.10125833379E+00 -0.36521736640E+02  0.64858182201E+03  0.64961005792E+03  0.10000000000E+01 0.  0.
    9000005    1    3    3    0    0  0.10125833379E+00  0.36521736640E+02  0.62671136609E+02  0.72543220664E+02  0.10000000000E+01 0.  0.
<mgrwt>
<rscale>  0 0.12499835E+03</rscale>
<asrwt>0</asrwt>
<pdfrwt beam="2">  1        4 0.13625401E-02 0.12499835E+03</pdfrwt>
<pdfrwt beam="1">  1       -4 0.17917577E+00 0.12499835E+03</pdfrwt>
<totfact> 0.59799075E+02</totfact>
</mgrwt>
</event>
<event>
 5    1  0.1446384E-002  0.1249999E+03  0.7818608E-02  0.1235069E+00
         -4   -1    0    0    0  501 -0.00000000000E+00  0.00000000000E+00  0.35885222457E+03  0.35885447187E+03  0.12700000000E+01 0.  1.
          4   -1    0    0  501    0  0.00000000000E+00 -0.00000000000E+00 -0.10846043690E+02  0.10920144858E+02  0.12700000000E+01 0.  1.
         25    2    1    2    0    0  0.00000000000E+00  0.00000000000E+00  0.34800618088E+03  0.36977461673E+03  0.12499986097E+03 0.  0.
    9000005    1    3    3    0    0 -0.38296096324E+02  0.34990784946E+00  0.32008331521E+03  0.32236786767E+03  0.10000000000E+01 0.  0.
    9000005    1    3    3    0    0  0.38296096324E+02 -0.34990784946E+00  0.27922865676E+02  0.47406749063E+02  0.10000000000E+01 0.  0.
<mgrwt>
<rscale>  0 0.12499986E+03</rscale>
<asrwt>0</asrwt>
<pdfrwt beam="2">  1        4 0.27210547E-02 0.12499986E+03</pdfrwt>
<pdfrwt beam="1">  1       -4 0.89722594E-01 0.12499986E+03</pdfrwt>
<totfact> 0.11219531E+03</totfact>
</mgrwt>
</event>
<event>
 5    1  0.1446384E-002  0.1250010E+03  0.7818608E-02  0.1235068E+00
         -4   -1    0    0    0  501 -0.00000000000E+00  0.00000000000E+00  0.52206030294E+02  0.52221475458E+02  0.12700000000E+01 0. -1.
          4   -1    0    0  501    0  0.00000000000E+00 -0.00000000000E+00 -0.74793003817E+02  0.74803785465E+02  0.12700000000E+01 0. -1.
         25    2    1    2    0    0  0.00000000000E+00  0.00000000000E+00 -0.22586973523E+02  0.12702526092E+03  0.12500098216E+03 0.  0.
    9000005    1    3    3    0    0 -0.12560669180E+02 -0.33342572429E+02 -0.63465072506E+02  0.72789511432E+02  0.10000000000E+01 0.  0.
    9000005    1    3    3    0    0  0.12560669180E+02  0.33342572429E+02  0.40878098983E+02  0.54235749491E+02  0.10000000000E+01 0.  0.
<mgrwt>
<rscale>  0 0.12500098E+03</rscale>
<asrwt>0</asrwt>
<pdfrwt beam="2">  1        4 0.18701529E-01 0.12500098E+03</pdfrwt>
<pdfrwt beam="1">  1       -4 0.13054786E-01 0.12500098E+03</pdfrwt>
<totfact> 0.19725164E+03</totfact>
</mgrwt>
</event>
<event>
 5    1  0.1446384E-002  0.1250185E+03  0.7818608E-02  0.1235040E+00
         -4   -1    0    0    0  501 -0.00000000000E+00  0.00000000000E+00  0.76572099959E+02  0.76582631139E+02  0.12700000000E+01 0. -1.
          4   -1    0    0  501    0  0.00000000000E+00 -0.00000000000E+00 -0.51007167717E+02  0.51022975790E+02  0.12700000000E+01 0. -1.
         25    2    1    2    0    0  0.00000000000E+00  0.00000000000E+00  0.25564932242E+02  0.12760560693E+03  0.12501849927E+03 0.  0.
    9000005    1    3    3    0    0 -0.46373857672E+02  0.38404810981E+02  0.29890649411E+02  0.67230313878E+02  0.10000000000E+01 0.  0.
    9000005    1    3    3    0    0  0.46373857672E+02 -0.38404810981E+02 -0.43257171685E+01  0.60375293051E+02  0.10000000000E+01 0.  0.
<mgrwt>
<rscale>  0 0.12501850E+03</rscale>
<asrwt>0</asrwt>
<pdfrwt beam="2">  1        4 0.12755084E-01 0.12501850E+03</pdfrwt>
<pdfrwt beam="1">  1       -4 0.19146317E-01 0.12501850E+03</pdfrwt>
<totfact> 0.19685520E+03</totfact>
</mgrwt>
</event>
<event>
 5    1  0.1446384E-002  0.1250010E+03  0.7818608E-02  0.1235068E+00
          4   -1    0    0  501    0  0.00000000000E+00  0.00000000000E+00  0.27255320470E+03  0.27255616355E+03  0.12700000000E+01 0. -1.
         -4   -1    0    0    0  501 -0.00000000000E+00 -0.00000000000E+00 -0.14301110765E+02  0.14357390749E+02  0.12700000000E+01 0. -1.
         25    2    1    2    0    0  0.00000000000E+00  0.00000000000E+00  0.25825209393E+03  0.28691355430E+03  0.12500097448E+03 0.  0.
    9000005    1    3    3    0    0 -0.40877795698E+02  0.38255964519E+02  0.65401327961E+02  0.86097890226E+02  0.10000000000E+01 0.  0.
    9000005    1    3    3    0    0  0.40877795698E+02 -0.38255964519E+02  0.19285076597E+03  0.20081566408E+03  0.10000000000E+01 0.  0.
<mgrwt>
<rscale>  0 0.12500097E+03</rscale>
<asrwt>0</asrwt>
<pdfrwt beam="1">  1        4 0.68145706E-01 0.12500097E+03</pdfrwt>
<pdfrwt beam="2">  1       -4 0.35826826E-02 0.12500097E+03</pdfrwt>
<totfact> 0.13345621E+03</totfact>
</mgrwt>
</event>
<event>
 5    1  0.1446384E-002  0.1250013E+03  0.7818608E-02  0.1235067E+00
         -4   -1    0    0    0  501 -0.00000000000E+00  0.00000000000E+00  0.18891671133E+02  0.18934311137E+02  0.12700000000E+01 0.  1.
          4   -1    0    0  501    0  0.00000000000E+00 -0.00000000000E+00 -0.20649750256E+03  0.20650140790E+03  0.12700000000E+01 0.  1.
         25    2    1    2    0    0  0.00000000000E+00  0.00000000000E+00 -0.18760583143E+03  0.22543571903E+03  0.12500126172E+03 0.  0.
    9000005    1    3    3    0    0 -0.35352917754E+02 -0.21861160175E+02 -0.96447302931E+01  0.42682079851E+02  0.10000000000E+01 0.  0.
    9000005    1    3    3    0    0  0.35352917754E+02  0.21861160175E+02 -0.17796110113E+03  0.18275363918E+03  0.10000000000E+01 0.  0.
<mgrwt>
<rscale>  0 0.12500126E+03</rscale>
<asrwt>0</asrwt>
<pdfrwt beam="2">  1        4 0.51630187E-01 0.12500126E+03</pdfrwt>
<pdfrwt beam="1">  1       -4 0.47287366E-02 0.12500126E+03</pdfrwt>
<totfact> 0.15351340E+03</totfact>
</mgrwt>
</event>
<event>
 5    1  0.1446384E-002  0.1249945E+03  0.7818608E-02  0.1235078E+00
          4   -1    0    0  501    0  0.00000000000E+00  0.00000000000E+00  0.27366018556E+02  0.27395471736E+02  0.12700000000E+01 0. -1.
         -4   -1    0    0    0  501 -0.00000000000E+00 -0.00000000000E+00 -0.14261928324E+03  0.14262493769E+03  0.12700000000E+01 0. -1.
         25    2    1    2    0    0  0.00000000000E+00  0.00000000000E+00 -0.11525326468E+03  0.17002040942E+03  0.12499449829E+03 0.  0.
    9000005    1    3    3    0    0  0.31494256757E+02 -0.53965247627E+02 -0.56433048917E+02  0.84201099578E+02  0.10000000000E+01 0.  0.
    9000005    1    3    3    0    0 -0.31494256757E+02  0.53965247627E+02 -0.58820215762E+02  0.85819309846E+02  0.10000000000E+01 0.  0.
<mgrwt>
<rscale>  0 0.12499450E+03</rscale>
<asrwt>0</asrwt>
<pdfrwt beam="1">  1        4 0.68458935E-02 0.12499450E+03</pdfrwt>
<pdfrwt beam="2">  1       -4 0.35659207E-01 0.12499450E+03</pdfrwt>
<totfact> 0.17598374E+03</totfact>
</mgrwt>
</event>
<event>
 5    1  0.1446384E-002  0.1249993E+03  0.7818608E-02  0.1235070E+00
          4   -1    0    0  501    0  0.00000000000E+00  0.00000000000E+00  0.32567895074E+02  0.32592647784E+02  0.12700000000E+01 0. -1.
         -4   -1    0    0    0  501 -0.00000000000E+00 -0.00000000000E+00 -0.11986668377E+03  0.11987341147E+03  0.12700000000E+01 0. -1.
         25    2    1    2    0    0  0.00000000000E+00  0.00000000000E+00 -0.87298788695E+02  0.15246605926E+03  0.12499928287E+03 0.  0.
    9000005    1    3    3    0    0  0.50741396642E+02 -0.36026360143E+02 -0.36683303535E+02  0.72244395745E+02  0.10000000000E+01 0.  0.
    9000005    1    3    3    0    0 -0.50741396642E+02  0.36026360143E+02 -0.50615485159E+02  0.80221663510E+02  0.10000000000E+01 0.  0.
<mgrwt>
<rscale>  0 0.12499928E+03</rscale>
<asrwt>0</asrwt>
<pdfrwt beam="1">  1        4 0.81459091E-02 0.12499928E+03</pdfrwt>
<pdfrwt beam="2">  1       -4 0.29970605E-01 0.12499928E+03</pdfrwt>
<totfact> 0.18418493E+03</totfact>
</mgrwt>
</event>
<event>
 5    1  0.1446384E-002  0.1250013E+03  0.7818608E-02  0.1235067E+00
         -4   -1    0    0    0  501 -0.00000000000E+00  0.00000000000E+00  0.99516180271E+01  0.10032327813E+02  0.12700000000E+01 0. -1.
          4   -1    0    0  501    0  0.00000000000E+00 -0.00000000000E+00 -0.39086493823E+03  0.39086700147E+03  0.12700000000E+01 0. -1.
         25    2    1    2    0    0  0.00000000000E+00  0.00000000000E+00 -0.38091332020E+03  0.40089932928E+03  0.12500125884E+03 0.  0.
    9000005    1    3    3    0    0  0.31293905321E+02  0.39098638923E+02 -0.70570692575E+02  0.86540364723E+02  0.10000000000E+01 0.  0.
    9000005    1    3    3    0    0 -0.31293905321E+02 -0.39098638923E+02 -0.31034262763E+03  0.31435896456E+03  0.10000000000E+01 0.  0.
<mgrwt>
<rscale>  0 0.12500126E+03</rscale>
<asrwt>0</asrwt>
<pdfrwt beam="2">  1        4 0.97726530E-01 0.12500126E+03</pdfrwt>
<pdfrwt beam="1">  1       -4 0.24982524E-02 0.12500126E+03</pdfrwt>
<totfact> 0.10550400E+03</totfact>
</mgrwt>
</event>
<event>
 5    1  0.1446384E-002  0.1249995E+03  0.7818608E-02  0.1235070E+00
         -4   -1    0    0    0  501 -0.00000000000E+00  0.00000000000E+00  0.60850847861E+02  0.60864099315E+02  0.12700000000E+01 0.  1.
          4   -1    0    0  501    0  0.00000000000E+00 -0.00000000000E+00 -0.64166829191E+02  0.64179395980E+02  0.12700000000E+01 0.  1.
         25    2    1    2    0    0  0.00000000000E+00  0.00000000000E+00 -0.33159813299E+01  0.12504349530E+03  0.12499951993E+03 0.  0.
    9000005    1    3    3    0    0  0.57176237807E+02  0.13962657953E+01  0.23533169264E+02  0.61853712771E+02  0.10000000000E+01 0.  0.
    9000005    1    3    3    0    0 -0.57176237807E+02 -0.13962657953E+01 -0.26849150594E+02  0.63189782525E+02  0.10000000000E+01 0.  0.
<mgrwt>
<rscale>  0 0.12499952E+03</rscale>
<asrwt>0</asrwt>
<pdfrwt beam="2">  1        4 0.16044935E-01 0.12499952E+03</pdfrwt>
<pdfrwt beam="1">  1       -4 0.15215939E-01 0.12499952E+03</pdfrwt>
<totfact> 0.19832919E+03</totfact>
</mgrwt>
</event>
<event>
 5    1  0.1446384E-002  0.1250024E+03  0.7818608E-02  0.1235065E+00
         -4   -1    0    0    0  501 -0.00000000000E+00  0.00000000000E+00  0.19553030315E+03  0.19553442753E+03  0.12700000000E+01 0.  1.
          4   -1    0    0  501    0  0.00000000000E+00 -0.00000000000E+00 -0.19953978876E+02  0.19994353528E+02  0.12700000000E+01 0.  1.
         25    2    1    2    0    0  0.00000000000E+00  0.00000000000E+00  0.17557632427E+03  0.21552878106E+03  0.12500243925E+03 0.  0.
    9000005    1    3    3    0    0 -0.26151007486E+02  0.36885309826E+02  0.16216883613E+03  0.16835715811E+03  0.10000000000E+01 0.  0.
    9000005    1    3    3    0    0  0.26151007486E+02 -0.36885309826E+02  0.13407488139E+02  0.47171622950E+02  0.10000000000E+01 0.  0.
<mgrwt>
<rscale>  0 0.12500244E+03</rscale>
<asrwt>0</asrwt>
<pdfrwt beam="2">  1        4 0.49940572E-02 0.12500244E+03</pdfrwt>
<pdfrwt beam="1">  1       -4 0.48888137E-01 0.12500244E+03</pdfrwt>
<totfact> 0.15717681E+03</totfact>
</mgrwt>
</event>
<event>
 5    1  0.1446384E-002  0.1249900E+03  0.7818608E-02  0.1235085E+00
         -4   -1    0    0    0  501 -0.00000000000E+00  0.00000000000E+00  0.66792149141E+02  0.66804222074E+02  0.12700000000E+01 0.  1.
          4   -1    0    0  501    0  0.00000000000E+00 -0.00000000000E+00 -0.58450041237E+02  0.58463836862E+02  0.12700000000E+01 0.  1.
         25    2    1    2    0    0  0.00000000000E+00  0.00000000000E+00  0.83421079044E+01  0.12526805894E+03  0.12498998290E+03 0.  0.
    9000005    1    3    3    0    0  0.23624039387E+02 -0.19787599069E+02 -0.50309609285E+02  0.59005941228E+02  0.10000000000E+01 0.  0.
    9000005    1    3    3    0    0 -0.23624039387E+02  0.19787599069E+02  0.58651717189E+02  0.66262117708E+02  0.10000000000E+01 0.  0.
<mgrwt>
<rscale>  0 0.12498998E+03</rscale>
<asrwt>0</asrwt>
<pdfrwt beam="2">  1        4 0.14615744E-01 0.12498998E+03</pdfrwt>
<pdfrwt beam="1">  1       -4 0.16701271E-01 0.12498998E+03</pdfrwt>
<totfact> 0.19825171E+03</totfact>
</mgrwt>
</event>
<event>
 5    1  0.1446384E-002  0.1249936E+03  0.7818608E-02  0.1235079E+00
          4   -1    0    0  501    0  0.00000000000E+00  0.00000000000E+00  0.38354190146E+02  0.38375210772E+02  0.12700000000E+01 0. -1.
         -4   -1    0    0    0  501 -0.00000000000E+00 -0.00000000000E+00 -0.10178349341E+03  0.10179141629E+03  0.12700000000E+01 0. -1.
         25    2    1    2    0    0  0.00000000000E+00  0.00000000000E+00 -0.63429303266E+02  0.14016662707E+03  0.12499362716E+03 0.  0.
    9000005    1    3    3    0    0 -0.21908269031E+02  0.10180485722E+02 -0.96340565344E+02  0.99328339724E+02  0.10000000000E+01 0.  0.
    9000005    1    3    3    0    0  0.21908269031E+02 -0.10180485722E+02  0.32911262078E+02  0.40838287342E+02  0.10000000000E+01 0.  0.
<mgrwt>
<rscale>  0 0.12499363E+03</rscale>
<asrwt>0</asrwt>
<pdfrwt beam="1">  1        4 0.95921657E-02 0.12499363E+03</pdfrwt>
<pdfrwt beam="2">  1       -4 0.25449491E-01 0.12499363E+03</pdfrwt>
<totfact> 0.19034649E+03</totfact>
</mgrwt>
</event>
<event>
 5    1  0.1446384E-002  0.1250065E+03  0.7818608E-02  0.1235059E+00
          4   -1    0    0  501    0  0.00000000000E+00  0.00000000000E+00  0.13949510747E+02  0.14007203506E+02  0.12700000000E+01 0.  1.
         -4   -1    0    0    0  501 -0.00000000000E+00 -0.00000000000E+00 -0.27941986362E+03  0.27942274977E+03  0.12700000000E+01 0.  1.
         25    2    1    2    0    0  0.00000000000E+00  0.00000000000E+00 -0.26547035288E+03  0.29342995327E+03  0.12500651672E+03 0.  0.
    9000005    1    3    3    0    0  0.29026449050E+02  0.13376073367E+02 -0.66730236131E+01  0.32664710733E+02  0.10000000000E+01 0.  0.
    9000005    1    3    3    0    0 -0.29026449050E+02 -0.13376073367E+02 -0.25879732926E+03  0.26076524254E+03  0.10000000000E+01 0.  0.
<mgrwt>
<rscale>  0 0.12500652E+03</rscale>
<asrwt>0</asrwt>
<pdfrwt beam="1">  1        4 0.34949510E-02 0.12500652E+03</pdfrwt>
<pdfrwt beam="2">  1       -4 0.69862520E-01 0.12500652E+03</pdfrwt>
<totfact> 0.13155249E+03</totfact>
</mgrwt>
</event>
<event>
 5    1  0.1446384E-002  0.1249999E+03  0.7818608E-02  0.1235069E+00
         -4   -1    0    0    0  501 -0.00000000000E+00  0.00000000000E+00  0.10898686905E+04  0.10898694305E+04  0.12700000000E+01 0.  1.
          4   -1    0    0  501    0  0.00000000000E+00 -0.00000000000E+00 -0.34708723600E+01  0.36959240981E+01  0.12700000000E+01 0.  1.
         25    2    1    2    0    0  0.00000000000E+00  0.00000000000E+00  0.10863978181E+04  0.10935653546E+04  0.12499986165E+03 0.  0.
    9000005    1    3    3    0    0  0.40559091799E+02  0.46970951088E+02  0.60744625160E+03  0.61060892456E+03  0.10000000000E+01 0.  0.
    9000005    1    3    3    0    0 -0.40559091799E+02 -0.46970951088E+02  0.47895156654E+03  0.48295642999E+03  0.10000000000E+01 0.  0.
<mgrwt>
<rscale>  0 0.12499986E+03</rscale>
<asrwt>0</asrwt>
<pdfrwt beam="2">  1        4 0.89594212E-03 0.12499986E+03</pdfrwt>
<pdfrwt beam="1">  1       -4 0.27249537E+00 0.12499986E+03</pdfrwt>
<totfact> 0.31166958E+02</totfact>
</mgrwt>
</event>
<event>
 5    1  0.1446384E-002  0.1250009E+03  0.7818608E-02  0.1235068E+00
          4   -1    0    0  501    0  0.00000000000E+00  0.00000000000E+00  0.78971657448E+02  0.78981868680E+02  0.12700000000E+01 0. -1.
         -4   -1    0    0    0  501 -0.00000000000E+00 -0.00000000000E+00 -0.49443096547E+02  0.49459404527E+02  0.12700000000E+01 0. -1.
         25    2    1    2    0    0  0.00000000000E+00  0.00000000000E+00  0.29528560901E+02  0.12844127321E+03  0.12500089901E+03 0.  0.
    9000005    1    3    3    0    0 -0.14171610217E+02  0.94259384123E+01 -0.47020720252E+02  0.50016307182E+02  0.10000000000E+01 0.  0.
    9000005    1    3    3    0    0  0.14171610217E+02 -0.94259384123E+01  0.76549281153E+02  0.78424966025E+02  0.10000000000E+01 0.  0.
<mgrwt>
<rscale>  0 0.12500090E+03</rscale>
<asrwt>0</asrwt>
<pdfrwt beam="1">  1        4 0.19746229E-01 0.12500090E+03</pdfrwt>
<pdfrwt beam="2">  1       -4 0.12364089E-01 0.12500090E+03</pdfrwt>
<totfact> 0.19648146E+03</totfact>
</mgrwt>
</event>
<event>
 5    1  0.1446384E-002  0.1249995E+03  0.7818608E-02  0.1235070E+00
          4   -1    0    0  501    0  0.00000000000E+00  0.00000000000E+00  0.13078804582E+03  0.13079421176E+03  0.12700000000E+01 0. -1.
         -4   -1    0    0    0  501 -0.00000000000E+00 -0.00000000000E+00 -0.29846434988E+02  0.29873442746E+02  0.12700000000E+01 0. -1.
         25    2    1    2    0    0  0.00000000000E+00  0.00000000000E+00  0.10094161083E+03  0.16066765450E+03  0.12499954562E+03 0.  0.
    9000005    1    3    3    0    0 -0.12864380309E+02 -0.51060711117E+02  0.72148935718E+01  0.53157719945E+02  0.10000000000E+01 0.  0.
    9000005    1    3    3    0    0  0.12864380309E+02  0.51060711117E+02  0.93726717261E+02  0.10750993456E+03  0.10000000000E+01 0.  0.
<mgrwt>
<rscale>  0 0.12499955E+03</rscale>
<asrwt>0</asrwt>
<pdfrwt beam="1">  1        4 0.32701158E-01 0.12499955E+03</pdfrwt>
<pdfrwt beam="2">  1       -4 0.74657556E-02 0.12499955E+03</pdfrwt>
<totfact> 0.18026569E+03</totfact>
</mgrwt>
</event>
<event>
 5    1  0.1446384E-002  0.1249983E+03  0.7818608E-02  0.1235072E+00
         -4   -1    0    0    0  501 -0.00000000000E+00  0.00000000000E+00  0.83628647149E+02  0.83638289820E+02  0.12700000000E+01 0. -1.
          4   -1    0    0  501    0  0.00000000000E+00 -0.00000000000E+00 -0.46687214012E+02  0.46704484284E+02  0.12700000000E+01 0. -1.
         25    2    1    2    0    0  0.00000000000E+00  0.00000000000E+00  0.36941433137E+02  0.13034277410E+03  0.12499827710E+03 0.  0.
    9000005    1    3    3    0    0  0.40378952589E+01 -0.60915142281E+02  0.45514528148E+01  0.61226423054E+02  0.10000000000E+01 0.  0.
    9000005    1    3    3    0    0 -0.40378952589E+01  0.60915142281E+02  0.32389980322E+02  0.69116351050E+02  0.10000000000E+01 0.  0.
<mgrwt>
<rscale>  0 0.12499828E+03</rscale>
<asrwt>0</asrwt>
<pdfrwt beam="2">  1        4 0.11675168E-01 0.12499828E+03</pdfrwt>
<pdfrwt beam="1">  1       -4 0.20910526E-01 0.12499828E+03</pdfrwt>
<totfact> 0.19546759E+03</totfact>
</mgrwt>
</event>
<event>
 5    1  0.1446384E-002  0.1249970E+03  0.7818608E-02  0.1235074E+00
         -4   -1    0    0    0  501 -0.00000000000E+00  0.00000000000E+00  0.20532305821E+02  0.20571545453E+02  0.12700000000E+01 0. -1.
          4   -1    0    0  501    0  0.00000000000E+00 -0.00000000000E+00 -0.19001672888E+03  0.19002097293E+03  0.12700000000E+01 0. -1.
         25    2    1    2    0    0  0.00000000000E+00  0.00000000000E+00 -0.16948442305E+03  0.21059251838E+03  0.12499695652E+03 0.  0.
    9000005    1    3    3    0    0 -0.54927329137E+02  0.29799923798E+02 -0.84551298255E+02  0.10514261258E+03  0.10000000000E+01 0.  0.
    9000005    1    3    3    0    0  0.54927329137E+02 -0.29799923798E+02 -0.84933124800E+02  0.10544990580E+03  0.10000000000E+01 0.  0.
<mgrwt>
<rscale>  0 0.12499696E+03</rscale>
<asrwt>0</asrwt>
<pdfrwt beam="2">  1        4 0.47509612E-01 0.12499696E+03</pdfrwt>
<pdfrwt beam="1">  1       -4 0.51385125E-02 0.12499696E+03</pdfrwt>
<totfact> 0.15907626E+03</totfact>
</mgrwt>
</event>
<event>
 5    1  0.1446384E-002  0.1250102E+03  0.7818608E-02  0.1235053E+00
          4   -1    0    0  501    0  0.00000000000E+00  0.00000000000E+00  0.11443473630E+03  0.11444178333E+03  0.12700000000E+01 0.  1.
         -4   -1    0    0    0  501 -0.00000000000E+00 -0.00000000000E+00 -0.34120827453E+02  0.34144454398E+02  0.12700000000E+01 0.  1.
         25    2    1    2    0    0  0.00000000000E+00  0.00000000000E+00  0.80313908848E+02  0.14858623773E+03  0.12501018394E+03 0.  0.
    9000005    1    3    3    0    0  0.10279393987E+02  0.19387129377E+02 -0.29397169835E+02  0.36697688218E+02  0.10000000000E+01 0.  0.
    9000005    1    3    3    0    0 -0.10279393987E+02 -0.19387129377E+02  0.10971107868E+03  0.11188854951E+03  0.10000000000E+01 0.  0.
<mgrwt>
<rscale>  0 0.12501018E+03</rscale>
<asrwt>0</asrwt>
<pdfrwt beam="1">  1        4 0.28612518E-01 0.12501018E+03</pdfrwt>
<pdfrwt beam="2">  1       -4 0.85340412E-02 0.12501018E+03</pdfrwt>
<totfact> 0.18604104E+03</totfact>
</mgrwt>
</event>
<event>
 5    1  0.1446384E-002  0.1250383E+03  0.7818608E-02  0.1235009E+00
         -4   -1    0    0    0  501 -0.00000000000E+00  0.00000000000E+00  0.14543753528E+02  0.14599098146E+02  0.12700000000E+01 0. -1.
          4   -1    0    0  501    0  0.00000000000E+00 -0.00000000000E+00 -0.26818340064E+03  0.26818640771E+03  0.12700000000E+01 0. -1.
         25    2    1    2    0    0  0.00000000000E+00  0.00000000000E+00 -0.25363964711E+03  0.28278550585E+03  0.12503828107E+03 0.  0.
    9000005    1    3    3    0    0 -0.27123331072E+01 -0.51098952584E+02 -0.20802271141E+03  0.21422630130E+03  0.10000000000E+01 0.  0.
    9000005    1    3    3    0    0  0.27123331072E+01  0.51098952584E+02 -0.45616935701E+02  0.68559204552E+02  0.10000000000E+01 0.  0.
<mgrwt>
<rscale>  0 0.12503828E+03</rscale>
<asrwt>0</asrwt>
<pdfrwt beam="2">  1        4 0.67053128E-01 0.12503828E+03</pdfrwt>
<pdfrwt beam="1">  1       -4 0.36432332E-02 0.12503828E+03</pdfrwt>
<totfact> 0.13455801E+03</totfact>
</mgrwt>
</event>
<event>
 5    1  0.1446384E-002  0.1250001E+03  0.7818608E-02  0.1235069E+00
          4   -1    0    0  501    0  0.00000000000E+00  0.00000000000E+00  0.22579214042E+02  0.22614902316E+02  0.12700000000E+01 0.  1.
         -4   -1    0    0    0  501 -0.00000000000E+00 -0.00000000000E+00 -0.17282779423E+03  0.17283246038E+03  0.12700000000E+01 0.  1.
         25    2    1    2    0    0  0.00000000000E+00  0.00000000000E+00 -0.15024858019E+03  0.19544736269E+03  0.12500014294E+03 0.  0.
    9000005    1    3    3    0    0 -0.17341583519E+02 -0.50033687908E+02 -0.23239003435E+02  0.57837286635E+02  0.10000000000E+01 0.  0.
    9000005    1    3    3    0    0  0.17341583519E+02  0.50033687908E+02 -0.12700957676E+03  0.13761007606E+03  0.10000000000E+01 0.  0.
<mgrwt>
<rscale>  0 0.12500014E+03</rscale>
<asrwt>0</asrwt>
<pdfrwt beam="1">  1        4 0.56498483E-02 0.12500014E+03</pdfrwt>
<pdfrwt beam="2">  1       -4 0.43211989E-01 0.12500014E+03</pdfrwt>
<totfact> 0.16505919E+03</totfact>
</mgrwt>
</event>
<event>
 5    1  0.1446384E-002  0.1250041E+03  0.7818608E-02  0.1235063E+00
          4   -1    0    0  501    0  0.00000000000E+00  0.00000000000E+00  0.30836454010E+02  0.30862595417E+02  0.12700000000E+01 0. -1.
         -4   -1    0    0    0  501 -0.00000000000E+00 -0.00000000000E+00 -0.12660161642E+03  0.12660798625E+03  0.12700000000E+01 0. -1.
         25    2    1    2    0    0  0.00000000000E+00  0.00000000000E+00 -0.95765162415E+02  0.15747058166E+03  0.12500407096E+03 0.  0.
    9000005    1    3    3    0    0  0.21285982122E+02  0.27755700975E+02  0.17356418038E+02  0.39060430343E+02  0.10000000000E+01 0.  0.
    9000005    1    3    3    0    0 -0.21285982122E+02 -0.27755700975E+02 -0.11312158045E+03  0.11841015132E+03  0.10000000000E+01 0.  0.
<mgrwt>
<rscale>  0 0.12500407E+03</rscale>
<asrwt>0</asrwt>
<pdfrwt beam="1">  1        4 0.77131777E-02 0.12500407E+03</pdfrwt>
<pdfrwt beam="2">  1       -4 0.31654467E-01 0.12500407E+03</pdfrwt>
<totfact> 0.18175726E+03</totfact>
</mgrwt>
</event>
<event>
 5    1  0.1446384E-002  0.1249834E+03  0.7818608E-02  0.1235095E+00
         -4   -1    0    0    0  501 -0.00000000000E+00  0.00000000000E+00  0.82736139969E+02  0.82745886647E+02  0.12700000000E+01 0.  1.
          4   -1    0    0  501    0  0.00000000000E+00 -0.00000000000E+00 -0.47179771681E+02  0.47196861716E+02  0.12700000000E+01 0.  1.
         25    2    1    2    0    0  0.00000000000E+00  0.00000000000E+00  0.35556368288E+02  0.12994274836E+03  0.12498344901E+03 0.  0.
    9000005    1    3    3    0    0 -0.31677592127E+02 -0.25164094456E+01  0.73712692921E+02  0.80276791522E+02  0.10000000000E+01 0.  0.
    9000005    1    3    3    0    0  0.31677592127E+02  0.25164094456E+01 -0.38156324632E+02  0.49665956841E+02  0.10000000000E+01 0.  0.
<mgrwt>
<rscale>  0 0.12498345E+03</rscale>
<asrwt>0</asrwt>
<pdfrwt beam="2">  1        4 0.11798298E-01 0.12498345E+03</pdfrwt>
<pdfrwt beam="1">  1       -4 0.20687389E-01 0.12498345E+03</pdfrwt>
<totfact> 0.19575022E+03</totfact>
</mgrwt>
</event>
<event>
 5    1  0.1446384E-002  0.1250107E+03  0.7818608E-02  0.1235053E+00
          4   -1    0    0  501    0  0.00000000000E+00  0.00000000000E+00  0.14431124521E+02  0.14486899425E+02  0.12700000000E+01 0.  1.
         -4   -1    0    0    0  501 -0.00000000000E+00 -0.00000000000E+00 -0.27014927774E+03  0.27015226292E+03  0.12700000000E+01 0.  1.
         25    2    1    2    0    0  0.00000000000E+00  0.00000000000E+00 -0.25571815322E+03  0.28463916235E+03  0.12501071497E+03 0.  0.
    9000005    1    3    3    0    0 -0.10366991961E+01 -0.35609970478E+02 -0.24477776843E+03  0.24735864784E+03  0.10000000000E+01 0.  0.
    9000005    1    3    3    0    0  0.10366991961E+01  0.35609970478E+02 -0.10940384783E+02  0.37280514506E+02  0.10000000000E+01 0.  0.
<mgrwt>
<rscale>  0 0.12501071E+03</rscale>
<asrwt>0</asrwt>
<pdfrwt beam="1">  1        4 0.36151270E-02 0.12501071E+03</pdfrwt>
<pdfrwt beam="2">  1       -4 0.67544648E-01 0.12501071E+03</pdfrwt>
<totfact> 0.13409467E+03</totfact>
</mgrwt>
</event>
<event>
 5    1  0.1446384E-002  0.1250009E+03  0.7818608E-02  0.1235068E+00
          4   -1    0    0  501    0  0.00000000000E+00  0.00000000000E+00  0.21272035308E+03  0.21272414417E+03  0.12700000000E+01 0.  1.
         -4   -1    0    0    0  501 -0.00000000000E+00 -0.00000000000E+00 -0.18337649208E+02  0.18381574428E+02  0.12700000000E+01 0.  1.
         25    2    1    2    0    0  0.00000000000E+00  0.00000000000E+00  0.19438270387E+03  0.23110571860E+03  0.12500087042E+03 0.  0.
    9000005    1    3    3    0    0  0.58574807669E+02 -0.77740170392E+01  0.59579485172E+02  0.83917569601E+02  0.10000000000E+01 0.  0.
    9000005    1    3    3    0    0 -0.58574807669E+02  0.77740170392E+01  0.13480321870E+03  0.14718814900E+03  0.10000000000E+01 0.  0.
<mgrwt>
<rscale>  0 0.12500087E+03</rscale>
<asrwt>0</asrwt>
<pdfrwt beam="1">  1        4 0.53186053E-01 0.12500087E+03</pdfrwt>
<pdfrwt beam="2">  1       -4 0.45903769E-02 0.12500087E+03</pdfrwt>
<totfact> 0.15147578E+03</totfact>
</mgrwt>
</event>
<event>
 5    1  0.1446384E-002  0.1250038E+03  0.7818608E-02  0.1235063E+00
         -4   -1    0    0    0  501 -0.00000000000E+00  0.00000000000E+00  0.82074666175E+02  0.82084491396E+02  0.12700000000E+01 0.  1.
          4   -1    0    0  501    0  0.00000000000E+00 -0.00000000000E+00 -0.47575616770E+02  0.47592564662E+02  0.12700000000E+01 0.  1.
         25    2    1    2    0    0  0.00000000000E+00  0.00000000000E+00  0.34499049405E+02  0.12967705606E+03  0.12500381777E+03 0.  0.
    9000005    1    3    3    0    0 -0.50514760996E+01 -0.36036127899E+02 -0.35457061079E+02  0.50816563295E+02  0.10000000000E+01 0.  0.
    9000005    1    3    3    0    0  0.50514760996E+01  0.36036127899E+02  0.69956110484E+02  0.78860492763E+02  0.10000000000E+01 0.  0.
<mgrwt>
<rscale>  0 0.12500382E+03</rscale>
<asrwt>0</asrwt>
<pdfrwt beam="2">  1        4 0.11897251E-01 0.12500382E+03</pdfrwt>
<pdfrwt beam="1">  1       -4 0.20522013E-01 0.12500382E+03</pdfrwt>
<totfact> 0.19580014E+03</totfact>
</mgrwt>
</event>
<event>
 5    1  0.1446384E-002  0.1250058E+03  0.7818608E-02  0.1235060E+00
         -4   -1    0    0    0  501 -0.00000000000E+00  0.00000000000E+00  0.19655535191E+03  0.19655945478E+03  0.12700000000E+01 0. -1.
          4   -1    0    0  501    0  0.00000000000E+00 -0.00000000000E+00 -0.19850789608E+02  0.19891373710E+02  0.12700000000E+01 0. -1.
         25    2    1    2    0    0  0.00000000000E+00  0.00000000000E+00  0.17670456230E+03  0.21645082849E+03  0.12500583513E+03 0.  0.
    9000005    1    3    3    0    0  0.26112880871E+02 -0.45013745355E+02  0.28433109574E+02  0.59309034204E+02  0.10000000000E+01 0.  0.
    9000005    1    3    3    0    0 -0.26112880871E+02  0.45013745355E+02  0.14827145273E+03  0.15714179429E+03  0.10000000000E+01 0.  0.
<mgrwt>
<rscale>  0 0.12500584E+03</rscale>
<asrwt>0</asrwt>
<pdfrwt beam="2">  1        4 0.49682834E-02 0.12500584E+03</pdfrwt>
<pdfrwt beam="1">  1       -4 0.49144422E-01 0.12500584E+03</pdfrwt>
<totfact> 0.15681738E+03</totfact>
</mgrwt>
</event>
<event>
 5    1  0.1446384E-002  0.1249918E+03  0.7818608E-02  0.1235082E+00
          4   -1    0    0  501    0  0.00000000000E+00  0.00000000000E+00  0.96680614667E+01  0.97511185268E+01  0.12700000000E+01 0.  1.
         -4   -1    0    0    0  501 -0.00000000000E+00 -0.00000000000E+00 -0.40217162548E+03  0.40217363071E+03  0.12700000000E+01 0.  1.
         25    2    1    2    0    0  0.00000000000E+00  0.00000000000E+00 -0.39250356401E+03  0.41192474924E+03  0.12499180483E+03 0.  0.
    9000005    1    3    3    0    0 -0.46881891798E+02  0.36894421040E+02 -0.25752076057E+03  0.26434267951E+03  0.10000000000E+01 0.  0.
    9000005    1    3    3    0    0  0.46881891798E+02 -0.36894421040E+02 -0.13498280344E+03  0.14758206974E+03  0.10000000000E+01 0.  0.
<mgrwt>
<rscale>  0 0.12499180E+03</rscale>
<asrwt>0</asrwt>
<pdfrwt beam="1">  1        4 0.24276495E-02 0.12499180E+03</pdfrwt>
<pdfrwt beam="2">  1       -4 0.10055348E+00 0.12499180E+03</pdfrwt>
<totfact> 0.10329011E+03</totfact>
</mgrwt>
</event>
<event>
 5    1  0.1446384E-002  0.1250319E+03  0.7818608E-02  0.1235019E+00
         -4   -1    0    0    0  501 -0.00000000000E+00  0.00000000000E+00  0.38637831183E+03  0.38638039903E+03  0.12700000000E+01 0.  1.
          4   -1    0    0  501    0  0.00000000000E+00 -0.00000000000E+00 -0.10073081478E+02  0.10152825738E+02  0.12700000000E+01 0.  1.
         25    2    1    2    0    0  0.00000000000E+00  0.00000000000E+00  0.37630523035E+03  0.39653322477E+03  0.12503188374E+03 0.  0.
    9000005    1    3    3    0    0 -0.51781568032E+02 -0.54360106424E+01  0.29784844315E+03  0.30236662529E+03  0.10000000000E+01 0.  0.
    9000005    1    3    3    0    0  0.51781568032E+02  0.54360106424E+01  0.78456787202E+02  0.94166599480E+02  0.10000000000E+01 0.  0.
<mgrwt>
<rscale>  0 0.12503188E+03</rscale>
<asrwt>0</asrwt>
<pdfrwt beam="2">  1        4 0.25284995E-02 0.12503188E+03</pdfrwt>
<pdfrwt beam="1">  1       -4 0.96604800E-01 0.12503188E+03</pdfrwt>
<totfact> 0.10633236E+03</totfact>
</mgrwt>
</event>
<event>
 5    1  0.1446384E-002  0.1249994E+03  0.7818608E-02  0.1235070E+00
          4   -1    0    0  501    0  0.00000000000E+00  0.00000000000E+00  0.33581316020E+02  0.33605322281E+02  0.12700000000E+01 0.  1.
         -4   -1    0    0    0  501 -0.00000000000E+00 -0.00000000000E+00 -0.11625196001E+03  0.11625889689E+03  0.12700000000E+01 0.  1.
         25    2    1    2    0    0  0.00000000000E+00  0.00000000000E+00 -0.82670643989E+02  0.14986421917E+03  0.12499939524E+03 0.  0.
    9000005    1    3    3    0    0 -0.50863336056E+01  0.21036174661E+01  0.33296011431E+02  0.33762706841E+02  0.10000000000E+01 0.  0.
    9000005    1    3    3    0    0  0.50863336056E+01 -0.21036174661E+01 -0.11596665542E+03  0.11610151233E+03  0.10000000000E+01 0.  0.
<mgrwt>
<rscale>  0 0.12499940E+03</rscale>
<asrwt>0</asrwt>
<pdfrwt beam="1">  1        4 0.83991972E-02 0.12499940E+03</pdfrwt>
<pdfrwt beam="2">  1       -4 0.29066857E-01 0.12499940E+03</pdfrwt>
<totfact> 0.18545720E+03</totfact>
</mgrwt>
</event>
<event>
 5    1  0.1446384E-002  0.1249966E+03  0.7818608E-02  0.1235075E+00
          4   -1    0    0  501    0  0.00000000000E+00  0.00000000000E+00  0.12742341501E+02  0.12805474100E+02  0.12700000000E+01 0.  1.
         -4   -1    0    0    0  501 -0.00000000000E+00 -0.00000000000E+00 -0.30571819178E+03  0.30572082965E+03  0.12700000000E+01 0.  1.
         25    2    1    2    0    0  0.00000000000E+00  0.00000000000E+00 -0.29297585028E+03  0.31852630375E+03  0.12499662930E+03 0.  0.
    9000005    1    3    3    0    0 -0.61174223694E+02  0.82496758586E+01 -0.17128577642E+03  0.18207185395E+03  0.10000000000E+01 0.  0.
    9000005    1    3    3    0    0  0.61174223694E+02 -0.82496758586E+01 -0.12169007386E+03  0.13645444980E+03  0.10000000000E+01 0.  0.
<mgrwt>
<rscale>  0 0.12499663E+03</rscale>
<asrwt>0</asrwt>
<pdfrwt beam="1">  1        4 0.31938077E-02 0.12499663E+03</pdfrwt>
<pdfrwt beam="2">  1       -4 0.76437745E-01 0.12499663E+03</pdfrwt>
<totfact> 0.12468223E+03</totfact>
</mgrwt>
</event>
<event>
 5    1  0.1446384E-002  0.1249973E+03  0.7818608E-02  0.1235074E+00
         -4   -1    0    0    0  501 -0.00000000000E+00  0.00000000000E+00  0.34219461305E+03  0.34219696974E+03  0.12700000000E+01 0. -1.
          4   -1    0    0  501    0  0.00000000000E+00 -0.00000000000E+00 -0.11377061109E+02  0.11447725516E+02  0.12700000000E+01 0. -1.
         25    2    1    2    0    0  0.00000000000E+00  0.00000000000E+00  0.33081755194E+03  0.35364469526E+03  0.12499727122E+03 0.  0.
    9000005    1    3    3    0    0 -0.33278014280E+02 -0.22352729677E+02  0.30103461864E+03  0.30369378061E+03  0.10000000000E+01 0.  0.
    9000005    1    3    3    0    0  0.33278014280E+02  0.22352729677E+02  0.29782933295E+02  0.49950914647E+02  0.10000000000E+01 0.  0.
<mgrwt>
<rscale>  0 0.12499727E+03</rscale>
<asrwt>0</asrwt>
<pdfrwt beam="2">  1        4 0.28533928E-02 0.12499727E+03</pdfrwt>
<pdfrwt beam="1">  1       -4 0.85557785E-01 0.12499727E+03</pdfrwt>
<totfact> 0.11591592E+03</totfact>
</mgrwt>
</event>
<event>
 5    1  0.1446384E-002  0.1250023E+03  0.7818608E-02  0.1235066E+00
         -4   -1    0    0    0  501 -0.00000000000E+00  0.00000000000E+00  0.14602998295E+03  0.14603550534E+03  0.12700000000E+01 0.  1.
          4   -1    0    0  501    0  0.00000000000E+00 -0.00000000000E+00 -0.26729520165E+02  0.26759673919E+02  0.12700000000E+01 0.  1.
         25    2    1    2    0    0  0.00000000000E+00  0.00000000000E+00  0.11930046278E+03  0.17279517926E+03  0.12500229420E+03 0.  0.
    9000005    1    3    3    0    0 -0.17509914198E+02  0.43488897293E+02  0.11677119615E+03  0.12583478666E+03  0.10000000000E+01 0.  0.
    9000005    1    3    3    0    0  0.17509914198E+02 -0.43488897293E+02  0.25292666275E+01  0.46960392595E+02  0.10000000000E+01 0.  0.
<mgrwt>
<rscale>  0 0.12500229E+03</rscale>
<asrwt>0</asrwt>
<pdfrwt beam="2">  1        4 0.66868396E-02 0.12500229E+03</pdfrwt>
<pdfrwt beam="1">  1       -4 0.36511955E-01 0.12500229E+03</pdfrwt>
<totfact> 0.17470775E+03</totfact>
</mgrwt>
</event>
<event>
 5    1  0.1446384E-002  0.1250041E+03  0.7818608E-02  0.1235063E+00
          4   -1    0    0  501    0  0.00000000000E+00  0.00000000000E+00  0.84511724732E+02  0.84521266657E+02  0.12700000000E+01 0. -1.
         -4   -1    0    0    0  501 -0.00000000000E+00 -0.00000000000E+00 -0.46203523678E+02  0.46220974678E+02  0.12700000000E+01 0. -1.
         25    2    1    2    0    0  0.00000000000E+00  0.00000000000E+00  0.38308201055E+02  0.13074224134E+03  0.12500406154E+03 0.  0.
    9000005    1    3    3    0    0  0.22378531684E+02 -0.47656656373E+02 -0.16059611777E+02  0.55053307870E+02  0.10000000000E+01 0.  0.
    9000005    1    3    3    0    0 -0.22378531684E+02  0.47656656373E+02  0.54367812832E+02  0.75688933465E+02  0.10000000000E+01 0.  0.
<mgrwt>
<rscale>  0 0.12500406E+03</rscale>
<asrwt>0</asrwt>
<pdfrwt beam="1">  1        4 0.21131305E-01 0.12500406E+03</pdfrwt>
<pdfrwt beam="2">  1       -4 0.11554255E-01 0.12500406E+03</pdfrwt>
<totfact> 0.19522713E+03</totfact>
</mgrwt>
</event>
<event>
 5    1  0.1446384E-002  0.1249870E+03  0.7818608E-02  0.1235090E+00
         -4   -1    0    0    0  501 -0.00000000000E+00  0.00000000000E+00  0.12614433372E+04  0.12614439765E+04  0.12700000000E+01 0. -1.
          4   -1    0    0  501    0  0.00000000000E+00 -0.00000000000E+00 -0.29651000514E+01  0.32256345600E+01  0.12700000000E+01 0. -1.
         25    2    1    2    0    0  0.00000000000E+00  0.00000000000E+00  0.12584782371E+04  0.12646696110E+04  0.12498700644E+03 0.  0.
    9000005    1    3    3    0    0 -0.18118018512E+02  0.33140521837E+02  0.11329165059E+04  0.11335463670E+04  0.10000000000E+01 0.  0.
    9000005    1    3    3    0    0  0.18118018512E+02 -0.33140521837E+02  0.12556173126E+03  0.13112324408E+03  0.10000000000E+01 0.  0.
<mgrwt>
<rscale>  0 0.12498701E+03</rscale>
<asrwt>0</asrwt>
<pdfrwt beam="2">  1        4 0.77392118E-03 0.12498701E+03</pdfrwt>
<pdfrwt beam="1">  1       -4 0.31539371E+00 0.12498701E+03</pdfrwt>
<totfact> 0.21972217E+02</totfact>
</mgrwt>
</event>
<event>
 5    1  0.1446384E-002  0.1249982E+03  0.7818608E-02  0.1235072E+00
          4   -1    0    0  501    0  0.00000000000E+00  0.00000000000E+00  0.37733654650E+02  0.37755020769E+02  0.12700000000E+01 0.  1.
         -4   -1    0    0    0  501 -0.00000000000E+00 -0.00000000000E+00 -0.10346410007E+03  0.10347189427E+03  0.12700000000E+01 0.  1.
         25    2    1    2    0    0  0.00000000000E+00  0.00000000000E+00 -0.65730445421E+02  0.14122691504E+03  0.12499820029E+03 0.  0.
    9000005    1    3    3    0    0 -0.47233985926E+01  0.18248517413E+02 -0.10018098915E+03  0.10194385450E+03  0.10000000000E+01 0.  0.
    9000005    1    3    3    0    0  0.47233985926E+01 -0.18248517413E+02  0.34450543732E+02  0.39283060541E+02  0.10000000000E+01 0.  0.
<mgrwt>
<rscale>  0 0.12499820E+03</rscale>
<asrwt>0</asrwt>
<pdfrwt beam="1">  1        4 0.94370589E-02 0.12499820E+03</pdfrwt>
<pdfrwt beam="2">  1       -4 0.25869669E-01 0.12499820E+03</pdfrwt>
<totfact> 0.18978547E+03</totfact>
</mgrwt>
</event>
<event>
 5    1  0.1446384E-002  0.1249988E+03  0.7818608E-02  0.1235071E+00
         -4   -1    0    0    0  501 -0.00000000000E+00  0.00000000000E+00  0.30993166676E+03  0.30993426878E+03  0.12700000000E+01 0. -1.
          4   -1    0    0  501    0  0.00000000000E+00 -0.00000000000E+00 -0.12568689005E+02  0.12632689473E+02  0.12700000000E+01 0. -1.
         25    2    1    2    0    0  0.00000000000E+00  0.00000000000E+00  0.29736297776E+03  0.32256695825E+03  0.12499880805E+03 0.  0.
    9000005    1    3    3    0    0 -0.51144553927E+02  0.28212993309E+02  0.91358356529E+02  0.10843932726E+03  0.10000000000E+01 0.  0.
    9000005    1    3    3    0    0  0.51144553927E+02 -0.28212993309E+02  0.20600462123E+03  0.21412763100E+03  0.10000000000E+01 0.  0.
<mgrwt>
<rscale>  0 0.12499881E+03</rscale>
<asrwt>0</asrwt>
<pdfrwt beam="2">  1        4 0.31504975E-02 0.12499881E+03</pdfrwt>
<pdfrwt beam="1">  1       -4 0.77491244E-01 0.12499881E+03</pdfrwt>
<totfact> 0.12361677E+03</totfact>
</mgrwt>
</event>
<event>
 4    1  0.1446384E-002  0.1248388E+03  0.7818608E-02  0.1235321E+00
         -4   -1    0    0    0  501 -0.00000000000E+00  0.00000000000E+00  0.82982470829E+01  0.83948677565E+01  0.12700000000E+01 0. -1.
          4   -1    0    0  501    0  0.00000000000E+00 -0.00000000000E+00 -0.46670340997E+03  0.46670513794E+03  0.12700000000E+01 0. -1.
    9000005    1    1    2    0    0  0.46869959263E+02 -0.18552307312E+01 -0.72522647202E+02  0.86375744972E+02  0.10000000000E+01 0.  0.
    9000005    1    1    2    0    0 -0.46869959263E+02  0.18552307312E+01 -0.38588251569E+03  0.38872426072E+03  0.10000000000E+01 0.  0.
<mgrwt>
<rscale>  0 0.12483878E+03</rscale>
<asrwt>0</asrwt>
<pdfrwt beam="2">  1        4 0.11668806E+00 0.12483878E+03</pdfrwt>
<pdfrwt beam="1">  1       -4 0.20868569E-02 0.12483878E+03</pdfrwt>
<totfact> 0.92014947E+02</totfact>
</mgrwt>
</event>
<event>
 5    1  0.1446384E-002  0.1250086E+03  0.7818608E-02  0.1235056E+00
          4   -1    0    0  501    0  0.00000000000E+00  0.00000000000E+00  0.94052501571E+02  0.94061075647E+02  0.12700000000E+01 0. -1.
         -4   -1    0    0    0  501 -0.00000000000E+00 -0.00000000000E+00 -0.41518199098E+02  0.41537618568E+02  0.12700000000E+01 0. -1.
         25    2    1    2    0    0  0.00000000000E+00  0.00000000000E+00  0.52534302474E+02  0.13559869421E+03  0.12500861145E+03 0.  0.
    9000005    1    3    3    0    0  0.23266301619E+02  0.19496618557E+01  0.89149429664E+02  0.92161503795E+02  0.10000000000E+01 0.  0.
    9000005    1    3    3    0    0 -0.23266301619E+02 -0.19496618557E+01 -0.36615127191E+02  0.43437190420E+02  0.10000000000E+01 0.  0.
<mgrwt>
<rscale>  0 0.12500861E+03</rscale>
<asrwt>0</asrwt>
<pdfrwt beam="1">  1        4 0.23516624E-01 0.12500861E+03</pdfrwt>
<pdfrwt beam="2">  1       -4 0.10383049E-01 0.12500861E+03</pdfrwt>
<totfact> 0.19263953E+03</totfact>
</mgrwt>
</event>
<event>
 5    1  0.1446384E-002  0.1250005E+03  0.7818608E-02  0.1235068E+00
         -4   -1    0    0    0  501 -0.00000000000E+00  0.00000000000E+00  0.11978149887E+02  0.12045288486E+02  0.12700000000E+01 0. -1.
          4   -1    0    0  501    0  0.00000000000E+00 -0.00000000000E+00 -0.32513763094E+03  0.32514011127E+03  0.12700000000E+01 0. -1.
         25    2    1    2    0    0  0.00000000000E+00  0.00000000000E+00 -0.31315948106E+03  0.33718539975E+03  0.12500053293E+03 0.  0.
    9000005    1    3    3    0    0  0.57972693250E+02 -0.19985430569E+02 -0.12409421639E+03  0.13842190990E+03  0.10000000000E+01 0.  0.
    9000005    1    3    3    0    0 -0.57972693250E+02  0.19985430569E+02 -0.18906526466E+03  0.19876348986E+03  0.10000000000E+01 0.  0.
<mgrwt>
<rscale>  0 0.12500053E+03</rscale>
<asrwt>0</asrwt>
<pdfrwt beam="2">  1        4 0.81293081E-01 0.12500053E+03</pdfrwt>
<pdfrwt beam="1">  1       -4 0.30032409E-02 0.12500053E+03</pdfrwt>
<totfact> 0.11989204E+03</totfact>
</mgrwt>
</event>
<event>
 5    1  0.1446384E-002  0.1249991E+03  0.7818608E-02  0.1235071E+00
         -4   -1    0    0    0  501 -0.00000000000E+00  0.00000000000E+00  0.47413960444E+01  0.49085370988E+01  0.12700000000E+01 0. -1.
          4   -1    0    0  501    0  0.00000000000E+00 -0.00000000000E+00 -0.80941236719E+03  0.80941336353E+03  0.12700000000E+01 0. -1.
         25    2    1    2    0    0  0.00000000000E+00  0.00000000000E+00 -0.80467097115E+03  0.81432190063E+03  0.12499914415E+03 0.  0.
    9000005    1    3    3    0    0 -0.19655222604E+02 -0.59313016447E+02 -0.40828777371E+03  0.41304269496E+03  0.10000000000E+01 0.  0.
    9000005    1    3    3    0    0  0.19655222604E+02  0.59313016447E+02 -0.39638319744E+03  0.40127920567E+03  0.10000000000E+01 0.  0.
<mgrwt>
<rscale>  0 0.12499914E+03</rscale>
<asrwt>0</asrwt>
<pdfrwt beam="2">  1        4 0.20237364E+00 0.12499914E+03</pdfrwt>
<pdfrwt beam="1">  1       -4 0.12063690E-02 0.12499914E+03</pdfrwt>
<totfact> 0.51228982E+02</totfact>
</mgrwt>
</event>
<event>
 5    1  0.1446384E-002  0.1250099E+03  0.7818608E-02  0.1235054E+00
          4   -1    0    0  501    0  0.00000000000E+00  0.00000000000E+00  0.12734295398E+03  0.12734928672E+03  0.12700000000E+01 0.  1.
         -4   -1    0    0    0  501 -0.00000000000E+00 -0.00000000000E+00 -0.30659635437E+02  0.30685927477E+02  0.12700000000E+01 0.  1.
         25    2    1    2    0    0  0.00000000000E+00  0.00000000000E+00  0.96683318539E+02  0.15803521419E+03  0.12500985898E+03 0.  0.
    9000005    1    3    3    0    0  0.39796585180E+02 -0.48005354491E+02  0.53642782885E+02  0.82260746455E+02  0.10000000000E+01 0.  0.
    9000005    1    3    3    0    0 -0.39796585180E+02  0.48005354491E+02  0.43040535653E+02  0.75774467739E+02  0.10000000000E+01 0.  0.
<mgrwt>
<rscale>  0 0.12500986E+03</rscale>
<asrwt>0</asrwt>
<pdfrwt beam="1">  1        4 0.31839816E-01 0.12500986E+03</pdfrwt>
<pdfrwt beam="2">  1       -4 0.76689870E-02 0.12500986E+03</pdfrwt>
<totfact> 0.18146454E+03</totfact>
</mgrwt>
</event>
<event>
 5    1  0.1446384E-002  0.1250040E+03  0.7818608E-02  0.1235063E+00
         -4   -1    0    0    0  501 -0.00000000000E+00  0.00000000000E+00  0.20504810786E+02  0.20544102935E+02  0.12700000000E+01 0.  1.
          4   -1    0    0  501    0  0.00000000000E+00 -0.00000000000E+00 -0.19029241764E+03  0.19029665554E+03  0.12700000000E+01 0.  1.
         25    2    1    2    0    0  0.00000000000E+00  0.00000000000E+00 -0.16978760685E+03  0.21084075848E+03  0.12500397592E+03 0.  0.
    9000005    1    3    3    0    0 -0.35737610196E+02  0.41655978580E+02 -0.13529966834E+03  0.14601163511E+03  0.10000000000E+01 0.  0.
    9000005    1    3    3    0    0  0.35737610196E+02 -0.41655978580E+02 -0.34487938510E+02  0.64829123368E+02  0.10000000000E+01 0.  0.
<mgrwt>
<rscale>  0 0.12500398E+03</rscale>
<asrwt>0</asrwt>
<pdfrwt beam="2">  1        4 0.47578540E-01 0.12500398E+03</pdfrwt>
<pdfrwt beam="1">  1       -4 0.51316445E-02 0.12500398E+03</pdfrwt>
<totfact> 0.15895512E+03</totfact>
</mgrwt>
</event>
<event>
 5    1  0.1446384E-002  0.1249993E+03  0.7818608E-02  0.1235070E+00
          4   -1    0    0  501    0  0.00000000000E+00  0.00000000000E+00  0.96044043625E+03  0.96044127591E+03  0.12700000000E+01 0. -1.
         -4   -1    0    0    0  501 -0.00000000000E+00 -0.00000000000E+00 -0.39670958697E+01  0.41654231045E+01  0.12700000000E+01 0. -1.
         25    2    1    2    0    0  0.00000000000E+00  0.00000000000E+00  0.95647334038E+03  0.96460669902E+03  0.12499933175E+03 0.  0.
    9000005    1    3    3    0    0 -0.52760542386E+02 -0.20553684760E+02  0.27420111756E+03  0.27998818129E+03  0.10000000000E+01 0.  0.
    9000005    1    3    3    0    0  0.52760542386E+02  0.20553684760E+02  0.68227222281E+03  0.68461851773E+03  0.10000000000E+01 0.  0.
<mgrwt>
<rscale>  0 0.12499933E+03</rscale>
<asrwt>0</asrwt>
<pdfrwt beam="1">  1        4 0.24013504E+00 0.12499933E+03</pdfrwt>
<pdfrwt beam="2">  1       -4 0.10166697E-02 0.12499933E+03</pdfrwt>
<totfact> 0.39541707E+02</totfact>
</mgrwt>
</event>
<event>
 5    1  0.1446384E-002  0.1249979E+03  0.7818608E-02  0.1235073E+00
         -4   -1    0    0    0  501 -0.00000000000E+00  0.00000000000E+00  0.19917083449E+01  0.23621604796E+01  0.12700000000E+01 0.  1.
          4   -1    0    0  501    0  0.00000000000E+00 -0.00000000000E+00 -0.17939504831E+04  0.17939509327E+04  0.12700000000E+01 0.  1.
         25    2    1    2    0    0  0.00000000000E+00  0.00000000000E+00 -0.17919587748E+04  0.17963130931E+04  0.12499791233E+03 0.  0.
    9000005    1    3    3    0    0  0.68247901070E+01  0.53454034203E+02 -0.13506966365E+04  0.13517715471E+04  0.10000000000E+01 0.  0.
    9000005    1    3    3    0    0 -0.68247901070E+01 -0.53454034203E+02 -0.44126213823E+03  0.44454154606E+03  0.10000000000E+01 0.  0.
<mgrwt>
<rscale>  0 0.12499791E+03</rscale>
<asrwt>0</asrwt>
<pdfrwt beam="2">  1        4 0.44852891E+00 0.12499791E+03</pdfrwt>
<pdfrwt beam="1">  1       -4 0.54429595E-03 0.12499791E+03</pdfrwt>
<totfact> 0.52126001E+01</totfact>
</mgrwt>
</event>
<event>
 5    1  0.1446384E-002  0.1249989E+03  0.7818608E-02  0.1235071E+00
          4   -1    0    0  501    0  0.00000000000E+00  0.00000000000E+00  0.20081122828E+03  0.20081524420E+03  0.12700000000E+01 0.  1.
         -4   -1    0    0    0  501 -0.00000000000E+00 -0.00000000000E+00 -0.19427067948E+02  0.19468535360E+02  0.12700000000E+01 0.  1.
         25    2    1    2    0    0  0.00000000000E+00  0.00000000000E+00  0.18138416033E+03  0.22028377956E+03  0.12499891967E+03 0.  0.
    9000005    1    3    3    0    0  0.45034210103E+02  0.42457503720E+02  0.10589916176E+03  0.12266357309E+03  0.10000000000E+01 0.  0.
    9000005    1    3    3    0    0 -0.45034210103E+02 -0.42457503720E+02  0.75484998572E+02  0.97620206470E+02  0.10000000000E+01 0.  0.
<mgrwt>
<rscale>  0 0.12499892E+03</rscale>
<asrwt>0</asrwt>
<pdfrwt beam="1">  1        4 0.50208492E-01 0.12499892E+03</pdfrwt>
<pdfrwt beam="2">  1       -4 0.48624525E-02 0.12499892E+03</pdfrwt>
<totfact> 0.15541209E+03</totfact>
</mgrwt>
</event>
<event>
 5    1  0.1446384E-002  0.1250050E+03  0.7818608E-02  0.1235061E+00
         -4   -1    0    0    0  501 -0.00000000000E+00  0.00000000000E+00  0.16044929894E+02  0.16095113398E+02  0.12700000000E+01 0. -1.
          4   -1    0    0  501    0  0.00000000000E+00 -0.00000000000E+00 -0.24304450137E+03  0.24304781947E+03  0.12700000000E+01 0. -1.
         25    2    1    2    0    0  0.00000000000E+00  0.00000000000E+00 -0.22699957148E+03  0.25914293287E+03  0.12500501671E+03 0.  0.
    9000005    1    3    3    0    0  0.13961732655E+02  0.57202071892E+02 -0.15691327818E+03  0.16760007124E+03  0.10000000000E+01 0.  0.
    9000005    1    3    3    0    0 -0.13961732655E+02 -0.57202071892E+02 -0.70086293296E+02  0.91542861630E+02  0.10000000000E+01 0.  0.
<mgrwt>
<rscale>  0 0.12500502E+03</rscale>
<asrwt>0</asrwt>
<pdfrwt beam="2">  1        4 0.60767801E-01 0.12500502E+03</pdfrwt>
<pdfrwt beam="1">  1       -4 0.40179210E-02 0.12500502E+03</pdfrwt>
<totfact> 0.14197078E+03</totfact>
</mgrwt>
</event>
<event>
 5    1  0.1446384E-002  0.1249992E+03  0.7818608E-02  0.1235071E+00
         -4   -1    0    0    0  501 -0.00000000000E+00  0.00000000000E+00  0.44155758945E+02  0.44174018925E+02  0.12700000000E+01 0.  1.
          4   -1    0    0  501    0  0.00000000000E+00 -0.00000000000E+00 -0.88423000839E+02  0.88432120733E+02  0.12700000000E+01 0.  1.
         25    2    1    2    0    0  0.00000000000E+00  0.00000000000E+00 -0.44267241894E+02  0.13260613966E+03  0.12499919828E+03 0.  0.
    9000005    1    3    3    0    0  0.54761259336E+02 -0.77930834530E+01 -0.52983782078E+02  0.76601624246E+02  0.10000000000E+01 0.  0.
    9000005    1    3    3    0    0 -0.54761259336E+02  0.77930834530E+01  0.87165401841E+01  0.56004515413E+02  0.10000000000E+01 0.  0.
<mgrwt>
<rscale>  0 0.12499920E+03</rscale>
<asrwt>0</asrwt>
<pdfrwt beam="2">  1        4 0.22109172E-01 0.12499920E+03</pdfrwt>
<pdfrwt beam="1">  1       -4 0.11042362E-01 0.12499920E+03</pdfrwt>
<totfact> 0.19425636E+03</totfact>
</mgrwt>
</event>
<event>
 5    1  0.1446384E-002  0.1250000E+03  0.7818608E-02  0.1235069E+00
         -4   -1    0    0    0  501 -0.00000000000E+00  0.00000000000E+00  0.43975091080E+02  0.43993426049E+02  0.12700000000E+01 0.  1.
          4   -1    0    0  501    0  0.00000000000E+00 -0.00000000000E+00 -0.88787257257E+02  0.88796339740E+02  0.12700000000E+01 0.  1.
         25    2    1    2    0    0  0.00000000000E+00  0.00000000000E+00 -0.44812166177E+02  0.13278976579E+03  0.12499996664E+03 0.  0.
    9000005    1    3    3    0    0  0.79184655105E+01 -0.44068285085E+02  0.23905785992E+02  0.50766154575E+02  0.10000000000E+01 0.  0.
    9000005    1    3    3    0    0 -0.79184655105E+01  0.44068285085E+02 -0.68717952169E+02  0.82023611215E+02  0.10000000000E+01 0.  0.
<mgrwt>
<rscale>  0 0.12499997E+03</rscale>
<asrwt>0</asrwt>
<pdfrwt beam="2">  1        4 0.22200241E-01 0.12499997E+03</pdfrwt>
<pdfrwt beam="1">  1       -4 0.10997200E-01 0.12499997E+03</pdfrwt>
<totfact> 0.19415558E+03</totfact>
</mgrwt>
</event>
<event>
 5    1  0.1446384E-002  0.1250039E+03  0.7818608E-02  0.1235063E+00
          4   -1    0    0  501    0  0.00000000000E+00  0.00000000000E+00  0.12308032400E+02  0.12373381169E+02  0.12700000000E+01 0. -1.
         -4   -1    0    0    0  501 -0.00000000000E+00 -0.00000000000E+00 -0.31648660702E+03  0.31648915515E+03  0.12700000000E+01 0. -1.
         25    2    1    2    0    0  0.00000000000E+00  0.00000000000E+00 -0.30417857462E+03  0.32886253632E+03  0.12500385007E+03 0.  0.
    9000005    1    3    3    0    0  0.38826532394E+02 -0.16880844702E+02 -0.27302195929E+03  0.27628690304E+03  0.10000000000E+01 0.  0.
    9000005    1    3    3    0    0 -0.38826532394E+02  0.16880844702E+02 -0.31156615336E+02  0.52575633280E+02  0.10000000000E+01 0.  0.
<mgrwt>
<rscale>  0 0.12500385E+03</rscale>
<asrwt>0</asrwt>
<pdfrwt beam="1">  1        4 0.30854963E-02 0.12500385E+03</pdfrwt>
<pdfrwt beam="2">  1       -4 0.79130112E-01 0.12500385E+03</pdfrwt>
<totfact> 0.12197948E+03</totfact>
</mgrwt>
</event>
<event>
 5    1  0.1446384E-002  0.1250024E+03  0.7818608E-02  0.1235066E+00
          4   -1    0    0  501    0  0.00000000000E+00  0.00000000000E+00  0.10293174890E+03  0.10293958341E+03  0.12700000000E+01 0. -1.
         -4   -1    0    0    0  501 -0.00000000000E+00 -0.00000000000E+00 -0.37931430688E+02  0.37952685465E+02  0.12700000000E+01 0. -1.
         25    2    1    2    0    0  0.00000000000E+00  0.00000000000E+00  0.65000318216E+02  0.14089226887E+03  0.12500236022E+03 0.  0.
    9000005    1    3    3    0    0  0.50070379518E+02  0.30575719199E+02  0.56765391300E+02  0.81640842469E+02  0.10000000000E+01 0.  0.
    9000005    1    3    3    0    0 -0.50070379518E+02 -0.30575719199E+02  0.82349269153E+01  0.59251426404E+02  0.10000000000E+01 0.  0.
<mgrwt>
<rscale>  0 0.12500236E+03</rscale>
<asrwt>0</asrwt>
<pdfrwt beam="1">  1        4 0.25736573E-01 0.12500236E+03</pdfrwt>
<pdfrwt beam="2">  1       -4 0.94864939E-02 0.12500236E+03</pdfrwt>
<totfact> 0.18993743E+03</totfact>
</mgrwt>
</event>
<event>
 5    1  0.1446384E-002  0.1249912E+03  0.7818608E-02  0.1235083E+00
          4   -1    0    0  501    0  0.00000000000E+00  0.00000000000E+00  0.16590088577E+02  0.16638627918E+02  0.12700000000E+01 0. -1.
         -4   -1    0    0    0  501 -0.00000000000E+00 -0.00000000000E+00 -0.23502971754E+03  0.23503314878E+03  0.12700000000E+01 0. -1.
         25    2    1    2    0    0  0.00000000000E+00  0.00000000000E+00 -0.21843962896E+03  0.25167177670E+03  0.12499124644E+03 0.  0.
    9000005    1    3    3    0    0  0.21393131213E+02  0.53136134490E+02 -0.58938825057E+02  0.82194281740E+02  0.10000000000E+01 0.  0.
    9000005    1    3    3    0    0 -0.21393131213E+02 -0.53136134490E+02 -0.15950080390E+03  0.16947749496E+03  0.10000000000E+01 0.  0.
<mgrwt>
<rscale>  0 0.12499125E+03</rscale>
<asrwt>0</asrwt>
<pdfrwt beam="1">  1        4 0.41540192E-02 0.12499125E+03</pdfrwt>
<pdfrwt beam="2">  1       -4 0.58763915E-01 0.12499125E+03</pdfrwt>
<totfact> 0.14445448E+03</totfact>
</mgrwt>
</event>
<event>
 5    1  0.1446384E-002  0.1250001E+03  0.7818608E-02  0.1235069E+00
          4   -1    0    0  501    0  0.00000000000E+00  0.00000000000E+00  0.17138599539E+03  0.17139070079E+03  0.12700000000E+01 0. -1.
         -4   -1    0    0    0  501 -0.00000000000E+00 -0.00000000000E+00 -0.22769457075E+02  0.22804847632E+02  0.12700000000E+01 0. -1.
         25    2    1    2    0    0  0.00000000000E+00  0.00000000000E+00  0.14861653832E+03  0.19419554842E+03  0.12500014226E+03 0.  0.
    9000005    1    3    3    0    0  0.31222062398E+02  0.52100266400E+02  0.51475446087E+02  0.79623969313E+02  0.10000000000E+01 0.  0.
    9000005    1    3    3    0    0 -0.31222062398E+02 -0.52100266400E+02  0.97141092232E+02  0.11457157911E+03  0.10000000000E+01 0.  0.
<mgrwt>
<rscale>  0 0.12500014E+03</rscale>
<asrwt>0</asrwt>
<pdfrwt beam="1">  1        4 0.42851510E-01 0.12500014E+03</pdfrwt>
<pdfrwt beam="2">  1       -4 0.56973764E-02 0.12500014E+03</pdfrwt>
<totfact> 0.16557075E+03</totfact>
</mgrwt>
</event>
<event>
 5    1  0.1446384E-002  0.1250011E+03  0.7818608E-02  0.1235068E+00
         -4   -1    0    0    0  501 -0.00000000000E+00  0.00000000000E+00  0.33818334664E+03  0.33818573129E+03  0.12700000000E+01 0. -1.
          4   -1    0    0  501    0  0.00000000000E+00 -0.00000000000E+00 -0.11513551061E+02  0.11583382840E+02  0.12700000000E+01 0. -1.
         25    2    1    2    0    0  0.00000000000E+00  0.00000000000E+00  0.32666979558E+03  0.34976911413E+03  0.12500111140E+03 0.  0.
    9000005    1    3    3    0    0  0.44447680945E+02 -0.69945121176E+01  0.28468464661E+03  0.28822017201E+03  0.10000000000E+01 0.  0.
    9000005    1    3    3    0    0 -0.44447680945E+02  0.69945121176E+01  0.41985148977E+02  0.61548942117E+02  0.10000000000E+01 0.  0.
<mgrwt>
<rscale>  0 0.12500111E+03</rscale>
<asrwt>0</asrwt>
<pdfrwt beam="2">  1        4 0.28874149E-02 0.12500111E+03</pdfrwt>
<pdfrwt beam="1">  1       -4 0.84554860E-01 0.12500111E+03</pdfrwt>
<totfact> 0.11682533E+03</totfact>
</mgrwt>
</event>
<event>
 5    1  0.1446384E-002  0.1249990E+03  0.7818608E-02  0.1235071E+00
          4   -1    0    0  501    0  0.00000000000E+00  0.00000000000E+00  0.17058268104E+03  0.17058740859E+03  0.12700000000E+01 0. -1.
         -4   -1    0    0    0  501 -0.00000000000E+00 -0.00000000000E+00 -0.22876437231E+02  0.22911662541E+02  0.12700000000E+01 0. -1.
         25    2    1    2    0    0  0.00000000000E+00  0.00000000000E+00  0.14770624381E+03  0.19349907113E+03  0.12499902428E+03 0.  0.
    9000005    1    3    3    0    0 -0.39054509860E+02  0.40150902094E+02  0.30958045993E+02  0.64005861381E+02  0.10000000000E+01 0.  0.
    9000005    1    3    3    0    0  0.39054509860E+02 -0.40150902094E+02  0.11674819781E+03  0.12949320975E+03  0.10000000000E+01 0.  0.
<mgrwt>
<rscale>  0 0.12499902E+03</rscale>
<asrwt>0</asrwt>
<pdfrwt beam="1">  1        4 0.42650664E-01 0.12499902E+03</pdfrwt>
<pdfrwt beam="2">  1       -4 0.57241035E-02 0.12499902E+03</pdfrwt>
<totfact> 0.16586076E+03</totfact>
</mgrwt>
</event>
<event>
 5    1  0.1446384E-002  0.1250108E+03  0.7818608E-02  0.1235052E+00
         -4   -1    0    0    0  501 -0.00000000000E+00  0.00000000000E+00  0.56327619459E+02  0.56341934773E+02  0.12700000000E+01 0. -1.
          4   -1    0    0  501    0  0.00000000000E+00 -0.00000000000E+00 -0.69331839557E+02  0.69343470323E+02  0.12700000000E+01 0. -1.
         25    2    1    2    0    0  0.00000000000E+00  0.00000000000E+00 -0.13004220098E+02  0.12568540510E+03  0.12501084478E+03 0.  0.
    9000005    1    3    3    0    0 -0.27105146088E+01  0.23467738314E+02  0.51670681948E+02  0.56823771469E+02  0.10000000000E+01 0.  0.
    9000005    1    3    3    0    0  0.27105146088E+01 -0.23467738314E+02 -0.64674902046E+02  0.68861633626E+02  0.10000000000E+01 0.  0.
<mgrwt>
<rscale>  0 0.12501084E+03</rscale>
<asrwt>0</asrwt>
<pdfrwt beam="2">  1        4 0.17336203E-01 0.12501084E+03</pdfrwt>
<pdfrwt beam="1">  1       -4 0.14085148E-01 0.12501084E+03</pdfrwt>
<totfact> 0.19792908E+03</totfact>
</mgrwt>
</event>
<event>
 5    1  0.1446384E-002  0.1250197E+03  0.7818608E-02  0.1235038E+00
          4   -1    0    0  501    0  0.00000000000E+00  0.00000000000E+00  0.14522474516E+02  0.14577899920E+02  0.12700000000E+01 0. -1.
         -4   -1    0    0    0  501 -0.00000000000E+00 -0.00000000000E+00 -0.26849523077E+03  0.26849823434E+03  0.12700000000E+01 0. -1.
         25    2    1    2    0    0  0.00000000000E+00  0.00000000000E+00 -0.25397275625E+03  0.28307613426E+03  0.12501974592E+03 0.  0.
    9000005    1    3    3    0    0  0.43225399988E+01 -0.53948563516E+02 -0.19777284355E+03  0.20504689586E+03  0.10000000000E+01 0.  0.
    9000005    1    3    3    0    0 -0.43225399988E+01  0.53948563516E+02 -0.56199912702E+02  0.78029238400E+02  0.10000000000E+01 0.  0.
<mgrwt>
<rscale>  0 0.12501975E+03</rscale>
<asrwt>0</asrwt>
<pdfrwt beam="1">  1        4 0.36379231E-02 0.12501975E+03</pdfrwt>
<pdfrwt beam="2">  1       -4 0.67131095E-01 0.12501975E+03</pdfrwt>
<totfact> 0.13452903E+03</totfact>
</mgrwt>
</event>
<event>
 5    1  0.1446384E-002  0.1249992E+03  0.7818608E-02  0.1235071E+00
          4   -1    0    0  501    0  0.00000000000E+00  0.00000000000E+00  0.29194084463E+02  0.29221695153E+02  0.12700000000E+01 0.  1.
         -4   -1    0    0    0  501 -0.00000000000E+00 -0.00000000000E+00 -0.13370716678E+03  0.13371319811E+03  0.12700000000E+01 0.  1.
         25    2    1    2    0    0  0.00000000000E+00  0.00000000000E+00 -0.10451308232E+03  0.16293489326E+03  0.12499918027E+03 0.  0.
    9000005    1    3    3    0    0  0.19303744555E+02 -0.34679612244E+02  0.10661403012E+02  0.41109312491E+02  0.10000000000E+01 0.  0.
    9000005    1    3    3    0    0 -0.19303744555E+02  0.34679612244E+02 -0.11517448533E+03  0.12182558077E+03  0.10000000000E+01 0.  0.
<mgrwt>
<rscale>  0 0.12499918E+03</rscale>
<asrwt>0</asrwt>
<pdfrwt beam="1">  1        4 0.73027267E-02 0.12499918E+03</pdfrwt>
<pdfrwt beam="2">  1       -4 0.33430995E-01 0.12499918E+03</pdfrwt>
<totfact> 0.17920844E+03</totfact>
</mgrwt>
</event>
<event>
 5    1  0.1446384E-002  0.1249991E+03  0.7818608E-02  0.1235071E+00
         -4   -1    0    0    0  501 -0.00000000000E+00  0.00000000000E+00  0.55896672234E+01  0.57321269760E+01  0.12700000000E+01 0. -1.
          4   -1    0    0  501    0  0.00000000000E+00 -0.00000000000E+00 -0.68988812156E+03  0.68988929052E+03  0.12700000000E+01 0. -1.
         25    2    1    2    0    0  0.00000000000E+00  0.00000000000E+00 -0.68429845434E+03  0.69562141749E+03  0.12499912747E+03 0.  0.
    9000005    1    3    3    0    0 -0.44947437722E+02 -0.75596273545E+01 -0.10423118865E+03  0.11376537615E+03  0.10000000000E+01 0.  0.
    9000005    1    3    3    0    0  0.44947437722E+02  0.75596273545E+01 -0.58006726569E+03  0.58185604135E+03  0.10000000000E+01 0.  0.
<mgrwt>
<rscale>  0 0.12499913E+03</rscale>
<asrwt>0</asrwt>
<pdfrwt beam="2">  1        4 0.17248970E+00 0.12499913E+03</pdfrwt>
<pdfrwt beam="1">  1       -4 0.14153727E-02 0.12499913E+03</pdfrwt>
<totfact> 0.62523578E+02</totfact>
</mgrwt>
</event>
<event>
 5    1  0.1446384E-002  0.1250317E+03  0.7818608E-02  0.1235020E+00
          4   -1    0    0  501    0  0.00000000000E+00  0.00000000000E+00  0.98462311838E+01  0.99277977681E+01  0.12700000000E+01 0. -1.
         -4   -1    0    0    0  501 -0.00000000000E+00 -0.00000000000E+00 -0.39520699303E+03  0.39520903360E+03  0.12700000000E+01 0. -1.
         25    2    1    2    0    0  0.00000000000E+00  0.00000000000E+00 -0.38536076185E+03  0.40513683137E+03  0.12503173742E+03 0.  0.
    9000005    1    3    3    0    0  0.12289709563E+02 -0.55594234799E+02 -0.10909154223E+03  0.12305982484E+03  0.10000000000E+01 0.  0.
    9000005    1    3    3    0    0 -0.12289709563E+02  0.55594234799E+02 -0.27626921962E+03  0.28207700653E+03  0.10000000000E+01 0.  0.
<mgrwt>
<rscale>  0 0.12503174E+03</rscale>
<asrwt>0</asrwt>
<pdfrwt beam="1">  1        4 0.24720100E-02 0.12503174E+03</pdfrwt>
<pdfrwt beam="2">  1       -4 0.98812146E-01 0.12503174E+03</pdfrwt>
<totfact> 0.10456596E+03</totfact>
</mgrwt>
</event>
<event>
 5    1  0.1446384E-002  0.1250008E+03  0.7818608E-02  0.1235068E+00
          4   -1    0    0  501    0  0.00000000000E+00  0.00000000000E+00  0.29972102871E+02  0.29998997492E+02  0.12700000000E+01 0. -1.
         -4   -1    0    0    0  501 -0.00000000000E+00 -0.00000000000E+00 -0.13024270468E+03  0.13024889643E+03  0.12700000000E+01 0. -1.
         25    2    1    2    0    0  0.00000000000E+00  0.00000000000E+00 -0.10027060181E+03  0.16024789392E+03  0.12500077568E+03 0.  0.
    9000005    1    3    3    0    0 -0.23346148909E+02 -0.57042087476E+02 -0.36908194952E+02  0.71847458321E+02  0.10000000000E+01 0.  0.
    9000005    1    3    3    0    0  0.23346148909E+02  0.57042087476E+02 -0.63362406853E+02  0.88400435603E+02  0.10000000000E+01 0.  0.
<mgrwt>
<rscale>  0 0.12500078E+03</rscale>
<asrwt>0</asrwt>
<pdfrwt beam="1">  1        4 0.74971618E-02 0.12500078E+03</pdfrwt>
<pdfrwt beam="2">  1       -4 0.32564811E-01 0.12500078E+03</pdfrwt>
<totfact> 0.18045769E+03</totfact>
</mgrwt>
</event>
<event>
 5    1  0.1446384E-002  0.1249944E+03  0.7818608E-02  0.1235078E+00
         -4   -1    0    0    0  501 -0.00000000000E+00  0.00000000000E+00  0.36850426034E+02  0.36872303954E+02  0.12700000000E+01 0.  1.
          4   -1    0    0  501    0  0.00000000000E+00 -0.00000000000E+00 -0.10593612515E+03  0.10594373748E+03  0.12700000000E+01 0.  1.
         25    2    1    2    0    0  0.00000000000E+00  0.00000000000E+00 -0.69085699118E+02  0.14281604144E+03  0.12499435135E+03 0.  0.
    9000005    1    3    3    0    0 -0.53712301666E+02  0.31323678621E+02 -0.27433763789E+02  0.67969078177E+02  0.10000000000E+01 0.  0.
    9000005    1    3    3    0    0  0.53712301666E+02 -0.31323678621E+02 -0.41651935329E+02  0.74846963260E+02  0.10000000000E+01 0.  0.
<mgrwt>
<rscale>  0 0.12499435E+03</rscale>
<asrwt>0</asrwt>
<pdfrwt beam="2">  1        4 0.26487717E-01 0.12499435E+03</pdfrwt>
<pdfrwt beam="1">  1       -4 0.92162930E-02 0.12499435E+03</pdfrwt>
<totfact> 0.18899681E+03</totfact>
</mgrwt>
</event>
<event>
 5    1  0.1446384E-002  0.1250154E+03  0.7818608E-02  0.1235045E+00
          4   -1    0    0  501    0  0.00000000000E+00  0.00000000000E+00  0.18692430223E+03  0.18692861650E+03  0.12700000000E+01 0.  1.
         -4   -1    0    0    0  501 -0.00000000000E+00 -0.00000000000E+00 -0.20878808765E+02  0.20917398391E+02  0.12700000000E+01 0.  1.
         25    2    1    2    0    0  0.00000000000E+00  0.00000000000E+00  0.16604549347E+03  0.20784601489E+03  0.12501543906E+03 0.  0.
    9000005    1    3    3    0    0 -0.38283853656E+01 -0.42589311800E+01 -0.20449849298E+02  0.21260088561E+02  0.10000000000E+01 0.  0.
    9000005    1    3    3    0    0  0.38283853656E+01  0.42589311800E+01  0.18649534277E+03  0.18658592633E+03  0.10000000000E+01 0.  0.
<mgrwt>
<rscale>  0 0.12501544E+03</rscale>
<asrwt>0</asrwt>
<pdfrwt beam="1">  1        4 0.46736439E-01 0.12501544E+03</pdfrwt>
<pdfrwt beam="2">  1       -4 0.52250652E-02 0.12501544E+03</pdfrwt>
<totfact> 0.16006912E+03</totfact>
</mgrwt>
</event>
<event>
 5    1  0.1446384E-002  0.1249993E+03  0.7818608E-02  0.1235070E+00
          4   -1    0    0  501    0  0.00000000000E+00  0.00000000000E+00  0.97368545772E+02  0.97376827868E+02  0.12700000000E+01 0.  1.
         -4   -1    0    0    0  501 -0.00000000000E+00 -0.00000000000E+00 -0.40097711117E+02  0.40117818196E+02  0.12700000000E+01 0.  1.
         25    2    1    2    0    0  0.00000000000E+00  0.00000000000E+00  0.57270834655E+02  0.13749464606E+03  0.12499931677E+03 0.  0.
    9000005    1    3    3    0    0 -0.45432494841E+02 -0.20164456267E+02 -0.13025322058E+02  0.51394317768E+02  0.10000000000E+01 0.  0.
    9000005    1    3    3    0    0  0.45432494841E+02  0.20164456267E+02  0.70296156713E+02  0.86100328296E+02  0.10000000000E+01 0.  0.
<mgrwt>
<rscale>  0 0.12499932E+03</rscale>
<asrwt>0</asrwt>
<pdfrwt beam="1">  1        4 0.24345685E-01 0.12499932E+03</pdfrwt>
<pdfrwt beam="2">  1       -4 0.10027976E-01 0.12499932E+03</pdfrwt>
<totfact> 0.19169560E+03</totfact>
</mgrwt>
</event>
<event>
 5    1  0.1446384E-002  0.1250016E+03  0.7818608E-02  0.1235067E+00
          4   -1    0    0  501    0  0.00000000000E+00  0.00000000000E+00  0.18743422579E+03  0.18743852831E+03  0.12700000000E+01 0. -1.
         -4   -1    0    0    0  501 -0.00000000000E+00 -0.00000000000E+00 -0.20817290131E+02  0.20855993585E+02  0.12700000000E+01 0. -1.
         25    2    1    2    0    0  0.00000000000E+00  0.00000000000E+00  0.16661693566E+03  0.20829452190E+03  0.12500161841E+03 0.  0.
    9000005    1    3    3    0    0  0.12406738198E+02  0.11160689221E+02 -0.17043938018E+02  0.23874336845E+02  0.10000000000E+01 0.  0.
    9000005    1    3    3    0    0 -0.12406738198E+02 -0.11160689221E+02  0.18366087367E+03  0.18442018505E+03  0.10000000000E+01 0.  0.
<mgrwt>
<rscale>  0 0.12500162E+03</rscale>
<asrwt>0</asrwt>
<pdfrwt beam="1">  1        4 0.46863931E-01 0.12500162E+03</pdfrwt>
<pdfrwt beam="2">  1       -4 0.52096984E-02 0.12500162E+03</pdfrwt>
<totfact> 0.15994619E+03</totfact>
</mgrwt>
</event>
<event>
 5    1  0.1446384E-002  0.1250015E+03  0.7818608E-02  0.1235067E+00
         -4   -1    0    0    0  501 -0.00000000000E+00  0.00000000000E+00  0.15469311418E+03  0.15469832732E+03  0.12700000000E+01 0. -1.
          4   -1    0    0  501    0  0.00000000000E+00 -0.00000000000E+00 -0.25230611065E+02  0.25262554003E+02  0.12700000000E+01 0. -1.
         25    2    1    2    0    0  0.00000000000E+00  0.00000000000E+00  0.12946250312E+03  0.17996088132E+03  0.12500151636E+03 0.  0.
    9000005    1    3    3    0    0  0.21864325714E+02  0.19881182084E+02 -0.14542590826E+02  0.32951435294E+02  0.10000000000E+01 0.  0.
    9000005    1    3    3    0    0 -0.21864325714E+02 -0.19881182084E+02  0.14400509394E+03  0.14700944603E+03  0.10000000000E+01 0.  0.
<mgrwt>
<rscale>  0 0.12500152E+03</rscale>
<asrwt>0</asrwt>
<pdfrwt beam="2">  1        4 0.63122973E-02 0.12500152E+03</pdfrwt>
<pdfrwt beam="1">  1       -4 0.38677923E-01 0.12500152E+03</pdfrwt>
<totfact> 0.17156304E+03</totfact>
</mgrwt>
</event>
<event>
 5    1  0.1446384E-002  0.1250020E+03  0.7818608E-02  0.1235066E+00
         -4   -1    0    0    0  501 -0.00000000000E+00  0.00000000000E+00  0.13313221724E+03  0.13313827462E+03  0.12700000000E+01 0. -1.
          4   -1    0    0  501    0  0.00000000000E+00 -0.00000000000E+00 -0.29321596477E+02  0.29349087208E+02  0.12700000000E+01 0. -1.
         25    2    1    2    0    0  0.00000000000E+00  0.00000000000E+00  0.10381062077E+03  0.16248736182E+03  0.12500199106E+03 0.  0.
    9000005    1    3    3    0    0  0.23758661452E+02 -0.42372640954E+02  0.10300655828E+03  0.11389146476E+03  0.10000000000E+01 0.  0.
    9000005    1    3    3    0    0 -0.23758661452E+02  0.42372640954E+02  0.80406248501E+00  0.48595897069E+02  0.10000000000E+01 0.  0.
<mgrwt>
<rscale>  0 0.12500199E+03</rscale>
<asrwt>0</asrwt>
<pdfrwt beam="2">  1        4 0.73345927E-02 0.12500199E+03</pdfrwt>
<pdfrwt beam="1">  1       -4 0.33287247E-01 0.12500199E+03</pdfrwt>
<totfact> 0.17940490E+03</totfact>
</mgrwt>
</event>
<event>
 5    1  0.1446384E-002  0.1249961E+03  0.7818608E-02  0.1235075E+00
         -4   -1    0    0    0  501 -0.00000000000E+00  0.00000000000E+00  0.44082957745E+02  0.44101247869E+02  0.12700000000E+01 0. -1.
          4   -1    0    0  501    0  0.00000000000E+00 -0.00000000000E+00 -0.88564535598E+02  0.88573640919E+02  0.12700000000E+01 0. -1.
         25    2    1    2    0    0  0.00000000000E+00  0.00000000000E+00 -0.44481577852E+02  0.13267488879E+03  0.12499606132E+03 0.  0.
    9000005    1    3    3    0    0 -0.36651199682E+02 -0.41193148199E+02  0.89735936450E+01  0.55872276485E+02  0.10000000000E+01 0.  0.
    9000005    1    3    3    0    0  0.36651199682E+02  0.41193148199E+02 -0.53455171497E+02  0.76802612303E+02  0.10000000000E+01 0.  0.
<mgrwt>
<rscale>  0 0.12499606E+03</rscale>
<asrwt>0</asrwt>
<pdfrwt beam="2">  1        4 0.22144558E-01 0.12499606E+03</pdfrwt>
<pdfrwt beam="1">  1       -4 0.11024164E-01 0.12499606E+03</pdfrwt>
<totfact> 0.19423414E+03</totfact>
</mgrwt>
</event>
<event>
 5    1  0.1446384E-002  0.1250028E+03  0.7818608E-02  0.1235065E+00
          4   -1    0    0  501    0  0.00000000000E+00  0.00000000000E+00  0.56766886283E+02  0.56781090851E+02  0.12700000000E+01 0. -1.
         -4   -1    0    0    0  501 -0.00000000000E+00 -0.00000000000E+00 -0.68786558101E+02  0.68798281050E+02  0.12700000000E+01 0. -1.
         25    2    1    2    0    0  0.00000000000E+00  0.00000000000E+00 -0.12019671819E+02  0.12557937190E+03  0.12500282451E+03 0.  0.
    9000005    1    3    3    0    0  0.25084516393E+02 -0.34768437715E+02  0.39667988642E+02  0.58417690358E+02  0.10000000000E+01 0.  0.
    9000005    1    3    3    0    0 -0.25084516393E+02  0.34768437715E+02 -0.51687660460E+02  0.67161681543E+02  0.10000000000E+01 0.  0.
<mgrwt>
<rscale>  0 0.12500282E+03</rscale>
<asrwt>0</asrwt>
<pdfrwt beam="1">  1        4 0.14194963E-01 0.12500282E+03</pdfrwt>
<pdfrwt beam="2">  1       -4 0.17199880E-01 0.12500282E+03</pdfrwt>
<totfact> 0.19802359E+03</totfact>
</mgrwt>
</event>
<event>
 5    1  0.1446384E-002  0.1250017E+03  0.7818608E-02  0.1235067E+00
         -4   -1    0    0    0  501 -0.00000000000E+00  0.00000000000E+00  0.41612972183E+03  0.41613165980E+03  0.12700000000E+01 0.  1.
          4   -1    0    0  501    0  0.00000000000E+00 -0.00000000000E+00 -0.93424284078E+01  0.94283544988E+01  0.12700000000E+01 0.  1.
         25    2    1    2    0    0  0.00000000000E+00  0.00000000000E+00  0.40678729342E+03  0.42556001430E+03  0.12500169472E+03 0.  0.
    9000005    1    3    3    0    0  0.20362428601E+01  0.27459049541E+02  0.39438239885E+03  0.39534367607E+03  0.10000000000E+01 0.  0.
    9000005    1    3    3    0    0 -0.20362428601E+01 -0.27459049541E+02  0.12404894571E+02  0.30216338229E+02  0.10000000000E+01 0.  0.
<mgrwt>
<rscale>  0 0.12500169E+03</rscale>
<asrwt>0</asrwt>
<pdfrwt beam="2">  1        4 0.23465904E-02 0.12500169E+03</pdfrwt>
<pdfrwt beam="1">  1       -4 0.10404340E+00 0.12500169E+03</pdfrwt>
<totfact> 0.10057159E+03</totfact>
</mgrwt>
</event>
<event>
 4    1  0.1446384E-002  0.1250763E+03  0.7818608E-02  0.1234950E+00
          4   -1    0    0  501    0  0.00000000000E+00  0.00000000000E+00  0.92136743069E+02  0.92145495405E+02  0.12700000000E+01 0. -1.
         -4   -1    0    0    0  501 -0.00000000000E+00 -0.00000000000E+00 -0.42427711875E+02  0.42446715243E+02  0.12700000000E+01 0. -1.
    9000005    1    1    2    0    0 -0.43071793776E+02  0.36508810922E+02 -0.40587655605E+01  0.56617543853E+02  0.10000000000E+01 0.  0.
    9000005    1    1    2    0    0  0.43071793776E+02 -0.36508810922E+02  0.53767796755E+02  0.77974666796E+02  0.10000000000E+01 0.  0.
<mgrwt>
<rscale>  0 0.12507628E+03</rscale>
<asrwt>0</asrwt>
<pdfrwt beam="1">  1        4 0.23037655E-01 0.12507628E+03</pdfrwt>
<pdfrwt beam="2">  1       -4 0.10610398E-01 0.12507628E+03</pdfrwt>
<totfact> 0.19286170E+03</totfact>
</mgrwt>
</event>
<event>
 5    1  0.1446384E-002  0.1249942E+03  0.7818608E-02  0.1235078E+00
          4   -1    0    0  501    0  0.00000000000E+00  0.00000000000E+00  0.10084301340E+02  0.10163957572E+02  0.12700000000E+01 0. -1.
         -4   -1    0    0    0  501 -0.00000000000E+00 -0.00000000000E+00 -0.38571917102E+03  0.38572126178E+03  0.12700000000E+01 0. -1.
         25    2    1    2    0    0  0.00000000000E+00  0.00000000000E+00 -0.37563486968E+03  0.39588521935E+03  0.12499420621E+03 0.  0.
    9000005    1    3    3    0    0  0.59281469974E+02  0.17986561899E+02 -0.21375755977E+03  0.22255584344E+03  0.10000000000E+01 0.  0.
    9000005    1    3    3    0    0 -0.59281469974E+02 -0.17986561899E+02 -0.16187730991E+03  0.17332937591E+03  0.10000000000E+01 0.  0.
<mgrwt>
<rscale>  0 0.12499421E+03</rscale>
<asrwt>0</asrwt>
<pdfrwt beam="1">  1        4 0.25312950E-02 0.12499421E+03</pdfrwt>
<pdfrwt beam="2">  1       -4 0.96439962E-01 0.12499421E+03</pdfrwt>
<totfact> 0.10655861E+03</totfact>
</mgrwt>
</event>
<event>
 5    1  0.1446384E-002  0.1249973E+03  0.7818608E-02  0.1235074E+00
         -4   -1    0    0    0  501 -0.00000000000E+00  0.00000000000E+00  0.11763444398E+03  0.11764129934E+03  0.12700000000E+01 0.  1.
          4   -1    0    0  501    0  0.00000000000E+00 -0.00000000000E+00 -0.33185258864E+02  0.33209551425E+02  0.12700000000E+01 0.  1.
         25    2    1    2    0    0  0.00000000000E+00  0.00000000000E+00  0.84449185115E+02  0.15085085077E+03  0.12499725721E+03 0.  0.
    9000005    1    3    3    0    0  0.45497025928E+01  0.39206975520E+02 -0.16243856662E+02  0.42693671690E+02  0.10000000000E+01 0.  0.
    9000005    1    3    3    0    0 -0.45497025928E+01 -0.39206975520E+02  0.10069304178E+03  0.10815717908E+03  0.10000000000E+01 0.  0.
<mgrwt>
<rscale>  0 0.12499726E+03</rscale>
<asrwt>0</asrwt>
<pdfrwt beam="2">  1        4 0.83002082E-02 0.12499726E+03</pdfrwt>
<pdfrwt beam="1">  1       -4 0.29412504E-01 0.12499726E+03</pdfrwt>
<totfact> 0.18498204E+03</totfact>
</mgrwt>
</event>
<event>
 5    1  0.1446384E-002  0.1250027E+03  0.7818608E-02  0.1235065E+00
          4   -1    0    0  501    0  0.00000000000E+00  0.00000000000E+00  0.14881260523E+03  0.14881802436E+03  0.12700000000E+01 0.  1.
         -4   -1    0    0    0  501 -0.00000000000E+00 -0.00000000000E+00 -0.26229329992E+02  0.26260058108E+02  0.12700000000E+01 0.  1.
         25    2    1    2    0    0  0.00000000000E+00  0.00000000000E+00  0.12258327524E+03  0.17507808247E+03  0.12500270235E+03 0.  0.
    9000005    1    3    3    0    0 -0.24408615360E+02  0.52777974880E+02  0.93356494401E+02  0.10998968217E+03  0.10000000000E+01 0.  0.
    9000005    1    3    3    0    0  0.24408615360E+02 -0.52777974880E+02  0.29226780838E+02  0.65088400305E+02  0.10000000000E+01 0.  0.
<mgrwt>
<rscale>  0 0.12500270E+03</rscale>
<asrwt>0</asrwt>
<pdfrwt beam="1">  1        4 0.37207669E-01 0.12500270E+03</pdfrwt>
<pdfrwt beam="2">  1       -4 0.65618510E-02 0.12500270E+03</pdfrwt>
<totfact> 0.17369318E+03</totfact>
</mgrwt>
</event>
<event>
 5    1  0.1446384E-002  0.1249973E+03  0.7818608E-02  0.1235073E+00
          4   -1    0    0  501    0  0.00000000000E+00  0.00000000000E+00  0.11746233123E+03  0.11746919663E+03  0.12700000000E+01 0. -1.
         -4   -1    0    0    0  501 -0.00000000000E+00 -0.00000000000E+00 -0.33233962493E+02  0.33258219480E+02  0.12700000000E+01 0. -1.
         25    2    1    2    0    0  0.00000000000E+00  0.00000000000E+00  0.84228368736E+02  0.15072741611E+03  0.12499734345E+03 0.  0.
    9000005    1    3    3    0    0 -0.65933116997E+01  0.37103867040E+02  0.10222425836E+03  0.10895397058E+03  0.10000000000E+01 0.  0.
    9000005    1    3    3    0    0  0.65933116997E+01 -0.37103867040E+02 -0.17995889621E+02  0.41773445534E+02  0.10000000000E+01 0.  0.
<mgrwt>
<rscale>  0 0.12499734E+03</rscale>
<asrwt>0</asrwt>
<pdfrwt beam="1">  1        4 0.29369473E-01 0.12499734E+03</pdfrwt>
<pdfrwt beam="2">  1       -4 0.83123810E-02 0.12499734E+03</pdfrwt>
<totfact> 0.18504215E+03</totfact>
</mgrwt>
</event>
<event>
 5    1  0.1446384E-002  0.1250135E+03  0.7818608E-02  0.1235048E+00
         -4   -1    0    0    0  501 -0.00000000000E+00  0.00000000000E+00  0.21641585104E+02  0.21678816984E+02  0.12700000000E+01 0.  1.
          4   -1    0    0  501    0  0.00000000000E+00 -0.00000000000E+00 -0.18034181813E+03  0.18034628986E+03  0.12700000000E+01 0.  1.
         25    2    1    2    0    0  0.00000000000E+00  0.00000000000E+00 -0.15870023303E+03  0.20202510684E+03  0.12501351860E+03 0.  0.
    9000005    1    3    3    0    0 -0.43664858445E+02 -0.28166915921E+02 -0.23227228052E+02  0.56925382199E+02  0.10000000000E+01 0.  0.
    9000005    1    3    3    0    0  0.43664858445E+02  0.28166915921E+02 -0.13547300497E+03  0.14509972465E+03  0.10000000000E+01 0.  0.
<mgrwt>
<rscale>  0 0.12501352E+03</rscale>
<asrwt>0</asrwt>
<pdfrwt beam="2">  1        4 0.45090663E-01 0.12501352E+03</pdfrwt>
<pdfrwt beam="1">  1       -4 0.54156098E-02 0.12501352E+03</pdfrwt>
<totfact> 0.16236199E+03</totfact>
</mgrwt>
</event>
<event>
 5    1  0.1446384E-002  0.1249976E+03  0.7818608E-02  0.1235073E+00
         -4   -1    0    0    0  501 -0.00000000000E+00  0.00000000000E+00  0.43501444265E+02  0.43519978782E+02  0.12700000000E+01 0. -1.
          4   -1    0    0  501    0  0.00000000000E+00 -0.00000000000E+00 -0.89750294436E+02  0.89759279472E+02  0.12700000000E+01 0. -1.
         25    2    1    2    0    0  0.00000000000E+00  0.00000000000E+00 -0.46248850171E+02  0.13327925825E+03  0.12499761813E+03 0.  0.
    9000005    1    3    3    0    0  0.38006210511E+02  0.29460024165E+02 -0.65677675370E+02  0.81405909510E+02  0.10000000000E+01 0.  0.
    9000005    1    3    3    0    0 -0.38006210511E+02 -0.29460024165E+02  0.19428825200E+02  0.51873348743E+02  0.10000000000E+01 0.  0.
<mgrwt>
<rscale>  0 0.12499762E+03</rscale>
<asrwt>0</asrwt>
<pdfrwt beam="2">  1        4 0.22441013E-01 0.12499762E+03</pdfrwt>
<pdfrwt beam="1">  1       -4 0.10878801E-01 0.12499762E+03</pdfrwt>
<totfact> 0.19390729E+03</totfact>
</mgrwt>
</event>
<event>
 5    1  0.1446384E-002  0.1249935E+03  0.7818608E-02  0.1235079E+00
          4   -1    0    0  501    0  0.00000000000E+00  0.00000000000E+00  0.17581509722E+02  0.17627319254E+02  0.12700000000E+01 0. -1.
         -4   -1    0    0    0  501 -0.00000000000E+00 -0.00000000000E+00 -0.22181980071E+03  0.22182343629E+03  0.12700000000E+01 0. -1.
         25    2    1    2    0    0  0.00000000000E+00  0.00000000000E+00 -0.20423829099E+03  0.23945075554E+03  0.12499353913E+03 0.  0.
    9000005    1    3    3    0    0 -0.17133430384E+02 -0.54147879199E+02 -0.15204886399E+03  0.16231267449E+03  0.10000000000E+01 0.  0.
    9000005    1    3    3    0    0  0.17133430384E+02  0.54147879199E+02 -0.52189426995E+02  0.77138081053E+02  0.10000000000E+01 0.  0.
<mgrwt>
<rscale>  0 0.12499354E+03</rscale>
<asrwt>0</asrwt>
<pdfrwt beam="1">  1        4 0.44015588E-02 0.12499354E+03</pdfrwt>
<pdfrwt beam="2">  1       -4 0.55461122E-01 0.12499354E+03</pdfrwt>
<totfact> 0.14857604E+03</totfact>
</mgrwt>
</event>
<event>
 5    1  0.1446384E-002  0.1249985E+03  0.7818608E-02  0.1235072E+00
         -4   -1    0    0    0  501 -0.00000000000E+00  0.00000000000E+00  0.56972518248E+01  0.58370864612E+01  0.12700000000E+01 0. -1.
          4   -1    0    0  501    0  0.00000000000E+00 -0.00000000000E+00 -0.67716910981E+03  0.67717030072E+03  0.12700000000E+01 0. -1.
         25    2    1    2    0    0  0.00000000000E+00  0.00000000000E+00 -0.67147185798E+03  0.68300738718E+03  0.12499853952E+03 0.  0.
    9000005    1    3    3    0    0 -0.21058723199E+02  0.98143483201E+01 -0.18752391296E+02  0.29873791775E+02  0.10000000000E+01 0.  0.
    9000005    1    3    3    0    0  0.21058723199E+02 -0.98143483201E+01 -0.65271946668E+03  0.65313359540E+03  0.10000000000E+01 0.  0.
<mgrwt>
<rscale>  0 0.12499854E+03</rscale>
<asrwt>0</asrwt>
<pdfrwt beam="2">  1        4 0.16930964E+00 0.12499854E+03</pdfrwt>
<pdfrwt beam="1">  1       -4 0.14419435E-02 0.12499854E+03</pdfrwt>
<totfact> 0.63859326E+02</totfact>
</mgrwt>
</event>
<event>
 5    1  0.1446384E-002  0.1250092E+03  0.7818608E-02  0.1235055E+00
         -4   -1    0    0    0  501 -0.00000000000E+00  0.00000000000E+00  0.26404392481E+02  0.26434917104E+02  0.12700000000E+01 0. -1.
          4   -1    0    0  501    0  0.00000000000E+00 -0.00000000000E+00 -0.14784245149E+03  0.14784790618E+03  0.12700000000E+01 0. -1.
         25    2    1    2    0    0  0.00000000000E+00  0.00000000000E+00 -0.12143805901E+03  0.17428282328E+03  0.12500920093E+03 0.  0.
    9000005    1    3    3    0    0 -0.76790996335E+01  0.40046578011E+02 -0.12674877833E+03  0.13315010247E+03  0.10000000000E+01 0.  0.
    9000005    1    3    3    0    0  0.76790996335E+01 -0.40046578011E+02  0.53107193202E+01  0.41132720810E+02  0.10000000000E+01 0.  0.
<mgrwt>
<rscale>  0 0.12500920E+03</rscale>
<asrwt>0</asrwt>
<pdfrwt beam="2">  1        4 0.36965108E-01 0.12500920E+03</pdfrwt>
<pdfrwt beam="1">  1       -4 0.66055960E-02 0.12500920E+03</pdfrwt>
<totfact> 0.17401871E+03</totfact>
</mgrwt>
</event>
<event>
 5    1  0.1446384E-002  0.1249958E+03  0.7818608E-02  0.1235076E+00
         -4   -1    0    0    0  501 -0.00000000000E+00  0.00000000000E+00  0.24071465230E+02  0.24104944271E+02  0.12700000000E+01 0.  1.
          4   -1    0    0  501    0  0.00000000000E+00 -0.00000000000E+00 -0.16211749234E+03  0.16212246675E+03  0.12700000000E+01 0.  1.
         25    2    1    2    0    0  0.00000000000E+00  0.00000000000E+00 -0.13804602711E+03  0.18622741102E+03  0.12499577198E+03 0.  0.
    9000005    1    3    3    0    0  0.37029985021E+02 -0.40198080951E+02 -0.11416090786E+03  0.12657337155E+03  0.10000000000E+01 0.  0.
    9000005    1    3    3    0    0 -0.37029985021E+02  0.40198080951E+02 -0.23885119256E+02  0.59654039467E+02  0.10000000000E+01 0.  0.
<mgrwt>
<rscale>  0 0.12499577E+03</rscale>
<asrwt>0</asrwt>
<pdfrwt beam="2">  1        4 0.40534177E-01 0.12499577E+03</pdfrwt>
<pdfrwt beam="1">  1       -4 0.60226735E-02 0.12499577E+03</pdfrwt>
<totfact> 0.16890443E+03</totfact>
</mgrwt>
</event>
<event>
 5    1  0.1446384E-002  0.1249993E+03  0.7818608E-02  0.1235070E+00
         -4   -1    0    0    0  501 -0.00000000000E+00  0.00000000000E+00  0.98419310469E+02  0.98427504150E+02  0.12700000000E+01 0.  1.
          4   -1    0    0  501    0  0.00000000000E+00 -0.00000000000E+00 -0.39669431647E+02  0.39689755696E+02  0.12700000000E+01 0.  1.
         25    2    1    2    0    0  0.00000000000E+00  0.00000000000E+00  0.58749878822E+02  0.13811725985E+03  0.12499931682E+03 0.  0.
    9000005    1    3    3    0    0 -0.53488479057E+02 -0.23225491941E+02  0.54199727383E+02  0.79618159462E+02  0.10000000000E+01 0.  0.
    9000005    1    3    3    0    0  0.53488479057E+02  0.23225491941E+02  0.45501514386E+01  0.58499100385E+02  0.10000000000E+01 0.  0.
<mgrwt>
<rscale>  0 0.12499932E+03</rscale>
<asrwt>0</asrwt>
<pdfrwt beam="2">  1        4 0.99209227E-02 0.12499932E+03</pdfrwt>
<pdfrwt beam="1">  1       -4 0.24608392E-01 0.12499932E+03</pdfrwt>
<totfact> 0.19137383E+03</totfact>
</mgrwt>
</event>
<event>
 4    1  0.1446384E-002  0.1252460E+03  0.7818608E-02  0.1234685E+00
          4   -1    0    0  501    0  0.00000000000E+00  0.00000000000E+00  0.37618089246E+03  0.37618303623E+03  0.12700000000E+01 0.  1.
         -4   -1    0    0    0  501 -0.00000000000E+00 -0.00000000000E+00 -0.10384014545E+02  0.10461388917E+02  0.12700000000E+01 0.  1.
    9000005    1    1    2    0    0 -0.88265689988E-01  0.60063531136E+02  0.23751475982E+03  0.24499366664E+03  0.10000000000E+01 0.  0.
    9000005    1    1    2    0    0  0.88265689988E-01 -0.60063531136E+02  0.12828211809E+03  0.14165075851E+03  0.10000000000E+01 0.  0.
<mgrwt>
<rscale>  0 0.12524598E+03</rscale>
<asrwt>0</asrwt>
<pdfrwt beam="1">  1        4 0.94055159E-01 0.12524598E+03</pdfrwt>
<pdfrwt beam="2">  1       -4 0.26059435E-02 0.12524598E+03</pdfrwt>
<totfact> 0.10788983E+03</totfact>
</mgrwt>
</event>
<event>
 5    1  0.1446384E-002  0.1250107E+03  0.7818608E-02  0.1235053E+00
          4   -1    0    0  501    0  0.00000000000E+00  0.00000000000E+00  0.82711136576E+01  0.83680476299E+01  0.12700000000E+01 0. -1.
         -4   -1    0    0    0  501 -0.00000000000E+00 -0.00000000000E+00 -0.46950734962E+03  0.46950906726E+03  0.12700000000E+01 0. -1.
         25    2    1    2    0    0  0.00000000000E+00  0.00000000000E+00 -0.46123623596E+03  0.47787711489E+03  0.12501068586E+03 0.  0.
    9000005    1    3    3    0    0 -0.61969809630E+02  0.25777120884E+01 -0.25998473650E+03  0.26728255670E+03  0.10000000000E+01 0.  0.
    9000005    1    3    3    0    0  0.61969809630E+02 -0.25777120884E+01 -0.20125149946E+03  0.21059455819E+03  0.10000000000E+01 0.  0.
<mgrwt>
<rscale>  0 0.12501069E+03</rscale>
<asrwt>0</asrwt>
<pdfrwt beam="1">  1        4 0.20801114E-02 0.12501069E+03</pdfrwt>
<pdfrwt beam="2">  1       -4 0.11738908E+00 0.12501069E+03</pdfrwt>
<totfact> 0.91195909E+02</totfact>
</mgrwt>
</event>
<event>
 5    1  0.1446384E-002  0.1249995E+03  0.7818608E-02  0.1235070E+00
         -4   -1    0    0    0  501 -0.00000000000E+00  0.00000000000E+00  0.14564893622E+02  0.14620158215E+02  0.12700000000E+01 0.  1.
          4   -1    0    0  501    0  0.00000000000E+00 -0.00000000000E+00 -0.26762965701E+03  0.26763267030E+03  0.12700000000E+01 0.  1.
         25    2    1    2    0    0  0.00000000000E+00  0.00000000000E+00 -0.25306476339E+03  0.28225282851E+03  0.12499953894E+03 0.  0.
    9000005    1    3    3    0    0 -0.30456616326E+02 -0.47385555552E+02 -0.18763391628E+03  0.19590937418E+03  0.10000000000E+01 0.  0.
    9000005    1    3    3    0    0  0.30456616326E+02  0.47385555552E+02 -0.65430847104E+02  0.86343454330E+02  0.10000000000E+01 0.  0.
<mgrwt>
<rscale>  0 0.12499954E+03</rscale>
<asrwt>0</asrwt>
<pdfrwt beam="2">  1        4 0.66914683E-01 0.12499954E+03</pdfrwt>
<pdfrwt beam="1">  1       -4 0.36485090E-02 0.12499954E+03</pdfrwt>
<totfact> 0.13483591E+03</totfact>
</mgrwt>
</event>
<event>
 5    1  0.1446384E-002  0.1249978E+03  0.7818608E-02  0.1235073E+00
          4   -1    0    0  501    0  0.00000000000E+00  0.00000000000E+00  0.48816765953E+02  0.48833283098E+02  0.12700000000E+01 0.  1.
         -4   -1    0    0    0  501 -0.00000000000E+00 -0.00000000000E+00 -0.79980762038E+02  0.79990844452E+02  0.12700000000E+01 0.  1.
         25    2    1    2    0    0  0.00000000000E+00  0.00000000000E+00 -0.31163996085E+02  0.12882412755E+03  0.12499784473E+03 0.  0.
    9000005    1    3    3    0    0  0.30152823098E+02 -0.36579900609E+02 -0.57544862987E+02  0.74563349747E+02  0.10000000000E+01 0.  0.
    9000005    1    3    3    0    0 -0.30152823098E+02  0.36579900609E+02  0.26380866902E+02  0.54260777803E+02  0.10000000000E+01 0.  0.
<mgrwt>
<rscale>  0 0.12499784E+03</rscale>
<asrwt>0</asrwt>
<pdfrwt beam="1">  1        4 0.12207517E-01 0.12499784E+03</pdfrwt>
<pdfrwt beam="2">  1       -4 0.19998515E-01 0.12499784E+03</pdfrwt>
<totfact> 0.19628798E+03</totfact>
</mgrwt>
</event>
<event>
 5    1  0.1446384E-002  0.1249551E+03  0.7818608E-02  0.1235139E+00
          4   -1    0    0  501    0  0.00000000000E+00  0.00000000000E+00  0.40293163705E+02  0.40313173298E+02  0.12700000000E+01 0.  1.
         -4   -1    0    0    0  501 -0.00000000000E+00 -0.00000000000E+00 -0.96827900950E+02  0.96836229286E+02  0.12700000000E+01 0.  1.
         25    2    1    2    0    0  0.00000000000E+00  0.00000000000E+00 -0.56534737245E+02  0.13714940258E+03  0.12495512040E+03 0.  0.
    9000005    1    3    3    0    0 -0.37501952726E+02 -0.41905010236E+02 -0.58125412577E+02  0.80882568755E+02  0.10000000000E+01 0.  0.
    9000005    1    3    3    0    0  0.37501952726E+02  0.41905010236E+02  0.15906753321E+01  0.56266833829E+02  0.10000000000E+01 0.  0.
<mgrwt>
<rscale>  0 0.12495512E+03</rscale>
<asrwt>0</asrwt>
<pdfrwt beam="1">  1        4 0.10076833E-01 0.12495512E+03</pdfrwt>
<pdfrwt beam="2">  1       -4 0.24210517E-01 0.12495512E+03</pdfrwt>
<totfact> 0.19207238E+03</totfact>
</mgrwt>
</event>
<event>
 5    1  0.1446384E-002  0.1250036E+03  0.7818608E-02  0.1235064E+00
          4   -1    0    0  501    0  0.00000000000E+00  0.00000000000E+00  0.77352752096E+02  0.77363177008E+02  0.12700000000E+01 0. -1.
         -4   -1    0    0    0  501 -0.00000000000E+00 -0.00000000000E+00 -0.50480270260E+02  0.50496243281E+02  0.12700000000E+01 0. -1.
         25    2    1    2    0    0  0.00000000000E+00  0.00000000000E+00  0.26872481836E+02  0.12785942029E+03  0.12500360425E+03 0.  0.
    9000005    1    3    3    0    0  0.62122873500E+02 -0.58753987940E+01  0.16935442278E+02  0.64665144615E+02  0.10000000000E+01 0.  0.
    9000005    1    3    3    0    0 -0.62122873500E+02  0.58753987940E+01  0.99370395581E+01  0.63194275675E+02  0.10000000000E+01 0.  0.
<mgrwt>
<rscale>  0 0.12500360E+03</rscale>
<asrwt>0</asrwt>
<pdfrwt beam="1">  1        4 0.19341488E-01 0.12500360E+03</pdfrwt>
<pdfrwt beam="2">  1       -4 0.12623367E-01 0.12500360E+03</pdfrwt>
<totfact> 0.19678531E+03</totfact>
</mgrwt>
</event>
<event>
 5    1  0.1446384E-002  0.1250003E+03  0.7818608E-02  0.1235069E+00
         -4   -1    0    0    0  501 -0.00000000000E+00  0.00000000000E+00  0.30083321582E+03  0.30083589653E+03  0.12700000000E+01 0. -1.
          4   -1    0    0  501    0  0.00000000000E+00 -0.00000000000E+00 -0.12951030851E+02  0.13013151044E+02  0.12700000000E+01 0. -1.
         25    2    1    2    0    0  0.00000000000E+00  0.00000000000E+00  0.28788218497E+03  0.31384904757E+03  0.12500028896E+03 0.  0.
    9000005    1    3    3    0    0  0.25963979703E+02 -0.42832521388E+02  0.23776912065E+03  0.24298952213E+03  0.10000000000E+01 0.  0.
    9000005    1    3    3    0    0 -0.25963979703E+02  0.42832521388E+02  0.50113064315E+02  0.70859525439E+02  0.10000000000E+01 0.  0.
<mgrwt>
<rscale>  0 0.12500029E+03</rscale>
<asrwt>0</asrwt>
<pdfrwt beam="2">  1        4 0.32458578E-02 0.12500029E+03</pdfrwt>
<pdfrwt beam="1">  1       -4 0.75216405E-01 0.12500029E+03</pdfrwt>
<totfact> 0.12591516E+03</totfact>
</mgrwt>
</event>
<event>
 5    1  0.1446384E-002  0.1250021E+03  0.7818608E-02  0.1235066E+00
          4   -1    0    0  501    0  0.00000000000E+00  0.00000000000E+00  0.21042850054E+03  0.21043233293E+03  0.12700000000E+01 0. -1.
         -4   -1    0    0    0  501 -0.00000000000E+00 -0.00000000000E+00 -0.18538194341E+02  0.18581645498E+02  0.12700000000E+01 0. -1.
         25    2    1    2    0    0  0.00000000000E+00  0.00000000000E+00  0.19189030620E+03  0.22901397843E+03  0.12500205078E+03 0.  0.
    9000005    1    3    3    0    0 -0.54459603045E+02 -0.64630403463E+01  0.15083913286E+03  0.16050253349E+03  0.10000000000E+01 0.  0.
    9000005    1    3    3    0    0  0.54459603045E+02  0.64630403463E+01  0.41051173340E+02  0.68511444934E+02  0.10000000000E+01 0.  0.
<mgrwt>
<rscale>  0 0.12500205E+03</rscale>
<asrwt>0</asrwt>
<pdfrwt beam="1">  1        4 0.52613035E-01 0.12500205E+03</pdfrwt>
<pdfrwt beam="2">  1       -4 0.46404591E-02 0.12500205E+03</pdfrwt>
<totfact> 0.15221889E+03</totfact>
</mgrwt>
</event>
<event>
 5    1  0.1446384E-002  0.1249974E+03  0.7818608E-02  0.1235073E+00
         -4   -1    0    0    0  501 -0.00000000000E+00  0.00000000000E+00  0.45164618187E+02  0.45182470450E+02  0.12700000000E+01 0. -1.
          4   -1    0    0  501    0  0.00000000000E+00 -0.00000000000E+00 -0.86445898289E+02  0.86455226742E+02  0.12700000000E+01 0. -1.
         25    2    1    2    0    0  0.00000000000E+00  0.00000000000E+00 -0.41281280102E+02  0.13163769719E+03  0.12499735691E+03 0.  0.
    9000005    1    3    3    0    0  0.33370348516E+02 -0.51639737389E+02 -0.32407486951E+02  0.69508904812E+02  0.10000000000E+01 0.  0.
    9000005    1    3    3    0    0 -0.33370348516E+02  0.51639737389E+02 -0.88737931514E+01  0.62128792380E+02  0.10000000000E+01 0.  0.
<mgrwt>
<rscale>  0 0.12499736E+03</rscale>
<asrwt>0</asrwt>
<pdfrwt beam="2">  1        4 0.21614872E-01 0.12499736E+03</pdfrwt>
<pdfrwt beam="1">  1       -4 0.11294552E-01 0.12499736E+03</pdfrwt>
<totfact> 0.19477941E+03</totfact>
</mgrwt>
</event>
<event>
 5    1  0.1446384E-002  0.1250048E+03  0.7818608E-02  0.1235062E+00
         -4   -1    0    0    0  501 -0.00000000000E+00  0.00000000000E+00  0.14639085876E+03  0.14639636754E+03  0.12700000000E+01 0. -1.
          4   -1    0    0  501    0  0.00000000000E+00 -0.00000000000E+00 -0.26664627082E+02  0.26694854138E+02  0.12700000000E+01 0. -1.
         25    2    1    2    0    0  0.00000000000E+00  0.00000000000E+00  0.11972623168E+03  0.17309122168E+03  0.12500480179E+03 0.  0.
    9000005    1    3    3    0    0 -0.17864970130E+02  0.51188431954E+02  0.10290267290E+03  0.11631583217E+03  0.10000000000E+01 0.  0.
    9000005    1    3    3    0    0  0.17864970130E+02 -0.51188431954E+02  0.16823558779E+02  0.56775389507E+02  0.10000000000E+01 0.  0.
<mgrwt>
<rscale>  0 0.12500480E+03</rscale>
<asrwt>0</asrwt>
<pdfrwt beam="2">  1        4 0.66706239E-02 0.12500480E+03</pdfrwt>
<pdfrwt beam="1">  1       -4 0.36602181E-01 0.12500480E+03</pdfrwt>
<totfact> 0.17456570E+03</totfact>
</mgrwt>
</event>
<event>
 5    1  0.1446384E-002  0.1250017E+03  0.7818608E-02  0.1235067E+00
          4   -1    0    0  501    0  0.00000000000E+00  0.00000000000E+00  0.18939182084E+03  0.18939607889E+03  0.12700000000E+01 0.  1.
         -4   -1    0    0    0  501 -0.00000000000E+00 -0.00000000000E+00 -0.20601748955E+02  0.20640856572E+02  0.12700000000E+01 0.  1.
         25    2    1    2    0    0  0.00000000000E+00  0.00000000000E+00  0.16879007188E+03  0.21003693546E+03  0.12500170356E+03 0.  0.
    9000005    1    3    3    0    0  0.34038846355E+02 -0.50510565891E+02  0.60907484863E+02  0.86143380710E+02  0.10000000000E+01 0.  0.
    9000005    1    3    3    0    0 -0.34038846355E+02  0.50510565891E+02  0.10788258702E+03  0.12389355475E+03  0.10000000000E+01 0.  0.
<mgrwt>
<rscale>  0 0.12500170E+03</rscale>
<asrwt>0</asrwt>
<pdfrwt beam="1">  1        4 0.47353374E-01 0.12500170E+03</pdfrwt>
<pdfrwt beam="2">  1       -4 0.51558581E-02 0.12500170E+03</pdfrwt>
<totfact> 0.15927257E+03</totfact>
</mgrwt>
</event>
<event>
 5    1  0.1446384E-002  0.1250023E+03  0.7818608E-02  0.1235066E+00
         -4   -1    0    0    0  501 -0.00000000000E+00  0.00000000000E+00  0.13235055853E+02  0.13295849105E+02  0.12700000000E+01 0. -1.
          4   -1    0    0  501    0  0.00000000000E+00 -0.00000000000E+00 -0.29441649808E+03  0.29441923721E+03  0.12700000000E+01 0. -1.
         25    2    1    2    0    0  0.00000000000E+00  0.00000000000E+00 -0.28118144222E+03  0.30771508631E+03  0.12500228356E+03 0.  0.
    9000005    1    3    3    0    0  0.59279084083E+02 -0.19066685437E+02 -0.15358044541E+03  0.16572719003E+03  0.10000000000E+01 0.  0.
    9000005    1    3    3    0    0 -0.59279084083E+02  0.19066685437E+02 -0.12760099681E+03  0.14198789628E+03  0.10000000000E+01 0.  0.
<mgrwt>
<rscale>  0 0.12500228E+03</rscale>
<asrwt>0</asrwt>
<pdfrwt beam="2">  1        4 0.73612045E-01 0.12500228E+03</pdfrwt>
<pdfrwt beam="1">  1       -4 0.33167065E-02 0.12500228E+03</pdfrwt>
<totfact> 0.12756884E+03</totfact>
</mgrwt>
</event>
<event>
 5    1  0.1446384E-002  0.1250110E+03  0.7818608E-02  0.1235052E+00
         -4   -1    0    0    0  501 -0.00000000000E+00  0.00000000000E+00  0.30258355472E+03  0.30258621992E+03  0.12700000000E+01 0.  1.
          4   -1    0    0  501    0  0.00000000000E+00 -0.00000000000E+00 -0.12877966409E+02  0.12940437351E+02  0.12700000000E+01 0.  1.
         25    2    1    2    0    0  0.00000000000E+00  0.00000000000E+00  0.28970558831E+03  0.31552665727E+03  0.12501097372E+03 0.  0.
    9000005    1    3    3    0    0 -0.20926311299E+02  0.34091305893E+02  0.26605192699E+03  0.26904415157E+03  0.10000000000E+01 0.  0.
    9000005    1    3    3    0    0  0.20926311299E+02 -0.34091305893E+02  0.23653661321E+02  0.46482505698E+02  0.10000000000E+01 0.  0.
<mgrwt>
<rscale>  0 0.12501097E+03</rscale>
<asrwt>0</asrwt>
<pdfrwt beam="2">  1        4 0.32276337E-02 0.12501097E+03</pdfrwt>
<pdfrwt beam="1">  1       -4 0.75654030E-01 0.12501097E+03</pdfrwt>
<totfact> 0.12543635E+03</totfact>
</mgrwt>
</event>
<event>
 5    1  0.1446384E-002  0.1250141E+03  0.7818608E-02  0.1235047E+00
          4   -1    0    0  501    0  0.00000000000E+00  0.00000000000E+00  0.32284196179E+01  0.34692352513E+01  0.12700000000E+01 0.  1.
         -4   -1    0    0    0  501 -0.00000000000E+00 -0.00000000000E+00 -0.11664758847E+04  0.11664765760E+04  0.12700000000E+01 0.  1.
         25    2    1    2    0    0  0.00000000000E+00  0.00000000000E+00 -0.11632474651E+04  0.11699458113E+04  0.12501414470E+03 0.  0.
    9000005    1    3    3    0    0 -0.54893223704E+02  0.28879351015E+02 -0.65341707012E+03  0.65635520143E+03  0.10000000000E+01 0.  0.
    9000005    1    3    3    0    0  0.54893223704E+02 -0.28879351015E+02 -0.50983039495E+03  0.51359060986E+03  0.10000000000E+01 0.  0.
<mgrwt>
<rscale>  0 0.12501414E+03</rscale>
<asrwt>0</asrwt>
<pdfrwt beam="1">  1        4 0.83729728E-03 0.12501414E+03</pdfrwt>
<pdfrwt beam="2">  1       -4 0.29164777E+00 0.12501414E+03</pdfrwt>
<totfact> 0.26797084E+02</totfact>
</mgrwt>
</event>
<event>
 4    1  0.1446384E-002  0.1251010E+03  0.7818608E-02  0.1234912E+00
          4   -1    0    0  501    0  0.00000000000E+00  0.00000000000E+00  0.55078070779E+02  0.55092710776E+02  0.12700000000E+01 0. -1.
         -4   -1    0    0    0  501 -0.00000000000E+00 -0.00000000000E+00 -0.71006946360E+02  0.71018302791E+02  0.12700000000E+01 0. -1.
    9000005    1    1    2    0    0 -0.15210256752E+02  0.22009197898E+02 -0.64952329918E+02  0.70253554105E+02  0.10000000000E+01 0.  0.
    9000005    1    1    2    0    0  0.15210256752E+02 -0.22009197898E+02  0.49023454337E+02  0.55857459463E+02  0.10000000000E+01 0.  0.
<mgrwt>
<rscale>  0 0.12510099E+03</rscale>
<asrwt>0</asrwt>
<pdfrwt beam="1">  1        4 0.13772767E-01 0.12510099E+03</pdfrwt>
<pdfrwt beam="2">  1       -4 0.17754986E-01 0.12510099E+03</pdfrwt>
<totfact> 0.19728277E+03</totfact>
</mgrwt>
</event>
<event>
 5    1  0.1446384E-002  0.1250001E+03  0.7818608E-02  0.1235069E+00
          4   -1    0    0  501    0  0.00000000000E+00  0.00000000000E+00  0.48383641822E+02  0.48400306776E+02  0.12700000000E+01 0.  1.
         -4   -1    0    0    0  501 -0.00000000000E+00 -0.00000000000E+00 -0.80699466682E+02  0.80709459314E+02  0.12700000000E+01 0.  1.
         25    2    1    2    0    0  0.00000000000E+00  0.00000000000E+00 -0.32315824859E+02  0.12910976609E+03  0.12500007665E+03 0.  0.
    9000005    1    3    3    0    0  0.13841905661E+02  0.50719039359E+02  0.18734937969E+02  0.55821297070E+02  0.10000000000E+01 0.  0.
    9000005    1    3    3    0    0 -0.13841905661E+02 -0.50719039359E+02 -0.51050762828E+02  0.73288469019E+02  0.10000000000E+01 0.  0.
<mgrwt>
<rscale>  0 0.12500008E+03</rscale>
<asrwt>0</asrwt>
<pdfrwt beam="1">  1        4 0.12099243E-01 0.12500008E+03</pdfrwt>
<pdfrwt beam="2">  1       -4 0.20178199E-01 0.12500008E+03</pdfrwt>
<totfact> 0.19612327E+03</totfact>
</mgrwt>
</event>
<event>
 5    1  0.1446384E-002  0.1249981E+03  0.7818608E-02  0.1235072E+00
         -4   -1    0    0    0  501 -0.00000000000E+00  0.00000000000E+00  0.10522966969E+02  0.10599327046E+02  0.12700000000E+01 0. -1.
          4   -1    0    0  501    0  0.00000000000E+00 -0.00000000000E+00 -0.36978129775E+03  0.36978347862E+03  0.12700000000E+01 0. -1.
         25    2    1    2    0    0  0.00000000000E+00  0.00000000000E+00 -0.35925833078E+03  0.38038280567E+03  0.12499812245E+03 0.  0.
    9000005    1    3    3    0    0  0.31612779015E+02  0.30444124066E+02 -0.31500200065E+03  0.31804633767E+03  0.10000000000E+01 0.  0.
    9000005    1    3    3    0    0 -0.31612779015E+02 -0.30444124066E+02 -0.44256330124E+02  0.62336468004E+02  0.10000000000E+01 0.  0.
<mgrwt>
<rscale>  0 0.12499812E+03</rscale>
<asrwt>0</asrwt>
<pdfrwt beam="2">  1        4 0.92455099E-01 0.12499812E+03</pdfrwt>
<pdfrwt beam="1">  1       -4 0.26405606E-02 0.12499812E+03</pdfrwt>
<totfact> 0.10985236E+03</totfact>
</mgrwt>
</event>
<event>
 5    1  0.1446384E-002  0.1249960E+03  0.7818608E-02  0.1235075E+00
          4   -1    0    0  501    0  0.00000000000E+00  0.00000000000E+00  0.30302842773E+03  0.30303108901E+03  0.12700000000E+01 0.  1.
         -4   -1    0    0    0  501 -0.00000000000E+00 -0.00000000000E+00 -0.12855877392E+02  0.12918455152E+02  0.12700000000E+01 0.  1.
         25    2    1    2    0    0  0.00000000000E+00  0.00000000000E+00  0.29017255033E+03  0.31594954417E+03  0.12499602190E+03 0.  0.
    9000005    1    3    3    0    0  0.27061388058E+02  0.51599738226E+02  0.87994921000E+02  0.10554126127E+03  0.10000000000E+01 0.  0.
    9000005    1    3    3    0    0 -0.27061388058E+02 -0.51599738226E+02  0.20217762933E+03  0.21040828290E+03  0.10000000000E+01 0.  0.
<mgrwt>
<rscale>  0 0.12499602E+03</rscale>
<asrwt>0</asrwt>
<pdfrwt beam="1">  1        4 0.75765257E-01 0.12499602E+03</pdfrwt>
<pdfrwt beam="2">  1       -4 0.32221244E-02 0.12499602E+03</pdfrwt>
<totfact> 0.12536669E+03</totfact>
</mgrwt>
</event>
<event>
 5    1  0.1446384E-002  0.1249994E+03  0.7818608E-02  0.1235070E+00
         -4   -1    0    0    0  501 -0.00000000000E+00  0.00000000000E+00  0.12638192567E+03  0.12638830656E+03  0.12700000000E+01 0.  1.
          4   -1    0    0  501    0  0.00000000000E+00 -0.00000000000E+00 -0.30887790545E+02  0.30913888542E+02  0.12700000000E+01 0.  1.
         25    2    1    2    0    0  0.00000000000E+00  0.00000000000E+00  0.95494135125E+02  0.15730219511E+03  0.12499940297E+03 0.  0.
    9000005    1    3    3    0    0  0.33465459066E+01 -0.55775203950E+02  0.82963595125E+02  0.10003014976E+03  0.10000000000E+01 0.  0.
    9000005    1    3    3    0    0 -0.33465459066E+01  0.55775203950E+02  0.12530539999E+02  0.57272045344E+02  0.10000000000E+01 0.  0.
<mgrwt>
<rscale>  0 0.12499940E+03</rscale>
<asrwt>0</asrwt>
<pdfrwt beam="2">  1        4 0.77260076E-02 0.12499940E+03</pdfrwt>
<pdfrwt beam="1">  1       -4 0.31599541E-01 0.12499940E+03</pdfrwt>
<totfact> 0.18185713E+03</totfact>
</mgrwt>
</event>
<event>
 5    1  0.1446384E-002  0.1249943E+03  0.7818608E-02  0.1235078E+00
         -4   -1    0    0    0  501 -0.00000000000E+00  0.00000000000E+00  0.19052495891E+02  0.19094776764E+02  0.12700000000E+01 0. -1.
          4   -1    0    0  501    0  0.00000000000E+00 -0.00000000000E+00 -0.20473547760E+03  0.20473941655E+03  0.12700000000E+01 0. -1.
         25    2    1    2    0    0  0.00000000000E+00  0.00000000000E+00 -0.18568298171E+03  0.22383419332E+03  0.12499430547E+03 0.  0.
    9000005    1    3    3    0    0 -0.18065717781E+02 -0.59795103048E+02 -0.89704042735E+02  0.10931440797E+03  0.10000000000E+01 0.  0.
    9000005    1    3    3    0    0  0.18065717781E+02  0.59795103048E+02 -0.95978938978E+02  0.11451978534E+03  0.10000000000E+01 0.  0.
<mgrwt>
<rscale>  0 0.12499431E+03</rscale>
<asrwt>0</asrwt>
<pdfrwt beam="2">  1        4 0.51189640E-01 0.12499431E+03</pdfrwt>
<pdfrwt beam="1">  1       -4 0.47689021E-02 0.12499431E+03</pdfrwt>
<totfact> 0.15412186E+03</totfact>
</mgrwt>
</event>
<event>
 5    1  0.1446384E-002  0.1249994E+03  0.7818608E-02  0.1235070E+00
         -4   -1    0    0    0  501 -0.00000000000E+00  0.00000000000E+00  0.13441186991E+03  0.13441786962E+03  0.12700000000E+01 0.  1.
          4   -1    0    0  501    0  0.00000000000E+00 -0.00000000000E+00 -0.29041010577E+02  0.29068766663E+02  0.12700000000E+01 0.  1.
         25    2    1    2    0    0  0.00000000000E+00  0.00000000000E+00  0.10537085934E+03  0.16348663628E+03  0.12499944898E+03 0.  0.
    9000005    1    3    3    0    0  0.21203697000E+01  0.54687544470E+02  0.92139604483E+02  0.10717243210E+03  0.10000000000E+01 0.  0.
    9000005    1    3    3    0    0 -0.21203697000E+01 -0.54687544470E+02  0.13231254852E+02  0.56314204183E+02  0.10000000000E+01 0.  0.
<mgrwt>
<rscale>  0 0.12499945E+03</rscale>
<asrwt>0</asrwt>
<pdfrwt beam="2">  1        4 0.72644724E-02 0.12499945E+03</pdfrwt>
<pdfrwt beam="1">  1       -4 0.33607186E-01 0.12499945E+03</pdfrwt>
<totfact> 0.17895121E+03</totfact>
</mgrwt>
</event>
<event>
 5    1  0.1446384E-002  0.1250009E+03  0.7818608E-02  0.1235068E+00
         -4   -1    0    0    0  501 -0.00000000000E+00  0.00000000000E+00  0.57796289967E+01  0.59175173290E+01  0.12700000000E+01 0. -1.
          4   -1    0    0  501    0  0.00000000000E+00 -0.00000000000E+00 -0.66776862276E+03  0.66776983044E+03  0.12700000000E+01 0. -1.
         25    2    1    2    0    0  0.00000000000E+00  0.00000000000E+00 -0.66198899376E+03  0.67368734776E+03  0.12500085871E+03 0.  0.
    9000005    1    3    3    0    0  0.56673471440E+01 -0.56495314806E+02 -0.19030329698E+03  0.19859552930E+03  0.10000000000E+01 0.  0.
    9000005    1    3    3    0    0 -0.56673471440E+01  0.56495314806E+02 -0.47168569678E+03  0.47509181846E+03  0.10000000000E+01 0.  0.
<mgrwt>
<rscale>  0 0.12500086E+03</rscale>
<asrwt>0</asrwt>
<pdfrwt beam="2">  1        4 0.16695928E+00 0.12500086E+03</pdfrwt>
<pdfrwt beam="1">  1       -4 0.14622965E-02 0.12500086E+03</pdfrwt>
<totfact> 0.64863374E+02</totfact>
</mgrwt>
</event>
<event>
 5    1  0.1446384E-002  0.1249985E+03  0.7818608E-02  0.1235072E+00
          4   -1    0    0  501    0  0.00000000000E+00  0.00000000000E+00  0.15872498782E+03  0.15873006854E+03  0.12700000000E+01 0. -1.
         -4   -1    0    0    0  501 -0.00000000000E+00 -0.00000000000E+00 -0.24587708891E+02  0.24620485952E+02  0.12700000000E+01 0. -1.
         25    2    1    2    0    0  0.00000000000E+00  0.00000000000E+00  0.13413727893E+03  0.18335055449E+03  0.12499846493E+03 0.  0.
    9000005    1    3    3    0    0 -0.44193906228E+02 -0.12439989329E+02  0.48833357298E+01  0.46181182857E+02  0.10000000000E+01 0.  0.
    9000005    1    3    3    0    0  0.44193906228E+02  0.12439989329E+02  0.12925394320E+03  0.13716937164E+03  0.10000000000E+01 0.  0.
<mgrwt>
<rscale>  0 0.12499846E+03</rscale>
<asrwt>0</asrwt>
<pdfrwt beam="1">  1        4 0.39685978E-01 0.12499846E+03</pdfrwt>
<pdfrwt beam="2">  1       -4 0.61516596E-02 0.12499846E+03</pdfrwt>
<totfact> 0.17011747E+03</totfact>
</mgrwt>
</event>
<event>
 5    1  0.1446384E-002  0.1249995E+03  0.7818608E-02  0.1235070E+00
          4   -1    0    0  501    0  0.00000000000E+00  0.00000000000E+00  0.47299618349E+01  0.48974931301E+01  0.12700000000E+01 0. -1.
         -4   -1    0    0    0  501 -0.00000000000E+00 -0.00000000000E+00 -0.81130691193E+03  0.81130790594E+03  0.12700000000E+01 0. -1.
         25    2    1    2    0    0  0.00000000000E+00  0.00000000000E+00 -0.80657695010E+03  0.81620539907E+03  0.12499950820E+03 0.  0.
    9000005    1    3    3    0    0  0.61839114193E+02 -0.90037707884E+01 -0.40149631934E+03  0.40633168518E+03  0.10000000000E+01 0.  0.
    9000005    1    3    3    0    0 -0.61839114193E+02  0.90037707884E+01 -0.40508063075E+03  0.40987371390E+03  0.10000000000E+01 0.  0.
<mgrwt>
<rscale>  0 0.12499951E+03</rscale>
<asrwt>0</asrwt>
<pdfrwt beam="1">  1        4 0.12035589E-02 0.12499951E+03</pdfrwt>
<pdfrwt beam="2">  1       -4 0.20284733E+00 0.12499951E+03</pdfrwt>
<totfact> 0.51066232E+02</totfact>
</mgrwt>
</event>
<event>
 5    1  0.1446384E-002  0.1249996E+03  0.7818608E-02  0.1235070E+00
          4   -1    0    0  501    0  0.00000000000E+00  0.00000000000E+00  0.97474535846E+01  0.98298398452E+01  0.12700000000E+01 0. -1.
         -4   -1    0    0    0  501 -0.00000000000E+00 -0.00000000000E+00 -0.39897307960E+03  0.39897510091E+03  0.12700000000E+01 0. -1.
         25    2    1    2    0    0  0.00000000000E+00  0.00000000000E+00 -0.38922562601E+03  0.40880494075E+03  0.12499956655E+03 0.  0.
    9000005    1    3    3    0    0  0.39577092068E+02  0.18009948894E+02 -0.34140172511E+03  0.34416107040E+03  0.10000000000E+01 0.  0.
    9000005    1    3    3    0    0 -0.39577092068E+02 -0.18009948894E+02 -0.47823900907E+02  0.64643870349E+02  0.10000000000E+01 0.  0.
<mgrwt>
<rscale>  0 0.12499957E+03</rscale>
<asrwt>0</asrwt>
<pdfrwt beam="1">  1        4 0.24474157E-02 0.12499957E+03</pdfrwt>
<pdfrwt beam="2">  1       -4 0.99753766E-01 0.12499957E+03</pdfrwt>
<totfact> 0.10390157E+03</totfact>
</mgrwt>
</event>
<event>
 5    1  0.1446384E-002  0.1249988E+03  0.7818608E-02  0.1235071E+00
          4   -1    0    0  501    0  0.00000000000E+00  0.00000000000E+00  0.19222672793E+02  0.19264580174E+02  0.12700000000E+01 0. -1.
         -4   -1    0    0    0  501 -0.00000000000E+00 -0.00000000000E+00 -0.20294133998E+03  0.20294531375E+03  0.12700000000E+01 0. -1.
         25    2    1    2    0    0  0.00000000000E+00  0.00000000000E+00 -0.18371866719E+03  0.22220989393E+03  0.12499875313E+03 0.  0.
    9000005    1    3    3    0    0 -0.41119090135E+02  0.46538719607E+02 -0.79473993613E+02  0.10086499718E+03  0.10000000000E+01 0.  0.
    9000005    1    3    3    0    0  0.41119090135E+02 -0.46538719607E+02 -0.10424467358E+03  0.12134489674E+03  0.10000000000E+01 0.  0.
<mgrwt>
<rscale>  0 0.12499875E+03</rscale>
<asrwt>0</asrwt>
<pdfrwt beam="1">  1        4 0.48114040E-02 0.12499875E+03</pdfrwt>
<pdfrwt beam="2">  1       -4 0.50741063E-01 0.12499875E+03</pdfrwt>
<totfact> 0.15470168E+03</totfact>
</mgrwt>
</event>
<event>
 5    1  0.1446384E-002  0.1250017E+03  0.7818608E-02  0.1235067E+00
          4   -1    0    0  501    0  0.00000000000E+00  0.00000000000E+00  0.28099754058E+01  0.30836442371E+01  0.12700000000E+01 0.  1.
         -4   -1    0    0    0  501 -0.00000000000E+00 -0.00000000000E+00 -0.13253475311E+04  0.13253481396E+04  0.12700000000E+01 0.  1.
         25    2    1    2    0    0  0.00000000000E+00  0.00000000000E+00 -0.13225375557E+04  0.13284317839E+04  0.12500167215E+03 0.  0.
    9000005    1    3    3    0    0  0.51709780296E+02 -0.46420401042E+01 -0.29161172357E+03  0.29619899938E+03  0.10000000000E+01 0.  0.
    9000005    1    3    3    0    0 -0.51709780296E+02  0.46420401042E+01 -0.10309258322E+04  0.10322327845E+04  0.10000000000E+01 0.  0.
<mgrwt>
<rscale>  0 0.12500167E+03</rscale>
<asrwt>0</asrwt>
<pdfrwt beam="1">  1        4 0.73678306E-03 0.12500167E+03</pdfrwt>
<pdfrwt beam="2">  1       -4 0.33136912E+00 0.12500167E+03</pdfrwt>
<totfact> 0.19047934E+02</totfact>
</mgrwt>
</event>
<event>
 5    1  0.1446384E-002  0.1250013E+03  0.7818608E-02  0.1235067E+00
          4   -1    0    0  501    0  0.00000000000E+00  0.00000000000E+00  0.20444541892E+02  0.20483949647E+02  0.12700000000E+01 0. -1.
         -4   -1    0    0    0  501 -0.00000000000E+00 -0.00000000000E+00 -0.19084419919E+03  0.19084842484E+03  0.12700000000E+01 0. -1.
         25    2    1    2    0    0  0.00000000000E+00  0.00000000000E+00 -0.17039965730E+03  0.21133237449E+03  0.12500131719E+03 0.  0.
    9000005    1    3    3    0    0 -0.16193417358E+02 -0.52115178426E+02 -0.33722268904E+02  0.64159255046E+02  0.10000000000E+01 0.  0.
    9000005    1    3    3    0    0  0.16193417358E+02  0.52115178426E+02 -0.13667738839E+03  0.14717311944E+03  0.10000000000E+01 0.  0.
<mgrwt>
<rscale>  0 0.12500132E+03</rscale>
<asrwt>0</asrwt>
<pdfrwt beam="1">  1        4 0.51165902E-02 0.12500132E+03</pdfrwt>
<pdfrwt beam="2">  1       -4 0.47716499E-01 0.12500132E+03</pdfrwt>
<totfact> 0.15877630E+03</totfact>
</mgrwt>
</event>
<event>
 5    1  0.1446384E-002  0.1249928E+03  0.7818608E-02  0.1235081E+00
         -4   -1    0    0    0  501 -0.00000000000E+00  0.00000000000E+00  0.76026521305E+02  0.76037128048E+02  0.12700000000E+01 0.  1.
          4   -1    0    0  501    0  0.00000000000E+00 -0.00000000000E+00 -0.51352148275E+02  0.51367850184E+02  0.12700000000E+01 0.  1.
         25    2    1    2    0    0  0.00000000000E+00  0.00000000000E+00  0.24674373030E+02  0.12740497823E+03  0.12499281497E+03 0.  0.
    9000005    1    3    3    0    0  0.55921468646E+02 -0.26273012707E+02  0.28123843260E+01  0.61857831823E+02  0.10000000000E+01 0.  0.
    9000005    1    3    3    0    0 -0.55921468646E+02  0.26273012707E+02  0.21861988704E+02  0.65547146409E+02  0.10000000000E+01 0.  0.
<mgrwt>
<rscale>  0 0.12499281E+03</rscale>
<asrwt>0</asrwt>
<pdfrwt beam="2">  1        4 0.12841326E-01 0.12499281E+03</pdfrwt>
<pdfrwt beam="1">  1       -4 0.19009919E-01 0.12499281E+03</pdfrwt>
<totfact> 0.19708278E+03</totfact>
</mgrwt>
</event>
<event>
 5    1  0.1446384E-002  0.1250040E+03  0.7818608E-02  0.1235063E+00
          4   -1    0    0  501    0  0.00000000000E+00  0.00000000000E+00  0.62011967817E+02  0.62024971201E+02  0.12700000000E+01 0. -1.
         -4   -1    0    0    0  501 -0.00000000000E+00 -0.00000000000E+00 -0.62969911181E+02  0.62982716789E+02  0.12700000000E+01 0. -1.
         25    2    1    2    0    0  0.00000000000E+00  0.00000000000E+00 -0.95794336372E+00  0.12500768799E+03  0.12500401754E+03 0.  0.
    9000005    1    3    3    0    0  0.84295335907E+01  0.20024941853E+02  0.58118361028E+02  0.62054808205E+02  0.10000000000E+01 0.  0.
    9000005    1    3    3    0    0 -0.84295335907E+01 -0.20024941853E+02 -0.59076304391E+02  0.62952879786E+02  0.10000000000E+01 0.  0.
<mgrwt>
<rscale>  0 0.12500402E+03</rscale>
<asrwt>0</asrwt>
<pdfrwt beam="1">  1        4 0.15506218E-01 0.12500402E+03</pdfrwt>
<pdfrwt beam="2">  1       -4 0.15745704E-01 0.12500402E+03</pdfrwt>
<totfact> 0.19832774E+03</totfact>
</mgrwt>
</event>
<event>
 4    1  0.1446384E-002  0.1263511E+03  0.7818608E-02  0.1232973E+00
         -4   -1    0    0    0  501 -0.00000000000E+00  0.00000000000E+00  0.24378893626E+02  0.24411951058E+02  0.12700000000E+01 0. -1.
          4   -1    0    0  501    0  0.00000000000E+00 -0.00000000000E+00 -0.16356699449E+03  0.16357192481E+03  0.12700000000E+01 0. -1.
    9000005    1    1    2    0    0  0.16862158349E+02 -0.14848483043E+01 -0.16013694623E+03  0.16103222878E+03  0.10000000000E+01 0.  0.
    9000005    1    1    2    0    0 -0.16862158349E+02  0.14848483043E+01  0.20948845365E+02  0.26951647089E+02  0.10000000000E+01 0.  0.
<mgrwt>
<rscale>  0 0.12635114E+03</rscale>
<asrwt>0</asrwt>
<pdfrwt beam="2">  1        4 0.40896494E-01 0.12635114E+03</pdfrwt>
<pdfrwt beam="1">  1       -4 0.60994723E-02 0.12635114E+03</pdfrwt>
<totfact> 0.16299272E+03</totfact>
</mgrwt>
</event>
<event>
 5    1  0.1446384E-002  0.1249990E+03  0.7818608E-02  0.1235071E+00
          4   -1    0    0  501    0  0.00000000000E+00  0.00000000000E+00  0.55655402021E+01  0.57086020829E+01  0.12700000000E+01 0.  1.
         -4   -1    0    0    0  501 -0.00000000000E+00 -0.00000000000E+00 -0.69280302366E+03  0.69280418770E+03  0.12700000000E+01 0.  1.
         25    2    1    2    0    0  0.00000000000E+00  0.00000000000E+00 -0.68723748346E+03  0.69851278979E+03  0.12499903527E+03 0.  0.
    9000005    1    3    3    0    0  0.32416447449E+02  0.24834038761E+02 -0.60795835045E+03  0.60932906662E+03  0.10000000000E+01 0.  0.
    9000005    1    3    3    0    0 -0.32416447449E+02 -0.24834038761E+02 -0.79279133008E+02  0.89183723161E+02  0.10000000000E+01 0.  0.
<mgrwt>
<rscale>  0 0.12499904E+03</rscale>
<asrwt>0</asrwt>
<pdfrwt beam="1">  1        4 0.14094157E-02 0.12499904E+03</pdfrwt>
<pdfrwt beam="2">  1       -4 0.17321849E+00 0.12499904E+03</pdfrwt>
<totfact> 0.62222172E+02</totfact>
</mgrwt>
</event>
<event>
 5    1  0.1446384E-002  0.1250097E+03  0.7818608E-02  0.1235054E+00
          4   -1    0    0  501    0  0.00000000000E+00  0.00000000000E+00  0.54248305015E+03  0.54248453674E+03  0.12700000000E+01 0.  1.
         -4   -1    0    0    0  501 -0.00000000000E+00 -0.00000000000E+00 -0.71443083833E+01  0.72563105140E+01  0.12700000000E+01 0.  1.
         25    2    1    2    0    0  0.00000000000E+00  0.00000000000E+00  0.53533874177E+03  0.54974084726E+03  0.12500972243E+03 0.  0.
    9000005    1    3    3    0    0 -0.32413296135E+01 -0.30728782736E+02  0.50656361812E+03  0.50750612165E+03  0.10000000000E+01 0.  0.
    9000005    1    3    3    0    0  0.32413296135E+01  0.30728782736E+02  0.28775123647E+02  0.42234725605E+02  0.10000000000E+01 0.  0.
<mgrwt>
<rscale>  0 0.12500972E+03</rscale>
<asrwt>0</asrwt>
<pdfrwt beam="1">  1        4 0.13563495E+00 0.12500972E+03</pdfrwt>
<pdfrwt beam="2">  1       -4 0.18002631E-02 0.12500972E+03</pdfrwt>
<totfact> 0.80185202E+02</totfact>
</mgrwt>
</event>
<event>
 5    1  0.1446384E-002  0.1249956E+03  0.7818608E-02  0.1235076E+00
          4   -1    0    0  501    0  0.00000000000E+00  0.00000000000E+00  0.19052257524E+03  0.19052680802E+03  0.12700000000E+01 0.  1.
         -4   -1    0    0    0  501 -0.00000000000E+00 -0.00000000000E+00 -0.20477234621E+02  0.20516579582E+02  0.12700000000E+01 0.  1.
         25    2    1    2    0    0  0.00000000000E+00  0.00000000000E+00  0.17004534062E+03  0.21104338760E+03  0.12499557427E+03 0.  0.
    9000005    1    3    3    0    0 -0.46978816482E+02 -0.93848148589E+01  0.15276734166E+03  0.16010604182E+03  0.10000000000E+01 0.  0.
    9000005    1    3    3    0    0  0.46978816482E+02  0.93848148589E+01  0.17277998954E+02  0.50937345787E+02  0.10000000000E+01 0.  0.
<mgrwt>
<rscale>  0 0.12499557E+03</rscale>
<asrwt>0</asrwt>
<pdfrwt beam="1">  1        4 0.47636091E-01 0.12499557E+03</pdfrwt>
<pdfrwt beam="2">  1       -4 0.51247559E-02 0.12499557E+03</pdfrwt>
<totfact> 0.15890818E+03</totfact>
</mgrwt>
</event>
<event>
 5    1  0.1446384E-002  0.1249932E+03  0.7818608E-02  0.1235080E+00
          4   -1    0    0  501    0  0.00000000000E+00  0.00000000000E+00  0.21222404202E+02  0.21260370178E+02  0.12700000000E+01 0. -1.
         -4   -1    0    0    0  501 -0.00000000000E+00 -0.00000000000E+00 -0.18383802892E+03  0.18384241561E+03  0.12700000000E+01 0. -1.
         25    2    1    2    0    0  0.00000000000E+00  0.00000000000E+00 -0.16261562472E+03  0.20510278579E+03  0.12499324516E+03 0.  0.
    9000005    1    3    3    0    0 -0.50794589846E+02  0.34888032515E+02 -0.98326097251E+02  0.11604433020E+03  0.10000000000E+01 0.  0.
    9000005    1    3    3    0    0  0.50794589846E+02 -0.34888032515E+02 -0.64289527472E+02  0.89058455595E+02  0.10000000000E+01 0.  0.
<mgrwt>
<rscale>  0 0.12499325E+03</rscale>
<asrwt>0</asrwt>
<pdfrwt beam="1">  1        4 0.53108957E-02 0.12499325E+03</pdfrwt>
<pdfrwt beam="2">  1       -4 0.45964797E-01 0.12499325E+03</pdfrwt>
<totfact> 0.16122254E+03</totfact>
</mgrwt>
</event>
<event>
 5    1  0.1446384E-002  0.1249967E+03  0.7818608E-02  0.1235074E+00
          4   -1    0    0  501    0  0.00000000000E+00  0.00000000000E+00  0.44232842966E+02  0.44251071137E+02  0.12700000000E+01 0.  1.
         -4   -1    0    0    0  501 -0.00000000000E+00 -0.00000000000E+00 -0.88265383428E+02  0.88274519606E+02  0.12700000000E+01 0.  1.
         25    2    1    2    0    0  0.00000000000E+00  0.00000000000E+00 -0.44032540462E+02  0.13252559074E+03  0.12499667029E+03 0.  0.
    9000005    1    3    3    0    0 -0.43564441311E+02 -0.39009949895E+02  0.13426895048E+01  0.58501620085E+02  0.10000000000E+01 0.  0.
    9000005    1    3    3    0    0  0.43564441311E+02  0.39009949895E+02 -0.45375229967E+02  0.74023970658E+02  0.10000000000E+01 0.  0.
<mgrwt>
<rscale>  0 0.12499667E+03</rscale>
<asrwt>0</asrwt>
<pdfrwt beam="1">  1        4 0.11061631E-01 0.12499667E+03</pdfrwt>
<pdfrwt beam="2">  1       -4 0.22069766E-01 0.12499667E+03</pdfrwt>
<totfact> 0.19431053E+03</totfact>
</mgrwt>
</event>
<event>
 5    1  0.1446384E-002  0.1250022E+03  0.7818608E-02  0.1235066E+00
         -4   -1    0    0    0  501 -0.00000000000E+00  0.00000000000E+00  0.40631715890E+03  0.40631914368E+03  0.12700000000E+01 0.  1.
          4   -1    0    0  501    0  0.00000000000E+00 -0.00000000000E+00 -0.95701722548E+01  0.96540715238E+01  0.12700000000E+01 0.  1.
         25    2    1    2    0    0  0.00000000000E+00  0.00000000000E+00  0.39674698665E+03  0.41597321520E+03  0.12500217738E+03 0.  0.
    9000005    1    3    3    0    0  0.18773351032E+02  0.37444458573E+02  0.35270473508E+03  0.35518467919E+03  0.10000000000E+01 0.  0.
    9000005    1    3    3    0    0 -0.18773351032E+02 -0.37444458573E+02  0.44042251573E+02  0.60788536011E+02  0.10000000000E+01 0.  0.
<mgrwt>
<rscale>  0 0.12500218E+03</rscale>
<asrwt>0</asrwt>
<pdfrwt beam="2">  1        4 0.24032786E-02 0.12500218E+03</pdfrwt>
<pdfrwt beam="1">  1       -4 0.10159002E+00 0.12500218E+03</pdfrwt>
<totfact> 0.10245397E+03</totfact>
</mgrwt>
</event>
<event>
 5    1  0.1446384E-002  0.1250029E+03  0.7818608E-02  0.1235065E+00
          4   -1    0    0  501    0  0.00000000000E+00  0.00000000000E+00  0.14940317684E+03  0.14940857456E+03  0.12700000000E+01 0. -1.
         -4   -1    0    0    0  501 -0.00000000000E+00 -0.00000000000E+00 -0.26125600845E+02  0.26156450820E+02  0.12700000000E+01 0. -1.
         25    2    1    2    0    0  0.00000000000E+00  0.00000000000E+00  0.12327757600E+03  0.17556502538E+03  0.12500286953E+03 0.  0.
    9000005    1    3    3    0    0  0.21638835783E+02 -0.44155767659E+02  0.74710845725E+01  0.49747242499E+02  0.10000000000E+01 0.  0.
    9000005    1    3    3    0    0 -0.21638835783E+02  0.44155767659E+02  0.11580649143E+03  0.12581778288E+03  0.10000000000E+01 0.  0.
<mgrwt>
<rscale>  0 0.12500287E+03</rscale>
<asrwt>0</asrwt>
<pdfrwt beam="1">  1        4 0.37355325E-01 0.12500287E+03</pdfrwt>
<pdfrwt beam="2">  1       -4 0.65359312E-02 0.12500287E+03</pdfrwt>
<totfact> 0.17347768E+03</totfact>
</mgrwt>
</event>
<event>
 5    1  0.1446384E-002  0.1249998E+03  0.7818608E-02  0.1235070E+00
          4   -1    0    0  501    0  0.00000000000E+00  0.00000000000E+00  0.18412108158E+02  0.18455856166E+02  0.12700000000E+01 0. -1.
         -4   -1    0    0    0  501 -0.00000000000E+00 -0.00000000000E+00 -0.21185860493E+03  0.21186241144E+03  0.12700000000E+01 0. -1.
         25    2    1    2    0    0  0.00000000000E+00  0.00000000000E+00 -0.19344649677E+03  0.23031826761E+03  0.12499982913E+03 0.  0.
    9000005    1    3    3    0    0 -0.25580345293E+02 -0.13886169078E+02  0.51691854301E+01  0.29578712531E+02  0.10000000000E+01 0.  0.
    9000005    1    3    3    0    0  0.25580345293E+02  0.13886169078E+02 -0.19861568220E+03  0.20073955508E+03  0.10000000000E+01 0.  0.
<mgrwt>
<rscale>  0 0.12499983E+03</rscale>
<asrwt>0</asrwt>
<pdfrwt beam="1">  1        4 0.46089720E-02 0.12499983E+03</pdfrwt>
<pdfrwt beam="2">  1       -4 0.52970588E-01 0.12499983E+03</pdfrwt>
<totfact> 0.15176007E+03</totfact>
</mgrwt>
</event>
<event>
 5    1  0.1446384E-002  0.1249950E+03  0.7818608E-02  0.1235077E+00
         -4   -1    0    0    0  501 -0.00000000000E+00  0.00000000000E+00  0.64982737349E+02  0.64995146383E+02  0.12700000000E+01 0. -1.
          4   -1    0    0  501    0  0.00000000000E+00 -0.00000000000E+00 -0.60082410250E+02  0.60095831149E+02  0.12700000000E+01 0. -1.
         25    2    1    2    0    0  0.00000000000E+00  0.00000000000E+00  0.49003270988E+01  0.12509097753E+03  0.12499495772E+03 0.  0.
    9000005    1    3    3    0    0 -0.53719502050E+02  0.29890274586E+02 -0.87710074319E+01  0.62105909435E+02  0.10000000000E+01 0.  0.
    9000005    1    3    3    0    0  0.53719502050E+02 -0.29890274586E+02  0.13671334531E+02  0.62985068097E+02  0.10000000000E+01 0.  0.
<mgrwt>
<rscale>  0 0.12499496E+03</rscale>
<asrwt>0</asrwt>
<pdfrwt beam="2">  1        4 0.15023831E-01 0.12499496E+03</pdfrwt>
<pdfrwt beam="1">  1       -4 0.16248913E-01 0.12499496E+03</pdfrwt>
<totfact> 0.19832462E+03</totfact>
</mgrwt>
</event>
<event>
 5    1  0.1446384E-002  0.1250000E+03  0.7818608E-02  0.1235069E+00
          4   -1    0    0  501    0  0.00000000000E+00  0.00000000000E+00  0.77176046612E+03  0.77176151106E+03  0.12700000000E+01 0.  1.
         -4   -1    0    0    0  501 -0.00000000000E+00 -0.00000000000E+00 -0.49807483310E+01  0.51401122494E+01  0.12700000000E+01 0.  1.
         25    2    1    2    0    0  0.00000000000E+00  0.00000000000E+00  0.76677971779E+03  0.77690162331E+03  0.12499998680E+03 0.  0.
    9000005    1    3    3    0    0 -0.34848254815E+01 -0.58551670072E+02  0.51738604507E+03  0.52070122115E+03  0.10000000000E+01 0.  0.
    9000005    1    3    3    0    0  0.34848254815E+01  0.58551670072E+02  0.24939367271E+03  0.25620040216E+03  0.10000000000E+01 0.  0.
<mgrwt>
<rscale>  0 0.12499999E+03</rscale>
<asrwt>0</asrwt>
<pdfrwt beam="1">  1        4 0.19296022E+00 0.12499999E+03</pdfrwt>
<pdfrwt beam="2">  1       -4 0.12652378E-02 0.12499999E+03</pdfrwt>
<totfact> 0.54557290E+02</totfact>
</mgrwt>
</event>
<event>
 5    1  0.1446384E-002  0.1249991E+03  0.7818608E-02  0.1235071E+00
          4   -1    0    0  501    0  0.00000000000E+00  0.00000000000E+00  0.26690535955E+02  0.26720733702E+02  0.12700000000E+01 0. -1.
         -4   -1    0    0    0  501 -0.00000000000E+00 -0.00000000000E+00 -0.14623561109E+03  0.14624112572E+03  0.12700000000E+01 0. -1.
         25    2    1    2    0    0  0.00000000000E+00  0.00000000000E+00 -0.11954507514E+03  0.17296185942E+03  0.12499911930E+03 0.  0.
    9000005    1    3    3    0    0  0.34709156347E+02  0.83455997266E+01  0.11199780749E+02  0.37427391813E+02  0.10000000000E+01 0.  0.
    9000005    1    3    3    0    0 -0.34709156347E+02 -0.83455997266E+01 -0.13074485588E+03  0.13553446761E+03  0.10000000000E+01 0.  0.
<mgrwt>
<rscale>  0 0.12499912E+03</rscale>
<asrwt>0</asrwt>
<pdfrwt beam="1">  1        4 0.66770984E-02 0.12499912E+03</pdfrwt>
<pdfrwt beam="2">  1       -4 0.36563365E-01 0.12499912E+03</pdfrwt>
<totfact> 0.17464633E+03</totfact>
</mgrwt>
</event>
<event>
 5    1  0.1446384E-002  0.1250018E+03  0.7818608E-02  0.1235066E+00
         -4   -1    0    0    0  501 -0.00000000000E+00  0.00000000000E+00  0.50831397974E+03  0.50831556626E+03  0.12700000000E+01 0. -1.
          4   -1    0    0  501    0  0.00000000000E+00 -0.00000000000E+00 -0.76308635697E+01  0.77358243788E+01  0.12700000000E+01 0. -1.
         25    2    1    2    0    0  0.00000000000E+00  0.00000000000E+00  0.50068311617E+03  0.51605139064E+03  0.12500181982E+03 0.  0.
    9000005    1    3    3    0    0 -0.11500882644E+00  0.59764626144E+02  0.32573794991E+03  0.33117674402E+03  0.10000000000E+01 0.  0.
    9000005    1    3    3    0    0  0.11500882644E+00 -0.59764626144E+02  0.17494516626E+03  0.18487464662E+03  0.10000000000E+01 0.  0.
<mgrwt>
<rscale>  0 0.12500182E+03</rscale>
<asrwt>0</asrwt>
<pdfrwt beam="2">  1        4 0.19210344E-02 0.12500182E+03</pdfrwt>
<pdfrwt beam="1">  1       -4 0.12709181E+00 0.12500182E+03</pdfrwt>
<totfact> 0.85105561E+02</totfact>
</mgrwt>
</event>
<event>
 5    1  0.1446384E-002  0.1249974E+03  0.7818608E-02  0.1235073E+00
         -4   -1    0    0    0  501 -0.00000000000E+00  0.00000000000E+00  0.50509726181E+02  0.50525689890E+02  0.12700000000E+01 0. -1.
          4   -1    0    0  501    0  0.00000000000E+00 -0.00000000000E+00 -0.77299967078E+02  0.77310399108E+02  0.12700000000E+01 0. -1.
         25    2    1    2    0    0  0.00000000000E+00  0.00000000000E+00 -0.26790240897E+02  0.12783608900E+03  0.12499739454E+03 0.  0.
    9000005    1    3    3    0    0  0.53834951660E+02 -0.17516744569E+02  0.13664186718E+02  0.58247303449E+02  0.10000000000E+01 0.  0.
    9000005    1    3    3    0    0 -0.53834951660E+02  0.17516744569E+02 -0.40454427615E+02  0.69588785549E+02  0.10000000000E+01 0.  0.
<mgrwt>
<rscale>  0 0.12499739E+03</rscale>
<asrwt>0</asrwt>
<pdfrwt beam="2">  1        4 0.19328291E-01 0.12499739E+03</pdfrwt>
<pdfrwt beam="1">  1       -4 0.12630731E-01 0.12499739E+03</pdfrwt>
<totfact> 0.19682654E+03</totfact>
</mgrwt>
</event>
<event>
 5    1  0.1446384E-002  0.1250079E+03  0.7818608E-02  0.1235057E+00
         -4   -1    0    0    0  501 -0.00000000000E+00  0.00000000000E+00  0.17509947949E+02  0.17555944213E+02  0.12700000000E+01 0.  1.
          4   -1    0    0  501    0  0.00000000000E+00 -0.00000000000E+00 -0.22277502084E+03  0.22277864083E+03  0.12700000000E+01 0.  1.
         25    2    1    2    0    0  0.00000000000E+00  0.00000000000E+00 -0.20526507289E+03  0.24033458504E+03  0.12500785023E+03 0.  0.
    9000005    1    3    3    0    0  0.55789903396E+02  0.15228539692E+02 -0.57083014545E+02  0.81264335915E+02  0.10000000000E+01 0.  0.
    9000005    1    3    3    0    0 -0.55789903396E+02 -0.15228539692E+02 -0.14818205834E+03  0.15907024913E+03  0.10000000000E+01 0.  0.
<mgrwt>
<rscale>  0 0.12500785E+03</rscale>
<asrwt>0</asrwt>
<pdfrwt beam="2">  1        4 0.55699948E-01 0.12500785E+03</pdfrwt>
<pdfrwt beam="1">  1       -4 0.43836897E-02 0.12500785E+03</pdfrwt>
<totfact> 0.14822253E+03</totfact>
</mgrwt>
</event>
<event>
 5    1  0.1446384E-002  0.1250030E+03  0.7818608E-02  0.1235065E+00
          4   -1    0    0  501    0  0.00000000000E+00  0.00000000000E+00  0.19777061339E+02  0.19817796426E+02  0.12700000000E+01 0. -1.
         -4   -1    0    0    0  501 -0.00000000000E+00 -0.00000000000E+00 -0.19727782033E+03  0.19728190818E+03  0.12700000000E+01 0. -1.
         25    2    1    2    0    0  0.00000000000E+00  0.00000000000E+00 -0.17750075899E+03  0.21709970461E+03  0.12500304915E+03 0.  0.
    9000005    1    3    3    0    0  0.31365877452E+02  0.18495748400E+02 -0.54219501194E+00  0.36430824210E+02  0.10000000000E+01 0.  0.
    9000005    1    3    3    0    0 -0.31365877452E+02 -0.18495748400E+02 -0.17695856398E+03  0.18066888040E+03  0.10000000000E+01 0.  0.
<mgrwt>
<rscale>  0 0.12500305E+03</rscale>
<asrwt>0</asrwt>
<pdfrwt beam="1">  1        4 0.49498688E-02 0.12500305E+03</pdfrwt>
<pdfrwt beam="2">  1       -4 0.49325052E-01 0.12500305E+03</pdfrwt>
<totfact> 0.15658390E+03</totfact>
</mgrwt>
</event>
<event>
 5    1  0.1446384E-002  0.1249951E+03  0.7818608E-02  0.1235077E+00
          4   -1    0    0  501    0  0.00000000000E+00  0.00000000000E+00  0.94835230369E+02  0.94843733684E+02  0.12700000000E+01 0.  1.
         -4   -1    0    0    0  501 -0.00000000000E+00 -0.00000000000E+00 -0.41166488236E+02  0.41186073541E+02  0.12700000000E+01 0.  1.
         25    2    1    2    0    0  0.00000000000E+00  0.00000000000E+00  0.53668742132E+02  0.13602980722E+03  0.12499509819E+03 0.  0.
    9000005    1    3    3    0    0 -0.44330549001E+02  0.35780165460E+02  0.54782774548E+02  0.79041572620E+02  0.10000000000E+01 0.  0.
    9000005    1    3    3    0    0  0.44330549001E+02 -0.35780165460E+02 -0.11140324156E+01  0.56988234605E+02  0.10000000000E+01 0.  0.
<mgrwt>
<rscale>  0 0.12499510E+03</rscale>
<asrwt>0</asrwt>
<pdfrwt beam="1">  1        4 0.23712318E-01 0.12499510E+03</pdfrwt>
<pdfrwt beam="2">  1       -4 0.10295133E-01 0.12499510E+03</pdfrwt>
<totfact> 0.19247533E+03</totfact>
</mgrwt>
</event>
<event>
 5    1  0.1446384E-002  0.1249871E+03  0.7818608E-02  0.1235089E+00
          4   -1    0    0  501    0  0.00000000000E+00  0.00000000000E+00  0.14301144812E+03  0.14301708707E+03  0.12700000000E+01 0. -1.
         -4   -1    0    0    0  501 -0.00000000000E+00 -0.00000000000E+00 -0.27287655295E+02  0.27317192965E+02  0.12700000000E+01 0. -1.
         25    2    1    2    0    0  0.00000000000E+00  0.00000000000E+00  0.11572379283E+03  0.17033428003E+03  0.12498708225E+03 0.  0.
    9000005    1    3    3    0    0  0.31838300080E+01 -0.12066715330E+02 -0.25578678788E+02  0.28478258390E+02  0.10000000000E+01 0.  0.
    9000005    1    3    3    0    0 -0.31838300080E+01  0.12066715330E+02  0.14130247161E+03  0.14185602164E+03  0.10000000000E+01 0.  0.
<mgrwt>
<rscale>  0 0.12498708E+03</rscale>
<asrwt>0</asrwt>
<pdfrwt beam="1">  1        4 0.35757258E-01 0.12498708E+03</pdfrwt>
<pdfrwt beam="2">  1       -4 0.68263110E-02 0.12498708E+03</pdfrwt>
<totfact> 0.17587253E+03</totfact>
</mgrwt>
</event>
<event>
 5    1  0.1446384E-002  0.1249993E+03  0.7818608E-02  0.1235070E+00
         -4   -1    0    0    0  501 -0.00000000000E+00  0.00000000000E+00  0.61318336580E+01  0.62619712559E+01  0.12700000000E+01 0. -1.
          4   -1    0    0  501    0  0.00000000000E+00 -0.00000000000E+00 -0.63021737292E+03  0.63021865256E+03  0.12700000000E+01 0. -1.
         25    2    1    2    0    0  0.00000000000E+00  0.00000000000E+00 -0.62408553926E+03  0.63648062381E+03  0.12499929669E+03 0.  0.
    9000005    1    3    3    0    0  0.15863601025E+02 -0.48676625006E+02 -0.49450943337E+03  0.49715354505E+03  0.10000000000E+01 0.  0.
    9000005    1    3    3    0    0 -0.15863601025E+02  0.48676625006E+02 -0.12957610589E+03  0.13932707876E+03  0.10000000000E+01 0.  0.
<mgrwt>
<rscale>  0 0.12499930E+03</rscale>
<asrwt>0</asrwt>
<pdfrwt beam="2">  1        4 0.15757055E+00 0.12499930E+03</pdfrwt>
<pdfrwt beam="1">  1       -4 0.15493877E-02 0.12499930E+03</pdfrwt>
<totfact> 0.69080583E+02</totfact>
</mgrwt>
</event>
<event>
 5    1  0.1446384E-002  0.1249920E+03  0.7818608E-02  0.1235082E+00
          4   -1    0    0  501    0  0.00000000000E+00  0.00000000000E+00  0.52121175893E+01  0.53646127321E+01  0.12700000000E+01 0. -1.
         -4   -1    0    0    0  501 -0.00000000000E+00 -0.00000000000E+00 -0.73840255052E+03  0.73840364268E+03  0.12700000000E+01 0. -1.
         25    2    1    2    0    0  0.00000000000E+00  0.00000000000E+00 -0.73319043293E+03  0.74376825541E+03  0.12499202698E+03 0.  0.
    9000005    1    3    3    0    0  0.20637828069E+02 -0.58961180142E+02 -0.35735561742E+03  0.36277593362E+03  0.10000000000E+01 0.  0.
    9000005    1    3    3    0    0 -0.20637828069E+02  0.58961180142E+02 -0.37583481552E+03  0.38099232179E+03  0.10000000000E+01 0.  0.
<mgrwt>
<rscale>  0 0.12499203E+03</rscale>
<asrwt>0</asrwt>
<pdfrwt beam="1">  1        4 0.13222303E-02 0.12499203E+03</pdfrwt>
<pdfrwt beam="2">  1       -4 0.18461948E+00 0.12499203E+03</pdfrwt>
<totfact> 0.57679256E+02</totfact>
</mgrwt>
</event>
<event>
 5    1  0.1446384E-002  0.1249973E+03  0.7818608E-02  0.1235074E+00
         -4   -1    0    0    0  501 -0.00000000000E+00  0.00000000000E+00  0.18331720274E+03  0.18332160190E+03  0.12700000000E+01 0.  1.
          4   -1    0    0  501    0  0.00000000000E+00 -0.00000000000E+00 -0.21284172775E+02  0.21322028767E+02  0.12700000000E+01 0.  1.
         25    2    1    2    0    0  0.00000000000E+00  0.00000000000E+00  0.16203302997E+03  0.20464363066E+03  0.12499725105E+03 0.  0.
    9000005    1    3    3    0    0 -0.35785524911E+02  0.47520315407E+02  0.11235028751E+03  0.12713131507E+03  0.10000000000E+01 0.  0.
    9000005    1    3    3    0    0  0.35785524911E+02 -0.47520315407E+02  0.49682742462E+02  0.77512315590E+02  0.10000000000E+01 0.  0.
<mgrwt>
<rscale>  0 0.12499725E+03</rscale>
<asrwt>0</asrwt>
<pdfrwt beam="2">  1        4 0.53263251E-02 0.12499725E+03</pdfrwt>
<pdfrwt beam="1">  1       -4 0.45834582E-01 0.12499725E+03</pdfrwt>
<totfact> 0.16138802E+03</totfact>
</mgrwt>
</event>
<event>
 5    1  0.1446384E-002  0.1249959E+03  0.7818608E-02  0.1235076E+00
          4   -1    0    0  501    0  0.00000000000E+00  0.00000000000E+00  0.76467939400E+02  0.76478484923E+02  0.12700000000E+01 0.  1.
         -4   -1    0    0    0  501 -0.00000000000E+00 -0.00000000000E+00 -0.51058217843E+02  0.51074010116E+02  0.12700000000E+01 0.  1.
         25    2    1    2    0    0  0.00000000000E+00  0.00000000000E+00  0.25409721557E+02  0.12755249504E+03  0.12499594010E+03 0.  0.
    9000005    1    3    3    0    0  0.10793010292E+02 -0.47518414370E+02  0.52626721935E+02  0.71729078044E+02  0.10000000000E+01 0.  0.
    9000005    1    3    3    0    0 -0.10793010292E+02  0.47518414370E+02 -0.27217000378E+02  0.55823416995E+02  0.10000000000E+01 0.  0.
<mgrwt>
<rscale>  0 0.12499594E+03</rscale>
<asrwt>0</asrwt>
<pdfrwt beam="1">  1        4 0.19120277E-01 0.12499594E+03</pdfrwt>
<pdfrwt beam="2">  1       -4 0.12767847E-01 0.12499594E+03</pdfrwt>
<totfact> 0.19698786E+03</totfact>
</mgrwt>
</event>
<event>
 5    1  0.1446384E-002  0.1250054E+03  0.7818608E-02  0.1235061E+00
          4   -1    0    0  501    0  0.00000000000E+00  0.00000000000E+00  0.18820934931E+03  0.18821363412E+03  0.12700000000E+01 0.  1.
         -4   -1    0    0    0  501 -0.00000000000E+00 -0.00000000000E+00 -0.20732644726E+02  0.20771505900E+02  0.12700000000E+01 0.  1.
         25    2    1    2    0    0  0.00000000000E+00  0.00000000000E+00  0.16747670458E+03  0.20898514002E+03  0.12500536856E+03 0.  0.
    9000005    1    3    3    0    0 -0.21280250532E+02 -0.13647852547E+02 -0.11810670866E+02  0.27921405555E+02  0.10000000000E+01 0.  0.
    9000005    1    3    3    0    0  0.21280250532E+02  0.13647852547E+02  0.17928737545E+03  0.18106373446E+03  0.10000000000E+01 0.  0.
<mgrwt>
<rscale>  0 0.12500537E+03</rscale>
<asrwt>0</asrwt>
<pdfrwt beam="1">  1        4 0.47057731E-01 0.12500537E+03</pdfrwt>
<pdfrwt beam="2">  1       -4 0.51885544E-02 0.12500537E+03</pdfrwt>
<totfact> 0.15966495E+03</totfact>
</mgrwt>
</event>
<event>
 5    1  0.1446384E-002  0.1250004E+03  0.7818608E-02  0.1235069E+00
         -4   -1    0    0    0  501 -0.00000000000E+00  0.00000000000E+00  0.90260298020E+02  0.90269232292E+02  0.12700000000E+01 0.  1.
          4   -1    0    0  501    0  0.00000000000E+00 -0.00000000000E+00 -0.43257501730E+02  0.43276140723E+02  0.12700000000E+01 0.  1.
         25    2    1    2    0    0  0.00000000000E+00  0.00000000000E+00  0.47002796290E+02  0.13354537302E+03  0.12500041518E+03 0.  0.
    9000005    1    3    3    0    0 -0.55522777957E+02  0.21688902153E+02  0.34546759563E+01  0.59717017127E+02  0.10000000000E+01 0.  0.
    9000005    1    3    3    0    0  0.55522777957E+02 -0.21688902153E+02  0.43548120334E+02  0.73828355888E+02  0.10000000000E+01 0.  0.
<mgrwt>
<rscale>  0 0.12500042E+03</rscale>
<asrwt>0</asrwt>
<pdfrwt beam="2">  1        4 0.10817822E-01 0.12500042E+03</pdfrwt>
<pdfrwt beam="1">  1       -4 0.22568521E-01 0.12500042E+03</pdfrwt>
<totfact> 0.19375415E+03</totfact>
</mgrwt>
</event>
<event>
 5    1  0.1446384E-002  0.1250026E+03  0.7818608E-02  0.1235065E+00
         -4   -1    0    0    0  501 -0.00000000000E+00  0.00000000000E+00  0.17423985089E+03  0.17424447922E+03  0.12700000000E+01 0.  1.
          4   -1    0    0  501    0  0.00000000000E+00 -0.00000000000E+00 -0.22396816257E+02  0.22432794709E+02  0.12700000000E+01 0.  1.
         25    2    1    2    0    0  0.00000000000E+00  0.00000000000E+00  0.15184303463E+03  0.19667727392E+03  0.12500257163E+03 0.  0.
    9000005    1    3    3    0    0  0.23362535062E+02 -0.18038045781E+02  0.16258968103E+03  0.16525006360E+03  0.10000000000E+01 0.  0.
    9000005    1    3    3    0    0 -0.23362535062E+02  0.18038045781E+02 -0.10746646404E+02  0.31427210329E+02  0.10000000000E+01 0.  0.
<mgrwt>
<rscale>  0 0.12500257E+03</rscale>
<asrwt>0</asrwt>
<pdfrwt beam="2">  1        4 0.56042800E-02 0.12500257E+03</pdfrwt>
<pdfrwt beam="1">  1       -4 0.43565038E-01 0.12500257E+03</pdfrwt>
<totfact> 0.16454979E+03</totfact>
</mgrwt>
</event>
<event>
 5    1  0.1446384E-002  0.1250018E+03  0.7818608E-02  0.1235066E+00
          4   -1    0    0  501    0  0.00000000000E+00  0.00000000000E+00  0.12071291328E+03  0.12071959383E+03  0.12700000000E+01 0.  1.
         -4   -1    0    0    0  501 -0.00000000000E+00 -0.00000000000E+00 -0.32340740754E+02  0.32365667188E+02  0.12700000000E+01 0.  1.
         25    2    1    2    0    0  0.00000000000E+00  0.00000000000E+00  0.88372172529E+02  0.15308526101E+03  0.12500182503E+03 0.  0.
    9000005    1    3    3    0    0 -0.56340979081E+02  0.32825911968E+01  0.77053726774E+02  0.95516271591E+02  0.10000000000E+01 0.  0.
    9000005    1    3    3    0    0  0.56340979081E+02 -0.32825911968E+01  0.11318445756E+02  0.57568989423E+02  0.10000000000E+01 0.  0.
<mgrwt>
<rscale>  0 0.12500183E+03</rscale>
<asrwt>0</asrwt>
<pdfrwt beam="1">  1        4 0.30182179E-01 0.12500183E+03</pdfrwt>
<pdfrwt beam="2">  1       -4 0.80891361E-02 0.12500183E+03</pdfrwt>
<totfact> 0.18387331E+03</totfact>
</mgrwt>
</event>
<event>
 5    1  0.1446384E-002  0.1250020E+03  0.7818608E-02  0.1235066E+00
          4   -1    0    0  501    0  0.00000000000E+00  0.00000000000E+00  0.21010090630E+03  0.21010474465E+03  0.12700000000E+01 0. -1.
         -4   -1    0    0    0  501 -0.00000000000E+00 -0.00000000000E+00 -0.18567142903E+02  0.18610526473E+02  0.12700000000E+01 0. -1.
         25    2    1    2    0    0  0.00000000000E+00  0.00000000000E+00  0.19153376339E+03  0.22871527113E+03  0.12500197089E+03 0.  0.
    9000005    1    3    3    0    0 -0.50343734510E+02  0.32575715457E+02  0.63567172602E+02  0.87392529855E+02  0.10000000000E+01 0.  0.
    9000005    1    3    3    0    0  0.50343734510E+02 -0.32575715457E+02  0.12796659079E+03  0.14132274127E+03  0.10000000000E+01 0.  0.
<mgrwt>
<rscale>  0 0.12500197E+03</rscale>
<asrwt>0</asrwt>
<pdfrwt beam="1">  1        4 0.52531128E-01 0.12500197E+03</pdfrwt>
<pdfrwt beam="2">  1       -4 0.46476886E-02 0.12500197E+03</pdfrwt>
<totfact> 0.15232635E+03</totfact>
</mgrwt>
</event>
<event>
 5    1  0.1446384E-002  0.1250015E+03  0.7818608E-02  0.1235067E+00
         -4   -1    0    0    0  501 -0.00000000000E+00  0.00000000000E+00  0.52136631472E+03  0.52136786151E+03  0.12700000000E+01 0.  1.
          4   -1    0    0  501    0  0.00000000000E+00 -0.00000000000E+00 -0.74371265759E+01  0.75447830788E+01  0.12700000000E+01 0.  1.
         25    2    1    2    0    0  0.00000000000E+00  0.00000000000E+00  0.51392918814E+03  0.52891264459E+03  0.12500150075E+03 0.  0.
    9000005    1    3    3    0    0 -0.31381634197E+02 -0.42396250769E+02  0.11516436848E+03  0.12667312585E+03  0.10000000000E+01 0.  0.
    9000005    1    3    3    0    0  0.31381634197E+02  0.42396250769E+02  0.39876481966E+03  0.40223951875E+03  0.10000000000E+01 0.  0.
<mgrwt>
<rscale>  0 0.12500150E+03</rscale>
<asrwt>0</asrwt>
<pdfrwt beam="2">  1        4 0.18729321E-02 0.12500150E+03</pdfrwt>
<pdfrwt beam="1">  1       -4 0.13035522E+00 0.12500150E+03</pdfrwt>
<totfact> 0.83181762E+02</totfact>
</mgrwt>
</event>
<event>
 5    1  0.1446384E-002  0.1250092E+03  0.7818608E-02  0.1235055E+00
         -4   -1    0    0    0  501 -0.00000000000E+00  0.00000000000E+00  0.30134683324E+02  0.30161432974E+02  0.12700000000E+01 0.  1.
          4   -1    0    0  501    0  0.00000000000E+00 -0.00000000000E+00 -0.12955817274E+03  0.12956439721E+03  0.12700000000E+01 0.  1.
         25    2    1    2    0    0  0.00000000000E+00  0.00000000000E+00 -0.99423489420E+02  0.15972583019E+03  0.12500924198E+03 0.  0.
    9000005    1    3    3    0    0 -0.41023780148E+02  0.21591529955E+02 -0.10326424156E+03  0.11319738641E+03  0.10000000000E+01 0.  0.
    9000005    1    3    3    0    0  0.41023780148E+02 -0.21591529955E+02  0.38407521442E+01  0.46528443779E+02  0.10000000000E+01 0.  0.
<mgrwt>
<rscale>  0 0.12500924E+03</rscale>
<asrwt>0</asrwt>
<pdfrwt beam="2">  1        4 0.32393664E-01 0.12500924E+03</pdfrwt>
<pdfrwt beam="1">  1       -4 0.75377929E-02 0.12500924E+03</pdfrwt>
<totfact> 0.18066784E+03</totfact>
</mgrwt>
</event>
<event>
 5    1  0.1446384E-002  0.1249942E+03  0.7818608E-02  0.1235078E+00
          4   -1    0    0  501    0  0.00000000000E+00  0.00000000000E+00  0.27584995225E+02  0.27614214846E+02  0.12700000000E+01 0.  1.
         -4   -1    0    0    0  501 -0.00000000000E+00 -0.00000000000E+00 -0.14148758907E+03  0.14149328875E+03  0.12700000000E+01 0.  1.
         25    2    1    2    0    0  0.00000000000E+00  0.00000000000E+00 -0.11390259385E+03  0.16910750360E+03  0.12499418741E+03 0.  0.
    9000005    1    3    3    0    0 -0.19532643871E+02 -0.53563341641E+02 -0.91558922347E+02  0.10786376595E+03  0.10000000000E+01 0.  0.
    9000005    1    3    3    0    0  0.19532643871E+02  0.53563341641E+02 -0.22343671500E+02  0.61243737643E+02  0.10000000000E+01 0.  0.
<mgrwt>
<rscale>  0 0.12499419E+03</rscale>
<asrwt>0</asrwt>
<pdfrwt beam="1">  1        4 0.69006141E-02 0.12499419E+03</pdfrwt>
<pdfrwt beam="2">  1       -4 0.35376260E-01 0.12499419E+03</pdfrwt>
<totfact> 0.17639758E+03</totfact>
</mgrwt>
</event>
<event>
 5    1  0.1446384E-002  0.1250096E+03  0.7818608E-02  0.1235054E+00
         -4   -1    0    0    0  501 -0.00000000000E+00  0.00000000000E+00  0.11618505066E+03  0.11619199154E+03  0.12700000000E+01 0. -1.
          4   -1    0    0  501    0  0.00000000000E+00 -0.00000000000E+00 -0.33606161628E+02  0.33630150154E+02  0.12700000000E+01 0. -1.
         25    2    1    2    0    0  0.00000000000E+00  0.00000000000E+00  0.82578889037E+02  0.14982214169E+03  0.12500960454E+03 0.  0.
    9000005    1    3    3    0    0 -0.42667138671E+02  0.12462606128E+02 -0.11362788042E+02  0.45890241075E+02  0.10000000000E+01 0.  0.
    9000005    1    3    3    0    0  0.42667138671E+02 -0.12462606128E+02  0.93941677078E+02  0.10393190062E+03  0.10000000000E+01 0.  0.
<mgrwt>
<rscale>  0 0.12500960E+03</rscale>
<asrwt>0</asrwt>
<pdfrwt beam="2">  1        4 0.84054067E-02 0.12500960E+03</pdfrwt>
<pdfrwt beam="1">  1       -4 0.29050128E-01 0.12500960E+03</pdfrwt>
<totfact> 0.18543385E+03</totfact>
</mgrwt>
</event>
<event>
 5    1  0.1446384E-002  0.1250031E+03  0.7818608E-02  0.1235064E+00
         -4   -1    0    0    0  501 -0.00000000000E+00  0.00000000000E+00  0.57704188563E+02  0.57718162460E+02  0.12700000000E+01 0. -1.
          4   -1    0    0  501    0  0.00000000000E+00 -0.00000000000E+00 -0.67669593021E+02  0.67681509437E+02  0.12700000000E+01 0. -1.
         25    2    1    2    0    0  0.00000000000E+00  0.00000000000E+00 -0.99654044578E+01  0.12539967190E+03  0.12500307367E+03 0.  0.
    9000005    1    3    3    0    0 -0.30735450528E+02 -0.49513723384E+01  0.49376468424E+02  0.58379959243E+02  0.10000000000E+01 0.  0.
    9000005    1    3    3    0    0  0.30735450528E+02  0.49513723384E+01 -0.59341872881E+02  0.67019712654E+02  0.10000000000E+01 0.  0.
<mgrwt>
<rscale>  0 0.12500307E+03</rscale>
<asrwt>0</asrwt>
<pdfrwt beam="2">  1        4 0.16920635E-01 0.12500307E+03</pdfrwt>
<pdfrwt beam="1">  1       -4 0.14429283E-01 0.12500307E+03</pdfrwt>
<totfact> 0.19811971E+03</totfact>
</mgrwt>
</event>
<event>
 5    1  0.1446384E-002  0.1250000E+03  0.7818608E-02  0.1235069E+00
          4   -1    0    0  501    0  0.00000000000E+00  0.00000000000E+00  0.31117317245E+02  0.31143222899E+02  0.12700000000E+01 0. -1.
         -4   -1    0    0    0  501 -0.00000000000E+00 -0.00000000000E+00 -0.12545160445E+03  0.12545803266E+03  0.12700000000E+01 0. -1.
         25    2    1    2    0    0  0.00000000000E+00  0.00000000000E+00 -0.94334287209E+02  0.15660125556E+03  0.12499998200E+03 0.  0.
    9000005    1    3    3    0    0  0.27399843737E+02  0.56162891827E+02 -0.47764065242E+02  0.78660204574E+02  0.10000000000E+01 0.  0.
    9000005    1    3    3    0    0 -0.27399843737E+02 -0.56162891827E+02 -0.46570221967E+02  0.77941050989E+02  0.10000000000E+01 0.  0.
<mgrwt>
<rscale>  0 0.12499998E+03</rscale>
<asrwt>0</asrwt>
<pdfrwt beam="1">  1        4 0.77833714E-02 0.12499998E+03</pdfrwt>
<pdfrwt beam="2">  1       -4 0.31366942E-01 0.12499998E+03</pdfrwt>
<totfact> 0.18218895E+03</totfact>
</mgrwt>
</event>
<event>
 5    1  0.1446384E-002  0.1250006E+03  0.7818608E-02  0.1235068E+00
          4   -1    0    0  501    0  0.00000000000E+00  0.00000000000E+00  0.63424525973E+01  0.64683541144E+01  0.12700000000E+01 0.  1.
         -4   -1    0    0    0  501 -0.00000000000E+00 -0.00000000000E+00 -0.60971560394E+03  0.60971692660E+03  0.12700000000E+01 0.  1.
         25    2    1    2    0    0  0.00000000000E+00  0.00000000000E+00 -0.60337315134E+03  0.61618528072E+03  0.12500056165E+03 0.  0.
    9000005    1    3    3    0    0 -0.58681168271E+02  0.25615065116E+01 -0.19650937606E+03  0.20510235421E+03  0.10000000000E+01 0.  0.
    9000005    1    3    3    0    0  0.58681168271E+02 -0.25615065116E+01 -0.40686377528E+03  0.41108292651E+03  0.10000000000E+01 0.  0.
<mgrwt>
<rscale>  0 0.12500056E+03</rscale>
<asrwt>0</asrwt>
<pdfrwt beam="1">  1        4 0.16015182E-02 0.12500056E+03</pdfrwt>
<pdfrwt beam="2">  1       -4 0.15244461E+00 0.12500056E+03</pdfrwt>
<totfact> 0.71502300E+02</totfact>
</mgrwt>
</event>
<event>
 5    1  0.1446384E-002  0.1249981E+03  0.7818608E-02  0.1235072E+00
         -4   -1    0    0    0  501 -0.00000000000E+00  0.00000000000E+00  0.85521415149E+03  0.85521509447E+03  0.12700000000E+01 0.  1.
          4   -1    0    0  501    0  0.00000000000E+00 -0.00000000000E+00 -0.44781873262E+01  0.46547891176E+01  0.12700000000E+01 0.  1.
         25    2    1    2    0    0  0.00000000000E+00  0.00000000000E+00  0.85073596417E+03  0.85986988359E+03  0.12499814390E+03 0.  0.
    9000005    1    3    3    0    0 -0.51046323523E+01 -0.59651631444E+01 -0.11057164206E+01  0.79914361409E+01  0.10000000000E+01 0.  0.
    9000005    1    3    3    0    0  0.51046323523E+01  0.59651631444E+01  0.85184168059E+03  0.85187844745E+03  0.10000000000E+01 0.  0.
<mgrwt>
<rscale>  0 0.12499814E+03</rscale>
<asrwt>0</asrwt>
<pdfrwt beam="2">  1        4 0.11417395E-02 0.12499814E+03</pdfrwt>
<pdfrwt beam="1">  1       -4 0.21382580E+00 0.12499814E+03</pdfrwt>
<totfact> 0.47428892E+02</totfact>
</mgrwt>
</event>
<event>
 5    1  0.1446384E-002  0.1249994E+03  0.7818608E-02  0.1235070E+00
         -4   -1    0    0    0  501 -0.00000000000E+00  0.00000000000E+00  0.62751730659E+02  0.62764580782E+02  0.12700000000E+01 0. -1.
          4   -1    0    0  501    0  0.00000000000E+00 -0.00000000000E+00 -0.62222957620E+02  0.62235916921E+02  0.12700000000E+01 0. -1.
         25    2    1    2    0    0  0.00000000000E+00  0.00000000000E+00  0.52877303880E+00  0.12500049770E+03  0.12499937930E+03 0.  0.
    9000005    1    3    3    0    0  0.26073197021E+02 -0.67547901055E+01  0.56654361824E+02  0.62738787891E+02  0.10000000000E+01 0.  0.
    9000005    1    3    3    0    0 -0.26073197021E+02  0.67547901055E+01 -0.56125588786E+02  0.62261709813E+02  0.10000000000E+01 0.  0.
<mgrwt>
<rscale>  0 0.12499938E+03</rscale>
<asrwt>0</asrwt>
<pdfrwt beam="2">  1        4 0.15558966E-01 0.12499938E+03</pdfrwt>
<pdfrwt beam="1">  1       -4 0.15691159E-01 0.12499938E+03</pdfrwt>
<totfact> 0.19835316E+03</totfact>
</mgrwt>
</event>
<event>
 5    1  0.1446384E-002  0.1250018E+03  0.7818608E-02  0.1235066E+00
          4   -1    0    0  501    0  0.00000000000E+00  0.00000000000E+00  0.27726640356E+03  0.27726931212E+03  0.12700000000E+01 0. -1.
         -4   -1    0    0    0  501 -0.00000000000E+00 -0.00000000000E+00 -0.14057243260E+02  0.14114495672E+02  0.12700000000E+01 0. -1.
         25    2    1    2    0    0  0.00000000000E+00  0.00000000000E+00  0.26320916030E+03  0.29138380779E+03  0.12500184550E+03 0.  0.
    9000005    1    3    3    0    0  0.57975828105E+02  0.23326504127E+02  0.13208742010E+03  0.14612805681E+03  0.10000000000E+01 0.  0.
    9000005    1    3    3    0    0 -0.57975828105E+02 -0.23326504127E+02  0.13112174020E+03  0.14525575098E+03  0.10000000000E+01 0.  0.
<mgrwt>
<rscale>  0 0.12500185E+03</rscale>
<asrwt>0</asrwt>
<pdfrwt beam="1">  1        4 0.69324122E-01 0.12500185E+03</pdfrwt>
<pdfrwt beam="2">  1       -4 0.35218309E-02 0.12500185E+03</pdfrwt>
<totfact> 0.13215464E+03</totfact>
</mgrwt>
</event>
<event>
 5    1  0.1446384E-002  0.1250108E+03  0.7818608E-02  0.1235052E+00
          4   -1    0    0  501    0  0.00000000000E+00  0.00000000000E+00  0.47543750899E+02  0.47560710146E+02  0.12700000000E+01 0.  1.
         -4   -1    0    0    0  501 -0.00000000000E+00 -0.00000000000E+00 -0.82138801821E+02  0.82148619371E+02  0.12700000000E+01 0.  1.
         25    2    1    2    0    0  0.00000000000E+00  0.00000000000E+00 -0.34595050922E+02  0.12970932952E+03  0.12501077000E+03 0.  0.
    9000005    1    3    3    0    0 -0.52791871460E+02 -0.26795238833E+02 -0.38074030223E+02  0.70396010496E+02  0.10000000000E+01 0.  0.
    9000005    1    3    3    0    0  0.52791871460E+02  0.26795238833E+02  0.34789793012E+01  0.59313319021E+02  0.10000000000E+01 0.  0.
<mgrwt>
<rscale>  0 0.12501077E+03</rscale>
<asrwt>0</asrwt>
<pdfrwt beam="1">  1        4 0.11889285E-01 0.12501077E+03</pdfrwt>
<pdfrwt beam="2">  1       -4 0.20538047E-01 0.12501077E+03</pdfrwt>
<totfact> 0.19575100E+03</totfact>
</mgrwt>
</event>
<event>
 5    1  0.1446384E-002  0.1250003E+03  0.7818608E-02  0.1235069E+00
         -4   -1    0    0    0  501 -0.00000000000E+00  0.00000000000E+00  0.16286277368E+04  0.16286282320E+04  0.12700000000E+01 0. -1.
          4   -1    0    0  501    0  0.00000000000E+00 -0.00000000000E+00 -0.22298577017E+01  0.25661577056E+01  0.12700000000E+01 0. -1.
         25    2    1    2    0    0  0.00000000000E+00  0.00000000000E+00  0.16263978791E+04  0.16311943897E+04  0.12500030311E+03 0.  0.
    9000005    1    3    3    0    0  0.33038846860E+01  0.62176131070E+02  0.74355553174E+03  0.74615857276E+03  0.10000000000E+01 0.  0.
    9000005    1    3    3    0    0 -0.33038846860E+01 -0.62176131070E+02  0.88284234738E+03  0.88503581693E+03  0.10000000000E+01 0.  0.
<mgrwt>
<rscale>  0 0.12500030E+03</rscale>
<asrwt>0</asrwt>
<pdfrwt beam="2">  1        4 0.59956356E-03 0.12500030E+03</pdfrwt>
<pdfrwt beam="1">  1       -4 0.40719921E+00 0.12500030E+03</pdfrwt>
<totfact> 0.86854600E+01</totfact>
</mgrwt>
</event>
<event>
 5    1  0.1446384E-002  0.1250011E+03  0.7818608E-02  0.1235068E+00
         -4   -1    0    0    0  501 -0.00000000000E+00  0.00000000000E+00  0.37454142301E+02  0.37475667779E+02  0.12700000000E+01 0. -1.
          4   -1    0    0  501    0  0.00000000000E+00 -0.00000000000E+00 -0.10424071604E+03  0.10424845217E+03  0.12700000000E+01 0. -1.
         25    2    1    2    0    0  0.00000000000E+00  0.00000000000E+00 -0.66786573740E+02  0.14172411995E+03  0.12500111897E+03 0.  0.
    9000005    1    3    3    0    0  0.41168970787E+02 -0.18784556203E+02  0.15472308058E+02  0.47834464814E+02  0.10000000000E+01 0.  0.
    9000005    1    3    3    0    0 -0.41168970787E+02  0.18784556203E+02 -0.82258881798E+02  0.93889655139E+02  0.10000000000E+01 0.  0.
<mgrwt>
<rscale>  0 0.12500112E+03</rscale>
<asrwt>0</asrwt>
<pdfrwt beam="2">  1        4 0.26063836E-01 0.12500112E+03</pdfrwt>
<pdfrwt beam="1">  1       -4 0.93671935E-02 0.12500112E+03</pdfrwt>
<totfact> 0.18951989E+03</totfact>
</mgrwt>
</event>
<event>
 5    1  0.1446384E-002  0.1250004E+03  0.7818608E-02  0.1235069E+00
          4   -1    0    0  501    0  0.00000000000E+00  0.00000000000E+00  0.12149308672E+02  0.12215506589E+02  0.12700000000E+01 0. -1.
         -4   -1    0    0    0  501 -0.00000000000E+00 -0.00000000000E+00 -0.32058136006E+03  0.32058387564E+03  0.12700000000E+01 0. -1.
         25    2    1    2    0    0  0.00000000000E+00  0.00000000000E+00 -0.30843205139E+03  0.33279938222E+03  0.12500039394E+03 0.  0.
    9000005    1    3    3    0    0  0.50531283052E+01  0.61205268526E+02 -0.18499575123E+03  0.19492574734E+03  0.10000000000E+01 0.  0.
    9000005    1    3    3    0    0 -0.50531283052E+01 -0.61205268526E+02 -0.12343630015E+03  0.13787363489E+03  0.10000000000E+01 0.  0.
<mgrwt>
<rscale>  0 0.12500039E+03</rscale>
<asrwt>0</asrwt>
<pdfrwt beam="1">  1        4 0.30459174E-02 0.12500039E+03</pdfrwt>
<pdfrwt beam="2">  1       -4 0.80153901E-01 0.12500039E+03</pdfrwt>
<totfact> 0.12099047E+03</totfact>
</mgrwt>
</event>
<event>
 5    1  0.1446384E-002  0.1250016E+03  0.7818608E-02  0.1235067E+00
          4   -1    0    0  501    0  0.00000000000E+00  0.00000000000E+00  0.41534190413E+02  0.41553602410E+02  0.12700000000E+01 0.  1.
         -4   -1    0    0    0  501 -0.00000000000E+00 -0.00000000000E+00 -0.94005759047E+02  0.94014337385E+02  0.12700000000E+01 0.  1.
         25    2    1    2    0    0  0.00000000000E+00  0.00000000000E+00 -0.52471568634E+02  0.13556793980E+03  0.12500160313E+03 0.  0.
    9000005    1    3    3    0    0 -0.51256860968E+02  0.35749615460E+02 -0.25994748800E+02  0.67690677105E+02  0.10000000000E+01 0.  0.
    9000005    1    3    3    0    0  0.51256860968E+02 -0.35749615460E+02 -0.26476819834E+02  0.67877262690E+02  0.10000000000E+01 0.  0.
<mgrwt>
<rscale>  0 0.12500160E+03</rscale>
<asrwt>0</asrwt>
<pdfrwt beam="1">  1        4 0.10387047E-01 0.12500160E+03</pdfrwt>
<pdfrwt beam="2">  1       -4 0.23504938E-01 0.12500160E+03</pdfrwt>
<totfact> 0.19268710E+03</totfact>
</mgrwt>
</event>
<event>
 5    1  0.1446384E-002  0.1249961E+03  0.7818608E-02  0.1235075E+00
         -4   -1    0    0    0  501 -0.00000000000E+00  0.00000000000E+00  0.82992685400E+01  0.83958774585E+01  0.12700000000E+01 0.  1.
          4   -1    0    0  501    0  0.00000000000E+00 -0.00000000000E+00 -0.46782344132E+03  0.46782516515E+03  0.12700000000E+01 0.  1.
         25    2    1    2    0    0  0.00000000000E+00  0.00000000000E+00 -0.45952417278E+03  0.47622104261E+03  0.12499606416E+03 0.  0.
    9000005    1    3    3    0    0 -0.23923545332E+02  0.54626168393E+02 -0.15862322611E+03  0.16946587313E+03  0.10000000000E+01 0.  0.
    9000005    1    3    3    0    0  0.23923545332E+02 -0.54626168393E+02 -0.30090094667E+03  0.30675516948E+03  0.10000000000E+01 0.  0.
<mgrwt>
<rscale>  0 0.12499606E+03</rscale>
<asrwt>0</asrwt>
<pdfrwt beam="2">  1        4 0.11696806E+00 0.12499606E+03</pdfrwt>
<pdfrwt beam="1">  1       -4 0.20871103E-02 0.12499606E+03</pdfrwt>
<totfact> 0.91500393E+02</totfact>
</mgrwt>
</event>
<event>
 5    1  0.1446384E-002  0.1250010E+03  0.7818608E-02  0.1235068E+00
         -4   -1    0    0    0  501 -0.00000000000E+00  0.00000000000E+00  0.19718384239E+02  0.19759240294E+02  0.12700000000E+01 0. -1.
          4   -1    0    0  501    0  0.00000000000E+00 -0.00000000000E+00 -0.19785705646E+03  0.19786113234E+03  0.12700000000E+01 0. -1.
         25    2    1    2    0    0  0.00000000000E+00  0.00000000000E+00 -0.17813867222E+03  0.21762037264E+03  0.12500096018E+03 0.  0.
    9000005    1    3    3    0    0 -0.99793819547E+01 -0.13977970630E+02 -0.19367619200E+03  0.19443877977E+03  0.10000000000E+01 0.  0.
    9000005    1    3    3    0    0  0.99793819547E+01  0.13977970630E+02  0.15537519781E+02  0.23181592872E+02  0.10000000000E+01 0.  0.
<mgrwt>
<rscale>  0 0.12500096E+03</rscale>
<asrwt>0</asrwt>
<pdfrwt beam="2">  1        4 0.49469875E-01 0.12500096E+03</pdfrwt>
<pdfrwt beam="1">  1       -4 0.49352132E-02 0.12500096E+03</pdfrwt>
<totfact> 0.15639643E+03</totfact>
</mgrwt>
</event>
<event>
 5    1  0.1446384E-002  0.1250007E+03  0.7818608E-02  0.1235068E+00
         -4   -1    0    0    0  501 -0.00000000000E+00  0.00000000000E+00  0.60136711977E+03  0.60136846080E+03  0.12700000000E+01 0. -1.
          4   -1    0    0  501    0  0.00000000000E+00 -0.00000000000E+00 -0.64322568322E+01  0.65564340884E+01  0.12700000000E+01 0. -1.
         25    2    1    2    0    0  0.00000000000E+00  0.00000000000E+00  0.59493486294E+03  0.60792489489E+03  0.12500074672E+03 0.  0.
    9000005    1    3    3    0    0  0.52449821916E+01  0.94727907301E+01  0.59679405602E+03  0.59689311347E+03  0.10000000000E+01 0.  0.
    9000005    1    3    3    0    0 -0.52449821916E+01 -0.94727907301E+01 -0.18591930800E+01  0.11031781421E+02  0.10000000000E+01 0.  0.
<mgrwt>
<rscale>  0 0.12500075E+03</rscale>
<asrwt>0</asrwt>
<pdfrwt beam="2">  1        4 0.16237544E-02 0.12500075E+03</pdfrwt>
<pdfrwt beam="1">  1       -4 0.15035744E+00 0.12500075E+03</pdfrwt>
<totfact> 0.72513479E+02</totfact>
</mgrwt>
</event>
<event>
 5    1  0.1446384E-002  0.1249970E+03  0.7818608E-02  0.1235074E+00
          4   -1    0    0  501    0  0.00000000000E+00  0.00000000000E+00  0.26693075131E+02  0.26723270009E+02  0.12700000000E+01 0.  1.
         -4   -1    0    0    0  501 -0.00000000000E+00 -0.00000000000E+00 -0.14621677800E+03  0.14622229334E+03  0.12700000000E+01 0.  1.
         25    2    1    2    0    0  0.00000000000E+00  0.00000000000E+00 -0.11952370287E+03  0.17294556335E+03  0.12499700930E+03 0.  0.
    9000005    1    3    3    0    0  0.50696126951E+02  0.20451313671E+01 -0.92883465225E+01  0.51590243566E+02  0.10000000000E+01 0.  0.
    9000005    1    3    3    0    0 -0.50696126951E+02 -0.20451313671E+01 -0.11023535635E+03  0.12135531978E+03  0.10000000000E+01 0.  0.
<mgrwt>
<rscale>  0 0.12499701E+03</rscale>
<asrwt>0</asrwt>
<pdfrwt beam="1">  1        4 0.66777330E-02 0.12499701E+03</pdfrwt>
<pdfrwt beam="2">  1       -4 0.36558656E-01 0.12499701E+03</pdfrwt>
<totfact> 0.17466215E+03</totfact>
</mgrwt>
</event>
<event>
 5    1  0.1446384E-002  0.1249843E+03  0.7818608E-02  0.1235094E+00
         -4   -1    0    0    0  501 -0.00000000000E+00  0.00000000000E+00  0.26967306161E+02  0.26997194328E+02  0.12700000000E+01 0.  1.
          4   -1    0    0  501    0  0.00000000000E+00 -0.00000000000E+00 -0.14470211153E+03  0.14470768459E+03  0.12700000000E+01 0.  1.
         25    2    1    2    0    0  0.00000000000E+00  0.00000000000E+00 -0.11773480537E+03  0.17170487892E+03  0.12498432322E+03 0.  0.
    9000005    1    3    3    0    0  0.75636539318E+00 -0.60177491037E+02 -0.35782149779E+02  0.70023315824E+02  0.10000000000E+01 0.  0.
    9000005    1    3    3    0    0 -0.75636539318E+00  0.60177491037E+02 -0.81952655588E+02  0.10168156310E+03  0.10000000000E+01 0.  0.
<mgrwt>
<rscale>  0 0.12498432E+03</rscale>
<asrwt>0</asrwt>
<pdfrwt beam="2">  1        4 0.36179958E-01 0.12498432E+03</pdfrwt>
<pdfrwt beam="1">  1       -4 0.67462596E-02 0.12498432E+03</pdfrwt>
<totfact> 0.17526799E+03</totfact>
</mgrwt>
</event>
<event>
 5    1  0.1446384E-002  0.1249952E+03  0.7818608E-02  0.1235077E+00
          4   -1    0    0  501    0  0.00000000000E+00  0.00000000000E+00  0.21568103799E+02  0.21605462306E+02  0.12700000000E+01 0.  1.
         -4   -1    0    0    0  501 -0.00000000000E+00 -0.00000000000E+00 -0.18090228327E+03  0.18090674115E+03  0.12700000000E+01 0.  1.
         25    2    1    2    0    0  0.00000000000E+00  0.00000000000E+00 -0.15933417947E+03  0.20251220345E+03  0.12499524711E+03 0.  0.
    9000005    1    3    3    0    0 -0.58608666695E+02 -0.18428972880E+02 -0.98164604325E+02  0.11580972496E+03  0.10000000000E+01 0.  0.
    9000005    1    3    3    0    0  0.58608666695E+02  0.18428972880E+02 -0.61169575148E+02  0.86702478494E+02  0.10000000000E+01 0.  0.
<mgrwt>
<rscale>  0 0.12499525E+03</rscale>
<asrwt>0</asrwt>
<pdfrwt beam="1">  1        4 0.53972535E-02 0.12499525E+03</pdfrwt>
<pdfrwt beam="2">  1       -4 0.45230793E-01 0.12499525E+03</pdfrwt>
<totfact> 0.16223724E+03</totfact>
</mgrwt>
</event>
<event>
 5    1  0.1446384E-002  0.1250049E+03  0.7818608E-02  0.1235062E+00
         -4   -1    0    0    0  501 -0.00000000000E+00  0.00000000000E+00  0.95702516717E+02  0.95710942980E+02  0.12700000000E+01 0.  1.
          4   -1    0    0  501    0  0.00000000000E+00 -0.00000000000E+00 -0.40799668936E+02  0.40819430242E+02  0.12700000000E+01 0.  1.
         25    2    1    2    0    0  0.00000000000E+00  0.00000000000E+00  0.54902847782E+02  0.13653037322E+03  0.12500488037E+03 0.  0.
    9000005    1    3    3    0    0  0.56442657589E+02 -0.24275267025E+02  0.14974840963E+02  0.63247988480E+02  0.10000000000E+01 0.  0.
    9000005    1    3    3    0    0 -0.56442657589E+02  0.24275267025E+02  0.39928006819E+02  0.73282384742E+02  0.10000000000E+01 0.  0.
<mgrwt>
<rscale>  0 0.12500488E+03</rscale>
<asrwt>0</asrwt>
<pdfrwt beam="2">  1        4 0.10203441E-01 0.12500488E+03</pdfrwt>
<pdfrwt beam="1">  1       -4 0.23929152E-01 0.12500488E+03</pdfrwt>
<totfact> 0.19217087E+03</totfact>
</mgrwt>
</event>
<event>
 5    1  0.1446384E-002  0.1249970E+03  0.7818608E-02  0.1235074E+00
          4   -1    0    0  501    0  0.00000000000E+00  0.00000000000E+00  0.19024725643E+03  0.19025149534E+03  0.12700000000E+01 0.  1.
         -4   -1    0    0    0  501 -0.00000000000E+00 -0.00000000000E+00 -0.20507385968E+02  0.20546673192E+02  0.12700000000E+01 0.  1.
         25    2    1    2    0    0  0.00000000000E+00  0.00000000000E+00  0.16973987046E+03  0.21079816853E+03  0.12499697689E+03 0.  0.
    9000005    1    3    3    0    0 -0.33649866594E+02  0.46960460642E+02  0.12504309327E+03  0.13774749929E+03  0.10000000000E+01 0.  0.
    9000005    1    3    3    0    0  0.33649866594E+02 -0.46960460642E+02  0.44696777189E+02  0.73050669241E+02  0.10000000000E+01 0.  0.
<mgrwt>
<rscale>  0 0.12499698E+03</rscale>
<asrwt>0</asrwt>
<pdfrwt beam="1">  1        4 0.47567254E-01 0.12499698E+03</pdfrwt>
<pdfrwt beam="2">  1       -4 0.51322873E-02 0.12499698E+03</pdfrwt>
<totfact> 0.15899717E+03</totfact>
</mgrwt>
</event>
<event>
 5    1  0.1446384E-002  0.1250003E+03  0.7818608E-02  0.1235069E+00
         -4   -1    0    0    0  501 -0.00000000000E+00  0.00000000000E+00  0.44095462909E+03  0.44095645796E+03  0.12700000000E+01 0. -1.
          4   -1    0    0  501    0  0.00000000000E+00 -0.00000000000E+00 -0.88112876795E+01  0.89023418588E+01  0.12700000000E+01 0. -1.
         25    2    1    2    0    0  0.00000000000E+00  0.00000000000E+00  0.43214334141E+03  0.44985879981E+03  0.12500028899E+03 0.  0.
    9000005    1    3    3    0    0 -0.17226642920E+02 -0.32281370280E+02  0.33753730970E+02  0.49791148288E+02  0.10000000000E+01 0.  0.
    9000005    1    3    3    0    0  0.17226642920E+02  0.32281370280E+02  0.39838961044E+03  0.40006765153E+03  0.10000000000E+01 0.  0.
<mgrwt>
<rscale>  0 0.12500029E+03</rscale>
<asrwt>0</asrwt>
<pdfrwt beam="2">  1        4 0.22144325E-02 0.12500029E+03</pdfrwt>
<pdfrwt beam="1">  1       -4 0.11025026E+00 0.12500029E+03</pdfrwt>
<totfact> 0.96041683E+02</totfact>
</mgrwt>
</event>
<event>
 4    1  0.1446384E-002  0.1251292E+03  0.7818608E-02  0.1234867E+00
         -4   -1    0    0    0  501 -0.00000000000E+00  0.00000000000E+00  0.29708371499E+02  0.29735504655E+02  0.12700000000E+01 0. -1.
          4   -1    0    0  501    0  0.00000000000E+00 -0.00000000000E+00 -0.13166821832E+03  0.13167434305E+03  0.12700000000E+01 0. -1.
    9000005    1    1    2    0    0 -0.54908371529E+02  0.29972973626E+02 -0.50781210988E+02  0.80579400602E+02  0.10000000000E+01 0.  0.
    9000005    1    1    2    0    0  0.54908371529E+02 -0.29972973626E+02 -0.51178635837E+02  0.80830447098E+02  0.10000000000E+01 0.  0.
<mgrwt>
<rscale>  0 0.12512925E+03</rscale>
<asrwt>0</asrwt>
<pdfrwt beam="2">  1        4 0.32921210E-01 0.12512925E+03</pdfrwt>
<pdfrwt beam="1">  1       -4 0.74312504E-02 0.12512925E+03</pdfrwt>
<totfact> 0.17937675E+03</totfact>
</mgrwt>
</event>
<event>
 5    1  0.1446384E-002  0.1250017E+03  0.7818608E-02  0.1235067E+00
          4   -1    0    0  501    0  0.00000000000E+00  0.00000000000E+00  0.87268451451E+03  0.87268543861E+03  0.12700000000E+01 0. -1.
         -4   -1    0    0    0  501 -0.00000000000E+00 -0.00000000000E+00 -0.43852298341E+01  0.45654288624E+01  0.12700000000E+01 0. -1.
         25    2    1    2    0    0  0.00000000000E+00  0.00000000000E+00  0.86829928467E+03  0.87725086747E+03  0.12500174685E+03 0.  0.
    9000005    1    3    3    0    0 -0.49007404332E+02  0.20690547264E+02  0.66430439546E+03  0.66643165760E+03  0.10000000000E+01 0.  0.
    9000005    1    3    3    0    0  0.49007404332E+02 -0.20690547264E+02  0.20399488921E+03  0.21081920987E+03  0.10000000000E+01 0.  0.
<mgrwt>
<rscale>  0 0.12500175E+03</rscale>
<asrwt>0</asrwt>
<pdfrwt beam="1">  1        4 0.21819385E+00 0.12500175E+03</pdfrwt>
<pdfrwt beam="2">  1       -4 0.11189474E-02 0.12500175E+03</pdfrwt>
<totfact> 0.46037373E+02</totfact>
</mgrwt>
</event>
<event>
 5    1  0.1446384E-002  0.1249850E+03  0.7818608E-02  0.1235093E+00
          4   -1    0    0  501    0  0.00000000000E+00  0.00000000000E+00  0.95289952327E+02  0.95298415068E+02  0.12700000000E+01 0. -1.
         -4   -1    0    0    0  501 -0.00000000000E+00 -0.00000000000E+00 -0.40963371417E+02  0.40983053789E+02  0.12700000000E+01 0. -1.
         25    2    1    2    0    0  0.00000000000E+00  0.00000000000E+00  0.54326580910E+02  0.13628146886E+03  0.12498504455E+03 0.  0.
    9000005    1    3    3    0    0  0.40846681061E+02 -0.32078246921E+02 -0.10716312204E+02  0.53040594138E+02  0.10000000000E+01 0.  0.
    9000005    1    3    3    0    0 -0.40846681061E+02  0.32078246921E+02  0.65042893114E+02  0.83240874718E+02  0.10000000000E+01 0.  0.
<mgrwt>
<rscale>  0 0.12498504E+03</rscale>
<asrwt>0</asrwt>
<pdfrwt beam="1">  1        4 0.23826006E-01 0.12498504E+03</pdfrwt>
<pdfrwt beam="2">  1       -4 0.10244361E-01 0.12498504E+03</pdfrwt>
<totfact> 0.19238936E+03</totfact>
</mgrwt>
</event>
<event>
 5    1  0.1446384E-002  0.1249989E+03  0.7818608E-02  0.1235071E+00
          4   -1    0    0  501    0  0.00000000000E+00  0.00000000000E+00  0.34726847988E+02  0.34750062894E+02  0.12700000000E+01 0. -1.
         -4   -1    0    0    0  501 -0.00000000000E+00 -0.00000000000E+00 -0.11241862034E+03  0.11242579375E+03  0.12700000000E+01 0. -1.
         25    2    1    2    0    0  0.00000000000E+00  0.00000000000E+00 -0.77691772356E+02  0.14717585664E+03  0.12499888514E+03 0.  0.
    9000005    1    3    3    0    0 -0.10520171012E+02 -0.60481198962E+02 -0.25088184041E+02  0.66325458192E+02  0.10000000000E+01 0.  0.
    9000005    1    3    3    0    0  0.10520171012E+02  0.60481198962E+02 -0.52603588316E+02  0.80850398451E+02  0.10000000000E+01 0.  0.
<mgrwt>
<rscale>  0 0.12499889E+03</rscale>
<asrwt>0</asrwt>
<pdfrwt beam="1">  1        4 0.86855108E-02 0.12499889E+03</pdfrwt>
<pdfrwt beam="2">  1       -4 0.28108453E-01 0.12499889E+03</pdfrwt>
<totfact> 0.18679006E+03</totfact>
</mgrwt>
</event>
<event>
 5    1  0.1446384E-002  0.1249978E+03  0.7818608E-02  0.1235073E+00
         -4   -1    0    0    0  501 -0.00000000000E+00  0.00000000000E+00  0.17788196713E+02  0.17833475328E+02  0.12700000000E+01 0.  1.
          4   -1    0    0  501    0  0.00000000000E+00 -0.00000000000E+00 -0.21926382412E+03  0.21926750207E+03  0.12700000000E+01 0.  1.
         25    2    1    2    0    0  0.00000000000E+00  0.00000000000E+00 -0.20147562740E+03  0.23710097740E+03  0.12499778017E+03 0.  0.
    9000005    1    3    3    0    0  0.58524455340E+02 -0.11962072929E+02 -0.65921175485E+02  0.88965186669E+02  0.10000000000E+01 0.  0.
    9000005    1    3    3    0    0 -0.58524455340E+02  0.11962072929E+02 -0.13555445192E+03  0.14813579073E+03  0.10000000000E+01 0.  0.
<mgrwt>
<rscale>  0 0.12499778E+03</rscale>
<asrwt>0</asrwt>
<pdfrwt beam="2">  1        4 0.54822067E-01 0.12499778E+03</pdfrwt>
<pdfrwt beam="1">  1       -4 0.44531694E-02 0.12499778E+03</pdfrwt>
<totfact> 0.14937619E+03</totfact>
</mgrwt>
</event>
<event>
 5    1  0.1446384E-002  0.1250017E+03  0.7818608E-02  0.1235067E+00
         -4   -1    0    0    0  501 -0.00000000000E+00  0.00000000000E+00  0.16230743106E+02  0.16280353859E+02  0.12700000000E+01 0. -1.
          4   -1    0    0  501    0  0.00000000000E+00 -0.00000000000E+00 -0.24025767658E+03  0.24026103317E+03  0.12700000000E+01 0. -1.
         25    2    1    2    0    0  0.00000000000E+00  0.00000000000E+00 -0.22402693348E+03  0.25654138702E+03  0.12500166532E+03 0.  0.
    9000005    1    3    3    0    0  0.50702385058E+02  0.32700720364E+02 -0.78586414106E+02  0.99080237409E+02  0.10000000000E+01 0.  0.
    9000005    1    3    3    0    0 -0.50702385058E+02 -0.32700720364E+02 -0.14544051937E+03  0.15746114962E+03  0.10000000000E+01 0.  0.
<mgrwt>
<rscale>  0 0.12500167E+03</rscale>
<asrwt>0</asrwt>
<pdfrwt beam="2">  1        4 0.60071029E-01 0.12500167E+03</pdfrwt>
<pdfrwt beam="1">  1       -4 0.40643075E-02 0.12500167E+03</pdfrwt>
<totfact> 0.14282343E+03</totfact>
</mgrwt>
</event>
<event>
 5    1  0.1446384E-002  0.1249985E+03  0.7818608E-02  0.1235072E+00
          4   -1    0    0  501    0  0.00000000000E+00  0.00000000000E+00  0.10062616280E+02  0.10142442822E+02  0.12700000000E+01 0.  1.
         -4   -1    0    0    0  501 -0.00000000000E+00 -0.00000000000E+00 -0.38657019512E+03  0.38657228128E+03  0.12700000000E+01 0.  1.
         25    2    1    2    0    0  0.00000000000E+00  0.00000000000E+00 -0.37650757884E+03  0.39671472410E+03  0.12499846157E+03 0.  0.
    9000005    1    3    3    0    0  0.80019167576E+01 -0.52701084372E+02 -0.29176492812E+03  0.29659603545E+03  0.10000000000E+01 0.  0.
    9000005    1    3    3    0    0 -0.80019167576E+01  0.52701084372E+02 -0.84742650716E+02  0.10011868865E+03  0.10000000000E+01 0.  0.
<mgrwt>
<rscale>  0 0.12499846E+03</rscale>
<asrwt>0</asrwt>
<pdfrwt beam="1">  1        4 0.25258944E-02 0.12499846E+03</pdfrwt>
<pdfrwt beam="2">  1       -4 0.96652738E-01 0.12499846E+03</pdfrwt>
<totfact> 0.10637562E+03</totfact>
</mgrwt>
</event>
<event>
 5    1  0.1446384E-002  0.1249980E+03  0.7818608E-02  0.1235072E+00
          4   -1    0    0  501    0  0.00000000000E+00  0.00000000000E+00  0.63591470082E+03  0.63591596899E+03  0.12700000000E+01 0. -1.
         -4   -1    0    0    0  501 -0.00000000000E+00 -0.00000000000E+00 -0.60755932715E+01  0.62069101493E+01  0.12700000000E+01 0. -1.
         25    2    1    2    0    0  0.00000000000E+00  0.00000000000E+00  0.62983910755E+03  0.64212287914E+03  0.12499796206E+03 0.  0.
    9000005    1    3    3    0    0  0.48040247837E+02  0.25156635327E+02  0.47445016131E+03  0.47754023629E+03  0.10000000000E+01 0.  0.
    9000005    1    3    3    0    0 -0.48040247837E+02 -0.25156635327E+02  0.15538894624E+03  0.16458264285E+03  0.10000000000E+01 0.  0.
<mgrwt>
<rscale>  0 0.12499796E+03</rscale>
<asrwt>0</asrwt>
<pdfrwt beam="1">  1        4 0.15899526E+00 0.12499796E+03</pdfrwt>
<pdfrwt beam="2">  1       -4 0.15354713E-02 0.12499796E+03</pdfrwt>
<totfact> 0.68422666E+02</totfact>
</mgrwt>
</event>
<event>
 5    1  0.1446384E-002  0.1250016E+03  0.7818608E-02  0.1235067E+00
         -4   -1    0    0    0  501 -0.00000000000E+00  0.00000000000E+00  0.41029081941E+02  0.41048732805E+02  0.12700000000E+01 0. -1.
          4   -1    0    0  501    0  0.00000000000E+00 -0.00000000000E+00 -0.95162624204E+02  0.95171098267E+02  0.12700000000E+01 0. -1.
         25    2    1    2    0    0  0.00000000000E+00  0.00000000000E+00 -0.54133542263E+02  0.13621983107E+03  0.12500160791E+03 0.  0.
    9000005    1    3    3    0    0  0.31131425370E+01 -0.57777559606E+02 -0.13383540119E+01  0.57885483862E+02  0.10000000000E+01 0.  0.
    9000005    1    3    3    0    0 -0.31131425370E+01  0.57777559606E+02 -0.52795188251E+02  0.78334347211E+02  0.10000000000E+01 0.  0.
<mgrwt>
<rscale>  0 0.12500161E+03</rscale>
<asrwt>0</asrwt>
<pdfrwt beam="2">  1        4 0.23794171E-01 0.12500161E+03</pdfrwt>
<pdfrwt beam="1">  1       -4 0.10260786E-01 0.12500161E+03</pdfrwt>
<totfact> 0.19234712E+03</totfact>
</mgrwt>
</event>
<event>
 5    1  0.1446384E-002  0.1250033E+03  0.7818608E-02  0.1235064E+00
          4   -1    0    0  501    0  0.00000000000E+00  0.00000000000E+00  0.74534164619E+02  0.74544983705E+02  0.12700000000E+01 0. -1.
         -4   -1    0    0    0  501 -0.00000000000E+00 -0.00000000000E+00 -0.52389283940E+02  0.52404675094E+02  0.12700000000E+01 0. -1.
         25    2    1    2    0    0  0.00000000000E+00  0.00000000000E+00  0.22144880679E+02  0.12694965880E+03  0.12500328047E+03 0.  0.
    9000005    1    3    3    0    0  0.41784537923E+02 -0.42941231481E+02  0.29112990080E+02  0.66621791945E+02  0.10000000000E+01 0.  0.
    9000005    1    3    3    0    0 -0.41784537923E+02  0.42941231481E+02 -0.69681094004E+01  0.60327866854E+02  0.10000000000E+01 0.  0.
<mgrwt>
<rscale>  0 0.12500328E+03</rscale>
<asrwt>0</asrwt>
<pdfrwt beam="1">  1        4 0.18636817E-01 0.12500328E+03</pdfrwt>
<pdfrwt beam="2">  1       -4 0.13100597E-01 0.12500328E+03</pdfrwt>
<totfact> 0.19728175E+03</totfact>
</mgrwt>
</event>
<event>
 5    1  0.1446384E-002  0.1250006E+03  0.7818608E-02  0.1235068E+00
          4   -1    0    0  501    0  0.00000000000E+00  0.00000000000E+00  0.10166872397E+02  0.10245886703E+02  0.12700000000E+01 0. -1.
         -4   -1    0    0    0  501 -0.00000000000E+00 -0.00000000000E+00 -0.38264997405E+03  0.38265208158E+03  0.12700000000E+01 0. -1.
         25    2    1    2    0    0  0.00000000000E+00  0.00000000000E+00 -0.37248310165E+03  0.39289796828E+03  0.12500060987E+03 0.  0.
    9000005    1    3    3    0    0 -0.19910192175E+01  0.61877143398E+02 -0.21301261646E+03  0.22182903282E+03  0.10000000000E+01 0.  0.
    9000005    1    3    3    0    0  0.19910192175E+01 -0.61877143398E+02 -0.15947048519E+03  0.17106893546E+03  0.10000000000E+01 0.  0.
<mgrwt>
<rscale>  0 0.12500061E+03</rscale>
<asrwt>0</asrwt>
<pdfrwt beam="1">  1        4 0.25518596E-02 0.12500061E+03</pdfrwt>
<pdfrwt beam="2">  1       -4 0.95672586E-01 0.12500061E+03</pdfrwt>
<totfact> 0.10716821E+03</totfact>
</mgrwt>
</event>
<event>
 5    1  0.1446384E-002  0.1250002E+03  0.7818608E-02  0.1235069E+00
         -4   -1    0    0    0  501 -0.00000000000E+00  0.00000000000E+00  0.12428894133E+03  0.12429542967E+03  0.12700000000E+01 0. -1.
          4   -1    0    0  501    0  0.00000000000E+00 -0.00000000000E+00 -0.31408741169E+02  0.31434406657E+02  0.12700000000E+01 0. -1.
         25    2    1    2    0    0  0.00000000000E+00  0.00000000000E+00  0.92880200157E+02  0.15572983632E+03  0.12500020136E+03 0.  0.
    9000005    1    3    3    0    0 -0.30076282884E+02 -0.44100968758E+02  0.86920866285E+02  0.10200840766E+03  0.10000000000E+01 0.  0.
    9000005    1    3    3    0    0  0.30076282884E+02  0.44100968758E+02  0.59593338714E+01  0.53721428663E+02  0.10000000000E+01 0.  0.
<mgrwt>
<rscale>  0 0.12500020E+03</rscale>
<asrwt>0</asrwt>
<pdfrwt beam="2">  1        4 0.78562046E-02 0.12500020E+03</pdfrwt>
<pdfrwt beam="1">  1       -4 0.31076254E-01 0.12500020E+03</pdfrwt>
<totfact> 0.18260500E+03</totfact>
</mgrwt>
</event>
<event>
 5    1  0.1446384E-002  0.1249985E+03  0.7818608E-02  0.1235072E+00
         -4   -1    0    0    0  501 -0.00000000000E+00  0.00000000000E+00  0.24687091214E+03  0.24687417881E+03  0.12700000000E+01 0.  1.
          4   -1    0    0  501    0  0.00000000000E+00 -0.00000000000E+00 -0.15793803568E+02  0.15844782458E+02  0.12700000000E+01 0.  1.
         25    2    1    2    0    0  0.00000000000E+00  0.00000000000E+00  0.23107710858E+03  0.26271896127E+03  0.12499849000E+03 0.  0.
    9000005    1    3    3    0    0 -0.15135611664E+02 -0.45546143322E+02  0.19965212765E+03  0.20534242131E+03  0.10000000000E+01 0.  0.
    9000005    1    3    3    0    0  0.15135611664E+02  0.45546143322E+02  0.31424980924E+02  0.57376539961E+02  0.10000000000E+01 0.  0.
<mgrwt>
<rscale>  0 0.12499849E+03</rscale>
<asrwt>0</asrwt>
<pdfrwt beam="2">  1        4 0.39552315E-02 0.12499849E+03</pdfrwt>
<pdfrwt beam="1">  1       -4 0.61724510E-01 0.12499849E+03</pdfrwt>
<totfact> 0.14084745E+03</totfact>
</mgrwt>
</event>
<event>
 4    1  0.1446384E-002  0.1248602E+03  0.7818608E-02  0.1235288E+00
          4   -1    0    0  501    0  0.00000000000E+00  0.00000000000E+00  0.43330790763E+03  0.43330976877E+03  0.12700000000E+01 0.  1.
         -4   -1    0    0    0  501 -0.00000000000E+00 -0.00000000000E+00 -0.89480739990E+01  0.90377501786E+01  0.12700000000E+01 0.  1.
    9000005    1    1    2    0    0 -0.21005250531E+02 -0.50576295338E+02  0.10605522722E+03  0.11936454005E+03  0.10000000000E+01 0.  0.
    9000005    1    1    2    0    0  0.21005250531E+02  0.50576295338E+02  0.31830460641E+03  0.32298297890E+03  0.10000000000E+01 0.  0.
<mgrwt>
<rscale>  0 0.12486016E+03</rscale>
<asrwt>0</asrwt>
<pdfrwt beam="1">  1        4 0.10833842E+00 0.12486016E+03</pdfrwt>
<pdfrwt beam="2">  1       -4 0.22484607E-02 0.12486016E+03</pdfrwt>
<totfact> 0.97717572E+02</totfact>
</mgrwt>
</event>
<event>
 5    1  0.1446384E-002  0.1250022E+03  0.7818608E-02  0.1235066E+00
         -4   -1    0    0    0  501 -0.00000000000E+00  0.00000000000E+00  0.67973553374E+01  0.69149793625E+01  0.12700000000E+01 0.  1.
          4   -1    0    0  501    0  0.00000000000E+00 -0.00000000000E+00 -0.56964421663E+03  0.56964563234E+03  0.12700000000E+01 0.  1.
         25    2    1    2    0    0  0.00000000000E+00  0.00000000000E+00 -0.56284686129E+03  0.57656061170E+03  0.12500219876E+03 0.  0.
    9000005    1    3    3    0    0  0.26330208852E+02 -0.20338143268E+02 -0.52542209433E+03  0.52647535287E+03  0.10000000000E+01 0.  0.
    9000005    1    3    3    0    0 -0.26330208852E+02  0.20338143268E+02 -0.37424766965E+02  0.50085258831E+02  0.10000000000E+01 0.  0.
<mgrwt>
<rscale>  0 0.12500220E+03</rscale>
<asrwt>0</asrwt>
<pdfrwt beam="2">  1        4 0.14242577E+00 0.12500220E+03</pdfrwt>
<pdfrwt beam="1">  1       -4 0.17142207E-02 0.12500220E+03</pdfrwt>
<totfact> 0.76529847E+02</totfact>
</mgrwt>
</event>
<event>
 5    1  0.1446384E-002  0.1249977E+03  0.7818608E-02  0.1235073E+00
         -4   -1    0    0    0  501 -0.00000000000E+00  0.00000000000E+00  0.61492328540E+03  0.61492459686E+03  0.12700000000E+01 0. -1.
          4   -1    0    0  501    0  0.00000000000E+00 -0.00000000000E+00 -0.62873790465E+01  0.64143616420E+01  0.12700000000E+01 0. -1.
         25    2    1    2    0    0  0.00000000000E+00  0.00000000000E+00  0.60863590635E+03  0.62133895850E+03  0.12499773939E+03 0.  0.
    9000005    1    3    3    0    0 -0.22592648141E+02 -0.49308568180E+02  0.45860078112E+03  0.46179805012E+03  0.10000000000E+01 0.  0.
    9000005    1    3    3    0    0  0.22592648141E+02  0.49308568180E+02  0.15003512523E+03  0.15954090838E+03  0.10000000000E+01 0.  0.
<mgrwt>
<rscale>  0 0.12499774E+03</rscale>
<asrwt>0</asrwt>
<pdfrwt beam="2">  1        4 0.15878815E-02 0.12499774E+03</pdfrwt>
<pdfrwt beam="1">  1       -4 0.15374686E+00 0.12499774E+03</pdfrwt>
<totfact> 0.70884786E+02</totfact>
</mgrwt>
</event>
<event>
 5    1  0.1446384E-002  0.1249896E+03  0.7818608E-02  0.1235086E+00
         -4   -1    0    0    0  501 -0.00000000000E+00  0.00000000000E+00  0.13647077888E+03  0.13647668807E+03  0.12700000000E+01 0.  1.
          4   -1    0    0  501    0  0.00000000000E+00 -0.00000000000E+00 -0.28597952327E+02  0.28626138009E+02  0.12700000000E+01 0.  1.
         25    2    1    2    0    0  0.00000000000E+00  0.00000000000E+00  0.10787282655E+03  0.16510282608E+03  0.12498958545E+03 0.  0.
    9000005    1    3    3    0    0  0.33971359555E+02  0.31762247113E+02 -0.11910542322E+01  0.46532915467E+02  0.10000000000E+01 0.  0.
    9000005    1    3    3    0    0 -0.33971359555E+02 -0.31762247113E+02  0.10906388078E+03  0.11856991061E+03  0.10000000000E+01 0.  0.
<mgrwt>
<rscale>  0 0.12498959E+03</rscale>
<asrwt>0</asrwt>
<pdfrwt beam="2">  1        4 0.71537501E-02 0.12498959E+03</pdfrwt>
<pdfrwt beam="1">  1       -4 0.34121956E-01 0.12498959E+03</pdfrwt>
<totfact> 0.17824531E+03</totfact>
</mgrwt>
</event>
<event>
 5    1  0.1446384E-002  0.1249992E+03  0.7818608E-02  0.1235071E+00
         -4   -1    0    0    0  501 -0.00000000000E+00  0.00000000000E+00  0.13045480055E+03  0.13046098224E+03  0.12700000000E+01 0.  1.
          4   -1    0    0  501    0  0.00000000000E+00 -0.00000000000E+00 -0.29922586053E+02  0.29949525140E+02  0.12700000000E+01 0.  1.
         25    2    1    2    0    0  0.00000000000E+00  0.00000000000E+00  0.10053221450E+03  0.16041050738E+03  0.12499921890E+03 0.  0.
    9000005    1    3    3    0    0 -0.39661842959E+02  0.36367632967E+02  0.91040371368E+02  0.10575923474E+03  0.10000000000E+01 0.  0.
    9000005    1    3    3    0    0  0.39661842959E+02 -0.36367632967E+02  0.94918431273E+01  0.54651272633E+02  0.10000000000E+01 0.  0.
<mgrwt>
<rscale>  0 0.12499922E+03</rscale>
<asrwt>0</asrwt>
<pdfrwt beam="2">  1        4 0.74847867E-02 0.12499922E+03</pdfrwt>
<pdfrwt beam="1">  1       -4 0.32617840E-01 0.12499922E+03</pdfrwt>
<totfact> 0.18038780E+03</totfact>
</mgrwt>
</event>
<event>
 5    1  0.1446384E-002  0.1249963E+03  0.7818608E-02  0.1235075E+00
         -4   -1    0    0    0  501 -0.00000000000E+00  0.00000000000E+00  0.62140060799E+01  0.63424578486E+01  0.12700000000E+01 0. -1.
          4   -1    0    0  501    0  0.00000000000E+00 -0.00000000000E+00 -0.62202349047E+03  0.62202478697E+03  0.12700000000E+01 0. -1.
         25    2    1    2    0    0  0.00000000000E+00  0.00000000000E+00 -0.61580948439E+03  0.62836724482E+03  0.12499629309E+03 0.  0.
    9000005    1    3    3    0    0  0.17047136600E+02 -0.45000514363E+02 -0.10749052692E+03  0.11777463452E+03  0.10000000000E+01 0.  0.
    9000005    1    3    3    0    0 -0.17047136600E+02  0.45000514363E+02 -0.50831895747E+03  0.51059261029E+03  0.10000000000E+01 0.  0.
<mgrwt>
<rscale>  0 0.12499629E+03</rscale>
<asrwt>0</asrwt>
<pdfrwt beam="2">  1        4 0.15552188E+00 0.12499629E+03</pdfrwt>
<pdfrwt beam="1">  1       -4 0.15697222E-02 0.12499629E+03</pdfrwt>
<totfact> 0.70047633E+02</totfact>
</mgrwt>
</event>
<event>
 5    1  0.1446384E-002  0.1249988E+03  0.7818608E-02  0.1235071E+00
          4   -1    0    0  501    0  0.00000000000E+00  0.00000000000E+00  0.27602251190E+02  0.27631452563E+02  0.12700000000E+01 0.  1.
         -4   -1    0    0    0  501 -0.00000000000E+00 -0.00000000000E+00 -0.14140977094E+03  0.14141547375E+03  0.12700000000E+01 0.  1.
         25    2    1    2    0    0  0.00000000000E+00  0.00000000000E+00 -0.11380751975E+03  0.16904692632E+03  0.12499884698E+03 0.  0.
    9000005    1    3    3    0    0 -0.43811810590E+01 -0.51790594607E+02 -0.10382436006E+03  0.11611183479E+03  0.10000000000E+01 0.  0.
    9000005    1    3    3    0    0  0.43811810590E+01  0.51790594607E+02 -0.99831596907E+01  0.52935091524E+02  0.10000000000E+01 0.  0.
<mgrwt>
<rscale>  0 0.12499885E+03</rscale>
<asrwt>0</asrwt>
<pdfrwt beam="1">  1        4 0.69049262E-02 0.12499885E+03</pdfrwt>
<pdfrwt beam="2">  1       -4 0.35356804E-01 0.12499885E+03</pdfrwt>
<totfact> 0.17640593E+03</totfact>
</mgrwt>
</event>
<event>
 5    1  0.1446384E-002  0.1250030E+03  0.7818608E-02  0.1235065E+00
          4   -1    0    0  501    0  0.00000000000E+00  0.00000000000E+00  0.37617387853E+03  0.37617602235E+03  0.12700000000E+01 0. -1.
         -4   -1    0    0    0  501 -0.00000000000E+00 -0.00000000000E+00 -0.10343642041E+02  0.10421316168E+02  0.12700000000E+01 0. -1.
         25    2    1    2    0    0  0.00000000000E+00  0.00000000000E+00  0.36583023649E+03  0.38659733852E+03  0.12500296083E+03 0.  0.
    9000005    1    3    3    0    0 -0.14020930579E+02 -0.59261508879E+02  0.13951550922E+03  0.15223038541E+03  0.10000000000E+01 0.  0.
    9000005    1    3    3    0    0  0.14020930579E+02  0.59261508879E+02  0.22631472727E+03  0.23436695311E+03  0.10000000000E+01 0.  0.
<mgrwt>
<rscale>  0 0.12500296E+03</rscale>
<asrwt>0</asrwt>
<pdfrwt beam="1">  1        4 0.94053445E-01 0.12500296E+03</pdfrwt>
<pdfrwt beam="2">  1       -4 0.25958878E-02 0.12500296E+03</pdfrwt>
<totfact> 0.10849849E+03</totfact>
</mgrwt>
</event>
<event>
 5    1  0.1446384E-002  0.1250021E+03  0.7818608E-02  0.1235066E+00
         -4   -1    0    0    0  501 -0.00000000000E+00  0.00000000000E+00  0.24213644594E+03  0.24213977648E+03  0.12700000000E+01 0. -1.
          4   -1    0    0  501    0  0.00000000000E+00 -0.00000000000E+00 -0.16104524159E+02  0.16154522537E+02  0.12700000000E+01 0. -1.
         25    2    1    2    0    0  0.00000000000E+00  0.00000000000E+00  0.22603192178E+03  0.25829429902E+03  0.12500206094E+03 0.  0.
    9000005    1    3    3    0    0 -0.24594738243E+02  0.49513076442E+02  0.17322120689E+03  0.18183242947E+03  0.10000000000E+01 0.  0.
    9000005    1    3    3    0    0  0.24594738243E+02 -0.49513076442E+02  0.52810714888E+02  0.76461869549E+02  0.10000000000E+01 0.  0.
<mgrwt>
<rscale>  0 0.12500206E+03</rscale>
<asrwt>0</asrwt>
<pdfrwt beam="2">  1        4 0.40327972E-02 0.12500206E+03</pdfrwt>
<pdfrwt beam="1">  1       -4 0.60540778E-01 0.12500206E+03</pdfrwt>
<totfact> 0.14225413E+03</totfact>
</mgrwt>
</event>
<event>
 5    1  0.1446384E-002  0.1249987E+03  0.7818608E-02  0.1235071E+00
          4   -1    0    0  501    0  0.00000000000E+00  0.00000000000E+00  0.88189219030E+03  0.88189310475E+03  0.12700000000E+01 0.  1.
         -4   -1    0    0    0  501 -0.00000000000E+00 -0.00000000000E+00 -0.43373350452E+01  0.45194441356E+01  0.12700000000E+01 0.  1.
         25    2    1    2    0    0  0.00000000000E+00  0.00000000000E+00  0.87755485525E+03  0.88641254889E+03  0.12499873138E+03 0.  0.
    9000005    1    3    3    0    0 -0.32014430347E+01  0.43447060352E+02  0.12106539319E+03  0.12866905502E+03  0.10000000000E+01 0.  0.
    9000005    1    3    3    0    0  0.32014430347E+01 -0.43447060352E+02  0.75648946206E+03  0.75774349387E+03  0.10000000000E+01 0.  0.
<mgrwt>
<rscale>  0 0.12499873E+03</rscale>
<asrwt>0</asrwt>
<pdfrwt beam="1">  1        4 0.22049602E+00 0.12499873E+03</pdfrwt>
<pdfrwt beam="2">  1       -4 0.11072112E-02 0.12499873E+03</pdfrwt>
<totfact> 0.45322968E+02</totfact>
</mgrwt>
</event>
<event>
 5    1  0.1446384E-002  0.1249984E+03  0.7818608E-02  0.1235072E+00
         -4   -1    0    0    0  501 -0.00000000000E+00  0.00000000000E+00  0.15249664698E+03  0.15250193520E+03  0.12700000000E+01 0. -1.
          4   -1    0    0  501    0  0.00000000000E+00 -0.00000000000E+00 -0.25593173448E+02  0.25624664430E+02  0.12700000000E+01 0. -1.
         25    2    1    2    0    0  0.00000000000E+00  0.00000000000E+00  0.12690347353E+03  0.17812659963E+03  0.12499837560E+03 0.  0.
    9000005    1    3    3    0    0  0.30351052396E+02  0.52888773316E+02  0.43978291422E+02  0.75189752233E+02  0.10000000000E+01 0.  0.
    9000005    1    3    3    0    0 -0.30351052396E+02 -0.52888773316E+02  0.82925182106E+02  0.10293684740E+03  0.10000000000E+01 0.  0.
<mgrwt>
<rscale>  0 0.12499838E+03</rscale>
<asrwt>0</asrwt>
<pdfrwt beam="2">  1        4 0.64028908E-02 0.12499838E+03</pdfrwt>
<pdfrwt beam="1">  1       -4 0.38128759E-01 0.12499838E+03</pdfrwt>
<totfact> 0.17237261E+03</totfact>
</mgrwt>
</event>
<event>
 5    1  0.1446384E-002  0.1250023E+03  0.7818608E-02  0.1235066E+00
          4   -1    0    0  501    0  0.00000000000E+00  0.00000000000E+00  0.97494807716E+01  0.98318500454E+01  0.12700000000E+01 0. -1.
         -4   -1    0    0    0  501 -0.00000000000E+00 -0.00000000000E+00 -0.39890814359E+03  0.39891016523E+03  0.12700000000E+01 0. -1.
         25    2    1    2    0    0  0.00000000000E+00  0.00000000000E+00 -0.38915866282E+03  0.40874201528E+03  0.12500228079E+03 0.  0.
    9000005    1    3    3    0    0  0.35327491058E+02  0.42986945777E+02 -0.10154669608E+03  0.11579568480E+03  0.10000000000E+01 0.  0.
    9000005    1    3    3    0    0 -0.35327491058E+02 -0.42986945777E+02 -0.28761196674E+03  0.29294633048E+03  0.10000000000E+01 0.  0.
<mgrwt>
<rscale>  0 0.12500228E+03</rscale>
<asrwt>0</asrwt>
<pdfrwt beam="1">  1        4 0.24479204E-02 0.12500228E+03</pdfrwt>
<pdfrwt beam="2">  1       -4 0.99737530E-01 0.12500228E+03</pdfrwt>
<totfact> 0.10390780E+03</totfact>
</mgrwt>
</event>
<event>
 5    1  0.1446384E-002  0.1249914E+03  0.7818608E-02  0.1235083E+00
         -4   -1    0    0    0  501 -0.00000000000E+00  0.00000000000E+00  0.60018916093E+02  0.60032351187E+02  0.12700000000E+01 0.  1.
          4   -1    0    0  501    0  0.00000000000E+00 -0.00000000000E+00 -0.65047790219E+02  0.65060186846E+02  0.12700000000E+01 0.  1.
         25    2    1    2    0    0  0.00000000000E+00  0.00000000000E+00 -0.50288741257E+01  0.12509253803E+03  0.12499141369E+03 0.  0.
    9000005    1    3    3    0    0 -0.22014811633E+02 -0.40589643171E+02  0.39621196577E+02  0.60852364639E+02  0.10000000000E+01 0.  0.
    9000005    1    3    3    0    0  0.22014811633E+02  0.40589643171E+02 -0.44650070702E+02  0.64240173394E+02  0.10000000000E+01 0.  0.
<mgrwt>
<rscale>  0 0.12499141E+03</rscale>
<asrwt>0</asrwt>
<pdfrwt beam="2">  1        4 0.16265177E-01 0.12499141E+03</pdfrwt>
<pdfrwt beam="1">  1       -4 0.15007958E-01 0.12499141E+03</pdfrwt>
<totfact> 0.19834022E+03</totfact>
</mgrwt>
</event>
<event>
 5    1  0.1446384E-002  0.1250217E+03  0.7818608E-02  0.1235035E+00
         -4   -1    0    0    0  501 -0.00000000000E+00  0.00000000000E+00  0.16326471071E+02  0.16375791817E+02  0.12700000000E+01 0.  1.
          4   -1    0    0  501    0  0.00000000000E+00 -0.00000000000E+00 -0.23892993453E+03  0.23893330976E+03  0.12700000000E+01 0.  1.
         25    2    1    2    0    0  0.00000000000E+00  0.00000000000E+00 -0.22260346346E+03  0.25530910158E+03  0.12502173973E+03 0.  0.
    9000005    1    3    3    0    0 -0.39499595371E+02  0.48015604697E+02 -0.98242948578E+02  0.11626862549E+03  0.10000000000E+01 0.  0.
    9000005    1    3    3    0    0  0.39499595371E+02 -0.48015604697E+02 -0.12436051488E+03  0.13904047608E+03  0.10000000000E+01 0.  0.
<mgrwt>
<rscale>  0 0.12502174E+03</rscale>
<asrwt>0</asrwt>
<pdfrwt beam="2">  1        4 0.59739060E-01 0.12502174E+03</pdfrwt>
<pdfrwt beam="1">  1       -4 0.40882055E-02 0.12502174E+03</pdfrwt>
<totfact> 0.14315874E+03</totfact>
</mgrwt>
</event>
<event>
 5    1  0.1446384E-002  0.1250010E+03  0.7818608E-02  0.1235068E+00
          4   -1    0    0  501    0  0.00000000000E+00  0.00000000000E+00  0.14779205475E+03  0.14779751131E+03  0.12700000000E+01 0.  1.
         -4   -1    0    0    0  501 -0.00000000000E+00 -0.00000000000E+00 -0.26409938563E+02  0.26440456784E+02  0.12700000000E+01 0.  1.
         25    2    1    2    0    0  0.00000000000E+00  0.00000000000E+00  0.12138211619E+03  0.17423796809E+03  0.12500100557E+03 0.  0.
    9000005    1    3    3    0    0 -0.51306870479E+02 -0.34563720511E+02  0.73022644554E+02  0.95709729660E+02  0.10000000000E+01 0.  0.
    9000005    1    3    3    0    0  0.51306870479E+02  0.34563720511E+02  0.48359471636E+02  0.78528238430E+02  0.10000000000E+01 0.  0.
<mgrwt>
<rscale>  0 0.12500101E+03</rscale>
<asrwt>0</asrwt>
<pdfrwt beam="1">  1        4 0.36952510E-01 0.12500101E+03</pdfrwt>
<pdfrwt beam="2">  1       -4 0.66069816E-02 0.12500101E+03</pdfrwt>
<totfact> 0.17407167E+03</totfact>
</mgrwt>
</event>
<event>
 4    1  0.1446384E-002  0.1249385E+03  0.7818608E-02  0.1235165E+00
          4   -1    0    0  501    0  0.00000000000E+00  0.00000000000E+00  0.15401079126E+03  0.15401602749E+03  0.12700000000E+01 0. -1.
         -4   -1    0    0    0  501 -0.00000000000E+00 -0.00000000000E+00 -0.25316948713E+02  0.25348782853E+02  0.12700000000E+01 0. -1.
    9000005    1    1    2    0    0  0.48943121222E+02 -0.20203254072E+02  0.16780122884E+02  0.55553335760E+02  0.10000000000E+01 0.  0.
    9000005    1    1    2    0    0 -0.48943121222E+02  0.20203254072E+02  0.11191371966E+03  0.12381147458E+03  0.10000000000E+01 0.  0.
<mgrwt>
<rscale>  0 0.12493851E+03</rscale>
<asrwt>0</asrwt>
<pdfrwt beam="1">  1        4 0.38507331E-01 0.12493851E+03</pdfrwt>
<pdfrwt beam="2">  1       -4 0.63338711E-02 0.12493851E+03</pdfrwt>
<totfact> 0.17207265E+03</totfact>
</mgrwt>
</event>
<event>
 5    1  0.1446384E-002  0.1250067E+03  0.7818608E-02  0.1235059E+00
          4   -1    0    0  501    0  0.00000000000E+00  0.00000000000E+00  0.13939925666E+03  0.13940504172E+03  0.12700000000E+01 0. -1.
         -4   -1    0    0    0  501 -0.00000000000E+00 -0.00000000000E+00 -0.28004278862E+02  0.28033061456E+02  0.12700000000E+01 0. -1.
         25    2    1    2    0    0  0.00000000000E+00  0.00000000000E+00  0.11139497779E+03  0.16743810317E+03  0.12500670909E+03 0.  0.
    9000005    1    3    3    0    0  0.34199477876E+02 -0.41782644980E+02  0.97847628465E+02  0.11176113862E+03  0.10000000000E+01 0.  0.
    9000005    1    3    3    0    0 -0.34199477876E+02  0.41782644980E+02  0.13547349328E+02  0.55676964557E+02  0.10000000000E+01 0.  0.
<mgrwt>
<rscale>  0 0.12500671E+03</rscale>
<asrwt>0</asrwt>
<pdfrwt beam="1">  1        4 0.34854134E-01 0.12500671E+03</pdfrwt>
<pdfrwt beam="2">  1       -4 0.70053909E-02 0.12500671E+03</pdfrwt>
<totfact> 0.17710463E+03</totfact>
</mgrwt>
</event>
<event>
 5    1  0.1446384E-002  0.1250027E+03  0.7818608E-02  0.1235065E+00
         -4   -1    0    0    0  501 -0.00000000000E+00  0.00000000000E+00  0.51403679006E+02  0.51419365178E+02  0.12700000000E+01 0. -1.
          4   -1    0    0  501    0  0.00000000000E+00 -0.00000000000E+00 -0.75962387542E+02  0.75973003238E+02  0.12700000000E+01 0. -1.
         25    2    1    2    0    0  0.00000000000E+00  0.00000000000E+00 -0.24558708536E+02  0.12739236842E+03  0.12500274143E+03 0.  0.
    9000005    1    3    3    0    0  0.53979388806E+02 -0.29434704097E+02 -0.23684590403E+02  0.65894886324E+02  0.10000000000E+01 0.  0.
    9000005    1    3    3    0    0 -0.53979388806E+02  0.29434704097E+02 -0.87411813290E+00  0.61497482092E+02  0.10000000000E+01 0.  0.
<mgrwt>
<rscale>  0 0.12500274E+03</rscale>
<asrwt>0</asrwt>
<pdfrwt beam="2">  1        4 0.18993885E-01 0.12500274E+03</pdfrwt>
<pdfrwt beam="1">  1       -4 0.12854208E-01 0.12500274E+03</pdfrwt>
<totfact> 0.19704402E+03</totfact>
</mgrwt>
</event>
<event>
 5    1  0.1446384E-002  0.1250020E+03  0.7818608E-02  0.1235066E+00
          4   -1    0    0  501    0  0.00000000000E+00  0.00000000000E+00  0.59574303353E+02  0.59587838692E+02  0.12700000000E+01 0. -1.
         -4   -1    0    0    0  501 -0.00000000000E+00 -0.00000000000E+00 -0.65544315375E+02  0.65556618110E+02  0.12700000000E+01 0. -1.
         25    2    1    2    0    0  0.00000000000E+00  0.00000000000E+00 -0.59700120220E+01  0.12514445680E+03  0.12500197608E+03 0.  0.
    9000005    1    3    3    0    0  0.35651290664E+02 -0.26006233244E+02  0.41315118157E+02  0.60458892496E+02  0.10000000000E+01 0.  0.
    9000005    1    3    3    0    0 -0.35651290664E+02  0.26006233244E+02 -0.47285130179E+02  0.64685564306E+02  0.10000000000E+01 0.  0.
<mgrwt>
<rscale>  0 0.12500198E+03</rscale>
<asrwt>0</asrwt>
<pdfrwt beam="1">  1        4 0.14896806E-01 0.12500198E+03</pdfrwt>
<pdfrwt beam="2">  1       -4 0.16389309E-01 0.12500198E+03</pdfrwt>
<totfact> 0.19826306E+03</totfact>
</mgrwt>
</event>
<event>
 5    1  0.1446384E-002  0.1249978E+03  0.7818608E-02  0.1235073E+00
          4   -1    0    0  501    0  0.00000000000E+00  0.00000000000E+00  0.50801042045E+03  0.50801200792E+03  0.12700000000E+01 0.  1.
         -4   -1    0    0    0  501 -0.00000000000E+00 -0.00000000000E+00 -0.76349847810E+01  0.77398897024E+01  0.12700000000E+01 0.  1.
         25    2    1    2    0    0  0.00000000000E+00  0.00000000000E+00  0.50037543567E+03  0.51575189762E+03  0.12499777308E+03 0.  0.
    9000005    1    3    3    0    0 -0.26707257296E+02  0.52824236301E+02  0.16751822967E+03  0.17767114230E+03  0.10000000000E+01 0.  0.
    9000005    1    3    3    0    0  0.26707257296E+02 -0.52824236301E+02  0.33285720600E+03  0.33808075532E+03  0.10000000000E+01 0.  0.
<mgrwt>
<rscale>  0 0.12499777E+03</rscale>
<asrwt>0</asrwt>
<pdfrwt beam="1">  1        4 0.12701592E+00 0.12499777E+03</pdfrwt>
<pdfrwt beam="2">  1       -4 0.19220577E-02 0.12499777E+03</pdfrwt>
<totfact> 0.85158981E+02</totfact>
</mgrwt>
</event>
<event>
 5    1  0.1446384E-002  0.1250046E+03  0.7818608E-02  0.1235062E+00
         -4   -1    0    0    0  501 -0.00000000000E+00  0.00000000000E+00  0.11555648927E+03  0.11556346790E+03  0.12700000000E+01 0.  1.
          4   -1    0    0  501    0  0.00000000000E+00 -0.00000000000E+00 -0.33786382405E+02  0.33810243063E+02  0.12700000000E+01 0.  1.
         25    2    1    2    0    0  0.00000000000E+00  0.00000000000E+00  0.81770106863E+02  0.14937371096E+03  0.12500462051E+03 0.  0.
    9000005    1    3    3    0    0  0.50154120327E+02 -0.31891012930E+02  0.17804771369E+02  0.62052255196E+02  0.10000000000E+01 0.  0.
    9000005    1    3    3    0    0 -0.50154120327E+02  0.31891012930E+02  0.63965335495E+02  0.87321455762E+02  0.10000000000E+01 0.  0.
<mgrwt>
<rscale>  0 0.12500462E+03</rscale>
<asrwt>0</asrwt>
<pdfrwt beam="2">  1        4 0.84504506E-02 0.12500462E+03</pdfrwt>
<pdfrwt beam="1">  1       -4 0.28892977E-01 0.12500462E+03</pdfrwt>
<totfact> 0.18567622E+03</totfact>
</mgrwt>
</event>
<event>
 5    1  0.1446384E-002  0.1249989E+03  0.7818608E-02  0.1235071E+00
          4   -1    0    0  501    0  0.00000000000E+00  0.00000000000E+00  0.26474196285E+03  0.26474500900E+03  0.12700000000E+01 0. -1.
         -4   -1    0    0    0  501 -0.00000000000E+00 -0.00000000000E+00 -0.14724214246E+02  0.14778883083E+02  0.12700000000E+01 0. -1.
         25    2    1    2    0    0  0.00000000000E+00  0.00000000000E+00  0.25001774860E+03  0.27952389208E+03  0.12499892652E+03 0.  0.
    9000005    1    3    3    0    0  0.75745355985E+01 -0.35829181657E+02  0.11774481024E+02  0.38480413864E+02  0.10000000000E+01 0.  0.
    9000005    1    3    3    0    0 -0.75745355985E+01  0.35829181657E+02  0.23824326757E+03  0.24104347822E+03  0.10000000000E+01 0.  0.
<mgrwt>
<rscale>  0 0.12499893E+03</rscale>
<asrwt>0</asrwt>
<pdfrwt beam="1">  1        4 0.66192705E-01 0.12499893E+03</pdfrwt>
<pdfrwt beam="2">  1       -4 0.36882679E-02 0.12499893E+03</pdfrwt>
<totfact> 0.13565319E+03</totfact>
</mgrwt>
</event>
<event>
 5    1  0.1446384E-002  0.1250024E+03  0.7818608E-02  0.1235065E+00
          4   -1    0    0  501    0  0.00000000000E+00  0.00000000000E+00  0.26439694748E+03  0.26439999761E+03  0.12700000000E+01 0.  1.
         -4   -1    0    0    0  501 -0.00000000000E+00 -0.00000000000E+00 -0.14744329132E+02  0.14798923662E+02  0.12700000000E+01 0.  1.
         25    2    1    2    0    0  0.00000000000E+00  0.00000000000E+00  0.24965261834E+03  0.27919892127E+03  0.12500243114E+03 0.  0.
    9000005    1    3    3    0    0  0.47266027081E+02  0.40881658893E+02  0.12509617186E+03  0.13984076503E+03  0.10000000000E+01 0.  0.
    9000005    1    3    3    0    0 -0.47266027081E+02 -0.40881658893E+02  0.12455644648E+03  0.13935815624E+03  0.10000000000E+01 0.  0.
<mgrwt>
<rscale>  0 0.12500243E+03</rscale>
<asrwt>0</asrwt>
<pdfrwt beam="1">  1        4 0.66106444E-01 0.12500243E+03</pdfrwt>
<pdfrwt beam="2">  1       -4 0.36932878E-02 0.12500243E+03</pdfrwt>
<totfact> 0.13573988E+03</totfact>
</mgrwt>
</event>
<event>
 4    1  0.1446384E-002  0.1256337E+03  0.7818608E-02  0.1234082E+00
          4   -1    0    0  501    0  0.00000000000E+00  0.00000000000E+00  0.37141139196E+01  0.39252442227E+01  0.12700000000E+01 0.  1.
         -4   -1    0    0    0  501 -0.00000000000E+00 -0.00000000000E+00 -0.10328486405E+04  0.10328494213E+04  0.12700000000E+01 0.  1.
    9000005    1    1    2    0    0  0.35313799884E+02  0.51114358337E+02 -0.43838755827E+03  0.44276900675E+03  0.10000000000E+01 0.  0.
    9000005    1    1    2    0    0 -0.35313799884E+02 -0.51114358337E+02 -0.59074696833E+03  0.59400565879E+03  0.10000000000E+01 0.  0.
<mgrwt>
<rscale>  0 0.12563373E+03</rscale>
<asrwt>0</asrwt>
<pdfrwt beam="1">  1        4 0.95502090E-03 0.12563373E+03</pdfrwt>
<pdfrwt beam="2">  1       -4 0.25823769E+00 0.12563373E+03</pdfrwt>
<totfact> 0.34198102E+02</totfact>
</mgrwt>
</event>
<event>
 5    1  0.1446384E-002  0.1250001E+03  0.7818608E-02  0.1235069E+00
         -4   -1    0    0    0  501 -0.00000000000E+00  0.00000000000E+00  0.38433322374E+02  0.38454299743E+02  0.12700000000E+01 0.  1.
          4   -1    0    0  501    0  0.00000000000E+00 -0.00000000000E+00 -0.10158449821E+03  0.10159243661E+03  0.12700000000E+01 0.  1.
         25    2    1    2    0    0  0.00000000000E+00  0.00000000000E+00 -0.63151175837E+02  0.14004673635E+03  0.12500006942E+03 0.  0.
    9000005    1    3    3    0    0  0.99147962881E+01  0.60153781802E+02 -0.46956712958E+02  0.76959168020E+02  0.10000000000E+01 0.  0.
    9000005    1    3    3    0    0 -0.99147962881E+01 -0.60153781802E+02 -0.16194462879E+02  0.63087568335E+02  0.10000000000E+01 0.  0.
<mgrwt>
<rscale>  0 0.12500007E+03</rscale>
<asrwt>0</asrwt>
<pdfrwt beam="2">  1        4 0.25399738E-01 0.12500007E+03</pdfrwt>
<pdfrwt beam="1">  1       -4 0.96119453E-02 0.12500007E+03</pdfrwt>
<totfact> 0.19037921E+03</totfact>
</mgrwt>
</event>
<event>
 5    1  0.1446384E-002  0.1250017E+03  0.7818608E-02  0.1235067E+00
          4   -1    0    0  501    0  0.00000000000E+00  0.00000000000E+00  0.89326415999E+03  0.89326506280E+03  0.12700000000E+01 0.  1.
         -4   -1    0    0    0  501 -0.00000000000E+00 -0.00000000000E+00 -0.42799951939E+01  0.44644438466E+01  0.12700000000E+01 0.  1.
         25    2    1    2    0    0  0.00000000000E+00  0.00000000000E+00  0.88898416480E+03  0.89772950665E+03  0.12500168739E+03 0.  0.
    9000005    1    3    3    0    0 -0.24468677362E+02  0.14500368565E+02  0.84412076658E+03  0.84460040577E+03  0.10000000000E+01 0.  0.
    9000005    1    3    3    0    0  0.24468677362E+02 -0.14500368565E+02  0.44863398218E+02  0.53129100877E+02  0.10000000000E+01 0.  0.
<mgrwt>
<rscale>  0 0.12500169E+03</rscale>
<asrwt>0</asrwt>
<pdfrwt beam="1">  1        4 0.22333925E+00 0.12500169E+03</pdfrwt>
<pdfrwt beam="2">  1       -4 0.10931675E-02 0.12500169E+03</pdfrwt>
<totfact> 0.44446542E+02</totfact>
</mgrwt>
</event>
<event>
 5    1  0.1446384E-002  0.1250009E+03  0.7818608E-02  0.1235068E+00
         -4   -1    0    0    0  501 -0.00000000000E+00  0.00000000000E+00  0.20313725023E+03  0.20314122017E+03  0.12700000000E+01 0.  1.
          4   -1    0    0  501    0  0.00000000000E+00 -0.00000000000E+00 -0.19204744439E+02  0.19246690858E+02  0.12700000000E+01 0.  1.
         25    2    1    2    0    0  0.00000000000E+00  0.00000000000E+00  0.18393250579E+03  0.22238791103E+03  0.12500086513E+03 0.  0.
    9000005    1    3    3    0    0 -0.41777297479E+02  0.46186853715E+01  0.96916289514E+01  0.43146291972E+02  0.10000000000E+01 0.  0.
    9000005    1    3    3    0    0  0.41777297479E+02 -0.46186853715E+01  0.17424087684E+03  0.17924161906E+03  0.10000000000E+01 0.  0.
<mgrwt>
<rscale>  0 0.12500087E+03</rscale>
<asrwt>0</asrwt>
<pdfrwt beam="2">  1        4 0.48069257E-02 0.12500087E+03</pdfrwt>
<pdfrwt beam="1">  1       -4 0.50790052E-01 0.12500087E+03</pdfrwt>
<totfact> 0.15462868E+03</totfact>
</mgrwt>
</event>
<event>
 5    1  0.1446384E-002  0.1249993E+03  0.7818608E-02  0.1235070E+00
         -4   -1    0    0    0  501 -0.00000000000E+00  0.00000000000E+00  0.58707367955E+03  0.58707505323E+03  0.12700000000E+01 0.  1.
          4   -1    0    0  501    0  0.00000000000E+00 -0.00000000000E+00 -0.65916960684E+01  0.67129246277E+01  0.12700000000E+01 0.  1.
         25    2    1    2    0    0  0.00000000000E+00  0.00000000000E+00  0.58048198348E+03  0.59378797785E+03  0.12499931799E+03 0.  0.
    9000005    1    3    3    0    0  0.23370395216E+02 -0.48625744595E+02  0.44005113122E+03  0.44334708356E+03  0.10000000000E+01 0.  0.
    9000005    1    3    3    0    0 -0.23370395216E+02  0.48625744595E+02  0.14043085226E+03  0.15044089429E+03  0.10000000000E+01 0.  0.
<mgrwt>
<rscale>  0 0.12499932E+03</rscale>
<asrwt>0</asrwt>
<pdfrwt beam="2">  1        4 0.16632496E-02 0.12499932E+03</pdfrwt>
<pdfrwt beam="1">  1       -4 0.14678372E+00 0.12499932E+03</pdfrwt>
<totfact> 0.74291246E+02</totfact>
</mgrwt>
</event>
<event>
 5    1  0.1446384E-002  0.1250014E+03  0.7818608E-02  0.1235067E+00
          4   -1    0    0  501    0  0.00000000000E+00  0.00000000000E+00  0.18967676733E+03  0.18968101899E+03  0.12700000000E+01 0. -1.
         -4   -1    0    0    0  501 -0.00000000000E+00 -0.00000000000E+00 -0.20570642549E+02  0.20609809191E+02  0.12700000000E+01 0. -1.
         25    2    1    2    0    0  0.00000000000E+00  0.00000000000E+00  0.16910612478E+03  0.21029082818E+03  0.12500140391E+03 0.  0.
    9000005    1    3    3    0    0  0.25585479137E+02 -0.52806171794E+02  0.48384259072E+02  0.76060140995E+02  0.10000000000E+01 0.  0.
    9000005    1    3    3    0    0 -0.25585479137E+02  0.52806171794E+02  0.12072186571E+03  0.13423068719E+03  0.10000000000E+01 0.  0.
<mgrwt>
<rscale>  0 0.12500140E+03</rscale>
<asrwt>0</asrwt>
<pdfrwt beam="1">  1        4 0.47424618E-01 0.12500140E+03</pdfrwt>
<pdfrwt beam="2">  1       -4 0.51480880E-02 0.12500140E+03</pdfrwt>
<totfact> 0.15917593E+03</totfact>
</mgrwt>
</event>
<event>
 5    1  0.1446384E-002  0.1249999E+03  0.7818608E-02  0.1235069E+00
         -4   -1    0    0    0  501 -0.00000000000E+00  0.00000000000E+00  0.47733228617E+02  0.47750120567E+02  0.12700000000E+01 0.  1.
          4   -1    0    0  501    0  0.00000000000E+00 -0.00000000000E+00 -0.81798615526E+02  0.81808473901E+02  0.12700000000E+01 0.  1.
         25    2    1    2    0    0  0.00000000000E+00  0.00000000000E+00 -0.34065386909E+02  0.12955859447E+03  0.12499991526E+03 0.  0.
    9000005    1    3    3    0    0  0.21731335659E+02 -0.57227156579E+02 -0.30062821444E+02  0.68205363666E+02  0.10000000000E+01 0.  0.
    9000005    1    3    3    0    0 -0.21731335659E+02  0.57227156579E+02 -0.40025654654E+01  0.61353230802E+02  0.10000000000E+01 0.  0.
<mgrwt>
<rscale>  0 0.12499992E+03</rscale>
<asrwt>0</asrwt>
<pdfrwt beam="2">  1        4 0.20452997E-01 0.12499992E+03</pdfrwt>
<pdfrwt beam="1">  1       -4 0.11936651E-01 0.12499992E+03</pdfrwt>
<totfact> 0.19588180E+03</totfact>
</mgrwt>
</event>
<event>
 5    1  0.1446384E-002  0.1249928E+03  0.7818608E-02  0.1235081E+00
          4   -1    0    0  501    0  0.00000000000E+00  0.00000000000E+00  0.52739076859E+01  0.54246660984E+01  0.12700000000E+01 0.  1.
         -4   -1    0    0    0  501 -0.00000000000E+00 -0.00000000000E+00 -0.73000200831E+03  0.73000311304E+03  0.12700000000E+01 0.  1.
         25    2    1    2    0    0  0.00000000000E+00  0.00000000000E+00 -0.72472810063E+03  0.73542777913E+03  0.12499279372E+03 0.  0.
    9000005    1    3    3    0    0  0.16952330524E+02  0.14665613129E+02 -0.70556128261E+03  0.70591797345E+03  0.10000000000E+01 0.  0.
    9000005    1    3    3    0    0 -0.16952330524E+02 -0.14665613129E+02 -0.19166818014E+02  0.29509805682E+02  0.10000000000E+01 0.  0.
<mgrwt>
<rscale>  0 0.12499279E+03</rscale>
<asrwt>0</asrwt>
<pdfrwt beam="1">  1        4 0.13374623E-02 0.12499279E+03</pdfrwt>
<pdfrwt beam="2">  1       -4 0.18251915E+00 0.12499279E+03</pdfrwt>
<totfact> 0.58489779E+02</totfact>
</mgrwt>
</event>
<event>
 5    1  0.1446384E-002  0.1250017E+03  0.7818608E-02  0.1235067E+00
         -4   -1    0    0    0  501 -0.00000000000E+00  0.00000000000E+00  0.49503166357E+02  0.49519454555E+02  0.12700000000E+01 0.  1.
          4   -1    0    0  501    0  0.00000000000E+00 -0.00000000000E+00 -0.78876882273E+02  0.78887105772E+02  0.12700000000E+01 0.  1.
         25    2    1    2    0    0  0.00000000000E+00  0.00000000000E+00 -0.29373715915E+02  0.12840656033E+03  0.12500171818E+03 0.  0.
    9000005    1    3    3    0    0 -0.60503913401E+02 -0.11579712782E+02 -0.38864783972E+01  0.61732633179E+02  0.10000000000E+01 0.  0.
    9000005    1    3    3    0    0  0.60503913401E+02  0.11579712782E+02 -0.25487237518E+02  0.66673927147E+02  0.10000000000E+01 0.  0.
<mgrwt>
<rscale>  0 0.12500172E+03</rscale>
<asrwt>0</asrwt>
<pdfrwt beam="2">  1        4 0.19722534E-01 0.12500172E+03</pdfrwt>
<pdfrwt beam="1">  1       -4 0.12379106E-01 0.12500172E+03</pdfrwt>
<totfact> 0.19649654E+03</totfact>
</mgrwt>
</event>
<event>
 5    1  0.1446384E-002  0.1249977E+03  0.7818608E-02  0.1235073E+00
         -4   -1    0    0    0  501 -0.00000000000E+00  0.00000000000E+00  0.29228028227E+03  0.29228304142E+03  0.12700000000E+01 0.  1.
          4   -1    0    0  501    0  0.00000000000E+00 -0.00000000000E+00 -0.13331253639E+02  0.13391610194E+02  0.12700000000E+01 0.  1.
         25    2    1    2    0    0  0.00000000000E+00  0.00000000000E+00  0.27894902863E+03  0.30567465162E+03  0.12499772825E+03 0.  0.
    9000005    1    3    3    0    0  0.21069464120E+02  0.49905852237E+02  0.63288444125E+02  0.83312325412E+02  0.10000000000E+01 0.  0.
    9000005    1    3    3    0    0 -0.21069464120E+02 -0.49905852237E+02  0.21566058451E+03  0.22236232621E+03  0.10000000000E+01 0.  0.
<mgrwt>
<rscale>  0 0.12499773E+03</rscale>
<asrwt>0</asrwt>
<pdfrwt beam="2">  1        4 0.33407028E-02 0.12499773E+03</pdfrwt>
<pdfrwt beam="1">  1       -4 0.73077961E-01 0.12499773E+03</pdfrwt>
<totfact> 0.12814157E+03</totfact>
</mgrwt>
</event>
<event>
 5    1  0.1446384E-002  0.1249975E+03  0.7818608E-02  0.1235073E+00
          4   -1    0    0  501    0  0.00000000000E+00  0.00000000000E+00  0.16848827823E+03  0.16849306454E+03  0.12700000000E+01 0. -1.
         -4   -1    0    0    0  501 -0.00000000000E+00 -0.00000000000E+00 -0.23160674703E+02  0.23195468365E+02  0.12700000000E+01 0. -1.
         25    2    1    2    0    0  0.00000000000E+00  0.00000000000E+00  0.14532760352E+03  0.19168853291E+03  0.12499752519E+03 0.  0.
    9000005    1    3    3    0    0 -0.45146075344E+02 -0.23744031464E+02  0.17304370550E+02  0.53873819145E+02  0.10000000000E+01 0.  0.
    9000005    1    3    3    0    0  0.45146075344E+02  0.23744031464E+02  0.12802323297E+03  0.13781471377E+03  0.10000000000E+01 0.  0.
<mgrwt>
<rscale>  0 0.12499753E+03</rscale>
<asrwt>0</asrwt>
<pdfrwt beam="1">  1        4 0.42127017E-01 0.12499753E+03</pdfrwt>
<pdfrwt beam="2">  1       -4 0.57951161E-02 0.12499753E+03</pdfrwt>
<totfact> 0.16661300E+03</totfact>
</mgrwt>
</event>
<event>
 5    1  0.1446384E-002  0.1249993E+03  0.7818608E-02  0.1235070E+00
          4   -1    0    0  501    0  0.00000000000E+00  0.00000000000E+00  0.96913731739E+02  0.96922052700E+02  0.12700000000E+01 0.  1.
         -4   -1    0    0    0  501 -0.00000000000E+00 -0.00000000000E+00 -0.40285925366E+02  0.40305938552E+02  0.12700000000E+01 0.  1.
         25    2    1    2    0    0  0.00000000000E+00  0.00000000000E+00  0.56627806373E+02  0.13722799125E+03  0.12499925251E+03 0.  0.
    9000005    1    3    3    0    0  0.24576263128E+02  0.28287436147E+02 -0.26588944832E+02  0.45958065021E+02  0.10000000000E+01 0.  0.
    9000005    1    3    3    0    0 -0.24576263128E+02 -0.28287436147E+02  0.83216751205E+02  0.91269926231E+02  0.10000000000E+01 0.  0.
<mgrwt>
<rscale>  0 0.12499925E+03</rscale>
<asrwt>0</asrwt>
<pdfrwt beam="1">  1        4 0.24231975E-01 0.12499925E+03</pdfrwt>
<pdfrwt beam="2">  1       -4 0.10075023E-01 0.12499925E+03</pdfrwt>
<totfact> 0.19183399E+03</totfact>
</mgrwt>
</event>
<event>
 5    1  0.1446384E-002  0.1250000E+03  0.7818608E-02  0.1235069E+00
          4   -1    0    0  501    0  0.00000000000E+00  0.00000000000E+00  0.18374135819E+02  0.18417974022E+02  0.12700000000E+01 0. -1.
         -4   -1    0    0    0  501 -0.00000000000E+00 -0.00000000000E+00 -0.21229589430E+03  0.21229969297E+03  0.12700000000E+01 0. -1.
         25    2    1    2    0    0  0.00000000000E+00  0.00000000000E+00 -0.19392175848E+03  0.23071766699E+03  0.12499997381E+03 0.  0.
    9000005    1    3    3    0    0  0.55132450857E+02  0.28227683981E+02 -0.11227709745E+03  0.12823235119E+03  0.10000000000E+01 0.  0.
    9000005    1    3    3    0    0 -0.55132450857E+02 -0.28227683981E+02 -0.81644661028E+02  0.10248531580E+03  0.10000000000E+01 0.  0.
<mgrwt>
<rscale>  0 0.12499997E+03</rscale>
<asrwt>0</asrwt>
<pdfrwt beam="1">  1        4 0.45994892E-02 0.12499997E+03</pdfrwt>
<pdfrwt beam="2">  1       -4 0.53079920E-01 0.12499997E+03</pdfrwt>
<totfact> 0.15161712E+03</totfact>
</mgrwt>
</event>
<event>
 5    1  0.1446384E-002  0.1250005E+03  0.7818608E-02  0.1235069E+00
         -4   -1    0    0    0  501 -0.00000000000E+00  0.00000000000E+00  0.21493072096E+02  0.21530560794E+02  0.12700000000E+01 0. -1.
          4   -1    0    0  501    0  0.00000000000E+00 -0.00000000000E+00 -0.18154784797E+03  0.18155228999E+03  0.12700000000E+01 0. -1.
         25    2    1    2    0    0  0.00000000000E+00  0.00000000000E+00 -0.16005477587E+03  0.20308285079E+03  0.12500045202E+03 0.  0.
    9000005    1    3    3    0    0  0.50935677768E+02 -0.34423695307E+02 -0.61801938778E+02  0.87177483934E+02  0.10000000000E+01 0.  0.
    9000005    1    3    3    0    0 -0.50935677768E+02  0.34423695307E+02 -0.98252837094E+02  0.11590536685E+03  0.10000000000E+01 0.  0.
<mgrwt>
<rscale>  0 0.12500045E+03</rscale>
<asrwt>0</asrwt>
<pdfrwt beam="2">  1        4 0.45392199E-01 0.12500045E+03</pdfrwt>
<pdfrwt beam="1">  1       -4 0.53785099E-02 0.12500045E+03</pdfrwt>
<totfact> 0.16199170E+03</totfact>
</mgrwt>
</event>
<event>
 5    1  0.1446384E-002  0.1250015E+03  0.7818608E-02  0.1235067E+00
          4   -1    0    0  501    0  0.00000000000E+00  0.00000000000E+00  0.23988794401E+03  0.23989130577E+03  0.12700000000E+01 0.  1.
         -4   -1    0    0    0  501 -0.00000000000E+00 -0.00000000000E+00 -0.16255781942E+02  0.16305316512E+02  0.12700000000E+01 0.  1.
         25    2    1    2    0    0  0.00000000000E+00  0.00000000000E+00  0.22363216207E+03  0.25619662228E+03  0.12500146141E+03 0.  0.
    9000005    1    3    3    0    0  0.28303255089E+02  0.18582802282E+02  0.41621352084E+01  0.34127967399E+02  0.10000000000E+01 0.  0.
    9000005    1    3    3    0    0 -0.28303255089E+02 -0.18582802282E+02  0.21947002686E+03  0.22206865488E+03  0.10000000000E+01 0.  0.
<mgrwt>
<rscale>  0 0.12500146E+03</rscale>
<asrwt>0</asrwt>
<pdfrwt beam="1">  1        4 0.59978598E-01 0.12500146E+03</pdfrwt>
<pdfrwt beam="2">  1       -4 0.40705576E-02 0.12500146E+03</pdfrwt>
<totfact> 0.14293621E+03</totfact>
</mgrwt>
</event>
<event>
 5    1  0.1446384E-002  0.1250024E+03  0.7818608E-02  0.1235066E+00
          4   -1    0    0  501    0  0.00000000000E+00  0.00000000000E+00  0.14673408683E+03  0.14673958272E+03  0.12700000000E+01 0. -1.
         -4   -1    0    0    0  501 -0.00000000000E+00 -0.00000000000E+00 -0.26601164225E+02  0.26631463312E+02  0.12700000000E+01 0. -1.
         25    2    1    2    0    0  0.00000000000E+00  0.00000000000E+00  0.12013292261E+03  0.17337104604E+03  0.12500240202E+03 0.  0.
    9000005    1    3    3    0    0  0.14230945803E+02 -0.40214385647E+02  0.12340709638E+03  0.13057575605E+03  0.10000000000E+01 0.  0.
    9000005    1    3    3    0    0 -0.14230945803E+02  0.40214385647E+02 -0.32741737700E+01  0.42795289989E+02  0.10000000000E+01 0.  0.
<mgrwt>
<rscale>  0 0.12500240E+03</rscale>
<asrwt>0</asrwt>
<pdfrwt beam="1">  1        4 0.36687995E-01 0.12500240E+03</pdfrwt>
<pdfrwt beam="2">  1       -4 0.66547656E-02 0.12500240E+03</pdfrwt>
<totfact> 0.17445090E+03</totfact>
</mgrwt>
</event>
<event>
 5    1  0.1446384E-002  0.1249989E+03  0.7818608E-02  0.1235071E+00
          4   -1    0    0  501    0  0.00000000000E+00  0.00000000000E+00  0.22973239637E+02  0.23008316744E+02  0.12700000000E+01 0. -1.
         -4   -1    0    0    0  501 -0.00000000000E+00 -0.00000000000E+00 -0.16986465679E+03  0.16986940432E+03  0.12700000000E+01 0. -1.
         25    2    1    2    0    0  0.00000000000E+00  0.00000000000E+00 -0.14689141715E+03  0.19287772107E+03  0.12499890740E+03 0.  0.
    9000005    1    3    3    0    0 -0.37348968929E+02 -0.49661180155E+02 -0.83681444143E+02  0.10423417092E+03  0.10000000000E+01 0.  0.
    9000005    1    3    3    0    0  0.37348968929E+02  0.49661180155E+02 -0.63209973006E+02  0.88643550143E+02  0.10000000000E+01 0.  0.
<mgrwt>
<rscale>  0 0.12499891E+03</rscale>
<asrwt>0</asrwt>
<pdfrwt beam="1">  1        4 0.57482885E-02 0.12499891E+03</pdfrwt>
<pdfrwt beam="2">  1       -4 0.42471139E-01 0.12499891E+03</pdfrwt>
<totfact> 0.16611678E+03</totfact>
</mgrwt>
</event>
<event>
 5    1  0.1446384E-002  0.1250060E+03  0.7818608E-02  0.1235060E+00
          4   -1    0    0  501    0  0.00000000000E+00  0.00000000000E+00  0.23380413401E+02  0.23414880542E+02  0.12700000000E+01 0.  1.
         -4   -1    0    0    0  501 -0.00000000000E+00 -0.00000000000E+00 -0.16692967315E+03  0.16693450415E+03  0.12700000000E+01 0.  1.
         25    2    1    2    0    0  0.00000000000E+00  0.00000000000E+00 -0.14354925975E+03  0.19034938470E+03  0.12500599298E+03 0.  0.
    9000005    1    3    3    0    0 -0.36177698544E+02  0.29377374705E+02 -0.83706960717E+01  0.47359524588E+02  0.10000000000E+01 0.  0.
    9000005    1    3    3    0    0  0.36177698544E+02 -0.29377374705E+02 -0.13517856368E+03  0.14298986011E+03  0.10000000000E+01 0.  0.
<mgrwt>
<rscale>  0 0.12500599E+03</rscale>
<asrwt>0</asrwt>
<pdfrwt beam="1">  1        4 0.58500161E-02 0.12500599E+03</pdfrwt>
<pdfrwt beam="2">  1       -4 0.41737327E-01 0.12500599E+03</pdfrwt>
<totfact> 0.16713584E+03</totfact>
</mgrwt>
</event>
<event>
 5    1  0.1446384E-002  0.1249996E+03  0.7818608E-02  0.1235070E+00
          4   -1    0    0  501    0  0.00000000000E+00  0.00000000000E+00  0.18093100704E+02  0.18137618176E+02  0.12700000000E+01 0. -1.
         -4   -1    0    0    0  501 -0.00000000000E+00 -0.00000000000E+00 -0.21558409358E+03  0.21558783431E+03  0.12700000000E+01 0. -1.
         25    2    1    2    0    0  0.00000000000E+00  0.00000000000E+00 -0.19749099287E+03  0.23372545249E+03  0.12499957950E+03 0.  0.
    9000005    1    3    3    0    0 -0.51443024263E+02  0.25674764272E+02 -0.14453276427E+03  0.15555159342E+03  0.10000000000E+01 0.  0.
    9000005    1    3    3    0    0  0.51443024263E+02 -0.25674764272E+02 -0.52958228599E+02  0.78173859071E+02  0.10000000000E+01 0.  0.
<mgrwt>
<rscale>  0 0.12499958E+03</rscale>
<asrwt>0</asrwt>
<pdfrwt beam="1">  1        4 0.45293081E-02 0.12499958E+03</pdfrwt>
<pdfrwt beam="2">  1       -4 0.53902048E-01 0.12499958E+03</pdfrwt>
<totfact> 0.15055247E+03</totfact>
</mgrwt>
</event>
<event>
 5    1  0.1446384E-002  0.1250050E+03  0.7818608E-02  0.1235061E+00
          4   -1    0    0  501    0  0.00000000000E+00  0.00000000000E+00  0.83722010873E+02  0.83731642792E+02  0.12700000000E+01 0. -1.
         -4   -1    0    0    0  501 -0.00000000000E+00 -0.00000000000E+00 -0.46640155428E+02  0.46657443118E+02  0.12700000000E+01 0. -1.
         25    2    1    2    0    0  0.00000000000E+00  0.00000000000E+00  0.37081855446E+02  0.13038908591E+03  0.12500499878E+03 0.  0.
    9000005    1    3    3    0    0  0.59625147764E+02 -0.56730993513E+01 -0.66129089163E-01  0.59902810245E+02  0.10000000000E+01 0.  0.
    9000005    1    3    3    0    0 -0.59625147764E+02  0.56730993513E+01  0.37147984535E+02  0.70486275665E+02  0.10000000000E+01 0.  0.
<mgrwt>
<rscale>  0 0.12500500E+03</rscale>
<asrwt>0</asrwt>
<pdfrwt beam="1">  1        4 0.20933867E-01 0.12500500E+03</pdfrwt>
<pdfrwt beam="2">  1       -4 0.11663404E-01 0.12500500E+03</pdfrwt>
<totfact> 0.19541209E+03</totfact>
</mgrwt>
</event>
<event>
 5    1  0.1446384E-002  0.1250022E+03  0.7818608E-02  0.1235066E+00
          4   -1    0    0  501    0  0.00000000000E+00  0.00000000000E+00  0.35456847661E+02  0.35479584919E+02  0.12700000000E+01 0. -1.
         -4   -1    0    0    0  501 -0.00000000000E+00 -0.00000000000E+00 -0.11011137280E+03  0.11011869651E+03  0.12700000000E+01 0. -1.
         25    2    1    2    0    0  0.00000000000E+00  0.00000000000E+00 -0.74654525144E+02  0.14559828143E+03  0.12500224570E+03 0.  0.
    9000005    1    3    3    0    0 -0.45764197203E+02 -0.87822709004E+00 -0.86884671409E+02  0.98209363883E+02  0.10000000000E+01 0.  0.
    9000005    1    3    3    0    0  0.45764197203E+02  0.87822709004E+00  0.12230146266E+02  0.47388917546E+02  0.10000000000E+01 0.  0.
<mgrwt>
<rscale>  0 0.12500225E+03</rscale>
<asrwt>0</asrwt>
<pdfrwt beam="1">  1        4 0.88679698E-02 0.12500225E+03</pdfrwt>
<pdfrwt beam="2">  1       -4 0.27531600E-01 0.12500225E+03</pdfrwt>
<totfact> 0.18756372E+03</totfact>
</mgrwt>
</event>
<event>
 5    1  0.1446384E-002  0.1250010E+03  0.7818608E-02  0.1235068E+00
          4   -1    0    0  501    0  0.00000000000E+00  0.00000000000E+00  0.13112694478E+02  0.13174052394E+02  0.12700000000E+01 0.  1.
         -4   -1    0    0    0  501 -0.00000000000E+00 -0.00000000000E+00 -0.29714487059E+03  0.29714758458E+03  0.12700000000E+01 0.  1.
         25    2    1    2    0    0  0.00000000000E+00  0.00000000000E+00 -0.28403217611E+03  0.31032163697E+03  0.12500096521E+03 0.  0.
    9000005    1    3    3    0    0 -0.16711441534E+02  0.57903828689E+02 -0.18304848187E+03  0.19271707856E+03  0.10000000000E+01 0.  0.
    9000005    1    3    3    0    0  0.16711441534E+02 -0.57903828689E+02 -0.10098369425E+03  0.11760455841E+03  0.10000000000E+01 0.  0.
<mgrwt>
<rscale>  0 0.12500097E+03</rscale>
<asrwt>0</asrwt>
<pdfrwt beam="1">  1        4 0.32861836E-02 0.12500097E+03</pdfrwt>
<pdfrwt beam="2">  1       -4 0.74294205E-01 0.12500097E+03</pdfrwt>
<totfact> 0.12686347E+03</totfact>
</mgrwt>
</event>
<event>
 5    1  0.1446384E-002  0.1249965E+03  0.7818608E-02  0.1235075E+00
          4   -1    0    0  501    0  0.00000000000E+00  0.00000000000E+00  0.38373353348E+02  0.38394363482E+02  0.12700000000E+01 0. -1.
         -4   -1    0    0    0  501 -0.00000000000E+00 -0.00000000000E+00 -0.10173737006E+03  0.10174529653E+03  0.12700000000E+01 0. -1.
         25    2    1    2    0    0  0.00000000000E+00  0.00000000000E+00 -0.63364016709E+02  0.14013966001E+03  0.12499650273E+03 0.  0.
    9000005    1    3    3    0    0 -0.50085694932E+02 -0.37312002472E+02 -0.33998492034E+02  0.71117225944E+02  0.10000000000E+01 0.  0.
    9000005    1    3    3    0    0  0.50085694932E+02  0.37312002472E+02 -0.29365524675E+02  0.69022434068E+02  0.10000000000E+01 0.  0.
<mgrwt>
<rscale>  0 0.12499650E+03</rscale>
<asrwt>0</asrwt>
<pdfrwt beam="1">  1        4 0.95969556E-02 0.12499650E+03</pdfrwt>
<pdfrwt beam="2">  1       -4 0.25437959E-01 0.12499650E+03</pdfrwt>
<totfact> 0.19034752E+03</totfact>
</mgrwt>
</event>
<event>
 5    1  0.1446384E-002  0.1250031E+03  0.7818608E-02  0.1235064E+00
         -4   -1    0    0    0  501 -0.00000000000E+00  0.00000000000E+00  0.15558723643E+02  0.15610470249E+02  0.12700000000E+01 0. -1.
          4   -1    0    0  501    0  0.00000000000E+00 -0.00000000000E+00 -0.25060717301E+03  0.25061039098E+03  0.12700000000E+01 0. -1.
         25    2    1    2    0    0  0.00000000000E+00  0.00000000000E+00 -0.23504844937E+03  0.26622086123E+03  0.12500309356E+03 0.  0.
    9000005    1    3    3    0    0  0.50934683190E+02 -0.28613288587E+02 -0.70266586098E+02  0.91386297426E+02  0.10000000000E+01 0.  0.
    9000005    1    3    3    0    0 -0.50934683190E+02  0.28613288587E+02 -0.16478186327E+03  0.17483456380E+03  0.10000000000E+01 0.  0.
<mgrwt>
<rscale>  0 0.12500309E+03</rscale>
<asrwt>0</asrwt>
<pdfrwt beam="2">  1        4 0.62658651E-01 0.12500309E+03</pdfrwt>
<pdfrwt beam="1">  1       -4 0.38965523E-02 0.12500309E+03</pdfrwt>
<totfact> 0.13972556E+03</totfact>
</mgrwt>
</event>
<event>
 5    1  0.1446384E-002  0.1249985E+03  0.7818608E-02  0.1235072E+00
         -4   -1    0    0    0  501 -0.00000000000E+00  0.00000000000E+00  0.75046401404E+02  0.75057146653E+02  0.12700000000E+01 0.  1.
          4   -1    0    0  501    0  0.00000000000E+00 -0.00000000000E+00 -0.52027621727E+02  0.52043119838E+02  0.12700000000E+01 0.  1.
         25    2    1    2    0    0  0.00000000000E+00  0.00000000000E+00  0.23018779677E+02  0.12710026649E+03  0.12499845409E+03 0.  0.
    9000005    1    3    3    0    0  0.23250826876E+02  0.64205041776E+01  0.70127056143E+02  0.74166217563E+02  0.10000000000E+01 0.  0.
    9000005    1    3    3    0    0 -0.23250826876E+02 -0.64205041776E+01 -0.47108276466E+02  0.52934048928E+02  0.10000000000E+01 0.  0.
<mgrwt>
<rscale>  0 0.12499845E+03</rscale>
<asrwt>0</asrwt>
<pdfrwt beam="2">  1        4 0.13010186E-01 0.12499845E+03</pdfrwt>
<pdfrwt beam="1">  1       -4 0.18764881E-01 0.12499845E+03</pdfrwt>
<totfact> 0.19722277E+03</totfact>
</mgrwt>
</event>
<event>
 5    1  0.1446384E-002  0.1249998E+03  0.7818608E-02  0.1235070E+00
          4   -1    0    0  501    0  0.00000000000E+00  0.00000000000E+00  0.60893058256E+03  0.60893190693E+03  0.12700000000E+01 0. -1.
         -4   -1    0    0    0  501 -0.00000000000E+00 -0.00000000000E+00 -0.63507100458E+01  0.64764510409E+01  0.12700000000E+01 0. -1.
         25    2    1    2    0    0  0.00000000000E+00  0.00000000000E+00  0.60257987252E+03  0.61540835797E+03  0.12499977720E+03 0.  0.
    9000005    1    3    3    0    0 -0.36864268028E+02  0.23879569169E+02  0.52014202591E+03  0.52199419077E+03  0.10000000000E+01 0.  0.
    9000005    1    3    3    0    0  0.36864268028E+02 -0.23879569169E+02  0.82437846611E+02  0.93414167206E+02  0.10000000000E+01 0.  0.
<mgrwt>
<rscale>  0 0.12499978E+03</rscale>
<asrwt>0</asrwt>
<pdfrwt beam="1">  1        4 0.15224852E+00 0.12499978E+03</pdfrwt>
<pdfrwt beam="2">  1       -4 0.16035608E-02 0.12499978E+03</pdfrwt>
<totfact> 0.71597840E+02</totfact>
</mgrwt>
</event>
<event>
 5    1  0.1446384E-002  0.1249996E+03  0.7818608E-02  0.1235070E+00
          4   -1    0    0  501    0  0.00000000000E+00  0.00000000000E+00  0.35167564617E+02  0.35190488787E+02  0.12700000000E+01 0. -1.
         -4   -1    0    0    0  501 -0.00000000000E+00 -0.00000000000E+00 -0.11101184380E+03  0.11101910810E+03  0.12700000000E+01 0. -1.
         25    2    1    2    0    0  0.00000000000E+00  0.00000000000E+00 -0.75844279181E+02  0.14620959689E+03  0.12499956615E+03 0.  0.
    9000005    1    3    3    0    0 -0.82406370587E+01  0.50869001627E+02  0.34266893708E+01  0.51655644665E+02  0.10000000000E+01 0.  0.
    9000005    1    3    3    0    0  0.82406370587E+01 -0.50869001627E+02 -0.79270968552E+02  0.94553952223E+02  0.10000000000E+01 0.  0.
<mgrwt>
<rscale>  0 0.12499957E+03</rscale>
<asrwt>0</asrwt>
<pdfrwt beam="1">  1        4 0.87956650E-02 0.12499957E+03</pdfrwt>
<pdfrwt beam="2">  1       -4 0.27756734E-01 0.12499957E+03</pdfrwt>
<totfact> 0.18726928E+03</totfact>
</mgrwt>
</event>
<event>
 5    1  0.1446384E-002  0.1250002E+03  0.7818608E-02  0.1235069E+00
          4   -1    0    0  501    0  0.00000000000E+00  0.00000000000E+00  0.51388445921E+01  0.52934510238E+01  0.12700000000E+01 0. -1.
         -4   -1    0    0    0  501 -0.00000000000E+00 -0.00000000000E+00 -0.74872369521E+03  0.74872477231E+03  0.12700000000E+01 0. -1.
         25    2    1    2    0    0  0.00000000000E+00  0.00000000000E+00 -0.74358485062E+03  0.75401822333E+03  0.12500020420E+03 0.  0.
    9000005    1    3    3    0    0  0.55302640276E+02 -0.22775590203E+02 -0.26252028176E+03  0.26924897004E+03  0.10000000000E+01 0.  0.
    9000005    1    3    3    0    0 -0.55302640276E+02  0.22775590203E+02 -0.48106456885E+03  0.48476925329E+03  0.10000000000E+01 0.  0.
<mgrwt>
<rscale>  0 0.12500020E+03</rscale>
<asrwt>0</asrwt>
<pdfrwt beam="1">  1        4 0.13041741E-02 0.12500020E+03</pdfrwt>
<pdfrwt beam="2">  1       -4 0.18720002E+00 0.12500020E+03</pdfrwt>
<totfact> 0.56687722E+02</totfact>
</mgrwt>
</event>
<event>
 4    1  0.1446384E-002  0.1248935E+03  0.7818608E-02  0.1235236E+00
         -4   -1    0    0    0  501 -0.00000000000E+00  0.00000000000E+00  0.19120423224E+02  0.19162554220E+02  0.12700000000E+01 0. -1.
          4   -1    0    0  501    0  0.00000000000E+00 -0.00000000000E+00 -0.20368068679E+03  0.20368464613E+03  0.12700000000E+01 0. -1.
    9000005    1    1    2    0    0 -0.43740785885E+02  0.40932502052E+02 -0.60870918147E+02  0.85410741421E+02  0.10000000000E+01 0.  0.
    9000005    1    1    2    0    0  0.43740785885E+02 -0.40932502052E+02 -0.12368934542E+03  0.13743645893E+03  0.10000000000E+01 0.  0.
<mgrwt>
<rscale>  0 0.12489349E+03</rscale>
<asrwt>0</asrwt>
<pdfrwt beam="2">  1        4 0.50925926E-01 0.12489349E+03</pdfrwt>
<pdfrwt beam="1">  1       -4 0.47858677E-02 0.12489349E+03</pdfrwt>
<totfact> 0.15484322E+03</totfact>
</mgrwt>
</event>
<event>
 5    1  0.1446384E-002  0.1250010E+03  0.7818608E-02  0.1235068E+00
          4   -1    0    0  501    0  0.00000000000E+00  0.00000000000E+00  0.14676994135E+03  0.14677543591E+03  0.12700000000E+01 0.  1.
         -4   -1    0    0    0  501 -0.00000000000E+00 -0.00000000000E+00 -0.26594056433E+02  0.26624363609E+02  0.12700000000E+01 0.  1.
         25    2    1    2    0    0  0.00000000000E+00  0.00000000000E+00  0.12017588492E+03  0.17339979951E+03  0.12500098862E+03 0.  0.
    9000005    1    3    3    0    0 -0.26900999341E+02  0.55283376769E+02  0.44554151263E+02  0.75934102400E+02  0.10000000000E+01 0.  0.
    9000005    1    3    3    0    0  0.26900999341E+02 -0.55283376769E+02  0.75621733658E+02  0.97465697114E+02  0.10000000000E+01 0.  0.
<mgrwt>
<rscale>  0 0.12500099E+03</rscale>
<asrwt>0</asrwt>
<pdfrwt beam="1">  1        4 0.36696960E-01 0.12500099E+03</pdfrwt>
<pdfrwt beam="2">  1       -4 0.66529894E-02 0.12500099E+03</pdfrwt>
<totfact> 0.17444383E+03</totfact>
</mgrwt>
</event>
<event>
 5    1  0.1446384E-002  0.1250313E+03  0.7818608E-02  0.1235020E+00
          4   -1    0    0  501    0  0.00000000000E+00  0.00000000000E+00  0.21921774829E+03  0.21922142702E+03  0.12700000000E+01 0.  1.
         -4   -1    0    0    0  501 -0.00000000000E+00 -0.00000000000E+00 -0.17801506000E+02  0.17846750849E+02  0.12700000000E+01 0.  1.
         25    2    1    2    0    0  0.00000000000E+00  0.00000000000E+00  0.20141624229E+03  0.23706817787E+03  0.12503126929E+03 0.  0.
    9000005    1    3    3    0    0  0.35504736120E+02  0.41462658814E+02  0.42964545886E+02  0.69474387842E+02  0.10000000000E+01 0.  0.
    9000005    1    3    3    0    0 -0.35504736120E+02 -0.41462658814E+02  0.15845169640E+03  0.16759379003E+03  0.10000000000E+01 0.  0.
<mgrwt>
<rscale>  0 0.12503127E+03</rscale>
<asrwt>0</asrwt>
<pdfrwt beam="1">  1        4 0.54810551E-01 0.12503127E+03</pdfrwt>
<pdfrwt beam="2">  1       -4 0.44564920E-02 0.12503127E+03</pdfrwt>
<totfact> 0.14927241E+03</totfact>
</mgrwt>
</event>
<event>
 5    1  0.1446384E-002  0.1250061E+03  0.7818608E-02  0.1235060E+00
          4   -1    0    0  501    0  0.00000000000E+00  0.00000000000E+00  0.83225416378E+01  0.84188834956E+01  0.12700000000E+01 0.  1.
         -4   -1    0    0    0  501 -0.00000000000E+00 -0.00000000000E+00 -0.46660495877E+03  0.46660668711E+03  0.12700000000E+01 0.  1.
         25    2    1    2    0    0  0.00000000000E+00  0.00000000000E+00 -0.45828241713E+03  0.47502557060E+03  0.12500607533E+03 0.  0.
    9000005    1    3    3    0    0 -0.34820737018E+02 -0.51451782709E+02 -0.25487496083E+03  0.26233950394E+03  0.10000000000E+01 0.  0.
    9000005    1    3    3    0    0  0.34820737018E+02  0.51451782709E+02 -0.20340745631E+03  0.21268606666E+03  0.10000000000E+01 0.  0.
<mgrwt>
<rscale>  0 0.12500608E+03</rscale>
<asrwt>0</asrwt>
<pdfrwt beam="1">  1        4 0.20928958E-02 0.12500608E+03</pdfrwt>
<pdfrwt beam="2">  1       -4 0.11666341E+00 0.12500608E+03</pdfrwt>
<totfact> 0.91678298E+02</totfact>
</mgrwt>
</event>
<event>
 5    1  0.1446384E-002  0.1250038E+03  0.7818608E-02  0.1235063E+00
          4   -1    0    0  501    0  0.00000000000E+00  0.00000000000E+00  0.14040717336E+02  0.14098036861E+02  0.12700000000E+01 0. -1.
         -4   -1    0    0    0  501 -0.00000000000E+00 -0.00000000000E+00 -0.27759997584E+03  0.27760288090E+03  0.12700000000E+01 0. -1.
         25    2    1    2    0    0  0.00000000000E+00  0.00000000000E+00 -0.26355925850E+03  0.29170091776E+03  0.12500377067E+03 0.  0.
    9000005    1    3    3    0    0  0.26086662138E+02  0.53571888188E+02 -0.87810905534E+02  0.10612358963E+03  0.10000000000E+01 0.  0.
    9000005    1    3    3    0    0 -0.26086662138E+02 -0.53571888188E+02 -0.17574835297E+03  0.18557732813E+03  0.10000000000E+01 0.  0.
<mgrwt>
<rscale>  0 0.12500377E+03</rscale>
<asrwt>0</asrwt>
<pdfrwt beam="1">  1        4 0.35177083E-02 0.12500377E+03</pdfrwt>
<pdfrwt beam="2">  1       -4 0.69407504E-01 0.12500377E+03</pdfrwt>
<totfact> 0.13205743E+03</totfact>
</mgrwt>
</event>
<event>
 5    1  0.1446384E-002  0.1250046E+03  0.7818608E-02  0.1235062E+00
         -4   -1    0    0    0  501 -0.00000000000E+00  0.00000000000E+00  0.33664956515E+01  0.35980818461E+01  0.12700000000E+01 0. -1.
          4   -1    0    0  501    0  0.00000000000E+00 -0.00000000000E+00 -0.11215991637E+04  0.11215998827E+04  0.12700000000E+01 0. -1.
         25    2    1    2    0    0  0.00000000000E+00  0.00000000000E+00 -0.11182326681E+04  0.11251979646E+04  0.12500463819E+03 0.  0.
    9000005    1    3    3    0    0 -0.61938691812E+02 -0.22706661817E+01 -0.48711622502E+03  0.49104457450E+03  0.10000000000E+01 0.  0.
    9000005    1    3    3    0    0  0.61938691812E+02  0.22706661817E+01 -0.63111644303E+03  0.63415339007E+03  0.10000000000E+01 0.  0.
<mgrwt>
<rscale>  0 0.12500464E+03</rscale>
<asrwt>0</asrwt>
<pdfrwt beam="2">  1        4 0.28042759E+00 0.12500464E+03</pdfrwt>
<pdfrwt beam="1">  1       -4 0.87066591E-03 0.12500464E+03</pdfrwt>
<totfact> 0.29306816E+02</totfact>
</mgrwt>
</event>
<event>
 5    1  0.1446384E-002  0.1249990E+03  0.7818608E-02  0.1235071E+00
         -4   -1    0    0    0  501 -0.00000000000E+00  0.00000000000E+00  0.11926261866E+04  0.11926268628E+04  0.12700000000E+01 0.  1.
          4   -1    0    0  501    0  0.00000000000E+00 -0.00000000000E+00 -0.31514705553E+01  0.33977443489E+01  0.12700000000E+01 0.  1.
         25    2    1    2    0    0  0.00000000000E+00  0.00000000000E+00  0.11894747161E+04  0.11960246072E+04  0.12499904315E+03 0.  0.
    9000005    1    3    3    0    0  0.13229460820E+02 -0.60564679904E+02  0.51934138612E+03  0.52302922903E+03  0.10000000000E+01 0.  0.
    9000005    1    3    3    0    0 -0.13229460820E+02  0.60564679904E+02  0.67013332995E+03  0.67299537813E+03  0.10000000000E+01 0.  0.
<mgrwt>
<rscale>  0 0.12499904E+03</rscale>
<asrwt>0</asrwt>
<pdfrwt beam="2">  1        4 0.81873735E-03 0.12499904E+03</pdfrwt>
<pdfrwt beam="1">  1       -4 0.29818706E+00 0.12499904E+03</pdfrwt>
<totfact> 0.25412103E+02</totfact>
</mgrwt>
</event>
<event>
 5    1  0.1446384E-002  0.1249929E+03  0.7818608E-02  0.1235080E+00
          4   -1    0    0  501    0  0.00000000000E+00  0.00000000000E+00  0.50189489551E+02  0.50205555085E+02  0.12700000000E+01 0. -1.
         -4   -1    0    0    0  501 -0.00000000000E+00 -0.00000000000E+00 -0.77787451536E+02  0.77797818198E+02  0.12700000000E+01 0. -1.
         25    2    1    2    0    0  0.00000000000E+00  0.00000000000E+00 -0.27597961984E+02  0.12800337328E+03  0.12499286406E+03 0.  0.
    9000005    1    3    3    0    0  0.32282633395E+01  0.56896929049E+02  0.12452821728E+02  0.58341708823E+02  0.10000000000E+01 0.  0.
    9000005    1    3    3    0    0 -0.32282633395E+01 -0.56896929049E+02 -0.40050783713E+02  0.69661664460E+02  0.10000000000E+01 0.  0.
<mgrwt>
<rscale>  0 0.12499286E+03</rscale>
<asrwt>0</asrwt>
<pdfrwt beam="1">  1        4 0.12550676E-01 0.12499286E+03</pdfrwt>
<pdfrwt beam="2">  1       -4 0.19450167E-01 0.12499286E+03</pdfrwt>
<totfact> 0.19675627E+03</totfact>
</mgrwt>
</event>
<event>
 5    1  0.1446384E-002  0.1249999E+03  0.7818608E-02  0.1235069E+00
          4   -1    0    0  501    0  0.00000000000E+00  0.00000000000E+00  0.18660723714E+02  0.18703890224E+02  0.12700000000E+01 0.  1.
         -4   -1    0    0    0  501 -0.00000000000E+00 -0.00000000000E+00 -0.20904266066E+03  0.20904651844E+03  0.12700000000E+01 0.  1.
         25    2    1    2    0    0  0.00000000000E+00  0.00000000000E+00 -0.19038193694E+03  0.22775040867E+03  0.12499986694E+03 0.  0.
    9000005    1    3    3    0    0  0.34684410736E+02  0.48622740531E+02 -0.61690716436E+02  0.85871553725E+02  0.10000000000E+01 0.  0.
    9000005    1    3    3    0    0 -0.34684410736E+02 -0.48622740531E+02 -0.12869122051E+03  0.14187885494E+03  0.10000000000E+01 0.  0.
<mgrwt>
<rscale>  0 0.12499987E+03</rscale>
<asrwt>0</asrwt>
<pdfrwt beam="1">  1        4 0.46710596E-02 0.12499987E+03</pdfrwt>
<pdfrwt beam="2">  1       -4 0.52266536E-01 0.12499987E+03</pdfrwt>
<totfact> 0.15268077E+03</totfact>
</mgrwt>
</event>
<event>
 5    1  0.1446384E-002  0.1249948E+03  0.7818608E-02  0.1235077E+00
         -4   -1    0    0    0  501 -0.00000000000E+00  0.00000000000E+00  0.83974858246E+03  0.83974954280E+03  0.12700000000E+01 0. -1.
          4   -1    0    0  501    0  0.00000000000E+00 -0.00000000000E+00 -0.45636289550E+01  0.47370464679E+01  0.12700000000E+01 0. -1.
         25    2    1    2    0    0  0.00000000000E+00  0.00000000000E+00  0.83518495350E+03  0.84448658927E+03  0.12499477150E+03 0.  0.
    9000005    1    3    3    0    0 -0.69910095158E+01 -0.10829652363E+02  0.44830094565E+01  0.13684040271E+02  0.10000000000E+01 0.  0.
    9000005    1    3    3    0    0  0.69910095158E+01  0.10829652363E+02  0.83070194405E+03  0.83080254900E+03  0.10000000000E+01 0.  0.
<mgrwt>
<rscale>  0 0.12499477E+03</rscale>
<asrwt>0</asrwt>
<pdfrwt beam="2">  1        4 0.11627043E-02 0.12499477E+03</pdfrwt>
<pdfrwt beam="1">  1       -4 0.20995898E+00 0.12499477E+03</pdfrwt>
<totfact> 0.48690390E+02</totfact>
</mgrwt>
</event>
<event>
 5    1  0.1446384E-002  0.1249997E+03  0.7818608E-02  0.1235070E+00
          4   -1    0    0  501    0  0.00000000000E+00  0.00000000000E+00  0.35338449922E+02  0.35361263310E+02  0.12700000000E+01 0.  1.
         -4   -1    0    0    0  501 -0.00000000000E+00 -0.00000000000E+00 -0.11047552833E+03  0.11048282789E+03  0.12700000000E+01 0.  1.
         25    2    1    2    0    0  0.00000000000E+00  0.00000000000E+00 -0.75137078405E+02  0.14584409120E+03  0.12499967355E+03 0.  0.
    9000005    1    3    3    0    0 -0.19189559805E+02 -0.15941881693E+02  0.29282054376E+02  0.38481443657E+02  0.10000000000E+01 0.  0.
    9000005    1    3    3    0    0  0.19189559805E+02  0.15941881693E+02 -0.10441913278E+03  0.10736264755E+03  0.10000000000E+01 0.  0.
<mgrwt>
<rscale>  0 0.12499967E+03</rscale>
<asrwt>0</asrwt>
<pdfrwt beam="1">  1        4 0.88383768E-02 0.12499967E+03</pdfrwt>
<pdfrwt beam="2">  1       -4 0.27622645E-01 0.12499967E+03</pdfrwt>
<totfact> 0.18745175E+03</totfact>
</mgrwt>
</event>
<event>
 5    1  0.1446384E-002  0.1250060E+03  0.7818608E-02  0.1235060E+00
          4   -1    0    0  501    0  0.00000000000E+00  0.00000000000E+00  0.10984386224E+03  0.10985120378E+03  0.12700000000E+01 0. -1.
         -4   -1    0    0    0  501 -0.00000000000E+00 -0.00000000000E+00 -0.35545376599E+02  0.35568057264E+02  0.12700000000E+01 0. -1.
         25    2    1    2    0    0  0.00000000000E+00  0.00000000000E+00  0.74298485637E+02  0.14541926104E+03  0.12500598591E+03 0.  0.
    9000005    1    3    3    0    0  0.51606413735E+02  0.24805726854E+02  0.66280011347E+02  0.87593298417E+02  0.10000000000E+01 0.  0.
    9000005    1    3    3    0    0 -0.51606413735E+02 -0.24805726854E+02  0.80184742900E+01  0.57825962623E+02  0.10000000000E+01 0.  0.
<mgrwt>
<rscale>  0 0.12500599E+03</rscale>
<asrwt>0</asrwt>
<pdfrwt beam="1">  1        4 0.27464718E-01 0.12500599E+03</pdfrwt>
<pdfrwt beam="2">  1       -4 0.88900970E-02 0.12500599E+03</pdfrwt>
<totfact> 0.18763718E+03</totfact>
</mgrwt>
</event>
<event>
 5    1  0.1446384E-002  0.1249993E+03  0.7818608E-02  0.1235070E+00
         -4   -1    0    0    0  501 -0.00000000000E+00  0.00000000000E+00  0.70967200905E+01  0.72094615640E+01  0.12700000000E+01 0. -1.
          4   -1    0    0  501    0  0.00000000000E+00 -0.00000000000E+00 -0.54597258661E+03  0.54597406370E+03  0.12700000000E+01 0. -1.
         25    2    1    2    0    0  0.00000000000E+00  0.00000000000E+00 -0.53887586652E+03  0.55318352526E+03  0.12499925241E+03 0.  0.
    9000005    1    3    3    0    0 -0.54788098332E+02 -0.79401069392E+01 -0.14114267801E+03  0.15161476371E+03  0.10000000000E+01 0.  0.
    9000005    1    3    3    0    0  0.54788098332E+02  0.79401069392E+01 -0.39773318850E+03  0.40156876155E+03  0.10000000000E+01 0.  0.
<mgrwt>
<rscale>  0 0.12499925E+03</rscale>
<asrwt>0</asrwt>
<pdfrwt beam="2">  1        4 0.13650728E+00 0.12499925E+03</pdfrwt>
<pdfrwt beam="1">  1       -4 0.17884592E-02 0.12499925E+03</pdfrwt>
<totfact> 0.79726351E+02</totfact>
</mgrwt>
</event>
<event>
 5    1  0.1446384E-002  0.1250025E+03  0.7818608E-02  0.1235065E+00
         -4   -1    0    0    0  501 -0.00000000000E+00  0.00000000000E+00  0.71756050418E+02  0.71767288311E+02  0.12700000000E+01 0. -1.
          4   -1    0    0  501    0  0.00000000000E+00 -0.00000000000E+00 -0.54417206342E+02  0.54432024085E+02  0.12700000000E+01 0. -1.
         25    2    1    2    0    0  0.00000000000E+00  0.00000000000E+00  0.17338844076E+02  0.12619931240E+03  0.12500252372E+03 0.  0.
    9000005    1    3    3    0    0 -0.32752430772E+02 -0.37031256713E+02 -0.29924472358E+02  0.57797143019E+02  0.10000000000E+01 0.  0.
    9000005    1    3    3    0    0  0.32752430772E+02  0.37031256713E+02  0.47263316434E+02  0.68402169378E+02  0.10000000000E+01 0.  0.
<mgrwt>
<rscale>  0 0.12500252E+03</rscale>
<asrwt>0</asrwt>
<pdfrwt beam="2">  1        4 0.13607559E-01 0.12500252E+03</pdfrwt>
<pdfrwt beam="1">  1       -4 0.17942269E-01 0.12500252E+03</pdfrwt>
<totfact> 0.19768986E+03</totfact>
</mgrwt>
</event>
<event>
 5    1  0.1446384E-002  0.1250016E+03  0.7818608E-02  0.1235067E+00
         -4   -1    0    0    0  501 -0.00000000000E+00  0.00000000000E+00  0.83004847419E+01  0.83970796680E+01  0.12700000000E+01 0. -1.
          4   -1    0    0  501    0  0.00000000000E+00 -0.00000000000E+00 -0.46779735972E+03  0.46779908364E+03  0.12700000000E+01 0. -1.
         25    2    1    2    0    0  0.00000000000E+00  0.00000000000E+00 -0.45949687498E+03  0.47619616331E+03  0.12500163135E+03 0.  0.
    9000005    1    3    3    0    0  0.21808184637E+02 -0.18797565803E+02 -0.44104482677E+03  0.44198471084E+03  0.10000000000E+01 0.  0.
    9000005    1    3    3    0    0 -0.21808184637E+02  0.18797565803E+02 -0.18452048208E+02  0.34211452473E+02  0.10000000000E+01 0.  0.
<mgrwt>
<rscale>  0 0.12500163E+03</rscale>
<asrwt>0</asrwt>
<pdfrwt beam="2">  1        4 0.11696154E+00 0.12500163E+03</pdfrwt>
<pdfrwt beam="1">  1       -4 0.20874126E-02 0.12500163E+03</pdfrwt>
<totfact> 0.91492956E+02</totfact>
</mgrwt>
</event>
<event>
 5    1  0.1446384E-002  0.1249973E+03  0.7818608E-02  0.1235074E+00
          4   -1    0    0  501    0  0.00000000000E+00  0.00000000000E+00  0.15662690699E+02  0.15714094944E+02  0.12700000000E+01 0.  1.
         -4   -1    0    0    0  501 -0.00000000000E+00 -0.00000000000E+00 -0.24892592589E+03  0.24892916559E+03  0.12700000000E+01 0.  1.
         25    2    1    2    0    0  0.00000000000E+00  0.00000000000E+00 -0.23326323519E+03  0.26464326053E+03  0.12499727378E+03 0.  0.
    9000005    1    3    3    0    0 -0.23314603895E+01  0.38495035239E+02 -0.22073583980E+03  0.22408171371E+03  0.10000000000E+01 0.  0.
    9000005    1    3    3    0    0  0.23314603895E+01 -0.38495035239E+02 -0.12527395392E+02  0.40561546826E+02  0.10000000000E+01 0.  0.
<mgrwt>
<rscale>  0 0.12499727E+03</rscale>
<asrwt>0</asrwt>
<pdfrwt beam="1">  1        4 0.39225040E-02 0.12499727E+03</pdfrwt>
<pdfrwt beam="2">  1       -4 0.62238299E-01 0.12499727E+03</pdfrwt>
<totfact> 0.14024135E+03</totfact>
</mgrwt>
</event>
<event>
 5    1  0.1446384E-002  0.1249623E+03  0.7818608E-02  0.1235128E+00
          4   -1    0    0  501    0  0.00000000000E+00  0.00000000000E+00  0.10998503469E+02  0.11071584284E+02  0.12700000000E+01 0.  1.
         -4   -1    0    0    0  501 -0.00000000000E+00 -0.00000000000E+00 -0.35369829709E+03  0.35370057713E+03  0.12700000000E+01 0.  1.
         25    2    1    2    0    0  0.00000000000E+00  0.00000000000E+00 -0.34269979362E+03  0.36477216142E+03  0.12496231911E+03 0.  0.
    9000005    1    3    3    0    0 -0.25315975393E+02  0.38511160802E+02 -0.29446655340E+03  0.29805294695E+03  0.10000000000E+01 0.  0.
    9000005    1    3    3    0    0  0.25315975393E+02 -0.38511160802E+02 -0.48233240221E+02  0.66719214463E+02  0.10000000000E+01 0.  0.
<mgrwt>
<rscale>  0 0.12496232E+03</rscale>
<asrwt>0</asrwt>
<pdfrwt beam="1">  1        4 0.27590471E-02 0.12496232E+03</pdfrwt>
<pdfrwt beam="2">  1       -4 0.88433957E-01 0.12496232E+03</pdfrwt>
<totfact> 0.11342510E+03</totfact>
</mgrwt>
</event>
<event>
 5    1  0.1446384E-002  0.1249904E+03  0.7818608E-02  0.1235084E+00
          4   -1    0    0  501    0  0.00000000000E+00  0.00000000000E+00  0.13160176223E+03  0.13160789005E+03  0.12700000000E+01 0.  1.
         -4   -1    0    0    0  501 -0.00000000000E+00 -0.00000000000E+00 -0.29657361891E+02  0.29684541673E+02  0.12700000000E+01 0.  1.
         25    2    1    2    0    0  0.00000000000E+00  0.00000000000E+00  0.10194440034E+03  0.16129243172E+03  0.12499035071E+03 0.  0.
    9000005    1    3    3    0    0 -0.61511511377E+02 -0.10767525218E+02  0.53869605520E+02  0.82477512269E+02  0.10000000000E+01 0.  0.
    9000005    1    3    3    0    0  0.61511511377E+02  0.10767525218E+02  0.48074794822E+02  0.78814919453E+02  0.10000000000E+01 0.  0.
<mgrwt>
<rscale>  0 0.12499035E+03</rscale>
<asrwt>0</asrwt>
<pdfrwt beam="1">  1        4 0.32904604E-01 0.12499035E+03</pdfrwt>
<pdfrwt beam="2">  1       -4 0.74185040E-02 0.12499035E+03</pdfrwt>
<totfact> 0.18001136E+03</totfact>
</mgrwt>
</event>
<event>
 5    1  0.1446384E-002  0.1249959E+03  0.7818608E-02  0.1235076E+00
          4   -1    0    0  501    0  0.00000000000E+00  0.00000000000E+00  0.29026469605E+02  0.29054239583E+02  0.12700000000E+01 0. -1.
         -4   -1    0    0    0  501 -0.00000000000E+00 -0.00000000000E+00 -0.13447158563E+03  0.13447758268E+03  0.12700000000E+01 0. -1.
         25    2    1    2    0    0  0.00000000000E+00  0.00000000000E+00 -0.10544511603E+03  0.16353182226E+03  0.12499593752E+03 0.  0.
    9000005    1    3    3    0    0  0.55010589352E+00  0.52298545044E+02 -0.79804103181E+01  0.52916229827E+02  0.10000000000E+01 0.  0.
    9000005    1    3    3    0    0 -0.55010589352E+00 -0.52298545044E+02 -0.97464705710E+02  0.11061559243E+03  0.10000000000E+01 0.  0.
<mgrwt>
<rscale>  0 0.12499594E+03</rscale>
<asrwt>0</asrwt>
<pdfrwt beam="1">  1        4 0.72608386E-02 0.12499594E+03</pdfrwt>
<pdfrwt beam="2">  1       -4 0.33622116E-01 0.12499594E+03</pdfrwt>
<totfact> 0.17894486E+03</totfact>
</mgrwt>
</event>
<event>
 5    1  0.1446384E-002  0.1249982E+03  0.7818608E-02  0.1235072E+00
          4   -1    0    0  501    0  0.00000000000E+00  0.00000000000E+00  0.12841044612E+03  0.12841672622E+03  0.12700000000E+01 0. -1.
         -4   -1    0    0    0  501 -0.00000000000E+00 -0.00000000000E+00 -0.30398885000E+02  0.30425402368E+02  0.12700000000E+01 0. -1.
         25    2    1    2    0    0  0.00000000000E+00  0.00000000000E+00  0.98011561124E+02  0.15884212859E+03  0.12499822279E+03 0.  0.
    9000005    1    3    3    0    0  0.58901736143E+02  0.12391957521E+02  0.27659977281E+02  0.66249901698E+02  0.10000000000E+01 0.  0.
    9000005    1    3    3    0    0 -0.58901736143E+02 -0.12391957521E+02  0.70351583844E+02  0.92592226894E+02  0.10000000000E+01 0.  0.
<mgrwt>
<rscale>  0 0.12499822E+03</rscale>
<asrwt>0</asrwt>
<pdfrwt beam="1">  1        4 0.32106711E-01 0.12499822E+03</pdfrwt>
<pdfrwt beam="2">  1       -4 0.76038210E-02 0.12499822E+03</pdfrwt>
<totfact> 0.18113130E+03</totfact>
</mgrwt>
</event>
<event>
 5    1  0.1446384E-002  0.1249980E+03  0.7818608E-02  0.1235072E+00
          4   -1    0    0  501    0  0.00000000000E+00  0.00000000000E+00  0.34251171355E+03  0.34251406806E+03  0.12700000000E+01 0. -1.
         -4   -1    0    0    0  501 -0.00000000000E+00 -0.00000000000E+00 -0.11366600851E+02  0.11437329885E+02  0.12700000000E+01 0. -1.
         25    2    1    2    0    0  0.00000000000E+00  0.00000000000E+00  0.33114511270E+03  0.35395139794E+03  0.12499802576E+03 0.  0.
    9000005    1    3    3    0    0 -0.16979794818E+02  0.26564296786E+02  0.31835479456E+03  0.31991366103E+03  0.10000000000E+01 0.  0.
    9000005    1    3    3    0    0  0.16979794818E+02 -0.26564296786E+02  0.12790318134E+02  0.34037736907E+02  0.10000000000E+01 0.  0.
<mgrwt>
<rscale>  0 0.12499803E+03</rscale>
<asrwt>0</asrwt>
<pdfrwt beam="1">  1        4 0.85637067E-01 0.12499803E+03</pdfrwt>
<pdfrwt beam="2">  1       -4 0.28507856E-02 0.12499803E+03</pdfrwt>
<totfact> 0.11584161E+03</totfact>
</mgrwt>
</event>
<event>
 5    1  0.1446384E-002  0.1250007E+03  0.7818608E-02  0.1235068E+00
         -4   -1    0    0    0  501 -0.00000000000E+00  0.00000000000E+00  0.45514619416E+03  0.45514796600E+03  0.12700000000E+01 0.  1.
          4   -1    0    0  501    0  0.00000000000E+00 -0.00000000000E+00 -0.85337274217E+01  0.86277113829E+01  0.12700000000E+01 0.  1.
         25    2    1    2    0    0  0.00000000000E+00  0.00000000000E+00  0.44661246674E+03  0.46377567739E+03  0.12500073396E+03 0.  0.
    9000005    1    3    3    0    0  0.39176229710E+02 -0.10139741876E+02  0.39998674144E+03  0.40202983057E+03  0.10000000000E+01 0.  0.
    9000005    1    3    3    0    0 -0.39176229710E+02  0.10139741876E+02  0.46625725293E+02  0.61745846814E+02  0.10000000000E+01 0.  0.
<mgrwt>
<rscale>  0 0.12500073E+03</rscale>
<asrwt>0</asrwt>
<pdfrwt beam="2">  1        4 0.21454014E-02 0.12500073E+03</pdfrwt>
<pdfrwt beam="1">  1       -4 0.11379852E+00 0.12500073E+03</pdfrwt>
<totfact> 0.93593775E+02</totfact>
</mgrwt>
</event>
<event>
 5    1  0.1446384E-002  0.1249980E+03  0.7818608E-02  0.1235072E+00
          4   -1    0    0  501    0  0.00000000000E+00  0.00000000000E+00  0.70593369476E+02  0.70604792429E+02  0.12700000000E+01 0.  1.
         -4   -1    0    0    0  501 -0.00000000000E+00 -0.00000000000E+00 -0.55309548013E+02  0.55324126757E+02  0.12700000000E+01 0.  1.
         25    2    1    2    0    0  0.00000000000E+00  0.00000000000E+00  0.15283821463E+02  0.12592891919E+03  0.12499798994E+03 0.  0.
    9000005    1    3    3    0    0 -0.36955939937E+02 -0.20663876654E+02 -0.38661096466E+02  0.57344726653E+02  0.10000000000E+01 0.  0.
    9000005    1    3    3    0    0  0.36955939937E+02  0.20663876654E+02  0.53944917929E+02  0.68584192532E+02  0.10000000000E+01 0.  0.
<mgrwt>
<rscale>  0 0.12499799E+03</rscale>
<asrwt>0</asrwt>
<pdfrwt beam="1">  1        4 0.17651592E-01 0.12499799E+03</pdfrwt>
<pdfrwt beam="2">  1       -4 0.13830637E-01 0.12499799E+03</pdfrwt>
<totfact> 0.19785692E+03</totfact>
</mgrwt>
</event>
<event>
 5    1  0.1446384E-002  0.1249985E+03  0.7818608E-02  0.1235072E+00
          4   -1    0    0  501    0  0.00000000000E+00  0.00000000000E+00  0.54284728671E+02  0.54299582566E+02  0.12700000000E+01 0.  1.
         -4   -1    0    0    0  501 -0.00000000000E+00 -0.00000000000E+00 -0.71926542849E+02  0.71937754109E+02  0.12700000000E+01 0.  1.
         25    2    1    2    0    0  0.00000000000E+00  0.00000000000E+00 -0.17641814178E+02  0.12623733668E+03  0.12499852624E+03 0.  0.
    9000005    1    3    3    0    0 -0.20601174862E+02 -0.38084299146E+02  0.36684903016E+02  0.56759178610E+02  0.10000000000E+01 0.  0.
    9000005    1    3    3    0    0  0.20601174862E+02  0.38084299146E+02 -0.54326717193E+02  0.69478158066E+02  0.10000000000E+01 0.  0.
<mgrwt>
<rscale>  0 0.12499853E+03</rscale>
<asrwt>0</asrwt>
<pdfrwt beam="1">  1        4 0.13574440E-01 0.12499853E+03</pdfrwt>
<pdfrwt beam="2">  1       -4 0.17984894E-01 0.12499853E+03</pdfrwt>
<totfact> 0.19768782E+03</totfact>
</mgrwt>
</event>
<event>
 5    1  0.1446384E-002  0.1250028E+03  0.7818608E-02  0.1235065E+00
          4   -1    0    0  501    0  0.00000000000E+00  0.00000000000E+00  0.41550464548E+02  0.41569868946E+02  0.12700000000E+01 0. -1.
         -4   -1    0    0    0  501 -0.00000000000E+00 -0.00000000000E+00 -0.93970794446E+02  0.93979375976E+02  0.12700000000E+01 0. -1.
         25    2    1    2    0    0  0.00000000000E+00  0.00000000000E+00 -0.52420329897E+02  0.13554924492E+03  0.12500282722E+03 0.  0.
    9000005    1    3    3    0    0  0.42037381406E+02  0.25984349379E+02 -0.67687811095E+02  0.83815079902E+02  0.10000000000E+01 0.  0.
    9000005    1    3    3    0    0 -0.42037381406E+02 -0.25984349379E+02  0.15267481198E+02  0.51734165020E+02  0.10000000000E+01 0.  0.
<mgrwt>
<rscale>  0 0.12500283E+03</rscale>
<asrwt>0</asrwt>
<pdfrwt beam="1">  1        4 0.10391115E-01 0.12500283E+03</pdfrwt>
<pdfrwt beam="2">  1       -4 0.23496197E-01 0.12500283E+03</pdfrwt>
<totfact> 0.19269136E+03</totfact>
</mgrwt>
</event>
<event>
 5    1  0.1446384E-002  0.1250037E+03  0.7818608E-02  0.1235064E+00
          4   -1    0    0  501    0  0.00000000000E+00  0.00000000000E+00  0.24209110625E+03  0.24209443741E+03  0.12700000000E+01 0. -1.
         -4   -1    0    0    0  501 -0.00000000000E+00 -0.00000000000E+00 -0.16107973147E+02  0.16157960852E+02  0.12700000000E+01 0. -1.
         25    2    1    2    0    0  0.00000000000E+00  0.00000000000E+00  0.22598313310E+03  0.25825239826E+03  0.12500369899E+03 0.  0.
    9000005    1    3    3    0    0 -0.18663537152E+01  0.61964817549E+02  0.96677128624E+02  0.11485028989E+03  0.10000000000E+01 0.  0.
    9000005    1    3    3    0    0  0.18663537152E+01 -0.61964817549E+02  0.12930600447E+03  0.14340210836E+03  0.10000000000E+01 0.  0.
<mgrwt>
<rscale>  0 0.12500370E+03</rscale>
<asrwt>0</asrwt>
<pdfrwt beam="1">  1        4 0.60529442E-01 0.12500370E+03</pdfrwt>
<pdfrwt beam="2">  1       -4 0.40336581E-02 0.12500370E+03</pdfrwt>
<totfact> 0.14226231E+03</totfact>
</mgrwt>
</event>
<event>
 5    1  0.1446384E-002  0.1249924E+03  0.7818608E-02  0.1235081E+00
          4   -1    0    0  501    0  0.00000000000E+00  0.00000000000E+00  0.48936610014E+02  0.48953086723E+02  0.12700000000E+01 0.  1.
         -4   -1    0    0    0  501 -0.00000000000E+00 -0.00000000000E+00 -0.79778008776E+02  0.79788116811E+02  0.12700000000E+01 0.  1.
         25    2    1    2    0    0  0.00000000000E+00  0.00000000000E+00 -0.30841398761E+02  0.12874120353E+03  0.12499242221E+03 0.  0.
    9000005    1    3    3    0    0 -0.37500215843E+02 -0.44052534258E+02 -0.39748676838E+02  0.70198641534E+02  0.10000000000E+01 0.  0.
    9000005    1    3    3    0    0  0.37500215843E+02  0.44052534258E+02  0.89072780768E+01  0.58542562000E+02  0.10000000000E+01 0.  0.
<mgrwt>
<rscale>  0 0.12499242E+03</rscale>
<asrwt>0</asrwt>
<pdfrwt beam="1">  1        4 0.12237476E-01 0.12499242E+03</pdfrwt>
<pdfrwt beam="2">  1       -4 0.19947825E-01 0.12499242E+03</pdfrwt>
<totfact> 0.19635773E+03</totfact>
</mgrwt>
</event>
<event>
 5    1  0.1446384E-002  0.1250021E+03  0.7818608E-02  0.1235066E+00
          4   -1    0    0  501    0  0.00000000000E+00  0.00000000000E+00  0.18256673431E+03  0.18257115154E+03  0.12700000000E+01 0.  1.
         -4   -1    0    0    0  501 -0.00000000000E+00 -0.00000000000E+00 -0.21373491073E+02  0.21411189146E+02  0.12700000000E+01 0.  1.
         25    2    1    2    0    0  0.00000000000E+00  0.00000000000E+00  0.16119324323E+03  0.20398234069E+03  0.12500213457E+03 0.  0.
    9000005    1    3    3    0    0 -0.59981576016E+02 -0.12936796485E+02  0.99920782176E+02  0.11726172809E+03  0.10000000000E+01 0.  0.
    9000005    1    3    3    0    0  0.59981576016E+02  0.12936796485E+02  0.61272461056E+02  0.86720612593E+02  0.10000000000E+01 0.  0.
<mgrwt>
<rscale>  0 0.12500213E+03</rscale>
<asrwt>0</asrwt>
<pdfrwt beam="1">  1        4 0.45646948E-01 0.12500213E+03</pdfrwt>
<pdfrwt beam="2">  1       -4 0.53486372E-02 0.12500213E+03</pdfrwt>
<totfact> 0.16163017E+03</totfact>
</mgrwt>
</event>
<event>
 5    1  0.1446384E-002  0.1250361E+03  0.7818608E-02  0.1235013E+00
         -4   -1    0    0    0  501 -0.00000000000E+00  0.00000000000E+00  0.12208511097E+04  0.12208517703E+04  0.12700000000E+01 0. -1.
          4   -1    0    0  501    0  0.00000000000E+00 -0.00000000000E+00 -0.30748210023E+01  0.33267738421E+01  0.12700000000E+01 0. -1.
         25    2    1    2    0    0  0.00000000000E+00  0.00000000000E+00  0.12177762887E+04  0.12241785441E+04  0.12503606894E+03 0.  0.
    9000005    1    3    3    0    0 -0.57773710061E+02  0.23397538174E+02  0.56269738261E+03  0.56614008051E+03  0.10000000000E+01 0.  0.
    9000005    1    3    3    0    0  0.57773710061E+02 -0.23397538174E+02  0.65507890612E+03  0.65803846363E+03  0.10000000000E+01 0.  0.
<mgrwt>
<rscale>  0 0.12503607E+03</rscale>
<asrwt>0</asrwt>
<pdfrwt beam="2">  1        4 0.80028246E-03 0.12503607E+03</pdfrwt>
<pdfrwt beam="1">  1       -4 0.30524415E+00 0.12503607E+03</pdfrwt>
<totfact> 0.23939940E+02</totfact>
</mgrwt>
</event>
<event>
 5    1  0.1446384E-002  0.1249967E+03  0.7818608E-02  0.1235074E+00
         -4   -1    0    0    0  501 -0.00000000000E+00  0.00000000000E+00  0.31860524035E+02  0.31885825876E+02  0.12700000000E+01 0. -1.
          4   -1    0    0  501    0  0.00000000000E+00 -0.00000000000E+00 -0.12252101273E+03  0.12252759469E+03  0.12700000000E+01 0. -1.
         25    2    1    2    0    0  0.00000000000E+00  0.00000000000E+00 -0.90660488694E+02  0.15441342057E+03  0.12499672092E+03 0.  0.
    9000005    1    3    3    0    0  0.87719155106E+01 -0.61722355705E+02 -0.50636365114E+02  0.80322083933E+02  0.10000000000E+01 0.  0.
    9000005    1    3    3    0    0 -0.87719155106E+01  0.61722355705E+02 -0.40024123580E+02  0.74091336632E+02  0.10000000000E+01 0.  0.
<mgrwt>
<rscale>  0 0.12499672E+03</rscale>
<asrwt>0</asrwt>
<pdfrwt beam="2">  1        4 0.30634237E-01 0.12499672E+03</pdfrwt>
<pdfrwt beam="1">  1       -4 0.79691168E-02 0.12499672E+03</pdfrwt>
<totfact> 0.18325278E+03</totfact>
</mgrwt>
</event>
<event>
 5    1  0.1446384E-002  0.1249925E+03  0.7818608E-02  0.1235081E+00
         -4   -1    0    0    0  501 -0.00000000000E+00  0.00000000000E+00  0.42715229971E+02  0.42734105483E+02  0.12700000000E+01 0. -1.
          4   -1    0    0  501    0  0.00000000000E+00 -0.00000000000E+00 -0.91394176263E+02  0.91402999704E+02  0.12700000000E+01 0. -1.
         25    2    1    2    0    0  0.00000000000E+00  0.00000000000E+00 -0.48678946293E+02  0.13413710519E+03  0.12499249248E+03 0.  0.
    9000005    1    3    3    0    0  0.89837824444E+01  0.60336056396E+02 -0.38882006379E+02  0.72346101958E+02  0.10000000000E+01 0.  0.
    9000005    1    3    3    0    0 -0.89837824444E+01 -0.60336056396E+02 -0.97969399135E+01  0.61791003229E+02  0.10000000000E+01 0.  0.
<mgrwt>
<rscale>  0 0.12499249E+03</rscale>
<asrwt>0</asrwt>
<pdfrwt beam="2">  1        4 0.22852006E-01 0.12499249E+03</pdfrwt>
<pdfrwt beam="1">  1       -4 0.10682270E-01 0.12499249E+03</pdfrwt>
<totfact> 0.19347819E+03</totfact>
</mgrwt>
</event>
<event>
 5    1  0.1446384E-002  0.1249974E+03  0.7818608E-02  0.1235073E+00
          4   -1    0    0  501    0  0.00000000000E+00  0.00000000000E+00  0.24385215726E+02  0.24418264598E+02  0.12700000000E+01 0.  1.
         -4   -1    0    0    0  501 -0.00000000000E+00 -0.00000000000E+00 -0.16003856645E+03  0.16004360546E+03  0.12700000000E+01 0.  1.
         25    2    1    2    0    0  0.00000000000E+00  0.00000000000E+00 -0.13565335072E+03  0.18446187006E+03  0.12499739975E+03 0.  0.
    9000005    1    3    3    0    0 -0.32512425715E+02  0.50809563337E+02 -0.91913932923E+02  0.10994471619E+03  0.10000000000E+01 0.  0.
    9000005    1    3    3    0    0  0.32512425715E+02 -0.50809563337E+02 -0.43739417797E+02  0.74517153875E+02  0.10000000000E+01 0.  0.
<mgrwt>
<rscale>  0 0.12499740E+03</rscale>
<asrwt>0</asrwt>
<pdfrwt beam="1">  1        4 0.61010654E-02 0.12499740E+03</pdfrwt>
<pdfrwt beam="2">  1       -4 0.40014400E-01 0.12499740E+03</pdfrwt>
<totfact> 0.16964742E+03</totfact>
</mgrwt>
</event>
<event>
 5    1  0.1446384E-002  0.1250258E+03  0.7818608E-02  0.1235029E+00
          4   -1    0    0  501    0  0.00000000000E+00  0.00000000000E+00  0.41081555881E+03  0.41081752185E+03  0.12700000000E+01 0.  1.
         -4   -1    0    0    0  501 -0.00000000000E+00 -0.00000000000E+00 -0.94680616531E+01  0.95528577644E+01  0.12700000000E+01 0.  1.
         25    2    1    2    0    0  0.00000000000E+00  0.00000000000E+00  0.40134749716E+03  0.42037037962E+03  0.12502576768E+03 0.  0.
    9000005    1    3    3    0    0  0.17830413876E+02 -0.31345226654E+02  0.37232787831E+03  0.37407151169E+03  0.10000000000E+01 0.  0.
    9000005    1    3    3    0    0 -0.17830413876E+02  0.31345226654E+02  0.29019618846E+02  0.46298867923E+02  0.10000000000E+01 0.  0.
<mgrwt>
<rscale>  0 0.12502577E+03</rscale>
<asrwt>0</asrwt>
<pdfrwt beam="1">  1        4 0.10271473E+00 0.12502577E+03</pdfrwt>
<pdfrwt beam="2">  1       -4 0.23778604E-02 0.12502577E+03</pdfrwt>
<totfact> 0.10152882E+03</totfact>
</mgrwt>
</event>
<event>
 5    1  0.1446384E-002  0.1249993E+03  0.7818608E-02  0.1235070E+00
         -4   -1    0    0    0  501 -0.00000000000E+00  0.00000000000E+00  0.10500353345E+03  0.10501121339E+03  0.12700000000E+01 0. -1.
          4   -1    0    0  501    0  0.00000000000E+00 -0.00000000000E+00 -0.37180833117E+02  0.37202516733E+02  0.12700000000E+01 0. -1.
         25    2    1    2    0    0  0.00000000000E+00  0.00000000000E+00  0.67822700332E+02  0.14221373012E+03  0.12499930541E+03 0.  0.
    9000005    1    3    3    0    0 -0.16607046907E+02  0.26275934768E+02  0.95589710809E+02  0.10052169700E+03  0.10000000000E+01 0.  0.
    9000005    1    3    3    0    0  0.16607046907E+02 -0.26275934768E+02 -0.27767010477E+02  0.41692033121E+02  0.10000000000E+01 0.  0.
<mgrwt>
<rscale>  0 0.12499931E+03</rscale>
<asrwt>0</asrwt>
<pdfrwt beam="2">  1        4 0.92988788E-02 0.12499931E+03</pdfrwt>
<pdfrwt beam="1">  1       -4 0.26254554E-01 0.12499931E+03</pdfrwt>
<totfact> 0.18927965E+03</totfact>
</mgrwt>
</event>
<event>
 5    1  0.1446384E-002  0.1249994E+03  0.7818608E-02  0.1235070E+00
          4   -1    0    0  501    0  0.00000000000E+00  0.00000000000E+00  0.37259802779E+01  0.39364741878E+01  0.12700000000E+01 0. -1.
         -4   -1    0    0    0  501 -0.00000000000E+00 -0.00000000000E+00 -0.10193605409E+04  0.10193613320E+04  0.12700000000E+01 0. -1.
         25    2    1    2    0    0  0.00000000000E+00  0.00000000000E+00 -0.10156345606E+04  0.10232978062E+04  0.12499935794E+03 0.  0.
    9000005    1    3    3    0    0  0.43389873848E+01 -0.34409474380E+02 -0.82251442961E+02  0.89270031969E+02  0.10000000000E+01 0.  0.
    9000005    1    3    3    0    0 -0.43389873848E+01  0.34409474380E+02 -0.93338311766E+03  0.93402777425E+03  0.10000000000E+01 0.  0.
<mgrwt>
<rscale>  0 0.12499936E+03</rscale>
<asrwt>0</asrwt>
<pdfrwt beam="1">  1        4 0.95790919E-03 0.12499936E+03</pdfrwt>
<pdfrwt beam="2">  1       -4 0.25486562E+00 0.12499936E+03</pdfrwt>
<totfact> 0.35564888E+02</totfact>
</mgrwt>
</event>
<event>
 5    1  0.1446384E-002  0.1250012E+03  0.7818608E-02  0.1235067E+00
         -4   -1    0    0    0  501 -0.00000000000E+00  0.00000000000E+00  0.71668864432E+02  0.71680115995E+02  0.12700000000E+01 0. -1.
          4   -1    0    0  501    0  0.00000000000E+00 -0.00000000000E+00 -0.54482251806E+02  0.54497051863E+02  0.12700000000E+01 0. -1.
         25    2    1    2    0    0  0.00000000000E+00  0.00000000000E+00  0.17186612627E+02  0.12617716786E+03  0.12500119213E+03 0.  0.
    9000005    1    3    3    0    0 -0.17199727332E+02 -0.59988770016E+02  0.52697081280E+01  0.62635876078E+02  0.10000000000E+01 0.  0.
    9000005    1    3    3    0    0  0.17199727332E+02  0.59988770016E+02  0.11916904499E+02  0.63541291780E+02  0.10000000000E+01 0.  0.
<mgrwt>
<rscale>  0 0.12500119E+03</rscale>
<asrwt>0</asrwt>
<pdfrwt beam="2">  1        4 0.13623819E-01 0.12500119E+03</pdfrwt>
<pdfrwt beam="1">  1       -4 0.17920473E-01 0.12500119E+03</pdfrwt>
<totfact> 0.19770798E+03</totfact>
</mgrwt>
</event>
<event>
 5    1  0.1446384E-002  0.1250052E+03  0.7818608E-02  0.1235061E+00
          4   -1    0    0  501    0  0.00000000000E+00  0.00000000000E+00  0.29702258067E+01  0.32303469385E+01  0.12700000000E+01 0. -1.
         -4   -1    0    0    0  501 -0.00000000000E+00 -0.00000000000E+00 -0.12598084044E+04  0.12598090445E+04  0.12700000000E+01 0. -1.
         25    2    1    2    0    0  0.00000000000E+00  0.00000000000E+00 -0.12568381786E+04  0.12630393915E+04  0.12500518889E+03 0.  0.
    9000005    1    3    3    0    0 -0.60361109181E+02 -0.78350759625E+00 -0.46503033972E+03  0.46893314475E+03  0.10000000000E+01 0.  0.
    9000005    1    3    3    0    0  0.60361109181E+02  0.78350759625E+00 -0.79180783887E+03  0.79410624672E+03  0.10000000000E+01 0.  0.
<mgrwt>
<rscale>  0 0.12500519E+03</rscale>
<asrwt>0</asrwt>
<pdfrwt beam="1">  1        4 0.77515593E-03 0.12500519E+03</pdfrwt>
<pdfrwt beam="2">  1       -4 0.31498294E+00 0.12500519E+03</pdfrwt>
<totfact> 0.22041623E+02</totfact>
</mgrwt>
</event>
<event>
 5    1  0.1446384E-002  0.1249982E+03  0.7818608E-02  0.1235072E+00
         -4   -1    0    0    0  501 -0.00000000000E+00  0.00000000000E+00  0.50302785042E+03  0.50302945361E+03  0.12700000000E+01 0. -1.
          4   -1    0    0  501    0  0.00000000000E+00 -0.00000000000E+00 -0.77117001247E+01  0.78155753988E+01  0.12700000000E+01 0. -1.
         25    2    1    2    0    0  0.00000000000E+00  0.00000000000E+00  0.49531615030E+03  0.51084502901E+03  0.12499821966E+03 0.  0.
    9000005    1    3    3    0    0 -0.10944792682E+02 -0.37405403239E+02  0.44729344815E+03  0.44898928877E+03  0.10000000000E+01 0.  0.
    9000005    1    3    3    0    0  0.10944792682E+02  0.37405403239E+02  0.48022702151E+02  0.61855740237E+02  0.10000000000E+01 0.  0.
<mgrwt>
<rscale>  0 0.12499822E+03</rscale>
<asrwt>0</asrwt>
<pdfrwt beam="2">  1        4 0.19411101E-02 0.12499822E+03</pdfrwt>
<pdfrwt beam="1">  1       -4 0.12577013E+00 0.12499822E+03</pdfrwt>
<totfact> 0.85910822E+02</totfact>
</mgrwt>
</event>
<event>
 5    1  0.1446384E-002  0.1249973E+03  0.7818608E-02  0.1235073E+00
         -4   -1    0    0    0  501 -0.00000000000E+00  0.00000000000E+00  0.11297231646E+03  0.11297945471E+03  0.12700000000E+01 0. -1.
          4   -1    0    0  501    0  0.00000000000E+00 -0.00000000000E+00 -0.34555680344E+02  0.34579010166E+02  0.12700000000E+01 0. -1.
         25    2    1    2    0    0  0.00000000000E+00  0.00000000000E+00  0.78416636114E+02  0.14755846487E+03  0.12499732692E+03 0.  0.
    9000005    1    3    3    0    0 -0.63143618229E+01  0.50692628998E+02 -0.32807237993E+01  0.51199384260E+02  0.10000000000E+01 0.  0.
    9000005    1    3    3    0    0  0.63143618229E+01 -0.50692628998E+02  0.81697359913E+02  0.96359080613E+02  0.10000000000E+01 0.  0.
<mgrwt>
<rscale>  0 0.12499733E+03</rscale>
<asrwt>0</asrwt>
<pdfrwt beam="2">  1        4 0.86427287E-02 0.12499733E+03</pdfrwt>
<pdfrwt beam="1">  1       -4 0.28246887E-01 0.12499733E+03</pdfrwt>
<totfact> 0.18660648E+03</totfact>
</mgrwt>
</event>
<event>
 5    1  0.1446384E-002  0.1249994E+03  0.7818608E-02  0.1235070E+00
         -4   -1    0    0    0  501 -0.00000000000E+00  0.00000000000E+00  0.21345885948E+03  0.21346263746E+03  0.12700000000E+01 0.  1.
          4   -1    0    0  501    0  0.00000000000E+00 -0.00000000000E+00 -0.18273616246E+02  0.18317695016E+02  0.12700000000E+01 0.  1.
         25    2    1    2    0    0  0.00000000000E+00  0.00000000000E+00  0.19518524324E+03  0.23178033248E+03  0.12499937338E+03 0.  0.
    9000005    1    3    3    0    0  0.28335619165E+02 -0.55556647479E+02  0.10495436241E+03  0.12208958425E+03  0.10000000000E+01 0.  0.
    9000005    1    3    3    0    0 -0.28335619165E+02  0.55556647479E+02  0.90230880826E+02  0.10969074823E+03  0.10000000000E+01 0.  0.
<mgrwt>
<rscale>  0 0.12499937E+03</rscale>
<asrwt>0</asrwt>
<pdfrwt beam="2">  1        4 0.45743862E-02 0.12499937E+03</pdfrwt>
<pdfrwt beam="1">  1       -4 0.53370696E-01 0.12499937E+03</pdfrwt>
<totfact> 0.15124123E+03</totfact>
</mgrwt>
</event>
<event>
 5    1  0.1446384E-002  0.1249995E+03  0.7818608E-02  0.1235070E+00
         -4   -1    0    0    0  501 -0.00000000000E+00  0.00000000000E+00  0.44929566510E+02  0.44947512131E+02  0.12700000000E+01 0. -1.
          4   -1    0    0  501    0  0.00000000000E+00 -0.00000000000E+00 -0.86900934491E+02  0.86910214103E+02  0.12700000000E+01 0. -1.
         25    2    1    2    0    0  0.00000000000E+00  0.00000000000E+00 -0.41971367981E+02  0.13185772623E+03  0.12499945695E+03 0.  0.
    9000005    1    3    3    0    0  0.31588512619E+02 -0.21326135468E+02  0.31255000577E+02  0.49300235746E+02  0.10000000000E+01 0.  0.
    9000005    1    3    3    0    0 -0.31588512619E+02  0.21326135468E+02 -0.73226368558E+02  0.82557490488E+02  0.10000000000E+01 0.  0.
<mgrwt>
<rscale>  0 0.12499946E+03</rscale>
<asrwt>0</asrwt>
<pdfrwt beam="2">  1        4 0.21728637E-01 0.12499946E+03</pdfrwt>
<pdfrwt beam="1">  1       -4 0.11235795E-01 0.12499946E+03</pdfrwt>
<totfact> 0.19465270E+03</totfact>
</mgrwt>
</event>
<event>
 5    1  0.1446384E-002  0.1250015E+03  0.7818608E-02  0.1235067E+00
         -4   -1    0    0    0  501 -0.00000000000E+00  0.00000000000E+00  0.21952610452E+02  0.21989315716E+02  0.12700000000E+01 0.  1.
          4   -1    0    0  501    0  0.00000000000E+00 -0.00000000000E+00 -0.17775685869E+03  0.17776139544E+03  0.12700000000E+01 0.  1.
         25    2    1    2    0    0  0.00000000000E+00  0.00000000000E+00 -0.15580424823E+03  0.19975071116E+03  0.12500153135E+03 0.  0.
    9000005    1    3    3    0    0  0.21993596038E+02 -0.21426647878E+02 -0.16487905943E+03  0.16771679625E+03  0.10000000000E+01 0.  0.
    9000005    1    3    3    0    0 -0.21993596038E+02  0.21426647878E+02  0.90748111979E+01  0.32033914907E+02  0.10000000000E+01 0.  0.
<mgrwt>
<rscale>  0 0.12500153E+03</rscale>
<asrwt>0</asrwt>
<pdfrwt beam="2">  1        4 0.44444366E-01 0.12500153E+03</pdfrwt>
<pdfrwt beam="1">  1       -4 0.54933084E-02 0.12500153E+03</pdfrwt>
<totfact> 0.16331450E+03</totfact>
</mgrwt>
</event>
<event>
 5    1  0.1446384E-002  0.1250080E+03  0.7818608E-02  0.1235057E+00
          4   -1    0    0  501    0  0.00000000000E+00  0.00000000000E+00  0.39359588302E+02  0.39380072261E+02  0.12700000000E+01 0. -1.
         -4   -1    0    0    0  501 -0.00000000000E+00 -0.00000000000E+00 -0.99207476296E+02  0.99215604887E+02  0.12700000000E+01 0. -1.
         25    2    1    2    0    0  0.00000000000E+00  0.00000000000E+00 -0.59847887995E+02  0.13859567715E+03  0.12500796785E+03 0.  0.
    9000005    1    3    3    0    0 -0.64230021293E+01  0.61671163308E+02 -0.21253365102E+02  0.65553740307E+02  0.10000000000E+01 0.  0.
    9000005    1    3    3    0    0  0.64230021293E+01 -0.61671163308E+02 -0.38594522893E+02  0.73041936841E+02  0.10000000000E+01 0.  0.
<mgrwt>
<rscale>  0 0.12500797E+03</rscale>
<asrwt>0</asrwt>
<pdfrwt beam="1">  1        4 0.98434739E-02 0.12500797E+03</pdfrwt>
<pdfrwt beam="2">  1       -4 0.24805445E-01 0.12500797E+03</pdfrwt>
<totfact> 0.19108866E+03</totfact>
</mgrwt>
</event>
<event>
 5    1  0.1446384E-002  0.1249990E+03  0.7818608E-02  0.1235071E+00
         -4   -1    0    0    0  501 -0.00000000000E+00  0.00000000000E+00  0.51266901841E+02  0.51282629851E+02  0.12700000000E+01 0. -1.
          4   -1    0    0  501    0  0.00000000000E+00 -0.00000000000E+00 -0.76160455822E+02  0.76171043915E+02  0.12700000000E+01 0. -1.
         25    2    1    2    0    0  0.00000000000E+00  0.00000000000E+00 -0.24893553981E+02  0.12745367377E+03  0.12499899970E+03 0.  0.
    9000005    1    3    3    0    0 -0.61939591088E+02 -0.72874115822E+01 -0.84236420363E+01  0.62941060183E+02  0.10000000000E+01 0.  0.
    9000005    1    3    3    0    0  0.61939591088E+02  0.72874115822E+01 -0.16469911945E+02  0.64512613582E+02  0.10000000000E+01 0.  0.
<mgrwt>
<rscale>  0 0.12499900E+03</rscale>
<asrwt>0</asrwt>
<pdfrwt beam="2">  1        4 0.19043403E-01 0.12499900E+03</pdfrwt>
<pdfrwt beam="1">  1       -4 0.12820015E-01 0.12499900E+03</pdfrwt>
<totfact> 0.19702774E+03</totfact>
</mgrwt>
</event>
<event>
 5    1  0.1446384E-002  0.1249994E+03  0.7818608E-02  0.1235070E+00
         -4   -1    0    0    0  501 -0.00000000000E+00  0.00000000000E+00  0.97614242855E+02  0.97622504107E+02  0.12700000000E+01 0.  1.
          4   -1    0    0  501    0  0.00000000000E+00 -0.00000000000E+00 -0.39996818117E+02  0.40016975892E+02  0.12700000000E+01 0.  1.
         25    2    1    2    0    0  0.00000000000E+00  0.00000000000E+00  0.57617424738E+02  0.13763948000E+03  0.12499943528E+03 0.  0.
    9000005    1    3    3    0    0  0.41823428825E+02  0.43445363219E+02  0.46852179512E+02  0.76372937019E+02  0.10000000000E+01 0.  0.
    9000005    1    3    3    0    0 -0.41823428825E+02 -0.43445363219E+02  0.10765245225E+02  0.61266542980E+02  0.10000000000E+01 0.  0.
<mgrwt>
<rscale>  0 0.12499944E+03</rscale>
<asrwt>0</asrwt>
<pdfrwt beam="2">  1        4 0.10002757E-01 0.12499944E+03</pdfrwt>
<pdfrwt beam="1">  1       -4 0.24407113E-01 0.12499944E+03</pdfrwt>
<totfact> 0.19162014E+03</totfact>
</mgrwt>
</event>
<event>
 5    1  0.1446384E-002  0.1249955E+03  0.7818608E-02  0.1235076E+00
         -4   -1    0    0    0  501 -0.00000000000E+00  0.00000000000E+00  0.49645175366E+03  0.49645337809E+03  0.12700000000E+01 0.  1.
          4   -1    0    0  501    0  0.00000000000E+00 -0.00000000000E+00 -0.78148707195E+01  0.79173925229E+01  0.12700000000E+01 0.  1.
         25    2    1    2    0    0  0.00000000000E+00  0.00000000000E+00  0.48863688294E+03  0.50437077061E+03  0.12499548341E+03 0.  0.
    9000005    1    3    3    0    0 -0.57411236296E+02 -0.15983940371E+02  0.16845926852E+03  0.17869264549E+03  0.10000000000E+01 0.  0.
    9000005    1    3    3    0    0  0.57411236296E+02  0.15983940371E+02  0.32017761442E+03  0.32567812512E+03  0.10000000000E+01 0.  0.
<mgrwt>
<rscale>  0 0.12499548E+03</rscale>
<asrwt>0</asrwt>
<pdfrwt beam="2">  1        4 0.19667358E-02 0.12499548E+03</pdfrwt>
<pdfrwt beam="1">  1       -4 0.12412596E+00 0.12499548E+03</pdfrwt>
<totfact> 0.86924836E+02</totfact>
</mgrwt>
</event>
<event>
 5    1  0.1446384E-002  0.1250056E+03  0.7818608E-02  0.1235061E+00
         -4   -1    0    0    0  501 -0.00000000000E+00  0.00000000000E+00  0.23052170225E+03  0.23052520059E+03  0.12700000000E+01 0. -1.
          4   -1    0    0  501    0  0.00000000000E+00 -0.00000000000E+00 -0.16919349566E+02  0.16966946977E+02  0.12700000000E+01 0. -1.
         25    2    1    2    0    0  0.00000000000E+00  0.00000000000E+00  0.21360235269E+03  0.24749214757E+03  0.12500559202E+03 0.  0.
    9000005    1    3    3    0    0 -0.80860899426E+01  0.43554610062E+02  0.19525762170E+02  0.48421527202E+02  0.10000000000E+01 0.  0.
    9000005    1    3    3    0    0  0.80860899426E+01 -0.43554610062E+02  0.19407659052E+03  0.19907062037E+03  0.10000000000E+01 0.  0.
<mgrwt>
<rscale>  0 0.12500559E+03</rscale>
<asrwt>0</asrwt>
<pdfrwt beam="2">  1        4 0.42362245E-02 0.12500559E+03</pdfrwt>
<pdfrwt beam="1">  1       -4 0.57636811E-01 0.12500559E+03</pdfrwt>
<totfact> 0.14579903E+03</totfact>
</mgrwt>
</event>
<event>
 5    1  0.1446384E-002  0.1250564E+03  0.7818608E-02  0.1234981E+00
          4   -1    0    0  501    0  0.00000000000E+00  0.00000000000E+00  0.26691322519E+03  0.26691624657E+03  0.12700000000E+01 0. -1.
         -4   -1    0    0    0  501 -0.00000000000E+00 -0.00000000000E+00 -0.14617480171E+02  0.14672546696E+02  0.12700000000E+01 0. -1.
         25    2    1    2    0    0  0.00000000000E+00  0.00000000000E+00  0.25229574502E+03  0.28158879327E+03  0.12505640942E+03 0.  0.
    9000005    1    3    3    0    0 -0.60899355768E+02 -0.29902011380E+01  0.95020405115E+02  0.11290504960E+03  0.10000000000E+01 0.  0.
    9000005    1    3    3    0    0  0.60899355768E+02  0.29902011380E+01  0.15727533991E+03  0.16868374367E+03  0.10000000000E+01 0.  0.
<mgrwt>
<rscale>  0 0.12505641E+03</rscale>
<asrwt>0</asrwt>
<pdfrwt beam="1">  1        4 0.66735569E-01 0.12505641E+03</pdfrwt>
<pdfrwt beam="2">  1       -4 0.36616309E-02 0.12505641E+03</pdfrwt>
<totfact> 0.13485758E+03</totfact>
</mgrwt>
</event>
<event>
 5    1  0.1446384E-002  0.1250016E+03  0.7818608E-02  0.1235067E+00
         -4   -1    0    0    0  501 -0.00000000000E+00  0.00000000000E+00  0.25996457597E+02  0.26027460645E+02  0.12700000000E+01 0. -1.
          4   -1    0    0  501    0  0.00000000000E+00 -0.00000000000E+00 -0.15014146367E+03  0.15014683484E+03  0.12700000000E+01 0. -1.
         25    2    1    2    0    0  0.00000000000E+00  0.00000000000E+00 -0.12414500607E+03  0.17617429549E+03  0.12500159942E+03 0.  0.
    9000005    1    3    3    0    0 -0.25267326897E+02 -0.14782029268E+02 -0.13988748449E+03  0.14292114790E+03  0.10000000000E+01 0.  0.
    9000005    1    3    3    0    0  0.25267326897E+02  0.14782029268E+02  0.15742478422E+02  0.33253147590E+02  0.10000000000E+01 0.  0.
<mgrwt>
<rscale>  0 0.12500160E+03</rscale>
<asrwt>0</asrwt>
<pdfrwt beam="2">  1        4 0.37539910E-01 0.12500160E+03</pdfrwt>
<pdfrwt beam="1">  1       -4 0.65036616E-02 0.12500160E+03</pdfrwt>
<totfact> 0.17321460E+03</totfact>
</mgrwt>
</event>
<event>
 5    1  0.1446384E-002  0.1249991E+03  0.7818608E-02  0.1235071E+00
          4   -1    0    0  501    0  0.00000000000E+00  0.00000000000E+00  0.97042676548E+01  0.97870174576E+01  0.12700000000E+01 0. -1.
         -4   -1    0    0    0  501 -0.00000000000E+00 -0.00000000000E+00 -0.40073073887E+03  0.40073275131E+03  0.12700000000E+01 0. -1.
         25    2    1    2    0    0  0.00000000000E+00  0.00000000000E+00 -0.39102647121E+03  0.41051976877E+03  0.12499911744E+03 0.  0.
    9000005    1    3    3    0    0 -0.89724050912E+01 -0.30266166678E+02 -0.18391092931E+02  0.36548285838E+02  0.10000000000E+01 0.  0.
    9000005    1    3    3    0    0  0.89724050912E+01  0.30266166678E+02 -0.37263537828E+03  0.37397148293E+03  0.10000000000E+01 0.  0.
<mgrwt>
<rscale>  0 0.12499912E+03</rscale>
<asrwt>0</asrwt>
<pdfrwt beam="1">  1        4 0.24366635E-02 0.12499912E+03</pdfrwt>
<pdfrwt beam="2">  1       -4 0.10019322E+00 0.12499912E+03</pdfrwt>
<totfact> 0.10355690E+03</totfact>
</mgrwt>
</event>
<event>
 5    1  0.1446384E-002  0.1250006E+03  0.7818608E-02  0.1235068E+00
         -4   -1    0    0    0  501 -0.00000000000E+00  0.00000000000E+00  0.14306671512E+03  0.14307235189E+03  0.12700000000E+01 0. -1.
          4   -1    0    0  501    0  0.00000000000E+00 -0.00000000000E+00 -0.27282993217E+02  0.27312535929E+02  0.12700000000E+01 0. -1.
         25    2    1    2    0    0  0.00000000000E+00  0.00000000000E+00  0.11578372190E+03  0.17038488782E+03  0.12500055895E+03 0.  0.
    9000005    1    3    3    0    0  0.53327685764E+01 -0.61474697937E+02  0.71365479282E+02  0.94348336182E+02  0.10000000000E+01 0.  0.
    9000005    1    3    3    0    0 -0.53327685764E+01  0.61474697937E+02  0.44418242617E+02  0.76036551633E+02  0.10000000000E+01 0.  0.
<mgrwt>
<rscale>  0 0.12500056E+03</rscale>
<asrwt>0</asrwt>
<pdfrwt beam="2">  1        4 0.68251457E-02 0.12500056E+03</pdfrwt>
<pdfrwt beam="1">  1       -4 0.35771076E-01 0.12500056E+03</pdfrwt>
<totfact> 0.17579473E+03</totfact>
</mgrwt>
</event>
<event>
 5    1  0.1446384E-002  0.1250012E+03  0.7818608E-02  0.1235067E+00
         -4   -1    0    0    0  501 -0.00000000000E+00  0.00000000000E+00  0.81995069727E+02  0.82004904485E+02  0.12700000000E+01 0. -1.
          4   -1    0    0  501    0  0.00000000000E+00 -0.00000000000E+00 -0.47619805297E+02  0.47636737467E+02  0.12700000000E+01 0. -1.
         25    2    1    2    0    0  0.00000000000E+00  0.00000000000E+00  0.34375264430E+02  0.12964164195E+03  0.12500118609E+03 0.  0.
    9000005    1    3    3    0    0  0.27702084776E+02  0.42492338319E+02  0.55043624318E+02  0.74858565941E+02  0.10000000000E+01 0.  0.
    9000005    1    3    3    0    0 -0.27702084776E+02 -0.42492338319E+02 -0.20668359887E+02  0.54783076011E+02  0.10000000000E+01 0.  0.
<mgrwt>
<rscale>  0 0.12500119E+03</rscale>
<asrwt>0</asrwt>
<pdfrwt beam="2">  1        4 0.11908297E-01 0.12500119E+03</pdfrwt>
<pdfrwt beam="1">  1       -4 0.20502113E-01 0.12500119E+03</pdfrwt>
<totfact> 0.19583125E+03</totfact>
</mgrwt>
</event>
<event>
 5    1  0.1446384E-002  0.1250075E+03  0.7818608E-02  0.1235058E+00
          4   -1    0    0  501    0  0.00000000000E+00  0.00000000000E+00  0.36798711855E+02  0.36820620502E+02  0.12700000000E+01 0.  1.
         -4   -1    0    0    0  501 -0.00000000000E+00 -0.00000000000E+00 -0.10610730787E+03  0.10611490792E+03  0.12700000000E+01 0.  1.
         25    2    1    2    0    0  0.00000000000E+00  0.00000000000E+00 -0.69308596011E+02  0.14293552842E+03  0.12500753499E+03 0.  0.
    9000005    1    3    3    0    0  0.92587536688E+01  0.18943395621E+02 -0.10192312372E+03  0.10408602167E+03  0.10000000000E+01 0.  0.
    9000005    1    3    3    0    0 -0.92587536688E+01 -0.18943395621E+02  0.32614527712E+02  0.38849506754E+02  0.10000000000E+01 0.  0.
<mgrwt>
<rscale>  0 0.12500753E+03</rscale>
<asrwt>0</asrwt>
<pdfrwt beam="1">  1        4 0.92033668E-02 0.12500753E+03</pdfrwt>
<pdfrwt beam="2">  1       -4 0.26530515E-01 0.12500753E+03</pdfrwt>
<totfact> 0.18887841E+03</totfact>
</mgrwt>
</event>
<event>
 5    1  0.1446384E-002  0.1250041E+03  0.7818608E-02  0.1235063E+00
          4   -1    0    0  501    0  0.00000000000E+00  0.00000000000E+00  0.57190686914E+02  0.57204786248E+02  0.12700000000E+01 0.  1.
         -4   -1    0    0    0  501 -0.00000000000E+00 -0.00000000000E+00 -0.68278306784E+02  0.68290116981E+02  0.12700000000E+01 0.  1.
         25    2    1    2    0    0  0.00000000000E+00  0.00000000000E+00 -0.11087619870E+02  0.12549490323E+03  0.12500414162E+03 0.  0.
    9000005    1    3    3    0    0  0.48451214513E+02 -0.61275865136E+01  0.33602111672E+02  0.59288864157E+02  0.10000000000E+01 0.  0.
    9000005    1    3    3    0    0 -0.48451214513E+02  0.61275865136E+01 -0.44689731542E+02  0.66206039072E+02  0.10000000000E+01 0.  0.
<mgrwt>
<rscale>  0 0.12500414E+03</rscale>
<asrwt>0</asrwt>
<pdfrwt beam="1">  1        4 0.14300910E-01 0.12500414E+03</pdfrwt>
<pdfrwt beam="2">  1       -4 0.17072815E-01 0.12500414E+03</pdfrwt>
<totfact> 0.19806320E+03</totfact>
</mgrwt>
</event>
<event>
 4    1  0.1446384E-002  0.1250792E+03  0.7818608E-02  0.1234946E+00
         -4   -1    0    0    0  501 -0.00000000000E+00  0.00000000000E+00  0.30710432504E+03  0.30710695101E+03  0.12700000000E+01 0.  1.
          4   -1    0    0  501    0  0.00000000000E+00 -0.00000000000E+00 -0.12701394796E+02  0.12764729914E+02  0.12700000000E+01 0.  1.
    9000005    1    1    2    0    0  0.30202802411E+02 -0.33468086004E+02  0.36379825957E+02  0.57938016802E+02  0.10000000000E+01 0.  0.
    9000005    1    1    2    0    0 -0.30202802411E+02  0.33468086004E+02  0.25802310428E+03  0.26193366412E+03  0.10000000000E+01 0.  0.
<mgrwt>
<rscale>  0 0.12507920E+03</rscale>
<asrwt>0</asrwt>
<pdfrwt beam="2">  1        4 0.31835938E-02 0.12507920E+03</pdfrwt>
<pdfrwt beam="1">  1       -4 0.76784327E-01 0.12507920E+03</pdfrwt>
<totfact> 0.12409338E+03</totfact>
</mgrwt>
</event>
<event>
 5    1  0.1446384E-002  0.1249992E+03  0.7818608E-02  0.1235071E+00
          4   -1    0    0  501    0  0.00000000000E+00  0.00000000000E+00  0.26553335969E+02  0.26583689569E+02  0.12700000000E+01 0. -1.
         -4   -1    0    0    0  501 -0.00000000000E+00 -0.00000000000E+00 -0.14699056758E+03  0.14699605389E+03  0.12700000000E+01 0. -1.
         25    2    1    2    0    0  0.00000000000E+00  0.00000000000E+00 -0.12043723161E+03  0.17357974346E+03  0.12499920232E+03 0.  0.
    9000005    1    3    3    0    0  0.52962674514E+02 -0.32036301230E+02 -0.48286700384E+02  0.78510985997E+02  0.10000000000E+01 0.  0.
    9000005    1    3    3    0    0 -0.52962674514E+02  0.32036301230E+02 -0.72150531230E+02  0.95068757460E+02  0.10000000000E+01 0.  0.
<mgrwt>
<rscale>  0 0.12499920E+03</rscale>
<asrwt>0</asrwt>
<pdfrwt beam="1">  1        4 0.66428144E-02 0.12499920E+03</pdfrwt>
<pdfrwt beam="2">  1       -4 0.36752120E-01 0.12499920E+03</pdfrwt>
<totfact> 0.17437107E+03</totfact>
</mgrwt>
</event>
<event>
 5    1  0.1446384E-002  0.1250000E+03  0.7818608E-02  0.1235069E+00
          4   -1    0    0  501    0  0.00000000000E+00  0.00000000000E+00  0.12994101238E+03  0.12994721851E+03  0.12700000000E+01 0. -1.
         -4   -1    0    0    0  501 -0.00000000000E+00 -0.00000000000E+00 -0.30041378316E+02  0.30068210973E+02  0.12700000000E+01 0. -1.
         25    2    1    2    0    0  0.00000000000E+00  0.00000000000E+00  0.99899634066E+02  0.16001542948E+03  0.12500000315E+03 0.  0.
    9000005    1    3    3    0    0  0.27412284906E+02 -0.54609649389E+02  0.33180541172E+02  0.69538446076E+02  0.10000000000E+01 0.  0.
    9000005    1    3    3    0    0 -0.27412284906E+02  0.54609649389E+02  0.66719092893E+02  0.90476983408E+02  0.10000000000E+01 0.  0.
<mgrwt>
<rscale>  0 0.12500000E+03</rscale>
<asrwt>0</asrwt>
<pdfrwt beam="1">  1        4 0.32489383E-01 0.12500000E+03</pdfrwt>
<pdfrwt beam="2">  1       -4 0.75144745E-02 0.12500000E+03</pdfrwt>
<totfact> 0.18057027E+03</totfact>
</mgrwt>
</event>
<event>
 5    1  0.1446384E-002  0.1250131E+03  0.7818608E-02  0.1235049E+00
          4   -1    0    0  501    0  0.00000000000E+00  0.00000000000E+00  0.14315362593E+02  0.14371586766E+02  0.12700000000E+01 0.  1.
         -4   -1    0    0    0  501 -0.00000000000E+00 -0.00000000000E+00 -0.27233561495E+03  0.27233857617E+03  0.12700000000E+01 0.  1.
         25    2    1    2    0    0  0.00000000000E+00  0.00000000000E+00 -0.25802025236E+03  0.28671016294E+03  0.12501306694E+03 0.  0.
    9000005    1    3    3    0    0 -0.22140506015E+02  0.57956782938E+01  0.43703073706E+01  0.23321481085E+02  0.10000000000E+01 0.  0.
    9000005    1    3    3    0    0  0.22140506015E+02 -0.57956782938E+01 -0.26239055973E+03  0.26338868186E+03  0.10000000000E+01 0.  0.
<mgrwt>
<rscale>  0 0.12501307E+03</rscale>
<asrwt>0</asrwt>
<pdfrwt beam="1">  1        4 0.35862397E-02 0.12501307E+03</pdfrwt>
<pdfrwt beam="2">  1       -4 0.68091285E-01 0.12501307E+03</pdfrwt>
<totfact> 0.13347878E+03</totfact>
</mgrwt>
</event>
<event>
 5    1  0.1446384E-002  0.1250006E+03  0.7818608E-02  0.1235068E+00
         -4   -1    0    0    0  501 -0.00000000000E+00  0.00000000000E+00  0.36733537485E+02  0.36755484980E+02  0.12700000000E+01 0. -1.
          4   -1    0    0  501    0  0.00000000000E+00 -0.00000000000E+00 -0.10628360864E+03  0.10629119609E+03  0.12700000000E+01 0. -1.
         25    2    1    2    0    0  0.00000000000E+00  0.00000000000E+00 -0.69550071157E+02  0.14304668107E+03  0.12500056227E+03 0.  0.
    9000005    1    3    3    0    0 -0.77419654718E+01  0.33112619986E+02  0.25224157448E+02  0.42351407895E+02  0.10000000000E+01 0.  0.
    9000005    1    3    3    0    0  0.77419654718E+01 -0.33112619986E+02 -0.94774228605E+02  0.10069527317E+03  0.10000000000E+01 0.  0.
<mgrwt>
<rscale>  0 0.12500056E+03</rscale>
<asrwt>0</asrwt>
<pdfrwt beam="2">  1        4 0.26574593E-01 0.12500056E+03</pdfrwt>
<pdfrwt beam="1">  1       -4 0.91870765E-02 0.12500056E+03</pdfrwt>
<totfact> 0.18885301E+03</totfact>
</mgrwt>
</event>
<event>
 4    1  0.1446384E-002  0.1252244E+03  0.7818608E-02  0.1234719E+00
         -4   -1    0    0    0  501 -0.00000000000E+00  0.00000000000E+00  0.20681519571E+02  0.20720476630E+02  0.12700000000E+01 0.  1.
          4   -1    0    0  501    0  0.00000000000E+00 -0.00000000000E+00 -0.18933562541E+03  0.18933988473E+03  0.12700000000E+01 0.  1.
    9000005    1    1    2    0    0 -0.21960815707E+02  0.21871581790E+02 -0.17557046117E+03  0.17828805443E+03  0.10000000000E+01 0.  0.
    9000005    1    1    2    0    0  0.21960815707E+02 -0.21871581790E+02  0.69163553327E+01  0.31772306929E+02  0.10000000000E+01 0.  0.
<mgrwt>
<rscale>  0 0.12522439E+03</rscale>
<asrwt>0</asrwt>
<pdfrwt beam="2">  1        4 0.47339303E-01 0.12522439E+03</pdfrwt>
<pdfrwt beam="1">  1       -4 0.51757825E-02 0.12522439E+03</pdfrwt>
<totfact> 0.15844711E+03</totfact>
</mgrwt>
</event>
<event>
 5    1  0.1446384E-002  0.1250000E+03  0.7818608E-02  0.1235069E+00
          4   -1    0    0  501    0  0.00000000000E+00  0.00000000000E+00  0.16205291725E+02  0.16254980156E+02  0.12700000000E+01 0. -1.
         -4   -1    0    0    0  501 -0.00000000000E+00 -0.00000000000E+00 -0.24062745357E+03  0.24063080500E+03  0.12700000000E+01 0. -1.
         25    2    1    2    0    0  0.00000000000E+00  0.00000000000E+00 -0.22442216185E+03  0.25688578515E+03  0.12499999954E+03 0.  0.
    9000005    1    3    3    0    0  0.58432350023E+02 -0.91111508383E+01 -0.70705593779E+02  0.92182610022E+02  0.10000000000E+01 0.  0.
    9000005    1    3    3    0    0 -0.58432350023E+02  0.91111508383E+01 -0.15371656807E+03  0.16470317513E+03  0.10000000000E+01 0.  0.
<mgrwt>
<rscale>  0 0.12500000E+03</rscale>
<asrwt>0</asrwt>
<pdfrwt beam="1">  1        4 0.40579537E-02 0.12500000E+03</pdfrwt>
<pdfrwt beam="2">  1       -4 0.60163482E-01 0.12500000E+03</pdfrwt>
<totfact> 0.14271702E+03</totfact>
</mgrwt>
</event>
<event>
 5    1  0.1446384E-002  0.1250002E+03  0.7818608E-02  0.1235069E+00
          4   -1    0    0  501    0  0.00000000000E+00  0.00000000000E+00  0.79947147994E+02  0.79957234647E+02  0.12700000000E+01 0.  1.
         -4   -1    0    0    0  501 -0.00000000000E+00 -0.00000000000E+00 -0.48839130983E+02  0.48855640566E+02  0.12700000000E+01 0.  1.
         25    2    1    2    0    0  0.00000000000E+00  0.00000000000E+00  0.31108017011E+02  0.12881287521E+03  0.12500019239E+03 0.  0.
    9000005    1    3    3    0    0 -0.49477396815E+02 -0.28992531247E+02  0.41144542946E+02  0.70586493594E+02  0.10000000000E+01 0.  0.
    9000005    1    3    3    0    0  0.49477396815E+02  0.28992531247E+02 -0.10036525935E+02  0.58226381619E+02  0.10000000000E+01 0.  0.
<mgrwt>
<rscale>  0 0.12500019E+03</rscale>
<asrwt>0</asrwt>
<pdfrwt beam="1">  1        4 0.19990111E-01 0.12500019E+03</pdfrwt>
<pdfrwt beam="2">  1       -4 0.12213107E-01 0.12500019E+03</pdfrwt>
<totfact> 0.19628331E+03</totfact>
</mgrwt>
</event>
<event>
 5    1  0.1446384E-002  0.1249915E+03  0.7818608E-02  0.1235083E+00
         -4   -1    0    0    0  501 -0.00000000000E+00  0.00000000000E+00  0.10115231857E+03  0.10116029088E+03  0.12700000000E+01 0. -1.
          4   -1    0    0  501    0  0.00000000000E+00 -0.00000000000E+00 -0.38592313543E+02  0.38613204537E+02  0.12700000000E+01 0. -1.
         25    2    1    2    0    0  0.00000000000E+00  0.00000000000E+00  0.62560005024E+02  0.13977349542E+03  0.12499150288E+03 0.  0.
    9000005    1    3    3    0    0 -0.50445487185E+02 -0.36329626530E+02  0.24195995948E+02  0.66716078729E+02  0.10000000000E+01 0.  0.
    9000005    1    3    3    0    0  0.50445487185E+02  0.36329626530E+02  0.38364009077E+02  0.73057416691E+02  0.10000000000E+01 0.  0.
<mgrwt>
<rscale>  0 0.12499150E+03</rscale>
<asrwt>0</asrwt>
<pdfrwt beam="2">  1        4 0.96516864E-02 0.12499150E+03</pdfrwt>
<pdfrwt beam="1">  1       -4 0.25291687E-01 0.12499150E+03</pdfrwt>
<totfact> 0.19055711E+03</totfact>
</mgrwt>
</event>
<event>
 5    1  0.1446384E-002  0.1250480E+03  0.7818608E-02  0.1234994E+00
          4   -1    0    0  501    0  0.00000000000E+00  0.00000000000E+00  0.92381858984E+02  0.92390588099E+02  0.12700000000E+01 0.  1.
         -4   -1    0    0    0  501 -0.00000000000E+00 -0.00000000000E+00 -0.42295966783E+02  0.42315029317E+02  0.12700000000E+01 0.  1.
         25    2    1    2    0    0  0.00000000000E+00  0.00000000000E+00  0.50085892201E+02  0.13470561742E+03  0.12504801784E+03 0.  0.
    9000005    1    3    3    0    0 -0.74906702514E+01 -0.50527904471E+01  0.91680039343E+02  0.92129639346E+02  0.10000000000E+01 0.  0.
    9000005    1    3    3    0    0  0.74906702514E+01  0.50527904471E+01 -0.41594147142E+02  0.42575978070E+02  0.10000000000E+01 0.  0.
<mgrwt>
<rscale>  0 0.12504802E+03</rscale>
<asrwt>0</asrwt>
<pdfrwt beam="1">  1        4 0.23098938E-01 0.12504802E+03</pdfrwt>
<pdfrwt beam="2">  1       -4 0.10577466E-01 0.12504802E+03</pdfrwt>
<totfact> 0.19292943E+03</totfact>
</mgrwt>
</event>
<event>
 5    1  0.1446384E-002  0.1249994E+03  0.7818608E-02  0.1235070E+00
          4   -1    0    0  501    0  0.00000000000E+00  0.00000000000E+00  0.10107596561E+04  0.10107604539E+04  0.12700000000E+01 0.  1.
         -4   -1    0    0    0  501 -0.00000000000E+00 -0.00000000000E+00 -0.37594699005E+01  0.39681877391E+01  0.12700000000E+01 0.  1.
         25    2    1    2    0    0  0.00000000000E+00  0.00000000000E+00  0.10070001862E+04  0.10147286417E+04  0.12499936515E+03 0.  0.
    9000005    1    3    3    0    0 -0.61052469591E+02 -0.69684620576E+01  0.41121064748E+03  0.41577777732E+03  0.10000000000E+01 0.  0.
    9000005    1    3    3    0    0  0.61052469591E+02  0.69684620576E+01  0.59578953868E+03  0.59895086435E+03  0.10000000000E+01 0.  0.
<mgrwt>
<rscale>  0 0.12499937E+03</rscale>
<asrwt>0</asrwt>
<pdfrwt beam="1">  1        4 0.25271608E+00 0.12499937E+03</pdfrwt>
<pdfrwt beam="2">  1       -4 0.96605702E-03 0.12499937E+03</pdfrwt>
<totfact> 0.36127712E+02</totfact>
</mgrwt>
</event>
<event>
 5    1  0.1446384E-002  0.1249983E+03  0.7818608E-02  0.1235072E+00
         -4   -1    0    0    0  501 -0.00000000000E+00  0.00000000000E+00  0.96044242563E+02  0.96052638847E+02  0.12700000000E+01 0. -1.
          4   -1    0    0  501    0  0.00000000000E+00 -0.00000000000E+00 -0.40650188284E+02  0.40670022222E+02  0.12700000000E+01 0. -1.
         25    2    1    2    0    0  0.00000000000E+00  0.00000000000E+00  0.55394054279E+02  0.13672266107E+03  0.12499833919E+03 0.  0.
    9000005    1    3    3    0    0  0.83727085688E+01 -0.14471946192E+02 -0.38163712959E+02  0.41677433488E+02  0.10000000000E+01 0.  0.
    9000005    1    3    3    0    0 -0.83727085688E+01  0.14471946192E+02  0.93557767238E+02  0.95045227581E+02  0.10000000000E+01 0.  0.
<mgrwt>
<rscale>  0 0.12499834E+03</rscale>
<asrwt>0</asrwt>
<pdfrwt beam="2">  1        4 0.10166076E-01 0.12499834E+03</pdfrwt>
<pdfrwt beam="1">  1       -4 0.24014589E-01 0.12499834E+03</pdfrwt>
<totfact> 0.19210027E+03</totfact>
</mgrwt>
</event>
<event>
 5    1  0.1446384E-002  0.1249985E+03  0.7818608E-02  0.1235072E+00
          4   -1    0    0  501    0  0.00000000000E+00  0.00000000000E+00  0.40285309746E+02  0.40305323238E+02  0.12700000000E+01 0.  1.
         -4   -1    0    0    0  501 -0.00000000000E+00 -0.00000000000E+00 -0.96914118023E+02  0.96922438951E+02  0.12700000000E+01 0.  1.
         25    2    1    2    0    0  0.00000000000E+00  0.00000000000E+00 -0.56628808277E+02  0.13722776219E+03  0.12499854714E+03 0.  0.
    9000005    1    3    3    0    0 -0.27694768371E+02  0.55093533528E+02 -0.39448721111E+02  0.73208600786E+02  0.10000000000E+01 0.  0.
    9000005    1    3    3    0    0  0.27694768371E+02 -0.55093533528E+02 -0.17180087166E+02  0.64019161403E+02  0.10000000000E+01 0.  0.
<mgrwt>
<rscale>  0 0.12499855E+03</rscale>
<asrwt>0</asrwt>
<pdfrwt beam="1">  1        4 0.10074869E-01 0.12499855E+03</pdfrwt>
<pdfrwt beam="2">  1       -4 0.24232071E-01 0.12499855E+03</pdfrwt>
<totfact> 0.19183726E+03</totfact>
</mgrwt>
</event>
<event>
 5    1  0.1446384E-002  0.1250106E+03  0.7818608E-02  0.1235053E+00
         -4   -1    0    0    0  501 -0.00000000000E+00  0.00000000000E+00  0.34845699787E+03  0.34845931221E+03  0.12700000000E+01 0. -1.
          4   -1    0    0  501    0  0.00000000000E+00 -0.00000000000E+00 -0.11173708739E+02  0.11245651025E+02  0.12700000000E+01 0. -1.
         25    2    1    2    0    0  0.00000000000E+00  0.00000000000E+00  0.33728328913E+03  0.35970496323E+03  0.12501057334E+03 0.  0.
    9000005    1    3    3    0    0  0.36429320800E+02 -0.45816578507E+02  0.23165968397E+03  0.23894238522E+03  0.10000000000E+01 0.  0.
    9000005    1    3    3    0    0 -0.36429320800E+02  0.45816578507E+02  0.10562360516E+03  0.12076257801E+03  0.10000000000E+01 0.  0.
<mgrwt>
<rscale>  0 0.12501057E+03</rscale>
<asrwt>0</asrwt>
<pdfrwt beam="2">  1        4 0.28027095E-02 0.12501057E+03</pdfrwt>
<pdfrwt beam="1">  1       -4 0.87123525E-01 0.12501057E+03</pdfrwt>
<totfact> 0.11446465E+03</totfact>
</mgrwt>
</event>
<event>
 5    1  0.1446384E-002  0.1250007E+03  0.7818608E-02  0.1235068E+00
          4   -1    0    0  501    0  0.00000000000E+00  0.00000000000E+00  0.87513713258E+02  0.87522927901E+02  0.12700000000E+01 0. -1.
         -4   -1    0    0    0  501 -0.00000000000E+00 -0.00000000000E+00 -0.44615775264E+02  0.44633847049E+02  0.12700000000E+01 0. -1.
         25    2    1    2    0    0  0.00000000000E+00  0.00000000000E+00  0.42897937995E+02  0.13215677495E+03  0.12500072032E+03 0.  0.
    9000005    1    3    3    0    0  0.14630652077E+02  0.60755567659E+02  0.21442414120E+02  0.66076259769E+02  0.10000000000E+01 0.  0.
    9000005    1    3    3    0    0 -0.14630652077E+02 -0.60755567659E+02  0.21455523874E+02  0.66080515180E+02  0.10000000000E+01 0.  0.
<mgrwt>
<rscale>  0 0.12500072E+03</rscale>
<asrwt>0</asrwt>
<pdfrwt beam="1">  1        4 0.21881839E-01 0.12500072E+03</pdfrwt>
<pdfrwt beam="2">  1       -4 0.11157355E-01 0.12500072E+03</pdfrwt>
<totfact> 0.19448794E+03</totfact>
</mgrwt>
</event>
<event>
 5    1  0.1446384E-002  0.1250021E+03  0.7818608E-02  0.1235066E+00
         -4   -1    0    0    0  501 -0.00000000000E+00  0.00000000000E+00  0.60737096098E+02  0.60750372364E+02  0.12700000000E+01 0.  1.
          4   -1    0    0  501    0  0.00000000000E+00 -0.00000000000E+00 -0.64289684461E+02  0.64302227240E+02  0.12700000000E+01 0.  1.
         25    2    1    2    0    0  0.00000000000E+00  0.00000000000E+00 -0.35525883626E+01  0.12505259960E+03  0.12500212712E+03 0.  0.
    9000005    1    3    3    0    0  0.14167584741E+02  0.49863294961E+02 -0.36694747007E+02  0.63518289489E+02  0.10000000000E+01 0.  0.
    9000005    1    3    3    0    0 -0.14167584741E+02 -0.49863294961E+02  0.33142158644E+02  0.61534310115E+02  0.10000000000E+01 0.  0.
<mgrwt>
<rscale>  0 0.12500213E+03</rscale>
<asrwt>0</asrwt>
<pdfrwt beam="2">  1        4 0.16075648E-01 0.12500213E+03</pdfrwt>
<pdfrwt beam="1">  1       -4 0.15187501E-01 0.12500213E+03</pdfrwt>
<totfact> 0.19831216E+03</totfact>
</mgrwt>
</event>
<event>
 5    1  0.1446384E-002  0.1249980E+03  0.7818608E-02  0.1235072E+00
          4   -1    0    0  501    0  0.00000000000E+00  0.00000000000E+00  0.99341093708E+01  0.10014960259E+02  0.12700000000E+01 0.  1.
         -4   -1    0    0    0  501 -0.00000000000E+00 -0.00000000000E+00 -0.39152814235E+03  0.39153020209E+03  0.12700000000E+01 0.  1.
         25    2    1    2    0    0  0.00000000000E+00  0.00000000000E+00 -0.38159403297E+03  0.40154516235E+03  0.12499804560E+03 0.  0.
    9000005    1    3    3    0    0 -0.48696538712E+01 -0.61614400726E+02 -0.16116612101E+03  0.17261392316E+03  0.10000000000E+01 0.  0.
    9000005    1    3    3    0    0  0.48696538712E+01  0.61614400726E+02 -0.22042791196E+03  0.22893123919E+03  0.10000000000E+01 0.  0.
<mgrwt>
<rscale>  0 0.12499805E+03</rscale>
<asrwt>0</asrwt>
<pdfrwt beam="1">  1        4 0.24938925E-02 0.12499805E+03</pdfrwt>
<pdfrwt beam="2">  1       -4 0.97892348E-01 0.12499805E+03</pdfrwt>
<totfact> 0.10537914E+03</totfact>
</mgrwt>
</event>
<event>
 5    1  0.1446384E-002  0.1250043E+03  0.7818608E-02  0.1235063E+00
         -4   -1    0    0    0  501 -0.00000000000E+00  0.00000000000E+00  0.87018677649E+02  0.87027944706E+02  0.12700000000E+01 0.  1.
          4   -1    0    0  501    0  0.00000000000E+00 -0.00000000000E+00 -0.44872242100E+02  0.44890210638E+02  0.12700000000E+01 0.  1.
         25    2    1    2    0    0  0.00000000000E+00  0.00000000000E+00  0.42146435549E+02  0.13191815534E+03  0.12500431065E+03 0.  0.
    9000005    1    3    3    0    0  0.61563406427E+02  0.82292624623E+01  0.28365214723E+02  0.68288792476E+02  0.10000000000E+01 0.  0.
    9000005    1    3    3    0    0 -0.61563406427E+02 -0.82292624623E+01  0.13781220826E+02  0.63629362868E+02  0.10000000000E+01 0.  0.
<mgrwt>
<rscale>  0 0.12500431E+03</rscale>
<asrwt>0</asrwt>
<pdfrwt beam="2">  1        4 0.11221465E-01 0.12500431E+03</pdfrwt>
<pdfrwt beam="1">  1       -4 0.21758074E-01 0.12500431E+03</pdfrwt>
<totfact> 0.19459850E+03</totfact>
</mgrwt>
</event>
<event>
 5    1  0.1446384E-002  0.1249993E+03  0.7818608E-02  0.1235070E+00
         -4   -1    0    0    0  501 -0.00000000000E+00  0.00000000000E+00  0.15889263408E+03  0.15889770944E+03  0.12700000000E+01 0. -1.
          4   -1    0    0  501    0  0.00000000000E+00 -0.00000000000E+00 -0.24562060426E+02  0.24594871668E+02  0.12700000000E+01 0. -1.
         25    2    1    2    0    0  0.00000000000E+00  0.00000000000E+00  0.13433057366E+03  0.18349258111E+03  0.12499929721E+03 0.  0.
    9000005    1    3    3    0    0 -0.46238961518E+01  0.32981617581E+02  0.14478687366E+03  0.14857121625E+03  0.10000000000E+01 0.  0.
    9000005    1    3    3    0    0  0.46238961518E+01 -0.32981617581E+02 -0.10456300003E+02  0.34921364860E+02  0.10000000000E+01 0.  0.
<mgrwt>
<rscale>  0 0.12499930E+03</rscale>
<asrwt>0</asrwt>
<pdfrwt beam="2">  1        4 0.61452511E-02 0.12499930E+03</pdfrwt>
<pdfrwt beam="1">  1       -4 0.39727893E-01 0.12499930E+03</pdfrwt>
<totfact> 0.17005351E+03</totfact>
</mgrwt>
</event>
<event>
 5    1  0.1446384E-002  0.1250249E+03  0.7818608E-02  0.1235030E+00
         -4   -1    0    0    0  501 -0.00000000000E+00  0.00000000000E+00  0.39598784284E+03  0.39598987939E+03  0.12700000000E+01 0.  1.
          4   -1    0    0  501    0  0.00000000000E+00 -0.00000000000E+00 -0.98255692283E+01  0.99073059234E+01  0.12700000000E+01 0.  1.
         25    2    1    2    0    0  0.00000000000E+00  0.00000000000E+00  0.38616227361E+03  0.40589718531E+03  0.12502489145E+03 0.  0.
    9000005    1    3    3    0    0  0.58662028809E+02  0.17899571594E+02  0.23219847860E+03  0.24016403093E+03  0.10000000000E+01 0.  0.
    9000005    1    3    3    0    0 -0.58662028809E+02 -0.17899571594E+02  0.15396379501E+03  0.16573315438E+03  0.10000000000E+01 0.  0.
<mgrwt>
<rscale>  0 0.12502489E+03</rscale>
<asrwt>0</asrwt>
<pdfrwt beam="2">  1        4 0.24668641E-02 0.12502489E+03</pdfrwt>
<pdfrwt beam="1">  1       -4 0.99007428E-01 0.12502489E+03</pdfrwt>
<totfact> 0.10442808E+03</totfact>
</mgrwt>
</event>
<event>
 5    1  0.1446384E-002  0.1249981E+03  0.7818608E-02  0.1235072E+00
          4   -1    0    0  501    0  0.00000000000E+00  0.00000000000E+00  0.25179690170E+03  0.25180010446E+03  0.12700000000E+01 0. -1.
         -4   -1    0    0    0  501 -0.00000000000E+00 -0.00000000000E+00 -0.15483732161E+02  0.15535728552E+02  0.12700000000E+01 0. -1.
         25    2    1    2    0    0  0.00000000000E+00  0.00000000000E+00  0.23631316954E+03  0.26733583301E+03  0.12499813404E+03 0.  0.
    9000005    1    3    3    0    0 -0.32713411361E+02  0.50815242217E+02  0.15216000795E+03  0.16372545356E+03  0.10000000000E+01 0.  0.
    9000005    1    3    3    0    0  0.32713411361E+02 -0.50815242217E+02  0.84153161588E+02  0.10361037945E+03  0.10000000000E+01 0.  0.
<mgrwt>
<rscale>  0 0.12499813E+03</rscale>
<asrwt>0</asrwt>
<pdfrwt beam="1">  1        4 0.62956125E-01 0.12499813E+03</pdfrwt>
<pdfrwt beam="2">  1       -4 0.38778329E-02 0.12499813E+03</pdfrwt>
<totfact> 0.13939178E+03</totfact>
</mgrwt>
</event>
<event>
 5    1  0.1446384E-002  0.1250007E+03  0.7818608E-02  0.1235068E+00
         -4   -1    0    0    0  501 -0.00000000000E+00  0.00000000000E+00  0.45373298781E+01  0.47117154438E+01  0.12700000000E+01 0. -1.
          4   -1    0    0  501    0  0.00000000000E+00 -0.00000000000E+00 -0.84451597915E+03  0.84451693408E+03  0.12700000000E+01 0. -1.
         25    2    1    2    0    0  0.00000000000E+00  0.00000000000E+00 -0.83997864927E+03  0.84922864952E+03  0.12500067172E+03 0.  0.
    9000005    1    3    3    0    0 -0.48052865498E+02  0.74406909966E+01 -0.68667058704E+03  0.68839083148E+03  0.10000000000E+01 0.  0.
    9000005    1    3    3    0    0  0.48052865498E+02 -0.74406909966E+01 -0.15330806224E+03  0.16083781804E+03  0.10000000000E+01 0.  0.
<mgrwt>
<rscale>  0 0.12500067E+03</rscale>
<asrwt>0</asrwt>
<pdfrwt beam="2">  1        4 0.21115039E+00 0.12500067E+03</pdfrwt>
<pdfrwt beam="1">  1       -4 0.11562529E-02 0.12500067E+03</pdfrwt>
<totfact> 0.48293564E+02</totfact>
</mgrwt>
</event>
<event>
 5    1  0.1446384E-002  0.1249946E+03  0.7818608E-02  0.1235078E+00
          4   -1    0    0  501    0  0.00000000000E+00  0.00000000000E+00  0.12277977859E+03  0.12278634668E+03  0.12700000000E+01 0.  1.
         -4   -1    0    0    0  501 -0.00000000000E+00 -0.00000000000E+00 -0.31792252338E+02  0.31817608470E+02  0.12700000000E+01 0.  1.
         25    2    1    2    0    0  0.00000000000E+00  0.00000000000E+00  0.90987526255E+02  0.15460395515E+03  0.12499461194E+03 0.  0.
    9000005    1    3    3    0    0 -0.31410804008E+01  0.29129574125E+02  0.11376392807E+03  0.11748033795E+03  0.10000000000E+01 0.  0.
    9000005    1    3    3    0    0  0.31410804008E+01 -0.29129574125E+02 -0.22776401813E+02  0.37123617204E+02  0.10000000000E+01 0.  0.
<mgrwt>
<rscale>  0 0.12499461E+03</rscale>
<asrwt>0</asrwt>
<pdfrwt beam="1">  1        4 0.30698935E-01 0.12499461E+03</pdfrwt>
<pdfrwt beam="2">  1       -4 0.79520536E-02 0.12499461E+03</pdfrwt>
<totfact> 0.18316992E+03</totfact>
</mgrwt>
</event>
<event>
 5    1  0.1446384E-002  0.1250012E+03  0.7818608E-02  0.1235067E+00
          4   -1    0    0  501    0  0.00000000000E+00  0.00000000000E+00  0.96615371552E+02  0.96623718207E+02  0.12700000000E+01 0. -1.
         -4   -1    0    0    0  501 -0.00000000000E+00 -0.00000000000E+00 -0.40411669635E+02  0.40431620580E+02  0.12700000000E+01 0. -1.
         25    2    1    2    0    0  0.00000000000E+00  0.00000000000E+00  0.56203701917E+02  0.13705533879E+03  0.12500123912E+03 0.  0.
    9000005    1    3    3    0    0  0.25191400881E+02  0.55907629296E+01 -0.34302982362E+02  0.42936673223E+02  0.10000000000E+01 0.  0.
    9000005    1    3    3    0    0 -0.25191400881E+02 -0.55907629296E+01  0.90506684279E+02  0.94118665565E+02  0.10000000000E+01 0.  0.
<mgrwt>
<rscale>  0 0.12500124E+03</rscale>
<asrwt>0</asrwt>
<pdfrwt beam="1">  1        4 0.24157380E-01 0.12500124E+03</pdfrwt>
<pdfrwt beam="2">  1       -4 0.10106455E-01 0.12500124E+03</pdfrwt>
<totfact> 0.19191460E+03</totfact>
</mgrwt>
</event>
<event>
 5    1  0.1446384E-002  0.1249972E+03  0.7818608E-02  0.1235074E+00
          4   -1    0    0  501    0  0.00000000000E+00  0.00000000000E+00  0.27288581217E+02  0.27318117886E+02  0.12700000000E+01 0. -1.
         -4   -1    0    0    0  501 -0.00000000000E+00 -0.00000000000E+00 -0.14302975541E+03  0.14303539363E+03  0.12700000000E+01 0. -1.
         25    2    1    2    0    0  0.00000000000E+00  0.00000000000E+00 -0.11574117419E+03  0.17035351152E+03  0.12499719791E+03 0.  0.
    9000005    1    3    3    0    0  0.13718987055E+02 -0.15642933944E+02 -0.13817711657E+03  0.13973842539E+03  0.10000000000E+01 0.  0.
    9000005    1    3    3    0    0 -0.13718987055E+02  0.15642933944E+02  0.22435942378E+02  0.30615086127E+02  0.10000000000E+01 0.  0.
<mgrwt>
<rscale>  0 0.12499720E+03</rscale>
<asrwt>0</asrwt>
<pdfrwt beam="1">  1        4 0.68265426E-02 0.12499720E+03</pdfrwt>
<pdfrwt beam="2">  1       -4 0.35761834E-01 0.12499720E+03</pdfrwt>
<totfact> 0.17582258E+03</totfact>
</mgrwt>
</event>
<event>
 5    1  0.1446384E-002  0.1250006E+03  0.7818608E-02  0.1235068E+00
          4   -1    0    0  501    0  0.00000000000E+00  0.00000000000E+00  0.39827797768E+02  0.39848041044E+02  0.12700000000E+01 0.  1.
         -4   -1    0    0    0  501 -0.00000000000E+00 -0.00000000000E+00 -0.98030144790E+02  0.98038370996E+02  0.12700000000E+01 0.  1.
         25    2    1    2    0    0  0.00000000000E+00  0.00000000000E+00 -0.58202347022E+02  0.13788641204E+03  0.12500059770E+03 0.  0.
    9000005    1    3    3    0    0 -0.56368011076E+02 -0.19763983875E+02 -0.88416052608E+01  0.60391569899E+02  0.10000000000E+01 0.  0.
    9000005    1    3    3    0    0  0.56368011076E+02  0.19763983875E+02 -0.49360741761E+02  0.77494842141E+02  0.10000000000E+01 0.  0.
<mgrwt>
<rscale>  0 0.12500060E+03</rscale>
<asrwt>0</asrwt>
<pdfrwt beam="1">  1        4 0.99605083E-02 0.12500060E+03</pdfrwt>
<pdfrwt beam="2">  1       -4 0.24511094E-01 0.12500060E+03</pdfrwt>
<totfact> 0.19148730E+03</totfact>
</mgrwt>
</event>
<event>
 5    1  0.1446384E-002  0.1250086E+03  0.7818608E-02  0.1235056E+00
         -4   -1    0    0    0  501 -0.00000000000E+00  0.00000000000E+00  0.26261322244E+03  0.26261629329E+03  0.12700000000E+01 0.  1.
          4   -1    0    0  501    0  0.00000000000E+00 -0.00000000000E+00 -0.14846320244E+02  0.14900541091E+02  0.12700000000E+01 0.  1.
         25    2    1    2    0    0  0.00000000000E+00  0.00000000000E+00  0.24776690219E+03  0.27751683438E+03  0.12500862186E+03 0.  0.
    9000005    1    3    3    0    0  0.17378009638E+02  0.20918418064E+01 -0.93046721592E+01  0.19848121954E+02  0.10000000000E+01 0.  0.
    9000005    1    3    3    0    0 -0.17378009638E+02 -0.20918418064E+01  0.25707157435E+03  0.25766871242E+03  0.10000000000E+01 0.  0.
<mgrwt>
<rscale>  0 0.12500862E+03</rscale>
<asrwt>0</asrwt>
<pdfrwt beam="2">  1        4 0.37187415E-02 0.12500862E+03</pdfrwt>
<pdfrwt beam="1">  1       -4 0.65660468E-01 0.12500862E+03</pdfrwt>
<totfact> 0.13622743E+03</totfact>
</mgrwt>
</event>
<event>
 5    1  0.1446384E-002  0.1250153E+03  0.7818608E-02  0.1235045E+00
          4   -1    0    0  501    0  0.00000000000E+00  0.00000000000E+00  0.27456860652E+02  0.27486216489E+02  0.12700000000E+01 0. -1.
         -4   -1    0    0    0  501 -0.00000000000E+00 -0.00000000000E+00 -0.14219526909E+03  0.14220094040E+03  0.12700000000E+01 0. -1.
         25    2    1    2    0    0  0.00000000000E+00  0.00000000000E+00 -0.11473840843E+03  0.16968715689E+03  0.12501531443E+03 0.  0.
    9000005    1    3    3    0    0  0.17181943771E+02 -0.56210987200E+02 -0.28533892742E+02  0.65345828549E+02  0.10000000000E+01 0.  0.
    9000005    1    3    3    0    0 -0.17181943771E+02  0.56210987200E+02 -0.86204515692E+02  0.10434132834E+03  0.10000000000E+01 0.  0.
<mgrwt>
<rscale>  0 0.12501531E+03</rscale>
<asrwt>0</asrwt>
<pdfrwt beam="1">  1        4 0.68685939E-02 0.12501531E+03</pdfrwt>
<pdfrwt beam="2">  1       -4 0.35553194E-01 0.12501531E+03</pdfrwt>
<totfact> 0.17604908E+03</totfact>
</mgrwt>
</event>
<event>
 5    1  0.1446384E-002  0.1249988E+03  0.7818608E-02  0.1235071E+00
          4   -1    0    0  501    0  0.00000000000E+00  0.00000000000E+00  0.15688444104E+02  0.15739764243E+02  0.12700000000E+01 0.  1.
         -4   -1    0    0    0  501 -0.00000000000E+00 -0.00000000000E+00 -0.24852481529E+03  0.24852806021E+03  0.12700000000E+01 0.  1.
         25    2    1    2    0    0  0.00000000000E+00  0.00000000000E+00 -0.23283637118E+03  0.26426782445E+03  0.12499882918E+03 0.  0.
    9000005    1    3    3    0    0  0.42618164875E+02  0.10168629884E+02 -0.21062227800E+03  0.21513357014E+03  0.10000000000E+01 0.  0.
    9000005    1    3    3    0    0 -0.42618164875E+02 -0.10168629884E+02 -0.22214093178E+02  0.49134254311E+02  0.10000000000E+01 0.  0.
<mgrwt>
<rscale>  0 0.12499883E+03</rscale>
<asrwt>0</asrwt>
<pdfrwt beam="1">  1        4 0.39289325E-02 0.12499883E+03</pdfrwt>
<pdfrwt beam="2">  1       -4 0.62138012E-01 0.12499883E+03</pdfrwt>
<totfact> 0.14035503E+03</totfact>
</mgrwt>
</event>
<event>
 5    1  0.1446384E-002  0.1250001E+03  0.7818608E-02  0.1235069E+00
         -4   -1    0    0    0  501 -0.00000000000E+00  0.00000000000E+00  0.22750284430E+02  0.22785704766E+02  0.12700000000E+01 0. -1.
          4   -1    0    0  501    0  0.00000000000E+00 -0.00000000000E+00 -0.17153003182E+03  0.17153473327E+03  0.12700000000E+01 0. -1.
         25    2    1    2    0    0  0.00000000000E+00  0.00000000000E+00 -0.14877974739E+03  0.19432043803E+03  0.12500007761E+03 0.  0.
    9000005    1    3    3    0    0 -0.57083571574E+02  0.82691285648E+00 -0.11390258833E+03  0.12741278411E+03  0.10000000000E+01 0.  0.
    9000005    1    3    3    0    0  0.57083571574E+02 -0.82691285648E+00 -0.34877159069E+02  0.66907653921E+02  0.10000000000E+01 0.  0.
<mgrwt>
<rscale>  0 0.12500008E+03</rscale>
<asrwt>0</asrwt>
<pdfrwt beam="2">  1        4 0.42887519E-01 0.12500008E+03</pdfrwt>
<pdfrwt beam="1">  1       -4 0.56925868E-02 0.12500008E+03</pdfrwt>
<totfact> 0.16551985E+03</totfact>
</mgrwt>
</event>
<event>
 5    1  0.1446384E-002  0.1250026E+03  0.7818608E-02  0.1235065E+00
         -4   -1    0    0    0  501 -0.00000000000E+00  0.00000000000E+00  0.57373296062E+01  0.58762105995E+01  0.12700000000E+01 0. -1.
          4   -1    0    0  501    0  0.00000000000E+00 -0.00000000000E+00 -0.67259462434E+03  0.67259582335E+03  0.12700000000E+01 0. -1.
         25    2    1    2    0    0  0.00000000000E+00  0.00000000000E+00 -0.66685729473E+03  0.67847203395E+03  0.12500259723E+03 0.  0.
    9000005    1    3    3    0    0  0.49301130012E+02  0.53534598430E+01 -0.53983344705E+03  0.54210738005E+03  0.10000000000E+01 0.  0.
    9000005    1    3    3    0    0 -0.49301130012E+02 -0.53534598430E+01 -0.12702384768E+03  0.13636465389E+03  0.10000000000E+01 0.  0.
<mgrwt>
<rscale>  0 0.12500260E+03</rscale>
<asrwt>0</asrwt>
<pdfrwt beam="2">  1        4 0.16816590E+00 0.12500260E+03</pdfrwt>
<pdfrwt beam="1">  1       -4 0.14518447E-02 0.12500260E+03</pdfrwt>
<totfact> 0.64341371E+02</totfact>
</mgrwt>
</event>
<event>
 5    1  0.1446384E-002  0.1249996E+03  0.7818608E-02  0.1235070E+00
         -4   -1    0    0    0  501 -0.00000000000E+00  0.00000000000E+00  0.11146934784E+03  0.11147658233E+03  0.12700000000E+01 0. -1.
          4   -1    0    0  501    0  0.00000000000E+00 -0.00000000000E+00 -0.35023150391E+02  0.35046169025E+02  0.12700000000E+01 0. -1.
         25    2    1    2    0    0  0.00000000000E+00  0.00000000000E+00  0.76446197445E+02  0.14652275135E+03  0.12499958224E+03 0.  0.
    9000005    1    3    3    0    0 -0.26121616505E+02  0.56692882087E+02  0.41700791204E+02  0.75075813117E+02  0.10000000000E+01 0.  0.
    9000005    1    3    3    0    0  0.26121616505E+02 -0.56692882087E+02  0.34745406241E+02  0.71446938234E+02  0.10000000000E+01 0.  0.
<mgrwt>
<rscale>  0 0.12499958E+03</rscale>
<asrwt>0</asrwt>
<pdfrwt beam="2">  1        4 0.87595694E-02 0.12499958E+03</pdfrwt>
<pdfrwt beam="1">  1       -4 0.27871118E-01 0.12499958E+03</pdfrwt>
<totfact> 0.18711271E+03</totfact>
</mgrwt>
</event>
<event>
 5    1  0.1446384E-002  0.1250019E+03  0.7818608E-02  0.1235066E+00
          4   -1    0    0  501    0  0.00000000000E+00  0.00000000000E+00  0.57277650239E+01  0.58668724350E+01  0.12700000000E+01 0.  1.
         -4   -1    0    0    0  501 -0.00000000000E+00 -0.00000000000E+00 -0.67368417234E+03  0.67368536941E+03  0.12700000000E+01 0.  1.
         25    2    1    2    0    0  0.00000000000E+00  0.00000000000E+00 -0.66795640732E+03  0.67955224185E+03  0.12500194929E+03 0.  0.
    9000005    1    3    3    0    0 -0.36912235198E+02 -0.19157003537E+02 -0.58756248543E+03  0.58903325728E+03  0.10000000000E+01 0.  0.
    9000005    1    3    3    0    0  0.36912235198E+02  0.19157003537E+02 -0.80393921885E+02  0.90518984572E+02  0.10000000000E+01 0.  0.
<mgrwt>
<rscale>  0 0.12500195E+03</rscale>
<asrwt>0</asrwt>
<pdfrwt beam="1">  1        4 0.14494816E-02 0.12500195E+03</pdfrwt>
<pdfrwt beam="2">  1       -4 0.16843831E+00 0.12500195E+03</pdfrwt>
<totfact> 0.64225713E+02</totfact>
</mgrwt>
</event>
<event>
 5    1  0.1446384E-002  0.1250257E+03  0.7818608E-02  0.1235029E+00
          4   -1    0    0  501    0  0.00000000000E+00  0.00000000000E+00  0.16692952187E+03  0.16693435288E+03  0.12700000000E+01 0. -1.
         -4   -1    0    0    0  501 -0.00000000000E+00 -0.00000000000E+00 -0.23387802807E+02  0.23422259074E+02  0.12700000000E+01 0. -1.
         25    2    1    2    0    0  0.00000000000E+00  0.00000000000E+00  0.14354171906E+03  0.19035661195E+03  0.12502565578E+03 0.  0.
    9000005    1    3    3    0    0 -0.34282207338E+02 -0.19276118828E+02  0.14573585263E+03  0.15095289742E+03  0.10000000000E+01 0.  0.
    9000005    1    3    3    0    0  0.34282207338E+02  0.19276118828E+02 -0.21941335689E+01  0.39403714536E+02  0.10000000000E+01 0.  0.
<mgrwt>
<rscale>  0 0.12502566E+03</rscale>
<asrwt>0</asrwt>
<pdfrwt beam="1">  1        4 0.41737291E-01 0.12502566E+03</pdfrwt>
<pdfrwt beam="2">  1       -4 0.58518617E-02 0.12502566E+03</pdfrwt>
<totfact> 0.16705679E+03</totfact>
</mgrwt>
</event>
<event>
 5    1  0.1446384E-002  0.1249970E+03  0.7818608E-02  0.1235074E+00
          4   -1    0    0  501    0  0.00000000000E+00  0.00000000000E+00  0.32236188873E+02  0.32261196088E+02  0.12700000000E+01 0.  1.
         -4   -1    0    0    0  501 -0.00000000000E+00 -0.00000000000E+00 -0.12109486623E+03  0.12110152570E+03  0.12700000000E+01 0.  1.
         25    2    1    2    0    0  0.00000000000E+00  0.00000000000E+00 -0.88858677356E+02  0.15336272179E+03  0.12499703954E+03 0.  0.
    9000005    1    3    3    0    0  0.56318626317E+02 -0.26307507124E+02 -0.36554739076E+02  0.72118801642E+02  0.10000000000E+01 0.  0.
    9000005    1    3    3    0    0 -0.56318626317E+02  0.26307507124E+02 -0.52303938280E+02  0.81243920148E+02  0.10000000000E+01 0.  0.
<mgrwt>
<rscale>  0 0.12499704E+03</rscale>
<asrwt>0</asrwt>
<pdfrwt beam="1">  1        4 0.80630058E-02 0.12499704E+03</pdfrwt>
<pdfrwt beam="2">  1       -4 0.30277674E-01 0.12499704E+03</pdfrwt>
<totfact> 0.18375928E+03</totfact>
</mgrwt>
</event>
<event>
 5    1  0.1446384E-002  0.1250032E+03  0.7818608E-02  0.1235064E+00
         -4   -1    0    0    0  501 -0.00000000000E+00  0.00000000000E+00  0.10634933905E+02  0.10710495748E+02  0.12700000000E+01 0. -1.
          4   -1    0    0  501    0  0.00000000000E+00 -0.00000000000E+00 -0.36594543274E+03  0.36594763647E+03  0.12700000000E+01 0. -1.
         25    2    1    2    0    0  0.00000000000E+00  0.00000000000E+00 -0.35531049883E+03  0.37665813222E+03  0.12500319191E+03 0.  0.
    9000005    1    3    3    0    0  0.38617867203E+02 -0.46647126546E+02 -0.13115487221E+03  0.14446416368E+03  0.10000000000E+01 0.  0.
    9000005    1    3    3    0    0 -0.38617867203E+02  0.46647126546E+02 -0.22415562662E+03  0.23219396854E+03  0.10000000000E+01 0.  0.
<mgrwt>
<rscale>  0 0.12500319E+03</rscale>
<asrwt>0</asrwt>
<pdfrwt beam="2">  1        4 0.91496037E-01 0.12500319E+03</pdfrwt>
<pdfrwt beam="1">  1       -4 0.26684554E-02 0.12500319E+03</pdfrwt>
<totfact> 0.11065549E+03</totfact>
</mgrwt>
</event>
<event>
 5    1  0.1446384E-002  0.1250005E+03  0.7818608E-02  0.1235068E+00
          4   -1    0    0  501    0  0.00000000000E+00  0.00000000000E+00  0.17346190065E+03  0.17346654973E+03  0.12700000000E+01 0.  1.
         -4   -1    0    0    0  501 -0.00000000000E+00 -0.00000000000E+00 -0.22496684761E+02  0.22532503750E+02  0.12700000000E+01 0.  1.
         25    2    1    2    0    0  0.00000000000E+00  0.00000000000E+00  0.15096521589E+03  0.19599905348E+03  0.12500053023E+03 0.  0.
    9000005    1    3    3    0    0 -0.27378016148E+02 -0.34811995998E+01 -0.12431050744E+02  0.30285401458E+02  0.10000000000E+01 0.  0.
    9000005    1    3    3    0    0  0.27378016148E+02  0.34811995998E+01  0.16339626663E+03  0.16571365203E+03  0.10000000000E+01 0.  0.
<mgrwt>
<rscale>  0 0.12500053E+03</rscale>
<asrwt>0</asrwt>
<pdfrwt beam="1">  1        4 0.43370533E-01 0.12500053E+03</pdfrwt>
<pdfrwt beam="2">  1       -4 0.56292298E-02 0.12500053E+03</pdfrwt>
<totfact> 0.16483306E+03</totfact>
</mgrwt>
</event>
<event>
 5    1  0.1446384E-002  0.1249956E+03  0.7818608E-02  0.1235076E+00
          4   -1    0    0  501    0  0.00000000000E+00  0.00000000000E+00  0.58544527220E+03  0.58544664970E+03  0.12700000000E+01 0.  1.
         -4   -1    0    0    0  501 -0.00000000000E+00 -0.00000000000E+00 -0.66099622554E+01  0.67308618332E+01  0.12700000000E+01 0.  1.
         25    2    1    2    0    0  0.00000000000E+00  0.00000000000E+00  0.57883530994E+03  0.59217751153E+03  0.12499555641E+03 0.  0.
    9000005    1    3    3    0    0 -0.55138676505E+02 -0.22634752623E+02  0.37834896898E+03  0.38301638085E+03  0.10000000000E+01 0.  0.
    9000005    1    3    3    0    0  0.55138676505E+02  0.22634752623E+02  0.20048634097E+03  0.20916113068E+03  0.10000000000E+01 0.  0.
<mgrwt>
<rscale>  0 0.12499556E+03</rscale>
<asrwt>0</asrwt>
<pdfrwt beam="1">  1        4 0.14637661E+00 0.12499556E+03</pdfrwt>
<pdfrwt beam="2">  1       -4 0.16677752E-02 0.12499556E+03</pdfrwt>
<totfact> 0.74503504E+02</totfact>
</mgrwt>
</event>
<event>
 5    1  0.1446384E-002  0.1249660E+03  0.7818608E-02  0.1235122E+00
         -4   -1    0    0    0  501 -0.00000000000E+00  0.00000000000E+00  0.35118265147E+02  0.35141221478E+02  0.12700000000E+01 0.  1.
          4   -1    0    0  501    0  0.00000000000E+00 -0.00000000000E+00 -0.11110792534E+03  0.11111518336E+03  0.12700000000E+01 0.  1.
         25    2    1    2    0    0  0.00000000000E+00  0.00000000000E+00 -0.75989660190E+02  0.14625640484E+03  0.12496602538E+03 0.  0.
    9000005    1    3    3    0    0  0.39297705290E+02 -0.41905608635E+02 -0.92614356775E+01  0.58199345932E+02  0.10000000000E+01 0.  0.
    9000005    1    3    3    0    0 -0.39297705290E+02  0.41905608635E+02 -0.66728224512E+02  0.88057058903E+02  0.10000000000E+01 0.  0.
<mgrwt>
<rscale>  0 0.12496603E+03</rscale>
<asrwt>0</asrwt>
<pdfrwt beam="2">  1        4 0.27780757E-01 0.12496603E+03</pdfrwt>
<pdfrwt beam="1">  1       -4 0.87833433E-02 0.12496603E+03</pdfrwt>
<totfact> 0.18739217E+03</totfact>
</mgrwt>
</event>
<event>
 5    1  0.1446384E-002  0.1250343E+03  0.7818608E-02  0.1235016E+00
         -4   -1    0    0    0  501 -0.00000000000E+00  0.00000000000E+00  0.15441478482E+02  0.15493616676E+02  0.12700000000E+01 0. -1.
          4   -1    0    0  501    0  0.00000000000E+00 -0.00000000000E+00 -0.25262972706E+03  0.25263291926E+03  0.12700000000E+01 0. -1.
         25    2    1    2    0    0  0.00000000000E+00  0.00000000000E+00 -0.23718824858E+03  0.26812653594E+03  0.12503429134E+03 0.  0.
    9000005    1    3    3    0    0  0.52777556591E+01  0.58510311379E+02 -0.72797628278E+02  0.93551087248E+02  0.10000000000E+01 0.  0.
    9000005    1    3    3    0    0 -0.52777556591E+01 -0.58510311379E+02 -0.16439062030E+03  0.17457544869E+03  0.10000000000E+01 0.  0.
<mgrwt>
<rscale>  0 0.12503429E+03</rscale>
<asrwt>0</asrwt>
<pdfrwt beam="2">  1        4 0.63164335E-01 0.12503429E+03</pdfrwt>
<pdfrwt beam="1">  1       -4 0.38672867E-02 0.12503429E+03</pdfrwt>
<totfact> 0.13902915E+03</totfact>
</mgrwt>
</event>
<event>
 5    1  0.1446384E-002  0.1250019E+03  0.7818608E-02  0.1235066E+00
         -4   -1    0    0    0  501 -0.00000000000E+00  0.00000000000E+00  0.39685541613E+02  0.39705857416E+02  0.12700000000E+01 0.  1.
          4   -1    0    0  501    0  0.00000000000E+00 -0.00000000000E+00 -0.98383408597E+02  0.98391605268E+02  0.12700000000E+01 0.  1.
         25    2    1    2    0    0  0.00000000000E+00  0.00000000000E+00 -0.58697866984E+02  0.13809746268E+03  0.12500187843E+03 0.  0.
    9000005    1    3    3    0    0 -0.53129562996E+02  0.24338108440E+02 -0.48871379098E+01  0.58651326528E+02  0.10000000000E+01 0.  0.
    9000005    1    3    3    0    0  0.53129562996E+02 -0.24338108440E+02 -0.53810729074E+02  0.79446136156E+02  0.10000000000E+01 0.  0.
<mgrwt>
<rscale>  0 0.12500188E+03</rscale>
<asrwt>0</asrwt>
<pdfrwt beam="2">  1        4 0.24599416E-01 0.12500188E+03</pdfrwt>
<pdfrwt beam="1">  1       -4 0.99249497E-02 0.12500188E+03</pdfrwt>
<totfact> 0.19137261E+03</totfact>
</mgrwt>
</event>
<event>
 5    1  0.1446384E-002  0.1249995E+03  0.7818608E-02  0.1235070E+00
         -4   -1    0    0    0  501 -0.00000000000E+00  0.00000000000E+00  0.40275372076E+01  0.42230268716E+01  0.12700000000E+01 0.  1.
          4   -1    0    0  501    0  0.00000000000E+00 -0.00000000000E+00 -0.94670169022E+03  0.94670254207E+03  0.12700000000E+01 0.  1.
         25    2    1    2    0    0  0.00000000000E+00  0.00000000000E+00 -0.94267415301E+03  0.95092556894E+03  0.12499951565E+03 0.  0.
    9000005    1    3    3    0    0 -0.11572841578E+02  0.37001486607E+02 -0.84419285903E+03  0.84508320532E+03  0.10000000000E+01 0.  0.
    9000005    1    3    3    0    0  0.11572841578E+02 -0.37001486607E+02 -0.98481293981E+02  0.10584236362E+03  0.10000000000E+01 0.  0.
<mgrwt>
<rscale>  0 0.12499952E+03</rscale>
<asrwt>0</asrwt>
<pdfrwt beam="2">  1        4 0.23669922E+00 0.12499952E+03</pdfrwt>
<pdfrwt beam="1">  1       -4 0.10314302E-02 0.12499952E+03</pdfrwt>
<totfact> 0.40511500E+02</totfact>
</mgrwt>
</event>
<event>
 5    1  0.1446384E-002  0.1250017E+03  0.7818608E-02  0.1235067E+00
          4   -1    0    0  501    0  0.00000000000E+00  0.00000000000E+00  0.27414769540E+02  0.27444170400E+02  0.12700000000E+01 0. -1.
         -4   -1    0    0    0  501 -0.00000000000E+00 -0.00000000000E+00 -0.14238229906E+03  0.14238796292E+03  0.12700000000E+01 0. -1.
         25    2    1    2    0    0  0.00000000000E+00  0.00000000000E+00 -0.11496752952E+03  0.16983213332E+03  0.12500168265E+03 0.  0.
    9000005    1    3    3    0    0 -0.14979331409E+02 -0.58053294414E+02 -0.33532007175E+02  0.68701971347E+02  0.10000000000E+01 0.  0.
    9000005    1    3    3    0    0  0.14979331409E+02  0.58053294414E+02 -0.81435522342E+02  0.10113016197E+03  0.10000000000E+01 0.  0.
<mgrwt>
<rscale>  0 0.12500168E+03</rscale>
<asrwt>0</asrwt>
<pdfrwt beam="1">  1        4 0.68580759E-02 0.12500168E+03</pdfrwt>
<pdfrwt beam="2">  1       -4 0.35599956E-01 0.12500168E+03</pdfrwt>
<totfact> 0.17603934E+03</totfact>
</mgrwt>
</event>
<event>
 5    1  0.1446384E-002  0.1250006E+03  0.7818608E-02  0.1235068E+00
          4   -1    0    0  501    0  0.00000000000E+00  0.00000000000E+00  0.11453757983E+03  0.11454462053E+03  0.12700000000E+01 0. -1.
         -4   -1    0    0    0  501 -0.00000000000E+00 -0.00000000000E+00 -0.34084959427E+02  0.34108611217E+02  0.12700000000E+01 0. -1.
         25    2    1    2    0    0  0.00000000000E+00  0.00000000000E+00  0.80452620400E+02  0.14865323175E+03  0.12500063672E+03 0.  0.
    9000005    1    3    3    0    0 -0.25213830555E+02 -0.69312754632E+01  0.10772446017E+03  0.11085729182E+03  0.10000000000E+01 0.  0.
    9000005    1    3    3    0    0  0.25213830555E+02  0.69312754632E+01 -0.27271839768E+02  0.37795939929E+02  0.10000000000E+01 0.  0.
<mgrwt>
<rscale>  0 0.12500064E+03</rscale>
<asrwt>0</asrwt>
<pdfrwt beam="1">  1        4 0.28638231E-01 0.12500064E+03</pdfrwt>
<pdfrwt beam="2">  1       -4 0.85250765E-02 0.12500064E+03</pdfrwt>
<totfact> 0.18604925E+03</totfact>
</mgrwt>
</event>
<event>
 5    1  0.1446384E-002  0.1250013E+03  0.7818608E-02  0.1235067E+00
          4   -1    0    0  501    0  0.00000000000E+00  0.00000000000E+00  0.70600728722E+02  0.70612150485E+02  0.12700000000E+01 0.  1.
         -4   -1    0    0    0  501 -0.00000000000E+00 -0.00000000000E+00 -0.55306736990E+02  0.55321316474E+02  0.12700000000E+01 0.  1.
         25    2    1    2    0    0  0.00000000000E+00  0.00000000000E+00  0.15293991733E+02  0.12593346696E+03  0.12500132766E+03 0.  0.
    9000005    1    3    3    0    0 -0.17220891504E+02 -0.45616857757E+02 -0.31732541679E+02  0.58184284968E+02  0.10000000000E+01 0.  0.
    9000005    1    3    3    0    0  0.17220891504E+02  0.45616857757E+02  0.47026533412E+02  0.67749181992E+02  0.10000000000E+01 0.  0.
<mgrwt>
<rscale>  0 0.12500133E+03</rscale>
<asrwt>0</asrwt>
<pdfrwt beam="1">  1        4 0.17653432E-01 0.12500133E+03</pdfrwt>
<pdfrwt beam="2">  1       -4 0.13829934E-01 0.12500133E+03</pdfrwt>
<totfact> 0.19783901E+03</totfact>
</mgrwt>
</event>
<event>
 5    1  0.1446384E-002  0.1250294E+03  0.7818608E-02  0.1235023E+00
         -4   -1    0    0    0  501 -0.00000000000E+00  0.00000000000E+00  0.10832379473E+02  0.10906573479E+02  0.12700000000E+01 0.  1.
          4   -1    0    0  501    0  0.00000000000E+00 -0.00000000000E+00 -0.35947178434E+03  0.35947402776E+03  0.12700000000E+01 0.  1.
         25    2    1    2    0    0  0.00000000000E+00  0.00000000000E+00 -0.34863940487E+03  0.37038060124E+03  0.12502941714E+03 0.  0.
    9000005    1    3    3    0    0  0.32141955479E+02  0.47911388205E+02 -0.10307032266E+03  0.11812323157E+03  0.10000000000E+01 0.  0.
    9000005    1    3    3    0    0 -0.32141955479E+02 -0.47911388205E+02 -0.24556908220E+03  0.25225736968E+03  0.10000000000E+01 0.  0.
<mgrwt>
<rscale>  0 0.12502942E+03</rscale>
<asrwt>0</asrwt>
<pdfrwt beam="2">  1        4 0.89877461E-01 0.12502942E+03</pdfrwt>
<pdfrwt beam="1">  1       -4 0.27176507E-02 0.12502942E+03</pdfrwt>
<totfact> 0.11198377E+03</totfact>
</mgrwt>
</event>
<event>
 5    1  0.1446384E-002  0.1250029E+03  0.7818608E-02  0.1235065E+00
          4   -1    0    0  501    0  0.00000000000E+00  0.00000000000E+00  0.16802886544E+02  0.16850812924E+02  0.12700000000E+01 0.  1.
         -4   -1    0    0    0  501 -0.00000000000E+00 -0.00000000000E+00 -0.23210505394E+03  0.23210852842E+03  0.12700000000E+01 0.  1.
         25    2    1    2    0    0  0.00000000000E+00  0.00000000000E+00 -0.21530216739E+03  0.24895934134E+03  0.12500292139E+03 0.  0.
    9000005    1    3    3    0    0  0.43965797158E+02 -0.32968024133E+02 -0.16691835978E+03  0.17573451785E+03  0.10000000000E+01 0.  0.
    9000005    1    3    3    0    0 -0.43965797158E+02  0.32968024133E+02 -0.48383807617E+02  0.73224823486E+02  0.10000000000E+01 0.  0.
<mgrwt>
<rscale>  0 0.12500292E+03</rscale>
<asrwt>0</asrwt>
<pdfrwt beam="1">  1        4 0.42071475E-02 0.12500292E+03</pdfrwt>
<pdfrwt beam="2">  1       -4 0.58032678E-01 0.12500292E+03</pdfrwt>
<totfact> 0.14531695E+03</totfact>
</mgrwt>
</event>
<event>
 5    1  0.1446384E-002  0.1250004E+03  0.7818608E-02  0.1235069E+00
          4   -1    0    0  501    0  0.00000000000E+00  0.00000000000E+00  0.44466357072E+01  0.46244425732E+01  0.12700000000E+01 0.  1.
         -4   -1    0    0    0  501 -0.00000000000E+00 -0.00000000000E+00 -0.86108031625E+03  0.86108125281E+03  0.12700000000E+01 0.  1.
         25    2    1    2    0    0  0.00000000000E+00  0.00000000000E+00 -0.85663368054E+03  0.86570569538E+03  0.12500035348E+03 0.  0.
    9000005    1    3    3    0    0 -0.39419568891E+02  0.31843661748E+01 -0.93211748509E+02  0.10125943245E+03  0.10000000000E+01 0.  0.
    9000005    1    3    3    0    0  0.39419568891E+02 -0.31843661748E+01 -0.76342193204E+03  0.76444626293E+03  0.10000000000E+01 0.  0.
<mgrwt>
<rscale>  0 0.12500035E+03</rscale>
<asrwt>0</asrwt>
<pdfrwt beam="1">  1        4 0.11340048E-02 0.12500035E+03</pdfrwt>
<pdfrwt beam="2">  1       -4 0.21529186E+00 0.12500035E+03</pdfrwt>
<totfact> 0.46956864E+02</totfact>
</mgrwt>
</event>
<event>
 5    1  0.1446384E-002  0.1250008E+03  0.7818608E-02  0.1235068E+00
         -4   -1    0    0    0  501 -0.00000000000E+00  0.00000000000E+00  0.39669399940E+03  0.39669603232E+03  0.12700000000E+01 0. -1.
          4   -1    0    0  501    0  0.00000000000E+00 -0.00000000000E+00 -0.98041238361E+01  0.98860378410E+01  0.12700000000E+01 0. -1.
         25    2    1    2    0    0  0.00000000000E+00  0.00000000000E+00  0.38688987557E+03  0.40658207017E+03  0.12500081585E+03 0.  0.
    9000005    1    3    3    0    0 -0.38067500008E+02  0.11026583220E+02  0.35060414848E+03  0.35283847441E+03  0.10000000000E+01 0.  0.
    9000005    1    3    3    0    0  0.38067500008E+02 -0.11026583220E+02  0.36285727088E+02  0.53743595755E+02  0.10000000000E+01 0.  0.
<mgrwt>
<rscale>  0 0.12500082E+03</rscale>
<asrwt>0</asrwt>
<pdfrwt beam="2">  1        4 0.24615245E-02 0.12500082E+03</pdfrwt>
<pdfrwt beam="1">  1       -4 0.99183986E-01 0.12500082E+03</pdfrwt>
<totfact> 0.10434670E+03</totfact>
</mgrwt>
</event>
<event>
 5    1  0.1446384E-002  0.1250016E+03  0.7818608E-02  0.1235067E+00
         -4   -1    0    0    0  501 -0.00000000000E+00  0.00000000000E+00  0.40764385438E+02  0.40784163840E+02  0.12700000000E+01 0.  1.
          4   -1    0    0  501    0  0.00000000000E+00 -0.00000000000E+00 -0.95780361773E+02  0.95788781187E+02  0.12700000000E+01 0.  1.
         25    2    1    2    0    0  0.00000000000E+00  0.00000000000E+00 -0.55015976335E+02  0.13657294503E+03  0.12500164663E+03 0.  0.
    9000005    1    3    3    0    0  0.40044313235E+02  0.44878262356E+02 -0.46041370734E+02  0.75752315302E+02  0.10000000000E+01 0.  0.
    9000005    1    3    3    0    0 -0.40044313235E+02 -0.44878262356E+02 -0.89746056008E+01  0.60820629726E+02  0.10000000000E+01 0.  0.
<mgrwt>
<rscale>  0 0.12500165E+03</rscale>
<asrwt>0</asrwt>
<pdfrwt beam="2">  1        4 0.23948615E-01 0.12500165E+03</pdfrwt>
<pdfrwt beam="1">  1       -4 0.10194621E-01 0.12500165E+03</pdfrwt>
<totfact> 0.19216324E+03</totfact>
</mgrwt>
</event>
<event>
 5    1  0.1446384E-002  0.1250103E+03  0.7818608E-02  0.1235053E+00
          4   -1    0    0  501    0  0.00000000000E+00  0.00000000000E+00  0.44375271910E+02  0.44393441600E+02  0.12700000000E+01 0.  1.
         -4   -1    0    0    0  501 -0.00000000000E+00 -0.00000000000E+00 -0.88001351057E+02  0.88010514644E+02  0.12700000000E+01 0.  1.
         25    2    1    2    0    0  0.00000000000E+00  0.00000000000E+00 -0.43626079148E+02  0.13240395624E+03  0.12501029097E+03 0.  0.
    9000005    1    3    3    0    0 -0.27570015347E+02 -0.17496933190E+01 -0.81188700648E+02  0.85765799045E+02  0.10000000000E+01 0.  0.
    9000005    1    3    3    0    0  0.27570015347E+02  0.17496933190E+01  0.37562621500E+02  0.46638157199E+02  0.10000000000E+01 0.  0.
<mgrwt>
<rscale>  0 0.12501029E+03</rscale>
<asrwt>0</asrwt>
<pdfrwt beam="1">  1        4 0.11097235E-01 0.12501029E+03</pdfrwt>
<pdfrwt beam="2">  1       -4 0.22003754E-01 0.12501029E+03</pdfrwt>
<totfact> 0.19431328E+03</totfact>
</mgrwt>
</event>
<event>
 5    1  0.1446384E-002  0.1250056E+03  0.7818608E-02  0.1235061E+00
          4   -1    0    0  501    0  0.00000000000E+00  0.00000000000E+00  0.89104079652E+02  0.89113129844E+02  0.12700000000E+01 0.  1.
         -4   -1    0    0    0  501 -0.00000000000E+00 -0.00000000000E+00 -0.43822614456E+02  0.43841013193E+02  0.12700000000E+01 0.  1.
         25    2    1    2    0    0  0.00000000000E+00  0.00000000000E+00  0.45281465196E+02  0.13295414304E+03  0.12500557212E+03 0.  0.
    9000005    1    3    3    0    0  0.22989722155E+02 -0.49425713379E+02  0.55148370533E+02  0.77548508949E+02  0.10000000000E+01 0.  0.
    9000005    1    3    3    0    0 -0.22989722155E+02  0.49425713379E+02 -0.98669053374E+01  0.55405634088E+02  0.10000000000E+01 0.  0.
<mgrwt>
<rscale>  0 0.12500557E+03</rscale>
<asrwt>0</asrwt>
<pdfrwt beam="1">  1        4 0.22279451E-01 0.12500557E+03</pdfrwt>
<pdfrwt beam="2">  1       -4 0.10959085E-01 0.12500557E+03</pdfrwt>
<totfact> 0.19404317E+03</totfact>
</mgrwt>
</event>
<event>
 5    1  0.1446384E-002  0.1250001E+03  0.7818608E-02  0.1235069E+00
         -4   -1    0    0    0  501 -0.00000000000E+00  0.00000000000E+00  0.22093869772E+02  0.22130340746E+02  0.12700000000E+01 0.  1.
          4   -1    0    0  501    0  0.00000000000E+00 -0.00000000000E+00 -0.17661811089E+03  0.17662267690E+03  0.12700000000E+01 0.  1.
         25    2    1    2    0    0  0.00000000000E+00  0.00000000000E+00 -0.15452424112E+03  0.19875301765E+03  0.12500008372E+03 0.  0.
    9000005    1    3    3    0    0  0.34879975564E+02  0.33342432400E+02 -0.14040275052E+03  0.14846636941E+03  0.10000000000E+01 0.  0.
    9000005    1    3    3    0    0 -0.34879975564E+02 -0.33342432400E+02 -0.14121490604E+02  0.50286648234E+02  0.10000000000E+01 0.  0.
<mgrwt>
<rscale>  0 0.12500008E+03</rscale>
<asrwt>0</asrwt>
<pdfrwt beam="2">  1        4 0.44159653E-01 0.12500008E+03</pdfrwt>
<pdfrwt beam="1">  1       -4 0.55285976E-02 0.12500008E+03</pdfrwt>
<totfact> 0.16372063E+03</totfact>
</mgrwt>
</event>
<event>
 5    1  0.1446384E-002  0.1249968E+03  0.7818608E-02  0.1235074E+00
         -4   -1    0    0    0  501 -0.00000000000E+00  0.00000000000E+00  0.10289683777E+03  0.10290467493E+03  0.12700000000E+01 0.  1.
          4   -1    0    0  501    0  0.00000000000E+00 -0.00000000000E+00 -0.37940911046E+02  0.37962160516E+02  0.12700000000E+01 0.  1.
         25    2    1    2    0    0  0.00000000000E+00  0.00000000000E+00  0.64955926719E+02  0.14086683544E+03  0.12499677161E+03 0.  0.
    9000005    1    3    3    0    0  0.52867909898E+01  0.59378462871E+02  0.11355396279E+02  0.60693467825E+02  0.10000000000E+01 0.  0.
    9000005    1    3    3    0    0 -0.52867909898E+01 -0.59378462871E+02  0.53600530441E+02  0.80173367620E+02  0.10000000000E+01 0.  0.
<mgrwt>
<rscale>  0 0.12499677E+03</rscale>
<asrwt>0</asrwt>
<pdfrwt beam="2">  1        4 0.94888637E-02 0.12499677E+03</pdfrwt>
<pdfrwt beam="1">  1       -4 0.25727845E-01 0.12499677E+03</pdfrwt>
<totfact> 0.18997514E+03</totfact>
</mgrwt>
</event>
<event>
 5    1  0.1446384E-002  0.1250008E+03  0.7818608E-02  0.1235068E+00
         -4   -1    0    0    0  501 -0.00000000000E+00  0.00000000000E+00  0.17283822729E+02  0.17330419157E+02  0.12700000000E+01 0.  1.
          4   -1    0    0  501    0  0.00000000000E+00 -0.00000000000E+00 -0.22565633124E+03  0.22565990501E+03  0.12700000000E+01 0.  1.
         25    2    1    2    0    0  0.00000000000E+00  0.00000000000E+00 -0.20837250851E+03  0.24299032416E+03  0.12500078134E+03 0.  0.
    9000005    1    3    3    0    0  0.46921905438E+02 -0.17307137333E+02 -0.17702706146E+03  0.18395864399E+03  0.10000000000E+01 0.  0.
    9000005    1    3    3    0    0 -0.46921905438E+02  0.17307137333E+02 -0.31345447051E+02  0.59031680168E+02  0.10000000000E+01 0.  0.
<mgrwt>
<rscale>  0 0.12500078E+03</rscale>
<asrwt>0</asrwt>
<pdfrwt beam="2">  1        4 0.56420345E-01 0.12500078E+03</pdfrwt>
<pdfrwt beam="1">  1       -4 0.43272277E-02 0.12500078E+03</pdfrwt>
<totfact> 0.14733720E+03</totfact>
</mgrwt>
</event>
<event>
 5    1  0.1446384E-002  0.1249987E+03  0.7818608E-02  0.1235071E+00
         -4   -1    0    0    0  501 -0.00000000000E+00  0.00000000000E+00  0.18634891704E+03  0.18635324463E+03  0.12700000000E+01 0.  1.
          4   -1    0    0  501    0  0.00000000000E+00 -0.00000000000E+00 -0.20937790450E+02  0.20976271569E+02  0.12700000000E+01 0.  1.
         25    2    1    2    0    0  0.00000000000E+00  0.00000000000E+00  0.16541112659E+03  0.20732951619E+03  0.12499874994E+03 0.  0.
    9000005    1    3    3    0    0 -0.46440362735E+02 -0.20048810633E+02  0.21841601359E+02  0.55106421120E+02  0.10000000000E+01 0.  0.
    9000005    1    3    3    0    0  0.46440362735E+02  0.20048810633E+02  0.14356952523E+03  0.15222309507E+03  0.10000000000E+01 0.  0.
<mgrwt>
<rscale>  0 0.12499875E+03</rscale>
<asrwt>0</asrwt>
<pdfrwt beam="2">  1        4 0.52397987E-02 0.12499875E+03</pdfrwt>
<pdfrwt beam="1">  1       -4 0.46592581E-01 0.12499875E+03</pdfrwt>
<totfact> 0.16033167E+03</totfact>
</mgrwt>
</event>
<event>
 5    1  0.1446384E-002  0.1250004E+03  0.7818608E-02  0.1235069E+00
         -4   -1    0    0    0  501 -0.00000000000E+00  0.00000000000E+00  0.10283534132E+03  0.10284318317E+03  0.12700000000E+01 0. -1.
          4   -1    0    0  501    0  0.00000000000E+00 -0.00000000000E+00 -0.37965822006E+02  0.37987057541E+02  0.12700000000E+01 0. -1.
         25    2    1    2    0    0  0.00000000000E+00  0.00000000000E+00  0.64869519317E+02  0.14083024071E+03  0.12500040865E+03 0.  0.
    9000005    1    3    3    0    0  0.20104819024E+02 -0.53187077284E+02  0.61645050138E+02  0.83870025304E+02  0.10000000000E+01 0.  0.
    9000005    1    3    3    0    0 -0.20104819024E+02  0.53187077284E+02  0.32244691792E+01  0.56960215410E+02  0.10000000000E+01 0.  0.
<mgrwt>
<rscale>  0 0.12500041E+03</rscale>
<asrwt>0</asrwt>
<pdfrwt beam="2">  1        4 0.94950903E-02 0.12500041E+03</pdfrwt>
<pdfrwt beam="1">  1       -4 0.25712470E-01 0.12500041E+03</pdfrwt>
<totfact> 0.18997768E+03</totfact>
</mgrwt>
</event>
<event>
 5    1  0.1446384E-002  0.1249965E+03  0.7818608E-02  0.1235075E+00
          4   -1    0    0  501    0  0.00000000000E+00  0.00000000000E+00  0.76568448620E+02  0.76578980302E+02  0.12700000000E+01 0. -1.
         -4   -1    0    0    0  501 -0.00000000000E+00 -0.00000000000E+00 -0.50991602703E+02  0.51007415600E+02  0.12700000000E+01 0. -1.
         25    2    1    2    0    0  0.00000000000E+00  0.00000000000E+00  0.25576845917E+02  0.12758639590E+03  0.12499645344E+03 0.  0.
    9000005    1    3    3    0    0  0.30770879834E+02 -0.13489100071E+02  0.66570063582E+02  0.74574635311E+02  0.10000000000E+01 0.  0.
    9000005    1    3    3    0    0 -0.30770879834E+02  0.13489100071E+02 -0.40993217665E+02  0.53011760591E+02  0.10000000000E+01 0.  0.
<mgrwt>
<rscale>  0 0.12499645E+03</rscale>
<asrwt>0</asrwt>
<pdfrwt beam="1">  1        4 0.19145405E-01 0.12499645E+03</pdfrwt>
<pdfrwt beam="2">  1       -4 0.12751194E-01 0.12499645E+03</pdfrwt>
<totfact> 0.19696700E+03</totfact>
</mgrwt>
</event>
<event>
 5    1  0.1446384E-002  0.1250016E+03  0.7818608E-02  0.1235067E+00
          4   -1    0    0  501    0  0.00000000000E+00  0.00000000000E+00  0.79128708438E+02  0.79138899405E+02  0.12700000000E+01 0. -1.
         -4   -1    0    0    0  501 -0.00000000000E+00 -0.00000000000E+00 -0.49345511806E+02  0.49361852025E+02  0.12700000000E+01 0. -1.
         25    2    1    2    0    0  0.00000000000E+00  0.00000000000E+00  0.29783196632E+02  0.12850075143E+03  0.12500161726E+03 0.  0.
    9000005    1    3    3    0    0 -0.45347823498E+02  0.42973605251E+02  0.13368490916E+02  0.63897358269E+02  0.10000000000E+01 0.  0.
    9000005    1    3    3    0    0  0.45347823498E+02 -0.42973605251E+02  0.16414705716E+02  0.64603393162E+02  0.10000000000E+01 0.  0.
<mgrwt>
<rscale>  0 0.12500162E+03</rscale>
<asrwt>0</asrwt>
<pdfrwt beam="1">  1        4 0.19785493E-01 0.12500162E+03</pdfrwt>
<pdfrwt beam="2">  1       -4 0.12339694E-01 0.12500162E+03</pdfrwt>
<totfact> 0.19644590E+03</totfact>
</mgrwt>
</event>
<event>
 5    1  0.1446384E-002  0.1250043E+03  0.7818608E-02  0.1235063E+00
          4   -1    0    0  501    0  0.00000000000E+00  0.00000000000E+00  0.11336653837E+03  0.11337365180E+03  0.12700000000E+01 0. -1.
         -4   -1    0    0    0  501 -0.00000000000E+00 -0.00000000000E+00 -0.34439306508E+02  0.34462715110E+02  0.12700000000E+01 0. -1.
         25    2    1    2    0    0  0.00000000000E+00  0.00000000000E+00  0.78927231862E+02  0.14783636691E+03  0.12500433373E+03 0.  0.
    9000005    1    3    3    0    0 -0.26178375779E+02 -0.55319494745E+02  0.24505688601E+02  0.65932409566E+02  0.10000000000E+01 0.  0.
    9000005    1    3    3    0    0  0.26178375779E+02  0.55319494745E+02  0.54421543261E+02  0.81903957341E+02  0.10000000000E+01 0.  0.
<mgrwt>
<rscale>  0 0.12500433E+03</rscale>
<asrwt>0</asrwt>
<pdfrwt beam="1">  1        4 0.28345450E-01 0.12500433E+03</pdfrwt>
<pdfrwt beam="2">  1       -4 0.86136419E-02 0.12500433E+03</pdfrwt>
<totfact> 0.18643800E+03</totfact>
</mgrwt>
</event>
<event>
 5    1  0.1446384E-002  0.1249993E+03  0.7818608E-02  0.1235070E+00
          4   -1    0    0  501    0  0.00000000000E+00  0.00000000000E+00  0.94952937586E+02  0.94961430361E+02  0.12700000000E+01 0.  1.
         -4   -1    0    0    0  501 -0.00000000000E+00 -0.00000000000E+00 -0.41118230001E+02  0.41137838281E+02  0.12700000000E+01 0.  1.
         25    2    1    2    0    0  0.00000000000E+00  0.00000000000E+00  0.53834707585E+02  0.13609926864E+03  0.12499934074E+03 0.  0.
    9000005    1    3    3    0    0  0.44709765688E+02  0.42553062397E+02  0.16278128016E+02  0.63841238389E+02  0.10000000000E+01 0.  0.
    9000005    1    3    3    0    0 -0.44709765688E+02 -0.42553062397E+02  0.37556579569E+02  0.72258030254E+02  0.10000000000E+01 0.  0.
<mgrwt>
<rscale>  0 0.12499934E+03</rscale>
<asrwt>0</asrwt>
<pdfrwt beam="1">  1        4 0.23741747E-01 0.12499934E+03</pdfrwt>
<pdfrwt beam="2">  1       -4 0.10283070E-01 0.12499934E+03</pdfrwt>
<totfact> 0.19242009E+03</totfact>
</mgrwt>
</event>
<event>
 5    1  0.1446384E-002  0.1249993E+03  0.7818608E-02  0.1235070E+00
         -4   -1    0    0    0  501 -0.00000000000E+00  0.00000000000E+00  0.71566891491E+01  0.72685005040E+01  0.12700000000E+01 0. -1.
          4   -1    0    0  501    0  0.00000000000E+00 -0.00000000000E+00 -0.54146905707E+03  0.54147054644E+03  0.12700000000E+01 0. -1.
         25    2    1    2    0    0  0.00000000000E+00  0.00000000000E+00 -0.53431236792E+03  0.54873904695E+03  0.12499934052E+03 0.  0.
    9000005    1    3    3    0    0  0.12166285849E+02 -0.46522350914E+02 -0.44236142809E+03  0.44496851654E+03  0.10000000000E+01 0.  0.
    9000005    1    3    3    0    0 -0.12166285849E+02  0.46522350914E+02 -0.91950939830E+02  0.10377053041E+03  0.10000000000E+01 0.  0.
<mgrwt>
<rscale>  0 0.12499934E+03</rscale>
<asrwt>0</asrwt>
<pdfrwt beam="2">  1        4 0.13538129E+00 0.12499934E+03</pdfrwt>
<pdfrwt beam="1">  1       -4 0.18033367E-02 0.12499934E+03</pdfrwt>
<totfact> 0.80343978E+02</totfact>
</mgrwt>
</event>
<event>
 5    1  0.1446384E-002  0.1249983E+03  0.7818608E-02  0.1235072E+00
         -4   -1    0    0    0  501 -0.00000000000E+00  0.00000000000E+00  0.27951870781E+02  0.27980707284E+02  0.12700000000E+01 0. -1.
          4   -1    0    0  501    0  0.00000000000E+00 -0.00000000000E+00 -0.13964163172E+03  0.13964740674E+03  0.12700000000E+01 0. -1.
         25    2    1    2    0    0  0.00000000000E+00  0.00000000000E+00 -0.11168976094E+03  0.16762811403E+03  0.12499832764E+03 0.  0.
    9000005    1    3    3    0    0  0.12749664930E+02 -0.22150365460E+02 -0.13231905100E+03  0.13476840840E+03  0.10000000000E+01 0.  0.
    9000005    1    3    3    0    0 -0.12749664930E+02  0.22150365460E+02  0.20629290054E+02  0.32859705629E+02  0.10000000000E+01 0.  0.
<mgrwt>
<rscale>  0 0.12499833E+03</rscale>
<asrwt>0</asrwt>
<pdfrwt beam="2">  1        4 0.34914733E-01 0.12499833E+03</pdfrwt>
<pdfrwt beam="1">  1       -4 0.69922945E-02 0.12499833E+03</pdfrwt>
<totfact> 0.17705251E+03</totfact>
</mgrwt>
</event>
<event>
 5    1  0.1446384E-002  0.1249998E+03  0.7818608E-02  0.1235070E+00
         -4   -1    0    0    0  501 -0.00000000000E+00  0.00000000000E+00  0.11122304863E+02  0.11194577503E+02  0.12700000000E+01 0. -1.
          4   -1    0    0  501    0  0.00000000000E+00 -0.00000000000E+00 -0.34999653718E+03  0.34999884134E+03  0.12700000000E+01 0. -1.
         25    2    1    2    0    0  0.00000000000E+00  0.00000000000E+00 -0.33887423232E+03  0.36119341884E+03  0.12499976194E+03 0.  0.
    9000005    1    3    3    0    0 -0.19734320146E+02 -0.11394883885E+02 -0.33757702486E+03  0.33834676663E+03  0.10000000000E+01 0.  0.
    9000005    1    3    3    0    0  0.19734320146E+02  0.11394883885E+02 -0.12972074555E+01  0.22846652218E+02  0.10000000000E+01 0.  0.
<mgrwt>
<rscale>  0 0.12499976E+03</rscale>
<asrwt>0</asrwt>
<pdfrwt beam="2">  1        4 0.87508420E-01 0.12499976E+03</pdfrwt>
<pdfrwt beam="1">  1       -4 0.27898995E-02 0.12499976E+03</pdfrwt>
<totfact> 0.11414896E+03</totfact>
</mgrwt>
</event>
<event>
 5    1  0.1446384E-002  0.1249960E+03  0.7818608E-02  0.1235075E+00
         -4   -1    0    0    0  501 -0.00000000000E+00  0.00000000000E+00  0.65639066152E+02  0.65651351131E+02  0.12700000000E+01 0. -1.
          4   -1    0    0  501    0  0.00000000000E+00 -0.00000000000E+00 -0.59482637355E+02  0.59496193548E+02  0.12700000000E+01 0. -1.
         25    2    1    2    0    0  0.00000000000E+00  0.00000000000E+00  0.61564287972E+01  0.12514754468E+03  0.12499602523E+03 0.  0.
    9000005    1    3    3    0    0 -0.35207254624E+02  0.51364599066E+02  0.82930563024E+01  0.62830307959E+02  0.10000000000E+01 0.  0.
    9000005    1    3    3    0    0  0.35207254624E+02 -0.51364599066E+02 -0.21366275053E+01  0.62317236720E+02  0.10000000000E+01 0.  0.
<mgrwt>
<rscale>  0 0.12499603E+03</rscale>
<asrwt>0</asrwt>
<pdfrwt beam="2">  1        4 0.14873889E-01 0.12499603E+03</pdfrwt>
<pdfrwt beam="1">  1       -4 0.16412997E-01 0.12499603E+03</pdfrwt>
<totfact> 0.19828900E+03</totfact>
</mgrwt>
</event>
<event>
 5    1  0.1446384E-002  0.1249991E+03  0.7818608E-02  0.1235071E+00
          4   -1    0    0  501    0  0.00000000000E+00  0.00000000000E+00  0.38707446832E+02  0.38728275720E+02  0.12700000000E+01 0. -1.
         -4   -1    0    0    0  501 -0.00000000000E+00 -0.00000000000E+00 -0.10086387498E+03  0.10087187009E+03  0.12700000000E+01 0. -1.
         25    2    1    2    0    0  0.00000000000E+00  0.00000000000E+00 -0.62156428147E+02  0.13960014581E+03  0.12499911660E+03 0.  0.
    9000005    1    3    3    0    0 -0.91785011380E+01  0.27696501321E+02 -0.92794963398E+02  0.97279218236E+02  0.10000000000E+01 0.  0.
    9000005    1    3    3    0    0  0.91785011380E+01 -0.27696501321E+02  0.30638535251E+02  0.42320927576E+02  0.10000000000E+01 0.  0.
<mgrwt>
<rscale>  0 0.12499912E+03</rscale>
<asrwt>0</asrwt>
<pdfrwt beam="1">  1        4 0.96804649E-02 0.12499912E+03</pdfrwt>
<pdfrwt beam="2">  1       -4 0.25219571E-01 0.12499912E+03</pdfrwt>
<totfact> 0.19061209E+03</totfact>
</mgrwt>
</event>
<event>
 5    1  0.1446384E-002  0.1250170E+03  0.7818608E-02  0.1235043E+00
         -4   -1    0    0    0  501 -0.00000000000E+00  0.00000000000E+00  0.32191305610E+03  0.32191556126E+03  0.12700000000E+01 0. -1.
          4   -1    0    0  501    0  0.00000000000E+00 -0.00000000000E+00 -0.12102009207E+02  0.12168464441E+02  0.12700000000E+01 0. -1.
         25    2    1    2    0    0  0.00000000000E+00  0.00000000000E+00  0.30981104689E+03  0.33408402571E+03  0.12501700467E+03 0.  0.
    9000005    1    3    3    0    0  0.39561402174E+02 -0.46424871507E+02  0.19134503944E+03  0.20083400447E+03  0.10000000000E+01 0.  0.
    9000005    1    3    3    0    0 -0.39561402174E+02  0.46424871507E+02  0.11846600745E+03  0.13325002123E+03  0.10000000000E+01 0.  0.
<mgrwt>
<rscale>  0 0.12501700E+03</rscale>
<asrwt>0</asrwt>
<pdfrwt beam="2">  1        4 0.30341224E-02 0.12501700E+03</pdfrwt>
<pdfrwt beam="1">  1       -4 0.80486883E-01 0.12501700E+03</pdfrwt>
<totfact> 0.12062145E+03</totfact>
</mgrwt>
</event>
<event>
 5    1  0.1446384E-002  0.1249980E+03  0.7818608E-02  0.1235072E+00
          4   -1    0    0  501    0  0.00000000000E+00  0.00000000000E+00  0.11824497946E+04  0.11824504766E+04  0.12700000000E+01 0.  1.
         -4   -1    0    0    0  501 -0.00000000000E+00 -0.00000000000E+00 -0.31806456779E+01  0.34248221747E+01  0.12700000000E+01 0.  1.
         25    2    1    2    0    0  0.00000000000E+00  0.00000000000E+00  0.11792691489E+04  0.11858752988E+04  0.12499799471E+03 0.  0.
    9000005    1    3    3    0    0 -0.59235968535E+02  0.19820283341E+02  0.57218989058E+03  0.57559014453E+03  0.10000000000E+01 0.  0.
    9000005    1    3    3    0    0  0.59235968535E+02 -0.19820283341E+02  0.60707925836E+03  0.61028515428E+03  0.10000000000E+01 0.  0.
<mgrwt>
<rscale>  0 0.12499799E+03</rscale>
<asrwt>0</asrwt>
<pdfrwt beam="1">  1        4 0.29564300E+00 0.12499799E+03</pdfrwt>
<pdfrwt beam="2">  1       -4 0.82576889E-03 0.12499799E+03</pdfrwt>
<totfact> 0.25949427E+02</totfact>
</mgrwt>
</event>
<event>
 5    1  0.1446384E-002  0.1249989E+03  0.7818608E-02  0.1235071E+00
          4   -1    0    0  501    0  0.00000000000E+00  0.00000000000E+00  0.20507017538E+02  0.20546305466E+02  0.12700000000E+01 0. -1.
         -4   -1    0    0    0  501 -0.00000000000E+00 -0.00000000000E+00 -0.19025639690E+03  0.19026063560E+03  0.12700000000E+01 0. -1.
         25    2    1    2    0    0  0.00000000000E+00  0.00000000000E+00 -0.16974937936E+03  0.21080694107E+03  0.12499885844E+03 0.  0.
    9000005    1    3    3    0    0 -0.52805882683E+01 -0.45493105216E+02 -0.15657790079E+03  0.16314149150E+03  0.10000000000E+01 0.  0.
    9000005    1    3    3    0    0  0.52805882683E+01  0.45493105216E+02 -0.13171478571E+02  0.47665449567E+02  0.10000000000E+01 0.  0.
<mgrwt>
<rscale>  0 0.12499886E+03</rscale>
<asrwt>0</asrwt>
<pdfrwt beam="1">  1        4 0.51321958E-02 0.12499886E+03</pdfrwt>
<pdfrwt beam="2">  1       -4 0.47569535E-01 0.12499886E+03</pdfrwt>
<totfact> 0.15898690E+03</totfact>
</mgrwt>
</event>
<event>
 5    1  0.1446384E-002  0.1250001E+03  0.7818608E-02  0.1235069E+00
          4   -1    0    0  501    0  0.00000000000E+00  0.00000000000E+00  0.45178984973E+03  0.45179163474E+03  0.12700000000E+01 0. -1.
         -4   -1    0    0    0  501 -0.00000000000E+00 -0.00000000000E+00 -0.85977345700E+01  0.86910263914E+01  0.12700000000E+01 0. -1.
         25    2    1    2    0    0  0.00000000000E+00  0.00000000000E+00  0.44319211516E+03  0.46048266113E+03  0.12500012104E+03 0.  0.
    9000005    1    3    3    0    0 -0.60404780789E+02 -0.26857798531E+00  0.16260279535E+03  0.17346319129E+03  0.10000000000E+01 0.  0.
    9000005    1    3    3    0    0  0.60404780789E+02  0.26857798531E+00  0.28058931981E+03  0.28701946984E+03  0.10000000000E+01 0.  0.
<mgrwt>
<rscale>  0 0.12500012E+03</rscale>
<asrwt>0</asrwt>
<pdfrwt beam="1">  1        4 0.11295934E+00 0.12500012E+03</pdfrwt>
<pdfrwt beam="2">  1       -4 0.21613183E-02 0.12500012E+03</pdfrwt>
<totfact> 0.94164723E+02</totfact>
</mgrwt>
</event>
<event>
 5    1  0.1446384E-002  0.1249994E+03  0.7818608E-02  0.1235070E+00
          4   -1    0    0  501    0  0.00000000000E+00  0.00000000000E+00  0.54101098655E+02  0.54116002954E+02  0.12700000000E+01 0.  1.
         -4   -1    0    0    0  501 -0.00000000000E+00 -0.00000000000E+00 -0.72171676290E+02  0.72182849476E+02  0.12700000000E+01 0.  1.
         25    2    1    2    0    0  0.00000000000E+00  0.00000000000E+00 -0.18070577635E+02  0.12629885243E+03  0.12499941739E+03 0.  0.
    9000005    1    3    3    0    0 -0.84612720478E+01 -0.58905227649E+02 -0.28306967706E+02  0.65906778026E+02  0.10000000000E+01 0.  0.
    9000005    1    3    3    0    0  0.84612720478E+01  0.58905227649E+02  0.10236390071E+02  0.60392074404E+02  0.10000000000E+01 0.  0.
<mgrwt>
<rscale>  0 0.12499942E+03</rscale>
<asrwt>0</asrwt>
<pdfrwt beam="1">  1        4 0.13528534E-01 0.12499942E+03</pdfrwt>
<pdfrwt beam="2">  1       -4 0.18046179E-01 0.12499942E+03</pdfrwt>
<totfact> 0.19765048E+03</totfact>
</mgrwt>
</event>
<event>
 5    1  0.1446384E-002  0.1249992E+03  0.7818608E-02  0.1235071E+00
         -4   -1    0    0    0  501 -0.00000000000E+00  0.00000000000E+00  0.14455719979E+02  0.14511400350E+02  0.12700000000E+01 0. -1.
          4   -1    0    0  501    0  0.00000000000E+00 -0.00000000000E+00 -0.26964172285E+03  0.26964471365E+03  0.12700000000E+01 0. -1.
         25    2    1    2    0    0  0.00000000000E+00  0.00000000000E+00 -0.25518600287E+03  0.28415611400E+03  0.12499920426E+03 0.  0.
    9000005    1    3    3    0    0 -0.35754730808E+02 -0.41174762922E+02 -0.19697180774E+03  0.20438359749E+03  0.10000000000E+01 0.  0.
    9000005    1    3    3    0    0  0.35754730808E+02  0.41174762922E+02 -0.58214195130E+02  0.79772516517E+02  0.10000000000E+01 0.  0.
<mgrwt>
<rscale>  0 0.12499920E+03</rscale>
<asrwt>0</asrwt>
<pdfrwt beam="2">  1        4 0.67417748E-01 0.12499920E+03</pdfrwt>
<pdfrwt beam="1">  1       -4 0.36212648E-02 0.12499920E+03</pdfrwt>
<totfact> 0.13427271E+03</totfact>
</mgrwt>
</event>
<event>
 5    1  0.1446384E-002  0.1250000E+03  0.7818608E-02  0.1235069E+00
         -4   -1    0    0    0  501 -0.00000000000E+00  0.00000000000E+00  0.10733179031E+03  0.10733930367E+03  0.12700000000E+01 0. -1.
          4   -1    0    0  501    0  0.00000000000E+00 -0.00000000000E+00 -0.36374265342E+02  0.36396429483E+02  0.12700000000E+01 0. -1.
         25    2    1    2    0    0  0.00000000000E+00  0.00000000000E+00  0.70957524973E+02  0.14373573315E+03  0.12499996254E+03 0.  0.
    9000005    1    3    3    0    0 -0.32523315287E+02 -0.16840356735E+02 -0.22745507528E+02  0.43124491474E+02  0.10000000000E+01 0.  0.
    9000005    1    3    3    0    0  0.32523315287E+02  0.16840356735E+02  0.93703032501E+02  0.10061124168E+03  0.10000000000E+01 0.  0.
<mgrwt>
<rscale>  0 0.12499996E+03</rscale>
<asrwt>0</asrwt>
<pdfrwt beam="2">  1        4 0.90972762E-02 0.12499996E+03</pdfrwt>
<pdfrwt beam="1">  1       -4 0.26836657E-01 0.12499996E+03</pdfrwt>
<totfact> 0.18850847E+03</totfact>
</mgrwt>
</event>
<event>
 5    1  0.1446384E-002  0.1250026E+03  0.7818608E-02  0.1235065E+00
         -4   -1    0    0    0  501 -0.00000000000E+00  0.00000000000E+00  0.30581570623E+01  0.33113780542E+01  0.12700000000E+01 0. -1.
          4   -1    0    0  501    0  0.00000000000E+00 -0.00000000000E+00 -0.12263387922E+04  0.12263394498E+04  0.12700000000E+01 0. -1.
         25    2    1    2    0    0  0.00000000000E+00  0.00000000000E+00 -0.12232806351E+04  0.12296508279E+04  0.12500258461E+03 0.  0.
    9000005    1    3    3    0    0 -0.56996298624E+02  0.25357943426E+02 -0.57508663305E+03  0.57846109538E+03  0.10000000000E+01 0.  0.
    9000005    1    3    3    0    0  0.56996298624E+02 -0.25357943426E+02 -0.64819400207E+03  0.65118973247E+03  0.10000000000E+01 0.  0.
<mgrwt>
<rscale>  0 0.12500258E+03</rscale>
<asrwt>0</asrwt>
<pdfrwt beam="2">  1        4 0.30661481E+00 0.12500258E+03</pdfrwt>
<pdfrwt beam="1">  1       -4 0.79627829E-03 0.12500258E+03</pdfrwt>
<totfact> 0.23682437E+02</totfact>
</mgrwt>
</event>
<event>
 5    1  0.1446384E-002  0.1249991E+03  0.7818608E-02  0.1235071E+00
         -4   -1    0    0    0  501 -0.00000000000E+00  0.00000000000E+00  0.26642397756E+02  0.26672650003E+02  0.12700000000E+01 0.  1.
          4   -1    0    0  501    0  0.00000000000E+00 -0.00000000000E+00 -0.14649943621E+03  0.14650494090E+03  0.12700000000E+01 0.  1.
         25    2    1    2    0    0  0.00000000000E+00  0.00000000000E+00 -0.11985703845E+03  0.17317759091E+03  0.12499907330E+03 0.  0.
    9000005    1    3    3    0    0 -0.12873796814E+02 -0.61143658793E+02 -0.58606592679E+02  0.85673883771E+02  0.10000000000E+01 0.  0.
    9000005    1    3    3    0    0  0.12873796814E+02  0.61143658793E+02 -0.61250445772E+02  0.87503707135E+02  0.10000000000E+01 0.  0.
<mgrwt>
<rscale>  0 0.12499907E+03</rscale>
<asrwt>0</asrwt>
<pdfrwt beam="2">  1        4 0.36629326E-01 0.12499907E+03</pdfrwt>
<pdfrwt beam="1">  1       -4 0.66650695E-02 0.12499907E+03</pdfrwt>
<totfact> 0.17455045E+03</totfact>
</mgrwt>
</event>
<event>
 5    1  0.1446384E-002  0.1249964E+03  0.7818608E-02  0.1235075E+00
          4   -1    0    0  501    0  0.00000000000E+00  0.00000000000E+00  0.17495525850E+02  0.17541559930E+02  0.12700000000E+01 0.  1.
         -4   -1    0    0    0  501 -0.00000000000E+00 -0.00000000000E+00 -0.22291722303E+03  0.22292084071E+03  0.12700000000E+01 0.  1.
         25    2    1    2    0    0  0.00000000000E+00  0.00000000000E+00 -0.20542169718E+03  0.24046240064E+03  0.12499636975E+03 0.  0.
    9000005    1    3    3    0    0 -0.49101399387E+02 -0.65810609583E+01 -0.29437108055E+02  0.57635068454E+02  0.10000000000E+01 0.  0.
    9000005    1    3    3    0    0  0.49101399387E+02  0.65810609583E+01 -0.17598458912E+03  0.18282733219E+03  0.10000000000E+01 0.  0.
<mgrwt>
<rscale>  0 0.12499637E+03</rscale>
<asrwt>0</asrwt>
<pdfrwt beam="1">  1        4 0.43800886E-02 0.12499637E+03</pdfrwt>
<pdfrwt beam="2">  1       -4 0.55735503E-01 0.12499637E+03</pdfrwt>
<totfact> 0.14821774E+03</totfact>
</mgrwt>
</event>
<event>
 5    1  0.1446384E-002  0.1250018E+03  0.7818608E-02  0.1235066E+00
         -4   -1    0    0    0  501 -0.00000000000E+00  0.00000000000E+00  0.38763336407E+03  0.38763544451E+03  0.12700000000E+01 0.  1.
          4   -1    0    0  501    0  0.00000000000E+00 -0.00000000000E+00 -0.10035339575E+02  0.10115381376E+02  0.12700000000E+01 0.  1.
         25    2    1    2    0    0  0.00000000000E+00  0.00000000000E+00  0.37759802449E+03  0.39775082588E+03  0.12500180555E+03 0.  0.
    9000005    1    3    3    0    0 -0.33925926225E+01  0.56690043705E+01 -0.89366235249E+01  0.11158428889E+02  0.10000000000E+01 0.  0.
    9000005    1    3    3    0    0  0.33925926225E+01 -0.56690043705E+01  0.38653464802E+03  0.38659239699E+03  0.10000000000E+01 0.  0.
<mgrwt>
<rscale>  0 0.12500181E+03</rscale>
<asrwt>0</asrwt>
<pdfrwt beam="2">  1        4 0.25191003E-02 0.12500181E+03</pdfrwt>
<pdfrwt beam="1">  1       -4 0.96918603E-01 0.12500181E+03</pdfrwt>
<totfact> 0.10615240E+03</totfact>
</mgrwt>
</event>
<event>
 5    1  0.1446384E-002  0.1249890E+03  0.7818608E-02  0.1235086E+00
          4   -1    0    0  501    0  0.00000000000E+00  0.00000000000E+00  0.15341658239E+03  0.15342183890E+03  0.12700000000E+01 0. -1.
         -4   -1    0    0    0  501 -0.00000000000E+00 -0.00000000000E+00 -0.25435720849E+02  0.25467406525E+02  0.12700000000E+01 0. -1.
         25    2    1    2    0    0  0.00000000000E+00  0.00000000000E+00  0.12798086154E+03  0.17888924543E+03  0.12498904435E+03 0.  0.
    9000005    1    3    3    0    0 -0.58948090483E+02  0.11511576436E+02  0.88663086052E+02  0.10709592239E+03  0.10000000000E+01 0.  0.
    9000005    1    3    3    0    0  0.58948090483E+02 -0.11511576436E+02  0.39317775488E+02  0.71793323039E+02  0.10000000000E+01 0.  0.
<mgrwt>
<rscale>  0 0.12498904E+03</rscale>
<asrwt>0</asrwt>
<pdfrwt beam="1">  1        4 0.38358763E-01 0.12498904E+03</pdfrwt>
<pdfrwt beam="2">  1       -4 0.63635481E-02 0.12498904E+03</pdfrwt>
<totfact> 0.17207771E+03</totfact>
</mgrwt>
</event>
<event>
 5    1  0.1446384E-002  0.1249672E+03  0.7818608E-02  0.1235121E+00
         -4   -1    0    0    0  501 -0.00000000000E+00  0.00000000000E+00  0.80611101371E+01  0.81605389921E+01  0.12700000000E+01 0. -1.
          4   -1    0    0  501    0  0.00000000000E+00 -0.00000000000E+00 -0.48125616013E+03  0.48125783585E+03  0.12700000000E+01 0. -1.
         25    2    1    2    0    0  0.00000000000E+00  0.00000000000E+00 -0.47319505000E+03  0.48941837484E+03  0.12496715685E+03 0.  0.
    9000005    1    3    3    0    0 -0.11426961469E+02 -0.25340449812E+02 -0.17473444505E+02  0.32848669805E+02  0.10000000000E+01 0.  0.
    9000005    1    3    3    0    0  0.11426961469E+02  0.25340449812E+02 -0.45572160549E+03  0.45656970503E+03  0.10000000000E+01 0.  0.
<mgrwt>
<rscale>  0 0.12496716E+03</rscale>
<asrwt>0</asrwt>
<pdfrwt beam="2">  1        4 0.12032658E+00 0.12496716E+03</pdfrwt>
<pdfrwt beam="1">  1       -4 0.20279172E-02 0.12496716E+03</pdfrwt>
<totfact> 0.89380698E+02</totfact>
</mgrwt>
</event>
<event>
 5    1  0.1446384E-002  0.1250088E+03  0.7818608E-02  0.1235056E+00
          4   -1    0    0  501    0  0.00000000000E+00  0.00000000000E+00  0.36803916998E+02  0.36825822549E+02  0.12700000000E+01 0.  1.
         -4   -1    0    0    0  501 -0.00000000000E+00 -0.00000000000E+00 -0.10609438320E+03  0.10610198418E+03  0.12700000000E+01 0.  1.
         25    2    1    2    0    0  0.00000000000E+00  0.00000000000E+00 -0.69290466201E+02  0.14292780673E+03  0.12500875661E+03 0.  0.
    9000005    1    3    3    0    0 -0.61882056746E+02 -0.76619048674E+01 -0.29834549774E+02  0.69131715540E+02  0.10000000000E+01 0.  0.
    9000005    1    3    3    0    0  0.61882056746E+02  0.76619048674E+01 -0.39455916428E+02  0.73796091187E+02  0.10000000000E+01 0.  0.
<mgrwt>
<rscale>  0 0.12500876E+03</rscale>
<asrwt>0</asrwt>
<pdfrwt beam="1">  1        4 0.92046678E-02 0.12500876E+03</pdfrwt>
<pdfrwt beam="2">  1       -4 0.26527284E-01 0.12500876E+03</pdfrwt>
<totfact> 0.18887693E+03</totfact>
</mgrwt>
</event>
<event>
 5    1  0.1446384E-002  0.1249991E+03  0.7818608E-02  0.1235071E+00
          4   -1    0    0  501    0  0.00000000000E+00  0.00000000000E+00  0.80683631179E+02  0.80693625772E+02  0.12700000000E+01 0.  1.
         -4   -1    0    0    0  501 -0.00000000000E+00 -0.00000000000E+00 -0.48392359100E+02  0.48409021052E+02  0.12700000000E+01 0.  1.
         25    2    1    2    0    0  0.00000000000E+00  0.00000000000E+00  0.32291272080E+02  0.12910264682E+03  0.12499906865E+03 0.  0.
    9000005    1    3    3    0    0 -0.28006684597E+02  0.54482060020E+02  0.28901074465E+02  0.67741725335E+02  0.10000000000E+01 0.  0.
    9000005    1    3    3    0    0  0.28006684597E+02 -0.54482060020E+02  0.33901976148E+01  0.61360921489E+02  0.10000000000E+01 0.  0.
<mgrwt>
<rscale>  0 0.12499907E+03</rscale>
<asrwt>0</asrwt>
<pdfrwt beam="1">  1        4 0.20174240E-01 0.12499907E+03</pdfrwt>
<pdfrwt beam="2">  1       -4 0.12101422E-01 0.12499907E+03</pdfrwt>
<totfact> 0.19613173E+03</totfact>
</mgrwt>
</event>
<event>
 5    1  0.1446384E-002  0.1249996E+03  0.7818608E-02  0.1235070E+00
         -4   -1    0    0    0  501 -0.00000000000E+00  0.00000000000E+00  0.51886236119E+02  0.51901776450E+02  0.12700000000E+01 0.  1.
          4   -1    0    0  501    0  0.00000000000E+00 -0.00000000000E+00 -0.75252295502E+02  0.75263011356E+02  0.12700000000E+01 0.  1.
         25    2    1    2    0    0  0.00000000000E+00  0.00000000000E+00 -0.23366059383E+02  0.12716478781E+03  0.12499964211E+03 0.  0.
    9000005    1    3    3    0    0  0.14861699815E+02 -0.60265680827E+02 -0.19047565791E+02  0.64935600170E+02  0.10000000000E+01 0.  0.
    9000005    1    3    3    0    0 -0.14861699815E+02  0.60265680827E+02 -0.43184935922E+01  0.62229187636E+02  0.10000000000E+01 0.  0.
<mgrwt>
<rscale>  0 0.12499964E+03</rscale>
<asrwt>0</asrwt>
<pdfrwt beam="2">  1        4 0.18816356E-01 0.12499964E+03</pdfrwt>
<pdfrwt beam="1">  1       -4 0.12974841E-01 0.12499964E+03</pdfrwt>
<totfact> 0.19718225E+03</totfact>
</mgrwt>
</event>
<event>
 5    1  0.1446384E-002  0.1250009E+03  0.7818608E-02  0.1235068E+00
         -4   -1    0    0    0  501 -0.00000000000E+00  0.00000000000E+00  0.10798990438E+03  0.10799737195E+03  0.12700000000E+01 0. -1.
          4   -1    0    0  501    0  0.00000000000E+00 -0.00000000000E+00 -0.36153029145E+02  0.36175328836E+02  0.12700000000E+01 0. -1.
         25    2    1    2    0    0  0.00000000000E+00  0.00000000000E+00  0.71836875238E+02  0.14417270079E+03  0.12500092403E+03 0.  0.
    9000005    1    3    3    0    0  0.47355786649E+02 -0.19057608626E+02  0.77496613759E+02  0.92803491959E+02  0.10000000000E+01 0.  0.
    9000005    1    3    3    0    0 -0.47355786649E+02  0.19057608626E+02 -0.56597385206E+01  0.51369208830E+02  0.10000000000E+01 0.  0.
<mgrwt>
<rscale>  0 0.12500092E+03</rscale>
<asrwt>0</asrwt>
<pdfrwt beam="2">  1        4 0.90419783E-02 0.12500092E+03</pdfrwt>
<pdfrwt beam="1">  1       -4 0.27001197E-01 0.12500092E+03</pdfrwt>
<totfact> 0.18828464E+03</totfact>
</mgrwt>
</event>
<event>
 5    1  0.1446384E-002  0.1250123E+03  0.7818608E-02  0.1235050E+00
          4   -1    0    0  501    0  0.00000000000E+00  0.00000000000E+00  0.45483605034E+01  0.47223387499E+01  0.12700000000E+01 0.  1.
         -4   -1    0    0    0  501 -0.00000000000E+00 -0.00000000000E+00 -0.84269983081E+03  0.84270078779E+03  0.12700000000E+01 0.  1.
         25    2    1    2    0    0  0.00000000000E+00  0.00000000000E+00 -0.83815147031E+03  0.84742312654E+03  0.12501227229E+03 0.  0.
    9000005    1    3    3    0    0  0.26899756334E+02 -0.51589460880E+02 -0.57379511693E+03  0.57673816033E+03  0.10000000000E+01 0.  0.
    9000005    1    3    3    0    0 -0.26899756334E+02  0.51589460880E+02 -0.26435635338E+03  0.27068496622E+03  0.10000000000E+01 0.  0.
<mgrwt>
<rscale>  0 0.12501227E+03</rscale>
<asrwt>0</asrwt>
<pdfrwt beam="1">  1        4 0.11589599E-02 0.12501227E+03</pdfrwt>
<pdfrwt beam="2">  1       -4 0.21069630E+00 0.12501227E+03</pdfrwt>
<totfact> 0.48429358E+02</totfact>
</mgrwt>
</event>
<event>
 5    1  0.1446384E-002  0.1250019E+03  0.7818608E-02  0.1235066E+00
         -4   -1    0    0    0  501 -0.00000000000E+00  0.00000000000E+00  0.19900854884E+02  0.19941337095E+02  0.12700000000E+01 0. -1.
          4   -1    0    0  501    0  0.00000000000E+00 -0.00000000000E+00 -0.19604963477E+03  0.19605374822E+03  0.12700000000E+01 0. -1.
         25    2    1    2    0    0  0.00000000000E+00  0.00000000000E+00 -0.17614877988E+03  0.21599508532E+03  0.12500193689E+03 0.  0.
    9000005    1    3    3    0    0  0.13003515089E+02  0.32619963549E+02  0.12485563138E+01  0.35152700031E+02  0.10000000000E+01 0.  0.
    9000005    1    3    3    0    0 -0.13003515089E+02 -0.32619963549E+02 -0.17739733619E+03  0.18084238529E+03  0.10000000000E+01 0.  0.
<mgrwt>
<rscale>  0 0.12500194E+03</rscale>
<asrwt>0</asrwt>
<pdfrwt beam="2">  1        4 0.49017977E-01 0.12500194E+03</pdfrwt>
<pdfrwt beam="1">  1       -4 0.49807888E-02 0.12500194E+03</pdfrwt>
<totfact> 0.15700293E+03</totfact>
</mgrwt>
</event>
<event>
 5    1  0.1446384E-002  0.1250005E+03  0.7818608E-02  0.1235068E+00
          4   -1    0    0  501    0  0.00000000000E+00  0.00000000000E+00  0.91737307619E+01  0.92612221705E+01  0.12700000000E+01 0.  1.
         -4   -1    0    0    0  501 -0.00000000000E+00 -0.00000000000E+00 -0.42370235612E+03  0.42370425945E+03  0.12700000000E+01 0.  1.
         25    2    1    2    0    0  0.00000000000E+00  0.00000000000E+00 -0.41452862536E+03  0.43296548162E+03  0.12500050816E+03 0.  0.
    9000005    1    3    3    0    0 -0.46537583747E+02 -0.31487637236E+02 -0.11252923778E+03  0.12578174492E+03  0.10000000000E+01 0.  0.
    9000005    1    3    3    0    0  0.46537583747E+02  0.31487637236E+02 -0.30199938758E+03  0.30718373670E+03  0.10000000000E+01 0.  0.
<mgrwt>
<rscale>  0 0.12500051E+03</rscale>
<asrwt>0</asrwt>
<pdfrwt beam="1">  1        4 0.23046085E-02 0.12500051E+03</pdfrwt>
<pdfrwt beam="2">  1       -4 0.10593670E+00 0.12500051E+03</pdfrwt>
<totfact> 0.99156522E+02</totfact>
</mgrwt>
</event>
<event>
 5    1  0.1446384E-002  0.1249999E+03  0.7818608E-02  0.1235069E+00
          4   -1    0    0  501    0  0.00000000000E+00  0.00000000000E+00  0.55123322847E+03  0.55123469146E+03  0.12700000000E+01 0. -1.
         -4   -1    0    0    0  501 -0.00000000000E+00 -0.00000000000E+00 -0.70279859128E+01  0.71418125144E+01  0.12700000000E+01 0. -1.
         25    2    1    2    0    0  0.00000000000E+00  0.00000000000E+00  0.54420524256E+03  0.55837650397E+03  0.12499989666E+03 0.  0.
    9000005    1    3    3    0    0 -0.23233001103E+02  0.45627000593E+02  0.43214701239E+03  0.43517081225E+03  0.10000000000E+01 0.  0.
    9000005    1    3    3    0    0  0.23233001103E+02 -0.45627000593E+02  0.11205823017E+03  0.12320569172E+03  0.10000000000E+01 0.  0.
<mgrwt>
<rscale>  0 0.12499990E+03</rscale>
<asrwt>0</asrwt>
<pdfrwt beam="1">  1        4 0.13782271E+00 0.12499990E+03</pdfrwt>
<pdfrwt beam="2">  1       -4 0.17714077E-02 0.12499990E+03</pdfrwt>
<totfact> 0.79002457E+02</totfact>
</mgrwt>
</event>
<event>
 5    1  0.1446384E-002  0.1250033E+03  0.7818608E-02  0.1235064E+00
         -4   -1    0    0    0  501 -0.00000000000E+00  0.00000000000E+00  0.48354385094E+02  0.48371060127E+02  0.12700000000E+01 0. -1.
          4   -1    0    0  501    0  0.00000000000E+00 -0.00000000000E+00 -0.80752441094E+02  0.80762427171E+02  0.12700000000E+01 0. -1.
         25    2    1    2    0    0  0.00000000000E+00  0.00000000000E+00 -0.32398056000E+02  0.12913348730E+03  0.12500329399E+03 0.  0.
    9000005    1    3    3    0    0  0.42718584596E+02 -0.44111137117E+02 -0.42056976041E+01  0.61557759706E+02  0.10000000000E+01 0.  0.
    9000005    1    3    3    0    0 -0.42718584596E+02  0.44111137117E+02 -0.28192358396E+02  0.67575727592E+02  0.10000000000E+01 0.  0.
<mgrwt>
<rscale>  0 0.12500329E+03</rscale>
<asrwt>0</asrwt>
<pdfrwt beam="2">  1        4 0.20191443E-01 0.12500329E+03</pdfrwt>
<pdfrwt beam="1">  1       -4 0.12091929E-01 0.12500329E+03</pdfrwt>
<totfact> 0.19609573E+03</totfact>
</mgrwt>
</event>
<event>
 5    1  0.1446384E-002  0.1250031E+03  0.7818608E-02  0.1235064E+00
         -4   -1    0    0    0  501 -0.00000000000E+00  0.00000000000E+00  0.68950035383E+02  0.68961730541E+02  0.12700000000E+01 0. -1.
          4   -1    0    0  501    0  0.00000000000E+00 -0.00000000000E+00 -0.56632555542E+02  0.56646793795E+02  0.12700000000E+01 0. -1.
         25    2    1    2    0    0  0.00000000000E+00  0.00000000000E+00  0.12317479840E+02  0.12560852434E+03  0.12500312427E+03 0.  0.
    9000005    1    3    3    0    0  0.94273932270E+01  0.12274401939E+02  0.66998719720E+02  0.68770379744E+02  0.10000000000E+01 0.  0.
    9000005    1    3    3    0    0 -0.94273932270E+01 -0.12274401939E+02 -0.54681239879E+02  0.56838144593E+02  0.10000000000E+01 0.  0.
<mgrwt>
<rscale>  0 0.12500312E+03</rscale>
<asrwt>0</asrwt>
<pdfrwt beam="2">  1        4 0.14161381E-01 0.12500312E+03</pdfrwt>
<pdfrwt beam="1">  1       -4 0.17240750E-01 0.12500312E+03</pdfrwt>
<totfact> 0.19800642E+03</totfact>
</mgrwt>
</event>
<event>
 5    1  0.1446384E-002  0.1250013E+03  0.7818608E-02  0.1235067E+00
         -4   -1    0    0    0  501 -0.00000000000E+00  0.00000000000E+00  0.97183591595E+01  0.98009899884E+01  0.12700000000E+01 0.  1.
          4   -1    0    0  501    0  0.00000000000E+00 -0.00000000000E+00 -0.40016827235E+03  0.40017028763E+03  0.12700000000E+01 0.  1.
         25    2    1    2    0    0  0.00000000000E+00  0.00000000000E+00 -0.39044991319E+03  0.40997127761E+03  0.12500125502E+03 0.  0.
    9000005    1    3    3    0    0 -0.33353938287E+02  0.48715350940E+02 -0.12803772923E+03  0.14099762666E+03  0.10000000000E+01 0.  0.
    9000005    1    3    3    0    0  0.33353938287E+02 -0.48715350940E+02 -0.26241218396E+03  0.26897365095E+03  0.10000000000E+01 0.  0.
<mgrwt>
<rscale>  0 0.12500126E+03</rscale>
<asrwt>0</asrwt>
<pdfrwt beam="2">  1        4 0.10005259E+00 0.12500126E+03</pdfrwt>
<pdfrwt beam="1">  1       -4 0.24401719E-02 0.12500126E+03</pdfrwt>
<totfact> 0.10366304E+03</totfact>
</mgrwt>
</event>
<event>
 5    1  0.1446384E-002  0.1249995E+03  0.7818608E-02  0.1235070E+00
         -4   -1    0    0    0  501 -0.00000000000E+00  0.00000000000E+00  0.23421695647E+03  0.23422039962E+03  0.12700000000E+01 0. -1.
          4   -1    0    0  501    0  0.00000000000E+00 -0.00000000000E+00 -0.16650026791E+02  0.16698391903E+02  0.12700000000E+01 0. -1.
         25    2    1    2    0    0  0.00000000000E+00  0.00000000000E+00  0.21756692967E+03  0.25091879152E+03  0.12499948419E+03 0.  0.
    9000005    1    3    3    0    0 -0.29638028480E+02 -0.47158036347E+02  0.51903101939E+02  0.76139510868E+02  0.10000000000E+01 0.  0.
    9000005    1    3    3    0    0  0.29638028480E+02  0.47158036347E+02  0.16566382774E+03  0.17477928065E+03  0.10000000000E+01 0.  0.
<mgrwt>
<rscale>  0 0.12499948E+03</rscale>
<asrwt>0</asrwt>
<pdfrwt beam="2">  1        4 0.41689828E-02 0.12499948E+03</pdfrwt>
<pdfrwt beam="1">  1       -4 0.58560715E-01 0.12499948E+03</pdfrwt>
<totfact> 0.14467644E+03</totfact>
</mgrwt>
</event>
<event>
 5    1  0.1446384E-002  0.1249948E+03  0.7818608E-02  0.1235077E+00
         -4   -1    0    0    0  501 -0.00000000000E+00  0.00000000000E+00  0.49413501365E+02  0.49429819109E+02  0.12700000000E+01 0.  1.
          4   -1    0    0  501    0  0.00000000000E+00 -0.00000000000E+00 -0.79011190693E+02  0.79021396816E+02  0.12700000000E+01 0.  1.
         25    2    1    2    0    0  0.00000000000E+00  0.00000000000E+00 -0.29597689328E+02  0.12845121592E+03  0.12499476653E+03 0.  0.
    9000005    1    3    3    0    0 -0.22518186219E+02 -0.15578902595E+02 -0.72522859949E+02  0.77526357658E+02  0.10000000000E+01 0.  0.
    9000005    1    3    3    0    0  0.22518186219E+02  0.15578902595E+02  0.42925170620E+02  0.50924858266E+02  0.10000000000E+01 0.  0.
<mgrwt>
<rscale>  0 0.12499477E+03</rscale>
<asrwt>0</asrwt>
<pdfrwt beam="2">  1        4 0.19756113E-01 0.12499477E+03</pdfrwt>
<pdfrwt beam="1">  1       -4 0.12356691E-01 0.12499477E+03</pdfrwt>
<totfact> 0.19650419E+03</totfact>
</mgrwt>
</event>
<event>
 5    1  0.1446384E-002  0.1250010E+03  0.7818608E-02  0.1235068E+00
          4   -1    0    0  501    0  0.00000000000E+00  0.00000000000E+00  0.14574384066E+02  0.14629612808E+02  0.12700000000E+01 0.  1.
         -4   -1    0    0    0  501 -0.00000000000E+00 -0.00000000000E+00 -0.26746219641E+03  0.26746521159E+03  0.12700000000E+01 0.  1.
         25    2    1    2    0    0  0.00000000000E+00  0.00000000000E+00 -0.25288781235E+03  0.28209482440E+03  0.12500097727E+03 0.  0.
    9000005    1    3    3    0    0  0.51936768765E+02  0.10692217460E+02 -0.51815710489E+02  0.74145932575E+02  0.10000000000E+01 0.  0.
    9000005    1    3    3    0    0 -0.51936768765E+02 -0.10692217460E+02 -0.20107210186E+03  0.20794889182E+03  0.10000000000E+01 0.  0.
<mgrwt>
<rscale>  0 0.12500098E+03</rscale>
<asrwt>0</asrwt>
<pdfrwt beam="1">  1        4 0.36508774E-02 0.12500098E+03</pdfrwt>
<pdfrwt beam="2">  1       -4 0.66872814E-01 0.12500098E+03</pdfrwt>
<totfact> 0.13487847E+03</totfact>
</mgrwt>
</event>
<event>
 5    1  0.1446384E-002  0.1249969E+03  0.7818608E-02  0.1235074E+00
          4   -1    0    0  501    0  0.00000000000E+00  0.00000000000E+00  0.14153709938E+03  0.14154279706E+03  0.12700000000E+01 0.  1.
         -4   -1    0    0    0  501 -0.00000000000E+00 -0.00000000000E+00 -0.27576550824E+02  0.27605779384E+02  0.12700000000E+01 0.  1.
         25    2    1    2    0    0  0.00000000000E+00  0.00000000000E+00  0.11396054855E+03  0.16914857645E+03  0.12499693711E+03 0.  0.
    9000005    1    3    3    0    0  0.51700932731E+02  0.33643539791E+02  0.43435588537E+02  0.75448820842E+02  0.10000000000E+01 0.  0.
    9000005    1    3    3    0    0 -0.51700932731E+02 -0.33643539791E+02  0.70524960018E+02  0.93699755605E+02  0.10000000000E+01 0.  0.
<mgrwt>
<rscale>  0 0.12499694E+03</rscale>
<asrwt>0</asrwt>
<pdfrwt beam="1">  1        4 0.35388640E-01 0.12499694E+03</pdfrwt>
<pdfrwt beam="2">  1       -4 0.68985036E-02 0.12499694E+03</pdfrwt>
<totfact> 0.17636773E+03</totfact>
</mgrwt>
</event>
<event>
 5    1  0.1446384E-002  0.1250002E+03  0.7818608E-02  0.1235069E+00
          4   -1    0    0  501    0  0.00000000000E+00  0.00000000000E+00  0.12134650132E+03  0.12135314698E+03  0.12700000000E+01 0.  1.
         -4   -1    0    0    0  501 -0.00000000000E+00 -0.00000000000E+00 -0.32170907177E+02  0.32195965098E+02  0.12700000000E+01 0.  1.
         25    2    1    2    0    0  0.00000000000E+00  0.00000000000E+00  0.89175594141E+02  0.15354911208E+03  0.12500017292E+03 0.  0.
    9000005    1    3    3    0    0 -0.32646316782E+02 -0.10637025085E+02  0.10872737628E+03  0.11402443008E+03  0.10000000000E+01 0.  0.
    9000005    1    3    3    0    0  0.32646316782E+02  0.10637025085E+02 -0.19551782141E+02  0.39524681998E+02  0.10000000000E+01 0.  0.
<mgrwt>
<rscale>  0 0.12500017E+03</rscale>
<asrwt>0</asrwt>
<pdfrwt beam="1">  1        4 0.30340588E-01 0.12500017E+03</pdfrwt>
<pdfrwt beam="2">  1       -4 0.80466898E-02 0.12500017E+03</pdfrwt>
<totfact> 0.18365563E+03</totfact>
</mgrwt>
</event>
<event>
 5    1  0.1446384E-002  0.1250540E+03  0.7818608E-02  0.1234985E+00
          4   -1    0    0  501    0  0.00000000000E+00  0.00000000000E+00  0.45659367567E+02  0.45677026464E+02  0.12700000000E+01 0. -1.
         -4   -1    0    0    0  501 -0.00000000000E+00 -0.00000000000E+00 -0.85587008391E+02  0.85596430447E+02  0.12700000000E+01 0. -1.
         25    2    1    2    0    0  0.00000000000E+00  0.00000000000E+00 -0.39927640824E+02  0.13127345691E+03  0.12505400428E+03 0.  0.
    9000005    1    3    3    0    0 -0.13136520270E+02  0.60704613228E+02 -0.12466648557E+02  0.63356416867E+02  0.10000000000E+01 0.  0.
    9000005    1    3    3    0    0  0.13136520270E+02 -0.60704613228E+02 -0.27460992267E+02  0.67917040044E+02  0.10000000000E+01 0.  0.
<mgrwt>
<rscale>  0 0.12505400E+03</rscale>
<asrwt>0</asrwt>
<pdfrwt beam="1">  1        4 0.11418227E-01 0.12505400E+03</pdfrwt>
<pdfrwt beam="2">  1       -4 0.21400137E-01 0.12505400E+03</pdfrwt>
<totfact> 0.19471611E+03</totfact>
</mgrwt>
</event>
<event>
 5    1  0.1446384E-002  0.1250010E+03  0.7818608E-02  0.1235068E+00
          4   -1    0    0  501    0  0.00000000000E+00  0.00000000000E+00  0.50337739500E+02  0.50353757734E+02  0.12700000000E+01 0.  1.
         -4   -1    0    0    0  501 -0.00000000000E+00 -0.00000000000E+00 -0.77568541419E+02  0.77578937334E+02  0.12700000000E+01 0.  1.
         25    2    1    2    0    0  0.00000000000E+00  0.00000000000E+00 -0.27230801920E+02  0.12793269507E+03  0.12500103157E+03 0.  0.
    9000005    1    3    3    0    0 -0.10639973117E+02  0.35953132707E+02 -0.64782710847E+02  0.74857440539E+02  0.10000000000E+01 0.  0.
    9000005    1    3    3    0    0  0.10639973117E+02 -0.35953132707E+02  0.37551908927E+02  0.53075254530E+02  0.10000000000E+01 0.  0.
<mgrwt>
<rscale>  0 0.12500103E+03</rscale>
<asrwt>0</asrwt>
<pdfrwt beam="1">  1        4 0.12587737E-01 0.12500103E+03</pdfrwt>
<pdfrwt beam="2">  1       -4 0.19395437E-01 0.12500103E+03</pdfrwt>
<totfact> 0.19675723E+03</totfact>
</mgrwt>
</event>
<event>
 5    1  0.1446384E-002  0.1249965E+03  0.7818608E-02  0.1235075E+00
          4   -1    0    0  501    0  0.00000000000E+00  0.00000000000E+00  0.79367358360E+02  0.79377518687E+02  0.12700000000E+01 0. -1.
         -4   -1    0    0    0  501 -0.00000000000E+00 -0.00000000000E+00 -0.49193101331E+02  0.49209492160E+02  0.12700000000E+01 0. -1.
         25    2    1    2    0    0  0.00000000000E+00  0.00000000000E+00  0.30174257028E+02  0.12858701085E+03  0.12499653424E+03 0.  0.
    9000005    1    3    3    0    0  0.37412245307E+02 -0.47102973374E+02  0.32504721043E+02  0.68380721623E+02  0.10000000000E+01 0.  0.
    9000005    1    3    3    0    0 -0.37412245307E+02  0.47102973374E+02 -0.23304640145E+01  0.60206289224E+02  0.10000000000E+01 0.  0.
<mgrwt>
<rscale>  0 0.12499653E+03</rscale>
<asrwt>0</asrwt>
<pdfrwt beam="1">  1        4 0.19845158E-01 0.12499653E+03</pdfrwt>
<pdfrwt beam="2">  1       -4 0.12301594E-01 0.12499653E+03</pdfrwt>
<totfact> 0.19642243E+03</totfact>
</mgrwt>
</event>
<event>
 5    1  0.1446384E-002  0.1249921E+03  0.7818608E-02  0.1235082E+00
          4   -1    0    0  501    0  0.00000000000E+00  0.00000000000E+00  0.14933054620E+03  0.14933594653E+03  0.12700000000E+01 0.  1.
         -4   -1    0    0    0  501 -0.00000000000E+00 -0.00000000000E+00 -0.26133794901E+02  0.26164635214E+02  0.12700000000E+01 0.  1.
         25    2    1    2    0    0  0.00000000000E+00  0.00000000000E+00  0.12319675130E+03  0.17550058175E+03  0.12499205841E+03 0.  0.
    9000005    1    3    3    0    0 -0.25259708377E+00 -0.53914059521E+02  0.10595449955E+03  0.11888711282E+03  0.10000000000E+01 0.  0.
    9000005    1    3    3    0    0  0.25259708377E+00  0.53914059521E+02  0.17242251748E+02  0.56613468933E+02  0.10000000000E+01 0.  0.
<mgrwt>
<rscale>  0 0.12499206E+03</rscale>
<asrwt>0</asrwt>
<pdfrwt beam="1">  1        4 0.37337167E-01 0.12499206E+03</pdfrwt>
<pdfrwt beam="2">  1       -4 0.65379788E-02 0.12499206E+03</pdfrwt>
<totfact> 0.17354961E+03</totfact>
</mgrwt>
</event>
<event>
 5    1  0.1446384E-002  0.1249989E+03  0.7818608E-02  0.1235071E+00
          4   -1    0    0  501    0  0.00000000000E+00  0.00000000000E+00  0.15400751110E+02  0.15453026718E+02  0.12700000000E+01 0.  1.
         -4   -1    0    0    0  501 -0.00000000000E+00 -0.00000000000E+00 -0.25315226713E+03  0.25315545274E+03  0.12700000000E+01 0.  1.
         25    2    1    2    0    0  0.00000000000E+00  0.00000000000E+00 -0.23775151602E+03  0.26860847946E+03  0.12499892747E+03 0.  0.
    9000005    1    3    3    0    0  0.59070454238E+02  0.15899698047E+02 -0.91435228704E+02  0.11001599888E+03  0.10000000000E+01 0.  0.
    9000005    1    3    3    0    0 -0.59070454238E+02 -0.15899698047E+02 -0.14631628731E+03  0.15859248057E+03  0.10000000000E+01 0.  0.
<mgrwt>
<rscale>  0 0.12499893E+03</rscale>
<asrwt>0</asrwt>
<pdfrwt beam="1">  1        4 0.38571212E-02 0.12499893E+03</pdfrwt>
<pdfrwt beam="2">  1       -4 0.63294986E-01 0.12499893E+03</pdfrwt>
<totfact> 0.13899178E+03</totfact>
</mgrwt>
</event>
<event>
 5    1  0.1446384E-002  0.1249962E+03  0.7818608E-02  0.1235075E+00
          4   -1    0    0  501    0  0.00000000000E+00  0.00000000000E+00  0.11144980278E+03  0.11145703854E+03  0.12700000000E+01 0. -1.
         -4   -1    0    0    0  501 -0.00000000000E+00 -0.00000000000E+00 -0.35027379936E+02  0.35050395792E+02  0.12700000000E+01 0. -1.
         25    2    1    2    0    0  0.00000000000E+00  0.00000000000E+00  0.76422422847E+02  0.14650743433E+03  0.12499616635E+03 0.  0.
    9000005    1    3    3    0    0  0.20667323203E+02  0.36529738468E+02 -0.16053773248E+02  0.44947565856E+02  0.10000000000E+01 0.  0.
    9000005    1    3    3    0    0 -0.20667323203E+02 -0.36529738468E+02  0.92476196095E+02  0.10155986848E+03  0.10000000000E+01 0.  0.
<mgrwt>
<rscale>  0 0.12499617E+03</rscale>
<asrwt>0</asrwt>
<pdfrwt beam="1">  1        4 0.27866232E-01 0.12499617E+03</pdfrwt>
<pdfrwt beam="2">  1       -4 0.87606265E-02 0.12499617E+03</pdfrwt>
<totfact> 0.18713525E+03</totfact>
</mgrwt>
</event>
<event>
 5    1  0.1446384E-002  0.1249908E+03  0.7818608E-02  0.1235084E+00
         -4   -1    0    0    0  501 -0.00000000000E+00  0.00000000000E+00  0.84482803596E+03  0.84482899053E+03  0.12700000000E+01 0.  1.
          4   -1    0    0  501    0  0.00000000000E+00 -0.00000000000E+00 -0.45348427679E+01  0.47093204318E+01  0.12700000000E+01 0.  1.
         25    2    1    2    0    0  0.00000000000E+00  0.00000000000E+00  0.84029319319E+03  0.84953831097E+03  0.12499076474E+03 0.  0.
    9000005    1    3    3    0    0 -0.47514384403E+02  0.40562039737E+02  0.41108610431E+03  0.41580726419E+03  0.10000000000E+01 0.  0.
    9000005    1    3    3    0    0  0.47514384403E+02 -0.40562039737E+02  0.42920708888E+03  0.43373104678E+03  0.10000000000E+01 0.  0.
<mgrwt>
<rscale>  0 0.12499076E+03</rscale>
<asrwt>0</asrwt>
<pdfrwt beam="2">  1        4 0.11556395E-02 0.12499076E+03</pdfrwt>
<pdfrwt beam="1">  1       -4 0.21122898E+00 0.12499076E+03</pdfrwt>
<totfact> 0.48278757E+02</totfact>
</mgrwt>
</event>
<event>
 5    1  0.1446384E-002  0.1250008E+03  0.7818608E-02  0.1235068E+00
         -4   -1    0    0    0  501 -0.00000000000E+00  0.00000000000E+00  0.42262074540E+03  0.42262265361E+03  0.12700000000E+01 0. -1.
          4   -1    0    0  501    0  0.00000000000E+00 -0.00000000000E+00 -0.91974778338E+01  0.92847454732E+01  0.12700000000E+01 0. -1.
         25    2    1    2    0    0  0.00000000000E+00  0.00000000000E+00  0.41342326757E+03  0.43190739908E+03  0.12500081286E+03 0.  0.
    9000005    1    3    3    0    0 -0.93720000271E+01  0.19140058692E+02  0.40969391308E+03  0.41024904466E+03  0.10000000000E+01 0.  0.
    9000005    1    3    3    0    0  0.93720000271E+01 -0.19140058692E+02  0.37293544853E+01  0.21658354418E+02  0.10000000000E+01 0.  0.
<mgrwt>
<rscale>  0 0.12500081E+03</rscale>
<asrwt>0</asrwt>
<pdfrwt beam="2">  1        4 0.23105164E-02 0.12500081E+03</pdfrwt>
<pdfrwt beam="1">  1       -4 0.10566634E+00 0.12500081E+03</pdfrwt>
<totfact> 0.99356387E+02</totfact>
</mgrwt>
</event>
<event>
 5    1  0.1446384E-002  0.1249998E+03  0.7818608E-02  0.1235070E+00
          4   -1    0    0  501    0  0.00000000000E+00  0.00000000000E+00  0.16482608401E+02  0.16531463326E+02  0.12700000000E+01 0. -1.
         -4   -1    0    0    0  501 -0.00000000000E+00 -0.00000000000E+00 -0.23659002132E+03  0.23659342993E+03  0.12700000000E+01 0. -1.
         25    2    1    2    0    0  0.00000000000E+00  0.00000000000E+00 -0.22010741292E+03  0.25312489326E+03  0.12499975347E+03 0.  0.
    9000005    1    3    3    0    0  0.78147860603E+01  0.61127984984E+02 -0.13105262407E+03  0.14482227628E+03  0.10000000000E+01 0.  0.
    9000005    1    3    3    0    0 -0.78147860603E+01 -0.61127984984E+02 -0.89054788846E+02  0.10830261699E+03  0.10000000000E+01 0.  0.
<mgrwt>
<rscale>  0 0.12499975E+03</rscale>
<asrwt>0</asrwt>
<pdfrwt beam="1">  1        4 0.41271858E-02 0.12499975E+03</pdfrwt>
<pdfrwt beam="2">  1       -4 0.59154028E-01 0.12499975E+03</pdfrwt>
<totfact> 0.14394693E+03</totfact>
</mgrwt>
</event>
<event>
 5    1  0.1446384E-002  0.1249981E+03  0.7818608E-02  0.1235072E+00
          4   -1    0    0  501    0  0.00000000000E+00  0.00000000000E+00  0.12040586183E+02  0.12107378561E+02  0.12700000000E+01 0.  1.
         -4   -1    0    0    0  501 -0.00000000000E+00 -0.00000000000E+00 -0.32344813974E+03  0.32345063302E+03  0.12700000000E+01 0.  1.
         25    2    1    2    0    0  0.00000000000E+00  0.00000000000E+00 -0.31140755356E+03  0.33555801158E+03  0.12499805888E+03 0.  0.
    9000005    1    3    3    0    0 -0.60374094487E+02  0.20956020088E+01 -0.19863118553E+03  0.20761688443E+03  0.10000000000E+01 0.  0.
    9000005    1    3    3    0    0  0.60374094487E+02 -0.20956020088E+01 -0.11277636802E+03  0.12794112716E+03  0.10000000000E+01 0.  0.
<mgrwt>
<rscale>  0 0.12499806E+03</rscale>
<asrwt>0</asrwt>
<pdfrwt beam="1">  1        4 0.30188083E-02 0.12499806E+03</pdfrwt>
<pdfrwt beam="2">  1       -4 0.80870667E-01 0.12499806E+03</pdfrwt>
<totfact> 0.12030449E+03</totfact>
</mgrwt>
</event>
<event>
 5    1  0.1446384E-002  0.1249933E+03  0.7818608E-02  0.1235080E+00
         -4   -1    0    0    0  501 -0.00000000000E+00  0.00000000000E+00  0.28591834164E+03  0.28592116219E+03  0.12700000000E+01 0.  1.
          4   -1    0    0  501    0  0.00000000000E+00 -0.00000000000E+00 -0.13628231694E+02  0.13687278733E+02  0.12700000000E+01 0.  1.
         25    2    1    2    0    0  0.00000000000E+00  0.00000000000E+00  0.27229010995E+03  0.29960844092E+03  0.12499325540E+03 0.  0.
    9000005    1    3    3    0    0  0.46724764882E+02 -0.31471046339E+02  0.20096146625E+03  0.20871066415E+03  0.10000000000E+01 0.  0.
    9000005    1    3    3    0    0 -0.46724764882E+02  0.31471046339E+02  0.71328643699E+02  0.90897776776E+02  0.10000000000E+01 0.  0.
<mgrwt>
<rscale>  0 0.12499326E+03</rscale>
<asrwt>0</asrwt>
<pdfrwt beam="2">  1        4 0.34147913E-02 0.12499326E+03</pdfrwt>
<pdfrwt beam="1">  1       -4 0.71487320E-01 0.12499326E+03</pdfrwt>
<totfact> 0.12984043E+03</totfact>
</mgrwt>
</event>
<event>
 5    1  0.1446384E-002  0.1249971E+03  0.7818608E-02  0.1235074E+00
          4   -1    0    0  501    0  0.00000000000E+00  0.00000000000E+00  0.12278778090E+02  0.12344281728E+02  0.12700000000E+01 0. -1.
         -4   -1    0    0    0  501 -0.00000000000E+00 -0.00000000000E+00 -0.31720259034E+03  0.31720513271E+03  0.12700000000E+01 0. -1.
         25    2    1    2    0    0  0.00000000000E+00  0.00000000000E+00 -0.30492381225E+03  0.32954941444E+03  0.12499714109E+03 0.  0.
    9000005    1    3    3    0    0  0.28457923994E+02 -0.20465581341E+02 -0.28885556465E+03  0.29097634043E+03  0.10000000000E+01 0.  0.
    9000005    1    3    3    0    0 -0.28457923994E+02  0.20465581341E+02 -0.16068247592E+02  0.38573074007E+02  0.10000000000E+01 0.  0.
<mgrwt>
<rscale>  0 0.12499714E+03</rscale>
<asrwt>0</asrwt>
<pdfrwt beam="1">  1        4 0.30782013E-02 0.12499714E+03</pdfrwt>
<pdfrwt beam="2">  1       -4 0.79309126E-01 0.12499714E+03</pdfrwt>
<totfact> 0.12182304E+03</totfact>
</mgrwt>
</event>
<event>
 5    1  0.1446384E-002  0.1250014E+03  0.7818608E-02  0.1235067E+00
          4   -1    0    0  501    0  0.00000000000E+00  0.00000000000E+00  0.27601154803E+01  0.30382787010E+01  0.12700000000E+01 0. -1.
         -4   -1    0    0    0  501 -0.00000000000E+00 -0.00000000000E+00 -0.13471067829E+04  0.13471073815E+04  0.12700000000E+01 0. -1.
         25    2    1    2    0    0  0.00000000000E+00  0.00000000000E+00 -0.13443466674E+04  0.13501456602E+04  0.12500136680E+03 0.  0.
    9000005    1    3    3    0    0  0.39339835147E+02 -0.32616400221E+02 -0.10606933565E+04  0.10619241257E+04  0.10000000000E+01 0.  0.
    9000005    1    3    3    0    0 -0.39339835147E+02  0.32616400221E+02 -0.28365331094E+03  0.28822153458E+03  0.10000000000E+01 0.  0.
<mgrwt>
<rscale>  0 0.12500137E+03</rscale>
<asrwt>0</asrwt>
<pdfrwt beam="1">  1        4 0.72487872E-03 0.12500137E+03</pdfrwt>
<pdfrwt beam="2">  1       -4 0.33680939E+00 0.12500137E+03</pdfrwt>
<totfact> 0.18115524E+02</totfact>
</mgrwt>
</event>
<event>
 5    1  0.1446384E-002  0.1249958E+03  0.7818608E-02  0.1235076E+00
          4   -1    0    0  501    0  0.00000000000E+00  0.00000000000E+00  0.19212127638E+03  0.19212547395E+03  0.12700000000E+01 0.  1.
         -4   -1    0    0    0  501 -0.00000000000E+00 -0.00000000000E+00 -0.20306577995E+02  0.20346252968E+02  0.12700000000E+01 0.  1.
         25    2    1    2    0    0  0.00000000000E+00  0.00000000000E+00  0.17181469839E+03  0.21247172691E+03  0.12499577655E+03 0.  0.
    9000005    1    3    3    0    0 -0.43907401850E+00  0.32182527386E+02 -0.51420323812E+01  0.32609022555E+02  0.10000000000E+01 0.  0.
    9000005    1    3    3    0    0  0.43907401850E+00 -0.32182527386E+02  0.17695673077E+03  0.17986270436E+03  0.10000000000E+01 0.  0.
<mgrwt>
<rscale>  0 0.12499578E+03</rscale>
<asrwt>0</asrwt>
<pdfrwt beam="1">  1        4 0.48035803E-01 0.12499578E+03</pdfrwt>
<pdfrwt beam="2">  1       -4 0.50821285E-02 0.12499578E+03</pdfrwt>
<totfact> 0.15836087E+03</totfact>
</mgrwt>
</event>
<event>
 5    1  0.1446384E-002  0.1250075E+03  0.7818608E-02  0.1235057E+00
          4   -1    0    0  501    0  0.00000000000E+00  0.00000000000E+00  0.71404639349E+02  0.71415932540E+02  0.12700000000E+01 0.  1.
         -4   -1    0    0    0  501 -0.00000000000E+00 -0.00000000000E+00 -0.54689441223E+02  0.54704185226E+02  0.12700000000E+01 0.  1.
         25    2    1    2    0    0  0.00000000000E+00  0.00000000000E+00  0.16715198126E+02  0.12612011777E+03  0.12500754480E+03 0.  0.
    9000005    1    3    3    0    0 -0.57757853031E+02 -0.82795868976E+01  0.30944354759E+02  0.66053570966E+02  0.10000000000E+01 0.  0.
    9000005    1    3    3    0    0  0.57757853031E+02  0.82795868976E+01 -0.14229156633E+02  0.60066546800E+02  0.10000000000E+01 0.  0.
<mgrwt>
<rscale>  0 0.12500754E+03</rscale>
<asrwt>0</asrwt>
<pdfrwt beam="1">  1        4 0.17854414E-01 0.12500754E+03</pdfrwt>
<pdfrwt beam="2">  1       -4 0.13675615E-01 0.12500754E+03</pdfrwt>
<totfact> 0.19770941E+03</totfact>
</mgrwt>
</event>
<event>
 5    1  0.1446384E-002  0.1249989E+03  0.7818608E-02  0.1235071E+00
          4   -1    0    0  501    0  0.00000000000E+00  0.00000000000E+00  0.25045897935E+03  0.25046219922E+03  0.12700000000E+01 0. -1.
         -4   -1    0    0    0  501 -0.00000000000E+00 -0.00000000000E+00 -0.15566908717E+02  0.15618628205E+02  0.12700000000E+01 0. -1.
         25    2    1    2    0    0  0.00000000000E+00  0.00000000000E+00  0.23489207064E+03  0.26608082743E+03  0.12499888750E+03 0.  0.
    9000005    1    3    3    0    0 -0.29718586200E+02 -0.51716958310E+02  0.15711823571E+03  0.16806242333E+03  0.10000000000E+01 0.  0.
    9000005    1    3    3    0    0  0.29718586200E+02  0.51716958310E+02  0.77773834921E+02  0.98018404093E+02  0.10000000000E+01 0.  0.
<mgrwt>
<rscale>  0 0.12499889E+03</rscale>
<asrwt>0</asrwt>
<pdfrwt beam="1">  1        4 0.62621612E-01 0.12499889E+03</pdfrwt>
<pdfrwt beam="2">  1       -4 0.38985946E-02 0.12499889E+03</pdfrwt>
<totfact> 0.13978306E+03</totfact>
</mgrwt>
</event>
<event>
 5    1  0.1446384E-002  0.1249924E+03  0.7818608E-02  0.1235081E+00
          4   -1    0    0  501    0  0.00000000000E+00  0.00000000000E+00  0.58052006708E+02  0.58065896900E+02  0.12700000000E+01 0. -1.
         -4   -1    0    0    0  501 -0.00000000000E+00 -0.00000000000E+00 -0.67252668617E+02  0.67264658894E+02  0.12700000000E+01 0. -1.
         25    2    1    2    0    0  0.00000000000E+00  0.00000000000E+00 -0.92006619096E+01  0.12533055579E+03  0.12499238391E+03 0.  0.
    9000005    1    3    3    0    0 -0.57640029043E+02 -0.22319765336E+02 -0.13802804722E+02  0.63340842202E+02  0.10000000000E+01 0.  0.
    9000005    1    3    3    0    0  0.57640029043E+02  0.22319765336E+02  0.46021428127E+01  0.61989713592E+02  0.10000000000E+01 0.  0.
<mgrwt>
<rscale>  0 0.12499238E+03</rscale>
<asrwt>0</asrwt>
<pdfrwt beam="1">  1        4 0.14516237E-01 0.12499238E+03</pdfrwt>
<pdfrwt beam="2">  1       -4 0.16816402E-01 0.12499238E+03</pdfrwt>
<totfact> 0.19820671E+03</totfact>
</mgrwt>
</event>
<event>
 5    1  0.1446384E-002  0.1250037E+03  0.7818608E-02  0.1235064E+00
         -4   -1    0    0    0  501 -0.00000000000E+00  0.00000000000E+00  0.78029861846E+01  0.79056621100E+01  0.12700000000E+01 0.  1.
          4   -1    0    0  501    0  0.00000000000E+00 -0.00000000000E+00 -0.49726331867E+03  0.49726494044E+03  0.12700000000E+01 0.  1.
         25    2    1    2    0    0  0.00000000000E+00  0.00000000000E+00 -0.48946033249E+03  0.50517060255E+03  0.12500368238E+03 0.  0.
    9000005    1    3    3    0    0 -0.95134350793E+00  0.27369741246E+02 -0.17718877981E+02  0.32633823362E+02  0.10000000000E+01 0.  0.
    9000005    1    3    3    0    0  0.95134350793E+00 -0.27369741246E+02 -0.47174145450E+03  0.47253677919E+03  0.10000000000E+01 0.  0.
<mgrwt>
<rscale>  0 0.12500368E+03</rscale>
<asrwt>0</asrwt>
<pdfrwt beam="2">  1        4 0.12432876E+00 0.12500368E+03</pdfrwt>
<pdfrwt beam="1">  1       -4 0.19637854E-02 0.12500368E+03</pdfrwt>
<totfact> 0.86783189E+02</totfact>
</mgrwt>
</event>
<event>
 5    1  0.1446384E-002  0.1249969E+03  0.7818608E-02  0.1235074E+00
          4   -1    0    0  501    0  0.00000000000E+00  0.00000000000E+00  0.46499291371E+02  0.46516631413E+02  0.12700000000E+01 0.  1.
         -4   -1    0    0    0  501 -0.00000000000E+00 -0.00000000000E+00 -0.83964725434E+02  0.83974329513E+02  0.12700000000E+01 0.  1.
         25    2    1    2    0    0  0.00000000000E+00  0.00000000000E+00 -0.37465434062E+02  0.13049096093E+03  0.12499692850E+03 0.  0.
    9000005    1    3    3    0    0 -0.17193712724E+02  0.32598024114E+02 -0.71416720878E+02  0.80371655167E+02  0.10000000000E+01 0.  0.
    9000005    1    3    3    0    0  0.17193712724E+02 -0.32598024114E+02  0.33951286815E+02  0.50119305759E+02  0.10000000000E+01 0.  0.
<mgrwt>
<rscale>  0 0.12499693E+03</rscale>
<asrwt>0</asrwt>
<pdfrwt beam="1">  1        4 0.11628191E-01 0.12499693E+03</pdfrwt>
<pdfrwt beam="2">  1       -4 0.20994549E-01 0.12499693E+03</pdfrwt>
<totfact> 0.19539426E+03</totfact>
</mgrwt>
</event>
<event>
 5    1  0.1446384E-002  0.1249965E+03  0.7818608E-02  0.1235075E+00
         -4   -1    0    0    0  501 -0.00000000000E+00  0.00000000000E+00  0.61138936445E+02  0.61152125471E+02  0.12700000000E+01 0.  1.
          4   -1    0    0  501    0  0.00000000000E+00 -0.00000000000E+00 -0.63861368837E+02  0.63873995724E+02  0.12700000000E+01 0.  1.
         25    2    1    2    0    0  0.00000000000E+00  0.00000000000E+00 -0.27224323919E+01  0.12502612119E+03  0.12499647732E+03 0.  0.
    9000005    1    3    3    0    0 -0.41688081944E+01  0.12909806946E+02  0.59653150058E+02  0.61184478334E+02  0.10000000000E+01 0.  0.
    9000005    1    3    3    0    0  0.41688081944E+01 -0.12909806946E+02 -0.62375582450E+02  0.63841642861E+02  0.10000000000E+01 0.  0.
<mgrwt>
<rscale>  0 0.12499648E+03</rscale>
<asrwt>0</asrwt>
<pdfrwt beam="2">  1        4 0.15968569E-01 0.12499648E+03</pdfrwt>
<pdfrwt beam="1">  1       -4 0.15287961E-01 0.12499648E+03</pdfrwt>
<totfact> 0.19835274E+03</totfact>
</mgrwt>
</event>
<event>
 5    1  0.1446384E-002  0.1249998E+03  0.7818608E-02  0.1235070E+00
         -4   -1    0    0    0  501 -0.00000000000E+00  0.00000000000E+00  0.47039953878E+01  0.48724195846E+01  0.12700000000E+01 0.  1.
          4   -1    0    0  501    0  0.00000000000E+00 -0.00000000000E+00 -0.81563419201E+03  0.81563518075E+03  0.12700000000E+01 0.  1.
         25    2    1    2    0    0  0.00000000000E+00  0.00000000000E+00 -0.81093019663E+03  0.82050760034E+03  0.12499975365E+03 0.  0.
    9000005    1    3    3    0    0  0.49363920382E+02 -0.32154368115E+02 -0.26863374509E+03  0.27501961571E+03  0.10000000000E+01 0.  0.
    9000005    1    3    3    0    0 -0.49363920382E+02  0.32154368115E+02 -0.54229645153E+03  0.54548798463E+03  0.10000000000E+01 0.  0.
<mgrwt>
<rscale>  0 0.12499975E+03</rscale>
<asrwt>0</asrwt>
<pdfrwt beam="2">  1        4 0.20392925E+00 0.12499975E+03</pdfrwt>
<pdfrwt beam="1">  1       -4 0.11971783E-02 0.12499975E+03</pdfrwt>
<totfact> 0.50696981E+02</totfact>
</mgrwt>
</event>
<event>
 5    1  0.1446384E-002  0.1249973E+03  0.7818608E-02  0.1235073E+00
         -4   -1    0    0    0  501 -0.00000000000E+00  0.00000000000E+00  0.30577010511E+02  0.30603373536E+02  0.12700000000E+01 0. -1.
          4   -1    0    0  501    0  0.00000000000E+00 -0.00000000000E+00 -0.12766115155E+03  0.12766746850E+03  0.12700000000E+01 0. -1.
         25    2    1    2    0    0  0.00000000000E+00  0.00000000000E+00 -0.97084141036E+02  0.15827084204E+03  0.12499731597E+03 0.  0.
    9000005    1    3    3    0    0  0.27223012682E+02  0.42839311014E+02 -0.94697978597E+02  0.10744769024E+03  0.10000000000E+01 0.  0.
    9000005    1    3    3    0    0 -0.27223012682E+02 -0.42839311014E+02 -0.23861624393E+01  0.50823151800E+02  0.10000000000E+01 0.  0.
<mgrwt>
<rscale>  0 0.12499732E+03</rscale>
<asrwt>0</asrwt>
<pdfrwt beam="2">  1        4 0.31919372E-01 0.12499732E+03</pdfrwt>
<pdfrwt beam="1">  1       -4 0.76483379E-02 0.12499732E+03</pdfrwt>
<totfact> 0.18140568E+03</totfact>
</mgrwt>
</event>
<event>
 5    1  0.1446384E-002  0.1250000E+03  0.7818608E-02  0.1235069E+00
          4   -1    0    0  501    0  0.00000000000E+00  0.00000000000E+00  0.84261839702E+02  0.84271409920E+02  0.12700000000E+01 0.  1.
         -4   -1    0    0    0  501 -0.00000000000E+00 -0.00000000000E+00 -0.46337574090E+02  0.46354974625E+02  0.12700000000E+01 0.  1.
         25    2    1    2    0    0  0.00000000000E+00  0.00000000000E+00  0.37924265613E+02  0.13062638455E+03  0.12500000967E+03 0.  0.
    9000005    1    3    3    0    0  0.60735576740E+01 -0.41916691608E+02 -0.29055564862E+02  0.51372395191E+02  0.10000000000E+01 0.  0.
    9000005    1    3    3    0    0 -0.60735576740E+01  0.41916691608E+02  0.66979830475E+02  0.79253989355E+02  0.10000000000E+01 0.  0.
<mgrwt>
<rscale>  0 0.12500001E+03</rscale>
<asrwt>0</asrwt>
<pdfrwt beam="1">  1        4 0.21068831E-01 0.12500001E+03</pdfrwt>
<pdfrwt beam="2">  1       -4 0.11587765E-01 0.12500001E+03</pdfrwt>
<totfact> 0.19530764E+03</totfact>
</mgrwt>
</event>
<event>
 5    1  0.1446384E-002  0.1250027E+03  0.7818608E-02  0.1235065E+00
          4   -1    0    0  501    0  0.00000000000E+00  0.00000000000E+00  0.16960909553E+03  0.16961385022E+03  0.12700000000E+01 0. -1.
         -4   -1    0    0    0  501 -0.00000000000E+00 -0.00000000000E+00 -0.23009321230E+02  0.23044343416E+02  0.12700000000E+01 0. -1.
         25    2    1    2    0    0  0.00000000000E+00  0.00000000000E+00  0.14659977430E+03  0.19265819364E+03  0.12500274297E+03 0.  0.
    9000005    1    3    3    0    0  0.22441918093E+00 -0.43727319142E+02  0.14211019044E+03  0.14868905484E+03  0.10000000000E+01 0.  0.
    9000005    1    3    3    0    0 -0.22441918093E+00  0.43727319142E+02  0.44895838642E+01  0.43969138798E+02  0.10000000000E+01 0.  0.
<mgrwt>
<rscale>  0 0.12500274E+03</rscale>
<asrwt>0</asrwt>
<pdfrwt beam="1">  1        4 0.42407245E-01 0.12500274E+03</pdfrwt>
<pdfrwt beam="2">  1       -4 0.57573025E-02 0.12500274E+03</pdfrwt>
<totfact> 0.16619247E+03</totfact>
</mgrwt>
</event>
<event>
 5    1  0.1446384E-002  0.1249989E+03  0.7818608E-02  0.1235071E+00
         -4   -1    0    0    0  501 -0.00000000000E+00  0.00000000000E+00  0.31759673824E+02  0.31785055944E+02  0.12700000000E+01 0.  1.
          4   -1    0    0  501    0  0.00000000000E+00 -0.00000000000E+00 -0.12291412778E+03  0.12292068869E+03  0.12700000000E+01 0.  1.
         25    2    1    2    0    0  0.00000000000E+00  0.00000000000E+00 -0.91154453956E+02  0.15470574463E+03  0.12499893178E+03 0.  0.
    9000005    1    3    3    0    0 -0.35687467104E+02  0.50155100597E+02 -0.32244166633E+02  0.69496875513E+02  0.10000000000E+01 0.  0.
    9000005    1    3    3    0    0  0.35687467104E+02 -0.50155100597E+02 -0.58910287323E+02  0.85208869120E+02  0.10000000000E+01 0.  0.
<mgrwt>
<rscale>  0 0.12499893E+03</rscale>
<asrwt>0</asrwt>
<pdfrwt beam="2">  1        4 0.30732524E-01 0.12499893E+03</pdfrwt>
<pdfrwt beam="1">  1       -4 0.79439116E-02 0.12499893E+03</pdfrwt>
<totfact> 0.18310249E+03</totfact>
</mgrwt>
</event>
<event>
 5    1  0.1446384E-002  0.1249991E+03  0.7818608E-02  0.1235071E+00
          4   -1    0    0  501    0  0.00000000000E+00  0.00000000000E+00  0.25137561132E+02  0.25169622160E+02  0.12700000000E+01 0. -1.
         -4   -1    0    0    0  501 -0.00000000000E+00 -0.00000000000E+00 -0.15525909098E+03  0.15526428512E+03  0.12700000000E+01 0. -1.
         25    2    1    2    0    0  0.00000000000E+00  0.00000000000E+00 -0.13012152985E+03  0.18043390728E+03  0.12499912945E+03 0.  0.
    9000005    1    3    3    0    0 -0.65100603351E+01  0.57939546461E+02 -0.97525415726E+02  0.11362912761E+03  0.10000000000E+01 0.  0.
    9000005    1    3    3    0    0  0.65100603351E+01 -0.57939546461E+02 -0.32596114123E+02  0.66804779661E+02  0.10000000000E+01 0.  0.
<mgrwt>
<rscale>  0 0.12499913E+03</rscale>
<asrwt>0</asrwt>
<pdfrwt beam="1">  1        4 0.62890476E-02 0.12499913E+03</pdfrwt>
<pdfrwt beam="2">  1       -4 0.38819427E-01 0.12499913E+03</pdfrwt>
<totfact> 0.17136795E+03</totfact>
</mgrwt>
</event>
<event>
 5    1  0.1446384E-002  0.1249987E+03  0.7818608E-02  0.1235071E+00
          4   -1    0    0  501    0  0.00000000000E+00  0.00000000000E+00  0.38874233001E+03  0.38874440452E+03  0.12700000000E+01 0. -1.
         -4   -1    0    0    0  501 -0.00000000000E+00 -0.00000000000E+00 -0.10005975247E+02  0.10086250078E+02  0.12700000000E+01 0. -1.
         25    2    1    2    0    0  0.00000000000E+00  0.00000000000E+00  0.37873635477E+03  0.39883065460E+03  0.12499865849E+03 0.  0.
    9000005    1    3    3    0    0  0.39231378237E+02 -0.48005660914E+02  0.16434184986E+03  0.17564990217E+03  0.10000000000E+01 0.  0.
    9000005    1    3    3    0    0 -0.39231378237E+02  0.48005660914E+02  0.21439450491E+03  0.22318075242E+03  0.10000000000E+01 0.  0.
<mgrwt>
<rscale>  0 0.12499866E+03</rscale>
<asrwt>0</asrwt>
<pdfrwt beam="1">  1        4 0.97195879E-01 0.12499866E+03</pdfrwt>
<pdfrwt beam="2">  1       -4 0.25117874E-02 0.12499866E+03</pdfrwt>
<totfact> 0.10593649E+03</totfact>
</mgrwt>
</event>
<event>
 5    1  0.1446384E-002  0.1249991E+03  0.7818608E-02  0.1235071E+00
          4   -1    0    0  501    0  0.00000000000E+00  0.00000000000E+00  0.85579609349E+03  0.85579703583E+03  0.12700000000E+01 0. -1.
         -4   -1    0    0    0  501 -0.00000000000E+00 -0.00000000000E+00 -0.44750958124E+01  0.46518149717E+01  0.12700000000E+01 0. -1.
         25    2    1    2    0    0  0.00000000000E+00  0.00000000000E+00  0.85132099768E+03  0.86044885080E+03  0.12499913502E+03 0.  0.
    9000005    1    3    3    0    0 -0.23505801919E+02 -0.19727448311E+02  0.80039233412E+03  0.80098101317E+03  0.10000000000E+01 0.  0.
    9000005    1    3    3    0    0  0.23505801919E+02  0.19727448311E+02  0.50928663562E+02  0.59467837634E+02  0.10000000000E+01 0.  0.
<mgrwt>
<rscale>  0 0.12499914E+03</rscale>
<asrwt>0</asrwt>
<pdfrwt beam="1">  1        4 0.21397129E+00 0.12499914E+03</pdfrwt>
<pdfrwt beam="2">  1       -4 0.11409813E-02 0.12499914E+03</pdfrwt>
<totfact> 0.47381038E+02</totfact>
</mgrwt>
</event>
<event>
 5    1  0.1446384E-002  0.1250298E+03  0.7818608E-02  0.1235023E+00
         -4   -1    0    0    0  501 -0.00000000000E+00  0.00000000000E+00  0.10352497734E+03  0.10353276696E+03  0.12700000000E+01 0.  1.
          4   -1    0    0  501    0  0.00000000000E+00 -0.00000000000E+00 -0.37730521788E+02  0.37751889680E+02  0.12700000000E+01 0.  1.
         25    2    1    2    0    0  0.00000000000E+00  0.00000000000E+00  0.65794455555E+02  0.14128465664E+03  0.12502977173E+03 0.  0.
    9000005    1    3    3    0    0 -0.38135059232E+02  0.13558070678E+02 -0.20929685223E+02  0.45575824147E+02  0.10000000000E+01 0.  0.
    9000005    1    3    3    0    0  0.38135059232E+02 -0.13558070678E+02  0.86724140778E+02  0.95708832491E+02  0.10000000000E+01 0.  0.
<mgrwt>
<rscale>  0 0.12502977E+03</rscale>
<asrwt>0</asrwt>
<pdfrwt beam="2">  1        4 0.94362753E-02 0.12502977E+03</pdfrwt>
<pdfrwt beam="1">  1       -4 0.25884889E-01 0.12502977E+03</pdfrwt>
<totfact> 0.18961649E+03</totfact>
</mgrwt>
</event>
<event>
 5    1  0.1446384E-002  0.1250004E+03  0.7818608E-02  0.1235069E+00
          4   -1    0    0  501    0  0.00000000000E+00  0.00000000000E+00  0.29132772731E+02  0.29160441474E+02  0.12700000000E+01 0.  1.
         -4   -1    0    0    0  501 -0.00000000000E+00 -0.00000000000E+00 -0.13399099172E+03  0.13399701028E+03  0.12700000000E+01 0.  1.
         25    2    1    2    0    0  0.00000000000E+00  0.00000000000E+00 -0.10485821899E+03  0.16315745175E+03  0.12500043189E+03 0.  0.
    9000005    1    3    3    0    0  0.58681543248E+02  0.11505826845E+02 -0.76117581067E+02  0.96802860066E+02  0.10000000000E+01 0.  0.
    9000005    1    3    3    0    0 -0.58681543248E+02 -0.11505826845E+02 -0.28740637925E+02  0.66354591685E+02  0.10000000000E+01 0.  0.
<mgrwt>
<rscale>  0 0.12500043E+03</rscale>
<asrwt>0</asrwt>
<pdfrwt beam="1">  1        4 0.72874044E-02 0.12500043E+03</pdfrwt>
<pdfrwt beam="2">  1       -4 0.33501957E-01 0.12500043E+03</pdfrwt>
<totfact> 0.17909985E+03</totfact>
</mgrwt>
</event>
<event>
 5    1  0.1446384E-002  0.1250012E+03  0.7818608E-02  0.1235067E+00
         -4   -1    0    0    0  501 -0.00000000000E+00  0.00000000000E+00  0.10273992834E+03  0.10274777747E+03  0.12700000000E+01 0. -1.
          4   -1    0    0  501    0  0.00000000000E+00 -0.00000000000E+00 -0.38001594582E+02  0.38022810138E+02  0.12700000000E+01 0. -1.
         25    2    1    2    0    0  0.00000000000E+00  0.00000000000E+00  0.64738333759E+02  0.14077058761E+03  0.12500122591E+03 0.  0.
    9000005    1    3    3    0    0  0.43210100948E+02  0.34387312367E+02  0.65312319100E+02  0.85535367551E+02  0.10000000000E+01 0.  0.
    9000005    1    3    3    0    0 -0.43210100948E+02 -0.34387312367E+02 -0.57398534100E+00  0.55235220059E+02  0.10000000000E+01 0.  0.
<mgrwt>
<rscale>  0 0.12500123E+03</rscale>
<asrwt>0</asrwt>
<pdfrwt beam="2">  1        4 0.95040318E-02 0.12500123E+03</pdfrwt>
<pdfrwt beam="1">  1       -4 0.25688615E-01 0.12500123E+03</pdfrwt>
<totfact> 0.19000446E+03</totfact>
</mgrwt>
</event>
<event>
 5    1  0.1446384E-002  0.1249993E+03  0.7818608E-02  0.1235070E+00
         -4   -1    0    0    0  501 -0.00000000000E+00  0.00000000000E+00  0.13374885589E+02  0.13435046130E+02  0.12700000000E+01 0. -1.
          4   -1    0    0  501    0  0.00000000000E+00 -0.00000000000E+00 -0.29133847180E+03  0.29134123987E+03  0.12700000000E+01 0. -1.
         25    2    1    2    0    0  0.00000000000E+00  0.00000000000E+00 -0.27796358621E+03  0.30477628600E+03  0.12499931700E+03 0.  0.
    9000005    1    3    3    0    0  0.57012832457E+02 -0.71650580322E+01 -0.79088469538E+02  0.97763935760E+02  0.10000000000E+01 0.  0.
    9000005    1    3    3    0    0 -0.57012832457E+02  0.71650580322E+01 -0.19887511667E+03  0.20701235024E+03  0.10000000000E+01 0.  0.
<mgrwt>
<rscale>  0 0.12499932E+03</rscale>
<asrwt>0</asrwt>
<pdfrwt beam="2">  1        4 0.72842463E-01 0.12499932E+03</pdfrwt>
<pdfrwt beam="1">  1       -4 0.33515884E-02 0.12499932E+03</pdfrwt>
<totfact> 0.12838443E+03</totfact>
</mgrwt>
</event>
<event>
 5    1  0.1446384E-002  0.1250021E+03  0.7818608E-02  0.1235066E+00
         -4   -1    0    0    0  501 -0.00000000000E+00  0.00000000000E+00  0.12674191247E+03  0.12674827524E+03  0.12700000000E+01 0.  1.
          4   -1    0    0  501    0  0.00000000000E+00 -0.00000000000E+00 -0.30801305475E+02  0.30827476689E+02  0.12700000000E+01 0.  1.
         25    2    1    2    0    0  0.00000000000E+00  0.00000000000E+00  0.95940606993E+02  0.15757575193E+03  0.12500207008E+03 0.  0.
    9000005    1    3    3    0    0  0.61545216632E+02  0.73392796750E+01  0.58031373390E+02  0.84913597344E+02  0.10000000000E+01 0.  0.
    9000005    1    3    3    0    0 -0.61545216632E+02 -0.73392796750E+01  0.37909233604E+02  0.72662154584E+02  0.10000000000E+01 0.  0.
<mgrwt>
<rscale>  0 0.12500207E+03</rscale>
<asrwt>0</asrwt>
<pdfrwt beam="2">  1        4 0.77043932E-02 0.12500207E+03</pdfrwt>
<pdfrwt beam="1">  1       -4 0.31689545E-01 0.12500207E+03</pdfrwt>
<totfact> 0.18171568E+03</totfact>
</mgrwt>
</event>
<event>
 5    1  0.1446384E-002  0.1250004E+03  0.7818608E-02  0.1235069E+00
         -4   -1    0    0    0  501 -0.00000000000E+00  0.00000000000E+00  0.53659362080E+01  0.55141791219E+01  0.12700000000E+01 0.  1.
          4   -1    0    0  501    0  0.00000000000E+00 -0.00000000000E+00 -0.71790919914E+03  0.71791032247E+03  0.12700000000E+01 0.  1.
         25    2    1    2    0    0  0.00000000000E+00  0.00000000000E+00 -0.71254326293E+03  0.72342450159E+03  0.12500043182E+03 0.  0.
    9000005    1    3    3    0    0  0.24231500594E+02  0.52657809771E+02 -0.49141230648E+03  0.49482023555E+03  0.10000000000E+01 0.  0.
    9000005    1    3    3    0    0 -0.24231500594E+02 -0.52657809771E+02 -0.22113095645E+03  0.22860426604E+03  0.10000000000E+01 0.  0.
<mgrwt>
<rscale>  0 0.12500043E+03</rscale>
<asrwt>0</asrwt>
<pdfrwt beam="2">  1        4 0.17949565E+00 0.12500043E+03</pdfrwt>
<pdfrwt beam="1">  1       -4 0.13601573E-02 0.12500043E+03</pdfrwt>
<totfact> 0.59668918E+02</totfact>
</mgrwt>
</event>
<event>
 5    1  0.1446384E-002  0.1250006E+03  0.7818608E-02  0.1235068E+00
         -4   -1    0    0    0  501 -0.00000000000E+00  0.00000000000E+00  0.94650001830E+01  0.95498234781E+01  0.12700000000E+01 0. -1.
          4   -1    0    0  501    0  0.00000000000E+00 -0.00000000000E+00 -0.41078152634E+03  0.41078348954E+03  0.12700000000E+01 0. -1.
         25    2    1    2    0    0  0.00000000000E+00  0.00000000000E+00 -0.40131652616E+03  0.42033331302E+03  0.12500055948E+03 0.  0.
    9000005    1    3    3    0    0  0.22508134422E+02 -0.29623803235E+01 -0.48753171289E+01  0.23241353864E+02  0.10000000000E+01 0.  0.
    9000005    1    3    3    0    0 -0.22508134422E+02  0.29623803235E+01 -0.39644120903E+03  0.39709195916E+03  0.10000000000E+01 0.  0.
<mgrwt>
<rscale>  0 0.12500056E+03</rscale>
<asrwt>0</asrwt>
<pdfrwt beam="2">  1        4 0.10270617E+00 0.12500056E+03</pdfrwt>
<pdfrwt beam="1">  1       -4 0.23770997E-02 0.12500056E+03</pdfrwt>
<totfact> 0.10159439E+03</totfact>
</mgrwt>
</event>
<event>
 5    1  0.1446384E-002  0.1250036E+03  0.7818608E-02  0.1235064E+00
         -4   -1    0    0    0  501 -0.00000000000E+00  0.00000000000E+00  0.42818276089E+02  0.42837106196E+02  0.12700000000E+01 0. -1.
          4   -1    0    0  501    0  0.00000000000E+00 -0.00000000000E+00 -0.91190557713E+02  0.91199400853E+02  0.12700000000E+01 0. -1.
         25    2    1    2    0    0  0.00000000000E+00  0.00000000000E+00 -0.48372281623E+02  0.13403650705E+03  0.12500363032E+03 0.  0.
    9000005    1    3    3    0    0 -0.32752353505E+02  0.49355071083E+02 -0.45546407088E+02  0.74726935574E+02  0.10000000000E+01 0.  0.
    9000005    1    3    3    0    0  0.32752353505E+02 -0.49355071083E+02 -0.28258745357E+01  0.59309571475E+02  0.10000000000E+01 0.  0.
<mgrwt>
<rscale>  0 0.12500363E+03</rscale>
<asrwt>0</asrwt>
<pdfrwt beam="2">  1        4 0.22801098E-01 0.12500363E+03</pdfrwt>
<pdfrwt beam="1">  1       -4 0.10708028E-01 0.12500363E+03</pdfrwt>
<totfact> 0.19348084E+03</totfact>
</mgrwt>
</event>
<event>
 5    1  0.1446384E-002  0.1250024E+03  0.7818608E-02  0.1235066E+00
          4   -1    0    0  501    0  0.00000000000E+00  0.00000000000E+00  0.29768494545E+03  0.29768765451E+03  0.12700000000E+01 0.  1.
         -4   -1    0    0    0  501 -0.00000000000E+00 -0.00000000000E+00 -0.13089097531E+02  0.13150565545E+02  0.12700000000E+01 0.  1.
         25    2    1    2    0    0  0.00000000000E+00  0.00000000000E+00  0.28459584792E+03  0.31083822006E+03  0.12500240955E+03 0.  0.
    9000005    1    3    3    0    0 -0.10474266246E+02  0.55025346997E+02  0.73390058652E+02  0.92328759195E+02  0.10000000000E+01 0.  0.
    9000005    1    3    3    0    0  0.10474266246E+02 -0.55025346997E+02  0.21120578927E+03  0.21850946087E+03  0.10000000000E+01 0.  0.
<mgrwt>
<rscale>  0 0.12500241E+03</rscale>
<asrwt>0</asrwt>
<pdfrwt beam="1">  1        4 0.74429260E-01 0.12500241E+03</pdfrwt>
<pdfrwt beam="2">  1       -4 0.32802964E-02 0.12500241E+03</pdfrwt>
<totfact> 0.12671941E+03</totfact>
</mgrwt>
</event>
<event>
 5    1  0.1446384E-002  0.1249961E+03  0.7818608E-02  0.1235075E+00
         -4   -1    0    0    0  501 -0.00000000000E+00  0.00000000000E+00  0.56186418535E+03  0.56186562066E+03  0.12700000000E+01 0.  1.
          4   -1    0    0  501    0  0.00000000000E+00 -0.00000000000E+00 -0.68924084133E+01  0.70084373248E+01  0.12700000000E+01 0.  1.
         25    2    1    2    0    0  0.00000000000E+00  0.00000000000E+00  0.55497177694E+03  0.56887405799E+03  0.12499608254E+03 0.  0.
    9000005    1    3    3    0    0 -0.50217420325E+02 -0.30564611688E+02  0.37392489980E+03  0.37851924057E+03  0.10000000000E+01 0.  0.
    9000005    1    3    3    0    0  0.50217420325E+02  0.30564611688E+02  0.18104687714E+03  0.19035481742E+03  0.10000000000E+01 0.  0.
<mgrwt>
<rscale>  0 0.12499608E+03</rscale>
<asrwt>0</asrwt>
<pdfrwt beam="2">  1        4 0.17377852E-02 0.12499608E+03</pdfrwt>
<pdfrwt beam="1">  1       -4 0.14048072E+00 0.12499608E+03</pdfrwt>
<totfact> 0.77571115E+02</totfact>
</mgrwt>
</event>
<event>
 5    1  0.1446384E-002  0.1249999E+03  0.7818608E-02  0.1235069E+00
          4   -1    0    0  501    0  0.00000000000E+00  0.00000000000E+00  0.10933264262E+03  0.10934001849E+03  0.12700000000E+01 0. -1.
         -4   -1    0    0    0  501 -0.00000000000E+00 -0.00000000000E+00 -0.35708173179E+02  0.35730750507E+02  0.12700000000E+01 0. -1.
         25    2    1    2    0    0  0.00000000000E+00  0.00000000000E+00  0.73624469445E+02  0.14507076900E+03  0.12499986206E+03 0.  0.
    9000005    1    3    3    0    0  0.29137155608E+02 -0.45830864287E+02  0.72692344317E+02  0.90744800845E+02  0.10000000000E+01 0.  0.
    9000005    1    3    3    0    0 -0.29137155608E+02  0.45830864287E+02  0.93212512816E+00  0.54325968150E+02  0.10000000000E+01 0.  0.
<mgrwt>
<rscale>  0 0.12499986E+03</rscale>
<asrwt>0</asrwt>
<pdfrwt beam="1">  1        4 0.27336905E-01 0.12499986E+03</pdfrwt>
<pdfrwt beam="2">  1       -4 0.89307875E-02 0.12499986E+03</pdfrwt>
<totfact> 0.18783870E+03</totfact>
</mgrwt>
</event>
<event>
 5    1  0.1446384E-002  0.1249997E+03  0.7818608E-02  0.1235070E+00
         -4   -1    0    0    0  501 -0.00000000000E+00  0.00000000000E+00  0.41114908151E+02  0.41134518014E+02  0.12700000000E+01 0. -1.
          4   -1    0    0  501    0  0.00000000000E+00 -0.00000000000E+00 -0.94961176498E+02  0.94969668536E+02  0.12700000000E+01 0. -1.
         25    2    1    2    0    0  0.00000000000E+00  0.00000000000E+00 -0.53846268347E+02  0.13610418655E+03  0.12499971593E+03 0.  0.
    9000005    1    3    3    0    0  0.51177127503E+02  0.33497383297E+02 -0.12976714682E+02  0.62534535987E+02  0.10000000000E+01 0.  0.
    9000005    1    3    3    0    0 -0.51177127503E+02 -0.33497383297E+02 -0.40869553664E+02  0.73569650563E+02  0.10000000000E+01 0.  0.
<mgrwt>
<rscale>  0 0.12499972E+03</rscale>
<asrwt>0</asrwt>
<pdfrwt beam="2">  1        4 0.23743806E-01 0.12499972E+03</pdfrwt>
<pdfrwt beam="1">  1       -4 0.10282240E-01 0.12499972E+03</pdfrwt>
<totfact> 0.19241584E+03</totfact>
</mgrwt>
</event>
<event>
 5    1  0.1446384E-002  0.1250048E+03  0.7818608E-02  0.1235062E+00
         -4   -1    0    0    0  501 -0.00000000000E+00  0.00000000000E+00  0.23946393055E+03  0.23946729826E+03  0.12700000000E+01 0.  1.
          4   -1    0    0  501    0  0.00000000000E+00 -0.00000000000E+00 -0.16285512926E+02  0.16334957338E+02  0.12700000000E+01 0.  1.
         25    2    1    2    0    0  0.00000000000E+00  0.00000000000E+00  0.22317841763E+03  0.25580225560E+03  0.12500475141E+03 0.  0.
    9000005    1    3    3    0    0  0.13607482757E+02 -0.56489728733E+02  0.15866810864E+03  0.16897580222E+03  0.10000000000E+01 0.  0.
    9000005    1    3    3    0    0 -0.13607482757E+02  0.56489728733E+02  0.64510308993E+02  0.86826453375E+02  0.10000000000E+01 0.  0.
<mgrwt>
<rscale>  0 0.12500475E+03</rscale>
<asrwt>0</asrwt>
<pdfrwt beam="2">  1        4 0.40779798E-02 0.12500475E+03</pdfrwt>
<pdfrwt beam="1">  1       -4 0.59872584E-01 0.12500475E+03</pdfrwt>
<totfact> 0.14305382E+03</totfact>
</mgrwt>
</event>
<event>
 5    1  0.1446384E-002  0.1249986E+03  0.7818608E-02  0.1235071E+00
         -4   -1    0    0    0  501 -0.00000000000E+00  0.00000000000E+00  0.42209483922E+02  0.42228585496E+02  0.12700000000E+01 0. -1.
          4   -1    0    0  501    0  0.00000000000E+00 -0.00000000000E+00 -0.92497912294E+02  0.92506630458E+02  0.12700000000E+01 0. -1.
         25    2    1    2    0    0  0.00000000000E+00  0.00000000000E+00 -0.50288428372E+02  0.13473521595E+03  0.12499860955E+03 0.  0.
    9000005    1    3    3    0    0 -0.53348571013E+02 -0.30630760689E+02 -0.13294756028E+02  0.62944928846E+02  0.10000000000E+01 0.  0.
    9000005    1    3    3    0    0  0.53348571013E+02  0.30630760689E+02 -0.36993672345E+02  0.71790287108E+02  0.10000000000E+01 0.  0.
<mgrwt>
<rscale>  0 0.12499861E+03</rscale>
<asrwt>0</asrwt>
<pdfrwt beam="2">  1        4 0.23127955E-01 0.12499861E+03</pdfrwt>
<pdfrwt beam="1">  1       -4 0.10555849E-01 0.12499861E+03</pdfrwt>
<totfact> 0.19313642E+03</totfact>
</mgrwt>
</event>
<event>
 5    1  0.1446384E-002  0.1249990E+03  0.7818608E-02  0.1235071E+00
         -4   -1    0    0    0  501 -0.00000000000E+00  0.00000000000E+00  0.14235891963E+04  0.14235897628E+04  0.12700000000E+01 0. -1.
          4   -1    0    0  501    0  0.00000000000E+00 -0.00000000000E+00 -0.25963512624E+01  0.28903183004E+01  0.12700000000E+01 0. -1.
         25    2    1    2    0    0  0.00000000000E+00  0.00000000000E+00  0.14209928451E+04  0.14264800811E+04  0.12499902440E+03 0.  0.
    9000005    1    3    3    0    0 -0.12654006596E+02  0.55790306069E+02  0.99750291358E+03  0.99914250472E+03  0.10000000000E+01 0.  0.
    9000005    1    3    3    0    0  0.12654006596E+02 -0.55790306069E+02  0.42348993148E+03  0.42733757640E+03  0.10000000000E+01 0.  0.
<mgrwt>
<rscale>  0 0.12499902E+03</rscale>
<asrwt>0</asrwt>
<pdfrwt beam="2">  1        4 0.68590388E-03 0.12499902E+03</pdfrwt>
<pdfrwt beam="1">  1       -4 0.35593444E+00 0.12499902E+03</pdfrwt>
<totfact> 0.15076137E+02</totfact>
</mgrwt>
</event>
<event>
 5    1  0.1446384E-002  0.1250001E+03  0.7818608E-02  0.1235069E+00
          4   -1    0    0  501    0  0.00000000000E+00  0.00000000000E+00  0.77676330947E+02  0.77686712437E+02  0.12700000000E+01 0.  1.
         -4   -1    0    0    0  501 -0.00000000000E+00 -0.00000000000E+00 -0.50267118328E+02  0.50283159059E+02  0.12700000000E+01 0.  1.
         25    2    1    2    0    0  0.00000000000E+00  0.00000000000E+00  0.27409212619E+02  0.12796987150E+03  0.12500009230E+03 0.  0.
    9000005    1    3    3    0    0 -0.49428498354E+02  0.36985257877E+02  0.23639282787E+02  0.66112793319E+02  0.10000000000E+01 0.  0.
    9000005    1    3    3    0    0  0.49428498354E+02 -0.36985257877E+02  0.37699298315E+01  0.61857078178E+02  0.10000000000E+01 0.  0.
<mgrwt>
<rscale>  0 0.12500009E+03</rscale>
<asrwt>0</asrwt>
<pdfrwt beam="1">  1        4 0.19422385E-01 0.12500009E+03</pdfrwt>
<pdfrwt beam="2">  1       -4 0.12570082E-01 0.12500009E+03</pdfrwt>
<totfact> 0.19674131E+03</totfact>
</mgrwt>
</event>
<event>
 5    1  0.1446384E-002  0.1250013E+03  0.7818608E-02  0.1235067E+00
         -4   -1    0    0    0  501 -0.00000000000E+00  0.00000000000E+00  0.38877917397E+03  0.38878124828E+03  0.12700000000E+01 0.  1.
          4   -1    0    0  501    0  0.00000000000E+00 -0.00000000000E+00 -0.10005450475E+02  0.10085729484E+02  0.12700000000E+01 0.  1.
         25    2    1    2    0    0  0.00000000000E+00  0.00000000000E+00  0.37877372349E+03  0.39886697776E+03  0.12500132935E+03 0.  0.
    9000005    1    3    3    0    0 -0.59494481601E+02 -0.19092482850E+02  0.19290676407E+03  0.20277607321E+03  0.10000000000E+01 0.  0.
    9000005    1    3    3    0    0  0.59494481601E+02  0.19092482850E+02  0.18586695942E+03  0.19609090455E+03  0.10000000000E+01 0.  0.
<mgrwt>
<rscale>  0 0.12500133E+03</rscale>
<asrwt>0</asrwt>
<pdfrwt beam="2">  1        4 0.25116568E-02 0.12500133E+03</pdfrwt>
<pdfrwt beam="1">  1       -4 0.97205087E-01 0.12500133E+03</pdfrwt>
<totfact> 0.10592255E+03</totfact>
</mgrwt>
</event>
<event>
 5    1  0.1446384E-002  0.1249924E+03  0.7818608E-02  0.1235081E+00
          4   -1    0    0  501    0  0.00000000000E+00  0.00000000000E+00  0.83072282615E+02  0.83081989859E+02  0.12700000000E+01 0.  1.
         -4   -1    0    0    0  501 -0.00000000000E+00 -0.00000000000E+00 -0.46995558077E+02  0.47012715077E+02  0.12700000000E+01 0.  1.
         25    2    1    2    0    0  0.00000000000E+00  0.00000000000E+00  0.36076724539E+02  0.13009470494E+03  0.12499240857E+03 0.  0.
    9000005    1    3    3    0    0 -0.28830480402E+02  0.16921429866E+02 -0.36911105556E+02  0.49809247156E+02  0.10000000000E+01 0.  0.
    9000005    1    3    3    0    0  0.28830480402E+02 -0.16921429866E+02  0.72987830095E+02  0.80285457780E+02  0.10000000000E+01 0.  0.
<mgrwt>
<rscale>  0 0.12499241E+03</rscale>
<asrwt>0</asrwt>
<pdfrwt beam="1">  1        4 0.20771429E-01 0.12499241E+03</pdfrwt>
<pdfrwt beam="2">  1       -4 0.11752248E-01 0.12499241E+03</pdfrwt>
<totfact> 0.19562759E+03</totfact>
</mgrwt>
</event>
<event>
 5    1  0.1446384E-002  0.1250014E+03  0.7818608E-02  0.1235067E+00
         -4   -1    0    0    0  501 -0.00000000000E+00  0.00000000000E+00  0.18200792092E+02  0.18245046801E+02  0.12700000000E+01 0.  1.
          4   -1    0    0  501    0  0.00000000000E+00 -0.00000000000E+00 -0.21431780632E+03  0.21432156915E+03  0.12700000000E+01 0.  1.
         25    2    1    2    0    0  0.00000000000E+00  0.00000000000E+00 -0.19611701422E+03  0.23256661595E+03  0.12500139034E+03 0.  0.
    9000005    1    3    3    0    0 -0.54040571924E+02  0.27478079572E+02 -0.12626896681E+03  0.14007241074E+03  0.10000000000E+01 0.  0.
    9000005    1    3    3    0    0  0.54040571924E+02 -0.27478079572E+02 -0.69848047415E+02  0.92494205216E+02  0.10000000000E+01 0.  0.
<mgrwt>
<rscale>  0 0.12500139E+03</rscale>
<asrwt>0</asrwt>
<pdfrwt beam="2">  1        4 0.53585446E-01 0.12500139E+03</pdfrwt>
<pdfrwt beam="1">  1       -4 0.45562009E-02 0.12500139E+03</pdfrwt>
<totfact> 0.15095550E+03</totfact>
</mgrwt>
</event>
<event>
 5    1  0.1446384E-002  0.1250001E+03  0.7818608E-02  0.1235069E+00
         -4   -1    0    0    0  501 -0.00000000000E+00  0.00000000000E+00  0.77948094913E+03  0.77948198372E+03  0.12700000000E+01 0.  1.
          4   -1    0    0  501    0  0.00000000000E+00 -0.00000000000E+00 -0.49298368951E+01  0.50907948115E+01  0.12700000000E+01 0.  1.
         25    2    1    2    0    0  0.00000000000E+00  0.00000000000E+00  0.77455111223E+03  0.78457277854E+03  0.12500007744E+03 0.  0.
    9000005    1    3    3    0    0  0.16008983735E+02 -0.60391682690E+02  0.39572435732E+03  0.40062727050E+03  0.10000000000E+01 0.  0.
    9000005    1    3    3    0    0 -0.16008983735E+02  0.60391682690E+02  0.37882675492E+03  0.38394550803E+03  0.10000000000E+01 0.  0.
<mgrwt>
<rscale>  0 0.12500008E+03</rscale>
<asrwt>0</asrwt>
<pdfrwt beam="2">  1        4 0.12527078E-02 0.12500008E+03</pdfrwt>
<pdfrwt beam="1">  1       -4 0.19489057E+00 0.12500008E+03</pdfrwt>
<totfact> 0.53858002E+02</totfact>
</mgrwt>
</event>
<event>
 5    1  0.1446384E-002  0.1249928E+03  0.7818608E-02  0.1235081E+00
          4   -1    0    0  501    0  0.00000000000E+00  0.00000000000E+00  0.72666147469E+02  0.72677244637E+02  0.12700000000E+01 0. -1.
         -4   -1    0    0    0  501 -0.00000000000E+00 -0.00000000000E+00 -0.53727181403E+02  0.53742189400E+02  0.12700000000E+01 0. -1.
         25    2    1    2    0    0  0.00000000000E+00  0.00000000000E+00  0.18938966066E+02  0.12641943404E+03  0.12499275526E+03 0.  0.
    9000005    1    3    3    0    0  0.48835162282E+02 -0.33990091163E+02  0.28781874161E+02  0.66102917126E+02  0.10000000000E+01 0.  0.
    9000005    1    3    3    0    0 -0.48835162282E+02  0.33990091163E+02 -0.98429080951E+01  0.60316516910E+02  0.10000000000E+01 0.  0.
<mgrwt>
<rscale>  0 0.12499276E+03</rscale>
<asrwt>0</asrwt>
<pdfrwt beam="1">  1        4 0.18169800E-01 0.12499276E+03</pdfrwt>
<pdfrwt beam="2">  1       -4 0.13435059E-01 0.12499276E+03</pdfrwt>
<totfact> 0.19761620E+03</totfact>
</mgrwt>
</event>
<event>
 5    1  0.1446384E-002  0.1250065E+03  0.7818608E-02  0.1235059E+00
          4   -1    0    0  501    0  0.00000000000E+00  0.00000000000E+00  0.41271948723E+03  0.41272144121E+03  0.12700000000E+01 0. -1.
         -4   -1    0    0    0  501 -0.00000000000E+00 -0.00000000000E+00 -0.94210651484E+01  0.95062804782E+01  0.12700000000E+01 0. -1.
         25    2    1    2    0    0  0.00000000000E+00  0.00000000000E+00  0.40329842208E+03  0.42222772169E+03  0.12500652668E+03 0.  0.
    9000005    1    3    3    0    0 -0.48874102031E+02  0.74258528825E+01  0.33079001890E+03  0.33446503217E+03  0.10000000000E+01 0.  0.
    9000005    1    3    3    0    0  0.48874102031E+02 -0.74258528825E+01  0.72508403172E+02  0.87762689515E+02  0.10000000000E+01 0.  0.
<mgrwt>
<rscale>  0 0.12500653E+03</rscale>
<asrwt>0</asrwt>
<pdfrwt beam="1">  1        4 0.10319076E+00 0.12500653E+03</pdfrwt>
<pdfrwt beam="2">  1       -4 0.23661626E-02 0.12500653E+03</pdfrwt>
<totfact> 0.10120899E+03</totfact>
</mgrwt>
</event>
<event>
 5    1  0.1446384E-002  0.1250033E+03  0.7818608E-02  0.1235064E+00
          4   -1    0    0  501    0  0.00000000000E+00  0.00000000000E+00  0.14389253841E+02  0.14445190414E+02  0.12700000000E+01 0.  1.
         -4   -1    0    0    0  501 -0.00000000000E+00 -0.00000000000E+00 -0.27090024100E+03  0.27090321791E+03  0.12700000000E+01 0.  1.
         25    2    1    2    0    0  0.00000000000E+00  0.00000000000E+00 -0.25651098716E+03  0.28534840833E+03  0.12500331035E+03 0.  0.
    9000005    1    3    3    0    0 -0.63500044206E+01  0.62147452224E+02 -0.12441635305E+03  0.13922304866E+03  0.10000000000E+01 0.  0.
    9000005    1    3    3    0    0  0.63500044206E+01 -0.62147452224E+02 -0.13209463412E+03  0.14612535966E+03  0.10000000000E+01 0.  0.
<mgrwt>
<rscale>  0 0.12500331E+03</rscale>
<asrwt>0</asrwt>
<pdfrwt beam="1">  1        4 0.36046785E-02 0.12500331E+03</pdfrwt>
<pdfrwt beam="2">  1       -4 0.67732408E-01 0.12500331E+03</pdfrwt>
<totfact> 0.13390847E+03</totfact>
</mgrwt>
</event>
<event>
 5    1  0.1446384E-002  0.1250008E+03  0.7818608E-02  0.1235068E+00
         -4   -1    0    0    0  501 -0.00000000000E+00  0.00000000000E+00  0.13173109584E+02  0.13234187399E+02  0.12700000000E+01 0. -1.
          4   -1    0    0  501    0  0.00000000000E+00 -0.00000000000E+00 -0.29578752625E+03  0.29579025269E+03  0.12700000000E+01 0. -1.
         25    2    1    2    0    0  0.00000000000E+00  0.00000000000E+00 -0.28261441667E+03  0.30902444009E+03  0.12500078425E+03 0.  0.
    9000005    1    3    3    0    0  0.97411708523E+01  0.52020227078E+02 -0.59154000245E+02  0.79380036406E+02  0.10000000000E+01 0.  0.
    9000005    1    3    3    0    0 -0.97411708523E+01 -0.52020227078E+02 -0.22346041642E+03  0.22964440368E+03  0.10000000000E+01 0.  0.
<mgrwt>
<rscale>  0 0.12500078E+03</rscale>
<asrwt>0</asrwt>
<pdfrwt beam="2">  1        4 0.73954835E-01 0.12500078E+03</pdfrwt>
<pdfrwt beam="1">  1       -4 0.33012539E-02 0.12500078E+03</pdfrwt>
<totfact> 0.12721620E+03</totfact>
</mgrwt>
</event>
<event>
 5    1  0.1446384E-002  0.1250299E+03  0.7818608E-02  0.1235023E+00
         -4   -1    0    0    0  501 -0.00000000000E+00  0.00000000000E+00  0.16919139507E+02  0.16966737508E+02  0.12700000000E+01 0.  1.
          4   -1    0    0  501    0  0.00000000000E+00 -0.00000000000E+00 -0.23061435914E+03  0.23061785607E+03  0.12700000000E+01 0.  1.
         25    2    1    2    0    0  0.00000000000E+00  0.00000000000E+00 -0.21369521963E+03  0.24758459358E+03  0.12502993276E+03 0.  0.
    9000005    1    3    3    0    0 -0.13784223959E+02  0.49510215370E+02 -0.17730094537E+03  0.18460198126E+03  0.10000000000E+01 0.  0.
    9000005    1    3    3    0    0  0.13784223959E+02 -0.49510215370E+02 -0.36394274263E+02  0.62982612325E+02  0.10000000000E+01 0.  0.
<mgrwt>
<rscale>  0 0.12502993E+03</rscale>
<asrwt>0</asrwt>
<pdfrwt beam="2">  1        4 0.57659967E-01 0.12502993E+03</pdfrwt>
<pdfrwt beam="1">  1       -4 0.42361725E-02 0.12502993E+03</pdfrwt>
<totfact> 0.14568642E+03</totfact>
</mgrwt>
</event>
<event>
 5    1  0.1446384E-002  0.1250011E+03  0.7818608E-02  0.1235068E+00
         -4   -1    0    0    0  501 -0.00000000000E+00  0.00000000000E+00  0.13870399219E+02  0.13928419670E+02  0.12700000000E+01 0. -1.
          4   -1    0    0  501    0  0.00000000000E+00 -0.00000000000E+00 -0.28098267275E+03  0.28098554284E+03  0.12700000000E+01 0. -1.
         25    2    1    2    0    0  0.00000000000E+00  0.00000000000E+00 -0.26711227353E+03  0.29491396251E+03  0.12500111445E+03 0.  0.
    9000005    1    3    3    0    0 -0.58617834413E+02  0.39282953856E+00 -0.18465615195E+03  0.19373977207E+03  0.10000000000E+01 0.  0.
    9000005    1    3    3    0    0  0.58617834413E+02 -0.39282953856E+00 -0.82456121575E+02  0.10117419044E+03  0.10000000000E+01 0.  0.
<mgrwt>
<rscale>  0 0.12500111E+03</rscale>
<asrwt>0</asrwt>
<pdfrwt beam="2">  1        4 0.70253261E-01 0.12500111E+03</pdfrwt>
<pdfrwt beam="1">  1       -4 0.34752120E-02 0.12500111E+03</pdfrwt>
<totfact> 0.13114475E+03</totfact>
</mgrwt>
</event>
<event>
 5    1  0.1446384E-002  0.1249957E+03  0.7818608E-02  0.1235076E+00
          4   -1    0    0  501    0  0.00000000000E+00  0.00000000000E+00  0.41612049207E+03  0.41612243009E+03  0.12700000000E+01 0.  1.
         -4   -1    0    0    0  501 -0.00000000000E+00 -0.00000000000E+00 -0.93417305263E+01  0.94276629780E+01  0.12700000000E+01 0.  1.
         25    2    1    2    0    0  0.00000000000E+00  0.00000000000E+00  0.40677876155E+03  0.42555009307E+03  0.12499568338E+03 0.  0.
    9000005    1    3    3    0    0 -0.36519110203E+02 -0.41254470803E+02  0.10300495181E+03  0.11681864949E+03  0.10000000000E+01 0.  0.
    9000005    1    3    3    0    0  0.36519110203E+02  0.41254470803E+02  0.30377380974E+03  0.30873144358E+03  0.10000000000E+01 0.  0.
<mgrwt>
<rscale>  0 0.12499568E+03</rscale>
<asrwt>0</asrwt>
<pdfrwt beam="1">  1        4 0.10404110E+00 0.12499568E+03</pdfrwt>
<pdfrwt beam="2">  1       -4 0.23464165E-02 0.12499568E+03</pdfrwt>
<totfact> 0.10058726E+03</totfact>
</mgrwt>
</event>
<event>
 5    1  0.1446384E-002  0.1250061E+03  0.7818608E-02  0.1235060E+00
          4   -1    0    0  501    0  0.00000000000E+00  0.00000000000E+00  0.41955357025E+02  0.41974574246E+02  0.12700000000E+01 0. -1.
         -4   -1    0    0    0  501 -0.00000000000E+00 -0.00000000000E+00 -0.93069202925E+02  0.93077867579E+02  0.12700000000E+01 0. -1.
         25    2    1    2    0    0  0.00000000000E+00  0.00000000000E+00 -0.51113845900E+02  0.13505244183E+03  0.12500614705E+03 0.  0.
    9000005    1    3    3    0    0 -0.36359708026E+02  0.42864881009E+02  0.39552349598E+01  0.56356634704E+02  0.10000000000E+01 0.  0.
    9000005    1    3    3    0    0  0.36359708026E+02 -0.42864881009E+02 -0.55069080860E+02  0.78695807121E+02  0.10000000000E+01 0.  0.
<mgrwt>
<rscale>  0 0.12500615E+03</rscale>
<asrwt>0</asrwt>
<pdfrwt beam="1">  1        4 0.10492325E-01 0.12500615E+03</pdfrwt>
<pdfrwt beam="2">  1       -4 0.23270786E-01 0.12500615E+03</pdfrwt>
<totfact> 0.19293623E+03</totfact>
</mgrwt>
</event>
<event>
 5    1  0.1446384E-002  0.1250017E+03  0.7818608E-02  0.1235067E+00
          4   -1    0    0  501    0  0.00000000000E+00  0.00000000000E+00  0.57283958518E+02  0.57298034901E+02  0.12700000000E+01 0. -1.
         -4   -1    0    0    0  501 -0.00000000000E+00 -0.00000000000E+00 -0.68164451513E+02  0.68176281433E+02  0.12700000000E+01 0. -1.
         25    2    1    2    0    0  0.00000000000E+00  0.00000000000E+00 -0.10880492995E+02  0.12547431633E+03  0.12500167572E+03 0.  0.
    9000005    1    3    3    0    0  0.16078870038E+02 -0.33041142761E+02  0.45298951252E+02  0.58337313626E+02  0.10000000000E+01 0.  0.
    9000005    1    3    3    0    0 -0.16078870038E+02  0.33041142761E+02 -0.56179444247E+02  0.67137002707E+02  0.10000000000E+01 0.  0.
<mgrwt>
<rscale>  0 0.12500168E+03</rscale>
<asrwt>0</asrwt>
<pdfrwt beam="1">  1        4 0.14324228E-01 0.12500168E+03</pdfrwt>
<pdfrwt beam="2">  1       -4 0.17044351E-01 0.12500168E+03</pdfrwt>
<totfact> 0.19808577E+03</totfact>
</mgrwt>
</event>
<event>
 5    1  0.1446384E-002  0.1249913E+03  0.7818608E-02  0.1235083E+00
         -4   -1    0    0    0  501 -0.00000000000E+00  0.00000000000E+00  0.21070988623E+03  0.21071371350E+03  0.12700000000E+01 0.  1.
          4   -1    0    0  501    0  0.00000000000E+00 -0.00000000000E+00 -0.18510176395E+02  0.18553693168E+02  0.12700000000E+01 0.  1.
         25    2    1    2    0    0  0.00000000000E+00  0.00000000000E+00  0.19219970984E+03  0.22926740666E+03  0.12499126088E+03 0.  0.
    9000005    1    3    3    0    0 -0.55501057238E+02 -0.17635917182E+02  0.13765768954E+03  0.14947251392E+03  0.10000000000E+01 0.  0.
    9000005    1    3    3    0    0  0.55501057238E+02  0.17635917182E+02  0.54542020296E+02  0.79794892740E+02  0.10000000000E+01 0.  0.
<mgrwt>
<rscale>  0 0.12499126E+03</rscale>
<asrwt>0</asrwt>
<pdfrwt beam="2">  1        4 0.46334620E-02 0.12499126E+03</pdfrwt>
<pdfrwt beam="1">  1       -4 0.52683391E-01 0.12499126E+03</pdfrwt>
<totfact> 0.15216589E+03</totfact>
</mgrwt>
</event>
<event>
 5    1  0.1446384E-002  0.1250005E+03  0.7818608E-02  0.1235068E+00
          4   -1    0    0  501    0  0.00000000000E+00  0.00000000000E+00  0.81987865800E+01  0.82965656380E+01  0.12700000000E+01 0. -1.
         -4   -1    0    0    0  501 -0.00000000000E+00 -0.00000000000E+00 -0.47352355862E+03  0.47352526170E+03  0.12700000000E+01 0. -1.
         25    2    1    2    0    0  0.00000000000E+00  0.00000000000E+00 -0.46532477204E+03  0.48182182734E+03  0.12500051930E+03 0.  0.
    9000005    1    3    3    0    0 -0.90232666654E+01  0.25235479811E+01  0.54949048430E+01  0.10907869405E+02  0.10000000000E+01 0.  0.
    9000005    1    3    3    0    0  0.90232666654E+01 -0.25235479811E+01 -0.47081967688E+03  0.47091395793E+03  0.10000000000E+01 0.  0.
<mgrwt>
<rscale>  0 0.12500052E+03</rscale>
<asrwt>0</asrwt>
<pdfrwt beam="1">  1        4 0.20621335E-02 0.12500052E+03</pdfrwt>
<pdfrwt beam="2">  1       -4 0.11839323E+00 0.12500052E+03</pdfrwt>
<totfact> 0.90568628E+02</totfact>
</mgrwt>
</event>
<event>
 5    1  0.1446384E-002  0.1250006E+03  0.7818608E-02  0.1235068E+00
         -4   -1    0    0    0  501 -0.00000000000E+00  0.00000000000E+00  0.23259489274E+02  0.23294135341E+02  0.12700000000E+01 0.  1.
          4   -1    0    0  501    0  0.00000000000E+00 -0.00000000000E+00 -0.16778169790E+03  0.16778650437E+03  0.12700000000E+01 0.  1.
         25    2    1    2    0    0  0.00000000000E+00  0.00000000000E+00 -0.14452220862E+03  0.19108063971E+03  0.12500056835E+03 0.  0.
    9000005    1    3    3    0    0 -0.52532782969E+02 -0.21068383112E+01 -0.12389997383E+03  0.13459693744E+03  0.10000000000E+01 0.  0.
    9000005    1    3    3    0    0  0.52532782969E+02  0.21068383112E+01 -0.20622234793E+02  0.56483702269E+02  0.10000000000E+01 0.  0.
<mgrwt>
<rscale>  0 0.12500057E+03</rscale>
<asrwt>0</asrwt>
<pdfrwt beam="2">  1        4 0.41950353E-01 0.12500057E+03</pdfrwt>
<pdfrwt beam="1">  1       -4 0.58198044E-02 0.12500057E+03</pdfrwt>
<totfact> 0.16685309E+03</totfact>
</mgrwt>
</event>
<event>
 5    1  0.1446384E-002  0.1250011E+03  0.7818608E-02  0.1235068E+00
         -4   -1    0    0    0  501 -0.00000000000E+00  0.00000000000E+00  0.18487904953E+03  0.18488341152E+03  0.12700000000E+01 0. -1.
          4   -1    0    0  501    0  0.00000000000E+00 -0.00000000000E+00 -0.21105363071E+02  0.21143539210E+02  0.12700000000E+01 0. -1.
         25    2    1    2    0    0  0.00000000000E+00  0.00000000000E+00  0.16377368646E+03  0.20602695073E+03  0.12500113620E+03 0.  0.
    9000005    1    3    3    0    0  0.49609896114E+02  0.16420764213E+02  0.13837319928E+03  0.14791526482E+03  0.10000000000E+01 0.  0.
    9000005    1    3    3    0    0 -0.49609896114E+02 -0.16420764213E+02  0.25400487183E+02  0.58111685907E+02  0.10000000000E+01 0.  0.
<mgrwt>
<rscale>  0 0.12500114E+03</rscale>
<asrwt>0</asrwt>
<pdfrwt beam="2">  1        4 0.52816581E-02 0.12500114E+03</pdfrwt>
<pdfrwt beam="1">  1       -4 0.46225079E-01 0.12500114E+03</pdfrwt>
<totfact> 0.16083102E+03</totfact>
</mgrwt>
</event>
<event>
 5    1  0.1446384E-002  0.1250013E+03  0.7818608E-02  0.1235067E+00
         -4   -1    0    0    0  501 -0.00000000000E+00  0.00000000000E+00  0.10772321097E+02  0.10846925915E+02  0.12700000000E+01 0. -1.
          4   -1    0    0  501    0  0.00000000000E+00 -0.00000000000E+00 -0.36129973157E+03  0.36130196364E+03  0.12700000000E+01 0. -1.
         25    2    1    2    0    0  0.00000000000E+00  0.00000000000E+00 -0.35052741047E+03  0.37214888956E+03  0.12500132202E+03 0.  0.
    9000005    1    3    3    0    0 -0.46646198103E+02  0.34785693557E+02 -0.10741186937E+03  0.12216473287E+03  0.10000000000E+01 0.  0.
    9000005    1    3    3    0    0  0.46646198103E+02 -0.34785693557E+02 -0.24311554110E+03  0.24998415669E+03  0.10000000000E+01 0.  0.
<mgrwt>
<rscale>  0 0.12500132E+03</rscale>
<asrwt>0</asrwt>
<pdfrwt beam="2">  1        4 0.90334498E-01 0.12500132E+03</pdfrwt>
<pdfrwt beam="1">  1       -4 0.27026861E-02 0.12500132E+03</pdfrwt>
<totfact> 0.11165988E+03</totfact>
</mgrwt>
</event>
<event>
 5    1  0.1446384E-002  0.1249988E+03  0.7818608E-02  0.1235071E+00
         -4   -1    0    0    0  501 -0.00000000000E+00  0.00000000000E+00  0.42751489080E+03  0.42751677717E+03  0.12700000000E+01 0.  1.
          4   -1    0    0  501    0  0.00000000000E+00 -0.00000000000E+00 -0.90908815813E+01  0.91791627028E+01  0.12700000000E+01 0.  1.
         25    2    1    2    0    0  0.00000000000E+00  0.00000000000E+00  0.41842400922E+03  0.43669593987E+03  0.12499876961E+03 0.  0.
    9000005    1    3    3    0    0  0.43551778109E+02 -0.44727693629E+02  0.19942421432E+03  0.20896971362E+03  0.10000000000E+01 0.  0.
    9000005    1    3    3    0    0 -0.43551778109E+02  0.44727693629E+02  0.21899979491E+03  0.22772622625E+03  0.10000000000E+01 0.  0.
<mgrwt>
<rscale>  0 0.12499877E+03</rscale>
<asrwt>0</asrwt>
<pdfrwt beam="2">  1        4 0.22839915E-02 0.12499877E+03</pdfrwt>
<pdfrwt beam="1">  1       -4 0.10688999E+00 0.12499877E+03</pdfrwt>
<totfact> 0.98458319E+02</totfact>
</mgrwt>
</event>
<event>
 5    1  0.1446384E-002  0.1250064E+03  0.7818608E-02  0.1235059E+00
          4   -1    0    0  501    0  0.00000000000E+00  0.00000000000E+00  0.41140747688E+01  0.43056371426E+01  0.12700000000E+01 0.  1.
         -4   -1    0    0    0  501 -0.00000000000E+00 -0.00000000000E+00 -0.92778501153E+03  0.92778588075E+03  0.12700000000E+01 0.  1.
         25    2    1    2    0    0  0.00000000000E+00  0.00000000000E+00 -0.92367093676E+03  0.93209151789E+03  0.12500639308E+03 0.  0.
    9000005    1    3    3    0    0 -0.19408269554E+02 -0.12210825996E+02 -0.89532235943E+03  0.89561649856E+03  0.10000000000E+01 0.  0.
    9000005    1    3    3    0    0  0.19408269554E+02  0.12210825996E+02 -0.28348577330E+02  0.36475019331E+02  0.10000000000E+01 0.  0.
<mgrwt>
<rscale>  0 0.12500639E+03</rscale>
<asrwt>0</asrwt>
<pdfrwt beam="1">  1        4 0.10525758E-02 0.12500639E+03</pdfrwt>
<pdfrwt beam="2">  1       -4 0.23196961E+00 0.12500639E+03</pdfrwt>
<totfact> 0.41869003E+02</totfact>
</mgrwt>
</event>
<event>
 5    1  0.1446384E-002  0.1250012E+03  0.7818608E-02  0.1235067E+00
          4   -1    0    0  501    0  0.00000000000E+00  0.00000000000E+00  0.43599848393E+02  0.43618341095E+02  0.12700000000E+01 0.  1.
         -4   -1    0    0    0  501 -0.00000000000E+00 -0.00000000000E+00 -0.89552886384E+02  0.89561891224E+02  0.12700000000E+01 0.  1.
         25    2    1    2    0    0  0.00000000000E+00  0.00000000000E+00 -0.45953037991E+02  0.13318023232E+03  0.12500117031E+03 0.  0.
    9000005    1    3    3    0    0 -0.13251939746E+02  0.60627759275E+02 -0.15148382434E+02  0.63889064731E+02  0.10000000000E+01 0.  0.
    9000005    1    3    3    0    0  0.13251939746E+02 -0.60627759275E+02 -0.30804655557E+02  0.69291167588E+02  0.10000000000E+01 0.  0.
<mgrwt>
<rscale>  0 0.12500117E+03</rscale>
<asrwt>0</asrwt>
<pdfrwt beam="1">  1        4 0.10903399E-01 0.12500117E+03</pdfrwt>
<pdfrwt beam="2">  1       -4 0.22391658E-01 0.12500117E+03</pdfrwt>
<totfact> 0.19394354E+03</totfact>
</mgrwt>
</event>
<event>
 5    1  0.1446384E-002  0.1250108E+03  0.7818608E-02  0.1235052E+00
          4   -1    0    0  501    0  0.00000000000E+00  0.00000000000E+00  0.11725483183E+02  0.11794060195E+02  0.12700000000E+01 0.  1.
         -4   -1    0    0    0  501 -0.00000000000E+00 -0.00000000000E+00 -0.33215795311E+03  0.33216038101E+03  0.12700000000E+01 0.  1.
         25    2    1    2    0    0  0.00000000000E+00  0.00000000000E+00 -0.32043246992E+03  0.34395444120E+03  0.12501075891E+03 0.  0.
    9000005    1    3    3    0    0  0.25772389011E+02 -0.50809743581E+02 -0.89527432096E+02  0.10612260445E+03  0.10000000000E+01 0.  0.
    9000005    1    3    3    0    0 -0.25772389011E+02  0.50809743581E+02 -0.23090503783E+03  0.23783183675E+03  0.10000000000E+01 0.  0.
<mgrwt>
<rscale>  0 0.12501076E+03</rscale>
<asrwt>0</asrwt>
<pdfrwt beam="1">  1        4 0.29402475E-02 0.12501076E+03</pdfrwt>
<pdfrwt beam="2">  1       -4 0.83048333E-01 0.12501076E+03</pdfrwt>
<totfact> 0.11819927E+03</totfact>
</mgrwt>
</event>
<event>
 5    1  0.1446384E-002  0.1249985E+03  0.7818608E-02  0.1235072E+00
          4   -1    0    0  501    0  0.00000000000E+00  0.00000000000E+00  0.15275448097E+03  0.15275976027E+03  0.12700000000E+01 0. -1.
         -4   -1    0    0    0  501 -0.00000000000E+00 -0.00000000000E+00 -0.25549993349E+02  0.25581537485E+02  0.12700000000E+01 0. -1.
         25    2    1    2    0    0  0.00000000000E+00  0.00000000000E+00  0.12720448762E+03  0.17834129775E+03  0.12499854724E+03 0.  0.
    9000005    1    3    3    0    0 -0.15659129466E+02 -0.51742156206E+02  0.10832797669E+03  0.12107191911E+03  0.10000000000E+01 0.  0.
    9000005    1    3    3    0    0  0.15659129466E+02  0.51742156206E+02  0.18876510932E+02  0.57269378637E+02  0.10000000000E+01 0.  0.
<mgrwt>
<rscale>  0 0.12499855E+03</rscale>
<asrwt>0</asrwt>
<pdfrwt beam="1">  1        4 0.38193223E-01 0.12499855E+03</pdfrwt>
<pdfrwt beam="2">  1       -4 0.63921013E-02 0.12499855E+03</pdfrwt>
<totfact> 0.17227832E+03</totfact>
</mgrwt>
</event>
<event>
 5    1  0.1446384E-002  0.1250013E+03  0.7818608E-02  0.1235067E+00
         -4   -1    0    0    0  501 -0.00000000000E+00  0.00000000000E+00  0.75935960759E+02  0.75946580150E+02  0.12700000000E+01 0. -1.
          4   -1    0    0  501    0  0.00000000000E+00 -0.00000000000E+00 -0.51420353062E+02  0.51436034150E+02  0.12700000000E+01 0. -1.
         25    2    1    2    0    0  0.00000000000E+00  0.00000000000E+00  0.24515607697E+02  0.12738261430E+03  0.12500126161E+03 0.  0.
    9000005    1    3    3    0    0 -0.11527208499E+02  0.92525626192E+01 -0.49618312612E+02  0.51782848485E+02  0.10000000000E+01 0.  0.
    9000005    1    3    3    0    0  0.11527208499E+02 -0.92525626192E+01  0.74133920309E+02  0.75599765814E+02  0.10000000000E+01 0.  0.
<mgrwt>
<rscale>  0 0.12500126E+03</rscale>
<asrwt>0</asrwt>
<pdfrwt beam="2">  1        4 0.12858376E-01 0.12500126E+03</pdfrwt>
<pdfrwt beam="1">  1       -4 0.18987278E-01 0.12500126E+03</pdfrwt>
<totfact> 0.19705615E+03</totfact>
</mgrwt>
</event>
<event>
 5    1  0.1446384E-002  0.1249998E+03  0.7818608E-02  0.1235070E+00
         -4   -1    0    0    0  501 -0.00000000000E+00  0.00000000000E+00  0.86777533725E+02  0.86786826532E+02  0.12700000000E+01 0.  1.
          4   -1    0    0  501    0  0.00000000000E+00 -0.00000000000E+00 -0.44993744790E+02  0.45011664824E+02  0.12700000000E+01 0.  1.
         25    2    1    2    0    0  0.00000000000E+00  0.00000000000E+00  0.41783788935E+02  0.13179849136E+03  0.12499982922E+03 0.  0.
    9000005    1    3    3    0    0  0.44871782418E+02 -0.16328327846E+02 -0.21613837780E+02  0.52423745871E+02  0.10000000000E+01 0.  0.
    9000005    1    3    3    0    0 -0.44871782418E+02  0.16328327846E+02  0.63397626715E+02  0.79374745484E+02  0.10000000000E+01 0.  0.
<mgrwt>
<rscale>  0 0.12499983E+03</rscale>
<asrwt>0</asrwt>
<pdfrwt beam="2">  1        4 0.11251838E-01 0.12499983E+03</pdfrwt>
<pdfrwt beam="1">  1       -4 0.21697785E-01 0.12499983E+03</pdfrwt>
<totfact> 0.19468254E+03</totfact>
</mgrwt>
</event>
<event>
 5    1  0.1446384E-002  0.1249963E+03  0.7818608E-02  0.1235075E+00
          4   -1    0    0  501    0  0.00000000000E+00  0.00000000000E+00  0.14022122494E+02  0.14079517720E+02  0.12700000000E+01 0. -1.
         -4   -1    0    0    0  501 -0.00000000000E+00 -0.00000000000E+00 -0.27793320297E+03  0.27793610455E+03  0.12700000000E+01 0. -1.
         25    2    1    2    0    0  0.00000000000E+00  0.00000000000E+00 -0.26391108048E+03  0.29201562227E+03  0.12499626095E+03 0.  0.
    9000005    1    3    3    0    0 -0.26604175943E+02 -0.28806897161E+02 -0.18285871824E+02  0.43278084639E+02  0.10000000000E+01 0.  0.
    9000005    1    3    3    0    0  0.26604175943E+02  0.28806897161E+02 -0.24562520866E+03  0.24873753764E+03  0.10000000000E+01 0.  0.
<mgrwt>
<rscale>  0 0.12499626E+03</rscale>
<asrwt>0</asrwt>
<pdfrwt beam="1">  1        4 0.35130686E-02 0.12499626E+03</pdfrwt>
<pdfrwt beam="2">  1       -4 0.69490820E-01 0.12499626E+03</pdfrwt>
<totfact> 0.13198954E+03</totfact>
</mgrwt>
</event>
<event>
 5    1  0.1446384E-002  0.1249918E+03  0.7818608E-02  0.1235082E+00
          4   -1    0    0  501    0  0.00000000000E+00  0.00000000000E+00  0.23311919790E+02  0.23346488050E+02  0.12700000000E+01 0.  1.
         -4   -1    0    0    0  501 -0.00000000000E+00 -0.00000000000E+00 -0.16738143131E+03  0.16738624927E+03  0.12700000000E+01 0.  1.
         25    2    1    2    0    0  0.00000000000E+00  0.00000000000E+00 -0.14406951152E+03  0.19073273733E+03  0.12499181149E+03 0.  0.
    9000005    1    3    3    0    0  0.23711183028E+02  0.37258228721E+02 -0.13949439424E+03  0.14632184332E+03  0.10000000000E+01 0.  0.
    9000005    1    3    3    0    0 -0.23711183028E+02 -0.37258228721E+02 -0.45751172732E+01  0.44410894002E+02  0.10000000000E+01 0.  0.
<mgrwt>
<rscale>  0 0.12499181E+03</rscale>
<asrwt>0</asrwt>
<pdfrwt beam="1">  1        4 0.58329037E-02 0.12499181E+03</pdfrwt>
<pdfrwt beam="2">  1       -4 0.41850278E-01 0.12499181E+03</pdfrwt>
<totfact> 0.16703134E+03</totfact>
</mgrwt>
</event>
<event>
 5    1  0.1446384E-002  0.1250006E+03  0.7818608E-02  0.1235068E+00
          4   -1    0    0  501    0  0.00000000000E+00  0.00000000000E+00  0.94375115424E+01  0.95225796985E+01  0.12700000000E+01 0. -1.
         -4   -1    0    0    0  501 -0.00000000000E+00 -0.00000000000E+00 -0.41196742908E+03  0.41196938663E+03  0.12700000000E+01 0. -1.
         25    2    1    2    0    0  0.00000000000E+00  0.00000000000E+00 -0.40252991754E+03  0.42149196633E+03  0.12500057268E+03 0.  0.
    9000005    1    3    3    0    0 -0.39256544032E+02  0.38394803554E+02 -0.30186175741E+03  0.30681714062E+03  0.10000000000E+01 0.  0.
    9000005    1    3    3    0    0  0.39256544032E+02 -0.38394803554E+02 -0.10066816013E+03  0.11467482571E+03  0.10000000000E+01 0.  0.
<mgrwt>
<rscale>  0 0.12500057E+03</rscale>
<asrwt>0</asrwt>
<pdfrwt beam="1">  1        4 0.23702575E-02 0.12500057E+03</pdfrwt>
<pdfrwt beam="2">  1       -4 0.10300268E+00 0.12500057E+03</pdfrwt>
<totfact> 0.10136682E+03</totfact>
</mgrwt>
</event>
<event>
 5    1  0.1446384E-002  0.1250010E+03  0.7818608E-02  0.1235068E+00
         -4   -1    0    0    0  501 -0.00000000000E+00  0.00000000000E+00  0.13822147000E+02  0.13880369148E+02  0.12700000000E+01 0. -1.
          4   -1    0    0  501    0  0.00000000000E+00 -0.00000000000E+00 -0.28195874461E+03  0.28196160476E+03  0.12700000000E+01 0. -1.
         25    2    1    2    0    0  0.00000000000E+00  0.00000000000E+00 -0.26813659761E+03  0.29584197391E+03  0.12500095420E+03 0.  0.
    9000005    1    3    3    0    0 -0.30879488805E+02 -0.39740805166E+02 -0.22174665310E+03  0.22738832992E+03  0.10000000000E+01 0.  0.
    9000005    1    3    3    0    0  0.30879488805E+02  0.39740805166E+02 -0.46389944510E+02  0.68453643991E+02  0.10000000000E+01 0.  0.
<mgrwt>
<rscale>  0 0.12500095E+03</rscale>
<asrwt>0</asrwt>
<pdfrwt beam="2">  1        4 0.70497303E-01 0.12500095E+03</pdfrwt>
<pdfrwt beam="1">  1       -4 0.34631730E-02 0.12500095E+03</pdfrwt>
<totfact> 0.13088114E+03</totfact>
</mgrwt>
</event>
<event>
 5    1  0.1446384E-002  0.1250006E+03  0.7818608E-02  0.1235068E+00
          4   -1    0    0  501    0  0.00000000000E+00  0.00000000000E+00  0.39884377263E+02  0.39904591837E+02  0.12700000000E+01 0. -1.
         -4   -1    0    0    0  501 -0.00000000000E+00 -0.00000000000E+00 -0.97891092640E+02  0.97899330530E+02  0.12700000000E+01 0. -1.
         25    2    1    2    0    0  0.00000000000E+00  0.00000000000E+00 -0.58006715377E+02  0.13780392237E+03  0.12500056796E+03 0.  0.
    9000005    1    3    3    0    0 -0.56006871861E+02 -0.89199804936E+01 -0.67033166219E-01  0.56721602949E+02  0.10000000000E+01 0.  0.
    9000005    1    3    3    0    0  0.56006871861E+02  0.89199804936E+01 -0.57939682211E+02  0.81082319418E+02  0.10000000000E+01 0.  0.
<mgrwt>
<rscale>  0 0.12500057E+03</rscale>
<asrwt>0</asrwt>
<pdfrwt beam="1">  1        4 0.99746511E-02 0.12500057E+03</pdfrwt>
<pdfrwt beam="2">  1       -4 0.24476329E-01 0.12500057E+03</pdfrwt>
<totfact> 0.19153006E+03</totfact>
</mgrwt>
</event>
<event>
 5    1  0.1446384E-002  0.1249985E+03  0.7818608E-02  0.1235072E+00
         -4   -1    0    0    0  501 -0.00000000000E+00  0.00000000000E+00  0.12262714492E+02  0.12328303481E+02  0.12700000000E+01 0.  1.
          4   -1    0    0  501    0  0.00000000000E+00 -0.00000000000E+00 -0.31762294943E+03  0.31762548844E+03  0.12700000000E+01 0.  1.
         25    2    1    2    0    0  0.00000000000E+00  0.00000000000E+00 -0.30536023494E+03  0.32995379192E+03  0.12499852687E+03 0.  0.
    9000005    1    3    3    0    0  0.84229247273E+01 -0.12490798730E+02 -0.31277057266E+03  0.31313479020E+03  0.10000000000E+01 0.  0.
    9000005    1    3    3    0    0 -0.84229247273E+01  0.12490798730E+02  0.74103377140E+01  0.16819001722E+02  0.10000000000E+01 0.  0.
<mgrwt>
<rscale>  0 0.12499853E+03</rscale>
<asrwt>0</asrwt>
<pdfrwt beam="2">  1        4 0.79414226E-01 0.12499853E+03</pdfrwt>
<pdfrwt beam="1">  1       -4 0.30741957E-02 0.12499853E+03</pdfrwt>
<totfact> 0.12171625E+03</totfact>
</mgrwt>
</event>
<event>
 5    1  0.1446384E-002  0.1250017E+03  0.7818608E-02  0.1235067E+00
         -4   -1    0    0    0  501 -0.00000000000E+00  0.00000000000E+00  0.49351440788E+03  0.49351604197E+03  0.12700000000E+01 0.  1.
          4   -1    0    0  501    0  0.00000000000E+00 -0.00000000000E+00 -0.78627782531E+01  0.79646834123E+01  0.12700000000E+01 0.  1.
         25    2    1    2    0    0  0.00000000000E+00  0.00000000000E+00  0.48565162963E+03  0.50148072538E+03  0.12500165029E+03 0.  0.
    9000005    1    3    3    0    0 -0.43875432438E+02 -0.25453000113E+02  0.38926693413E+03  0.39255910993E+03  0.10000000000E+01 0.  0.
    9000005    1    3    3    0    0  0.43875432438E+02  0.25453000113E+02  0.96384695499E+02  0.10892161545E+03  0.10000000000E+01 0.  0.
<mgrwt>
<rscale>  0 0.12500165E+03</rscale>
<asrwt>0</asrwt>
<pdfrwt beam="2">  1        4 0.19786370E-02 0.12500165E+03</pdfrwt>
<pdfrwt beam="1">  1       -4 0.12339154E+00 0.12500165E+03</pdfrwt>
<totfact> 0.87368670E+02</totfact>
</mgrwt>
</event>
<event>
 5    1  0.1446384E-002  0.1249839E+03  0.7818608E-02  0.1235094E+00
         -4   -1    0    0    0  501 -0.00000000000E+00  0.00000000000E+00  0.24277777919E+03  0.24278110093E+03  0.12700000000E+01 0.  1.
          4   -1    0    0  501    0  0.00000000000E+00 -0.00000000000E+00 -0.16057172186E+02  0.16107317548E+02  0.12700000000E+01 0.  1.
         25    2    1    2    0    0  0.00000000000E+00  0.00000000000E+00  0.22672060701E+03  0.25888841848E+03  0.12498391729E+03 0.  0.
    9000005    1    3    3    0    0  0.24490360646E+02 -0.57188091627E+02  0.10128412166E+03  0.11886853616E+03  0.10000000000E+01 0.  0.
    9000005    1    3    3    0    0 -0.24490360646E+02  0.57188091627E+02  0.12543648534E+03  0.14001988232E+03  0.10000000000E+01 0.  0.
<mgrwt>
<rscale>  0 0.12498392E+03</rscale>
<asrwt>0</asrwt>
<pdfrwt beam="2">  1        4 0.40209765E-02 0.12498392E+03</pdfrwt>
<pdfrwt beam="1">  1       -4 0.60701127E-01 0.12498392E+03</pdfrwt>
<totfact> 0.14212168E+03</totfact>
</mgrwt>
</event>
<event>
 4    1  0.1446384E-002  0.1248935E+03  0.7818608E-02  0.1235236E+00
          4   -1    0    0  501    0  0.00000000000E+00  0.00000000000E+00  0.40907777971E+02  0.40927487078E+02  0.12700000000E+01 0.  1.
         -4   -1    0    0    0  501 -0.00000000000E+00 -0.00000000000E+00 -0.95279668430E+02  0.95288132085E+02  0.12700000000E+01 0.  1.
    9000005    1    1    2    0    0  0.52697806573E+02  0.32535528033E+02 -0.18530610781E+02  0.64652942222E+02  0.10000000000E+01 0.  0.
    9000005    1    1    2    0    0 -0.52697806573E+02 -0.32535528033E+02 -0.35841279679E+02  0.71562676941E+02  0.10000000000E+01 0.  0.
<mgrwt>
<rscale>  0 0.12489352E+03</rscale>
<asrwt>0</asrwt>
<pdfrwt beam="1">  1        4 0.10230466E-01 0.12489352E+03</pdfrwt>
<pdfrwt beam="2">  1       -4 0.23823438E-01 0.12489352E+03</pdfrwt>
<totfact> 0.19283511E+03</totfact>
</mgrwt>
</event>
<event>
 5    1  0.1446384E-002  0.1250015E+03  0.7818608E-02  0.1235067E+00
         -4   -1    0    0    0  501 -0.00000000000E+00  0.00000000000E+00  0.27826500135E+03  0.27826789947E+03  0.12700000000E+01 0.  1.
          4   -1    0    0  501    0  0.00000000000E+00 -0.00000000000E+00 -0.14006505892E+02  0.14063964850E+02  0.12700000000E+01 0.  1.
         25    2    1    2    0    0  0.00000000000E+00  0.00000000000E+00  0.26425849546E+03  0.29233186432E+03  0.12500146590E+03 0.  0.
    9000005    1    3    3    0    0 -0.60151318580E+02  0.16618873892E+02  0.13987625712E+03  0.15316897663E+03  0.10000000000E+01 0.  0.
    9000005    1    3    3    0    0  0.60151318580E+02 -0.16618873892E+02  0.12438223834E+03  0.13916288769E+03  0.10000000000E+01 0.  0.
<mgrwt>
<rscale>  0 0.12500147E+03</rscale>
<asrwt>0</asrwt>
<pdfrwt beam="2">  1        4 0.35091710E-02 0.12500147E+03</pdfrwt>
<pdfrwt beam="1">  1       -4 0.69573797E-01 0.12500147E+03</pdfrwt>
<totfact> 0.13188281E+03</totfact>
</mgrwt>
</event>
<event>
 5    1  0.1446384E-002  0.1249951E+03  0.7818608E-02  0.1235077E+00
          4   -1    0    0  501    0  0.00000000000E+00  0.00000000000E+00  0.99403086959E+02  0.99411199555E+02  0.12700000000E+01 0. -1.
         -4   -1    0    0    0  501 -0.00000000000E+00 -0.00000000000E+00 -0.39274021767E+02  0.39294550332E+02  0.12700000000E+01 0. -1.
         25    2    1    2    0    0  0.00000000000E+00  0.00000000000E+00  0.60129065191E+02  0.13870574989E+03  0.12499512219E+03 0.  0.
    9000005    1    3    3    0    0  0.15345243346E+01  0.57225719543E+02  0.57869002180E+02  0.81406137087E+02  0.10000000000E+01 0.  0.
    9000005    1    3    3    0    0 -0.15345243346E+01 -0.57225719543E+02  0.22600630118E+01  0.57299612800E+02  0.10000000000E+01 0.  0.
<mgrwt>
<rscale>  0 0.12499512E+03</rscale>
<asrwt>0</asrwt>
<pdfrwt beam="1">  1        4 0.24854352E-01 0.12499512E+03</pdfrwt>
<pdfrwt beam="2">  1       -4 0.98220857E-02 0.12499512E+03</pdfrwt>
<totfact> 0.19108924E+03</totfact>
</mgrwt>
</event>
<event>
 5    1  0.1446384E-002  0.1250095E+03  0.7818608E-02  0.1235054E+00
         -4   -1    0    0    0  501 -0.00000000000E+00  0.00000000000E+00  0.13038452770E+02  0.13100158420E+02  0.12700000000E+01 0.  1.
          4   -1    0    0  501    0  0.00000000000E+00 -0.00000000000E+00 -0.29886984642E+03  0.29887254474E+03  0.12700000000E+01 0.  1.
         25    2    1    2    0    0  0.00000000000E+00  0.00000000000E+00 -0.28583139365E+03  0.31197270316E+03  0.12500952732E+03 0.  0.
    9000005    1    3    3    0    0  0.47636546952E+02  0.18432529972E+02 -0.23278633090E+03  0.23832640353E+03  0.10000000000E+01 0.  0.
    9000005    1    3    3    0    0 -0.47636546952E+02 -0.18432529972E+02 -0.53045062750E+02  0.73646299628E+02  0.10000000000E+01 0.  0.
<mgrwt>
<rscale>  0 0.12500953E+03</rscale>
<asrwt>0</asrwt>
<pdfrwt beam="2">  1        4 0.74725490E-01 0.12500953E+03</pdfrwt>
<pdfrwt beam="1">  1       -4 0.32676647E-02 0.12500953E+03</pdfrwt>
<totfact> 0.12639256E+03</totfact>
</mgrwt>
</event>
<event>
 5    1  0.1446384E-002  0.1249984E+03  0.7818608E-02  0.1235072E+00
          4   -1    0    0  501    0  0.00000000000E+00  0.00000000000E+00  0.21344889687E+02  0.21382638185E+02  0.12700000000E+01 0. -1.
         -4   -1    0    0    0  501 -0.00000000000E+00 -0.00000000000E+00 -0.18280010770E+03  0.18280451930E+03  0.12700000000E+01 0. -1.
         25    2    1    2    0    0  0.00000000000E+00  0.00000000000E+00 -0.16145521801E+03  0.20418715748E+03  0.12499843142E+03 0.  0.
    9000005    1    3    3    0    0 -0.21632730658E+02 -0.40156634371E+02 -0.10950933890E+02  0.46919646981E+02  0.10000000000E+01 0.  0.
    9000005    1    3    3    0    0  0.21632730658E+02  0.40156634371E+02 -0.15050428412E+03  0.15726751050E+03  0.10000000000E+01 0.  0.
<mgrwt>
<rscale>  0 0.12499843E+03</rscale>
<asrwt>0</asrwt>
<pdfrwt beam="1">  1        4 0.53414930E-02 0.12499843E+03</pdfrwt>
<pdfrwt beam="2">  1       -4 0.45705292E-01 0.12499843E+03</pdfrwt>
<totfact> 0.16156329E+03</totfact>
</mgrwt>
</event>
<event>
 5    1  0.1446384E-002  0.1250021E+03  0.7818608E-02  0.1235066E+00
         -4   -1    0    0    0  501 -0.00000000000E+00  0.00000000000E+00  0.62527990158E+02  0.62540886252E+02  0.12700000000E+01 0.  1.
          4   -1    0    0  501    0  0.00000000000E+00 -0.00000000000E+00 -0.62448304559E+02  0.62461217106E+02  0.12700000000E+01 0.  1.
         25    2    1    2    0    0  0.00000000000E+00  0.00000000000E+00  0.79685598833E-01  0.12500210336E+03  0.12500207796E+03 0.  0.
    9000005    1    3    3    0    0 -0.32836293692E+02 -0.18291404534E+02 -0.49885934342E+02  0.62469225291E+02  0.10000000000E+01 0.  0.
    9000005    1    3    3    0    0  0.32836293692E+02  0.18291404534E+02  0.49965619941E+02  0.62532878067E+02  0.10000000000E+01 0.  0.
<mgrwt>
<rscale>  0 0.12500208E+03</rscale>
<asrwt>0</asrwt>
<pdfrwt beam="2">  1        4 0.15615302E-01 0.12500208E+03</pdfrwt>
<pdfrwt beam="1">  1       -4 0.15635224E-01 0.12500208E+03</pdfrwt>
<totfact> 0.19833977E+03</totfact>
</mgrwt>
</event>
<event>
 5    1  0.1446384E-002  0.1249984E+03  0.7818608E-02  0.1235072E+00
          4   -1    0    0  501    0  0.00000000000E+00  0.00000000000E+00  0.74510245495E+01  0.75584831042E+01  0.12700000000E+01 0. -1.
         -4   -1    0    0    0  501 -0.00000000000E+00 -0.00000000000E+00 -0.52038198609E+03  0.52038353581E+03  0.12700000000E+01 0. -1.
         25    2    1    2    0    0  0.00000000000E+00  0.00000000000E+00 -0.51293096154E+03  0.52794201891E+03  0.12499841612E+03 0.  0.
    9000005    1    3    3    0    0 -0.53836663356E+02  0.19631259340E+02 -0.36174885021E+03  0.36626084051E+03  0.10000000000E+01 0.  0.
    9000005    1    3    3    0    0  0.53836663356E+02 -0.19631259340E+02 -0.15118211133E+03  0.16168117841E+03  0.10000000000E+01 0.  0.
<mgrwt>
<rscale>  0 0.12499842E+03</rscale>
<asrwt>0</asrwt>
<pdfrwt beam="1">  1        4 0.18763839E-02 0.12499842E+03</pdfrwt>
<pdfrwt beam="2">  1       -4 0.13010900E+00 0.12499842E+03</pdfrwt>
<totfact> 0.83330585E+02</totfact>
</mgrwt>
</event>
<event>
 5    1  0.1446384E-002  0.1250002E+03  0.7818608E-02  0.1235069E+00
         -4   -1    0    0    0  501 -0.00000000000E+00  0.00000000000E+00  0.37148971827E+02  0.37170674030E+02  0.12700000000E+01 0. -1.
          4   -1    0    0  501    0  0.00000000000E+00 -0.00000000000E+00 -0.10509497334E+03  0.10510264659E+03  0.12700000000E+01 0. -1.
         25    2    1    2    0    0  0.00000000000E+00  0.00000000000E+00 -0.67946001512E+02  0.14227332062E+03  0.12500015456E+03 0.  0.
    9000005    1    3    3    0    0  0.12180531497E+02 -0.60668943432E+02 -0.43906795956E+02  0.75880780016E+02  0.10000000000E+01 0.  0.
    9000005    1    3    3    0    0 -0.12180531497E+02  0.60668943432E+02 -0.24039205556E+02  0.66392540609E+02  0.10000000000E+01 0.  0.
<mgrwt>
<rscale>  0 0.12500015E+03</rscale>
<asrwt>0</asrwt>
<pdfrwt beam="2">  1        4 0.26277415E-01 0.12500015E+03</pdfrwt>
<pdfrwt beam="1">  1       -4 0.92909151E-02 0.12500015E+03</pdfrwt>
<totfact> 0.18924572E+03</totfact>
</mgrwt>
</event>
<event>
 5    1  0.1446384E-002  0.1249989E+03  0.7818608E-02  0.1235071E+00
          4   -1    0    0  501    0  0.00000000000E+00  0.00000000000E+00  0.19522474836E+02  0.19563740024E+02  0.12700000000E+01 0.  1.
         -4   -1    0    0    0  501 -0.00000000000E+00 -0.00000000000E+00 -0.19983171436E+03  0.19983574997E+03  0.12700000000E+01 0.  1.
         25    2    1    2    0    0  0.00000000000E+00  0.00000000000E+00 -0.18030923953E+03  0.21939948999E+03  0.12499885739E+03 0.  0.
    9000005    1    3    3    0    0  0.32613765000E+02 -0.51750325412E+02 -0.67716396165E+02  0.91259323673E+02  0.10000000000E+01 0.  0.
    9000005    1    3    3    0    0 -0.32613765000E+02  0.51750325412E+02 -0.11259284336E+03  0.12814016632E+03  0.10000000000E+01 0.  0.
<mgrwt>
<rscale>  0 0.12499886E+03</rscale>
<asrwt>0</asrwt>
<pdfrwt beam="1">  1        4 0.48862819E-02 0.12499886E+03</pdfrwt>
<pdfrwt beam="2">  1       -4 0.49963585E-01 0.12499886E+03</pdfrwt>
<totfact> 0.15574048E+03</totfact>
</mgrwt>
</event>
<event>
 5    1  0.1446384E-002  0.1249955E+03  0.7818608E-02  0.1235076E+00
         -4   -1    0    0    0  501 -0.00000000000E+00  0.00000000000E+00  0.72608842605E+03  0.72608953672E+03  0.12700000000E+01 0. -1.
          4   -1    0    0  501    0  0.00000000000E+00 -0.00000000000E+00 -0.53033766632E+01  0.54533204593E+01  0.12700000000E+01 0. -1.
         25    2    1    2    0    0  0.00000000000E+00  0.00000000000E+00  0.72078504938E+03  0.73154285718E+03  0.12499545784E+03 0.  0.
    9000005    1    3    3    0    0  0.31867059309E+02 -0.44815653823E+02  0.18667769139E+03  0.19461118354E+03  0.10000000000E+01 0.  0.
    9000005    1    3    3    0    0 -0.31867059309E+02  0.44815653823E+02  0.53410735799E+03  0.53693167364E+03  0.10000000000E+01 0.  0.
<mgrwt>
<rscale>  0 0.12499546E+03</rscale>
<asrwt>0</asrwt>
<pdfrwt beam="2">  1        4 0.13447258E-02 0.12499546E+03</pdfrwt>
<pdfrwt beam="1">  1       -4 0.18154101E+00 0.12499546E+03</pdfrwt>
<totfact> 0.58868250E+02</totfact>
</mgrwt>
</event>
<event>
 5    1  0.1446384E-002  0.1249983E+03  0.7818608E-02  0.1235072E+00
          4   -1    0    0  501    0  0.00000000000E+00  0.00000000000E+00  0.20976787241E+02  0.21015196952E+02  0.12700000000E+01 0.  1.
         -4   -1    0    0    0  501 -0.00000000000E+00 -0.00000000000E+00 -0.18600184281E+03  0.18600617847E+03  0.12700000000E+01 0.  1.
         25    2    1    2    0    0  0.00000000000E+00  0.00000000000E+00 -0.16502505557E+03  0.20702137542E+03  0.12499832365E+03 0.  0.
    9000005    1    3    3    0    0  0.57592715422E+02 -0.23995520673E+02 -0.76671224043E+02  0.98854349820E+02  0.10000000000E+01 0.  0.
    9000005    1    3    3    0    0 -0.57592715422E+02  0.23995520673E+02 -0.88353831525E+02  0.10816702560E+03  0.10000000000E+01 0.  0.
<mgrwt>
<rscale>  0 0.12499832E+03</rscale>
<asrwt>0</asrwt>
<pdfrwt beam="1">  1        4 0.52495405E-02 0.12499832E+03</pdfrwt>
<pdfrwt beam="2">  1       -4 0.46505799E-01 0.12499832E+03</pdfrwt>
<totfact> 0.16045325E+03</totfact>
</mgrwt>
</event>
<event>
 5    1  0.1446384E-002  0.1250158E+03  0.7818608E-02  0.1235045E+00
          4   -1    0    0  501    0  0.00000000000E+00  0.00000000000E+00  0.91728374221E+02  0.91737165517E+02  0.12700000000E+01 0.  1.
         -4   -1    0    0    0  501 -0.00000000000E+00 -0.00000000000E+00 -0.42575410215E+02  0.42594347689E+02  0.12700000000E+01 0.  1.
         25    2    1    2    0    0  0.00000000000E+00  0.00000000000E+00  0.49152964005E+02  0.13433151321E+03  0.12501576528E+03 0.  0.
    9000005    1    3    3    0    0  0.21195155406E+02  0.44162093856E+02 -0.17132346716E+02  0.51904166022E+02  0.10000000000E+01 0.  0.
    9000005    1    3    3    0    0 -0.21195155406E+02 -0.44162093856E+02  0.66285310721E+02  0.82427347184E+02  0.10000000000E+01 0.  0.
<mgrwt>
<rscale>  0 0.12501577E+03</rscale>
<asrwt>0</asrwt>
<pdfrwt beam="1">  1        4 0.22935560E-01 0.12501577E+03</pdfrwt>
<pdfrwt beam="2">  1       -4 0.10647319E-01 0.12501577E+03</pdfrwt>
<totfact> 0.19327098E+03</totfact>
</mgrwt>
</event>
<event>
 5    1  0.1446384E-002  0.1249987E+03  0.7818608E-02  0.1235071E+00
         -4   -1    0    0    0  501 -0.00000000000E+00  0.00000000000E+00  0.74256278671E+03  0.74256387274E+03  0.12700000000E+01 0. -1.
          4   -1    0    0  501    0  0.00000000000E+00 -0.00000000000E+00 -0.51826336277E+01  0.53359714504E+01  0.12700000000E+01 0. -1.
         25    2    1    2    0    0  0.00000000000E+00  0.00000000000E+00  0.73738015308E+03  0.74789984419E+03  0.12499874715E+03 0.  0.
    9000005    1    3    3    0    0  0.12242505510E+02 -0.58913791362E+02  0.46960300638E+03  0.47344344684E+03  0.10000000000E+01 0.  0.
    9000005    1    3    3    0    0 -0.12242505510E+02  0.58913791362E+02  0.26777714670E+03  0.27445639735E+03  0.10000000000E+01 0.  0.
<mgrwt>
<rscale>  0 0.12499875E+03</rscale>
<asrwt>0</asrwt>
<pdfrwt beam="2">  1        4 0.13149611E-02 0.12499875E+03</pdfrwt>
<pdfrwt beam="1">  1       -4 0.18566003E+00 0.12499875E+03</pdfrwt>
<totfact> 0.57272833E+02</totfact>
</mgrwt>
</event>
<event>
 5    1  0.1446384E-002  0.1250024E+03  0.7818608E-02  0.1235066E+00
         -4   -1    0    0    0  501 -0.00000000000E+00  0.00000000000E+00  0.19909997693E+03  0.19910402736E+03  0.12700000000E+01 0.  1.
          4   -1    0    0  501    0  0.00000000000E+00 -0.00000000000E+00 -0.19595492771E+02  0.19636604516E+02  0.12700000000E+01 0.  1.
         25    2    1    2    0    0  0.00000000000E+00  0.00000000000E+00  0.17950448416E+03  0.21874063188E+03  0.12500241679E+03 0.  0.
    9000005    1    3    3    0    0  0.31505829191E+02 -0.14242997924E+02  0.18084615360E+03  0.18412444578E+03  0.10000000000E+01 0.  0.
    9000005    1    3    3    0    0 -0.31505829191E+02  0.14242997924E+02 -0.13416694457E+01  0.34616186095E+02  0.10000000000E+01 0.  0.
<mgrwt>
<rscale>  0 0.12500242E+03</rscale>
<asrwt>0</asrwt>
<pdfrwt beam="2">  1        4 0.49045185E-02 0.12500242E+03</pdfrwt>
<pdfrwt beam="1">  1       -4 0.49780639E-01 0.12500242E+03</pdfrwt>
<totfact> 0.15597287E+03</totfact>
</mgrwt>
</event>
<event>
 5    1  0.1446384E-002  0.1250025E+03  0.7818608E-02  0.1235065E+00
          4   -1    0    0  501    0  0.00000000000E+00  0.00000000000E+00  0.57912216121E+02  0.57926139834E+02  0.12700000000E+01 0. -1.
         -4   -1    0    0    0  501 -0.00000000000E+00 -0.00000000000E+00 -0.67425927098E+02  0.67437886570E+02  0.12700000000E+01 0. -1.
         25    2    1    2    0    0  0.00000000000E+00  0.00000000000E+00 -0.95137109765E+01  0.12536402640E+03  0.12500251365E+03 0.  0.
    9000005    1    3    3    0    0 -0.55747906387E+01  0.53096247698E+02 -0.37333365592E+02  0.65154201681E+02  0.10000000000E+01 0.  0.
    9000005    1    3    3    0    0  0.55747906387E+01 -0.53096247698E+02  0.27819654615E+02  0.60209824723E+02  0.10000000000E+01 0.  0.
<mgrwt>
<rscale>  0 0.12500251E+03</rscale>
<asrwt>0</asrwt>
<pdfrwt beam="1">  1        4 0.14481289E-01 0.12500251E+03</pdfrwt>
<pdfrwt beam="2">  1       -4 0.16859717E-01 0.12500251E+03</pdfrwt>
<totfact> 0.19814161E+03</totfact>
</mgrwt>
</event>
<event>
 5    1  0.1446384E-002  0.1249978E+03  0.7818608E-02  0.1235073E+00
         -4   -1    0    0    0  501 -0.00000000000E+00  0.00000000000E+00  0.74097295781E+01  0.75177784233E+01  0.12700000000E+01 0. -1.
          4   -1    0    0  501    0  0.00000000000E+00 -0.00000000000E+00 -0.52323579067E+03  0.52323733194E+03  0.12700000000E+01 0. -1.
         25    2    1    2    0    0  0.00000000000E+00  0.00000000000E+00 -0.51582606109E+03  0.53075511036E+03  0.12499784749E+03 0.  0.
    9000005    1    3    3    0    0 -0.31165243671E+02  0.52441337197E+02 -0.20035520354E+03  0.20943871143E+03  0.10000000000E+01 0.  0.
    9000005    1    3    3    0    0  0.31165243671E+02 -0.52441337197E+02 -0.31547085755E+03  0.32131639893E+03  0.10000000000E+01 0.  0.
<mgrwt>
<rscale>  0 0.12499785E+03</rscale>
<asrwt>0</asrwt>
<pdfrwt beam="2">  1        4 0.13082252E+00 0.12499785E+03</pdfrwt>
<pdfrwt beam="1">  1       -4 0.18661329E-02 0.12499785E+03</pdfrwt>
<totfact> 0.82918392E+02</totfact>
</mgrwt>
</event>
<event>
 5    1  0.1446384E-002  0.1249791E+03  0.7818608E-02  0.1235102E+00
         -4   -1    0    0    0  501 -0.00000000000E+00  0.00000000000E+00  0.10785066221E+03  0.10785813942E+03  0.12700000000E+01 0.  1.
          4   -1    0    0  501    0  0.00000000000E+00 -0.00000000000E+00 -0.36187097535E+02  0.36209376244E+02  0.12700000000E+01 0.  1.
         25    2    1    2    0    0  0.00000000000E+00  0.00000000000E+00  0.71663564674E+02  0.14406751566E+03  0.12497912853E+03 0.  0.
    9000005    1    3    3    0    0 -0.33910301438E+02 -0.13239616405E+02  0.94369146987E+02  0.10115202365E+03  0.10000000000E+01 0.  0.
    9000005    1    3    3    0    0  0.33910301438E+02  0.13239616405E+02 -0.22705582314E+02  0.42915492009E+02  0.10000000000E+01 0.  0.
<mgrwt>
<rscale>  0 0.12497913E+03</rscale>
<asrwt>0</asrwt>
<pdfrwt beam="2">  1        4 0.90504939E-02 0.12497913E+03</pdfrwt>
<pdfrwt beam="1">  1       -4 0.26966385E-01 0.12497913E+03</pdfrwt>
<totfact> 0.18843316E+03</totfact>
</mgrwt>
</event>
<event>
 5    1  0.1446384E-002  0.1249983E+03  0.7818608E-02  0.1235072E+00
         -4   -1    0    0    0  501 -0.00000000000E+00  0.00000000000E+00  0.50016823096E+02  0.50032944073E+02  0.12700000000E+01 0. -1.
          4   -1    0    0  501    0  0.00000000000E+00 -0.00000000000E+00 -0.78062747542E+02  0.78073077650E+02  0.12700000000E+01 0. -1.
         25    2    1    2    0    0  0.00000000000E+00  0.00000000000E+00 -0.28045924446E+02  0.12810602172E+03  0.12499831568E+03 0.  0.
    9000005    1    3    3    0    0 -0.62392822078E+02  0.21180806311E+01 -0.16884184992E+02  0.64679411061E+02  0.10000000000E+01 0.  0.
    9000005    1    3    3    0    0  0.62392822078E+02 -0.21180806311E+01 -0.11161739454E+02  0.63426610662E+02  0.10000000000E+01 0.  0.
<mgrwt>
<rscale>  0 0.12499832E+03</rscale>
<asrwt>0</asrwt>
<pdfrwt beam="2">  1        4 0.19518993E-01 0.12499832E+03</pdfrwt>
<pdfrwt beam="1">  1       -4 0.12507512E-01 0.12499832E+03</pdfrwt>
<totfact> 0.19667540E+03</totfact>
</mgrwt>
</event>
<event>
 5    1  0.1446384E-002  0.1249980E+03  0.7818608E-02  0.1235072E+00
         -4   -1    0    0    0  501 -0.00000000000E+00  0.00000000000E+00  0.13347724522E+02  0.13408006933E+02  0.12700000000E+01 0.  1.
          4   -1    0    0  501    0  0.00000000000E+00 -0.00000000000E+00 -0.29192249586E+03  0.29192525840E+03  0.12700000000E+01 0.  1.
         25    2    1    2    0    0  0.00000000000E+00  0.00000000000E+00 -0.27857477134E+03  0.30533326533E+03  0.12499799874E+03 0.  0.
    9000005    1    3    3    0    0  0.60436231130E+02 -0.15679173567E+02 -0.14563391061E+03  0.15845696714E+03  0.10000000000E+01 0.  0.
    9000005    1    3    3    0    0 -0.60436231130E+02  0.15679173567E+02 -0.13294086073E+03  0.14687629819E+03  0.10000000000E+01 0.  0.
<mgrwt>
<rscale>  0 0.12499800E+03</rscale>
<asrwt>0</asrwt>
<pdfrwt beam="2">  1        4 0.72988484E-01 0.12499800E+03</pdfrwt>
<pdfrwt beam="1">  1       -4 0.33448127E-02 0.12499800E+03</pdfrwt>
<totfact> 0.12823477E+03</totfact>
</mgrwt>
</event>
<event>
 5    1  0.1446384E-002  0.1249983E+03  0.7818608E-02  0.1235072E+00
          4   -1    0    0  501    0  0.00000000000E+00  0.00000000000E+00  0.14137301357E+03  0.14137871786E+03  0.12700000000E+01 0.  1.
         -4   -1    0    0    0  501 -0.00000000000E+00 -0.00000000000E+00 -0.27609172522E+02  0.27638366582E+02  0.12700000000E+01 0.  1.
         25    2    1    2    0    0  0.00000000000E+00  0.00000000000E+00  0.11376384104E+03  0.16901708445E+03  0.12499825321E+03 0.  0.
    9000005    1    3    3    0    0 -0.33337733511E+02 -0.47136032251E+02  0.89218822473E+02  0.10627421275E+03  0.10000000000E+01 0.  0.
    9000005    1    3    3    0    0  0.33337733511E+02  0.47136032251E+02  0.24545018571E+02  0.62742871696E+02  0.10000000000E+01 0.  0.
<mgrwt>
<rscale>  0 0.12499825E+03</rscale>
<asrwt>0</asrwt>
<pdfrwt beam="1">  1        4 0.35347616E-01 0.12499825E+03</pdfrwt>
<pdfrwt beam="2">  1       -4 0.69066555E-02 0.12499825E+03</pdfrwt>
<totfact> 0.17642188E+03</totfact>
</mgrwt>
</event>
<event>
 5    1  0.1446384E-002  0.1249989E+03  0.7818608E-02  0.1235071E+00
          4   -1    0    0  501    0  0.00000000000E+00  0.00000000000E+00  0.25658136634E+03  0.25658450937E+03  0.12700000000E+01 0.  1.
         -4   -1    0    0    0  501 -0.00000000000E+00 -0.00000000000E+00 -0.15194214205E+02  0.15247197949E+02  0.12700000000E+01 0.  1.
         25    2    1    2    0    0  0.00000000000E+00  0.00000000000E+00  0.24138715213E+03  0.27183170732E+03  0.12499887956E+03 0.  0.
    9000005    1    3    3    0    0 -0.11049450649E+02  0.57214618900E+02  0.71602912737E+02  0.92323236987E+02  0.10000000000E+01 0.  0.
    9000005    1    3    3    0    0  0.11049450649E+02 -0.57214618900E+02  0.16978423939E+03  0.17950847034E+03  0.10000000000E+01 0.  0.
<mgrwt>
<rscale>  0 0.12499888E+03</rscale>
<asrwt>0</asrwt>
<pdfrwt beam="1">  1        4 0.64152358E-01 0.12499888E+03</pdfrwt>
<pdfrwt beam="2">  1       -4 0.38055694E-02 0.12499888E+03</pdfrwt>
<totfact> 0.13799301E+03</totfact>
</mgrwt>
</event>
<event>
 5    1  0.1446384E-002  0.1249994E+03  0.7818608E-02  0.1235070E+00
          4   -1    0    0  501    0  0.00000000000E+00  0.00000000000E+00  0.42251498455E+02  0.42270581043E+02  0.12700000000E+01 0.  1.
         -4   -1    0    0    0  501 -0.00000000000E+00 -0.00000000000E+00 -0.92407206635E+02  0.92415933357E+02  0.12700000000E+01 0.  1.
         25    2    1    2    0    0  0.00000000000E+00  0.00000000000E+00 -0.50155708180E+02  0.13468651440E+03  0.12499944839E+03 0.  0.
    9000005    1    3    3    0    0  0.46401300490E+02 -0.12527979277E+02 -0.68112822419E+02  0.83368984220E+02  0.10000000000E+01 0.  0.
    9000005    1    3    3    0    0 -0.46401300490E+02  0.12527979277E+02  0.17957114239E+02  0.51317530180E+02  0.10000000000E+01 0.  0.
<mgrwt>
<rscale>  0 0.12499945E+03</rscale>
<asrwt>0</asrwt>
<pdfrwt beam="1">  1        4 0.10566351E-01 0.12499945E+03</pdfrwt>
<pdfrwt beam="2">  1       -4 0.23105278E-01 0.12499945E+03</pdfrwt>
<totfact> 0.19315818E+03</totfact>
</mgrwt>
</event>
<event>
 5    1  0.1446384E-002  0.1250042E+03  0.7818608E-02  0.1235063E+00
         -4   -1    0    0    0  501 -0.00000000000E+00  0.00000000000E+00  0.12394704378E+03  0.12395355001E+03  0.12700000000E+01 0.  1.
          4   -1    0    0  501    0  0.00000000000E+00 -0.00000000000E+00 -0.31497448309E+02  0.31523041573E+02  0.12700000000E+01 0.  1.
         25    2    1    2    0    0  0.00000000000E+00  0.00000000000E+00  0.92449595468E+02  0.15547659159E+03  0.12500417125E+03 0.  0.
    9000005    1    3    3    0    0  0.47734352070E+02 -0.39545525697E+02  0.56104267398E+02  0.83612832690E+02  0.10000000000E+01 0.  0.
    9000005    1    3    3    0    0 -0.47734352070E+02  0.39545525697E+02  0.36345328070E+02  0.71863758896E+02  0.10000000000E+01 0.  0.
<mgrwt>
<rscale>  0 0.12500417E+03</rscale>
<asrwt>0</asrwt>
<pdfrwt beam="2">  1        4 0.78783746E-02 0.12500417E+03</pdfrwt>
<pdfrwt beam="1">  1       -4 0.30990773E-01 0.12500417E+03</pdfrwt>
<totfact> 0.18270961E+03</totfact>
</mgrwt>
</event>
<event>
 5    1  0.1446384E-002  0.1250404E+03  0.7818608E-02  0.1235006E+00
          4   -1    0    0  501    0  0.00000000000E+00  0.00000000000E+00  0.28593872690E+02  0.28622062389E+02  0.12700000000E+01 0.  1.
         -4   -1    0    0    0  501 -0.00000000000E+00 -0.00000000000E+00 -0.13660119928E+03  0.13660710283E+03  0.12700000000E+01 0.  1.
         25    2    1    2    0    0  0.00000000000E+00  0.00000000000E+00 -0.10800732659E+03  0.16522916522E+03  0.12504037125E+03 0.  0.
    9000005    1    3    3    0    0 -0.10295235842E+02 -0.16442357192E+02 -0.13252935911E+03  0.13394541432E+03  0.10000000000E+01 0.  0.
    9000005    1    3    3    0    0  0.10295235842E+02  0.16442357192E+02  0.24522032526E+02  0.31283750898E+02  0.10000000000E+01 0.  0.
<mgrwt>
<rscale>  0 0.12504037E+03</rscale>
<asrwt>0</asrwt>
<pdfrwt beam="1">  1        4 0.71527302E-02 0.12504037E+03</pdfrwt>
<pdfrwt beam="2">  1       -4 0.34154560E-01 0.12504037E+03</pdfrwt>
<totfact> 0.17797709E+03</totfact>
</mgrwt>
</event>
<event>
 5    1  0.1446384E-002  0.1250017E+03  0.7818608E-02  0.1235067E+00
         -4   -1    0    0    0  501 -0.00000000000E+00  0.00000000000E+00  0.53644525635E+03  0.53644675967E+03  0.12700000000E+01 0. -1.
          4   -1    0    0  501    0  0.00000000000E+00 -0.00000000000E+00 -0.72250319049E+01  0.73358016622E+01  0.12700000000E+01 0. -1.
         25    2    1    2    0    0  0.00000000000E+00  0.00000000000E+00  0.52922022445E+03  0.54378256134E+03  0.12500171218E+03 0.  0.
    9000005    1    3    3    0    0 -0.56142929907E+02 -0.18402539009E+02  0.35319573372E+03  0.35810460530E+03  0.10000000000E+01 0.  0.
    9000005    1    3    3    0    0  0.56142929907E+02  0.18402539009E+02  0.17602449073E+03  0.18567795603E+03  0.10000000000E+01 0.  0.
<mgrwt>
<rscale>  0 0.12500171E+03</rscale>
<asrwt>0</asrwt>
<pdfrwt beam="2">  1        4 0.18202921E-02 0.12500171E+03</pdfrwt>
<pdfrwt beam="1">  1       -4 0.13412535E+00 0.12500171E+03</pdfrwt>
<totfact> 0.81036551E+02</totfact>
</mgrwt>
</event>
<event>
 5    1  0.1446384E-002  0.1250016E+03  0.7818608E-02  0.1235067E+00
         -4   -1    0    0    0  501 -0.00000000000E+00  0.00000000000E+00  0.25497120598E+02  0.25528730066E+02  0.12700000000E+01 0.  1.
          4   -1    0    0  501    0  0.00000000000E+00 -0.00000000000E+00 -0.15307825021E+03  0.15308351834E+03  0.12700000000E+01 0.  1.
         25    2    1    2    0    0  0.00000000000E+00  0.00000000000E+00 -0.12758112961E+03  0.17861224840E+03  0.12500156258E+03 0.  0.
    9000005    1    3    3    0    0  0.11136891195E+02 -0.27020242890E+02  0.15137749312E+02  0.32928336210E+02  0.10000000000E+01 0.  0.
    9000005    1    3    3    0    0 -0.11136891195E+02  0.27020242890E+02 -0.14271887892E+03  0.14568391219E+03  0.10000000000E+01 0.  0.
<mgrwt>
<rscale>  0 0.12500156E+03</rscale>
<asrwt>0</asrwt>
<pdfrwt beam="2">  1        4 0.38274170E-01 0.12500156E+03</pdfrwt>
<pdfrwt beam="1">  1       -4 0.63788903E-02 0.12500156E+03</pdfrwt>
<totfact> 0.17214827E+03</totfact>
</mgrwt>
</event>
<event>
 5    1  0.1446384E-002  0.1249927E+03  0.7818608E-02  0.1235081E+00
          4   -1    0    0  501    0  0.00000000000E+00  0.00000000000E+00  0.21604145124E+02  0.21641441415E+02  0.12700000000E+01 0.  1.
         -4   -1    0    0    0  501 -0.00000000000E+00 -0.00000000000E+00 -0.18059367268E+03  0.18059813817E+03  0.12700000000E+01 0.  1.
         25    2    1    2    0    0  0.00000000000E+00  0.00000000000E+00 -0.15898952755E+03  0.20223957959E+03  0.12499271051E+03 0.  0.
    9000005    1    3    3    0    0 -0.57352610879E+02 -0.68330919636E+00 -0.39369215503E+02  0.69575311824E+02  0.10000000000E+01 0.  0.
    9000005    1    3    3    0    0  0.57352610879E+02  0.68330919636E+00 -0.11962031205E+03  0.13266426776E+03  0.10000000000E+01 0.  0.
<mgrwt>
<rscale>  0 0.12499271E+03</rscale>
<asrwt>0</asrwt>
<pdfrwt beam="1">  1        4 0.54062570E-02 0.12499271E+03</pdfrwt>
<pdfrwt beam="2">  1       -4 0.45153634E-01 0.12499271E+03</pdfrwt>
<totfact> 0.16235492E+03</totfact>
</mgrwt>
</event>
<event>
 5    1  0.1446384E-002  0.1250031E+03  0.7818608E-02  0.1235064E+00
         -4   -1    0    0    0  501 -0.00000000000E+00  0.00000000000E+00  0.33602091161E+03  0.33602331160E+03  0.12700000000E+01 0. -1.
          4   -1    0    0  501    0  0.00000000000E+00 -0.00000000000E+00 -0.11588459410E+02  0.11657842489E+02  0.12700000000E+01 0. -1.
         25    2    1    2    0    0  0.00000000000E+00  0.00000000000E+00  0.32443245220E+03  0.34768115409E+03  0.12500307544E+03 0.  0.
    9000005    1    3    3    0    0  0.17038471098E+02 -0.57587421899E+02  0.11413600945E+03  0.12897538258E+03  0.10000000000E+01 0.  0.
    9000005    1    3    3    0    0 -0.17038471098E+02  0.57587421899E+02  0.21029644275E+03  0.21870577151E+03  0.10000000000E+01 0.  0.
<mgrwt>
<rscale>  0 0.12500308E+03</rscale>
<asrwt>0</asrwt>
<pdfrwt beam="2">  1        4 0.29060879E-02 0.12500308E+03</pdfrwt>
<pdfrwt beam="1">  1       -4 0.84014197E-01 0.12500308E+03</pdfrwt>
<totfact> 0.11732001E+03</totfact>
</mgrwt>
</event>
<event>
 5    1  0.1446384E-002  0.1249968E+03  0.7818608E-02  0.1235074E+00
          4   -1    0    0  501    0  0.00000000000E+00  0.00000000000E+00  0.18747356692E+03  0.18747786854E+03  0.12700000000E+01 0.  1.
         -4   -1    0    0    0  501 -0.00000000000E+00 -0.00000000000E+00 -0.20811319194E+02  0.20850033731E+02  0.12700000000E+01 0.  1.
         25    2    1    2    0    0  0.00000000000E+00  0.00000000000E+00  0.16666224773E+03  0.20832790227E+03  0.12499684016E+03 0.  0.
    9000005    1    3    3    0    0 -0.48066573934E+02 -0.38507016745E+02  0.10095894807E+03  0.11826620424E+03  0.10000000000E+01 0.  0.
    9000005    1    3    3    0    0  0.48066573934E+02  0.38507016745E+02  0.65703299653E+02  0.90061698038E+02  0.10000000000E+01 0.  0.
<mgrwt>
<rscale>  0 0.12499684E+03</rscale>
<asrwt>0</asrwt>
<pdfrwt beam="1">  1        4 0.46873768E-01 0.12499684E+03</pdfrwt>
<pdfrwt beam="2">  1       -4 0.52082069E-02 0.12499684E+03</pdfrwt>
<totfact> 0.15995091E+03</totfact>
</mgrwt>
</event>
<event>
 5    1  0.1446384E-002  0.1249992E+03  0.7818608E-02  0.1235070E+00
          4   -1    0    0  501    0  0.00000000000E+00  0.00000000000E+00  0.13586442292E+02  0.13645670162E+02  0.12700000000E+01 0.  1.
         -4   -1    0    0    0  501 -0.00000000000E+00 -0.00000000000E+00 -0.28682136475E+03  0.28682417641E+03  0.12700000000E+01 0.  1.
         25    2    1    2    0    0  0.00000000000E+00  0.00000000000E+00 -0.27323492245E+03  0.30046984658E+03  0.12499922341E+03 0.  0.
    9000005    1    3    3    0    0  0.23318602568E+01  0.59656207695E+02 -0.18099953328E+03  0.19059415452E+03  0.10000000000E+01 0.  0.
    9000005    1    3    3    0    0 -0.23318602568E+01 -0.59656207695E+02 -0.92235389174E+02  0.10987569206E+03  0.10000000000E+01 0.  0.
<mgrwt>
<rscale>  0 0.12499922E+03</rscale>
<asrwt>0</asrwt>
<pdfrwt beam="1">  1        4 0.34043664E-02 0.12499922E+03</pdfrwt>
<pdfrwt beam="2">  1       -4 0.71713077E-01 0.12499922E+03</pdfrwt>
<totfact> 0.12958131E+03</totfact>
</mgrwt>
</event>
<event>
 5    1  0.1446384E-002  0.1249966E+03  0.7818608E-02  0.1235075E+00
          4   -1    0    0  501    0  0.00000000000E+00  0.00000000000E+00  0.54374776010E+02  0.54389605314E+02  0.12700000000E+01 0. -1.
         -4   -1    0    0    0  501 -0.00000000000E+00 -0.00000000000E+00 -0.71805240263E+02  0.71816470459E+02  0.12700000000E+01 0. -1.
         25    2    1    2    0    0  0.00000000000E+00  0.00000000000E+00 -0.17430464253E+02  0.12620607577E+03  0.12499660987E+03 0.  0.
    9000005    1    3    3    0    0 -0.60224758090E+02 -0.57804002730E+01  0.70759068468E+01  0.60922105774E+02  0.10000000000E+01 0.  0.
    9000005    1    3    3    0    0  0.60224758090E+02  0.57804002730E+01 -0.24506371100E+02  0.65283969999E+02  0.10000000000E+01 0.  0.
<mgrwt>
<rscale>  0 0.12499661E+03</rscale>
<asrwt>0</asrwt>
<pdfrwt beam="1">  1        4 0.13596952E-01 0.12499661E+03</pdfrwt>
<pdfrwt beam="2">  1       -4 0.17954567E-01 0.12499661E+03</pdfrwt>
<totfact> 0.19771356E+03</totfact>
</mgrwt>
</event>
<event>
 5    1  0.1446384E-002  0.1249993E+03  0.7818608E-02  0.1235070E+00
         -4   -1    0    0    0  501 -0.00000000000E+00  0.00000000000E+00  0.63080559454E+01  0.64346305108E+01  0.12700000000E+01 0.  1.
          4   -1    0    0  501    0  0.00000000000E+00 -0.00000000000E+00 -0.61296278627E+03  0.61296410193E+03  0.12700000000E+01 0.  1.
         25    2    1    2    0    0  0.00000000000E+00  0.00000000000E+00 -0.60665473033E+03  0.61939873244E+03  0.12499931168E+03 0.  0.
    9000005    1    3    3    0    0 -0.50116440752E+02  0.19082429784E+02 -0.14434208059E+03  0.15398517133E+03  0.10000000000E+01 0.  0.
    9000005    1    3    3    0    0  0.50116440752E+02 -0.19082429784E+02 -0.46231264974E+03  0.46541356111E+03  0.10000000000E+01 0.  0.
<mgrwt>
<rscale>  0 0.12499931E+03</rscale>
<asrwt>0</asrwt>
<pdfrwt beam="2">  1        4 0.15325648E+00 0.12499931E+03</pdfrwt>
<pdfrwt beam="1">  1       -4 0.15930023E-02 0.12499931E+03</pdfrwt>
<totfact> 0.71115705E+02</totfact>
</mgrwt>
</event>
<event>
 5    1  0.1446384E-002  0.1250039E+03  0.7818608E-02  0.1235063E+00
         -4   -1    0    0    0  501 -0.00000000000E+00  0.00000000000E+00  0.72157023126E+02  0.72168198581E+02  0.12700000000E+01 0.  1.
          4   -1    0    0  501    0  0.00000000000E+00 -0.00000000000E+00 -0.54115949157E+02  0.54130849367E+02  0.12700000000E+01 0.  1.
         25    2    1    2    0    0  0.00000000000E+00  0.00000000000E+00  0.18041073969E+02  0.12629904795E+03  0.12500387659E+03 0.  0.
    9000005    1    3    3    0    0 -0.91147893955E+01 -0.57752014886E+02  0.31319955701E+02  0.66334864395E+02  0.10000000000E+01 0.  0.
    9000005    1    3    3    0    0  0.91147893955E+01  0.57752014886E+02 -0.13278881731E+02  0.59964183553E+02  0.10000000000E+01 0.  0.
<mgrwt>
<rscale>  0 0.12500388E+03</rscale>
<asrwt>0</asrwt>
<pdfrwt beam="2">  1        4 0.13532247E-01 0.12500388E+03</pdfrwt>
<pdfrwt beam="1">  1       -4 0.18042515E-01 0.12500388E+03</pdfrwt>
<totfact> 0.19762976E+03</totfact>
</mgrwt>
</event>
<event>
 5    1  0.1446384E-002  0.1250011E+03  0.7818608E-02  0.1235068E+00
          4   -1    0    0  501    0  0.00000000000E+00  0.00000000000E+00  0.24506576234E+03  0.24506905307E+03  0.12700000000E+01 0. -1.
         -4   -1    0    0    0  501 -0.00000000000E+00 -0.00000000000E+00 -0.15911171634E+02  0.15961775677E+02  0.12700000000E+01 0. -1.
         25    2    1    2    0    0  0.00000000000E+00  0.00000000000E+00  0.22915459071E+03  0.26103082875E+03  0.12500106845E+03 0.  0.
    9000005    1    3    3    0    0  0.11438052240E+02  0.45101490471E+02  0.20169281659E+03  0.20699267075E+03  0.10000000000E+01 0.  0.
    9000005    1    3    3    0    0 -0.11438052240E+02 -0.45101490471E+02  0.27461774122E+02  0.54038157997E+02  0.10000000000E+01 0.  0.
<mgrwt>
<rscale>  0 0.12500107E+03</rscale>
<asrwt>0</asrwt>
<pdfrwt beam="1">  1        4 0.61273176E-01 0.12500107E+03</pdfrwt>
<pdfrwt beam="2">  1       -4 0.39845298E-02 0.12500107E+03</pdfrwt>
<totfact> 0.14137763E+03</totfact>
</mgrwt>
</event>
<event>
 5    1  0.1446384E-002  0.1250042E+03  0.7818608E-02  0.1235063E+00
          4   -1    0    0  501    0  0.00000000000E+00  0.00000000000E+00  0.42914654282E+02  0.42933442118E+02  0.12700000000E+01 0.  1.
         -4   -1    0    0    0  501 -0.00000000000E+00 -0.00000000000E+00 -0.90986633241E+02  0.90995496199E+02  0.12700000000E+01 0.  1.
         25    2    1    2    0    0  0.00000000000E+00  0.00000000000E+00 -0.48071978960E+02  0.13392893832E+03  0.12500418136E+03 0.  0.
    9000005    1    3    3    0    0  0.57758517351E+02 -0.10522208596E+02 -0.46983577459E+02  0.75201195145E+02  0.10000000000E+01 0.  0.
    9000005    1    3    3    0    0 -0.57758517351E+02  0.10522208596E+02 -0.10884015006E+01  0.58727743173E+02  0.10000000000E+01 0.  0.
<mgrwt>
<rscale>  0 0.12500418E+03</rscale>
<asrwt>0</asrwt>
<pdfrwt beam="1">  1        4 0.10732120E-01 0.12500418E+03</pdfrwt>
<pdfrwt beam="2">  1       -4 0.22750114E-01 0.12500418E+03</pdfrwt>
<totfact> 0.19353497E+03</totfact>
</mgrwt>
</event>
<event>
 5    1  0.1446384E-002  0.1249992E+03  0.7818608E-02  0.1235071E+00
         -4   -1    0    0    0  501 -0.00000000000E+00  0.00000000000E+00  0.86159556768E+02  0.86168916219E+02  0.12700000000E+01 0. -1.
          4   -1    0    0  501    0  0.00000000000E+00 -0.00000000000E+00 -0.45316077411E+02  0.45333870030E+02  0.12700000000E+01 0. -1.
         25    2    1    2    0    0  0.00000000000E+00  0.00000000000E+00  0.40843479357E+02  0.13150278625E+03  0.12499917194E+03 0.  0.
    9000005    1    3    3    0    0  0.24668197436E+02  0.46340365916E+02  0.56086133114E+02  0.76828404940E+02  0.10000000000E+01 0.  0.
    9000005    1    3    3    0    0 -0.24668197436E+02 -0.46340365916E+02 -0.15242653758E+02  0.54674381309E+02  0.10000000000E+01 0.  0.
<mgrwt>
<rscale>  0 0.12499917E+03</rscale>
<asrwt>0</asrwt>
<pdfrwt beam="2">  1        4 0.11332413E-01 0.12499917E+03</pdfrwt>
<pdfrwt beam="1">  1       -4 0.21543283E-01 0.12499917E+03</pdfrwt>
<totfact> 0.19484307E+03</totfact>
</mgrwt>
</event>
<event>
 5    1  0.1446384E-002  0.1249919E+03  0.7818608E-02  0.1235082E+00
         -4   -1    0    0    0  501 -0.00000000000E+00  0.00000000000E+00  0.27955171207E+02  0.27984004310E+02  0.12700000000E+01 0.  1.
          4   -1    0    0  501    0  0.00000000000E+00 -0.00000000000E+00 -0.13961084503E+03  0.13961662132E+03  0.12700000000E+01 0.  1.
         25    2    1    2    0    0  0.00000000000E+00  0.00000000000E+00 -0.11165567382E+03  0.16760062563E+03  0.12499192060E+03 0.  0.
    9000005    1    3    3    0    0 -0.44544633986E+02  0.21452557570E+01 -0.11452028320E+03  0.12290126852E+03  0.10000000000E+01 0.  0.
    9000005    1    3    3    0    0  0.44544633986E+02 -0.21452557570E+01  0.28646093816E+01  0.44699357111E+02  0.10000000000E+01 0.  0.
<mgrwt>
<rscale>  0 0.12499192E+03</rscale>
<asrwt>0</asrwt>
<pdfrwt beam="2">  1        4 0.34907036E-01 0.12499192E+03</pdfrwt>
<pdfrwt beam="1">  1       -4 0.69931194E-02 0.12499192E+03</pdfrwt>
<totfact> 0.17709137E+03</totfact>
</mgrwt>
</event>
<event>
 5    1  0.1446384E-002  0.1250005E+03  0.7818608E-02  0.1235069E+00
          4   -1    0    0  501    0  0.00000000000E+00  0.00000000000E+00  0.38368837048E+02  0.38389849653E+02  0.12700000000E+01 0.  1.
         -4   -1    0    0    0  501 -0.00000000000E+00 -0.00000000000E+00 -0.10175579653E+03  0.10176372157E+03  0.12700000000E+01 0.  1.
         25    2    1    2    0    0  0.00000000000E+00  0.00000000000E+00 -0.63386959482E+02  0.14015357122E+03  0.12500046757E+03 0.  0.
    9000005    1    3    3    0    0  0.49830998460E+02 -0.35223386451E+02 -0.16589631732E+02  0.63245800189E+02  0.10000000000E+01 0.  0.
    9000005    1    3    3    0    0 -0.49830998460E+02  0.35223386451E+02 -0.46797327750E+02  0.76907771032E+02  0.10000000000E+01 0.  0.
<mgrwt>
<rscale>  0 0.12500047E+03</rscale>
<asrwt>0</asrwt>
<pdfrwt beam="1">  1        4 0.95958267E-02 0.12500047E+03</pdfrwt>
<pdfrwt beam="2">  1       -4 0.25442566E-01 0.12500047E+03</pdfrwt>
<totfact> 0.19032281E+03</totfact>
</mgrwt>
</event>
<event>
 4    1  0.1446384E-002  0.1248942E+03  0.7818608E-02  0.1235235E+00
          4   -1    0    0  501    0  0.00000000000E+00  0.00000000000E+00  0.10280341523E+02  0.10358490326E+02  0.12700000000E+01 0.  1.
         -4   -1    0    0    0  501 -0.00000000000E+00 -0.00000000000E+00 -0.37781429458E+03  0.37781642909E+03  0.12700000000E+01 0.  1.
    9000005    1    1    2    0    0 -0.39278368429E+02  0.32744411026E+02 -0.29512182516E+03  0.29952108167E+03  0.10000000000E+01 0.  0.
    9000005    1    1    2    0    0  0.39278368429E+02 -0.32744411026E+02 -0.72412127897E+02  0.88653837742E+02  0.10000000000E+01 0.  0.
<mgrwt>
<rscale>  0 0.12489420E+03</rscale>
<asrwt>0</asrwt>
<pdfrwt beam="1">  1        4 0.25801221E-02 0.12489420E+03</pdfrwt>
<pdfrwt beam="2">  1       -4 0.94463563E-01 0.12489420E+03</pdfrwt>
<totfact> 0.10843020E+03</totfact>
</mgrwt>
</event>
<event>
 5    1  0.1446384E-002  0.1250029E+03  0.7818608E-02  0.1235065E+00
          4   -1    0    0  501    0  0.00000000000E+00  0.00000000000E+00  0.54697561020E+03  0.54697708457E+03  0.12700000000E+01 0. -1.
         -4   -1    0    0    0  501 -0.00000000000E+00 -0.00000000000E+00 -0.70839240207E+01  0.71968659520E+01  0.12700000000E+01 0. -1.
         25    2    1    2    0    0  0.00000000000E+00  0.00000000000E+00  0.53989168617E+03  0.55417395053E+03  0.12500293853E+03 0.  0.
    9000005    1    3    3    0    0 -0.32918314826E+02  0.26049768540E+02  0.47518491818E+03  0.47703659436E+03  0.10000000000E+01 0.  0.
    9000005    1    3    3    0    0  0.32918314826E+02 -0.26049768540E+02  0.64706767990E+02  0.77137356162E+02  0.10000000000E+01 0.  0.
<mgrwt>
<rscale>  0 0.12500294E+03</rscale>
<asrwt>0</asrwt>
<pdfrwt beam="1">  1        4 0.13675821E+00 0.12500294E+03</pdfrwt>
<pdfrwt beam="2">  1       -4 0.17852830E-02 0.12500294E+03</pdfrwt>
<totfact> 0.79582663E+02</totfact>
</mgrwt>
</event>
<event>
 5    1  0.1446384E-002  0.1249976E+03  0.7818608E-02  0.1235073E+00
          4   -1    0    0  501    0  0.00000000000E+00  0.00000000000E+00  0.33101218006E+03  0.33101461636E+03  0.12700000000E+01 0.  1.
         -4   -1    0    0    0  501 -0.00000000000E+00 -0.00000000000E+00 -0.11763809216E+02  0.11832164099E+02  0.12700000000E+01 0.  1.
         25    2    1    2    0    0  0.00000000000E+00  0.00000000000E+00  0.31924837084E+03  0.34284678046E+03  0.12499757033E+03 0.  0.
    9000005    1    3    3    0    0 -0.20918477953E+02  0.56897302629E+02  0.20124042569E+03  0.21017515243E+03  0.10000000000E+01 0.  0.
    9000005    1    3    3    0    0  0.20918477953E+02 -0.56897302629E+02  0.11800794515E+03  0.13267162803E+03  0.10000000000E+01 0.  0.
<mgrwt>
<rscale>  0 0.12499757E+03</rscale>
<asrwt>0</asrwt>
<pdfrwt beam="1">  1        4 0.82761893E-01 0.12499757E+03</pdfrwt>
<pdfrwt beam="2">  1       -4 0.29498012E-02 0.12499757E+03</pdfrwt>
<totfact> 0.11850490E+03</totfact>
</mgrwt>
</event>
<event>
 5    1  0.1446384E-002  0.1249916E+03  0.7818608E-02  0.1235082E+00
          4   -1    0    0  501    0  0.00000000000E+00  0.00000000000E+00  0.46644701282E+03  0.46644874174E+03  0.12700000000E+01 0. -1.
         -4   -1    0    0    0  501 -0.00000000000E+00 -0.00000000000E+00 -0.83234414433E+01  0.84197730053E+01  0.12700000000E+01 0. -1.
         25    2    1    2    0    0  0.00000000000E+00  0.00000000000E+00  0.45812357137E+03  0.47486851474E+03  0.12499159829E+03 0.  0.
    9000005    1    3    3    0    0  0.11355325277E+02 -0.56830067345E+02  0.31784657341E+03  0.32308829164E+03  0.10000000000E+01 0.  0.
    9000005    1    3    3    0    0 -0.11355325277E+02  0.56830067345E+02  0.14027699797E+03  0.15178022310E+03  0.10000000000E+01 0.  0.
<mgrwt>
<rscale>  0 0.12499160E+03</rscale>
<asrwt>0</asrwt>
<pdfrwt beam="1">  1        4 0.11662402E+00 0.12499160E+03</pdfrwt>
<pdfrwt beam="2">  1       -4 0.20931178E-02 0.12499160E+03</pdfrwt>
<totfact> 0.91734542E+02</totfact>
</mgrwt>
</event>
