<event>
 5    1  0.3239419E-002  0.1249950E+03  0.7818608E-02  0.1235077E+00
          4   -1    0    0  501    0  0.00000000000E+00  0.00000000000E+00  0.44597393385E+03  0.44597574214E+03  0.12700000000E+01 0.  1.
         -4   -1    0    0    0  501 -0.00000000000E+00 -0.00000000000E+00 -0.87103384666E+01  0.88024369468E+01  0.12700000000E+01 0.  1.
         25    2    1    2    0    0  0.00000000000E+00  0.00000000000E+00  0.43726359539E+03  0.45477817909E+03  0.12499496119E+03 0.  0.
    9000005    1    3    3    0    0 -0.34223501740E+01 -0.45503959979E+02  0.37396140776E+03  0.37673658881E+03  0.10000000000E+01 0.  0.
    9000005    1    3    3    0    0  0.34223501740E+01  0.45503959979E+02  0.63302187630E+02  0.78041590279E+02  0.10000000000E+01 0.  0.
<mgrwt>
<rscale>  0 0.12499496E+03</rscale>
<asrwt>0</asrwt>
<pdfrwt beam="1">  1        4 0.68618591E-01 0.12499496E+03</pdfrwt>
<pdfrwt beam="2">  1       -4 0.13472758E-02 0.12499496E+03</pdfrwt>
<totfact> 0.59558696E+03</totfact>
</mgrwt>
</event>
<event>
 5    1  0.3239419E-002  0.1249942E+03  0.7818608E-02  0.1235078E+00
         -4   -1    0    0    0  501 -0.00000000000E+00  0.00000000000E+00  0.65032027899E+02  0.65044427530E+02  0.12700000000E+01 0.  1.
          4   -1    0    0  501    0  0.00000000000E+00 -0.00000000000E+00 -0.60036188579E+02  0.60049619808E+02  0.12700000000E+01 0.  1.
         25    2    1    2    0    0  0.00000000000E+00  0.00000000000E+00  0.49958393201E+01  0.12509404734E+03  0.12499424894E+03 0.  0.
    9000005    1    3    3    0    0  0.37866839384E+02  0.44473196651E+02  0.24722131374E+02  0.63434584613E+02  0.10000000000E+01 0.  0.
    9000005    1    3    3    0    0 -0.37866839384E+02 -0.44473196651E+02 -0.19726292054E+02  0.61659462725E+02  0.10000000000E+01 0.  0.
<mgrwt>
<rscale>  0 0.12499425E+03</rscale>
<asrwt>0</asrwt>
<pdfrwt beam="2">  1        4 0.92383237E-02 0.12499425E+03</pdfrwt>
<pdfrwt beam="1">  1       -4 0.10006914E-01 0.12499425E+03</pdfrwt>
<totfact> 0.10452179E+04</totfact>
</mgrwt>
</event>
<event>
 5    1  0.3239419E-002  0.1249944E+03  0.7818608E-02  0.1235078E+00
          4   -1    0    0  501    0  0.00000000000E+00  0.00000000000E+00  0.42552073910E+02  0.42571021764E+02  0.12700000000E+01 0. -1.
         -4   -1    0    0    0  501 -0.00000000000E+00 -0.00000000000E+00 -0.91747249526E+02  0.91756039014E+02  0.12700000000E+01 0. -1.
         25    2    1    2    0    0  0.00000000000E+00  0.00000000000E+00 -0.49195175617E+02  0.13432706078E+03  0.12499437569E+03 0.  0.
    9000005    1    3    3    0    0  0.57437671303E+01  0.41507276134E+02  0.25221603051E+02  0.48918034439E+02  0.10000000000E+01 0.  0.
    9000005    1    3    3    0    0 -0.57437671303E+01 -0.41507276134E+02 -0.74416778668E+02  0.85409026339E+02  0.10000000000E+01 0.  0.
<mgrwt>
<rscale>  0 0.12499438E+03</rscale>
<asrwt>0</asrwt>
<pdfrwt beam="1">  1        4 0.65486066E-02 0.12499438E+03</pdfrwt>
<pdfrwt beam="2">  1       -4 0.14117095E-01 0.12499438E+03</pdfrwt>
<totfact> 0.10253575E+04</totfact>
</mgrwt>
</event>
<event>
 5    1  0.3239419E-002  0.1249994E+03  0.7818608E-02  0.1235070E+00
          4   -1    0    0  501    0  0.00000000000E+00  0.00000000000E+00  0.48649054937E+02  0.48665629003E+02  0.12700000000E+01 0. -1.
         -4   -1    0    0    0  501 -0.00000000000E+00 -0.00000000000E+00 -0.80258409589E+02  0.80268457128E+02  0.12700000000E+01 0. -1.
         25    2    1    2    0    0  0.00000000000E+00  0.00000000000E+00 -0.31609354653E+02  0.12893408613E+03  0.12499938906E+03 0.  0.
    9000005    1    3    3    0    0 -0.41144933155E+02  0.45826949024E+02 -0.26730409398E+02  0.67145584871E+02  0.10000000000E+01 0.  0.
    9000005    1    3    3    0    0  0.41144933155E+02 -0.45826949024E+02 -0.48789452547E+01  0.61788501260E+02  0.10000000000E+01 0.  0.
<mgrwt>
<rscale>  0 0.12499939E+03</rscale>
<asrwt>0</asrwt>
<pdfrwt beam="1">  1        4 0.74865178E-02 0.12499939E+03</pdfrwt>
<pdfrwt beam="2">  1       -4 0.12349495E-01 0.12499939E+03</pdfrwt>
<totfact> 0.10367506E+04</totfact>
</mgrwt>
</event>
<event>
 5    1  0.3239419E-002  0.1249992E+03  0.7818608E-02  0.1235071E+00
          4   -1    0    0  501    0  0.00000000000E+00  0.00000000000E+00  0.12186912081E+01  0.17601443863E+01  0.12700000000E+01 0. -1.
         -4   -1    0    0    0  501 -0.00000000000E+00 -0.00000000000E+00 -0.26220923821E+04  0.26220926897E+04  0.12700000000E+01 0. -1.
         25    2    1    2    0    0  0.00000000000E+00  0.00000000000E+00 -0.26208736909E+04  0.26238528341E+04  0.12499916449E+03 0.  0.
    9000005    1    3    3    0    0 -0.12958070054E+02 -0.24282228720E+02 -0.24881139734E+04  0.24882664011E+04  0.10000000000E+01 0.  0.
    9000005    1    3    3    0    0  0.12958070054E+02  0.24282228720E+02 -0.13275971757E+03  0.13558643302E+03  0.10000000000E+01 0.  0.
<mgrwt>
<rscale>  0 0.12499916E+03</rscale>
<asrwt>0</asrwt>
<pdfrwt beam="1">  1        4 0.22916696E-03 0.12499916E+03</pdfrwt>
<pdfrwt beam="2">  1       -4 0.40343681E+00 0.12499916E+03</pdfrwt>
<totfact> 0.37679886E+02</totfact>
</mgrwt>
</event>
<event>
 5    1  0.3239419E-002  0.1250005E+03  0.7818608E-02  0.1235068E+00
          4   -1    0    0  501    0  0.00000000000E+00  0.00000000000E+00  0.50657479398E+03  0.50657638595E+03  0.12700000000E+01 0.  1.
         -4   -1    0    0    0  501 -0.00000000000E+00 -0.00000000000E+00 -0.76572579098E+01  0.77618618061E+01  0.12700000000E+01 0.  1.
         25    2    1    2    0    0  0.00000000000E+00  0.00000000000E+00  0.49891753607E+03  0.51433824775E+03  0.12500050120E+03 0.  0.
    9000005    1    3    3    0    0  0.36822459119E+02  0.41416698874E+02  0.36829032242E+03  0.37243791164E+03  0.10000000000E+01 0.  0.
    9000005    1    3    3    0    0 -0.36822459119E+02 -0.41416698874E+02  0.13062721365E+03  0.14190033611E+03  0.10000000000E+01 0.  0.
<mgrwt>
<rscale>  0 0.12500050E+03</rscale>
<asrwt>0</asrwt>
<pdfrwt beam="1">  1        4 0.77942762E-01 0.12500050E+03</pdfrwt>
<pdfrwt beam="2">  1       -4 0.11862085E-02 0.12500050E+03</pdfrwt>
<totfact> 0.54768198E+03</totfact>
</mgrwt>
</event>
<event>
 5    1  0.3239419E-002  0.1249792E+03  0.7818608E-02  0.1235102E+00
          4   -1    0    0  501    0  0.00000000000E+00  0.00000000000E+00  0.69887694863E+01  0.71032245447E+01  0.12700000000E+01 0. -1.
         -4   -1    0    0    0  501 -0.00000000000E+00 -0.00000000000E+00 -0.55409326370E+03  0.55409471914E+03  0.12700000000E+01 0. -1.
         25    2    1    2    0    0  0.00000000000E+00  0.00000000000E+00 -0.54710449421E+03  0.56119794368E+03  0.12497921590E+03 0.  0.
    9000005    1    3    3    0    0  0.14911390815E+02 -0.60433685892E+02 -0.29788765555E+03  0.30432324146E+03  0.10000000000E+01 0.  0.
    9000005    1    3    3    0    0 -0.14911390815E+02  0.60433685892E+02 -0.24921683866E+03  0.25687470222E+03  0.10000000000E+01 0.  0.
<mgrwt>
<rscale>  0 0.12497922E+03</rscale>
<asrwt>0</asrwt>
<pdfrwt beam="1">  1        4 0.10841119E-02 0.12497922E+03</pdfrwt>
<pdfrwt beam="2">  1       -4 0.85253999E-01 0.12497922E+03</pdfrwt>
<totfact> 0.51435711E+03</totfact>
</mgrwt>
</event>
<event>
 5    1  0.3239419E-002  0.1249996E+03  0.7818608E-02  0.1235070E+00
          4   -1    0    0  501    0  0.00000000000E+00  0.00000000000E+00  0.10918635122E+03  0.10919373696E+03  0.12700000000E+01 0. -1.
         -4   -1    0    0    0  501 -0.00000000000E+00 -0.00000000000E+00 -0.35755915886E+02  0.35778463087E+02  0.12700000000E+01 0. -1.
         25    2    1    2    0    0  0.00000000000E+00  0.00000000000E+00  0.73430435330E+02  0.14497220005E+03  0.12499963982E+03 0.  0.
    9000005    1    3    3    0    0 -0.46545013807E+02  0.16982451556E+02 -0.74537954066E+01  0.50113880683E+02  0.10000000000E+01 0.  0.
    9000005    1    3    3    0    0  0.46545013807E+02 -0.16982451556E+02  0.80884230736E+02  0.94858319366E+02  0.10000000000E+01 0.  0.
<mgrwt>
<rscale>  0 0.12499964E+03</rscale>
<asrwt>0</asrwt>
<pdfrwt beam="1">  1        4 0.16800202E-01 0.12499964E+03</pdfrwt>
<pdfrwt beam="2">  1       -4 0.55032129E-02 0.12499964E+03</pdfrwt>
<totfact> 0.10031635E+04</totfact>
</mgrwt>
</event>
<event>
 5    1  0.3239419E-002  0.1250056E+03  0.7818608E-02  0.1235061E+00
         -4   -1    0    0    0  501 -0.00000000000E+00  0.00000000000E+00  0.20682153419E+02  0.20721109287E+02  0.12700000000E+01 0.  1.
          4   -1    0    0  501    0  0.00000000000E+00 -0.00000000000E+00 -0.18866855978E+03  0.18867283416E+03  0.12700000000E+01 0.  1.
         25    2    1    2    0    0  0.00000000000E+00  0.00000000000E+00 -0.16798640636E+03  0.20939394344E+03  0.12500556319E+03 0.  0.
    9000005    1    3    3    0    0 -0.31147700324E+00 -0.68843732044E+01 -0.18803835732E+03  0.18816725388E+03  0.10000000000E+01 0.  0.
    9000005    1    3    3    0    0  0.31147700324E+00  0.68843732044E+01  0.20051950958E+02  0.21226689558E+02  0.10000000000E+01 0.  0.
<mgrwt>
<rscale>  0 0.12500556E+03</rscale>
<asrwt>0</asrwt>
<pdfrwt beam="2">  1        4 0.29029256E-01 0.12500556E+03</pdfrwt>
<pdfrwt beam="1">  1       -4 0.31851953E-02 0.12500556E+03</pdfrwt>
<totfact> 0.88563938E+03</totfact>
</mgrwt>
</event>
<event>
 5    1  0.3239419E-002  0.1249988E+03  0.7818608E-02  0.1235071E+00
          4   -1    0    0  501    0  0.00000000000E+00  0.00000000000E+00  0.72418409604E+02  0.72429544728E+02  0.12700000000E+01 0. -1.
         -4   -1    0    0    0  501 -0.00000000000E+00 -0.00000000000E+00 -0.53916254503E+02  0.53931209885E+02  0.12700000000E+01 0. -1.
         25    2    1    2    0    0  0.00000000000E+00  0.00000000000E+00  0.18502155101E+02  0.12636075461E+03  0.12499884225E+03 0.  0.
    9000005    1    3    3    0    0 -0.30304610524E+01  0.57659380062E+02  0.33415280588E+02  0.66718578973E+02  0.10000000000E+01 0.  0.
    9000005    1    3    3    0    0  0.30304610524E+01 -0.57659380062E+02 -0.14913125488E+02  0.59642175641E+02  0.10000000000E+01 0.  0.
<mgrwt>
<rscale>  0 0.12499884E+03</rscale>
<asrwt>0</asrwt>
<pdfrwt beam="1">  1        4 0.11143301E-01 0.12499884E+03</pdfrwt>
<pdfrwt beam="2">  1       -4 0.82968154E-02 0.12499884E+03</pdfrwt>
<totfact> 0.10423339E+04</totfact>
</mgrwt>
</event>
<event>
 5    1  0.3239419E-002  0.1250001E+03  0.7818608E-02  0.1235069E+00
         -4   -1    0    0    0  501 -0.00000000000E+00  0.00000000000E+00  0.24465572502E+02  0.24498512973E+02  0.12700000000E+01 0.  1.
          4   -1    0    0  501    0  0.00000000000E+00 -0.00000000000E+00 -0.15952060947E+03  0.15952566485E+03  0.12700000000E+01 0.  1.
         25    2    1    2    0    0  0.00000000000E+00  0.00000000000E+00 -0.13505503697E+03  0.18402417783E+03  0.12500014005E+03 0.  0.
    9000005    1    3    3    0    0  0.58059153846E+02  0.14543021523E+02 -0.93981699990E+02  0.11142676857E+03  0.10000000000E+01 0.  0.
    9000005    1    3    3    0    0 -0.58059153846E+02 -0.14543021523E+02 -0.41073336982E+02  0.72597409259E+02  0.10000000000E+01 0.  0.
<mgrwt>
<rscale>  0 0.12500014E+03</rscale>
<asrwt>0</asrwt>
<pdfrwt beam="2">  1        4 0.24544554E-01 0.12500014E+03</pdfrwt>
<pdfrwt beam="1">  1       -4 0.37668571E-02 0.12500014E+03</pdfrwt>
<totfact> 0.92897321E+03</totfact>
</mgrwt>
</event>
<event>
 5    1  0.3239419E-002  0.1250029E+03  0.7818608E-02  0.1235065E+00
         -4   -1    0    0    0  501 -0.00000000000E+00  0.00000000000E+00  0.48861732412E+03  0.48861897459E+03  0.12700000000E+01 0.  1.
          4   -1    0    0  501    0  0.00000000000E+00 -0.00000000000E+00 -0.79427648109E+01  0.80436566834E+01  0.12700000000E+01 0.  1.
         25    2    1    2    0    0  0.00000000000E+00  0.00000000000E+00  0.48067455931E+03  0.49666263127E+03  0.12500294931E+03 0.  0.
    9000005    1    3    3    0    0 -0.12839612998E+02  0.49851894972E+02  0.38111263128E+03  0.38457496644E+03  0.10000000000E+01 0.  0.
    9000005    1    3    3    0    0  0.12839612998E+02 -0.49851894972E+02  0.99561928033E+02  0.11208766483E+03  0.10000000000E+01 0.  0.
<mgrwt>
<rscale>  0 0.12500295E+03</rscale>
<asrwt>0</asrwt>
<pdfrwt beam="2">  1        4 0.12298514E-02 0.12500295E+03</pdfrwt>
<pdfrwt beam="1">  1       -4 0.75179804E-01 0.12500295E+03</pdfrwt>
<totfact> 0.56120586E+03</totfact>
</mgrwt>
</event>
<event>
 5    1  0.3239419E-002  0.1250007E+03  0.7818608E-02  0.1235068E+00
         -4   -1    0    0    0  501 -0.00000000000E+00  0.00000000000E+00  0.40735632327E+03  0.40735830298E+03  0.12700000000E+01 0. -1.
          4   -1    0    0  501    0  0.00000000000E+00 -0.00000000000E+00 -0.95453207840E+01  0.96294365811E+01  0.12700000000E+01 0. -1.
         25    2    1    2    0    0  0.00000000000E+00  0.00000000000E+00  0.39781100249E+03  0.41698773957E+03  0.12500072499E+03 0.  0.
    9000005    1    3    3    0    0  0.58597085778E+02 -0.13945912981E+02  0.14336647649E+03  0.15550901431E+03  0.10000000000E+01 0.  0.
    9000005    1    3    3    0    0 -0.58597085778E+02  0.13945912981E+02  0.25444452599E+03  0.26147872525E+03  0.10000000000E+01 0.  0.
<mgrwt>
<rscale>  0 0.12500072E+03</rscale>
<asrwt>0</asrwt>
<pdfrwt beam="2">  1        4 0.14751339E-02 0.12500072E+03</pdfrwt>
<pdfrwt beam="1">  1       -4 0.62676813E-01 0.12500072E+03</pdfrwt>
<totfact> 0.62932449E+03</totfact>
</mgrwt>
</event>
<event>
 5    1  0.3239419E-002  0.1250133E+03  0.7818608E-02  0.1235049E+00
          4   -1    0    0  501    0  0.00000000000E+00  0.00000000000E+00  0.14252239901E+03  0.14252805731E+03  0.12700000000E+01 0.  1.
         -4   -1    0    0    0  501 -0.00000000000E+00 -0.00000000000E+00 -0.27392873955E+02  0.27422298291E+02  0.12700000000E+01 0.  1.
         25    2    1    2    0    0  0.00000000000E+00  0.00000000000E+00  0.11512952506E+03  0.16995035560E+03  0.12501326261E+03 0.  0.
    9000005    1    3    3    0    0 -0.44731482678E+02  0.61575911870E+01 -0.11798566242E+01  0.45179791207E+02  0.10000000000E+01 0.  0.
    9000005    1    3    3    0    0  0.44731482678E+02 -0.61575911870E+01  0.11630938168E+03  0.12477056439E+03  0.10000000000E+01 0.  0.
<mgrwt>
<rscale>  0 0.12501326E+03</rscale>
<asrwt>0</asrwt>
<pdfrwt beam="1">  1        4 0.21929222E-01 0.12501326E+03</pdfrwt>
<pdfrwt beam="2">  1       -4 0.42169870E-02 0.12501326E+03</pdfrwt>
<totfact> 0.95429479E+03</totfact>
</mgrwt>
</event>
<event>
 5    1  0.3239419E-002  0.1250019E+03  0.7818608E-02  0.1235066E+00
          4   -1    0    0  501    0  0.00000000000E+00  0.00000000000E+00  0.29628765832E+03  0.29629038016E+03  0.12700000000E+01 0. -1.
         -4   -1    0    0    0  501 -0.00000000000E+00 -0.00000000000E+00 -0.13151012234E+02  0.13212192201E+02  0.12700000000E+01 0. -1.
         25    2    1    2    0    0  0.00000000000E+00  0.00000000000E+00  0.28313664609E+03  0.30950257236E+03  0.12500192774E+03 0.  0.
    9000005    1    3    3    0    0 -0.25962031460E+02  0.42986606425E+02  0.49473257553E+02  0.70501621416E+02  0.10000000000E+01 0.  0.
    9000005    1    3    3    0    0  0.25962031460E+02 -0.42986606425E+02  0.23366338854E+03  0.23900095094E+03  0.10000000000E+01 0.  0.
<mgrwt>
<rscale>  0 0.12500193E+03</rscale>
<asrwt>0</asrwt>
<pdfrwt beam="1">  1        4 0.45587629E-01 0.12500193E+03</pdfrwt>
<pdfrwt beam="2">  1       -4 0.20281483E-02 0.12500193E+03</pdfrwt>
<totfact> 0.74418925E+03</totfact>
</mgrwt>
</event>
<event>
 5    1  0.3239419E-002  0.1250024E+03  0.7818608E-02  0.1235065E+00
         -4   -1    0    0    0  501 -0.00000000000E+00  0.00000000000E+00  0.63330574251E+01  0.64591420753E+01  0.12700000000E+01 0.  1.
          4   -1    0    0  501    0  0.00000000000E+00 -0.00000000000E+00 -0.61062077063E+03  0.61062209133E+03  0.12700000000E+01 0.  1.
         25    2    1    2    0    0  0.00000000000E+00  0.00000000000E+00 -0.60428771320E+03  0.61708123341E+03  0.12500243316E+03 0.  0.
    9000005    1    3    3    0    0 -0.34818414801E+02 -0.25283843823E+02 -0.78424418662E+02  0.89459399786E+02  0.10000000000E+01 0.  0.
    9000005    1    3    3    0    0  0.34818414801E+02  0.25283843823E+02 -0.52586329454E+03  0.52762183362E+03  0.10000000000E+01 0.  0.
<mgrwt>
<rscale>  0 0.12500243E+03</rscale>
<asrwt>0</asrwt>
<pdfrwt beam="2">  1        4 0.93951411E-01 0.12500243E+03</pdfrwt>
<pdfrwt beam="1">  1       -4 0.98411742E-03 0.12500243E+03</pdfrwt>
<totfact> 0.47804313E+03</totfact>
</mgrwt>
</event>
<event>
 5    1  0.3239419E-002  0.1249986E+03  0.7818608E-02  0.1235071E+00
          4   -1    0    0  501    0  0.00000000000E+00  0.00000000000E+00  0.25140372914E+02  0.25172430361E+02  0.12700000000E+01 0.  1.
         -4   -1    0    0    0  501 -0.00000000000E+00 -0.00000000000E+00 -0.15524044519E+03  0.15524563995E+03  0.12700000000E+01 0.  1.
         25    2    1    2    0    0  0.00000000000E+00  0.00000000000E+00 -0.13010007228E+03  0.18041807031E+03  0.12499860514E+03 0.  0.
    9000005    1    3    3    0    0  0.43254596786E+02 -0.44486016602E+02 -0.75773439093E+02  0.97941716793E+02  0.10000000000E+01 0.  0.
    9000005    1    3    3    0    0 -0.43254596786E+02  0.44486016602E+02 -0.54326633182E+02  0.82476353515E+02  0.10000000000E+01 0.  0.
<mgrwt>
<rscale>  0 0.12499861E+03</rscale>
<asrwt>0</asrwt>
<pdfrwt beam="1">  1        4 0.38706153E-02 0.12499861E+03</pdfrwt>
<pdfrwt beam="2">  1       -4 0.23886010E-01 0.12499861E+03</pdfrwt>
<totfact> 0.93544729E+03</totfact>
</mgrwt>
</event>
<event>
 5    1  0.3239419E-002  0.1249924E+03  0.7818608E-02  0.1235081E+00
          4   -1    0    0  501    0  0.00000000000E+00  0.00000000000E+00  0.36672256498E+03  0.36672476404E+03  0.12700000000E+01 0. -1.
         -4   -1    0    0    0  501 -0.00000000000E+00 -0.00000000000E+00 -0.10610383688E+02  0.10686119127E+02  0.12700000000E+01 0. -1.
         25    2    1    2    0    0  0.00000000000E+00  0.00000000000E+00  0.35611218129E+03  0.37741088317E+03  0.12499235606E+03 0.  0.
    9000005    1    3    3    0    0  0.54010628927E+02 -0.20263697082E+02  0.10552546308E+03  0.12026798749E+03  0.10000000000E+01 0.  0.
    9000005    1    3    3    0    0 -0.54010628927E+02  0.20263697082E+02  0.25058671821E+03  0.25714289568E+03  0.10000000000E+01 0.  0.
<mgrwt>
<rscale>  0 0.12499236E+03</rscale>
<asrwt>0</asrwt>
<pdfrwt beam="1">  1        4 0.56424848E-01 0.12499236E+03</pdfrwt>
<pdfrwt beam="2">  1       -4 0.16383618E-02 0.12499236E+03</pdfrwt>
<totfact> 0.66821969E+03</totfact>
</mgrwt>
</event>
<event>
 5    1  0.3239419E-002  0.1249992E+03  0.7818608E-02  0.1235071E+00
         -4   -1    0    0    0  501 -0.00000000000E+00  0.00000000000E+00  0.27633022204E+03  0.27633314046E+03  0.12700000000E+01 0. -1.
          4   -1    0    0  501    0  0.00000000000E+00 -0.00000000000E+00 -0.14104456152E+02  0.14161517693E+02  0.12700000000E+01 0. -1.
         25    2    1    2    0    0  0.00000000000E+00  0.00000000000E+00  0.26222576589E+03  0.29049465815E+03  0.12499917646E+03 0.  0.
    9000005    1    3    3    0    0  0.41181266435E+01  0.59439314331E+02  0.17491267478E+03  0.18478483394E+03  0.10000000000E+01 0.  0.
    9000005    1    3    3    0    0 -0.41181266435E+01 -0.59439314331E+02  0.87313091110E+02  0.10570982421E+03  0.10000000000E+01 0.  0.
<mgrwt>
<rscale>  0 0.12499918E+03</rscale>
<asrwt>0</asrwt>
<pdfrwt beam="2">  1        4 0.21745303E-02 0.12499918E+03</pdfrwt>
<pdfrwt beam="1">  1       -4 0.42516953E-01 0.12499918E+03</pdfrwt>
<totfact> 0.76808259E+03</totfact>
</mgrwt>
</event>
<event>
 5    1  0.3239419E-002  0.1249986E+03  0.7818608E-02  0.1235071E+00
         -4   -1    0    0    0  501 -0.00000000000E+00  0.00000000000E+00  0.13575574119E+03  0.13576168150E+03  0.12700000000E+01 0. -1.
          4   -1    0    0  501    0  0.00000000000E+00 -0.00000000000E+00 -0.28752885645E+02  0.28780919598E+02  0.12700000000E+01 0. -1.
         25    2    1    2    0    0  0.00000000000E+00  0.00000000000E+00  0.10700285554E+03  0.16454260110E+03  0.12499862593E+03 0.  0.
    9000005    1    3    3    0    0 -0.25693464143E+02  0.23773747184E+02  0.12164514925E+03  0.12658549479E+03  0.10000000000E+01 0.  0.
    9000005    1    3    3    0    0  0.25693464143E+02 -0.23773747184E+02 -0.14642293708E+02  0.37957106315E+02  0.10000000000E+01 0.  0.
<mgrwt>
<rscale>  0 0.12499863E+03</rscale>
<asrwt>0</asrwt>
<pdfrwt beam="2">  1        4 0.44261342E-02 0.12499863E+03</pdfrwt>
<pdfrwt beam="1">  1       -4 0.20888112E-01 0.12499863E+03</pdfrwt>
<totfact> 0.96477064E+03</totfact>
</mgrwt>
</event>
<event>
 5    1  0.3239419E-002  0.1250017E+03  0.7818608E-02  0.1235067E+00
         -4   -1    0    0    0  501 -0.00000000000E+00  0.00000000000E+00  0.40362833212E+03  0.40363033011E+03  0.12700000000E+01 0.  1.
          4   -1    0    0  501    0  0.00000000000E+00 -0.00000000000E+00 -0.96344096733E+01  0.97177543575E+01  0.12700000000E+01 0.  1.
         25    2    1    2    0    0  0.00000000000E+00  0.00000000000E+00  0.39399392244E+03  0.41334808447E+03  0.12500171204E+03 0.  0.
    9000005    1    3    3    0    0 -0.52986416149E+02  0.22349280294E+02  0.27788080546E+03  0.28377066914E+03  0.10000000000E+01 0.  0.
    9000005    1    3    3    0    0  0.52986416149E+02 -0.22349280294E+02  0.11611311699E+03  0.12957741533E+03  0.10000000000E+01 0.  0.
<mgrwt>
<rscale>  0 0.12500171E+03</rscale>
<asrwt>0</asrwt>
<pdfrwt beam="2">  1        4 0.14887814E-02 0.12500171E+03</pdfrwt>
<pdfrwt beam="1">  1       -4 0.62103244E-01 0.12500171E+03</pdfrwt>
<totfact> 0.63272550E+03</totfact>
</mgrwt>
</event>
<event>
 5    1  0.3239419E-002  0.1249970E+03  0.7818608E-02  0.1235074E+00
          4   -1    0    0  501    0  0.00000000000E+00  0.00000000000E+00  0.13857742855E+02  0.13915816075E+02  0.12700000000E+01 0.  1.
         -4   -1    0    0    0  501 -0.00000000000E+00 -0.00000000000E+00 -0.28121980133E+03  0.28122266900E+03  0.12700000000E+01 0.  1.
         25    2    1    2    0    0  0.00000000000E+00  0.00000000000E+00 -0.26736205847E+03  0.29513848507E+03  0.12499702021E+03 0.  0.
    9000005    1    3    3    0    0 -0.21680671590E+02  0.41477619635E+01  0.43574082677E+01  0.22522043795E+02  0.10000000000E+01 0.  0.
    9000005    1    3    3    0    0  0.21680671590E+02 -0.41477619635E+01 -0.27171946674E+03  0.27261644128E+03  0.10000000000E+01 0.  0.
<mgrwt>
<rscale>  0 0.12499702E+03</rscale>
<asrwt>0</asrwt>
<pdfrwt beam="1">  1        4 0.21366484E-02 0.12499702E+03</pdfrwt>
<pdfrwt beam="2">  1       -4 0.43269269E-01 0.12499702E+03</pdfrwt>
<totfact> 0.76217778E+03</totfact>
</mgrwt>
</event>
<event>
 5    1  0.3239419E-002  0.1249990E+03  0.7818608E-02  0.1235071E+00
          4   -1    0    0  501    0  0.00000000000E+00  0.00000000000E+00  0.19311607102E+03  0.19312024696E+03  0.12700000000E+01 0. -1.
         -4   -1    0    0    0  501 -0.00000000000E+00 -0.00000000000E+00 -0.20202803898E+02  0.20242682266E+02  0.12700000000E+01 0. -1.
         25    2    1    2    0    0  0.00000000000E+00  0.00000000000E+00  0.17291326713E+03  0.21336292923E+03  0.12499896648E+03 0.  0.
    9000005    1    3    3    0    0 -0.43460421885E+02 -0.40493122947E+02  0.11958509022E+03  0.13352937909E+03  0.10000000000E+01 0.  0.
    9000005    1    3    3    0    0  0.43460421885E+02  0.40493122947E+02  0.53328176905E+02  0.79833550143E+02  0.10000000000E+01 0.  0.
<mgrwt>
<rscale>  0 0.12499897E+03</rscale>
<asrwt>0</asrwt>
<pdfrwt beam="1">  1        4 0.29713552E-01 0.12499897E+03</pdfrwt>
<pdfrwt beam="2">  1       -4 0.31115126E-02 0.12499897E+03</pdfrwt>
<totfact> 0.87931631E+03</totfact>
</mgrwt>
</event>
<event>
 5    1  0.3239419E-002  0.1250001E+03  0.7818608E-02  0.1235069E+00
         -4   -1    0    0    0  501 -0.00000000000E+00  0.00000000000E+00  0.89895163822E+02  0.89904134380E+02  0.12700000000E+01 0. -1.
          4   -1    0    0  501    0  0.00000000000E+00 -0.00000000000E+00 -0.43433037044E+02  0.43451600740E+02  0.12700000000E+01 0. -1.
         25    2    1    2    0    0  0.00000000000E+00  0.00000000000E+00  0.46462126778E+02  0.13335573512E+03  0.12500009146E+03 0.  0.
    9000005    1    3    3    0    0  0.56372520115E+01  0.17412755191E+02 -0.40514811144E+02  0.44468332279E+02  0.10000000000E+01 0.  0.
    9000005    1    3    3    0    0 -0.56372520115E+01 -0.17412755191E+02  0.86976937922E+02  0.88887402842E+02  0.10000000000E+01 0.  0.
<mgrwt>
<rscale>  0 0.12500009E+03</rscale>
<asrwt>0</asrwt>
<pdfrwt beam="2">  1        4 0.66841238E-02 0.12500009E+03</pdfrwt>
<pdfrwt beam="1">  1       -4 0.13832143E-01 0.12500009E+03</pdfrwt>
<totfact> 0.10272824E+04</totfact>
</mgrwt>
</event>
<event>
 5    1  0.3239419E-002  0.1250012E+03  0.7818608E-02  0.1235067E+00
          4   -1    0    0  501    0  0.00000000000E+00  0.00000000000E+00  0.21621466199E+03  0.21621839181E+03  0.12700000000E+01 0.  1.
         -4   -1    0    0    0  501 -0.00000000000E+00 -0.00000000000E+00 -0.18040672713E+02  0.18085319238E+02  0.12700000000E+01 0.  1.
         25    2    1    2    0    0  0.00000000000E+00  0.00000000000E+00  0.19817398928E+03  0.23430371105E+03  0.12500119594E+03 0.  0.
    9000005    1    3    3    0    0  0.59299215109E+02 -0.19681127041E+02  0.10144389331E+03  0.11914531953E+03  0.10000000000E+01 0.  0.
    9000005    1    3    3    0    0 -0.59299215109E+02  0.19681127041E+02  0.96730095962E+02  0.11515839153E+03  0.10000000000E+01 0.  0.
<mgrwt>
<rscale>  0 0.12500120E+03</rscale>
<asrwt>0</asrwt>
<pdfrwt beam="1">  1        4 0.33267516E-01 0.12500120E+03</pdfrwt>
<pdfrwt beam="2">  1       -4 0.27792094E-02 0.12500120E+03</pdfrwt>
<totfact> 0.84650851E+03</totfact>
</mgrwt>
</event>
<event>
 5    1  0.3239419E-002  0.1250009E+03  0.7818608E-02  0.1235068E+00
          4   -1    0    0  501    0  0.00000000000E+00  0.00000000000E+00  0.46626056812E+02  0.46643349728E+02  0.12700000000E+01 0. -1.
         -4   -1    0    0    0  501 -0.00000000000E+00 -0.00000000000E+00 -0.83741876921E+02  0.83751506555E+02  0.12700000000E+01 0. -1.
         25    2    1    2    0    0  0.00000000000E+00  0.00000000000E+00 -0.37115820109E+02  0.13039485628E+03  0.12500093777E+03 0.  0.
    9000005    1    3    3    0    0 -0.56633913658E+02  0.21047019759E+02 -0.35213455086E+02  0.69938291630E+02  0.10000000000E+01 0.  0.
    9000005    1    3    3    0    0  0.56633913658E+02 -0.21047019759E+02 -0.19023650226E+01  0.60456564653E+02  0.10000000000E+01 0.  0.
<mgrwt>
<rscale>  0 0.12500094E+03</rscale>
<asrwt>0</asrwt>
<pdfrwt beam="1">  1        4 0.71753105E-02 0.12500094E+03</pdfrwt>
<pdfrwt beam="2">  1       -4 0.12885437E-01 0.12500094E+03</pdfrwt>
<totfact> 0.10335849E+04</totfact>
</mgrwt>
</event>
<event>
 5    1  0.3239419E-002  0.1249981E+03  0.7818608E-02  0.1235072E+00
          4   -1    0    0  501    0  0.00000000000E+00  0.00000000000E+00  0.42476784423E+03  0.42476974279E+03  0.12700000000E+01 0. -1.
         -4   -1    0    0    0  501 -0.00000000000E+00 -0.00000000000E+00 -0.91501465081E+01  0.92378612849E+01  0.12700000000E+01 0. -1.
         25    2    1    2    0    0  0.00000000000E+00  0.00000000000E+00  0.41561769772E+03  0.43400760407E+03  0.12499811893E+03 0.  0.
    9000005    1    3    3    0    0 -0.55382633320E+02  0.25432098255E+02  0.25580756154E+03  0.26296869820E+03  0.10000000000E+01 0.  0.
    9000005    1    3    3    0    0  0.55382633320E+02 -0.25432098255E+02  0.15981013618E+03  0.17103890587E+03  0.10000000000E+01 0.  0.
<mgrwt>
<rscale>  0 0.12499812E+03</rscale>
<asrwt>0</asrwt>
<pdfrwt beam="1">  1        4 0.65355795E-01 0.12499812E+03</pdfrwt>
<pdfrwt beam="2">  1       -4 0.14146081E-02 0.12499812E+03</pdfrwt>
<totfact> 0.61376941E+03</totfact>
</mgrwt>
</event>
<event>
 5    1  0.3239419E-002  0.1249996E+03  0.7818608E-02  0.1235070E+00
          4   -1    0    0  501    0  0.00000000000E+00  0.00000000000E+00  0.10235230535E+04  0.10235238415E+04  0.12700000000E+01 0. -1.
         -4   -1    0    0    0  501 -0.00000000000E+00 -0.00000000000E+00 -0.37099841316E+01  0.39213367946E+01  0.12700000000E+01 0. -1.
         25    2    1    2    0    0  0.00000000000E+00  0.00000000000E+00  0.10198130694E+04  0.10274451783E+04  0.12499959109E+03 0.  0.
    9000005    1    3    3    0    0 -0.22292403728E+02 -0.36342690815E+02  0.13436200863E+03  0.14096769773E+03  0.10000000000E+01 0.  0.
    9000005    1    3    3    0    0  0.22292403728E+02  0.36342690815E+02  0.88545106078E+03  0.88647748052E+03  0.10000000000E+01 0.  0.
<mgrwt>
<rscale>  0 0.12499959E+03</rscale>
<asrwt>0</asrwt>
<pdfrwt beam="1">  1        4 0.15748145E+00 0.12499959E+03</pdfrwt>
<pdfrwt beam="2">  1       -4 0.58708513E-03 0.12499959E+03</pdfrwt>
<totfact> 0.29709850E+03</totfact>
</mgrwt>
</event>
<event>
 5    1  0.3239419E-002  0.1250021E+03  0.7818608E-02  0.1235066E+00
          4   -1    0    0  501    0  0.00000000000E+00  0.00000000000E+00  0.57768467971E+02  0.57782426323E+02  0.12700000000E+01 0.  1.
         -4   -1    0    0    0  501 -0.00000000000E+00 -0.00000000000E+00 -0.67593228182E+02  0.67605158058E+02  0.12700000000E+01 0.  1.
         25    2    1    2    0    0  0.00000000000E+00  0.00000000000E+00 -0.98247602107E+01  0.12538758438E+03  0.12500208160E+03 0.  0.
    9000005    1    3    3    0    0  0.40832935528E+02  0.44851106019E+02 -0.20006369808E+02  0.63876483684E+02  0.10000000000E+01 0.  0.
    9000005    1    3    3    0    0 -0.40832935528E+02 -0.44851106019E+02  0.10181609597E+02  0.61511100697E+02  0.10000000000E+01 0.  0.
<mgrwt>
<rscale>  0 0.12500208E+03</rscale>
<asrwt>0</asrwt>
<pdfrwt beam="1">  1        4 0.88894479E-02 0.12500208E+03</pdfrwt>
<pdfrwt beam="2">  1       -4 0.10400950E-01 0.12500208E+03</pdfrwt>
<totfact> 0.10443952E+04</totfact>
</mgrwt>
</event>
<event>
 5    1  0.3239419E-002  0.1249991E+03  0.7818608E-02  0.1235071E+00
         -4   -1    0    0    0  501 -0.00000000000E+00  0.00000000000E+00  0.69919953811E+02  0.69931486764E+02  0.12700000000E+01 0. -1.
          4   -1    0    0  501    0  0.00000000000E+00 -0.00000000000E+00 -0.55843257648E+02  0.55857697094E+02  0.12700000000E+01 0. -1.
         25    2    1    2    0    0  0.00000000000E+00  0.00000000000E+00  0.14076696164E+02  0.12578918386E+03  0.12499906160E+03 0.  0.
    9000005    1    3    3    0    0 -0.27101617369E+02  0.49542277041E+02 -0.19893789615E+02  0.59880695918E+02  0.10000000000E+01 0.  0.
    9000005    1    3    3    0    0  0.27101617369E+02 -0.49542277041E+02  0.33970485778E+02  0.65908487939E+02  0.10000000000E+01 0.  0.
<mgrwt>
<rscale>  0 0.12499906E+03</rscale>
<asrwt>0</asrwt>
<pdfrwt beam="2">  1        4 0.85932683E-02 0.12499906E+03</pdfrwt>
<pdfrwt beam="1">  1       -4 0.10758914E-01 0.12499906E+03</pdfrwt>
<totfact> 0.10435804E+04</totfact>
</mgrwt>
</event>
<event>
 5    1  0.3239419E-002  0.1249780E+03  0.7818608E-02  0.1235104E+00
          4   -1    0    0  501    0  0.00000000000E+00  0.00000000000E+00  0.60497043603E+01  0.61815712280E+01  0.12700000000E+01 0.  1.
         -4   -1    0    0    0  501 -0.00000000000E+00 -0.00000000000E+00 -0.63837377755E+03  0.63837504084E+03  0.12700000000E+01 0.  1.
         25    2    1    2    0    0  0.00000000000E+00  0.00000000000E+00 -0.63232407319E+03  0.64455661207E+03  0.12497796854E+03 0.  0.
    9000005    1    3    3    0    0  0.35845354369E+02 -0.38150013364E+02 -0.49208479932E+03  0.49486236740E+03  0.10000000000E+01 0.  0.
    9000005    1    3    3    0    0 -0.35845354369E+02  0.38150013364E+02 -0.14023927388E+03  0.14969424467E+03  0.10000000000E+01 0.  0.
<mgrwt>
<rscale>  0 0.12497797E+03</rscale>
<asrwt>0</asrwt>
<pdfrwt beam="1">  1        4 0.94096503E-03 0.12497797E+03</pdfrwt>
<pdfrwt beam="2">  1       -4 0.98221538E-01 0.12497797E+03</pdfrwt>
<totfact> 0.46192862E+03</totfact>
</mgrwt>
</event>
<event>
 5    1  0.3239419E-002  0.1250020E+03  0.7818608E-02  0.1235066E+00
         -4   -1    0    0    0  501 -0.00000000000E+00  0.00000000000E+00  0.99738312847E+01  0.10054362759E+02  0.12700000000E+01 0. -1.
          4   -1    0    0  501    0  0.00000000000E+00 -0.00000000000E+00 -0.39000583381E+03  0.39000790160E+03  0.12700000000E+01 0. -1.
         25    2    1    2    0    0  0.00000000000E+00  0.00000000000E+00 -0.38003200253E+03  0.40006226436E+03  0.12500196965E+03 0.  0.
    9000005    1    3    3    0    0 -0.59545460898E+02 -0.33104918234E+01 -0.13024796556E+03  0.14325555418E+03  0.10000000000E+01 0.  0.
    9000005    1    3    3    0    0  0.59545460898E+02  0.33104918234E+01 -0.24978403697E+03  0.25680671018E+03  0.10000000000E+01 0.  0.
<mgrwt>
<rscale>  0 0.12500197E+03</rscale>
<asrwt>0</asrwt>
<pdfrwt beam="2">  1        4 0.60007240E-01 0.12500197E+03</pdfrwt>
<pdfrwt beam="1">  1       -4 0.15407897E-02 0.12500197E+03</pdfrwt>
<totfact> 0.64543933E+03</totfact>
</mgrwt>
</event>
<event>
 5    1  0.3239419E-002  0.1250010E+03  0.7818608E-02  0.1235068E+00
         -4   -1    0    0    0  501 -0.00000000000E+00  0.00000000000E+00  0.11008956616E+03  0.11009689131E+03  0.12700000000E+01 0. -1.
          4   -1    0    0  501    0  0.00000000000E+00 -0.00000000000E+00 -0.35463192871E+02  0.35485926063E+02  0.12700000000E+01 0. -1.
         25    2    1    2    0    0  0.00000000000E+00  0.00000000000E+00  0.74626373285E+02  0.14558281737E+03  0.12500104450E+03 0.  0.
    9000005    1    3    3    0    0 -0.53007823123E+02  0.20957723556E+02  0.67148759175E+02  0.88085250455E+02  0.10000000000E+01 0.  0.
    9000005    1    3    3    0    0  0.53007823123E+02 -0.20957723556E+02  0.74776141096E+01  0.57497566920E+02  0.10000000000E+01 0.  0.
<mgrwt>
<rscale>  0 0.12500104E+03</rscale>
<asrwt>0</asrwt>
<pdfrwt beam="2">  1        4 0.54581881E-02 0.12500104E+03</pdfrwt>
<pdfrwt beam="1">  1       -4 0.16939168E-01 0.12500104E+03</pdfrwt>
<totfact> 0.10018925E+04</totfact>
</mgrwt>
</event>
<event>
 5    1  0.3239419E-002  0.1249979E+03  0.7818608E-02  0.1235073E+00
          4   -1    0    0  501    0  0.00000000000E+00  0.00000000000E+00  0.50186730051E+03  0.50186890741E+03  0.12700000000E+01 0.  1.
         -4   -1    0    0    0  501 -0.00000000000E+00 -0.00000000000E+00 -0.77297324891E+01  0.78333686466E+01  0.12700000000E+01 0.  1.
         25    2    1    2    0    0  0.00000000000E+00  0.00000000000E+00  0.49413756802E+03  0.50970227605E+03  0.12499789632E+03 0.  0.
    9000005    1    3    3    0    0 -0.32956492827E+01  0.43542273478E+02  0.64785343829E+02  0.78134062091E+02  0.10000000000E+01 0.  0.
    9000005    1    3    3    0    0  0.32956492827E+01 -0.43542273478E+02  0.42935222419E+03  0.43156821396E+03  0.10000000000E+01 0.  0.
<mgrwt>
<rscale>  0 0.12499790E+03</rscale>
<asrwt>0</asrwt>
<pdfrwt beam="1">  1        4 0.77218466E-01 0.12499790E+03</pdfrwt>
<pdfrwt beam="2">  1       -4 0.11972850E-02 0.12499790E+03</pdfrwt>
<totfact> 0.55121909E+03</totfact>
</mgrwt>
</event>
<event>
 5    1  0.3239419E-002  0.1250000E+03  0.7818608E-02  0.1235069E+00
         -4   -1    0    0    0  501 -0.00000000000E+00  0.00000000000E+00  0.28016426713E+03  0.28016714560E+03  0.12700000000E+01 0. -1.
          4   -1    0    0  501    0  0.00000000000E+00 -0.00000000000E+00 -0.13910846221E+02  0.13968698671E+02  0.12700000000E+01 0. -1.
         25    2    1    2    0    0  0.00000000000E+00  0.00000000000E+00  0.26625342091E+03  0.29413584427E+03  0.12500004297E+03 0.  0.
    9000005    1    3    3    0    0  0.91284540779E+01 -0.30172760905E+02  0.61575308367E+01  0.32134706479E+02  0.10000000000E+01 0.  0.
    9000005    1    3    3    0    0 -0.91284540779E+01  0.30172760905E+02  0.26009589007E+03  0.26200113780E+03  0.10000000000E+01 0.  0.
<mgrwt>
<rscale>  0 0.12500004E+03</rscale>
<asrwt>0</asrwt>
<pdfrwt beam="2">  1        4 0.21448020E-02 0.12500004E+03</pdfrwt>
<pdfrwt beam="1">  1       -4 0.43106863E-01 0.12500004E+03</pdfrwt>
<totfact> 0.76340293E+03</totfact>
</mgrwt>
</event>
<event>
 5    1  0.3239419E-002  0.1250003E+03  0.7818608E-02  0.1235069E+00
          4   -1    0    0  501    0  0.00000000000E+00  0.00000000000E+00  0.51507197613E+01  0.53049801187E+01  0.12700000000E+01 0.  1.
         -4   -1    0    0    0  501 -0.00000000000E+00 -0.00000000000E+00 -0.74704894930E+03  0.74705002881E+03  0.12700000000E+01 0.  1.
         25    2    1    2    0    0  0.00000000000E+00  0.00000000000E+00 -0.74189822954E+03  0.75235500893E+03  0.12500030589E+03 0.  0.
    9000005    1    3    3    0    0 -0.57934255710E+02 -0.18786683249E+02 -0.28669595039E+03  0.29309535210E+03  0.10000000000E+01 0.  0.
    9000005    1    3    3    0    0  0.57934255710E+02  0.18786683249E+02 -0.45520227915E+03  0.45925965684E+03  0.10000000000E+01 0.  0.
<mgrwt>
<rscale>  0 0.12500031E+03</rscale>
<asrwt>0</asrwt>
<pdfrwt beam="1">  1        4 0.80436824E-03 0.12500031E+03</pdfrwt>
<pdfrwt beam="2">  1       -4 0.11494247E+00 0.12500031E+03</pdfrwt>
<totfact> 0.40461503E+03</totfact>
</mgrwt>
</event>
<event>
 5    1  0.3239419E-002  0.1249929E+03  0.7818608E-02  0.1235080E+00
          4   -1    0    0  501    0  0.00000000000E+00  0.00000000000E+00  0.61907178141E+02  0.61920203532E+02  0.12700000000E+01 0.  1.
         -4   -1    0    0    0  501 -0.00000000000E+00 -0.00000000000E+00 -0.63065289360E+02  0.63078075605E+02  0.12700000000E+01 0.  1.
         25    2    1    2    0    0  0.00000000000E+00  0.00000000000E+00 -0.11581112186E+01  0.12499827914E+03  0.12499291406E+03 0.  0.
    9000005    1    3    3    0    0  0.42372099184E+02  0.35253493705E+02  0.28860338573E+02  0.62226383072E+02  0.10000000000E+01 0.  0.
    9000005    1    3    3    0    0 -0.42372099184E+02 -0.35253493705E+02 -0.30018449792E+02  0.62771896065E+02  0.10000000000E+01 0.  0.
<mgrwt>
<rscale>  0 0.12499291E+03</rscale>
<asrwt>0</asrwt>
<pdfrwt beam="1">  1        4 0.95261667E-02 0.12499291E+03</pdfrwt>
<pdfrwt beam="2">  1       -4 0.97043378E-02 0.12499291E+03</pdfrwt>
<totfact> 0.10454574E+04</totfact>
</mgrwt>
</event>
<event>
 5    1  0.3239419E-002  0.1250092E+03  0.7818608E-02  0.1235055E+00
         -4   -1    0    0    0  501 -0.00000000000E+00  0.00000000000E+00  0.84043432246E+03  0.84043528202E+03  0.12700000000E+01 0. -1.
          4   -1    0    0  501    0  0.00000000000E+00 -0.00000000000E+00 -0.45608583926E+01  0.47343773907E+01  0.12700000000E+01 0. -1.
         25    2    1    2    0    0  0.00000000000E+00  0.00000000000E+00  0.83587346407E+03  0.84516965941E+03  0.12500922070E+03 0.  0.
    9000005    1    3    3    0    0  0.27582713146E+02 -0.24990013251E+02  0.75736411841E+03  0.75827878427E+03  0.10000000000E+01 0.  0.
    9000005    1    3    3    0    0 -0.27582713146E+02  0.24990013251E+02  0.78509345662E+02  0.86890875143E+02  0.10000000000E+01 0.  0.
<mgrwt>
<rscale>  0 0.12500922E+03</rscale>
<asrwt>0</asrwt>
<pdfrwt beam="2">  1        4 0.71509253E-03 0.12500922E+03</pdfrwt>
<pdfrwt beam="1">  1       -4 0.12931090E+00 0.12500922E+03</pdfrwt>
<totfact> 0.36318518E+03</totfact>
</mgrwt>
</event>
<event>
 5    1  0.3239419E-002  0.1249990E+03  0.7818608E-02  0.1235071E+00
          4   -1    0    0  501    0  0.00000000000E+00  0.00000000000E+00  0.10702122724E+03  0.10702876239E+03  0.12700000000E+01 0. -1.
         -4   -1    0    0    0  501 -0.00000000000E+00 -0.00000000000E+00 -0.36479341315E+02  0.36501441653E+02  0.12700000000E+01 0. -1.
         25    2    1    2    0    0  0.00000000000E+00  0.00000000000E+00  0.70541885923E+02  0.14353020405E+03  0.12499904721E+03 0.  0.
    9000005    1    3    3    0    0 -0.37909986364E+02  0.71375727370E+01 -0.21181400074E+02  0.44020037708E+02  0.10000000000E+01 0.  0.
    9000005    1    3    3    0    0  0.37909986364E+02 -0.71375727370E+01  0.91723285997E+02  0.99510166339E+02  0.10000000000E+01 0.  0.
<mgrwt>
<rscale>  0 0.12499905E+03</rscale>
<asrwt>0</asrwt>
<pdfrwt beam="1">  1        4 0.16467083E-01 0.12499905E+03</pdfrwt>
<pdfrwt beam="2">  1       -4 0.56144861E-02 0.12499905E+03</pdfrwt>
<totfact> 0.10061153E+04</totfact>
</mgrwt>
</event>
<event>
 5    1  0.3239419E-002  0.1250002E+03  0.7818608E-02  0.1235069E+00
          4   -1    0    0  501    0  0.00000000000E+00  0.00000000000E+00  0.10433163673E+02  0.10510176222E+02  0.12700000000E+01 0.  1.
         -4   -1    0    0    0  501 -0.00000000000E+00 -0.00000000000E+00 -0.37295350071E+03  0.37295566304E+03  0.12700000000E+01 0.  1.
         25    2    1    2    0    0  0.00000000000E+00  0.00000000000E+00 -0.36252033704E+03  0.38346583926E+03  0.12500022046E+03 0.  0.
    9000005    1    3    3    0    0  0.54288370243E+02 -0.27908202807E+02 -0.14019750120E+03  0.15291315924E+03  0.10000000000E+01 0.  0.
    9000005    1    3    3    0    0 -0.54288370243E+02  0.27908202807E+02 -0.22232283584E+03  0.23055268002E+03  0.10000000000E+01 0.  0.
<mgrwt>
<rscale>  0 0.12500022E+03</rscale>
<asrwt>0</asrwt>
<pdfrwt beam="1">  1        4 0.16111928E-02 0.12500022E+03</pdfrwt>
<pdfrwt beam="2">  1       -4 0.57383542E-01 0.12500022E+03</pdfrwt>
<totfact> 0.66192972E+03</totfact>
</mgrwt>
</event>
<event>
 5    1  0.3239419E-002  0.1249969E+03  0.7818608E-02  0.1235074E+00
          4   -1    0    0  501    0  0.00000000000E+00  0.00000000000E+00  0.23864369337E+03  0.23864707265E+03  0.12700000000E+01 0.  1.
         -4   -1    0    0    0  501 -0.00000000000E+00 -0.00000000000E+00 -0.16339592349E+02  0.16388873607E+02  0.12700000000E+01 0.  1.
         25    2    1    2    0    0  0.00000000000E+00  0.00000000000E+00  0.22230410102E+03  0.25503594626E+03  0.12499688217E+03 0.  0.
    9000005    1    3    3    0    0 -0.10579924860E+02  0.23167610492E+02 -0.52792904173E+01  0.26029673322E+02  0.10000000000E+01 0.  0.
    9000005    1    3    3    0    0  0.10579924860E+02 -0.23167610492E+02  0.22758339144E+03  0.22900627294E+03  0.10000000000E+01 0.  0.
<mgrwt>
<rscale>  0 0.12499688E+03</rscale>
<asrwt>0</asrwt>
<pdfrwt beam="1">  1        4 0.36718463E-01 0.12499688E+03</pdfrwt>
<pdfrwt beam="2">  1       -4 0.25178344E-02 0.12499688E+03</pdfrwt>
<totfact> 0.81613449E+03</totfact>
</mgrwt>
</event>
<event>
 5    1  0.3239419E-002  0.1250002E+03  0.7818608E-02  0.1235069E+00
         -4   -1    0    0    0  501 -0.00000000000E+00  0.00000000000E+00  0.67850096510E+02  0.67861981230E+02  0.12700000000E+01 0.  1.
          4   -1    0    0  501    0  0.00000000000E+00 -0.00000000000E+00 -0.57548056704E+02  0.57562068504E+02  0.12700000000E+01 0.  1.
         25    2    1    2    0    0  0.00000000000E+00  0.00000000000E+00  0.10302039806E+02  0.12542404973E+03  0.12500024091E+03 0.  0.
    9000005    1    3    3    0    0  0.53484258484E+02  0.14261185089E+02 -0.23952800077E+02  0.60321504767E+02  0.10000000000E+01 0.  0.
    9000005    1    3    3    0    0 -0.53484258484E+02 -0.14261185089E+02  0.34254839883E+02  0.65102544967E+02  0.10000000000E+01 0.  0.
<mgrwt>
<rscale>  0 0.12500024E+03</rscale>
<asrwt>0</asrwt>
<pdfrwt beam="2">  1        4 0.88555392E-02 0.12500024E+03</pdfrwt>
<pdfrwt beam="1">  1       -4 0.10440469E-01 0.12500024E+03</pdfrwt>
<totfact> 0.10443577E+04</totfact>
</mgrwt>
</event>
<event>
 5    1  0.3239419E-002  0.1249932E+03  0.7818608E-02  0.1235080E+00
          4   -1    0    0  501    0  0.00000000000E+00  0.00000000000E+00  0.58934120374E+01  0.60286984866E+01  0.12700000000E+01 0.  1.
         -4   -1    0    0    0  501 -0.00000000000E+00 -0.00000000000E+00 -0.65508792307E+03  0.65508915412E+03  0.12700000000E+01 0.  1.
         25    2    1    2    0    0  0.00000000000E+00  0.00000000000E+00 -0.64919451103E+03  0.66111785261E+03  0.12499320736E+03 0.  0.
    9000005    1    3    3    0    0  0.12733671044E+02 -0.56930599300E+02 -0.44305546308E+03  0.44688072557E+03  0.10000000000E+01 0.  0.
    9000005    1    3    3    0    0 -0.12733671044E+02  0.56930599300E+02 -0.20613904795E+03  0.21423712704E+03  0.10000000000E+01 0.  0.
<mgrwt>
<rscale>  0 0.12499321E+03</rscale>
<asrwt>0</asrwt>
<pdfrwt beam="1">  1        4 0.91718064E-03 0.12499321E+03</pdfrwt>
<pdfrwt beam="2">  1       -4 0.10079320E+00 0.12499321E+03</pdfrwt>
<totfact> 0.45226844E+03</totfact>
</mgrwt>
</event>
<event>
 4    1  0.3239419E-002  0.1255982E+03  0.7818608E-02  0.1234137E+00
         -4   -1    0    0    0  501 -0.00000000000E+00  0.00000000000E+00  0.93545974830E+02  0.93554595327E+02  0.12700000000E+01 0. -1.
          4   -1    0    0  501    0  0.00000000000E+00 -0.00000000000E+00 -0.42138046489E+02  0.42157180431E+02  0.12700000000E+01 0. -1.
    9000005    1    1    2    0    0 -0.54187183192E+02  0.13943882288E+02  0.56494988839E+02  0.79519597833E+02  0.10000000000E+01 0.  0.
    9000005    1    1    2    0    0  0.54187183192E+02 -0.13943882288E+02 -0.50870604985E+01  0.56192177926E+02  0.10000000000E+01 0.  0.
<mgrwt>
<rscale>  0 0.12559821E+03</rscale>
<asrwt>0</asrwt>
<pdfrwt beam="2">  1        4 0.64849114E-02 0.12559821E+03</pdfrwt>
<pdfrwt beam="1">  1       -4 0.14393823E-01 0.12559821E+03</pdfrwt>
<totfact> 0.10086393E+04</totfact>
</mgrwt>
</event>
<event>
 5    1  0.3239419E-002  0.1250000E+03  0.7818608E-02  0.1235069E+00
          4   -1    0    0  501    0  0.00000000000E+00  0.00000000000E+00  0.45129838445E+02  0.45147704461E+02  0.12700000000E+01 0.  1.
         -4   -1    0    0    0  501 -0.00000000000E+00 -0.00000000000E+00 -0.86516111247E+02  0.86525432130E+02  0.12700000000E+01 0.  1.
         25    2    1    2    0    0  0.00000000000E+00  0.00000000000E+00 -0.41386272802E+02  0.13167313659E+03  0.12499996529E+03 0.  0.
    9000005    1    3    3    0    0  0.96722722496E+01  0.43857352285E+02 -0.66466672394E+02  0.80223679416E+02  0.10000000000E+01 0.  0.
    9000005    1    3    3    0    0 -0.96722722496E+01 -0.43857352285E+02  0.25080399592E+02  0.51449457175E+02  0.10000000000E+01 0.  0.
<mgrwt>
<rscale>  0 0.12499997E+03</rscale>
<asrwt>0</asrwt>
<pdfrwt beam="1">  1        4 0.69451434E-02 0.12499997E+03</pdfrwt>
<pdfrwt beam="2">  1       -4 0.13312262E-01 0.12499997E+03</pdfrwt>
<totfact> 0.10308688E+04</totfact>
</mgrwt>
</event>
<event>
 5    1  0.3239419E-002  0.1249998E+03  0.7818608E-02  0.1235070E+00
          4   -1    0    0  501    0  0.00000000000E+00  0.00000000000E+00  0.42290230591E+02  0.42309295710E+02  0.12700000000E+01 0.  1.
         -4   -1    0    0    0  501 -0.00000000000E+00 -0.00000000000E+00 -0.92323143298E+02  0.92331877964E+02  0.12700000000E+01 0.  1.
         25    2    1    2    0    0  0.00000000000E+00  0.00000000000E+00 -0.50032912707E+02  0.13464117367E+03  0.12499981318E+03 0.  0.
    9000005    1    3    3    0    0 -0.50623861115E+00 -0.30475142920E+02  0.33746422202E+02  0.45484190934E+02  0.10000000000E+01 0.  0.
    9000005    1    3    3    0    0  0.50623861115E+00  0.30475142920E+02 -0.83779334909E+02  0.89156982740E+02  0.10000000000E+01 0.  0.
<mgrwt>
<rscale>  0 0.12499981E+03</rscale>
<asrwt>0</asrwt>
<pdfrwt beam="1">  1        4 0.65083278E-02 0.12499981E+03</pdfrwt>
<pdfrwt beam="2">  1       -4 0.14205699E-01 0.12499981E+03</pdfrwt>
<totfact> 0.10245683E+04</totfact>
</mgrwt>
</event>
<event>
 5    1  0.3239419E-002  0.1249918E+03  0.7818608E-02  0.1235082E+00
         -4   -1    0    0    0  501 -0.00000000000E+00  0.00000000000E+00  0.98714341383E+01  0.99527941778E+01  0.12700000000E+01 0.  1.
          4   -1    0    0  501    0  0.00000000000E+00 -0.00000000000E+00 -0.39395465038E+03  0.39395669744E+03  0.12700000000E+01 0.  1.
         25    2    1    2    0    0  0.00000000000E+00  0.00000000000E+00 -0.38408321624E+03  0.40390949162E+03  0.12499184141E+03 0.  0.
    9000005    1    3    3    0    0  0.54201082027E+00  0.58336227395E+02 -0.26439595548E+03  0.27075751231E+03  0.10000000000E+01 0.  0.
    9000005    1    3    3    0    0 -0.54201082027E+00 -0.58336227395E+02 -0.11968726077E+03  0.13315197930E+03  0.10000000000E+01 0.  0.
<mgrwt>
<rscale>  0 0.12499184E+03</rscale>
<asrwt>0</asrwt>
<pdfrwt beam="2">  1        4 0.60614812E-01 0.12499184E+03</pdfrwt>
<pdfrwt beam="1">  1       -4 0.15250984E-02 0.12499184E+03</pdfrwt>
<totfact> 0.64185888E+03</totfact>
</mgrwt>
</event>
<event>
 5    1  0.3239419E-002  0.1250030E+03  0.7818608E-02  0.1235065E+00
         -4   -1    0    0    0  501 -0.00000000000E+00  0.00000000000E+00  0.49767532399E+03  0.49767694442E+03  0.12700000000E+01 0. -1.
          4   -1    0    0  501    0  0.00000000000E+00 -0.00000000000E+00 -0.77963610750E+01  0.78991231166E+01  0.12700000000E+01 0. -1.
         25    2    1    2    0    0  0.00000000000E+00  0.00000000000E+00  0.48987896291E+03  0.50557606754E+03  0.12500304700E+03 0.  0.
    9000005    1    3    3    0    0 -0.12457982149E+02 -0.50969112770E+02  0.10764110647E+03  0.11975249299E+03  0.10000000000E+01 0.  0.
    9000005    1    3    3    0    0  0.12457982149E+02  0.50969112770E+02  0.38223785644E+03  0.38582357454E+03  0.10000000000E+01 0.  0.
<mgrwt>
<rscale>  0 0.12500305E+03</rscale>
<asrwt>0</asrwt>
<pdfrwt beam="2">  1        4 0.12074691E-02 0.12500305E+03</pdfrwt>
<pdfrwt beam="1">  1       -4 0.76573492E-01 0.12500305E+03</pdfrwt>
<totfact> 0.55430584E+03</totfact>
</mgrwt>
</event>
<event>
 5    1  0.3239419E-002  0.1249814E+03  0.7818608E-02  0.1235098E+00
         -4   -1    0    0    0  501 -0.00000000000E+00  0.00000000000E+00  0.33687266419E+02  0.33711197232E+02  0.12700000000E+01 0.  1.
          4   -1    0    0  501    0  0.00000000000E+00 -0.00000000000E+00 -0.11585319353E+03  0.11586015428E+03  0.12700000000E+01 0.  1.
         25    2    1    2    0    0  0.00000000000E+00  0.00000000000E+00 -0.82165927109E+02  0.14957135152E+03  0.12498139708E+03 0.  0.
    9000005    1    3    3    0    0  0.22726693550E+02  0.92908893688E+01 -0.10984412166E+03  0.11255911464E+03  0.10000000000E+01 0.  0.
    9000005    1    3    3    0    0 -0.22726693550E+02 -0.92908893688E+01  0.27678194551E+02  0.37012236877E+02  0.10000000000E+01 0.  0.
<mgrwt>
<rscale>  0 0.12498140E+03</rscale>
<asrwt>0</asrwt>
<pdfrwt beam="2">  1        4 0.17825944E-01 0.12498140E+03</pdfrwt>
<pdfrwt beam="1">  1       -4 0.51850327E-02 0.12498140E+03</pdfrwt>
<totfact> 0.99430836E+03</totfact>
</mgrwt>
</event>
<event>
 5    1  0.3239419E-002  0.1249989E+03  0.7818608E-02  0.1235071E+00
          4   -1    0    0  501    0  0.00000000000E+00  0.00000000000E+00  0.45169131368E+02  0.45186981848E+02  0.12700000000E+01 0.  1.
         -4   -1    0    0    0  501 -0.00000000000E+00 -0.00000000000E+00 -0.86439388525E+02  0.86448717680E+02  0.12700000000E+01 0.  1.
         25    2    1    2    0    0  0.00000000000E+00  0.00000000000E+00 -0.41270257157E+02  0.13163569953E+03  0.12499889305E+03 0.  0.
    9000005    1    3    3    0    0  0.36901337444E+02 -0.32044714104E+02  0.20376238695E+02  0.52960018038E+02  0.10000000000E+01 0.  0.
    9000005    1    3    3    0    0 -0.36901337444E+02  0.32044714104E+02 -0.61646495852E+02  0.78675681491E+02  0.10000000000E+01 0.  0.
<mgrwt>
<rscale>  0 0.12499889E+03</rscale>
<asrwt>0</asrwt>
<pdfrwt beam="1">  1        4 0.69511879E-02 0.12499889E+03</pdfrwt>
<pdfrwt beam="2">  1       -4 0.13300458E-01 0.12499889E+03</pdfrwt>
<totfact> 0.10309738E+04</totfact>
</mgrwt>
</event>
<event>
 5    1  0.3239419E-002  0.1249959E+03  0.7818608E-02  0.1235076E+00
         -4   -1    0    0    0  501 -0.00000000000E+00  0.00000000000E+00  0.79896223119E+02  0.79906316200E+02  0.12700000000E+01 0.  1.
          4   -1    0    0  501    0  0.00000000000E+00 -0.00000000000E+00 -0.48866910407E+02  0.48883410608E+02  0.12700000000E+01 0.  1.
         25    2    1    2    0    0  0.00000000000E+00  0.00000000000E+00  0.31029312712E+02  0.12878972681E+03  0.12499590187E+03 0.  0.
    9000005    1    3    3    0    0  0.26498196572E+02 -0.59472205268E+01  0.73503133519E+02  0.78366028932E+02  0.10000000000E+01 0.  0.
    9000005    1    3    3    0    0 -0.26498196572E+02  0.59472205268E+01 -0.42473820807E+02  0.50423697876E+02  0.10000000000E+01 0.  0.
<mgrwt>
<rscale>  0 0.12499590E+03</rscale>
<asrwt>0</asrwt>
<pdfrwt beam="2">  1        4 0.75200319E-02 0.12499590E+03</pdfrwt>
<pdfrwt beam="1">  1       -4 0.12293772E-01 0.12499590E+03</pdfrwt>
<totfact> 0.10371427E+04</totfact>
</mgrwt>
</event>
<event>
 5    1  0.3239419E-002  0.1250007E+03  0.7818608E-02  0.1235068E+00
          4   -1    0    0  501    0  0.00000000000E+00  0.00000000000E+00  0.30321828772E+02  0.30348413469E+02  0.12700000000E+01 0.  1.
         -4   -1    0    0    0  501 -0.00000000000E+00 -0.00000000000E+00 -0.12874165346E+03  0.12874791741E+03  0.12700000000E+01 0.  1.
         25    2    1    2    0    0  0.00000000000E+00  0.00000000000E+00 -0.98419824693E+02  0.15909633088E+03  0.12500072242E+03 0.  0.
    9000005    1    3    3    0    0  0.50505698534E+02  0.93746636743E+01 -0.39133906739E+01  0.51526930143E+02  0.10000000000E+01 0.  0.
    9000005    1    3    3    0    0 -0.50505698534E+02 -0.93746636743E+01 -0.94506434019E+02  0.10756940073E+03  0.10000000000E+01 0.  0.
<mgrwt>
<rscale>  0 0.12500072E+03</rscale>
<asrwt>0</asrwt>
<pdfrwt beam="1">  1        4 0.46674236E-02 0.12500072E+03</pdfrwt>
<pdfrwt beam="2">  1       -4 0.19808935E-01 0.12500072E+03</pdfrwt>
<totfact> 0.97515705E+03</totfact>
</mgrwt>
</event>
<event>
 5    1  0.3239419E-002  0.1249737E+03  0.7818608E-02  0.1235110E+00
         -4   -1    0    0    0  501 -0.00000000000E+00  0.00000000000E+00  0.11239007686E+03  0.11239725209E+03  0.12700000000E+01 0.  1.
          4   -1    0    0  501    0  0.00000000000E+00 -0.00000000000E+00 -0.34721647525E+02  0.34744865906E+02  0.12700000000E+01 0.  1.
         25    2    1    2    0    0  0.00000000000E+00  0.00000000000E+00  0.77668429339E+02  0.14714211800E+03  0.12497366912E+03 0.  0.
    9000005    1    3    3    0    0  0.79925386155E+01 -0.83468887544E+01 -0.33458115899E+02  0.35411816459E+02  0.10000000000E+01 0.  0.
    9000005    1    3    3    0    0 -0.79925386155E+01  0.83468887544E+01  0.11112654524E+03  0.11173030154E+03  0.10000000000E+01 0.  0.
<mgrwt>
<rscale>  0 0.12497367E+03</rscale>
<asrwt>0</asrwt>
<pdfrwt beam="2">  1        4 0.53441299E-02 0.12497367E+03</pdfrwt>
<pdfrwt beam="1">  1       -4 0.17293119E-01 0.12497367E+03</pdfrwt>
<totfact> 0.99935683E+03</totfact>
</mgrwt>
</event>
<event>
 5    1  0.3239419E-002  0.1250001E+03  0.7818608E-02  0.1235069E+00
         -4   -1    0    0    0  501 -0.00000000000E+00  0.00000000000E+00  0.27467227670E+02  0.27496572438E+02  0.12700000000E+01 0. -1.
          4   -1    0    0  501    0  0.00000000000E+00 -0.00000000000E+00 -0.14210702835E+03  0.14211270319E+03  0.12700000000E+01 0. -1.
         25    2    1    2    0    0  0.00000000000E+00  0.00000000000E+00 -0.11463980068E+03  0.16960927563E+03  0.12500008991E+03 0.  0.
    9000005    1    3    3    0    0 -0.29459874020E+02  0.55076443102E+02 -0.54620828323E+02  0.82980320853E+02  0.10000000000E+01 0.  0.
    9000005    1    3    3    0    0  0.29459874020E+02 -0.55076443102E+02 -0.60018972361E+02  0.86628954775E+02  0.10000000000E+01 0.  0.
<mgrwt>
<rscale>  0 0.12500009E+03</rscale>
<asrwt>0</asrwt>
<pdfrwt beam="2">  1        4 0.21865313E-01 0.12500009E+03</pdfrwt>
<pdfrwt beam="1">  1       -4 0.42284212E-02 0.12500009E+03</pdfrwt>
<totfact> 0.95521320E+03</totfact>
</mgrwt>
</event>
<event>
 5    1  0.3239419E-002  0.1250236E+03  0.7818608E-02  0.1235032E+00
         -4   -1    0    0    0  501 -0.00000000000E+00  0.00000000000E+00  0.44020573134E+02  0.44038889167E+02  0.12700000000E+01 0. -1.
          4   -1    0    0  501    0  0.00000000000E+00 -0.00000000000E+00 -0.88729050616E+02  0.88738139056E+02  0.12700000000E+01 0. -1.
         25    2    1    2    0    0  0.00000000000E+00  0.00000000000E+00 -0.44708477481E+02  0.13277702822E+03  0.12502356284E+03 0.  0.
    9000005    1    3    3    0    0  0.56451822528E+02  0.43146610715E+01  0.57701084492E+01  0.56918527022E+02  0.10000000000E+01 0.  0.
    9000005    1    3    3    0    0 -0.56451822528E+02 -0.43146610715E+01 -0.50478585931E+02  0.75858501201E+02  0.10000000000E+01 0.  0.
<mgrwt>
<rscale>  0 0.12502356E+03</rscale>
<asrwt>0</asrwt>
<pdfrwt beam="2">  1        4 0.13652731E-01 0.12502356E+03</pdfrwt>
<pdfrwt beam="1">  1       -4 0.67745039E-02 0.12502356E+03</pdfrwt>
<totfact> 0.10279676E+04</totfact>
</mgrwt>
</event>
<event>
 5    1  0.3239419E-002  0.1250006E+03  0.7818608E-02  0.1235068E+00
         -4   -1    0    0    0  501 -0.00000000000E+00  0.00000000000E+00  0.10238979579E+04  0.10238987455E+04  0.12700000000E+01 0. -1.
          4   -1    0    0  501    0  0.00000000000E+00 -0.00000000000E+00 -0.37086109950E+01  0.39200376927E+01  0.12700000000E+01 0. -1.
         25    2    1    2    0    0  0.00000000000E+00  0.00000000000E+00  0.10201893469E+04  0.10278187832E+04  0.12500059040E+03 0.  0.
    9000005    1    3    3    0    0  0.50586964513E+01 -0.43059288830E+02  0.88016196474E+03  0.88122969590E+03  0.10000000000E+01 0.  0.
    9000005    1    3    3    0    0 -0.50586964513E+01  0.43059288830E+02  0.14002738213E+03  0.14658908729E+03  0.10000000000E+01 0.  0.
<mgrwt>
<rscale>  0 0.12500059E+03</rscale>
<asrwt>0</asrwt>
<pdfrwt beam="2">  1        4 0.58688033E-03 0.12500059E+03</pdfrwt>
<pdfrwt beam="1">  1       -4 0.15753892E+00 0.12500059E+03</pdfrwt>
<totfact> 0.29697232E+03</totfact>
</mgrwt>
</event>
<event>
 5    1  0.3239419E-002  0.1250037E+03  0.7818608E-02  0.1235063E+00
          4   -1    0    0  501    0  0.00000000000E+00  0.00000000000E+00  0.53127026500E+02  0.53142203988E+02  0.12700000000E+01 0.  1.
         -4   -1    0    0    0  501 -0.00000000000E+00 -0.00000000000E+00 -0.73499807177E+02  0.73510778496E+02  0.12700000000E+01 0.  1.
         25    2    1    2    0    0  0.00000000000E+00  0.00000000000E+00 -0.20372780677E+02  0.12665298248E+03  0.12500371106E+03 0.  0.
    9000005    1    3    3    0    0 -0.40213940143E+02  0.13421576240E+02 -0.56707127887E+02  0.70809590056E+02  0.10000000000E+01 0.  0.
    9000005    1    3    3    0    0  0.40213940143E+02 -0.13421576240E+02  0.36334347210E+02  0.55843392428E+02  0.10000000000E+01 0.  0.
<mgrwt>
<rscale>  0 0.12500371E+03</rscale>
<asrwt>0</asrwt>
<pdfrwt beam="1">  1        4 0.81754001E-02 0.12500371E+03</pdfrwt>
<pdfrwt beam="2">  1       -4 0.11309674E-01 0.12500371E+03</pdfrwt>
<totfact> 0.10415822E+04</totfact>
</mgrwt>
</event>
<event>
 5    1  0.3239419E-002  0.1249989E+03  0.7818608E-02  0.1235071E+00
         -4   -1    0    0    0  501 -0.00000000000E+00  0.00000000000E+00  0.30235001503E+02  0.30261662478E+02  0.12700000000E+01 0. -1.
          4   -1    0    0  501    0  0.00000000000E+00 -0.00000000000E+00 -0.12910728800E+03  0.12911353420E+03  0.12700000000E+01 0. -1.
         25    2    1    2    0    0  0.00000000000E+00  0.00000000000E+00 -0.98872286493E+02  0.15937519668E+03  0.12499889711E+03 0.  0.
    9000005    1    3    3    0    0 -0.10860021578E+02  0.52561466255E+02 -0.90247175973E+02  0.10500571687E+03  0.10000000000E+01 0.  0.
    9000005    1    3    3    0    0  0.10860021578E+02 -0.52561466255E+02 -0.86251105209E+01  0.54369479812E+02  0.10000000000E+01 0.  0.
<mgrwt>
<rscale>  0 0.12499890E+03</rscale>
<asrwt>0</asrwt>
<pdfrwt beam="2">  1        4 0.19865191E-01 0.12499890E+03</pdfrwt>
<pdfrwt beam="1">  1       -4 0.46540701E-02 0.12499890E+03</pdfrwt>
<totfact> 0.97465794E+03</totfact>
</mgrwt>
</event>
<event>
 5    1  0.3239419E-002  0.1250024E+03  0.7818608E-02  0.1235065E+00
          4   -1    0    0  501    0  0.00000000000E+00  0.00000000000E+00  0.45054593013E+03  0.45054772006E+03  0.12700000000E+01 0.  1.
         -4   -1    0    0    0  501 -0.00000000000E+00 -0.00000000000E+00 -0.86220535721E+01  0.87150850713E+01  0.12700000000E+01 0.  1.
         25    2    1    2    0    0  0.00000000000E+00  0.00000000000E+00  0.44192387655E+03  0.45926280513E+03  0.12500244602E+03 0.  0.
    9000005    1    3    3    0    0 -0.44771483835E+02 -0.14112183672E+02  0.37252464423E+03  0.37547203631E+03  0.10000000000E+01 0.  0.
    9000005    1    3    3    0    0  0.44771483835E+02  0.14112183672E+02  0.69399232329E+02  0.83790768827E+02  0.10000000000E+01 0.  0.
<mgrwt>
<rscale>  0 0.12500245E+03</rscale>
<asrwt>0</asrwt>
<pdfrwt beam="1">  1        4 0.69322068E-01 0.12500245E+03</pdfrwt>
<pdfrwt beam="2">  1       -4 0.13337634E-02 0.12500245E+03</pdfrwt>
<totfact> 0.59166478E+03</totfact>
</mgrwt>
</event>
<event>
 5    1  0.3239419E-002  0.1250038E+03  0.7818608E-02  0.1235063E+00
          4   -1    0    0  501    0  0.00000000000E+00  0.00000000000E+00  0.28948979634E+03  0.28949258209E+03  0.12700000000E+01 0.  1.
         -4   -1    0    0    0  501 -0.00000000000E+00 -0.00000000000E+00 -0.13461643946E+02  0.13521418481E+02  0.12700000000E+01 0.  1.
         25    2    1    2    0    0  0.00000000000E+00  0.00000000000E+00  0.27602815239E+03  0.30301400057E+03  0.12500377445E+03 0.  0.
    9000005    1    3    3    0    0 -0.59483514647E+02 -0.11754997423E+02  0.10133031691E+03  0.11809022654E+03  0.10000000000E+01 0.  0.
    9000005    1    3    3    0    0  0.59483514647E+02  0.11754997423E+02  0.17469783548E+03  0.18492377403E+03  0.10000000000E+01 0.  0.
<mgrwt>
<rscale>  0 0.12500377E+03</rscale>
<asrwt>0</asrwt>
<pdfrwt beam="1">  1        4 0.44541704E-01 0.12500377E+03</pdfrwt>
<pdfrwt beam="2">  1       -4 0.20758345E-02 0.12500377E+03</pdfrwt>
<totfact> 0.75216014E+03</totfact>
</mgrwt>
</event>
<event>
 5    1  0.3239419E-002  0.1250033E+03  0.7818608E-02  0.1235064E+00
         -4   -1    0    0    0  501 -0.00000000000E+00  0.00000000000E+00  0.86552572457E+02  0.86561889414E+02  0.12700000000E+01 0. -1.
          4   -1    0    0  501    0  0.00000000000E+00 -0.00000000000E+00 -0.45113260878E+02  0.45131133456E+02  0.12700000000E+01 0. -1.
         25    2    1    2    0    0  0.00000000000E+00  0.00000000000E+00  0.41439311579E+02  0.13169302287E+03  0.12500334287E+03 0.  0.
    9000005    1    3    3    0    0 -0.21101487627E+02 -0.58808522773E+02  0.19328455560E+02  0.65408748078E+02  0.10000000000E+01 0.  0.
    9000005    1    3    3    0    0  0.21101487627E+02  0.58808522773E+02  0.22110856019E+02  0.66284274792E+02  0.10000000000E+01 0.  0.
<mgrwt>
<rscale>  0 0.12500334E+03</rscale>
<asrwt>0</asrwt>
<pdfrwt beam="2">  1        4 0.69425932E-02 0.12500334E+03</pdfrwt>
<pdfrwt beam="1">  1       -4 0.13317872E-01 0.12500334E+03</pdfrwt>
<totfact> 0.10307478E+04</totfact>
</mgrwt>
</event>
<event>
 5    1  0.3239419E-002  0.1249976E+03  0.7818608E-02  0.1235073E+00
          4   -1    0    0  501    0  0.00000000000E+00  0.00000000000E+00  0.51765491501E+02  0.51781068069E+02  0.12700000000E+01 0.  1.
         -4   -1    0    0    0  501 -0.00000000000E+00 -0.00000000000E+00 -0.75425325728E+02  0.75436017002E+02  0.12700000000E+01 0.  1.
         25    2    1    2    0    0  0.00000000000E+00  0.00000000000E+00 -0.23659834227E+02  0.12721708507E+03  0.12499759589E+03 0.  0.
    9000005    1    3    3    0    0 -0.51425199674E+01 -0.60559534718E+01 -0.74914220377E+02  0.75340961626E+02  0.10000000000E+01 0.  0.
    9000005    1    3    3    0    0  0.51425199674E+01  0.60559534718E+01  0.51254386150E+02  0.51876123445E+02  0.10000000000E+01 0.  0.
<mgrwt>
<rscale>  0 0.12499760E+03</rscale>
<asrwt>0</asrwt>
<pdfrwt beam="1">  1        4 0.79659424E-02 0.12499760E+03</pdfrwt>
<pdfrwt beam="2">  1       -4 0.11605917E-01 0.12499760E+03</pdfrwt>
<totfact> 0.10404997E+04</totfact>
</mgrwt>
</event>
<event>
 4    1  0.3239419E-002  0.1249372E+03  0.7818608E-02  0.1235167E+00
         -4   -1    0    0    0  501 -0.00000000000E+00  0.00000000000E+00  0.19825732641E+03  0.19826139406E+03  0.12700000000E+01 0. -1.
          4   -1    0    0  501    0  0.00000000000E+00 -0.00000000000E+00 -0.19658372343E+02  0.19699352862E+02  0.12700000000E+01 0. -1.
    9000005    1    1    2    0    0  0.59410052743E+02  0.86877384094E+01  0.11932897123E+03  0.13358680527E+03  0.10000000000E+01 0.  0.
    9000005    1    1    2    0    0 -0.59410052743E+02 -0.86877384094E+01  0.59269982834E+02  0.84373941657E+02  0.10000000000E+01 0.  0.
<mgrwt>
<rscale>  0 0.12493719E+03</rscale>
<asrwt>0</asrwt>
<pdfrwt beam="2">  1        4 0.30278303E-02 0.12493719E+03</pdfrwt>
<pdfrwt beam="1">  1       -4 0.30504591E-01 0.12493719E+03</pdfrwt>
<totfact> 0.87314534E+03</totfact>
</mgrwt>
</event>
<event>
 5    1  0.3239419E-002  0.1250013E+03  0.7818608E-02  0.1235067E+00
          4   -1    0    0  501    0  0.00000000000E+00  0.00000000000E+00  0.24767360304E+03  0.24767685912E+03  0.12700000000E+01 0.  1.
         -4   -1    0    0    0  501 -0.00000000000E+00 -0.00000000000E+00 -0.15743171411E+02  0.15794313726E+02  0.12700000000E+01 0.  1.
         25    2    1    2    0    0  0.00000000000E+00  0.00000000000E+00  0.23193043163E+03  0.26347117284E+03  0.12500133521E+03 0.  0.
    9000005    1    3    3    0    0 -0.15057068448E+00  0.12838529930E+02 -0.12943502743E+02  0.18258827606E+02  0.10000000000E+01 0.  0.
    9000005    1    3    3    0    0  0.15057068448E+00 -0.12838529930E+02  0.24487393437E+03  0.24521234523E+03  0.10000000000E+01 0.  0.
<mgrwt>
<rscale>  0 0.12500134E+03</rscale>
<asrwt>0</asrwt>
<pdfrwt beam="1">  1        4 0.38107813E-01 0.12500134E+03</pdfrwt>
<pdfrwt beam="2">  1       -4 0.24262111E-02 0.12500134E+03</pdfrwt>
<totfact> 0.80418998E+03</totfact>
</mgrwt>
</event>
<event>
 5    1  0.3239419E-002  0.1249989E+03  0.7818608E-02  0.1235071E+00
         -4   -1    0    0    0  501 -0.00000000000E+00  0.00000000000E+00  0.57603085677E+02  0.57617084094E+02  0.12700000000E+01 0.  1.
          4   -1    0    0  501    0  0.00000000000E+00 -0.00000000000E+00 -0.67783852477E+02  0.67795748810E+02  0.12700000000E+01 0.  1.
         25    2    1    2    0    0  0.00000000000E+00  0.00000000000E+00 -0.10180766801E+02  0.12541283290E+03  0.12499892257E+03 0.  0.
    9000005    1    3    3    0    0 -0.22330417019E+02  0.42797336036E+02 -0.44907095409E+02  0.65938658722E+02  0.10000000000E+01 0.  0.
    9000005    1    3    3    0    0  0.22330417019E+02 -0.42797336036E+02  0.34726328608E+02  0.59474174182E+02  0.10000000000E+01 0.  0.
<mgrwt>
<rscale>  0 0.12499892E+03</rscale>
<asrwt>0</asrwt>
<pdfrwt beam="2">  1        4 0.10430277E-01 0.12499892E+03</pdfrwt>
<pdfrwt beam="1">  1       -4 0.88640051E-02 0.12499892E+03</pdfrwt>
<totfact> 0.10444136E+04</totfact>
</mgrwt>
</event>
<event>
 5    1  0.3239419E-002  0.1250018E+03  0.7818608E-02  0.1235066E+00
         -4   -1    0    0    0  501 -0.00000000000E+00  0.00000000000E+00  0.51099190217E+01  0.52653748593E+01  0.12700000000E+01 0. -1.
          4   -1    0    0  501    0  0.00000000000E+00 -0.00000000000E+00 -0.75285670551E+03  0.75285777670E+03  0.12700000000E+01 0. -1.
         25    2    1    2    0    0  0.00000000000E+00  0.00000000000E+00 -0.74774678649E+03  0.75812315155E+03  0.12500182487E+03 0.  0.
    9000005    1    3    3    0    0 -0.34717237434E+02  0.38674034392E+02 -0.16339469145E+03  0.17146367751E+03  0.10000000000E+01 0.  0.
    9000005    1    3    3    0    0  0.34717237434E+02 -0.38674034392E+02 -0.58435209504E+03  0.58665947405E+03  0.10000000000E+01 0.  0.
<mgrwt>
<rscale>  0 0.12500182E+03</rscale>
<asrwt>0</asrwt>
<pdfrwt beam="2">  1        4 0.11583606E+00 0.12500182E+03</pdfrwt>
<pdfrwt beam="1">  1       -4 0.79818252E-03 0.12500182E+03</pdfrwt>
<totfact> 0.40187011E+03</totfact>
</mgrwt>
</event>
<event>
 5    1  0.3239419E-002  0.1250011E+03  0.7818608E-02  0.1235068E+00
         -4   -1    0    0    0  501 -0.00000000000E+00  0.00000000000E+00  0.25878574667E+03  0.25878886293E+03  0.12700000000E+01 0. -1.
          4   -1    0    0  501    0  0.00000000000E+00 -0.00000000000E+00 -0.15064876201E+02  0.15118313231E+02  0.12700000000E+01 0. -1.
         25    2    1    2    0    0  0.00000000000E+00  0.00000000000E+00  0.24372087047E+03  0.27390717616E+03  0.12500111381E+03 0.  0.
    9000005    1    3    3    0    0  0.18457176399E+02  0.55766176586E+02  0.16859013348E+03  0.17853337760E+03  0.10000000000E+01 0.  0.
    9000005    1    3    3    0    0 -0.18457176399E+02 -0.55766176586E+02  0.75130736985E+02  0.95373798559E+02  0.10000000000E+01 0.  0.
<mgrwt>
<rscale>  0 0.12500111E+03</rscale>
<asrwt>0</asrwt>
<pdfrwt beam="2">  1        4 0.23220236E-02 0.12500111E+03</pdfrwt>
<pdfrwt beam="1">  1       -4 0.39817541E-01 0.12500111E+03</pdfrwt>
<totfact> 0.78991010E+03</totfact>
</mgrwt>
</event>
<event>
 5    1  0.3239419E-002  0.1250009E+03  0.7818608E-02  0.1235068E+00
         -4   -1    0    0    0  501 -0.00000000000E+00  0.00000000000E+00  0.15919313151E+01  0.20364541026E+01  0.12700000000E+01 0. -1.
          4   -1    0    0  501    0  0.00000000000E+00 -0.00000000000E+00 -0.21527494351E+04  0.21527498097E+04  0.12700000000E+01 0. -1.
         25    2    1    2    0    0  0.00000000000E+00  0.00000000000E+00 -0.21511575038E+04  0.21547862638E+04  0.12500094656E+03 0.  0.
    9000005    1    3    3    0    0 -0.20349647285E+02 -0.15155086071E+02 -0.20600458619E+04  0.20602023537E+04  0.10000000000E+01 0.  0.
    9000005    1    3    3    0    0  0.20349647285E+02  0.15155086071E+02 -0.91111641824E+02  0.94583910124E+02  0.10000000000E+01 0.  0.
<mgrwt>
<rscale>  0 0.12500095E+03</rscale>
<asrwt>0</asrwt>
<pdfrwt beam="2">  1        4 0.33122440E+00 0.12500095E+03</pdfrwt>
<pdfrwt beam="1">  1       -4 0.27913711E-03 0.12500095E+03</pdfrwt>
<totfact> 0.79737700E+02</totfact>
</mgrwt>
</event>
<event>
 5    1  0.3239419E-002  0.1249489E+03  0.7818608E-02  0.1235149E+00
         -4   -1    0    0    0  501 -0.00000000000E+00  0.00000000000E+00  0.38548619853E+03  0.38548829055E+03  0.12700000000E+01 0. -1.
          4   -1    0    0  501    0  0.00000000000E+00 -0.00000000000E+00 -0.10083074480E+02  0.10162740327E+02  0.12700000000E+01 0. -1.
         25    2    1    2    0    0  0.00000000000E+00  0.00000000000E+00  0.37540312405E+03  0.39565103088E+03  0.12494892034E+03 0.  0.
    9000005    1    3    3    0    0  0.35417765038E+02  0.19101458820E+02  0.33899193278E+03  0.34137342354E+03  0.10000000000E+01 0.  0.
    9000005    1    3    3    0    0 -0.35417765038E+02 -0.19101458820E+02  0.36411191268E+02  0.54277607343E+02  0.10000000000E+01 0.  0.
<mgrwt>
<rscale>  0 0.12494892E+03</rscale>
<asrwt>0</asrwt>
<pdfrwt beam="2">  1        4 0.15575315E-02 0.12494892E+03</pdfrwt>
<pdfrwt beam="1">  1       -4 0.59311852E-01 0.12494892E+03</pdfrwt>
<totfact> 0.65051319E+03</totfact>
</mgrwt>
</event>
<event>
 5    1  0.3239419E-002  0.1250007E+03  0.7818608E-02  0.1235068E+00
         -4   -1    0    0    0  501 -0.00000000000E+00  0.00000000000E+00  0.46241865415E+03  0.46242039812E+03  0.12700000000E+01 0. -1.
          4   -1    0    0  501    0  0.00000000000E+00 -0.00000000000E+00 -0.83980242713E+01  0.84935099730E+01  0.12700000000E+01 0. -1.
         25    2    1    2    0    0  0.00000000000E+00  0.00000000000E+00  0.45402062987E+03  0.47091390810E+03  0.12500070595E+03 0.  0.
    9000005    1    3    3    0    0  0.26894624373E+02  0.32107860276E+02  0.40173536493E+03  0.40391402420E+03  0.10000000000E+01 0.  0.
    9000005    1    3    3    0    0 -0.26894624373E+02 -0.32107860276E+02  0.52285264944E+02  0.66999883895E+02  0.10000000000E+01 0.  0.
<mgrwt>
<rscale>  0 0.12500071E+03</rscale>
<asrwt>0</asrwt>
<pdfrwt beam="2">  1        4 0.12994824E-02 0.12500071E+03</pdfrwt>
<pdfrwt beam="1">  1       -4 0.71148840E-01 0.12500071E+03</pdfrwt>
<totfact> 0.58192969E+03</totfact>
</mgrwt>
</event>
<event>
 5    1  0.3239419E-002  0.1249999E+03  0.7818608E-02  0.1235070E+00
          4   -1    0    0  501    0  0.00000000000E+00  0.00000000000E+00  0.52283035248E+03  0.52283189494E+03  0.12700000000E+01 0.  1.
         -4   -1    0    0    0  501 -0.00000000000E+00 -0.00000000000E+00 -0.74158008400E+01  0.75237624962E+01  0.12700000000E+01 0.  1.
         25    2    1    2    0    0  0.00000000000E+00  0.00000000000E+00  0.51541455164E+03  0.53035565744E+03  0.12499985336E+03 0.  0.
    9000005    1    3    3    0    0 -0.78951570388E+01  0.51052186051E+02  0.10850718151E+03  0.12018097871E+03  0.10000000000E+01 0.  0.
    9000005    1    3    3    0    0  0.78951570388E+01 -0.51052186051E+02  0.40690737013E+03  0.41017467873E+03  0.10000000000E+01 0.  0.
<mgrwt>
<rscale>  0 0.12499985E+03</rscale>
<asrwt>0</asrwt>
<pdfrwt beam="1">  1        4 0.80443854E-01 0.12499985E+03</pdfrwt>
<pdfrwt beam="2">  1       -4 0.11493159E-02 0.12499985E+03</pdfrwt>
<totfact> 0.53583909E+03</totfact>
</mgrwt>
</event>
<event>
 5    1  0.3239419E-002  0.1249996E+03  0.7818608E-02  0.1235070E+00
         -4   -1    0    0    0  501 -0.00000000000E+00  0.00000000000E+00  0.37803686296E+02  0.37825012856E+02  0.12700000000E+01 0. -1.
          4   -1    0    0  501    0  0.00000000000E+00 -0.00000000000E+00 -0.10327488063E+03  0.10328268911E+03  0.12700000000E+01 0. -1.
         25    2    1    2    0    0  0.00000000000E+00  0.00000000000E+00 -0.65471194333E+02  0.14110770196E+03  0.12499962506E+03 0.  0.
    9000005    1    3    3    0    0 -0.43389936512E+02 -0.33062589792E+02  0.16791467245E+01  0.54586087678E+02  0.10000000000E+01 0.  0.
    9000005    1    3    3    0    0  0.43389936512E+02  0.33062589792E+02 -0.67150341058E+02  0.86521614285E+02  0.10000000000E+01 0.  0.
<mgrwt>
<rscale>  0 0.12499963E+03</rscale>
<asrwt>0</asrwt>
<pdfrwt beam="2">  1        4 0.15890684E-01 0.12499963E+03</pdfrwt>
<pdfrwt beam="1">  1       -4 0.58181929E-02 0.12499963E+03</pdfrwt>
<totfact> 0.10110765E+04</totfact>
</mgrwt>
</event>
<event>
 5    1  0.3239419E-002  0.1250015E+03  0.7818608E-02  0.1235067E+00
         -4   -1    0    0    0  501 -0.00000000000E+00  0.00000000000E+00  0.41517015895E+03  0.41517210141E+03  0.12700000000E+01 0. -1.
          4   -1    0    0  501    0  0.00000000000E+00 -0.00000000000E+00 -0.93641934297E+01  0.94499216181E+01  0.12700000000E+01 0. -1.
         25    2    1    2    0    0  0.00000000000E+00  0.00000000000E+00  0.40580596552E+03  0.42462202302E+03  0.12500152312E+03 0.  0.
    9000005    1    3    3    0    0 -0.40882380733E+02 -0.46069049538E+02  0.23879153306E+03  0.24660925092E+03  0.10000000000E+01 0.  0.
    9000005    1    3    3    0    0  0.40882380733E+02  0.46069049538E+02  0.16701443246E+03  0.17801277210E+03  0.10000000000E+01 0.  0.
<mgrwt>
<rscale>  0 0.12500152E+03</rscale>
<asrwt>0</asrwt>
<pdfrwt beam="2">  1        4 0.14473895E-02 0.12500152E+03</pdfrwt>
<pdfrwt beam="1">  1       -4 0.63879057E-01 0.12500152E+03</pdfrwt>
<totfact> 0.62224434E+03</totfact>
</mgrwt>
</event>
<event>
 5    1  0.3239419E-002  0.1249927E+03  0.7818608E-02  0.1235081E+00
          4   -1    0    0  501    0  0.00000000000E+00  0.00000000000E+00  0.31356565226E+03  0.31356822412E+03  0.12700000000E+01 0. -1.
         -4   -1    0    0    0  501 -0.00000000000E+00 -0.00000000000E+00 -0.12421071393E+02  0.12485828549E+02  0.12700000000E+01 0. -1.
         25    2    1    2    0    0  0.00000000000E+00  0.00000000000E+00  0.30114458087E+03  0.32605405267E+03  0.12499274649E+03 0.  0.
    9000005    1    3    3    0    0  0.84793025320E+01 -0.26063902439E+02  0.29706165806E+03  0.29832508153E+03  0.10000000000E+01 0.  0.
    9000005    1    3    3    0    0 -0.84793025320E+01  0.26063902439E+02  0.40829228098E+01  0.27728971139E+02  0.10000000000E+01 0.  0.
<mgrwt>
<rscale>  0 0.12499275E+03</rscale>
<asrwt>0</asrwt>
<pdfrwt beam="1">  1        4 0.48246044E-01 0.12499275E+03</pdfrwt>
<pdfrwt beam="2">  1       -4 0.19161134E-02 0.12499275E+03</pdfrwt>
<totfact> 0.72453461E+03</totfact>
</mgrwt>
</event>
<event>
 5    1  0.3239419E-002  0.1249973E+03  0.7818608E-02  0.1235073E+00
         -4   -1    0    0    0  501 -0.00000000000E+00  0.00000000000E+00  0.10336944948E+02  0.10414669023E+02  0.12700000000E+01 0.  1.
          4   -1    0    0  501    0  0.00000000000E+00 -0.00000000000E+00 -0.37638196303E+03  0.37638410566E+03  0.12700000000E+01 0.  1.
         25    2    1    2    0    0  0.00000000000E+00  0.00000000000E+00 -0.36604501808E+03  0.38679877468E+03  0.12499734731E+03 0.  0.
    9000005    1    3    3    0    0 -0.78439348666E+01 -0.61975329040E+02 -0.18802700563E+03  0.19813536678E+03  0.10000000000E+01 0.  0.
    9000005    1    3    3    0    0  0.78439348666E+01  0.61975329040E+02 -0.17801801245E+03  0.18866340790E+03  0.10000000000E+01 0.  0.
<mgrwt>
<rscale>  0 0.12499735E+03</rscale>
<asrwt>0</asrwt>
<pdfrwt beam="2">  1        4 0.57911051E-01 0.12499735E+03</pdfrwt>
<pdfrwt beam="1">  1       -4 0.15964431E-02 0.12499735E+03</pdfrwt>
<totfact> 0.65861163E+03</totfact>
</mgrwt>
</event>
<event>
 5    1  0.3239419E-002  0.1250012E+03  0.7818608E-02  0.1235067E+00
          4   -1    0    0  501    0  0.00000000000E+00  0.00000000000E+00  0.57212692048E+02  0.57226785961E+02  0.12700000000E+01 0. -1.
         -4   -1    0    0    0  501 -0.00000000000E+00 -0.00000000000E+00 -0.68248843730E+02  0.68260659025E+02  0.12700000000E+01 0. -1.
         25    2    1    2    0    0  0.00000000000E+00  0.00000000000E+00 -0.11036151682E+02  0.12548744499E+03  0.12500120881E+03 0.  0.
    9000005    1    3    3    0    0  0.65969268738E+01 -0.31255897605E+02 -0.59438035918E+02  0.67485781415E+02  0.10000000000E+01 0.  0.
    9000005    1    3    3    0    0 -0.65969268738E+01  0.31255897605E+02  0.48401884237E+02  0.58001663571E+02  0.10000000000E+01 0.  0.
<mgrwt>
<rscale>  0 0.12500121E+03</rscale>
<asrwt>0</asrwt>
<pdfrwt beam="1">  1        4 0.88039456E-02 0.12500121E+03</pdfrwt>
<pdfrwt beam="2">  1       -4 0.10501815E-01 0.12500121E+03</pdfrwt>
<totfact> 0.10441947E+04</totfact>
</mgrwt>
</event>
<event>
 5    1  0.3239419E-002  0.1249983E+03  0.7818608E-02  0.1235072E+00
          4   -1    0    0  501    0  0.00000000000E+00  0.00000000000E+00  0.29314799880E+02  0.29342296979E+02  0.12700000000E+01 0. -1.
         -4   -1    0    0    0  501 -0.00000000000E+00 -0.00000000000E+00 -0.13315525963E+03  0.13316131595E+03  0.12700000000E+01 0. -1.
         25    2    1    2    0    0  0.00000000000E+00  0.00000000000E+00 -0.10384045975E+03  0.16250361293E+03  0.12499833253E+03 0.  0.
    9000005    1    3    3    0    0 -0.40399117244E+02  0.10050286575E+02 -0.11250920350E+03  0.11996840337E+03  0.10000000000E+01 0.  0.
    9000005    1    3    3    0    0  0.40399117244E+02 -0.10050286575E+02  0.86687437541E+01  0.42535209563E+02  0.10000000000E+01 0.  0.
<mgrwt>
<rscale>  0 0.12499833E+03</rscale>
<asrwt>0</asrwt>
<pdfrwt beam="1">  1        4 0.45125503E-02 0.12499833E+03</pdfrwt>
<pdfrwt beam="2">  1       -4 0.20488005E-01 0.12499833E+03</pdfrwt>
<totfact> 0.96865898E+03</totfact>
</mgrwt>
</event>
<event>
 5    1  0.3239419E-002  0.1249951E+03  0.7818608E-02  0.1235077E+00
          4   -1    0    0  501    0  0.00000000000E+00  0.00000000000E+00  0.16337896922E+02  0.16387183280E+02  0.12700000000E+01 0. -1.
         -4   -1    0    0    0  501 -0.00000000000E+00 -0.00000000000E+00 -0.23866148604E+03  0.23866486507E+03  0.12700000000E+01 0. -1.
         25    2    1    2    0    0  0.00000000000E+00  0.00000000000E+00 -0.22232358912E+03  0.25505204835E+03  0.12499507626E+03 0.  0.
    9000005    1    3    3    0    0  0.24173957606E+02  0.57218722184E+02 -0.12508807323E+03  0.13966527291E+03  0.10000000000E+01 0.  0.
    9000005    1    3    3    0    0 -0.24173957606E+02 -0.57218722184E+02 -0.97235515893E+02  0.11538677544E+03  0.10000000000E+01 0.  0.
<mgrwt>
<rscale>  0 0.12499508E+03</rscale>
<asrwt>0</asrwt>
<pdfrwt beam="1">  1        4 0.25175740E-02 0.12499508E+03</pdfrwt>
<pdfrwt beam="2">  1       -4 0.36721200E-01 0.12499508E+03</pdfrwt>
<totfact> 0.81614438E+03</totfact>
</mgrwt>
</event>
<event>
 5    1  0.3239419E-002  0.1249984E+03  0.7818608E-02  0.1235072E+00
         -4   -1    0    0    0  501 -0.00000000000E+00  0.00000000000E+00  0.14223843968E+03  0.14224410927E+03  0.12700000000E+01 0. -1.
          4   -1    0    0  501    0  0.00000000000E+00 -0.00000000000E+00 -0.27441089425E+02  0.27470462115E+02  0.12700000000E+01 0. -1.
         25    2    1    2    0    0  0.00000000000E+00  0.00000000000E+00  0.11479735025E+03  0.16971457138E+03  0.12499841645E+03 0.  0.
    9000005    1    3    3    0    0 -0.61147356799E+02 -0.56344417088E+00  0.39914231287E+02  0.73030559165E+02  0.10000000000E+01 0.  0.
    9000005    1    3    3    0    0  0.61147356799E+02  0.56344417088E+00  0.74883118965E+02  0.96684012219E+02  0.10000000000E+01 0.  0.
<mgrwt>
<rscale>  0 0.12499842E+03</rscale>
<asrwt>0</asrwt>
<pdfrwt beam="2">  1        4 0.42244018E-02 0.12499842E+03</pdfrwt>
<pdfrwt beam="1">  1       -4 0.21885532E-01 0.12499842E+03</pdfrwt>
<totfact> 0.95505258E+03</totfact>
</mgrwt>
</event>
<event>
 4    1  0.3239419E-002  0.1246969E+03  0.7818608E-02  0.1235544E+00
         -4   -1    0    0    0  501 -0.00000000000E+00  0.00000000000E+00  0.13784501337E+03  0.13785086365E+03  0.12700000000E+01 0.  1.
          4   -1    0    0  501    0  0.00000000000E+00 -0.00000000000E+00 -0.28179964604E+02  0.28208567938E+02  0.12700000000E+01 0.  1.
    9000005    1    1    2    0    0  0.30099441268E+02 -0.13658342911E+02 -0.15556624749E+02  0.36544975979E+02  0.10000000000E+01 0.  0.
    9000005    1    1    2    0    0 -0.30099441268E+02  0.13658342911E+02  0.12522167351E+03  0.12951445561E+03  0.10000000000E+01 0.  0.
<mgrwt>
<rscale>  0 0.12469688E+03</rscale>
<asrwt>0</asrwt>
<pdfrwt beam="2">  1        4 0.43380294E-02 0.12469688E+03</pdfrwt>
<pdfrwt beam="1">  1       -4 0.21209575E-01 0.12469688E+03</pdfrwt>
<totfact> 0.96844980E+03</totfact>
</mgrwt>
</event>
<event>
 4    1  0.3239419E-002  0.1250960E+03  0.7818608E-02  0.1234919E+00
         -4   -1    0    0    0  501 -0.00000000000E+00  0.00000000000E+00  0.71451549220E+01  0.72571439878E+01  0.12700000000E+01 0.  1.
          4   -1    0    0  501    0  0.00000000000E+00 -0.00000000000E+00 -0.54316890065E+03  0.54317038536E+03  0.12700000000E+01 0.  1.
    9000005    1    1    2    0    0 -0.50192945594E+02  0.20716712814E+02 -0.13148729303E+03  0.14226180867E+03  0.10000000000E+01 0.  0.
    9000005    1    1    2    0    0  0.50192945594E+02 -0.20716712814E+02 -0.40453645270E+03  0.40816572068E+03  0.10000000000E+01 0.  0.
<mgrwt>
<rscale>  0 0.12509600E+03</rscale>
<asrwt>0</asrwt>
<pdfrwt beam="2">  1        4 0.83573143E-01 0.12509600E+03</pdfrwt>
<pdfrwt beam="1">  1       -4 0.11079838E-02 0.12509600E+03</pdfrwt>
<totfact> 0.52044385E+03</totfact>
</mgrwt>
</event>
<event>
 5    1  0.3239419E-002  0.1250056E+03  0.7818608E-02  0.1235061E+00
          4   -1    0    0  501    0  0.00000000000E+00  0.00000000000E+00  0.13174940549E+04  0.13174946671E+04  0.12700000000E+01 0. -1.
         -4   -1    0    0    0  501 -0.00000000000E+00 -0.00000000000E+00 -0.28285474404E+01  0.31005774660E+01  0.12700000000E+01 0. -1.
         25    2    1    2    0    0  0.00000000000E+00  0.00000000000E+00  0.13146655075E+04  0.13205952445E+04  0.12500561278E+03 0.  0.
    9000005    1    3    3    0    0 -0.41963234618E+02 -0.44444759401E+02  0.79481108054E+03  0.79715864384E+03  0.10000000000E+01 0.  0.
    9000005    1    3    3    0    0  0.41963234618E+02  0.44444759401E+02  0.51985442697E+03  0.52343660068E+03  0.10000000000E+01 0.  0.
<mgrwt>
<rscale>  0 0.12500561E+03</rscale>
<asrwt>0</asrwt>
<pdfrwt beam="1">  1        4 0.20271319E+00 0.12500561E+03</pdfrwt>
<pdfrwt beam="2">  1       -4 0.45613175E-03 0.12500561E+03</pdfrwt>
<totfact> 0.21744807E+03</totfact>
</mgrwt>
</event>
<event>
 5    1  0.3239419E-002  0.1249961E+03  0.7818608E-02  0.1235075E+00
         -4   -1    0    0    0  501 -0.00000000000E+00  0.00000000000E+00  0.48560123448E+03  0.48560289520E+03  0.12700000000E+01 0.  1.
          4   -1    0    0  501    0  0.00000000000E+00 -0.00000000000E+00 -0.79918381883E+01  0.80921182411E+01  0.12700000000E+01 0.  1.
         25    2    1    2    0    0  0.00000000000E+00  0.00000000000E+00  0.47760939629E+03  0.49369501344E+03  0.12499612343E+03 0.  0.
    9000005    1    3    3    0    0  0.49621590005E+02 -0.86226477988E+01  0.92700847382E+02  0.10550402530E+03  0.10000000000E+01 0.  0.
    9000005    1    3    3    0    0 -0.49621590005E+02  0.86226477988E+01  0.38490854891E+03  0.38819098814E+03  0.10000000000E+01 0.  0.
<mgrwt>
<rscale>  0 0.12499612E+03</rscale>
<asrwt>0</asrwt>
<pdfrwt beam="2">  1        4 0.12373546E-02 0.12499612E+03</pdfrwt>
<pdfrwt beam="1">  1       -4 0.74715759E-01 0.12499612E+03</pdfrwt>
<totfact> 0.56361682E+03</totfact>
</mgrwt>
</event>
<event>
 5    1  0.3239419E-002  0.1250100E+03  0.7818608E-02  0.1235054E+00
         -4   -1    0    0    0  501 -0.00000000000E+00  0.00000000000E+00  0.10645296496E+02  0.10720785301E+02  0.12700000000E+01 0.  1.
          4   -1    0    0  501    0  0.00000000000E+00 -0.00000000000E+00 -0.36563153306E+03  0.36563373869E+03  0.12700000000E+01 0.  1.
         25    2    1    2    0    0  0.00000000000E+00  0.00000000000E+00 -0.35498623656E+03  0.37635452399E+03  0.12500999791E+03 0.  0.
    9000005    1    3    3    0    0 -0.51352404109E+01  0.53944996851E+02 -0.83755654262E+02  0.99761931618E+02  0.10000000000E+01 0.  0.
    9000005    1    3    3    0    0  0.51352404109E+01 -0.53944996851E+02 -0.27123058230E+03  0.27659259237E+03  0.10000000000E+01 0.  0.
<mgrwt>
<rscale>  0 0.12501000E+03</rscale>
<asrwt>0</asrwt>
<pdfrwt beam="2">  1        4 0.56256972E-01 0.12501000E+03</pdfrwt>
<pdfrwt beam="1">  1       -4 0.16437147E-02 0.12501000E+03</pdfrwt>
<totfact> 0.66904553E+03</totfact>
</mgrwt>
</event>
<event>
 5    1  0.3239419E-002  0.1249791E+03  0.7818608E-02  0.1235102E+00
          4   -1    0    0  501    0  0.00000000000E+00  0.00000000000E+00  0.11499544168E+03  0.11500245436E+03  0.12700000000E+01 0. -1.
         -4   -1    0    0    0  501 -0.00000000000E+00 -0.00000000000E+00 -0.33937464087E+02  0.33961218598E+02  0.12700000000E+01 0. -1.
         25    2    1    2    0    0  0.00000000000E+00  0.00000000000E+00  0.81057977596E+02  0.14896367295E+03  0.12497911877E+03 0.  0.
    9000005    1    3    3    0    0  0.28094269371E+02  0.33071969161E+02  0.94110570766E+02  0.10363803667E+03  0.10000000000E+01 0.  0.
    9000005    1    3    3    0    0 -0.28094269371E+02 -0.33071969161E+02 -0.13052593170E+02  0.45325636280E+02  0.10000000000E+01 0.  0.
<mgrwt>
<rscale>  0 0.12497912E+03</rscale>
<asrwt>0</asrwt>
<pdfrwt beam="1">  1        4 0.17693973E-01 0.12497912E+03</pdfrwt>
<pdfrwt beam="2">  1       -4 0.52235150E-02 0.12497912E+03</pdfrwt>
<totfact> 0.99557460E+03</totfact>
</mgrwt>
</event>
<event>
 5    1  0.3239419E-002  0.1250025E+03  0.7818608E-02  0.1235065E+00
         -4   -1    0    0    0  501 -0.00000000000E+00  0.00000000000E+00  0.28631387983E+02  0.28659540782E+02  0.12700000000E+01 0. -1.
          4   -1    0    0  501    0  0.00000000000E+00 -0.00000000000E+00 -0.13633979601E+03  0.13634571088E+03  0.12700000000E+01 0. -1.
         25    2    1    2    0    0  0.00000000000E+00  0.00000000000E+00 -0.10770840803E+03  0.16500525167E+03  0.12500252764E+03 0.  0.
    9000005    1    3    3    0    0  0.18474471894E+02 -0.58212020052E+02 -0.71339429556E+02  0.93916237146E+02  0.10000000000E+01 0.  0.
    9000005    1    3    3    0    0 -0.18474471894E+02  0.58212020052E+02 -0.36368978473E+02  0.71089014520E+02  0.10000000000E+01 0.  0.
<mgrwt>
<rscale>  0 0.12500253E+03</rscale>
<asrwt>0</asrwt>
<pdfrwt beam="2">  1        4 0.20977973E-01 0.12500253E+03</pdfrwt>
<pdfrwt beam="1">  1       -4 0.44074496E-02 0.12500253E+03</pdfrwt>
<totfact> 0.96380925E+03</totfact>
</mgrwt>
</event>
<event>
 5    1  0.3239419E-002  0.1249960E+03  0.7818608E-02  0.1235076E+00
          4   -1    0    0  501    0  0.00000000000E+00  0.00000000000E+00  0.14858532317E+03  0.14859075059E+03  0.12700000000E+01 0.  1.
         -4   -1    0    0    0  501 -0.00000000000E+00 -0.00000000000E+00 -0.26266683789E+02  0.26297368258E+02  0.12700000000E+01 0.  1.
         25    2    1    2    0    0  0.00000000000E+00  0.00000000000E+00  0.12231863938E+03  0.17488811885E+03  0.12499601824E+03 0.  0.
    9000005    1    3    3    0    0  0.20092785984E+02 -0.19726817053E+02  0.13921297689E+03  0.14203563037E+03  0.10000000000E+01 0.  0.
    9000005    1    3    3    0    0 -0.20092785984E+02  0.19726817053E+02 -0.16894337508E+02  0.32852488482E+02  0.10000000000E+01 0.  0.
<mgrwt>
<rscale>  0 0.12499602E+03</rscale>
<asrwt>0</asrwt>
<pdfrwt beam="1">  1        4 0.22862058E-01 0.12499602E+03</pdfrwt>
<pdfrwt beam="2">  1       -4 0.40438061E-02 0.12499602E+03</pdfrwt>
<totfact> 0.94553781E+03</totfact>
</mgrwt>
</event>
<event>
 5    1  0.3239419E-002  0.1249997E+03  0.7818608E-02  0.1235070E+00
          4   -1    0    0  501    0  0.00000000000E+00  0.00000000000E+00  0.64529245971E+02  0.64541742195E+02  0.12700000000E+01 0. -1.
         -4   -1    0    0    0  501 -0.00000000000E+00 -0.00000000000E+00 -0.60509265618E+02  0.60522591862E+02  0.12700000000E+01 0. -1.
         25    2    1    2    0    0  0.00000000000E+00  0.00000000000E+00  0.40199803529E+01  0.12506433406E+03  0.12499970964E+03 0.  0.
    9000005    1    3    3    0    0  0.25823059857E+02  0.46153953153E+02  0.35317049826E+02  0.63602765824E+02  0.10000000000E+01 0.  0.
    9000005    1    3    3    0    0 -0.25823059857E+02 -0.46153953153E+02 -0.31297069473E+02  0.61461568233E+02  0.10000000000E+01 0.  0.
<mgrwt>
<rscale>  0 0.12499971E+03</rscale>
<asrwt>0</asrwt>
<pdfrwt beam="1">  1        4 0.99295627E-02 0.12499971E+03</pdfrwt>
<pdfrwt beam="2">  1       -4 0.93111041E-02 0.12499971E+03</pdfrwt>
<totfact> 0.10451534E+04</totfact>
</mgrwt>
</event>
<event>
 5    1  0.3239419E-002  0.1249979E+03  0.7818608E-02  0.1235073E+00
          4   -1    0    0  501    0  0.00000000000E+00  0.00000000000E+00  0.27850379017E+03  0.27850668581E+03  0.12700000000E+01 0. -1.
         -4   -1    0    0    0  501 -0.00000000000E+00 -0.00000000000E+00 -0.13993639075E+02  0.14051150649E+02  0.12700000000E+01 0. -1.
         25    2    1    2    0    0  0.00000000000E+00  0.00000000000E+00  0.26451015110E+03  0.29255783646E+03  0.12499787054E+03 0.  0.
    9000005    1    3    3    0    0  0.56765674363E+02  0.25761407327E+02  0.14249059836E+03  0.15553315567E+03  0.10000000000E+01 0.  0.
    9000005    1    3    3    0    0 -0.56765674363E+02 -0.25761407327E+02  0.12201955274E+03  0.13702468079E+03  0.10000000000E+01 0.  0.
<mgrwt>
<rscale>  0 0.12499787E+03</rscale>
<asrwt>0</asrwt>
<pdfrwt beam="1">  1        4 0.42851381E-01 0.12499787E+03</pdfrwt>
<pdfrwt beam="2">  1       -4 0.21575144E-02 0.12499787E+03</pdfrwt>
<totfact> 0.76545575E+03</totfact>
</mgrwt>
</event>
<event>
 5    1  0.3239419E-002  0.1249853E+03  0.7818608E-02  0.1235092E+00
          4   -1    0    0  501    0  0.00000000000E+00  0.00000000000E+00  0.34694478160E+02  0.34717714711E+02  0.12700000000E+01 0.  1.
         -4   -1    0    0    0  501 -0.00000000000E+00 -0.00000000000E+00 -0.11249895003E+03  0.11250611832E+03  0.12700000000E+01 0.  1.
         25    2    1    2    0    0  0.00000000000E+00  0.00000000000E+00 -0.77804471874E+02  0.14722383303E+03  0.12498528381E+03 0.  0.
    9000005    1    3    3    0    0  0.26972142901E+02  0.44213008151E+02 -0.80079985671E+02  0.95373427576E+02  0.10000000000E+01 0.  0.
    9000005    1    3    3    0    0 -0.26972142901E+02 -0.44213008151E+02  0.22755137974E+01  0.51850405452E+02  0.10000000000E+01 0.  0.
<mgrwt>
<rscale>  0 0.12498528E+03</rscale>
<asrwt>0</asrwt>
<pdfrwt beam="1">  1        4 0.53399509E-02 0.12498528E+03</pdfrwt>
<pdfrwt beam="2">  1       -4 0.17309869E-01 0.12498528E+03</pdfrwt>
<totfact> 0.99893082E+03</totfact>
</mgrwt>
</event>
<event>
 5    1  0.3239419E-002  0.1249975E+03  0.7818608E-02  0.1235073E+00
          4   -1    0    0  501    0  0.00000000000E+00  0.00000000000E+00  0.14354161999E+02  0.14410234789E+02  0.12700000000E+01 0.  1.
         -4   -1    0    0    0  501 -0.00000000000E+00 -0.00000000000E+00 -0.27153477072E+03  0.27153774067E+03  0.12700000000E+01 0.  1.
         25    2    1    2    0    0  0.00000000000E+00  0.00000000000E+00 -0.25718060872E+03  0.28594797546E+03  0.12499751665E+03 0.  0.
    9000005    1    3    3    0    0  0.22832338256E+02  0.18326979336E+02 -0.22953309402E+01  0.29384730489E+02  0.10000000000E+01 0.  0.
    9000005    1    3    3    0    0 -0.22832338256E+02 -0.18326979336E+02 -0.25488527778E+03  0.25656324497E+03  0.10000000000E+01 0.  0.
<mgrwt>
<rscale>  0 0.12499752E+03</rscale>
<asrwt>0</asrwt>
<pdfrwt beam="1">  1        4 0.22128746E-02 0.12499752E+03</pdfrwt>
<pdfrwt beam="2">  1       -4 0.41779118E-01 0.12499752E+03</pdfrwt>
<totfact> 0.77400272E+03</totfact>
</mgrwt>
</event>
<event>
 5    1  0.3239419E-002  0.1250000E+03  0.7818608E-02  0.1235069E+00
         -4   -1    0    0    0  501 -0.00000000000E+00  0.00000000000E+00  0.46925959274E+03  0.46926131130E+03  0.12700000000E+01 0. -1.
          4   -1    0    0  501    0  0.00000000000E+00 -0.00000000000E+00 -0.82740993795E+01  0.83709987780E+01  0.12700000000E+01 0. -1.
         25    2    1    2    0    0  0.00000000000E+00  0.00000000000E+00  0.46098549337E+03  0.47763231008E+03  0.12499999415E+03 0.  0.
    9000005    1    3    3    0    0 -0.15439967267E+02  0.39432305832E+02  0.54892326007E+02  0.69335898255E+02  0.10000000000E+01 0.  0.
    9000005    1    3    3    0    0  0.15439967267E+02 -0.39432305832E+02  0.40609316736E+03  0.40829641182E+03  0.10000000000E+01 0.  0.
<mgrwt>
<rscale>  0 0.12499999E+03</rscale>
<asrwt>0</asrwt>
<pdfrwt beam="2">  1        4 0.12805242E-02 0.12499999E+03</pdfrwt>
<pdfrwt beam="1">  1       -4 0.72201379E-01 0.12499999E+03</pdfrwt>
<totfact> 0.57642572E+03</totfact>
</mgrwt>
</event>
<event>
 4    1  0.3239419E-002  0.1249205E+03  0.7818608E-02  0.1235194E+00
         -4   -1    0    0    0  501 -0.00000000000E+00  0.00000000000E+00  0.11392477060E+03  0.11393184918E+03  0.12700000000E+01 0. -1.
          4   -1    0    0  501    0  0.00000000000E+00 -0.00000000000E+00 -0.34224437451E+02  0.34247992917E+02  0.12700000000E+01 0. -1.
    9000005    1    1    2    0    0  0.11196873909E+02 -0.39087329938E+02 -0.16379549880E+02  0.43846083078E+02  0.10000000000E+01 0.  0.
    9000005    1    1    2    0    0 -0.11196873909E+02  0.39087329938E+02  0.96079883033E+02  0.10433375902E+03  0.10000000000E+01 0.  0.
<mgrwt>
<rscale>  0 0.12492046E+03</rscale>
<asrwt>0</asrwt>
<pdfrwt beam="2">  1        4 0.52676544E-02 0.12492046E+03</pdfrwt>
<pdfrwt beam="1">  1       -4 0.17529245E-01 0.12492046E+03</pdfrwt>
<totfact> 0.99846413E+03</totfact>
</mgrwt>
</event>
<event>
 5    1  0.3239419E-002  0.1250007E+03  0.7818608E-02  0.1235068E+00
          4   -1    0    0  501    0  0.00000000000E+00  0.00000000000E+00  0.23308708984E+02  0.23343282000E+02  0.12700000000E+01 0.  1.
         -4   -1    0    0    0  501 -0.00000000000E+00 -0.00000000000E+00 -0.16742829797E+03  0.16743311459E+03  0.12700000000E+01 0.  1.
         25    2    1    2    0    0  0.00000000000E+00  0.00000000000E+00 -0.14411958899E+03  0.19077639659E+03  0.12500071026E+03 0.  0.
    9000005    1    3    3    0    0  0.50776226847E+02 -0.25038887642E+02 -0.31676716147E+02  0.64881318213E+02  0.10000000000E+01 0.  0.
    9000005    1    3    3    0    0 -0.50776226847E+02  0.25038887642E+02 -0.11244287284E+03  0.12589507838E+03  0.10000000000E+01 0.  0.
<mgrwt>
<rscale>  0 0.12500071E+03</rscale>
<asrwt>0</asrwt>
<pdfrwt beam="1">  1        4 0.35889853E-02 0.12500071E+03</pdfrwt>
<pdfrwt beam="2">  1       -4 0.25761229E-01 0.12500071E+03</pdfrwt>
<totfact> 0.91710941E+03</totfact>
</mgrwt>
</event>
<event>
 5    1  0.3239419E-002  0.1249986E+03  0.7818608E-02  0.1235071E+00
         -4   -1    0    0    0  501 -0.00000000000E+00  0.00000000000E+00  0.26106579457E+02  0.26137451883E+02  0.12700000000E+01 0.  1.
          4   -1    0    0  501    0  0.00000000000E+00 -0.00000000000E+00 -0.14950171579E+03  0.14950710994E+03  0.12700000000E+01 0.  1.
         25    2    1    2    0    0  0.00000000000E+00  0.00000000000E+00 -0.12339513633E+03  0.17564456183E+03  0.12499860971E+03 0.  0.
    9000005    1    3    3    0    0 -0.48548733919E+02 -0.12569922638E+02 -0.11408958720E+03  0.12462911549E+03  0.10000000000E+01 0.  0.
    9000005    1    3    3    0    0  0.48548733919E+02  0.12569922638E+02 -0.93055491291E+01  0.51015446336E+02  0.10000000000E+01 0.  0.
<mgrwt>
<rscale>  0 0.12499861E+03</rscale>
<asrwt>0</asrwt>
<pdfrwt beam="2">  1        4 0.23003053E-01 0.12499861E+03</pdfrwt>
<pdfrwt beam="1">  1       -4 0.40191867E-02 0.12499861E+03</pdfrwt>
<totfact> 0.94409867E+03</totfact>
</mgrwt>
</event>
<event>
 5    1  0.3239419E-002  0.1250000E+03  0.7818608E-02  0.1235069E+00
         -4   -1    0    0    0  501 -0.00000000000E+00  0.00000000000E+00  0.19701911996E+02  0.19742802139E+02  0.12700000000E+01 0. -1.
          4   -1    0    0  501    0  0.00000000000E+00 -0.00000000000E+00 -0.19801920241E+03  0.19802327495E+03  0.12700000000E+01 0. -1.
         25    2    1    2    0    0  0.00000000000E+00  0.00000000000E+00 -0.17831729041E+03  0.21776607709E+03  0.12500003308E+03 0.  0.
    9000005    1    3    3    0    0 -0.34338161955E+02  0.41797580880E+02 -0.14367097193E+03  0.15352034168E+03  0.10000000000E+01 0.  0.
    9000005    1    3    3    0    0  0.34338161955E+02 -0.41797580880E+02 -0.34646318477E+02  0.64245735407E+02  0.10000000000E+01 0.  0.
<mgrwt>
<rscale>  0 0.12500003E+03</rscale>
<asrwt>0</asrwt>
<pdfrwt beam="2">  1        4 0.30467950E-01 0.12500003E+03</pdfrwt>
<pdfrwt beam="1">  1       -4 0.30345222E-02 0.12500003E+03</pdfrwt>
<totfact> 0.87223014E+03</totfact>
</mgrwt>
</event>
<event>
 5    1  0.3239419E-002  0.1249940E+03  0.7818608E-02  0.1235079E+00
          4   -1    0    0  501    0  0.00000000000E+00  0.00000000000E+00  0.59042756484E+03  0.59042893071E+03  0.12700000000E+01 0.  1.
         -4   -1    0    0    0  501 -0.00000000000E+00 -0.00000000000E+00 -0.65529914891E+01  0.66749230300E+01  0.12700000000E+01 0.  1.
         25    2    1    2    0    0  0.00000000000E+00  0.00000000000E+00  0.58387457335E+03  0.59710385374E+03  0.12499397885E+03 0.  0.
    9000005    1    3    3    0    0 -0.52164215046E+01  0.50155060331E+02  0.46824465704E+03  0.47095307619E+03  0.10000000000E+01 0.  0.
    9000005    1    3    3    0    0  0.52164215046E+01 -0.50155060331E+02  0.11562991631E+03  0.12615077755E+03  0.10000000000E+01 0.  0.
<mgrwt>
<rscale>  0 0.12499398E+03</rscale>
<asrwt>0</asrwt>
<pdfrwt beam="1">  1        4 0.90844508E-01 0.12499398E+03</pdfrwt>
<pdfrwt beam="2">  1       -4 0.10176368E-02 0.12499398E+03</pdfrwt>
<totfact> 0.49057406E+03</totfact>
</mgrwt>
</event>
<event>
 5    1  0.3239419E-002  0.1250036E+03  0.7818608E-02  0.1235064E+00
         -4   -1    0    0    0  501 -0.00000000000E+00  0.00000000000E+00  0.11811801739E+02  0.11879880484E+02  0.12700000000E+01 0.  1.
          4   -1    0    0  501    0  0.00000000000E+00 -0.00000000000E+00 -0.32970693430E+03  0.32970938025E+03  0.12700000000E+01 0.  1.
         25    2    1    2    0    0  0.00000000000E+00  0.00000000000E+00 -0.31789513256E+03  0.34158926074E+03  0.12500363092E+03 0.  0.
    9000005    1    3    3    0    0 -0.34180987336E+02  0.51598274615E+02 -0.13532092509E+03  0.14880683656E+03  0.10000000000E+01 0.  0.
    9000005    1    3    3    0    0  0.34180987336E+02 -0.51598274615E+02 -0.18257420747E+03  0.19278242418E+03  0.10000000000E+01 0.  0.
<mgrwt>
<rscale>  0 0.12500363E+03</rscale>
<asrwt>0</asrwt>
<pdfrwt beam="2">  1        4 0.50729562E-01 0.12500363E+03</pdfrwt>
<pdfrwt beam="1">  1       -4 0.18226255E-02 0.12500363E+03</pdfrwt>
<totfact> 0.70654183E+03</totfact>
</mgrwt>
</event>
<event>
 5    1  0.3239419E-002  0.1249977E+03  0.7818608E-02  0.1235073E+00
         -4   -1    0    0    0  501 -0.00000000000E+00  0.00000000000E+00  0.10214684231E+02  0.10293331528E+02  0.12700000000E+01 0. -1.
          4   -1    0    0  501    0  0.00000000000E+00 -0.00000000000E+00 -0.38085476275E+03  0.38085688022E+03  0.12700000000E+01 0. -1.
         25    2    1    2    0    0  0.00000000000E+00  0.00000000000E+00 -0.37064007852E+03  0.39115021174E+03  0.12499768136E+03 0.  0.
    9000005    1    3    3    0    0  0.78855785386E+01 -0.57034359447E+02 -0.26132978922E+03  0.26759925120E+03  0.10000000000E+01 0.  0.
    9000005    1    3    3    0    0 -0.78855785386E+01  0.57034359447E+02 -0.10931028930E+03  0.12355096055E+03  0.10000000000E+01 0.  0.
<mgrwt>
<rscale>  0 0.12499768E+03</rscale>
<asrwt>0</asrwt>
<pdfrwt beam="2">  1        4 0.58599242E-01 0.12499768E+03</pdfrwt>
<pdfrwt beam="1">  1       -4 0.15777029E-02 0.12499768E+03</pdfrwt>
<totfact> 0.65426062E+03</totfact>
</mgrwt>
</event>
<event>
 5    1  0.3239419E-002  0.1250025E+03  0.7818608E-02  0.1235065E+00
         -4   -1    0    0    0  501 -0.00000000000E+00  0.00000000000E+00  0.30703037156E+02  0.30729292061E+02  0.12700000000E+01 0.  1.
          4   -1    0    0  501    0  0.00000000000E+00 -0.00000000000E+00 -0.12714820510E+03  0.12715454754E+03  0.12700000000E+01 0.  1.
         25    2    1    2    0    0  0.00000000000E+00  0.00000000000E+00 -0.96445167940E+02  0.15788383960E+03  0.12500254552E+03 0.  0.
    9000005    1    3    3    0    0  0.41752283050E+02  0.17572718116E+01  0.10465776633E+02  0.43091456516E+02  0.10000000000E+01 0.  0.
    9000005    1    3    3    0    0 -0.41752283050E+02 -0.17572718116E+01 -0.10691094457E+03  0.11479238308E+03  0.10000000000E+01 0.  0.
<mgrwt>
<rscale>  0 0.12500255E+03</rscale>
<asrwt>0</asrwt>
<pdfrwt beam="2">  1        4 0.19563770E-01 0.12500255E+03</pdfrwt>
<pdfrwt beam="1">  1       -4 0.47260517E-02 0.12500255E+03</pdfrwt>
<totfact> 0.97746728E+03</totfact>
</mgrwt>
</event>
<event>
 5    1  0.3239419E-002  0.1249935E+03  0.7818608E-02  0.1235079E+00
         -4   -1    0    0    0  501 -0.00000000000E+00  0.00000000000E+00  0.17874857599E+02  0.17919917248E+02  0.12700000000E+01 0. -1.
          4   -1    0    0  501    0  0.00000000000E+00 -0.00000000000E+00 -0.21818864532E+03  0.21819234140E+03  0.12700000000E+01 0. -1.
         25    2    1    2    0    0  0.00000000000E+00  0.00000000000E+00 -0.20031378772E+03  0.23611225865E+03  0.12499354037E+03 0.  0.
    9000005    1    3    3    0    0  0.24501178249E+02  0.57176637420E+02 -0.11139136616E+03  0.12758727232E+03  0.10000000000E+01 0.  0.
    9000005    1    3    3    0    0 -0.24501178249E+02 -0.57176637420E+02 -0.88922421558E+02  0.10852498633E+03  0.10000000000E+01 0.  0.
<mgrwt>
<rscale>  0 0.12499354E+03</rscale>
<asrwt>0</asrwt>
<pdfrwt beam="2">  1        4 0.33571232E-01 0.12499354E+03</pdfrwt>
<pdfrwt beam="1">  1       -4 0.27537287E-02 0.12499354E+03</pdfrwt>
<totfact> 0.84391963E+03</totfact>
</mgrwt>
</event>
<event>
 5    1  0.3239419E-002  0.1249976E+03  0.7818608E-02  0.1235073E+00
          4   -1    0    0  501    0  0.00000000000E+00  0.00000000000E+00  0.98576262204E+02  0.98584442840E+02  0.12700000000E+01 0. -1.
         -4   -1    0    0    0  501 -0.00000000000E+00 -0.00000000000E+00 -0.39605182820E+02  0.39625539822E+02  0.12700000000E+01 0. -1.
         25    2    1    2    0    0  0.00000000000E+00  0.00000000000E+00  0.58971079384E+02  0.13820998266E+03  0.12499764439E+03 0.  0.
    9000005    1    3    3    0    0  0.61129875932E+01 -0.62147878693E+02  0.32049080612E+02  0.70198796368E+02  0.10000000000E+01 0.  0.
    9000005    1    3    3    0    0 -0.61129875932E+01  0.62147878693E+02  0.26921998772E+02  0.68011186295E+02  0.10000000000E+01 0.  0.
<mgrwt>
<rscale>  0 0.12499764E+03</rscale>
<asrwt>0</asrwt>
<pdfrwt beam="1">  1        4 0.15167774E-01 0.12499764E+03</pdfrwt>
<pdfrwt beam="2">  1       -4 0.60953002E-02 0.12499764E+03</pdfrwt>
<totfact> 0.10171360E+04</totfact>
</mgrwt>
</event>
<event>
 5    1  0.3239419E-002  0.1250039E+03  0.7818608E-02  0.1235063E+00
         -4   -1    0    0    0  501 -0.00000000000E+00  0.00000000000E+00  0.14428018445E+03  0.14428577381E+03  0.12700000000E+01 0. -1.
          4   -1    0    0  501    0  0.00000000000E+00 -0.00000000000E+00 -0.27054721841E+02  0.27084513543E+02  0.12700000000E+01 0. -1.
         25    2    1    2    0    0  0.00000000000E+00  0.00000000000E+00  0.11722546261E+03  0.17137028735E+03  0.12500386516E+03 0.  0.
    9000005    1    3    3    0    0  0.36761927538E+02  0.48140974948E+02  0.37530015934E+02  0.71263559280E+02  0.10000000000E+01 0.  0.
    9000005    1    3    3    0    0 -0.36761927538E+02 -0.48140974948E+02  0.79695446673E+02  0.10010672807E+03  0.10000000000E+01 0.  0.
<mgrwt>
<rscale>  0 0.12500387E+03</rscale>
<asrwt>0</asrwt>
<pdfrwt beam="2">  1        4 0.41649864E-02 0.12500387E+03</pdfrwt>
<pdfrwt beam="1">  1       -4 0.22199674E-01 0.12500387E+03</pdfrwt>
<totfact> 0.95185591E+03</totfact>
</mgrwt>
</event>
<event>
 5    1  0.3239419E-002  0.1249981E+03  0.7818608E-02  0.1235072E+00
         -4   -1    0    0    0  501 -0.00000000000E+00  0.00000000000E+00  0.98881364950E+02  0.98889520346E+02  0.12700000000E+01 0.  1.
          4   -1    0    0  501    0  0.00000000000E+00 -0.00000000000E+00 -0.39483197941E+02  0.39503617805E+02  0.12700000000E+01 0.  1.
         25    2    1    2    0    0  0.00000000000E+00  0.00000000000E+00  0.59398167008E+02  0.13839313815E+03  0.12499807376E+03 0.  0.
    9000005    1    3    3    0    0 -0.63464789246E+01 -0.16838739163E+02 -0.36557969367E+02  0.40759122360E+02  0.10000000000E+01 0.  0.
    9000005    1    3    3    0    0  0.63464789246E+01  0.16838739163E+02  0.95956136375E+02  0.97634015791E+02  0.10000000000E+01 0.  0.
<mgrwt>
<rscale>  0 0.12499807E+03</rscale>
<asrwt>0</asrwt>
<pdfrwt beam="2">  1        4 0.60765363E-02 0.12499807E+03</pdfrwt>
<pdfrwt beam="1">  1       -4 0.15214716E-01 0.12499807E+03</pdfrwt>
<totfact> 0.10167439E+04</totfact>
</mgrwt>
</event>
<event>
 5    1  0.3239419E-002  0.1249990E+03  0.7818608E-02  0.1235071E+00
          4   -1    0    0  501    0  0.00000000000E+00  0.00000000000E+00  0.21469055137E+03  0.21469430767E+03  0.12700000000E+01 0. -1.
         -4   -1    0    0    0  501 -0.00000000000E+00 -0.00000000000E+00 -0.18168406710E+02  0.18212740112E+02  0.12700000000E+01 0. -1.
         25    2    1    2    0    0  0.00000000000E+00  0.00000000000E+00  0.19652214466E+03  0.23290704778E+03  0.12499895826E+03 0.  0.
    9000005    1    3    3    0    0  0.55801897690E+02 -0.28032887494E+02  0.93895157671E+02  0.11276965550E+03  0.10000000000E+01 0.  0.
    9000005    1    3    3    0    0 -0.55801897690E+02  0.28032887494E+02  0.10262698699E+03  0.12013739228E+03  0.10000000000E+01 0.  0.
<mgrwt>
<rscale>  0 0.12499896E+03</rscale>
<asrwt>0</asrwt>
<pdfrwt beam="1">  1        4 0.33033013E-01 0.12499896E+03</pdfrwt>
<pdfrwt beam="2">  1       -4 0.27988388E-02 0.12499896E+03</pdfrwt>
<totfact> 0.84867179E+03</totfact>
</mgrwt>
</event>
<event>
 5    1  0.3239419E-002  0.1249961E+03  0.7818608E-02  0.1235075E+00
          4   -1    0    0  501    0  0.00000000000E+00  0.00000000000E+00  0.16974021215E+02  0.17021465748E+02  0.12700000000E+01 0. -1.
         -4   -1    0    0    0  501 -0.00000000000E+00 -0.00000000000E+00 -0.22974635932E+03  0.22974986946E+03  0.12700000000E+01 0. -1.
         25    2    1    2    0    0  0.00000000000E+00  0.00000000000E+00 -0.21277233810E+03  0.24677133521E+03  0.12499609603E+03 0.  0.
    9000005    1    3    3    0    0  0.19881313927E+02 -0.48305354019E+02 -0.17409779500E+03  0.18176830333E+03  0.10000000000E+01 0.  0.
    9000005    1    3    3    0    0 -0.19881313927E+02  0.48305354019E+02 -0.38674543102E+02  0.65003031887E+02  0.10000000000E+01 0.  0.
<mgrwt>
<rscale>  0 0.12499610E+03</rscale>
<asrwt>0</asrwt>
<pdfrwt beam="1">  1        4 0.26153076E-02 0.12499610E+03</pdfrwt>
<pdfrwt beam="2">  1       -4 0.35349511E-01 0.12499610E+03</pdfrwt>
<totfact> 0.82806325E+03</totfact>
</mgrwt>
</event>
<event>
 5    1  0.3239419E-002  0.1250038E+03  0.7818608E-02  0.1235063E+00
          4   -1    0    0  501    0  0.00000000000E+00  0.00000000000E+00  0.86157481542E+02  0.86166841219E+02  0.12700000000E+01 0. -1.
         -4   -1    0    0    0  501 -0.00000000000E+00 -0.00000000000E+00 -0.45320511210E+02  0.45338302089E+02  0.12700000000E+01 0. -1.
         25    2    1    2    0    0  0.00000000000E+00  0.00000000000E+00  0.40836970332E+02  0.13150514331E+03  0.12500377823E+03 0.  0.
    9000005    1    3    3    0    0 -0.57492525238E+02  0.13102812790E+02  0.42193096074E+02  0.72514353872E+02  0.10000000000E+01 0.  0.
    9000005    1    3    3    0    0  0.57492525238E+02 -0.13102812790E+02 -0.13561257418E+01  0.58990789436E+02  0.10000000000E+01 0.  0.
<mgrwt>
<rscale>  0 0.12500378E+03</rscale>
<asrwt>0</asrwt>
<pdfrwt beam="1">  1        4 0.13257086E-01 0.12500378E+03</pdfrwt>
<pdfrwt beam="2">  1       -4 0.69744749E-02 0.12500378E+03</pdfrwt>
<totfact> 0.10311393E+04</totfact>
</mgrwt>
</event>
<event>
 4    1  0.3239419E-002  0.1250637E+03  0.7818608E-02  0.1234970E+00
          4   -1    0    0  501    0  0.00000000000E+00  0.00000000000E+00  0.66199676191E+03  0.66199798012E+03  0.12700000000E+01 0. -1.
         -4   -1    0    0    0  501 -0.00000000000E+00 -0.00000000000E+00 -0.58372169585E+01  0.59737761777E+01  0.12700000000E+01 0. -1.
    9000005    1    1    2    0    0 -0.25792951936E+02  0.55583480262E+02  0.26170655504E+03  0.26878638470E+03  0.10000000000E+01 0.  0.
    9000005    1    1    2    0    0  0.25792951936E+02 -0.55583480262E+02  0.39445298990E+03  0.39918537159E+03  0.10000000000E+01 0.  0.
<mgrwt>
<rscale>  0 0.12506366E+03</rscale>
<asrwt>0</asrwt>
<pdfrwt beam="1">  1        4 0.10185626E+00 0.12506366E+03</pdfrwt>
<pdfrwt beam="2">  1       -4 0.90863155E-03 0.12506366E+03</pdfrwt>
<totfact> 0.44769747E+03</totfact>
</mgrwt>
</event>
<event>
 5    1  0.3239419E-002  0.1250041E+03  0.7818608E-02  0.1235063E+00
          4   -1    0    0  501    0  0.00000000000E+00  0.00000000000E+00  0.45943311527E+02  0.45960861328E+02  0.12700000000E+01 0.  1.
         -4   -1    0    0    0  501 -0.00000000000E+00 -0.00000000000E+00 -0.84990244701E+02  0.84999732907E+02  0.12700000000E+01 0.  1.
         25    2    1    2    0    0  0.00000000000E+00  0.00000000000E+00 -0.39046933174E+02  0.13096059424E+03  0.12500405694E+03 0.  0.
    9000005    1    3    3    0    0 -0.24176417654E+02 -0.54776435787E+02 -0.38280408421E+02  0.71072827135E+02  0.10000000000E+01 0.  0.
    9000005    1    3    3    0    0  0.24176417654E+02  0.54776435787E+02 -0.76652475299E+00  0.59887767101E+02  0.10000000000E+01 0.  0.
<mgrwt>
<rscale>  0 0.12500406E+03</rscale>
<asrwt>0</asrwt>
<pdfrwt beam="1">  1        4 0.70702816E-02 0.12500406E+03</pdfrwt>
<pdfrwt beam="2">  1       -4 0.13077502E-01 0.12500406E+03</pdfrwt>
<totfact> 0.10322989E+04</totfact>
</mgrwt>
</event>
<event>
 5    1  0.3239419E-002  0.1249772E+03  0.7818608E-02  0.1235105E+00
          4   -1    0    0  501    0  0.00000000000E+00  0.00000000000E+00  0.54108787762E+01  0.55579230951E+01  0.12700000000E+01 0.  1.
         -4   -1    0    0    0  501 -0.00000000000E+00 -0.00000000000E+00 -0.71183956997E+03  0.71184070288E+03  0.12700000000E+01 0.  1.
         25    2    1    2    0    0  0.00000000000E+00  0.00000000000E+00 -0.70642869119E+03  0.71739862597E+03  0.12497716915E+03 0.  0.
    9000005    1    3    3    0    0  0.60092523305E+01  0.25908264735E+02 -0.67775225864E+03  0.67827462977E+03  0.10000000000E+01 0.  0.
    9000005    1    3    3    0    0 -0.60092523305E+01 -0.25908264735E+02 -0.28676432555E+02  0.39123996208E+02  0.10000000000E+01 0.  0.
<mgrwt>
<rscale>  0 0.12497717E+03</rscale>
<asrwt>0</asrwt>
<pdfrwt beam="1">  1        4 0.84384170E-03 0.12497717E+03</pdfrwt>
<pdfrwt beam="2">  1       -4 0.10952511E+00 0.12497717E+03</pdfrwt>
<totfact> 0.42205111E+03</totfact>
</mgrwt>
</event>
<event>
 5    1  0.3239419E-002  0.1249997E+03  0.7818608E-02  0.1235070E+00
         -4   -1    0    0    0  501 -0.00000000000E+00  0.00000000000E+00  0.44079672020E+02  0.44097963507E+02  0.12700000000E+01 0. -1.
          4   -1    0    0  501    0  0.00000000000E+00 -0.00000000000E+00 -0.88576229094E+02  0.88585333214E+02  0.12700000000E+01 0. -1.
         25    2    1    2    0    0  0.00000000000E+00  0.00000000000E+00 -0.44496557074E+02  0.13268329672E+03  0.12499965455E+03 0.  0.
    9000005    1    3    3    0    0 -0.62257955733E+02 -0.18125328699E+01 -0.16847278851E+02  0.64530373718E+02  0.10000000000E+01 0.  0.
    9000005    1    3    3    0    0  0.62257955733E+02  0.18125328699E+01 -0.27649278223E+02  0.68152923002E+02  0.10000000000E+01 0.  0.
<mgrwt>
<rscale>  0 0.12499965E+03</rscale>
<asrwt>0</asrwt>
<pdfrwt beam="2">  1        4 0.13629220E-01 0.12499965E+03</pdfrwt>
<pdfrwt beam="1">  1       -4 0.67835954E-02 0.12499965E+03</pdfrwt>
<totfact> 0.10287216E+04</totfact>
</mgrwt>
</event>
<event>
 5    1  0.3239419E-002  0.1250102E+03  0.7818608E-02  0.1235053E+00
          4   -1    0    0  501    0  0.00000000000E+00  0.00000000000E+00  0.72401774911E+01  0.73507190194E+01  0.12700000000E+01 0.  1.
         -4   -1    0    0    0  501 -0.00000000000E+00 -0.00000000000E+00 -0.53541242782E+03  0.53541393404E+03  0.12700000000E+01 0.  1.
         25    2    1    2    0    0  0.00000000000E+00  0.00000000000E+00 -0.52817225033E+03  0.54276465306E+03  0.12501016996E+03 0.  0.
    9000005    1    3    3    0    0 -0.54496295197E+02  0.95791951503E+01 -0.13792978813E+03  0.14861774330E+03  0.10000000000E+01 0.  0.
    9000005    1    3    3    0    0  0.54496295197E+02 -0.95791951503E+01 -0.39024246219E+03  0.39414690976E+03  0.10000000000E+01 0.  0.
<mgrwt>
<rscale>  0 0.12501017E+03</rscale>
<asrwt>0</asrwt>
<pdfrwt beam="1">  1        4 0.11224929E-02 0.12501017E+03</pdfrwt>
<pdfrwt beam="2">  1       -4 0.82379731E-01 0.12501017E+03</pdfrwt>
<totfact> 0.52680842E+03</totfact>
</mgrwt>
</event>
<event>
 5    1  0.3239419E-002  0.1250010E+03  0.7818608E-02  0.1235068E+00
         -4   -1    0    0    0  501 -0.00000000000E+00  0.00000000000E+00  0.31361770448E+02  0.31387474343E+02  0.12700000000E+01 0. -1.
          4   -1    0    0  501    0  0.00000000000E+00 -0.00000000000E+00 -0.12447644070E+03  0.12448291927E+03  0.12700000000E+01 0. -1.
         25    2    1    2    0    0  0.00000000000E+00  0.00000000000E+00 -0.93114670256E+02  0.15587039361E+03  0.12500095115E+03 0.  0.
    9000005    1    3    3    0    0 -0.50143158082E+02 -0.35037147649E+02 -0.30619168279E+02  0.68413971408E+02  0.10000000000E+01 0.  0.
    9000005    1    3    3    0    0  0.50143158082E+02  0.35037147649E+02 -0.62495501977E+02  0.87456422207E+02  0.10000000000E+01 0.  0.
<mgrwt>
<rscale>  0 0.12500095E+03</rscale>
<asrwt>0</asrwt>
<pdfrwt beam="2">  1        4 0.19152697E-01 0.12500095E+03</pdfrwt>
<pdfrwt beam="1">  1       -4 0.48273634E-02 0.12500095E+03</pdfrwt>
<totfact> 0.98142801E+03</totfact>
</mgrwt>
</event>
<event>
 5    1  0.3239419E-002  0.1250040E+03  0.7818608E-02  0.1235063E+00
         -4   -1    0    0    0  501 -0.00000000000E+00  0.00000000000E+00  0.83774277769E+02  0.83783903679E+02  0.12700000000E+01 0.  1.
          4   -1    0    0  501    0  0.00000000000E+00 -0.00000000000E+00 -0.46610277656E+02  0.46627576424E+02  0.12700000000E+01 0.  1.
         25    2    1    2    0    0  0.00000000000E+00  0.00000000000E+00  0.37164000113E+02  0.13041148010E+03  0.12500396489E+03 0.  0.
    9000005    1    3    3    0    0  0.17724602339E+02  0.46535674071E+02 -0.20810755740E+02  0.53979792921E+02  0.10000000000E+01 0.  0.
    9000005    1    3    3    0    0 -0.17724602339E+02 -0.46535674071E+02  0.57974755853E+02  0.76431687182E+02  0.10000000000E+01 0.  0.
<mgrwt>
<rscale>  0 0.12500396E+03</rscale>
<asrwt>0</asrwt>
<pdfrwt beam="2">  1        4 0.71728832E-02 0.12500396E+03</pdfrwt>
<pdfrwt beam="1">  1       -4 0.12890421E-01 0.12500396E+03</pdfrwt>
<totfact> 0.10334788E+04</totfact>
</mgrwt>
</event>
<event>
 5    1  0.3239419E-002  0.1249948E+03  0.7818608E-02  0.1235077E+00
          4   -1    0    0  501    0  0.00000000000E+00  0.00000000000E+00  0.23163921971E+03  0.23164270117E+03  0.12700000000E+01 0. -1.
         -4   -1    0    0    0  501 -0.00000000000E+00 -0.00000000000E+00 -0.16834571450E+02  0.16882407882E+02  0.12700000000E+01 0. -1.
         25    2    1    2    0    0  0.00000000000E+00  0.00000000000E+00  0.21480464826E+03  0.24852510906E+03  0.12499477156E+03 0.  0.
    9000005    1    3    3    0    0 -0.38506923235E+02  0.48636876091E+02  0.12236003264E+03  0.13719076660E+03  0.10000000000E+01 0.  0.
    9000005    1    3    3    0    0  0.38506923235E+02 -0.48636876091E+02  0.92444615616E+02  0.11133434245E+03  0.10000000000E+01 0.  0.
<mgrwt>
<rscale>  0 0.12499477E+03</rscale>
<asrwt>0</asrwt>
<pdfrwt beam="1">  1        4 0.35640749E-01 0.12499477E+03</pdfrwt>
<pdfrwt beam="2">  1       -4 0.25938817E-02 0.12499477E+03</pdfrwt>
<totfact> 0.82553480E+03</totfact>
</mgrwt>
</event>
<event>
 5    1  0.3239419E-002  0.1250091E+03  0.7818608E-02  0.1235055E+00
         -4   -1    0    0    0  501 -0.00000000000E+00  0.00000000000E+00  0.21023758865E+03  0.21024142451E+03  0.12700000000E+01 0. -1.
          4   -1    0    0  501    0  0.00000000000E+00 -0.00000000000E+00 -0.18557161994E+02  0.18600568843E+02  0.12700000000E+01 0. -1.
         25    2    1    2    0    0  0.00000000000E+00  0.00000000000E+00  0.19168042666E+03  0.22884199336E+03  0.12500908751E+03 0.  0.
    9000005    1    3    3    0    0  0.31930637480E+02 -0.50820523856E+02  0.12773301060E+03  0.14113473439E+03  0.10000000000E+01 0.  0.
    9000005    1    3    3    0    0 -0.31930637480E+02  0.50820523856E+02  0.63947416056E+02  0.87707258965E+02  0.10000000000E+01 0.  0.
<mgrwt>
<rscale>  0 0.12500909E+03</rscale>
<asrwt>0</asrwt>
<pdfrwt beam="2">  1        4 0.28585821E-02 0.12500909E+03</pdfrwt>
<pdfrwt beam="1">  1       -4 0.32347878E-01 0.12500909E+03</pdfrwt>
<totfact> 0.85470394E+03</totfact>
</mgrwt>
</event>
<event>
 5    1  0.3239419E-002  0.1250028E+03  0.7818608E-02  0.1235065E+00
          4   -1    0    0  501    0  0.00000000000E+00  0.00000000000E+00  0.30221654241E+03  0.30221921085E+03  0.12700000000E+01 0.  1.
         -4   -1    0    0    0  501 -0.00000000000E+00 -0.00000000000E+00 -0.12891978905E+02  0.12954382273E+02  0.12700000000E+01 0.  1.
         25    2    1    2    0    0  0.00000000000E+00  0.00000000000E+00  0.28932456350E+03  0.31517359312E+03  0.12500276299E+03 0.  0.
    9000005    1    3    3    0    0 -0.37042333151E+02 -0.40224598448E+02  0.22094124926E+03  0.22760972824E+03  0.10000000000E+01 0.  0.
    9000005    1    3    3    0    0  0.37042333151E+02  0.40224598448E+02  0.68383314241E+02  0.87563864876E+02  0.10000000000E+01 0.  0.
<mgrwt>
<rscale>  0 0.12500276E+03</rscale>
<asrwt>0</asrwt>
<pdfrwt beam="1">  1        4 0.46499857E-01 0.12500276E+03</pdfrwt>
<pdfrwt beam="2">  1       -4 0.19883870E-02 0.12500276E+03</pdfrwt>
<totfact> 0.73729345E+03</totfact>
</mgrwt>
</event>
<event>
 5    1  0.3239419E-002  0.1250053E+03  0.7818608E-02  0.1235061E+00
          4   -1    0    0  501    0  0.00000000000E+00  0.00000000000E+00  0.22943567323E+03  0.22943918813E+03  0.12700000000E+01 0. -1.
         -4   -1    0    0    0  501 -0.00000000000E+00 -0.00000000000E+00 -0.16999576298E+02  0.17046949706E+02  0.12700000000E+01 0. -1.
         25    2    1    2    0    0  0.00000000000E+00  0.00000000000E+00  0.21243609693E+03  0.24648613783E+03  0.12500528335E+03 0.  0.
    9000005    1    3    3    0    0 -0.52954055534E+02 -0.32765074735E+02  0.95803236864E+02  0.11426697823E+03  0.10000000000E+01 0.  0.
    9000005    1    3    3    0    0  0.52954055534E+02  0.32765074735E+02  0.11663286006E+03  0.13221915960E+03  0.10000000000E+01 0.  0.
<mgrwt>
<rscale>  0 0.12500528E+03</rscale>
<asrwt>0</asrwt>
<pdfrwt beam="1">  1        4 0.35301710E-01 0.12500528E+03</pdfrwt>
<pdfrwt beam="2">  1       -4 0.26192339E-02 0.12500528E+03</pdfrwt>
<totfact> 0.82831005E+03</totfact>
</mgrwt>
</event>
<event>
 5    1  0.3239419E-002  0.1250001E+03  0.7818608E-02  0.1235069E+00
         -4   -1    0    0    0  501 -0.00000000000E+00  0.00000000000E+00  0.11941307996E+04  0.11941314749E+04  0.12700000000E+01 0.  1.
          4   -1    0    0  501    0  0.00000000000E+00 -0.00000000000E+00 -0.31472474539E+01  0.33938277116E+01  0.12700000000E+01 0.  1.
         25    2    1    2    0    0  0.00000000000E+00  0.00000000000E+00  0.11909835521E+04  0.11975253026E+04  0.12500011607E+03 0.  0.
    9000005    1    3    3    0    0  0.13937019585E+02 -0.59141633966E+02  0.73540323651E+03  0.73790981404E+03  0.10000000000E+01 0.  0.
    9000005    1    3    3    0    0 -0.13937019585E+02  0.59141633966E+02  0.45558031560E+03  0.45961548858E+03  0.10000000000E+01 0.  0.
<mgrwt>
<rscale>  0 0.12500012E+03</rscale>
<asrwt>0</asrwt>
<pdfrwt beam="2">  1        4 0.50321219E-03 0.12500012E+03</pdfrwt>
<pdfrwt beam="1">  1       -4 0.18373123E+00 0.12500012E+03</pdfrwt>
<totfact> 0.24777589E+03</totfact>
</mgrwt>
</event>
<event>
 5    1  0.3239419E-002  0.1249992E+03  0.7818608E-02  0.1235071E+00
          4   -1    0    0  501    0  0.00000000000E+00  0.00000000000E+00  0.28732086636E+02  0.28760140863E+02  0.12700000000E+01 0.  1.
         -4   -1    0    0    0  501 -0.00000000000E+00 -0.00000000000E+00 -0.13585510681E+03  0.13586104279E+03  0.12700000000E+01 0.  1.
         25    2    1    2    0    0  0.00000000000E+00  0.00000000000E+00 -0.10712302018E+03  0.16462118365E+03  0.12499917062E+03 0.  0.
    9000005    1    3    3    0    0 -0.48509612711E+02  0.14449512567E+02 -0.10182884628E+03  0.11371932498E+03  0.10000000000E+01 0.  0.
    9000005    1    3    3    0    0  0.48509612711E+02 -0.14449512567E+02 -0.52941738937E+01  0.50901858670E+02  0.10000000000E+01 0.  0.
<mgrwt>
<rscale>  0 0.12499917E+03</rscale>
<asrwt>0</asrwt>
<pdfrwt beam="1">  1        4 0.44229357E-02 0.12499917E+03</pdfrwt>
<pdfrwt beam="2">  1       -4 0.20903400E-01 0.12499917E+03</pdfrwt>
<totfact> 0.96460980E+03</totfact>
</mgrwt>
</event>
<event>
 5    1  0.3239419E-002  0.1250042E+03  0.7818608E-02  0.1235063E+00
         -4   -1    0    0    0  501 -0.00000000000E+00  0.00000000000E+00  0.14170897309E+04  0.14170903000E+04  0.12700000000E+01 0.  1.
          4   -1    0    0  501    0  0.00000000000E+00 -0.00000000000E+00 -0.26098464111E+01  0.29024469486E+01  0.12700000000E+01 0.  1.
         25    2    1    2    0    0  0.00000000000E+00  0.00000000000E+00  0.14144798845E+04  0.14199927469E+04  0.12500423085E+03 0.  0.
    9000005    1    3    3    0    0 -0.53487682834E+02 -0.31003676731E+01  0.34179220135E+03  0.34596741667E+03  0.10000000000E+01 0.  0.
    9000005    1    3    3    0    0  0.53487682834E+02  0.31003676731E+01  0.10726876831E+04  0.10740253303E+04  0.10000000000E+01 0.  0.
<mgrwt>
<rscale>  0 0.12500423E+03</rscale>
<asrwt>0</asrwt>
<pdfrwt beam="2">  1        4 0.42406605E-03 0.12500423E+03</pdfrwt>
<pdfrwt beam="1">  1       -4 0.21803650E+00 0.12500423E+03</pdfrwt>
<totfact> 0.19554088E+03</totfact>
</mgrwt>
</event>
<event>
 5    1  0.3239419E-002  0.1249992E+03  0.7818608E-02  0.1235070E+00
          4   -1    0    0  501    0  0.00000000000E+00  0.00000000000E+00  0.38161483459E+02  0.38182610175E+02  0.12700000000E+01 0. -1.
         -4   -1    0    0    0  501 -0.00000000000E+00 -0.00000000000E+00 -0.10230642333E+03  0.10231430572E+03  0.12700000000E+01 0. -1.
         25    2    1    2    0    0  0.00000000000E+00  0.00000000000E+00 -0.64144939875E+02  0.14049691590E+03  0.12499924026E+03 0.  0.
    9000005    1    3    3    0    0  0.38863178459E+01 -0.61795878222E+02 -0.41567856620E+02  0.74583649251E+02  0.10000000000E+01 0.  0.
    9000005    1    3    3    0    0 -0.38863178459E+01  0.61795878222E+02 -0.22577083256E+02  0.65913266646E+02  0.10000000000E+01 0.  0.
<mgrwt>
<rscale>  0 0.12499924E+03</rscale>
<asrwt>0</asrwt>
<pdfrwt beam="1">  1        4 0.58732290E-02 0.12499924E+03</pdfrwt>
<pdfrwt beam="2">  1       -4 0.15741681E-01 0.12499924E+03</pdfrwt>
<totfact> 0.10123471E+04</totfact>
</mgrwt>
</event>
<event>
 5    1  0.3239419E-002  0.1250231E+03  0.7818608E-02  0.1235033E+00
         -4   -1    0    0    0  501 -0.00000000000E+00  0.00000000000E+00  0.51691237223E+02  0.51706836159E+02  0.12700000000E+01 0. -1.
          4   -1    0    0  501    0  0.00000000000E+00 -0.00000000000E+00 -0.75564474220E+02  0.75575145810E+02  0.12700000000E+01 0. -1.
         25    2    1    2    0    0  0.00000000000E+00  0.00000000000E+00 -0.23873236997E+02  0.12728198197E+03  0.12502308383E+03 0.  0.
    9000005    1    3    3    0    0 -0.54809976964E+02 -0.42351777538E+01  0.18343371636E+02  0.57961621685E+02  0.10000000000E+01 0.  0.
    9000005    1    3    3    0    0  0.54809976964E+02  0.42351777538E+01 -0.42216608634E+02  0.69320360284E+02  0.10000000000E+01 0.  0.
<mgrwt>
<rscale>  0 0.12502308E+03</rscale>
<asrwt>0</asrwt>
<pdfrwt beam="2">  1        4 0.11627325E-01 0.12502308E+03</pdfrwt>
<pdfrwt beam="1">  1       -4 0.79545188E-02 0.12502308E+03</pdfrwt>
<totfact> 0.10397606E+04</totfact>
</mgrwt>
</event>
<event>
 5    1  0.3239419E-002  0.1250424E+03  0.7818608E-02  0.1235003E+00
         -4   -1    0    0    0  501 -0.00000000000E+00  0.00000000000E+00  0.60321596429E+02  0.60334964123E+02  0.12700000000E+01 0.  1.
          4   -1    0    0  501    0  0.00000000000E+00 -0.00000000000E+00 -0.64774194315E+02  0.64786643293E+02  0.12700000000E+01 0.  1.
         25    2    1    2    0    0  0.00000000000E+00  0.00000000000E+00 -0.44525978860E+01  0.12512160742E+03  0.12504235688E+03 0.  0.
    9000005    1    3    3    0    0  0.47265565353E+02 -0.12842038316E+02 -0.41096074501E+02  0.63944029867E+02  0.10000000000E+01 0.  0.
    9000005    1    3    3    0    0 -0.47265565353E+02  0.12842038316E+02  0.36643476615E+02  0.61177577549E+02  0.10000000000E+01 0.  0.
<mgrwt>
<rscale>  0 0.12504236E+03</rscale>
<asrwt>0</asrwt>
<pdfrwt beam="2">  1        4 0.99672465E-02 0.12504236E+03</pdfrwt>
<pdfrwt beam="1">  1       -4 0.92822316E-02 0.12504236E+03</pdfrwt>
<totfact> 0.10440224E+04</totfact>
</mgrwt>
</event>
<event>
 5    1  0.3239419E-002  0.1250005E+03  0.7818608E-02  0.1235069E+00
          4   -1    0    0  501    0  0.00000000000E+00  0.00000000000E+00  0.26391014924E+02  0.26421555002E+02  0.12700000000E+01 0.  1.
         -4   -1    0    0    0  501 -0.00000000000E+00 -0.00000000000E+00 -0.14789659707E+03  0.14790204977E+03  0.12700000000E+01 0.  1.
         25    2    1    2    0    0  0.00000000000E+00  0.00000000000E+00 -0.12150558215E+03  0.17432360477E+03  0.12500045075E+03 0.  0.
    9000005    1    3    3    0    0 -0.59190106054E+02 -0.19981682108E+02 -0.62976221801E+02  0.88711559488E+02  0.10000000000E+01 0.  0.
    9000005    1    3    3    0    0  0.59190106054E+02  0.19981682108E+02 -0.58529360346E+02  0.85612045281E+02  0.10000000000E+01 0.  0.
<mgrwt>
<rscale>  0 0.12500045E+03</rscale>
<asrwt>0</asrwt>
<pdfrwt beam="1">  1        4 0.40629249E-02 0.12500045E+03</pdfrwt>
<pdfrwt beam="2">  1       -4 0.22756091E-01 0.12500045E+03</pdfrwt>
<totfact> 0.94647910E+03</totfact>
</mgrwt>
</event>
<event>
 5    1  0.3239419E-002  0.1250024E+03  0.7818608E-02  0.1235066E+00
          4   -1    0    0  501    0  0.00000000000E+00  0.00000000000E+00  0.17917818638E+03  0.17918268715E+03  0.12700000000E+01 0. -1.
         -4   -1    0    0    0  501 -0.00000000000E+00 -0.00000000000E+00 -0.21778493449E+02  0.21815491673E+02  0.12700000000E+01 0. -1.
         25    2    1    2    0    0  0.00000000000E+00  0.00000000000E+00  0.15739969293E+03  0.20099817882E+03  0.12500241820E+03 0.  0.
    9000005    1    3    3    0    0  0.36938599243E+02 -0.21079225207E+02  0.50736689578E+01  0.42843155416E+02  0.10000000000E+01 0.  0.
    9000005    1    3    3    0    0 -0.36938599243E+02  0.21079225207E+02  0.15232602397E+03  0.15815502341E+03  0.10000000000E+01 0.  0.
<mgrwt>
<rscale>  0 0.12500242E+03</rscale>
<asrwt>0</asrwt>
<pdfrwt beam="1">  1        4 0.27569067E-01 0.12500242E+03</pdfrwt>
<pdfrwt beam="2">  1       -4 0.33537297E-02 0.12500242E+03</pdfrwt>
<totfact> 0.89962560E+03</totfact>
</mgrwt>
</event>
<event>
 5    1  0.3239419E-002  0.1249972E+03  0.7818608E-02  0.1235074E+00
         -4   -1    0    0    0  501 -0.00000000000E+00  0.00000000000E+00  0.15573736685E+01  0.20095553596E+01  0.12700000000E+01 0.  1.
          4   -1    0    0  501    0  0.00000000000E+00 -0.00000000000E+00 -0.21897098106E+04  0.21897101789E+04  0.12700000000E+01 0.  1.
         25    2    1    2    0    0  0.00000000000E+00  0.00000000000E+00 -0.21881524369E+04  0.21917197343E+04  0.12499722498E+03 0.  0.
    9000005    1    3    3    0    0  0.35432177997E+02  0.37305455206E+02 -0.47218465058E+03  0.47498050535E+03  0.10000000000E+01 0.  0.
    9000005    1    3    3    0    0 -0.35432177997E+02 -0.37305455206E+02 -0.17159677864E+04  0.17167392289E+04  0.10000000000E+01 0.  0.
<mgrwt>
<rscale>  0 0.12499722E+03</rscale>
<asrwt>0</asrwt>
<pdfrwt beam="2">  1        4 0.33691109E+00 0.12499722E+03</pdfrwt>
<pdfrwt beam="1">  1       -4 0.27440924E-03 0.12499722E+03</pdfrwt>
<totfact> 0.75624870E+02</totfact>
</mgrwt>
</event>
<event>
 5    1  0.3239419E-002  0.1249674E+03  0.7818608E-02  0.1235120E+00
          4   -1    0    0  501    0  0.00000000000E+00  0.00000000000E+00  0.10409247346E+03  0.10410022061E+03  0.12700000000E+01 0. -1.
         -4   -1    0    0    0  501 -0.00000000000E+00 -0.00000000000E+00 -0.37487240872E+02  0.37508747356E+02  0.12700000000E+01 0. -1.
         25    2    1    2    0    0  0.00000000000E+00  0.00000000000E+00  0.66605232586E+02  0.14160896796E+03  0.12496736694E+03 0.  0.
    9000005    1    3    3    0    0 -0.43651422575E+02  0.44655586205E+02  0.35465342479E+02  0.71821713912E+02  0.10000000000E+01 0.  0.
    9000005    1    3    3    0    0  0.43651422575E+02 -0.44655586205E+02  0.31139890107E+02  0.69787254051E+02  0.10000000000E+01 0.  0.
<mgrwt>
<rscale>  0 0.12496737E+03</rscale>
<asrwt>0</asrwt>
<pdfrwt beam="1">  1        4 0.16016477E-01 0.12496737E+03</pdfrwt>
<pdfrwt beam="2">  1       -4 0.57695182E-02 0.12496737E+03</pdfrwt>
<totfact> 0.10107776E+04</totfact>
</mgrwt>
</event>
<event>
 5    1  0.3239419E-002  0.1249996E+03  0.7818608E-02  0.1235070E+00
         -4   -1    0    0    0  501 -0.00000000000E+00  0.00000000000E+00  0.17950416681E+01  0.21988803038E+01  0.12700000000E+01 0.  1.
          4   -1    0    0  501    0  0.00000000000E+00 -0.00000000000E+00 -0.19556799941E+04  0.19556804065E+04  0.12700000000E+01 0.  1.
         25    2    1    2    0    0  0.00000000000E+00  0.00000000000E+00 -0.19538849525E+04  0.19578792868E+04  0.12499957684E+03 0.  0.
    9000005    1    3    3    0    0  0.27260121188E+02  0.44574302310E+02 -0.15139010992E+04  0.15148027993E+04  0.10000000000E+01 0.  0.
    9000005    1    3    3    0    0 -0.27260121188E+02 -0.44574302310E+02 -0.43998385323E+03  0.44307648746E+03  0.10000000000E+01 0.  0.
<mgrwt>
<rscale>  0 0.12499958E+03</rscale>
<asrwt>0</asrwt>
<pdfrwt beam="2">  1        4 0.30090341E+00 0.12499958E+03</pdfrwt>
<pdfrwt beam="1">  1       -4 0.30725805E-03 0.12499958E+03</pdfrwt>
<totfact> 0.10421346E+03</totfact>
</mgrwt>
</event>
<event>
 5    1  0.3239419E-002  0.1250002E+03  0.7818608E-02  0.1235069E+00
          4   -1    0    0  501    0  0.00000000000E+00  0.00000000000E+00  0.72583147674E+03  0.72583258780E+03  0.12700000000E+01 0. -1.
         -4   -1    0    0    0  501 -0.00000000000E+00 -0.00000000000E+00 -0.53057229048E+01  0.54556022163E+01  0.12700000000E+01 0. -1.
         25    2    1    2    0    0  0.00000000000E+00  0.00000000000E+00  0.72052575383E+03  0.73128819002E+03  0.12500021973E+03 0.  0.
    9000005    1    3    3    0    0 -0.42728761261E+02  0.31517996151E+02  0.16745746925E+03  0.17567622243E+03  0.10000000000E+01 0.  0.
    9000005    1    3    3    0    0  0.42728761261E+02 -0.31517996151E+02  0.55306828458E+03  0.55561196759E+03  0.10000000000E+01 0.  0.
<mgrwt>
<rscale>  0 0.12500022E+03</rscale>
<asrwt>0</asrwt>
<pdfrwt beam="1">  1        4 0.11167800E+00 0.12500022E+03</pdfrwt>
<pdfrwt beam="2">  1       -4 0.82787971E-03 0.12500022E+03</pdfrwt>
<totfact> 0.41485311E+03</totfact>
</mgrwt>
</event>
<event>
 5    1  0.3239419E-002  0.1250052E+03  0.7818608E-02  0.1235061E+00
         -4   -1    0    0    0  501 -0.00000000000E+00  0.00000000000E+00  0.52598471764E+02  0.52613801724E+02  0.12700000000E+01 0.  1.
          4   -1    0    0  501    0  0.00000000000E+00 -0.00000000000E+00 -0.74240023174E+02  0.74250885119E+02  0.12700000000E+01 0.  1.
         25    2    1    2    0    0  0.00000000000E+00  0.00000000000E+00 -0.21641551411E+02  0.12686468684E+03  0.12500516797E+03 0.  0.
    9000005    1    3    3    0    0  0.22659944915E+02 -0.48734194367E+02  0.21545293383E+02  0.57911091089E+02  0.10000000000E+01 0.  0.
    9000005    1    3    3    0    0 -0.22659944915E+02  0.48734194367E+02 -0.43186844794E+02  0.68953595754E+02  0.10000000000E+01 0.  0.
<mgrwt>
<rscale>  0 0.12500517E+03</rscale>
<asrwt>0</asrwt>
<pdfrwt beam="2">  1        4 0.11423557E-01 0.12500517E+03</pdfrwt>
<pdfrwt beam="1">  1       -4 0.80940874E-02 0.12500517E+03</pdfrwt>
<totfact> 0.10410872E+04</totfact>
</mgrwt>
</event>
<event>
 5    1  0.3239419E-002  0.1249869E+03  0.7818608E-02  0.1235090E+00
         -4   -1    0    0    0  501 -0.00000000000E+00  0.00000000000E+00  0.17066157781E+02  0.17113346879E+02  0.12700000000E+01 0. -1.
          4   -1    0    0  501    0  0.00000000000E+00 -0.00000000000E+00 -0.22847575218E+03  0.22847928185E+03  0.12700000000E+01 0. -1.
         25    2    1    2    0    0  0.00000000000E+00  0.00000000000E+00 -0.21140959440E+03  0.24559262873E+03  0.12498689004E+03 0.  0.
    9000005    1    3    3    0    0  0.13756720834E+02  0.59555287563E+02 -0.13120001632E+03  0.14474295813E+03  0.10000000000E+01 0.  0.
    9000005    1    3    3    0    0 -0.13756720834E+02 -0.59555287563E+02 -0.80209578077E+02  0.10084967060E+03  0.10000000000E+01 0.  0.
<mgrwt>
<rscale>  0 0.12498689E+03</rscale>
<asrwt>0</asrwt>
<pdfrwt beam="2">  1        4 0.35154015E-01 0.12498689E+03</pdfrwt>
<pdfrwt beam="1">  1       -4 0.26294643E-02 0.12498689E+03</pdfrwt>
<totfact> 0.82995677E+03</totfact>
</mgrwt>
</event>
<event>
 5    1  0.3239419E-002  0.1250006E+03  0.7818608E-02  0.1235068E+00
         -4   -1    0    0    0  501 -0.00000000000E+00  0.00000000000E+00  0.20709308428E+02  0.20748213310E+02  0.12700000000E+01 0.  1.
          4   -1    0    0  501    0  0.00000000000E+00 -0.00000000000E+00 -0.18840660805E+03  0.18841088837E+03  0.12700000000E+01 0.  1.
         25    2    1    2    0    0  0.00000000000E+00  0.00000000000E+00 -0.16769729962E+03  0.20915910168E+03  0.12500058206E+03 0.  0.
    9000005    1    3    3    0    0  0.10610120563E+02 -0.49497668393E+02 -0.22535585583E+02  0.55420632009E+02  0.10000000000E+01 0.  0.
    9000005    1    3    3    0    0 -0.10610120563E+02  0.49497668393E+02 -0.14516171404E+03  0.15373846967E+03  0.10000000000E+01 0.  0.
<mgrwt>
<rscale>  0 0.12500058E+03</rscale>
<asrwt>0</asrwt>
<pdfrwt beam="2">  1        4 0.28988953E-01 0.12500058E+03</pdfrwt>
<pdfrwt beam="1">  1       -4 0.31893695E-02 0.12500058E+03</pdfrwt>
<totfact> 0.88612242E+03</totfact>
</mgrwt>
</event>
<event>
 5    1  0.3239419E-002  0.1249992E+03  0.7818608E-02  0.1235070E+00
          4   -1    0    0  501    0  0.00000000000E+00  0.00000000000E+00  0.45540523409E+03  0.45540700492E+03  0.12700000000E+01 0.  1.
         -4   -1    0    0    0  501 -0.00000000000E+00 -0.00000000000E+00 -0.85286149581E+01  0.86226546436E+01  0.12700000000E+01 0.  1.
         25    2    1    2    0    0  0.00000000000E+00  0.00000000000E+00  0.44687661913E+03  0.46402965957E+03  0.12499924894E+03 0.  0.
    9000005    1    3    3    0    0 -0.50336229008E+02 -0.29778370110E+02  0.14170823093E+03  0.15330593593E+03  0.10000000000E+01 0.  0.
    9000005    1    3    3    0    0  0.50336229008E+02  0.29778370110E+02  0.30516838820E+03  0.31072372364E+03  0.10000000000E+01 0.  0.
<mgrwt>
<rscale>  0 0.12499925E+03</rscale>
<asrwt>0</asrwt>
<pdfrwt beam="1">  1        4 0.70069710E-01 0.12499925E+03</pdfrwt>
<pdfrwt beam="2">  1       -4 0.13194647E-02 0.12499925E+03</pdfrwt>
<totfact> 0.58768358E+03</totfact>
</mgrwt>
</event>
<event>
 5    1  0.3239419E-002  0.1249904E+03  0.7818608E-02  0.1235084E+00
          4   -1    0    0  501    0  0.00000000000E+00  0.00000000000E+00  0.49928399824E+01  0.51518298778E+01  0.12700000000E+01 0. -1.
         -4   -1    0    0    0  501 -0.00000000000E+00 -0.00000000000E+00 -0.76983153554E+03  0.76983258311E+03  0.12700000000E+01 0. -1.
         25    2    1    2    0    0  0.00000000000E+00  0.00000000000E+00 -0.76483869556E+03  0.77498441298E+03  0.12499044022E+03 0.  0.
    9000005    1    3    3    0    0 -0.18346242217E+02 -0.57451344150E+02 -0.28102685637E+03  0.28742709606E+03  0.10000000000E+01 0.  0.
    9000005    1    3    3    0    0  0.18346242217E+02  0.57451344150E+02 -0.48381183919E+03  0.48755731693E+03  0.10000000000E+01 0.  0.
<mgrwt>
<rscale>  0 0.12499044E+03</rscale>
<asrwt>0</asrwt>
<pdfrwt beam="1">  1        4 0.78044041E-03 0.12499044E+03</pdfrwt>
<pdfrwt beam="2">  1       -4 0.11844784E+00 0.12499044E+03</pdfrwt>
<totfact> 0.39414417E+03</totfact>
</mgrwt>
</event>
<event>
 5    1  0.3239419E-002  0.1249986E+03  0.7818608E-02  0.1235071E+00
         -4   -1    0    0    0  501 -0.00000000000E+00  0.00000000000E+00  0.36507020182E+02  0.36529103774E+02  0.12700000000E+01 0.  1.
          4   -1    0    0  501    0  0.00000000000E+00 -0.00000000000E+00 -0.10693939141E+03  0.10694693233E+03  0.12700000000E+01 0.  1.
         25    2    1    2    0    0  0.00000000000E+00  0.00000000000E+00 -0.70432371228E+02  0.14347603611E+03  0.12499861607E+03 0.  0.
    9000005    1    3    3    0    0 -0.21943581417E+02  0.11967376614E+01 -0.10236332699E+03  0.10470054278E+03  0.10000000000E+01 0.  0.
    9000005    1    3    3    0    0  0.21943581417E+02 -0.11967376614E+01  0.31930955763E+02  0.38775493322E+02  0.10000000000E+01 0.  0.
<mgrwt>
<rscale>  0 0.12499862E+03</rscale>
<asrwt>0</asrwt>
<pdfrwt beam="2">  1        4 0.16454493E-01 0.12499862E+03</pdfrwt>
<pdfrwt beam="1">  1       -4 0.56187435E-02 0.12499862E+03</pdfrwt>
<totfact> 0.10062358E+04</totfact>
</mgrwt>
</event>
<event>
 5    1  0.3239419E-002  0.1249994E+03  0.7818608E-02  0.1235070E+00
         -4   -1    0    0    0  501 -0.00000000000E+00  0.00000000000E+00  0.24459126263E+02  0.24492075403E+02  0.12700000000E+01 0.  1.
          4   -1    0    0  501    0  0.00000000000E+00 -0.00000000000E+00 -0.15956062307E+03  0.15956567718E+03  0.12700000000E+01 0.  1.
         25    2    1    2    0    0  0.00000000000E+00  0.00000000000E+00 -0.13510149681E+03  0.18405775259E+03  0.12499936739E+03 0.  0.
    9000005    1    3    3    0    0 -0.50126348214E+02  0.25131754279E+02 -0.10816941608E+03  0.12184366390E+03  0.10000000000E+01 0.  0.
    9000005    1    3    3    0    0  0.50126348214E+02 -0.25131754279E+02 -0.26932080731E+02  0.62214088685E+02  0.10000000000E+01 0.  0.
<mgrwt>
<rscale>  0 0.12499937E+03</rscale>
<asrwt>0</asrwt>
<pdfrwt beam="2">  1        4 0.24550711E-01 0.12499937E+03</pdfrwt>
<pdfrwt beam="1">  1       -4 0.37658659E-02 0.12499937E+03</pdfrwt>
<totfact> 0.92892969E+03</totfact>
</mgrwt>
</event>
<event>
 5    1  0.3239419E-002  0.1249977E+03  0.7818608E-02  0.1235073E+00
          4   -1    0    0  501    0  0.00000000000E+00  0.00000000000E+00  0.52654413607E+03  0.52654566765E+03  0.12700000000E+01 0. -1.
         -4   -1    0    0    0  501 -0.00000000000E+00 -0.00000000000E+00 -0.73624751245E+01  0.74712073963E+01  0.12700000000E+01 0. -1.
         25    2    1    2    0    0  0.00000000000E+00  0.00000000000E+00  0.51918166094E+03  0.53401687505E+03  0.12499770310E+03 0.  0.
    9000005    1    3    3    0    0 -0.27276250886E+02 -0.10766145618E+02  0.23835755231E+02  0.37802737749E+02  0.10000000000E+01 0.  0.
    9000005    1    3    3    0    0  0.27276250886E+02  0.10766145618E+02  0.49534590571E+03  0.49621413730E+03  0.10000000000E+01 0.  0.
<mgrwt>
<rscale>  0 0.12499770E+03</rscale>
<asrwt>0</asrwt>
<pdfrwt beam="1">  1        4 0.81015297E-01 0.12499770E+03</pdfrwt>
<pdfrwt beam="2">  1       -4 0.11411700E-02 0.12499770E+03</pdfrwt>
<totfact> 0.53321085E+03</totfact>
</mgrwt>
</event>
<event>
 5    1  0.3239419E-002  0.1250126E+03  0.7818608E-02  0.1235050E+00
         -4   -1    0    0    0  501 -0.00000000000E+00  0.00000000000E+00  0.65869009456E+02  0.65881251557E+02  0.12700000000E+01 0.  1.
          4   -1    0    0  501    0  0.00000000000E+00 -0.00000000000E+00 -0.59290702388E+02  0.59304302455E+02  0.12700000000E+01 0.  1.
         25    2    1    2    0    0  0.00000000000E+00  0.00000000000E+00  0.65783070682E+01  0.12518555401E+03  0.12501259460E+03 0.  0.
    9000005    1    3    3    0    0  0.49698316179E+02 -0.13933410671E+02 -0.32001265119E+02  0.60738320138E+02  0.10000000000E+01 0.  0.
    9000005    1    3    3    0    0 -0.49698316179E+02  0.13933410671E+02  0.38579572187E+02  0.64447233875E+02  0.10000000000E+01 0.  0.
<mgrwt>
<rscale>  0 0.12501259E+03</rscale>
<asrwt>0</asrwt>
<pdfrwt beam="2">  1        4 0.91236344E-02 0.12501259E+03</pdfrwt>
<pdfrwt beam="1">  1       -4 0.10135682E-01 0.12501259E+03</pdfrwt>
<totfact> 0.10445860E+04</totfact>
</mgrwt>
</event>
<event>
 5    1  0.3239419E-002  0.1250041E+03  0.7818608E-02  0.1235063E+00
          4   -1    0    0  501    0  0.00000000000E+00  0.00000000000E+00  0.97729955630E+02  0.97738207102E+02  0.12700000000E+01 0.  1.
         -4   -1    0    0    0  501 -0.00000000000E+00 -0.00000000000E+00 -0.39952455127E+02  0.39972635273E+02  0.12700000000E+01 0.  1.
         25    2    1    2    0    0  0.00000000000E+00  0.00000000000E+00  0.57777500503E+02  0.13771084238E+03  0.12500414610E+03 0.  0.
    9000005    1    3    3    0    0 -0.13417348519E+02 -0.57474763858E+02  0.51523182792E+02  0.78351848012E+02  0.10000000000E+01 0.  0.
    9000005    1    3    3    0    0  0.13417348519E+02  0.57474763858E+02  0.62543177113E+01  0.59358994364E+02  0.10000000000E+01 0.  0.
<mgrwt>
<rscale>  0 0.12500415E+03</rscale>
<asrwt>0</asrwt>
<pdfrwt beam="1">  1        4 0.15037565E-01 0.12500415E+03</pdfrwt>
<pdfrwt beam="2">  1       -4 0.61487186E-02 0.12500415E+03</pdfrwt>
<totfact> 0.10180292E+04</totfact>
</mgrwt>
</event>
<event>
 5    1  0.3239419E-002  0.1249948E+03  0.7818608E-02  0.1235077E+00
          4   -1    0    0  501    0  0.00000000000E+00  0.00000000000E+00  0.69600410363E+01  0.70749608640E+01  0.12700000000E+01 0.  1.
         -4   -1    0    0    0  501 -0.00000000000E+00 -0.00000000000E+00 -0.55648224209E+03  0.55648369128E+03  0.12700000000E+01 0.  1.
         25    2    1    2    0    0  0.00000000000E+00  0.00000000000E+00 -0.54952220105E+03  0.56355865214E+03  0.12499481972E+03 0.  0.
    9000005    1    3    3    0    0  0.41089028073E+02  0.46330706872E+02 -0.31250574553E+03  0.31858387218E+03  0.10000000000E+01 0.  0.
    9000005    1    3    3    0    0 -0.41089028073E+02 -0.46330706872E+02 -0.23701645552E+03  0.24497477996E+03  0.10000000000E+01 0.  0.
<mgrwt>
<rscale>  0 0.12499482E+03</rscale>
<asrwt>0</asrwt>
<pdfrwt beam="1">  1        4 0.10797274E-02 0.12499482E+03</pdfrwt>
<pdfrwt beam="2">  1       -4 0.85621570E-01 0.12499482E+03</pdfrwt>
<totfact> 0.51257609E+03</totfact>
</mgrwt>
</event>
<event>
 5    1  0.3239419E-002  0.1249882E+03  0.7818608E-02  0.1235088E+00
          4   -1    0    0  501    0  0.00000000000E+00  0.00000000000E+00  0.11019544355E+03  0.11020276167E+03  0.12700000000E+01 0. -1.
         -4   -1    0    0    0  501 -0.00000000000E+00 -0.00000000000E+00 -0.35421785022E+02  0.35444544772E+02  0.12700000000E+01 0. -1.
         25    2    1    2    0    0  0.00000000000E+00  0.00000000000E+00  0.74773658529E+02  0.14564730644E+03  0.12498815089E+03 0.  0.
    9000005    1    3    3    0    0  0.58641149907E+02  0.10028579963E+02  0.15119362875E+02  0.61391791082E+02  0.10000000000E+01 0.  0.
    9000005    1    3    3    0    0 -0.58641149907E+02 -0.10028579963E+02  0.59654295653E+02  0.84255515359E+02  0.10000000000E+01 0.  0.
<mgrwt>
<rscale>  0 0.12498815E+03</rscale>
<asrwt>0</asrwt>
<pdfrwt beam="1">  1        4 0.16955459E-01 0.12498815E+03</pdfrwt>
<pdfrwt beam="2">  1       -4 0.54518191E-02 0.12498815E+03</pdfrwt>
<totfact> 0.10020526E+04</totfact>
</mgrwt>
</event>
<event>
 5    1  0.3239419E-002  0.1249996E+03  0.7818608E-02  0.1235070E+00
         -4   -1    0    0    0  501 -0.00000000000E+00  0.00000000000E+00  0.31266545814E+02  0.31292327928E+02  0.12700000000E+01 0. -1.
          4   -1    0    0  501    0  0.00000000000E+00 -0.00000000000E+00 -0.12485261989E+03  0.12485907894E+03  0.12700000000E+01 0. -1.
         25    2    1    2    0    0  0.00000000000E+00  0.00000000000E+00 -0.93586074079E+02  0.15615140687E+03  0.12499963442E+03 0.  0.
    9000005    1    3    3    0    0  0.16364997332E+02  0.25919654929E+02 -0.11482177019E+03  0.11884729934E+03  0.10000000000E+01 0.  0.
    9000005    1    3    3    0    0 -0.16364997332E+02 -0.25919654929E+02  0.21235696114E+02  0.37304107533E+02  0.10000000000E+01 0.  0.
<mgrwt>
<rscale>  0 0.12499963E+03</rscale>
<asrwt>0</asrwt>
<pdfrwt beam="2">  1        4 0.19210575E-01 0.12499963E+03</pdfrwt>
<pdfrwt beam="1">  1       -4 0.48127180E-02 0.12499963E+03</pdfrwt>
<totfact> 0.98090743E+03</totfact>
</mgrwt>
</event>
<event>
 5    1  0.3239419E-002  0.1250220E+03  0.7818608E-02  0.1235035E+00
          4   -1    0    0  501    0  0.00000000000E+00  0.00000000000E+00  0.77673292728E+02  0.77683674625E+02  0.12700000000E+01 0. -1.
         -4   -1    0    0    0  501 -0.00000000000E+00 -0.00000000000E+00 -0.50286691405E+02  0.50302725895E+02  0.12700000000E+01 0. -1.
         25    2    1    2    0    0  0.00000000000E+00  0.00000000000E+00  0.27386601323E+02  0.12798640052E+03  0.12502196921E+03 0.  0.
    9000005    1    3    3    0    0 -0.48383629097E+02 -0.34073304531E+02  0.34286381012E+02  0.68399719072E+02  0.10000000000E+01 0.  0.
    9000005    1    3    3    0    0  0.48383629097E+02  0.34073304531E+02 -0.68997796885E+01  0.59586681448E+02  0.10000000000E+01 0.  0.
<mgrwt>
<rscale>  0 0.12502197E+03</rscale>
<asrwt>0</asrwt>
<pdfrwt beam="1">  1        4 0.11951769E-01 0.12502197E+03</pdfrwt>
<pdfrwt beam="2">  1       -4 0.77384461E-02 0.12502197E+03</pdfrwt>
<totfact> 0.10382631E+04</totfact>
</mgrwt>
</event>
<event>
 5    1  0.3239419E-002  0.1249989E+03  0.7818608E-02  0.1235071E+00
         -4   -1    0    0    0  501 -0.00000000000E+00  0.00000000000E+00  0.70983796877E+02  0.70995157011E+02  0.12700000000E+01 0.  1.
          4   -1    0    0  501    0  0.00000000000E+00 -0.00000000000E+00 -0.55006107122E+02  0.55020766268E+02  0.12700000000E+01 0.  1.
         25    2    1    2    0    0  0.00000000000E+00  0.00000000000E+00  0.15977689755E+02  0.12601592328E+03  0.12499890540E+03 0.  0.
    9000005    1    3    3    0    0 -0.35110341652E+02  0.16773342587E+02  0.57285576746E+02  0.69258345458E+02  0.10000000000E+01 0.  0.
    9000005    1    3    3    0    0  0.35110341652E+02 -0.16773342587E+02 -0.41307886991E+02  0.56757577821E+02  0.10000000000E+01 0.  0.
<mgrwt>
<rscale>  0 0.12499891E+03</rscale>
<asrwt>0</asrwt>
<pdfrwt beam="2">  1        4 0.84644795E-02 0.12499891E+03</pdfrwt>
<pdfrwt beam="1">  1       -4 0.10922586E-01 0.12499891E+03</pdfrwt>
<totfact> 0.10430866E+04</totfact>
</mgrwt>
</event>
<event>
 5    1  0.3239419E-002  0.1249990E+03  0.7818608E-02  0.1235071E+00
          4   -1    0    0  501    0  0.00000000000E+00  0.00000000000E+00  0.16048706484E+02  0.16098878216E+02  0.12700000000E+01 0.  1.
         -4   -1    0    0    0  501 -0.00000000000E+00 -0.00000000000E+00 -0.24296398290E+03  0.24296730209E+03  0.12700000000E+01 0.  1.
         25    2    1    2    0    0  0.00000000000E+00  0.00000000000E+00 -0.22691527641E+03  0.25906618030E+03  0.12499897243E+03 0.  0.
    9000005    1    3    3    0    0 -0.47998315002E+02 -0.35302498452E+02 -0.74403408162E+02  0.95325609288E+02  0.10000000000E+01 0.  0.
    9000005    1    3    3    0    0  0.47998315002E+02  0.35302498452E+02 -0.15251186825E+03  0.16374057102E+03  0.10000000000E+01 0.  0.
<mgrwt>
<rscale>  0 0.12499897E+03</rscale>
<asrwt>0</asrwt>
<pdfrwt beam="1">  1        4 0.24731466E-02 0.12499897E+03</pdfrwt>
<pdfrwt beam="2">  1       -4 0.37383186E-01 0.12499897E+03</pdfrwt>
<totfact> 0.81039143E+03</totfact>
</mgrwt>
</event>
<event>
 5    1  0.3239419E-002  0.1249986E+03  0.7818608E-02  0.1235071E+00
          4   -1    0    0  501    0  0.00000000000E+00  0.00000000000E+00  0.20528132470E+03  0.20528525317E+03  0.12700000000E+01 0. -1.
         -4   -1    0    0    0  501 -0.00000000000E+00 -0.00000000000E+00 -0.19003044868E+02  0.19045435523E+02  0.12700000000E+01 0. -1.
         25    2    1    2    0    0  0.00000000000E+00  0.00000000000E+00  0.18627827983E+03  0.22433068869E+03  0.12499864141E+03 0.  0.
    9000005    1    3    3    0    0 -0.57947749369E+01  0.19457756781E+02  0.19920644429E+03  0.20024083291E+03  0.10000000000E+01 0.  0.
    9000005    1    3    3    0    0  0.57947749369E+01 -0.19457756781E+02 -0.12928164462E+02  0.24089855788E+02  0.10000000000E+01 0.  0.
<mgrwt>
<rscale>  0 0.12499864E+03</rscale>
<asrwt>0</asrwt>
<pdfrwt beam="1">  1        4 0.31585305E-01 0.12499864E+03</pdfrwt>
<pdfrwt beam="2">  1       -4 0.29271084E-02 0.12499864E+03</pdfrwt>
<totfact> 0.86190294E+03</totfact>
</mgrwt>
</event>
<event>
 5    1  0.3239419E-002  0.1250022E+03  0.7818608E-02  0.1235066E+00
          4   -1    0    0  501    0  0.00000000000E+00  0.00000000000E+00  0.18786358924E+03  0.18786788193E+03  0.12700000000E+01 0. -1.
         -4   -1    0    0    0  501 -0.00000000000E+00 -0.00000000000E+00 -0.20769803939E+02  0.20808595716E+02  0.12700000000E+01 0. -1.
         25    2    1    2    0    0  0.00000000000E+00  0.00000000000E+00  0.16709378530E+03  0.20867647765E+03  0.12500215693E+03 0.  0.
    9000005    1    3    3    0    0  0.10473053761E+02  0.20460617836E+02  0.18055891910E+03  0.18201880398E+03  0.10000000000E+01 0.  0.
    9000005    1    3    3    0    0 -0.10473053761E+02 -0.20460617836E+02 -0.13465133795E+02  0.26657673669E+02  0.10000000000E+01 0.  0.
<mgrwt>
<rscale>  0 0.12500216E+03</rscale>
<asrwt>0</asrwt>
<pdfrwt beam="1">  1        4 0.28905405E-01 0.12500216E+03</pdfrwt>
<pdfrwt beam="2">  1       -4 0.31986686E-02 0.12500216E+03</pdfrwt>
<totfact> 0.88688209E+03</totfact>
</mgrwt>
</event>
<event>
 5    1  0.3239419E-002  0.1250011E+03  0.7818608E-02  0.1235068E+00
         -4   -1    0    0    0  501 -0.00000000000E+00  0.00000000000E+00  0.41249874766E+02  0.41269420497E+02  0.12700000000E+01 0. -1.
          4   -1    0    0  501    0  0.00000000000E+00 -0.00000000000E+00 -0.94652657547E+02  0.94661177263E+02  0.12700000000E+01 0. -1.
         25    2    1    2    0    0  0.00000000000E+00  0.00000000000E+00 -0.53402782782E+02  0.13593059776E+03  0.12500108079E+03 0.  0.
    9000005    1    3    3    0    0  0.56632350828E+02 -0.23362846583E+02 -0.13282606728E+02  0.62693487718E+02  0.10000000000E+01 0.  0.
    9000005    1    3    3    0    0 -0.56632350828E+02  0.23362846583E+02 -0.40120176054E+02  0.73237110042E+02  0.10000000000E+01 0.  0.
<mgrwt>
<rscale>  0 0.12500108E+03</rscale>
<asrwt>0</asrwt>
<pdfrwt beam="2">  1        4 0.14564106E-01 0.12500108E+03</pdfrwt>
<pdfrwt beam="1">  1       -4 0.63482935E-02 0.12500108E+03</pdfrwt>
<totfact> 0.10218244E+04</totfact>
</mgrwt>
</event>
<event>
 5    1  0.3239419E-002  0.1249979E+03  0.7818608E-02  0.1235073E+00
         -4   -1    0    0    0  501 -0.00000000000E+00  0.00000000000E+00  0.90283523730E+03  0.90283613054E+03  0.12700000000E+01 0. -1.
          4   -1    0    0  501    0  0.00000000000E+00 -0.00000000000E+00 -0.42323855405E+01  0.44188219429E+01  0.12700000000E+01 0. -1.
         25    2    1    2    0    0  0.00000000000E+00  0.00000000000E+00  0.89860285176E+03  0.90725495249E+03  0.12499785445E+03 0.  0.
    9000005    1    3    3    0    0  0.66931901938E+01  0.43370517715E+02  0.12638935473E+03  0.13379487879E+03  0.10000000000E+01 0.  0.
    9000005    1    3    3    0    0 -0.66931901938E+01 -0.43370517715E+02  0.77221349703E+03  0.77346007369E+03  0.10000000000E+01 0.  0.
<mgrwt>
<rscale>  0 0.12499785E+03</rscale>
<asrwt>0</asrwt>
<pdfrwt beam="2">  1        4 0.66554742E-03 0.12499785E+03</pdfrwt>
<pdfrwt beam="1">  1       -4 0.13891189E+00 0.12499785E+03</pdfrwt>
<totfact> 0.33885285E+03</totfact>
</mgrwt>
</event>
<event>
 5    1  0.3239419E-002  0.1250006E+03  0.7818608E-02  0.1235068E+00
         -4   -1    0    0    0  501 -0.00000000000E+00  0.00000000000E+00  0.60387737208E+01  0.61708741724E+01  0.12700000000E+01 0. -1.
          4   -1    0    0  501    0  0.00000000000E+00 -0.00000000000E+00 -0.63973582445E+03  0.63973708505E+03  0.12700000000E+01 0. -1.
         25    2    1    2    0    0  0.00000000000E+00  0.00000000000E+00 -0.63369705073E+03  0.64590795922E+03  0.12500055872E+03 0.  0.
    9000005    1    3    3    0    0  0.17840960462E+01 -0.62359786801E+02 -0.33573470950E+03  0.34148311989E+03  0.10000000000E+01 0.  0.
    9000005    1    3    3    0    0 -0.17840960462E+01  0.62359786801E+02 -0.29796234123E+03  0.30442483933E+03  0.10000000000E+01 0.  0.
<mgrwt>
<rscale>  0 0.12500056E+03</rscale>
<asrwt>0</asrwt>
<pdfrwt beam="2">  1        4 0.98431102E-01 0.12500056E+03</pdfrwt>
<pdfrwt beam="1">  1       -4 0.93930116E-03 0.12500056E+03</pdfrwt>
<totfact> 0.46091653E+03</totfact>
</mgrwt>
</event>
<event>
 5    1  0.3239419E-002  0.1250107E+03  0.7818608E-02  0.1235052E+00
          4   -1    0    0  501    0  0.00000000000E+00  0.00000000000E+00  0.91795045617E+01  0.92669414587E+01  0.12700000000E+01 0.  1.
         -4   -1    0    0    0  501 -0.00000000000E+00 -0.00000000000E+00 -0.42350772528E+03  0.42350962949E+03  0.12700000000E+01 0.  1.
         25    2    1    2    0    0  0.00000000000E+00  0.00000000000E+00 -0.41432822072E+03  0.43277657095E+03  0.12501074306E+03 0.  0.
    9000005    1    3    3    0    0  0.16104883830E+02 -0.36819351823E+02 -0.37286257240E+03  0.37502337241E+03  0.10000000000E+01 0.  0.
    9000005    1    3    3    0    0 -0.16104883830E+02  0.36819351823E+02 -0.41465648314E+02  0.57753198543E+02  0.10000000000E+01 0.  0.
<mgrwt>
<rscale>  0 0.12501074E+03</rscale>
<asrwt>0</asrwt>
<pdfrwt beam="1">  1        4 0.14191042E-02 0.12501074E+03</pdfrwt>
<pdfrwt beam="2">  1       -4 0.65161892E-01 0.12501074E+03</pdfrwt>
<totfact> 0.61470563E+03</totfact>
</mgrwt>
</event>
<event>
 5    1  0.3239419E-002  0.1250054E+03  0.7818608E-02  0.1235061E+00
          4   -1    0    0  501    0  0.00000000000E+00  0.00000000000E+00  0.14542491411E+02  0.14597840814E+02  0.12700000000E+01 0. -1.
         -4   -1    0    0    0  501 -0.00000000000E+00 -0.00000000000E+00 -0.26806539351E+03  0.26806840190E+03  0.12700000000E+01 0. -1.
         25    2    1    2    0    0  0.00000000000E+00  0.00000000000E+00 -0.25352290210E+03  0.28266624271E+03  0.12500537141E+03 0.  0.
    9000005    1    3    3    0    0  0.47187927800E+02 -0.84995660504E+01 -0.21739832241E+03  0.22262518667E+03  0.10000000000E+01 0.  0.
    9000005    1    3    3    0    0 -0.47187927800E+02  0.84995660504E+01 -0.36124579685E+02  0.60041056041E+02  0.10000000000E+01 0.  0.
<mgrwt>
<rscale>  0 0.12500537E+03</rscale>
<asrwt>0</asrwt>
<pdfrwt beam="1">  1        4 0.22417956E-02 0.12500537E+03</pdfrwt>
<pdfrwt beam="2">  1       -4 0.41245315E-01 0.12500537E+03</pdfrwt>
<totfact> 0.77816616E+03</totfact>
</mgrwt>
</event>
<event>
 5    1  0.3239419E-002  0.1249959E+03  0.7818608E-02  0.1235076E+00
          4   -1    0    0  501    0  0.00000000000E+00  0.00000000000E+00  0.18403738876E+03  0.18404177070E+03  0.12700000000E+01 0. -1.
         -4   -1    0    0    0  501 -0.00000000000E+00 -0.00000000000E+00 -0.21200286842E+02  0.21238292356E+02  0.12700000000E+01 0. -1.
         25    2    1    2    0    0  0.00000000000E+00  0.00000000000E+00  0.16283710192E+03  0.20528006305E+03  0.12499593004E+03 0.  0.
    9000005    1    3    3    0    0 -0.61238290998E+02 -0.60649058486E+01  0.99264798566E+02  0.11679645372E+03  0.10000000000E+01 0.  0.
    9000005    1    3    3    0    0  0.61238290998E+02  0.60649058486E+01  0.63572303352E+02  0.88483609334E+02  0.10000000000E+01 0.  0.
<mgrwt>
<rscale>  0 0.12499593E+03</rscale>
<asrwt>0</asrwt>
<pdfrwt beam="1">  1        4 0.28316704E-01 0.12499593E+03</pdfrwt>
<pdfrwt beam="2">  1       -4 0.32648433E-02 0.12499593E+03</pdfrwt>
<totfact> 0.89260682E+03</totfact>
</mgrwt>
</event>
<event>
 5    1  0.3239419E-002  0.1250023E+03  0.7818608E-02  0.1235066E+00
          4   -1    0    0  501    0  0.00000000000E+00  0.00000000000E+00  0.43430369086E+03  0.43430554774E+03  0.12700000000E+01 0.  1.
         -4   -1    0    0    0  501 -0.00000000000E+00 -0.00000000000E+00 -0.89479016282E+01  0.90375795182E+01  0.12700000000E+01 0.  1.
         25    2    1    2    0    0  0.00000000000E+00  0.00000000000E+00  0.42535578923E+03  0.44334312725E+03  0.12500232418E+03 0.  0.
    9000005    1    3    3    0    0 -0.58154049634E+02 -0.18906958849E+02  0.16697818387E+03  0.17782598367E+03  0.10000000000E+01 0.  0.
    9000005    1    3    3    0    0  0.58154049634E+02  0.18906958849E+02  0.25837760536E+03  0.26551714358E+03  0.10000000000E+01 0.  0.
<mgrwt>
<rscale>  0 0.12500232E+03</rscale>
<asrwt>0</asrwt>
<pdfrwt beam="1">  1        4 0.66822988E-01 0.12500232E+03</pdfrwt>
<pdfrwt beam="2">  1       -4 0.13836415E-02 0.12500232E+03</pdfrwt>
<totfact> 0.60541751E+03</totfact>
</mgrwt>
</event>
<event>
 5    1  0.3239419E-002  0.1249960E+03  0.7818608E-02  0.1235076E+00
         -4   -1    0    0    0  501 -0.00000000000E+00  0.00000000000E+00  0.31406555199E+02  0.31432222471E+02  0.12700000000E+01 0. -1.
          4   -1    0    0  501    0  0.00000000000E+00 -0.00000000000E+00 -0.12428916207E+03  0.12429565040E+03  0.12700000000E+01 0. -1.
         25    2    1    2    0    0  0.00000000000E+00  0.00000000000E+00 -0.92882606868E+02  0.15572787287E+03  0.12499596685E+03 0.  0.
    9000005    1    3    3    0    0  0.41980289064E+02 -0.36025434022E+02 -0.10229279754E+02  0.56265573228E+02  0.10000000000E+01 0.  0.
    9000005    1    3    3    0    0 -0.41980289064E+02  0.36025434022E+02 -0.82653327114E+02  0.99462299639E+02  0.10000000000E+01 0.  0.
<mgrwt>
<rscale>  0 0.12499597E+03</rscale>
<asrwt>0</asrwt>
<pdfrwt beam="2">  1        4 0.19123883E-01 0.12499597E+03</pdfrwt>
<pdfrwt beam="1">  1       -4 0.48342513E-02 0.12499597E+03</pdfrwt>
<totfact> 0.98181702E+03</totfact>
</mgrwt>
</event>
<event>
 5    1  0.3239419E-002  0.1249992E+03  0.7818608E-02  0.1235071E+00
         -4   -1    0    0    0  501 -0.00000000000E+00  0.00000000000E+00  0.32644297919E+03  0.32644544959E+03  0.12700000000E+01 0.  1.
          4   -1    0    0  501    0  0.00000000000E+00 -0.00000000000E+00 -0.11929730670E+02  0.11997140237E+02  0.12700000000E+01 0.  1.
         25    2    1    2    0    0  0.00000000000E+00  0.00000000000E+00  0.31451324852E+03  0.33844258983E+03  0.12499921247E+03 0.  0.
    9000005    1    3    3    0    0  0.10566669648E+02  0.66730728223E+01  0.32303825270E+03  0.32328145186E+03  0.10000000000E+01 0.  0.
    9000005    1    3    3    0    0 -0.10566669648E+02 -0.66730728223E+01 -0.85250041824E+01  0.15161137973E+02  0.10000000000E+01 0.  0.
<mgrwt>
<rscale>  0 0.12499921E+03</rscale>
<asrwt>0</asrwt>
<pdfrwt beam="2">  1        4 0.18407183E-02 0.12499921E+03</pdfrwt>
<pdfrwt beam="1">  1       -4 0.50227379E-01 0.12499921E+03</pdfrwt>
<totfact> 0.71016242E+03</totfact>
</mgrwt>
</event>
<event>
 5    1  0.3239419E-002  0.1250162E+03  0.7818608E-02  0.1235044E+00
          4   -1    0    0  501    0  0.00000000000E+00  0.00000000000E+00  0.32968373208E+02  0.32992825462E+02  0.12700000000E+01 0. -1.
         -4   -1    0    0    0  501 -0.00000000000E+00 -0.00000000000E+00 -0.11844363555E+03  0.11845044407E+03  0.12700000000E+01 0. -1.
         25    2    1    2    0    0  0.00000000000E+00  0.00000000000E+00 -0.85475262338E+02  0.15144326954E+03  0.12501617262E+03 0.  0.
    9000005    1    3    3    0    0 -0.47588438393E+01  0.45891886854E+02 -0.93811007227E+02  0.10454767788E+03  0.10000000000E+01 0.  0.
    9000005    1    3    3    0    0  0.47588438393E+01 -0.45891886854E+02  0.83357448893E+01  0.46895591654E+02  0.10000000000E+01 0.  0.
<mgrwt>
<rscale>  0 0.12501617E+03</rscale>
<asrwt>0</asrwt>
<pdfrwt beam="1">  1        4 0.50744621E-02 0.12501617E+03</pdfrwt>
<pdfrwt beam="2">  1       -4 0.18224502E-01 0.12501617E+03</pdfrwt>
<totfact> 0.98980753E+03</totfact>
</mgrwt>
</event>
<event>
 5    1  0.3239419E-002  0.1250052E+03  0.7818608E-02  0.1235061E+00
          4   -1    0    0  501    0  0.00000000000E+00  0.00000000000E+00  0.66576970749E+02  0.66589082695E+02  0.12700000000E+01 0. -1.
         -4   -1    0    0    0  501 -0.00000000000E+00 -0.00000000000E+00 -0.58653288718E+02  0.58667036549E+02  0.12700000000E+01 0. -1.
         25    2    1    2    0    0  0.00000000000E+00  0.00000000000E+00  0.79236820317E+01  0.12525611924E+03  0.12500524257E+03 0.  0.
    9000005    1    3    3    0    0  0.21647418738E+02  0.40797689139E+02  0.46147588088E+02  0.65296723222E+02  0.10000000000E+01 0.  0.
    9000005    1    3    3    0    0 -0.21647418738E+02 -0.40797689139E+02 -0.38223906056E+02  0.59959396022E+02  0.10000000000E+01 0.  0.
<mgrwt>
<rscale>  0 0.12500524E+03</rscale>
<asrwt>0</asrwt>
<pdfrwt beam="1">  1        4 0.10244600E-01 0.12500524E+03</pdfrwt>
<pdfrwt beam="2">  1       -4 0.90255721E-02 0.12500524E+03</pdfrwt>
<totfact> 0.10446065E+04</totfact>
</mgrwt>
</event>
<event>
 5    1  0.3239419E-002  0.1249467E+03  0.7818608E-02  0.1235153E+00
          4   -1    0    0  501    0  0.00000000000E+00  0.00000000000E+00  0.35807970247E+03  0.35808195462E+03  0.12700000000E+01 0.  1.
         -4   -1    0    0    0  501 -0.00000000000E+00 -0.00000000000E+00 -0.10860298647E+02  0.10934303211E+02  0.12700000000E+01 0.  1.
         25    2    1    2    0    0  0.00000000000E+00  0.00000000000E+00  0.34721940383E+03  0.36901625783E+03  0.12494672524E+03 0.  0.
    9000005    1    3    3    0    0 -0.16020394710E+02  0.58142779001E+02  0.12556057675E+03  0.13929714366E+03  0.10000000000E+01 0.  0.
    9000005    1    3    3    0    0  0.16020394710E+02 -0.58142779001E+02  0.22165882707E+03  0.22971911417E+03  0.10000000000E+01 0.  0.
<mgrwt>
<rscale>  0 0.12494673E+03</rscale>
<asrwt>0</asrwt>
<pdfrwt beam="1">  1        4 0.55095052E-01 0.12494673E+03</pdfrwt>
<pdfrwt beam="2">  1       -4 0.16766810E-02 0.12494673E+03</pdfrwt>
<totfact> 0.67761759E+03</totfact>
</mgrwt>
</event>
<event>
 5    1  0.3239419E-002  0.1250243E+03  0.7818608E-02  0.1235031E+00
          4   -1    0    0  501    0  0.00000000000E+00  0.00000000000E+00  0.25340811561E+01  0.28345135925E+01  0.12700000000E+01 0.  1.
         -4   -1    0    0    0  501 -0.00000000000E+00 -0.00000000000E+00 -0.14554878300E+04  0.14554883840E+04  0.12700000000E+01 0.  1.
         25    2    1    2    0    0  0.00000000000E+00  0.00000000000E+00 -0.14529537488E+04  0.14583228976E+04  0.12502430797E+03 0.  0.
    9000005    1    3    3    0    0 -0.19824362904E+02 -0.33980045796E+02 -0.12930217289E+04  0.12936204390E+04  0.10000000000E+01 0.  0.
    9000005    1    3    3    0    0  0.19824362904E+02  0.33980045796E+02 -0.15993201993E+03  0.16470245862E+03  0.10000000000E+01 0.  0.
<mgrwt>
<rscale>  0 0.12502431E+03</rscale>
<asrwt>0</asrwt>
<pdfrwt beam="1">  1        4 0.41301261E-03 0.12502431E+03</pdfrwt>
<pdfrwt beam="2">  1       -4 0.22394373E+00 0.12502431E+03</pdfrwt>
<totfact> 0.18753029E+03</totfact>
</mgrwt>
</event>
<event>
 5    1  0.3239419E-002  0.1249969E+03  0.7818608E-02  0.1235074E+00
          4   -1    0    0  501    0  0.00000000000E+00  0.00000000000E+00  0.15652544120E+02  0.15703981578E+02  0.12700000000E+01 0. -1.
         -4   -1    0    0    0  501 -0.00000000000E+00 -0.00000000000E+00 -0.24908535067E+03  0.24908858830E+03  0.12700000000E+01 0. -1.
         25    2    1    2    0    0  0.00000000000E+00  0.00000000000E+00 -0.23343280655E+03  0.26479256988E+03  0.12499691951E+03 0.  0.
    9000005    1    3    3    0    0  0.40500504027E+02 -0.41827605702E+02 -0.16480056151E+03  0.17478576744E+03  0.10000000000E+01 0.  0.
    9000005    1    3    3    0    0 -0.40500504027E+02  0.41827605702E+02 -0.68632245043E+02  0.90006802436E+02  0.10000000000E+01 0.  0.
<mgrwt>
<rscale>  0 0.12499692E+03</rscale>
<asrwt>0</asrwt>
<pdfrwt beam="1">  1        4 0.24122897E-02 0.12499692E+03</pdfrwt>
<pdfrwt beam="2">  1       -4 0.38325026E-01 0.12499692E+03</pdfrwt>
<totfact> 0.80243663E+03</totfact>
</mgrwt>
</event>
<event>
 5    1  0.3239419E-002  0.1249943E+03  0.7818608E-02  0.1235078E+00
         -4   -1    0    0    0  501 -0.00000000000E+00  0.00000000000E+00  0.38879965004E+02  0.38900701520E+02  0.12700000000E+01 0. -1.
          4   -1    0    0  501    0  0.00000000000E+00 -0.00000000000E+00 -0.10040882768E+03  0.10041685903E+03  0.12700000000E+01 0. -1.
         25    2    1    2    0    0  0.00000000000E+00  0.00000000000E+00 -0.61528862679E+02  0.13931756055E+03  0.12499432681E+03 0.  0.
    9000005    1    3    3    0    0 -0.35815517710E+02  0.32964233116E+02  0.12911377764E+02  0.50369590524E+02  0.10000000000E+01 0.  0.
    9000005    1    3    3    0    0  0.35815517710E+02 -0.32964233116E+02 -0.74440240444E+02  0.88947970022E+02  0.10000000000E+01 0.  0.
<mgrwt>
<rscale>  0 0.12499433E+03</rscale>
<asrwt>0</asrwt>
<pdfrwt beam="2">  1        4 0.15449725E-01 0.12499433E+03</pdfrwt>
<pdfrwt beam="1">  1       -4 0.59837460E-02 0.12499433E+03</pdfrwt>
<totfact> 0.10149046E+04</totfact>
</mgrwt>
</event>
<event>
 5    1  0.3239419E-002  0.1249990E+03  0.7818608E-02  0.1235071E+00
          4   -1    0    0  501    0  0.00000000000E+00  0.00000000000E+00  0.10433793009E+02  0.10510800948E+02  0.12700000000E+01 0. -1.
         -4   -1    0    0    0  501 -0.00000000000E+00 -0.00000000000E+00 -0.37292406708E+03  0.37292622958E+03  0.12700000000E+01 0. -1.
         25    2    1    2    0    0  0.00000000000E+00  0.00000000000E+00 -0.36249027407E+03  0.38343703053E+03  0.12499903033E+03 0.  0.
    9000005    1    3    3    0    0 -0.43400255800E+02 -0.44961334851E+02 -0.18214240958E+03  0.19256677077E+03  0.10000000000E+01 0.  0.
    9000005    1    3    3    0    0  0.43400255800E+02  0.44961334851E+02 -0.18034786449E+03  0.19087025976E+03  0.10000000000E+01 0.  0.
<mgrwt>
<rscale>  0 0.12499903E+03</rscale>
<asrwt>0</asrwt>
<pdfrwt beam="1">  1        4 0.16112892E-02 0.12499903E+03</pdfrwt>
<pdfrwt beam="2">  1       -4 0.57379013E-01 0.12499903E+03</pdfrwt>
<totfact> 0.66197628E+03</totfact>
</mgrwt>
</event>
<event>
 5    1  0.3239419E-002  0.1249892E+03  0.7818608E-02  0.1235086E+00
         -4   -1    0    0    0  501 -0.00000000000E+00  0.00000000000E+00  0.18694959321E+03  0.18695390689E+03  0.12700000000E+01 0. -1.
          4   -1    0    0  501    0  0.00000000000E+00 -0.00000000000E+00 -0.20867185176E+02  0.20905796258E+02  0.12700000000E+01 0. -1.
         25    2    1    2    0    0  0.00000000000E+00  0.00000000000E+00  0.16608240803E+03  0.20785970314E+03  0.12498915927E+03 0.  0.
    9000005    1    3    3    0    0 -0.29921937448E+02  0.54804253963E+02  0.79055536867E+02  0.10074525548E+03  0.10000000000E+01 0.  0.
    9000005    1    3    3    0    0  0.29921937448E+02 -0.54804253963E+02  0.87026871163E+02  0.10711444766E+03  0.10000000000E+01 0.  0.
<mgrwt>
<rscale>  0 0.12498916E+03</rscale>
<asrwt>0</asrwt>
<pdfrwt beam="2">  1        4 0.32136382E-02 0.12498916E+03</pdfrwt>
<pdfrwt beam="1">  1       -4 0.28764777E-01 0.12498916E+03</pdfrwt>
<totfact> 0.88848153E+03</totfact>
</mgrwt>
</event>
<event>
 5    1  0.3239419E-002  0.1249995E+03  0.7818608E-02  0.1235070E+00
          4   -1    0    0  501    0  0.00000000000E+00  0.00000000000E+00  0.44452484356E+02  0.44470622499E+02  0.12700000000E+01 0. -1.
         -4   -1    0    0    0  501 -0.00000000000E+00 -0.00000000000E+00 -0.87833329103E+02  0.87842510217E+02  0.12700000000E+01 0. -1.
         25    2    1    2    0    0  0.00000000000E+00  0.00000000000E+00 -0.43380844746E+02  0.13231313272E+03  0.12499946959E+03 0.  0.
    9000005    1    3    3    0    0  0.12113648610E+02 -0.45922610145E+02 -0.64681944504E+02  0.80251981595E+02  0.10000000000E+01 0.  0.
    9000005    1    3    3    0    0 -0.12113648610E+02  0.45922610145E+02  0.21301099757E+02  0.52061151121E+02  0.10000000000E+01 0.  0.
<mgrwt>
<rscale>  0 0.12499947E+03</rscale>
<asrwt>0</asrwt>
<pdfrwt beam="1">  1        4 0.68409453E-02 0.12499947E+03</pdfrwt>
<pdfrwt beam="2">  1       -4 0.13514921E-01 0.12499947E+03</pdfrwt>
<totfact> 0.10295143E+04</totfact>
</mgrwt>
</event>
<event>
 5    1  0.3239419E-002  0.1249994E+03  0.7818608E-02  0.1235070E+00
          4   -1    0    0  501    0  0.00000000000E+00  0.00000000000E+00  0.10873457441E+02  0.10947373051E+02  0.12700000000E+01 0.  1.
         -4   -1    0    0    0  501 -0.00000000000E+00 -0.00000000000E+00 -0.35795078529E+03  0.35795303825E+03  0.12700000000E+01 0.  1.
         25    2    1    2    0    0  0.00000000000E+00  0.00000000000E+00 -0.34707732785E+03  0.36890041130E+03  0.12499936779E+03 0.  0.
    9000005    1    3    3    0    0  0.78489646320E+01 -0.41988162127E+02 -0.30815428575E+03  0.31110235588E+03  0.10000000000E+01 0.  0.
    9000005    1    3    3    0    0 -0.78489646320E+01  0.41988162127E+02 -0.38923042102E+02  0.57798055426E+02  0.10000000000E+01 0.  0.
<mgrwt>
<rscale>  0 0.12499937E+03</rscale>
<asrwt>0</asrwt>
<pdfrwt beam="1">  1        4 0.16786990E-02 0.12499937E+03</pdfrwt>
<pdfrwt beam="2">  1       -4 0.55075202E-01 0.12499937E+03</pdfrwt>
<totfact> 0.67695082E+03</totfact>
</mgrwt>
</event>
<event>
 5    1  0.3239419E-002  0.1250059E+03  0.7818608E-02  0.1235060E+00
         -4   -1    0    0    0  501 -0.00000000000E+00  0.00000000000E+00  0.27322481619E+02  0.27351981680E+02  0.12700000000E+01 0. -1.
          4   -1    0    0  501    0  0.00000000000E+00 -0.00000000000E+00 -0.14287237419E+03  0.14287801862E+03  0.12700000000E+01 0. -1.
         25    2    1    2    0    0  0.00000000000E+00  0.00000000000E+00 -0.11554989257E+03  0.17023000030E+03  0.12500590118E+03 0.  0.
    9000005    1    3    3    0    0  0.15773092450E+02 -0.55436228697E+02 -0.90673963269E+02  0.10744642159E+03  0.10000000000E+01 0.  0.
    9000005    1    3    3    0    0 -0.15773092450E+02  0.55436228697E+02 -0.24875929300E+02  0.62783578714E+02  0.10000000000E+01 0.  0.
<mgrwt>
<rscale>  0 0.12500590E+03</rscale>
<asrwt>0</asrwt>
<pdfrwt beam="2">  1        4 0.21983068E-01 0.12500590E+03</pdfrwt>
<pdfrwt beam="1">  1       -4 0.42061622E-02 0.12500590E+03</pdfrwt>
<totfact> 0.95393150E+03</totfact>
</mgrwt>
</event>
<event>
 5    1  0.3239419E-002  0.1249712E+03  0.7818608E-02  0.1235114E+00
          4   -1    0    0  501    0  0.00000000000E+00  0.00000000000E+00  0.53094614386E+02  0.53109801137E+02  0.12700000000E+01 0.  1.
         -4   -1    0    0    0  501 -0.00000000000E+00 -0.00000000000E+00 -0.73506403563E+02  0.73517373898E+02  0.12700000000E+01 0.  1.
         25    2    1    2    0    0  0.00000000000E+00  0.00000000000E+00 -0.20411789177E+02  0.12662717503E+03  0.12497119796E+03 0.  0.
    9000005    1    3    3    0    0 -0.31610443095E+02 -0.52543687775E+02 -0.22339159869E+02  0.65269420875E+02  0.10000000000E+01 0.  0.
    9000005    1    3    3    0    0  0.31610443095E+02  0.52543687775E+02  0.19273706917E+01  0.61357754160E+02  0.10000000000E+01 0.  0.
<mgrwt>
<rscale>  0 0.12497120E+03</rscale>
<asrwt>0</asrwt>
<pdfrwt beam="1">  1        4 0.81704143E-02 0.12497120E+03</pdfrwt>
<pdfrwt beam="2">  1       -4 0.11310690E-01 0.12497120E+03</pdfrwt>
<totfact> 0.10424032E+04</totfact>
</mgrwt>
</event>
<event>
 5    1  0.3239419E-002  0.1250002E+03  0.7818608E-02  0.1235069E+00
         -4   -1    0    0    0  501 -0.00000000000E+00  0.00000000000E+00  0.17640058602E+01  0.21736183370E+01  0.12700000000E+01 0.  1.
          4   -1    0    0  501    0  0.00000000000E+00 -0.00000000000E+00 -0.19836603126E+04  0.19836607191E+04  0.12700000000E+01 0.  1.
         25    2    1    2    0    0  0.00000000000E+00  0.00000000000E+00 -0.19818963067E+04  0.19858343375E+04  0.12500018104E+03 0.  0.
    9000005    1    3    3    0    0 -0.36262692332E+02  0.11784569501E+02 -0.20437399234E+03  0.20790283230E+03  0.10000000000E+01 0.  0.
    9000005    1    3    3    0    0  0.36262692332E+02 -0.11784569501E+02 -0.17775223144E+04  0.17779315052E+04  0.10000000000E+01 0.  0.
<mgrwt>
<rscale>  0 0.12500018E+03</rscale>
<asrwt>0</asrwt>
<pdfrwt beam="2">  1        4 0.30520845E+00 0.12500018E+03</pdfrwt>
<pdfrwt beam="1">  1       -4 0.30292703E-03 0.12500018E+03</pdfrwt>
<totfact> 0.10047369E+03</totfact>
</mgrwt>
</event>
<event>
 5    1  0.3239419E-002  0.1249869E+03  0.7818608E-02  0.1235090E+00
         -4   -1    0    0    0  501 -0.00000000000E+00  0.00000000000E+00  0.12045362298E+03  0.12046031790E+03  0.12700000000E+01 0.  1.
          4   -1    0    0  501    0  0.00000000000E+00 -0.00000000000E+00 -0.32402652308E+02  0.32427531151E+02  0.12700000000E+01 0.  1.
         25    2    1    2    0    0  0.00000000000E+00  0.00000000000E+00  0.88050970675E+02  0.15288784906E+03  0.12498688312E+03 0.  0.
    9000005    1    3    3    0    0 -0.30316187013E+00  0.46964204532E+02 -0.63903664750E+01  0.47408492890E+02  0.10000000000E+01 0.  0.
    9000005    1    3    3    0    0  0.30316187013E+00 -0.46964204532E+02  0.94441337150E+02  0.10547935617E+03  0.10000000000E+01 0.  0.
<mgrwt>
<rscale>  0 0.12498688E+03</rscale>
<asrwt>0</asrwt>
<pdfrwt beam="2">  1        4 0.49874522E-02 0.12498688E+03</pdfrwt>
<pdfrwt beam="1">  1       -4 0.18533755E-01 0.12498688E+03</pdfrwt>
<totfact> 0.98760275E+03</totfact>
</mgrwt>
</event>
<event>
 5    1  0.3239419E-002  0.1249991E+03  0.7818608E-02  0.1235071E+00
         -4   -1    0    0    0  501 -0.00000000000E+00  0.00000000000E+00  0.32989240969E+03  0.32989485427E+03  0.12700000000E+01 0. -1.
          4   -1    0    0  501    0  0.00000000000E+00 -0.00000000000E+00 -0.11804267819E+02  0.11872389765E+02  0.12700000000E+01 0. -1.
         25    2    1    2    0    0  0.00000000000E+00  0.00000000000E+00  0.31808814187E+03  0.34176724403E+03  0.12499913237E+03 0.  0.
    9000005    1    3    3    0    0 -0.41662486738E+02 -0.23852764593E+02  0.49661438083E+02  0.69079487639E+02  0.10000000000E+01 0.  0.
    9000005    1    3    3    0    0  0.41662486738E+02  0.23852764593E+02  0.26842670379E+03  0.27268775639E+03  0.10000000000E+01 0.  0.
<mgrwt>
<rscale>  0 0.12499913E+03</rscale>
<asrwt>0</asrwt>
<pdfrwt beam="2">  1        4 0.18214696E-02 0.12499913E+03</pdfrwt>
<pdfrwt beam="1">  1       -4 0.50758101E-01 0.12499913E+03</pdfrwt>
<totfact> 0.70641216E+03</totfact>
</mgrwt>
</event>
<event>
 4    1  0.3239419E-002  0.1250640E+03  0.7818608E-02  0.1234969E+00
         -4   -1    0    0    0  501 -0.00000000000E+00  0.00000000000E+00  0.20473734302E+02  0.20513085976E+02  0.12700000000E+01 0.  1.
          4   -1    0    0  501    0  0.00000000000E+00 -0.00000000000E+00 -0.19076384269E+03  0.19076807012E+03  0.12700000000E+01 0.  1.
    9000005    1    1    2    0    0 -0.21872268076E+02  0.46310535746E+02 -0.14573226070E+03  0.15447314861E+03  0.10000000000E+01 0.  0.
    9000005    1    1    2    0    0  0.21872268076E+02 -0.46310535746E+02 -0.24557847687E+02  0.56808007489E+02  0.10000000000E+01 0.  0.
<mgrwt>
<rscale>  0 0.12506401E+03</rscale>
<asrwt>0</asrwt>
<pdfrwt beam="2">  1        4 0.29351635E-01 0.12506401E+03</pdfrwt>
<pdfrwt beam="1">  1       -4 0.31531576E-02 0.12506401E+03</pdfrwt>
<totfact> 0.88140903E+03</totfact>
</mgrwt>
</event>
<event>
 5    1  0.3239419E-002  0.1250003E+03  0.7818608E-02  0.1235069E+00
         -4   -1    0    0    0  501 -0.00000000000E+00  0.00000000000E+00  0.48671554724E+02  0.48688121131E+02  0.12700000000E+01 0. -1.
          4   -1    0    0  501    0  0.00000000000E+00 -0.00000000000E+00 -0.80222518344E+02  0.80232570378E+02  0.12700000000E+01 0. -1.
         25    2    1    2    0    0  0.00000000000E+00  0.00000000000E+00 -0.31550963619E+02  0.12892069151E+03  0.12500032557E+03 0.  0.
    9000005    1    3    3    0    0  0.40254777352E+02 -0.23837790461E+02  0.26955599729E+02  0.54002700955E+02  0.10000000000E+01 0.  0.
    9000005    1    3    3    0    0 -0.40254777352E+02  0.23837790461E+02 -0.58506563349E+02  0.74917990554E+02  0.10000000000E+01 0.  0.
<mgrwt>
<rscale>  0 0.12500033E+03</rscale>
<asrwt>0</asrwt>
<pdfrwt beam="2">  1        4 0.12343973E-01 0.12500033E+03</pdfrwt>
<pdfrwt beam="1">  1       -4 0.74899791E-02 0.12500033E+03</pdfrwt>
<totfact> 0.10367575E+04</totfact>
</mgrwt>
</event>
<event>
 5    1  0.3239419E-002  0.1250101E+03  0.7818608E-02  0.1235054E+00
          4   -1    0    0  501    0  0.00000000000E+00  0.00000000000E+00  0.41097439378E+02  0.41117057572E+02  0.12700000000E+01 0. -1.
         -4   -1    0    0    0  501 -0.00000000000E+00 -0.00000000000E+00 -0.95017242075E+02  0.95025729103E+02  0.12700000000E+01 0. -1.
         25    2    1    2    0    0  0.00000000000E+00  0.00000000000E+00 -0.53919802697E+02  0.13614278667E+03  0.12501005256E+03 0.  0.
    9000005    1    3    3    0    0  0.61256720343E+00  0.61372974902E+02 -0.14126556080E+02  0.62988704333E+02  0.10000000000E+01 0.  0.
    9000005    1    3    3    0    0 -0.61256720343E+00 -0.61372974902E+02 -0.39793246618E+02  0.73154082342E+02  0.10000000000E+01 0.  0.
<mgrwt>
<rscale>  0 0.12501005E+03</rscale>
<asrwt>0</asrwt>
<pdfrwt beam="1">  1        4 0.63248450E-02 0.12501005E+03</pdfrwt>
<pdfrwt beam="2">  1       -4 0.14620199E-01 0.12501005E+03</pdfrwt>
<totfact> 0.10211725E+04</totfact>
</mgrwt>
</event>
<event>
 5    1  0.3239419E-002  0.1250005E+03  0.7818608E-02  0.1235068E+00
          4   -1    0    0  501    0  0.00000000000E+00  0.00000000000E+00  0.29648302793E+02  0.29675490872E+02  0.12700000000E+01 0.  1.
         -4   -1    0    0    0  501 -0.00000000000E+00 -0.00000000000E+00 -0.13166337977E+03  0.13166950472E+03  0.12700000000E+01 0.  1.
         25    2    1    2    0    0  0.00000000000E+00  0.00000000000E+00 -0.10201507698E+03  0.16134499559E+03  0.12500052668E+03 0.  0.
    9000005    1    3    3    0    0 -0.40168739611E+02  0.47653230504E+02 -0.45103144405E+02  0.76939272511E+02  0.10000000000E+01 0.  0.
    9000005    1    3    3    0    0  0.40168739611E+02 -0.47653230504E+02 -0.56911932577E+02  0.84405723082E+02  0.10000000000E+01 0.  0.
<mgrwt>
<rscale>  0 0.12500053E+03</rscale>
<asrwt>0</asrwt>
<pdfrwt beam="1">  1        4 0.45638399E-02 0.12500053E+03</pdfrwt>
<pdfrwt beam="2">  1       -4 0.20258467E-01 0.12500053E+03</pdfrwt>
<totfact> 0.97082956E+03</totfact>
</mgrwt>
</event>
<event>
 5    1  0.3239419E-002  0.1249999E+03  0.7818608E-02  0.1235069E+00
         -4   -1    0    0    0  501 -0.00000000000E+00  0.00000000000E+00  0.18267209346E+02  0.18311303539E+02  0.12700000000E+01 0.  1.
          4   -1    0    0  501    0  0.00000000000E+00 -0.00000000000E+00 -0.21353532971E+03  0.21353910633E+03  0.12700000000E+01 0.  1.
         25    2    1    2    0    0  0.00000000000E+00  0.00000000000E+00 -0.19526812036E+03  0.23185040987E+03  0.12499989491E+03 0.  0.
    9000005    1    3    3    0    0  0.53236433209E+02  0.31645968413E+02 -0.82153572489E+02  0.10288729081E+03  0.10000000000E+01 0.  0.
    9000005    1    3    3    0    0 -0.53236433209E+02 -0.31645968413E+02 -0.11311454787E+03  0.12896311906E+03  0.10000000000E+01 0.  0.
<mgrwt>
<rscale>  0 0.12499989E+03</rscale>
<asrwt>0</asrwt>
<pdfrwt beam="2">  1        4 0.32855270E-01 0.12499989E+03</pdfrwt>
<pdfrwt beam="1">  1       -4 0.28140224E-02 0.12499989E+03</pdfrwt>
<totfact> 0.85026473E+03</totfact>
</mgrwt>
</event>
<event>
 5    1  0.3239419E-002  0.1249937E+03  0.7818608E-02  0.1235079E+00
         -4   -1    0    0    0  501 -0.00000000000E+00  0.00000000000E+00  0.69017878845E+02  0.69029562510E+02  0.12700000000E+01 0.  1.
          4   -1    0    0  501    0  0.00000000000E+00 -0.00000000000E+00 -0.56568319902E+02  0.56582574319E+02  0.12700000000E+01 0.  1.
         25    2    1    2    0    0  0.00000000000E+00  0.00000000000E+00  0.12449558943E+02  0.12561213683E+03  0.12499366944E+03 0.  0.
    9000005    1    3    3    0    0 -0.40401776402E+02  0.36419799574E+02 -0.24686953706E+02  0.59742372071E+02  0.10000000000E+01 0.  0.
    9000005    1    3    3    0    0  0.40401776402E+02 -0.36419799574E+02  0.37136512649E+02  0.65869764757E+02  0.10000000000E+01 0.  0.
<mgrwt>
<rscale>  0 0.12499367E+03</rscale>
<asrwt>0</asrwt>
<pdfrwt beam="2">  1        4 0.87048137E-02 0.12499367E+03</pdfrwt>
<pdfrwt beam="1">  1       -4 0.10620130E-01 0.12499367E+03</pdfrwt>
<totfact> 0.10440970E+04</totfact>
</mgrwt>
</event>
<event>
 5    1  0.3239419E-002  0.1249976E+03  0.7818608E-02  0.1235073E+00
         -4   -1    0    0    0  501 -0.00000000000E+00  0.00000000000E+00  0.36902506740E+01  0.39026721662E+01  0.12700000000E+01 0. -1.
          4   -1    0    0  501    0  0.00000000000E+00 -0.00000000000E+00 -0.10286655950E+04  0.10286663790E+04  0.12700000000E+01 0. -1.
         25    2    1    2    0    0  0.00000000000E+00  0.00000000000E+00 -0.10249753444E+04  0.10325690512E+04  0.12499755558E+03 0.  0.
    9000005    1    3    3    0    0  0.31959072734E+01 -0.17297388342E+02 -0.17142051225E+02  0.24581769402E+02  0.10000000000E+01 0.  0.
    9000005    1    3    3    0    0 -0.31959072734E+01  0.17297388342E+02 -0.10078332931E+04  0.10079872818E+04  0.10000000000E+01 0.  0.
<mgrwt>
<rscale>  0 0.12499756E+03</rscale>
<asrwt>0</asrwt>
<pdfrwt beam="2">  1        4 0.15827242E+00 0.12499756E+03</pdfrwt>
<pdfrwt beam="1">  1       -4 0.58413211E-03 0.12499756E+03</pdfrwt>
<totfact> 0.29546952E+03</totfact>
</mgrwt>
</event>
<event>
 5    1  0.3239419E-002  0.1249970E+03  0.7818608E-02  0.1235074E+00
          4   -1    0    0  501    0  0.00000000000E+00  0.00000000000E+00  0.15734635445E+02  0.15785805414E+02  0.12700000000E+01 0.  1.
         -4   -1    0    0    0  501 -0.00000000000E+00 -0.00000000000E+00 -0.24779023170E+03  0.24779348625E+03  0.12700000000E+01 0.  1.
         25    2    1    2    0    0  0.00000000000E+00  0.00000000000E+00 -0.23205559626E+03  0.26357929166E+03  0.12499697292E+03 0.  0.
    9000005    1    3    3    0    0  0.23835500829E+01 -0.49933547654E+02 -0.19509704260E+03  0.20140232502E+03  0.10000000000E+01 0.  0.
    9000005    1    3    3    0    0 -0.23835500829E+01  0.49933547654E+02 -0.36958553656E+02  0.62176966640E+02  0.10000000000E+01 0.  0.
<mgrwt>
<rscale>  0 0.12499697E+03</rscale>
<asrwt>0</asrwt>
<pdfrwt beam="1">  1        4 0.24248998E-02 0.12499697E+03</pdfrwt>
<pdfrwt beam="2">  1       -4 0.38125758E-01 0.12499697E+03</pdfrwt>
<totfact> 0.80411786E+03</totfact>
</mgrwt>
</event>
<event>
 5    1  0.3239419E-002  0.1249996E+03  0.7818608E-02  0.1235070E+00
          4   -1    0    0  501    0  0.00000000000E+00  0.00000000000E+00  0.49290440758E+01  0.50900270629E+01  0.12700000000E+01 0.  1.
         -4   -1    0    0    0  501 -0.00000000000E+00 -0.00000000000E+00 -0.77959682065E+03  0.77959785510E+03  0.12700000000E+01 0.  1.
         25    2    1    2    0    0  0.00000000000E+00  0.00000000000E+00 -0.77466777658E+03  0.78468788216E+03  0.12499963337E+03 0.  0.
    9000005    1    3    3    0    0 -0.45471204573E+02  0.31474881786E+02 -0.57002253949E+03  0.57269974171E+03  0.10000000000E+01 0.  0.
    9000005    1    3    3    0    0  0.45471204573E+02 -0.31474881786E+02 -0.20464523709E+03  0.21198814045E+03  0.10000000000E+01 0.  0.
<mgrwt>
<rscale>  0 0.12499963E+03</rscale>
<asrwt>0</asrwt>
<pdfrwt beam="1">  1        4 0.77077797E-03 0.12499963E+03</pdfrwt>
<pdfrwt beam="2">  1       -4 0.11995034E+00 0.12499963E+03</pdfrwt>
<totfact> 0.38957848E+03</totfact>
</mgrwt>
</event>
<event>
 5    1  0.3239419E-002  0.1250017E+03  0.7818608E-02  0.1235067E+00
          4   -1    0    0  501    0  0.00000000000E+00  0.00000000000E+00  0.10165726130E+02  0.10244749277E+02  0.12700000000E+01 0. -1.
         -4   -1    0    0    0  501 -0.00000000000E+00 -0.00000000000E+00 -0.38269947487E+03  0.38270158214E+03  0.12700000000E+01 0. -1.
         25    2    1    2    0    0  0.00000000000E+00  0.00000000000E+00 -0.37253374874E+03  0.39294633141E+03  0.12500170166E+03 0.  0.
    9000005    1    3    3    0    0  0.58403388542E+02 -0.18142333898E+02 -0.14585618102E+03  0.15816170717E+03  0.10000000000E+01 0.  0.
    9000005    1    3    3    0    0 -0.58403388542E+02  0.18142333898E+02 -0.22667756772E+03  0.23478462425E+03  0.10000000000E+01 0.  0.
<mgrwt>
<rscale>  0 0.12500170E+03</rscale>
<asrwt>0</asrwt>
<pdfrwt beam="1">  1        4 0.15701990E-02 0.12500170E+03</pdfrwt>
<pdfrwt beam="2">  1       -4 0.58883072E-01 0.12500170E+03</pdfrwt>
<totfact> 0.65242204E+03</totfact>
</mgrwt>
</event>
<event>
 5    1  0.3239419E-002  0.1249996E+03  0.7818608E-02  0.1235070E+00
          4   -1    0    0  501    0  0.00000000000E+00  0.00000000000E+00  0.22856565129E+03  0.22856917957E+03  0.12700000000E+01 0.  1.
         -4   -1    0    0    0  501 -0.00000000000E+00 -0.00000000000E+00 -0.17062904682E+02  0.17110102752E+02  0.12700000000E+01 0.  1.
         25    2    1    2    0    0  0.00000000000E+00  0.00000000000E+00  0.21150274661E+03  0.24567928233E+03  0.12499959176E+03 0.  0.
    9000005    1    3    3    0    0 -0.86933030065E+01  0.55405596605E+02  0.51572517692E+02  0.76197626167E+02  0.10000000000E+01 0.  0.
    9000005    1    3    3    0    0  0.86933030065E+01 -0.55405596605E+02  0.15993022892E+03  0.16948165616E+03  0.10000000000E+01 0.  0.
<mgrwt>
<rscale>  0 0.12499959E+03</rscale>
<asrwt>0</asrwt>
<pdfrwt beam="1">  1        4 0.35167848E-01 0.12499959E+03</pdfrwt>
<pdfrwt beam="2">  1       -4 0.26289643E-02 0.12499959E+03</pdfrwt>
<totfact> 0.82959497E+03</totfact>
</mgrwt>
</event>
<event>
 5    1  0.3239419E-002  0.1249999E+03  0.7818608E-02  0.1235069E+00
          4   -1    0    0  501    0  0.00000000000E+00  0.00000000000E+00  0.52961067491E+01  0.54462507010E+01  0.12700000000E+01 0. -1.
         -4   -1    0    0    0  501 -0.00000000000E+00 -0.00000000000E+00 -0.72710931401E+03  0.72711042313E+03  0.12700000000E+01 0. -1.
         25    2    1    2    0    0  0.00000000000E+00  0.00000000000E+00 -0.72181320726E+03  0.73255667383E+03  0.12499989677E+03 0.  0.
    9000005    1    3    3    0    0  0.48722364545E+02  0.30844764234E+02 -0.50204211768E+03  0.50534399789E+03  0.10000000000E+01 0.  0.
    9000005    1    3    3    0    0 -0.48722364545E+02 -0.30844764234E+02 -0.21977108958E+03  0.22721267593E+03  0.10000000000E+01 0.  0.
<mgrwt>
<rscale>  0 0.12499990E+03</rscale>
<asrwt>0</asrwt>
<pdfrwt beam="1">  1        4 0.82642108E-03 0.12499990E+03</pdfrwt>
<pdfrwt beam="2">  1       -4 0.11187453E+00 0.12499990E+03</pdfrwt>
<totfact> 0.41422788E+03</totfact>
</mgrwt>
</event>
<event>
 5    1  0.3239419E-002  0.1249848E+03  0.7818608E-02  0.1235093E+00
          4   -1    0    0  501    0  0.00000000000E+00  0.00000000000E+00  0.45201598830E+02  0.45219436494E+02  0.12700000000E+01 0. -1.
         -4   -1    0    0    0  501 -0.00000000000E+00 -0.00000000000E+00 -0.86357851636E+02  0.86367189599E+02  0.12700000000E+01 0. -1.
         25    2    1    2    0    0  0.00000000000E+00  0.00000000000E+00 -0.41156252806E+02  0.13158662609E+03  0.12498481116E+03 0.  0.
    9000005    1    3    3    0    0 -0.21072702824E+02  0.55093510287E+02 -0.42281234603E+02  0.72581378325E+02  0.10000000000E+01 0.  0.
    9000005    1    3    3    0    0  0.21072702824E+02 -0.55093510287E+02  0.11249817963E+01  0.59005247767E+02  0.10000000000E+01 0.  0.
<mgrwt>
<rscale>  0 0.12498481E+03</rscale>
<asrwt>0</asrwt>
<pdfrwt beam="1">  1        4 0.69561826E-02 0.12498481E+03</pdfrwt>
<pdfrwt beam="2">  1       -4 0.13287914E-01 0.12498481E+03</pdfrwt>
<totfact> 0.10314063E+04</totfact>
</mgrwt>
</event>
<event>
 5    1  0.3239419E-002  0.1250101E+03  0.7818608E-02  0.1235054E+00
         -4   -1    0    0    0  501 -0.00000000000E+00  0.00000000000E+00  0.36866888716E+03  0.36867107461E+03  0.12700000000E+01 0.  1.
          4   -1    0    0  501    0  0.00000000000E+00 -0.00000000000E+00 -0.10556985198E+02  0.10633100981E+02  0.12700000000E+01 0.  1.
         25    2    1    2    0    0  0.00000000000E+00  0.00000000000E+00  0.35811190196E+03  0.37930417559E+03  0.12501009279E+03 0.  0.
    9000005    1    3    3    0    0 -0.62417564055E+02  0.11337777303E+01  0.18797619163E+03  0.19807394169E+03  0.10000000000E+01 0.  0.
    9000005    1    3    3    0    0  0.62417564055E+02 -0.11337777303E+01  0.17013571033E+03  0.18123023391E+03  0.10000000000E+01 0.  0.
<mgrwt>
<rscale>  0 0.12501009E+03</rscale>
<asrwt>0</asrwt>
<pdfrwt beam="2">  1        4 0.16301747E-02 0.12501009E+03</pdfrwt>
<pdfrwt beam="1">  1       -4 0.56724322E-01 0.12501009E+03</pdfrwt>
<totfact> 0.66601788E+03</totfact>
</mgrwt>
</event>
<event>
 5    1  0.3239419E-002  0.1249653E+03  0.7818608E-02  0.1235124E+00
          4   -1    0    0  501    0  0.00000000000E+00  0.00000000000E+00  0.11692406260E+04  0.11692413157E+04  0.12700000000E+01 0.  1.
         -4   -1    0    0    0  501 -0.00000000000E+00 -0.00000000000E+00 -0.32175102672E+01  0.34590854744E+01  0.12700000000E+01 0.  1.
         25    2    1    2    0    0  0.00000000000E+00  0.00000000000E+00  0.11660231157E+04  0.11727004012E+04  0.12496529334E+03 0.  0.
    9000005    1    3    3    0    0  0.31826920818E+02 -0.53106335225E+02  0.66143873471E+03  0.66433081781E+03  0.10000000000E+01 0.  0.
    9000005    1    3    3    0    0 -0.31826920818E+02  0.53106335225E+02  0.50458438102E+03  0.50836958337E+03  0.10000000000E+01 0.  0.
<mgrwt>
<rscale>  0 0.12496529E+03</rscale>
<asrwt>0</asrwt>
<pdfrwt beam="1">  1        4 0.17990179E+00 0.12496529E+03</pdfrwt>
<pdfrwt beam="2">  1       -4 0.51363739E-03 0.12496529E+03</pdfrwt>
<totfact> 0.25457976E+03</totfact>
</mgrwt>
</event>
<event>
 5    1  0.3239419E-002  0.1250016E+03  0.7818608E-02  0.1235067E+00
         -4   -1    0    0    0  501 -0.00000000000E+00  0.00000000000E+00  0.35463978117E+02  0.35486710807E+02  0.12700000000E+01 0. -1.
          4   -1    0    0  501    0  0.00000000000E+00 -0.00000000000E+00 -0.11008802948E+03  0.11009535474E+03  0.12700000000E+01 0. -1.
         25    2    1    2    0    0  0.00000000000E+00  0.00000000000E+00 -0.74624051361E+02  0.14558206554E+03  0.12500155505E+03 0.  0.
    9000005    1    3    3    0    0  0.30130946601E+02 -0.54739769120E+02 -0.38494538947E+02  0.73397178387E+02  0.10000000000E+01 0.  0.
    9000005    1    3    3    0    0 -0.30130946601E+02  0.54739769120E+02 -0.36129512414E+02  0.72184887156E+02  0.10000000000E+01 0.  0.
<mgrwt>
<rscale>  0 0.12500156E+03</rscale>
<asrwt>0</asrwt>
<pdfrwt beam="2">  1        4 0.16938932E-01 0.12500156E+03</pdfrwt>
<pdfrwt beam="1">  1       -4 0.54583089E-02 0.12500156E+03</pdfrwt>
<totfact> 0.10018825E+04</totfact>
</mgrwt>
</event>
<event>
 5    1  0.3239419E-002  0.1250014E+03  0.7818608E-02  0.1235067E+00
         -4   -1    0    0    0  501 -0.00000000000E+00  0.00000000000E+00  0.14638202159E+02  0.14693191024E+02  0.12700000000E+01 0. -1.
          4   -1    0    0  501    0  0.00000000000E+00 -0.00000000000E+00 -0.26630214325E+03  0.26630517156E+03  0.12700000000E+01 0. -1.
         25    2    1    2    0    0  0.00000000000E+00  0.00000000000E+00 -0.25166394109E+03  0.28099836259E+03  0.12500136211E+03 0.  0.
    9000005    1    3    3    0    0  0.33456412467E+02 -0.20828323150E+02 -0.23485663042E+03  0.23814236800E+03  0.10000000000E+01 0.  0.
    9000005    1    3    3    0    0 -0.33456412467E+02  0.20828323150E+02 -0.16807310669E+02  0.42855994590E+02  0.10000000000E+01 0.  0.
<mgrwt>
<rscale>  0 0.12500136E+03</rscale>
<asrwt>0</asrwt>
<pdfrwt beam="2">  1        4 0.40974020E-01 0.12500136E+03</pdfrwt>
<pdfrwt beam="1">  1       -4 0.22564942E-02 0.12500136E+03</pdfrwt>
<totfact> 0.78043554E+03</totfact>
</mgrwt>
</event>
<event>
 5    1  0.3239419E-002  0.1249992E+03  0.7818608E-02  0.1235071E+00
         -4   -1    0    0    0  501 -0.00000000000E+00  0.00000000000E+00  0.32118644305E+02  0.32143742968E+02  0.12700000000E+01 0. -1.
          4   -1    0    0  501    0  0.00000000000E+00 -0.00000000000E+00 -0.12154191741E+03  0.12154855239E+03  0.12700000000E+01 0. -1.
         25    2    1    2    0    0  0.00000000000E+00  0.00000000000E+00 -0.89423273103E+02  0.15369229536E+03  0.12499919951E+03 0.  0.
    9000005    1    3    3    0    0  0.33575388405E+02 -0.32951846245E+02  0.58654619517E+01  0.47418714885E+02  0.10000000000E+01 0.  0.
    9000005    1    3    3    0    0 -0.33575388405E+02  0.32951846245E+02 -0.95288735055E+02  0.10627358047E+03  0.10000000000E+01 0.  0.
<mgrwt>
<rscale>  0 0.12499920E+03</rscale>
<asrwt>0</asrwt>
<pdfrwt beam="2">  1        4 0.18701197E-01 0.12499920E+03</pdfrwt>
<pdfrwt beam="1">  1       -4 0.49437710E-02 0.12499920E+03</pdfrwt>
<totfact> 0.98574496E+03</totfact>
</mgrwt>
</event>
<event>
 5    1  0.3239419E-002  0.1249981E+03  0.7818608E-02  0.1235072E+00
          4   -1    0    0  501    0  0.00000000000E+00  0.00000000000E+00  0.71670609087E+03  0.71670721608E+03  0.12700000000E+01 0.  1.
         -4   -1    0    0    0  501 -0.00000000000E+00 -0.00000000000E+00 -0.53749898993E+01  0.55229898078E+01  0.12700000000E+01 0.  1.
         25    2    1    2    0    0  0.00000000000E+00  0.00000000000E+00  0.71133110097E+03  0.72223020589E+03  0.12499814038E+03 0.  0.
    9000005    1    3    3    0    0  0.13203491913E+02  0.61047492129E+02  0.36722903073E+03  0.37250407985E+03  0.10000000000E+01 0.  0.
    9000005    1    3    3    0    0 -0.13203491913E+02 -0.61047492129E+02  0.34410207024E+03  0.34972612604E+03  0.10000000000E+01 0.  0.
<mgrwt>
<rscale>  0 0.12499814E+03</rscale>
<asrwt>0</asrwt>
<pdfrwt beam="1">  1        4 0.11027389E+00 0.12499814E+03</pdfrwt>
<pdfrwt beam="2">  1       -4 0.83839313E-03 0.12499814E+03</pdfrwt>
<totfact> 0.41940573E+03</totfact>
</mgrwt>
</event>
<event>
 5    1  0.3239419E-002  0.1249983E+03  0.7818608E-02  0.1235072E+00
         -4   -1    0    0    0  501 -0.00000000000E+00  0.00000000000E+00  0.58206964499E+02  0.58220817722E+02  0.12700000000E+01 0.  1.
          4   -1    0    0  501    0  0.00000000000E+00 -0.00000000000E+00 -0.67079942510E+02  0.67091963656E+02  0.12700000000E+01 0.  1.
         25    2    1    2    0    0  0.00000000000E+00  0.00000000000E+00 -0.88729780113E+01  0.12531278138E+03  0.12499825374E+03 0.  0.
    9000005    1    3    3    0    0  0.46831974521E+02  0.39828640245E+02 -0.15671223033E+02  0.63451884548E+02  0.10000000000E+01 0.  0.
    9000005    1    3    3    0    0 -0.46831974521E+02 -0.39828640245E+02  0.67982450222E+01  0.61860896830E+02  0.10000000000E+01 0.  0.
<mgrwt>
<rscale>  0 0.12499825E+03</rscale>
<asrwt>0</asrwt>
<pdfrwt beam="2">  1        4 0.10321981E-01 0.12499825E+03</pdfrwt>
<pdfrwt beam="1">  1       -4 0.89569080E-02 0.12499825E+03</pdfrwt>
<totfact> 0.10446485E+04</totfact>
</mgrwt>
</event>
<event>
 5    1  0.3239419E-002  0.1250023E+03  0.7818608E-02  0.1235066E+00
         -4   -1    0    0    0  501 -0.00000000000E+00  0.00000000000E+00  0.81212431617E+02  0.81222361140E+02  0.12700000000E+01 0.  1.
          4   -1    0    0  501    0  0.00000000000E+00 -0.00000000000E+00 -0.48079676008E+02  0.48096446283E+02  0.12700000000E+01 0.  1.
         25    2    1    2    0    0  0.00000000000E+00  0.00000000000E+00  0.33132755609E+02  0.12931880742E+03  0.12500229781E+03 0.  0.
    9000005    1    3    3    0    0 -0.10549228198E+02  0.54936882593E+02 -0.12253193697E+02  0.57275544872E+02  0.10000000000E+01 0.  0.
    9000005    1    3    3    0    0  0.10549228198E+02 -0.54936882593E+02  0.45385949306E+02  0.72043262551E+02  0.10000000000E+01 0.  0.
<mgrwt>
<rscale>  0 0.12500230E+03</rscale>
<asrwt>0</asrwt>
<pdfrwt beam="2">  1        4 0.73989271E-02 0.12500230E+03</pdfrwt>
<pdfrwt beam="1">  1       -4 0.12496274E-01 0.12500230E+03</pdfrwt>
<totfact> 0.10358564E+04</totfact>
</mgrwt>
</event>
<event>
 5    1  0.3239419E-002  0.1250123E+03  0.7818608E-02  0.1235050E+00
         -4   -1    0    0    0  501 -0.00000000000E+00  0.00000000000E+00  0.53184489315E+03  0.53184640947E+03  0.12700000000E+01 0. -1.
          4   -1    0    0  501    0  0.00000000000E+00 -0.00000000000E+00 -0.72897304359E+01  0.73995317303E+01  0.12700000000E+01 0. -1.
         25    2    1    2    0    0  0.00000000000E+00  0.00000000000E+00  0.52455516271E+03  0.53924594120E+03  0.12501226490E+03 0.  0.
    9000005    1    3    3    0    0  0.27465348568E+02  0.56044813329E+02  0.27635462720E+03  0.28331651284E+03  0.10000000000E+01 0.  0.
    9000005    1    3    3    0    0 -0.27465348568E+02 -0.56044813329E+02  0.24820053551E+03  0.25592942836E+03  0.10000000000E+01 0.  0.
<mgrwt>
<rscale>  0 0.12501226E+03</rscale>
<asrwt>0</asrwt>
<pdfrwt beam="2">  1        4 0.11300596E-02 0.12501226E+03</pdfrwt>
<pdfrwt beam="1">  1       -4 0.81830874E-01 0.12501226E+03</pdfrwt>
<totfact> 0.52928687E+03</totfact>
</mgrwt>
</event>
<event>
 5    1  0.3239419E-002  0.1249995E+03  0.7818608E-02  0.1235070E+00
         -4   -1    0    0    0  501 -0.00000000000E+00  0.00000000000E+00  0.39363489538E+03  0.39363694410E+03  0.12700000000E+01 0. -1.
          4   -1    0    0  501    0  0.00000000000E+00 -0.00000000000E+00 -0.98807400694E+01  0.99620241076E+01  0.12700000000E+01 0. -1.
         25    2    1    2    0    0  0.00000000000E+00  0.00000000000E+00  0.38375415531E+03  0.40359896821E+03  0.12499950168E+03 0.  0.
    9000005    1    3    3    0    0 -0.21406806244E+01  0.62976275205E+01  0.39250451670E+03  0.39256214573E+03  0.10000000000E+01 0.  0.
    9000005    1    3    3    0    0  0.21406806244E+01 -0.62976275205E+01 -0.87503613936E+01  0.11036822479E+02  0.10000000000E+01 0.  0.
<mgrwt>
<rscale>  0 0.12499950E+03</rscale>
<asrwt>0</asrwt>
<pdfrwt beam="2">  1        4 0.15265244E-02 0.12499950E+03</pdfrwt>
<pdfrwt beam="1">  1       -4 0.60565613E-01 0.12499950E+03</pdfrwt>
<totfact> 0.64204968E+03</totfact>
</mgrwt>
</event>
<event>
 5    1  0.3239419E-002  0.1250141E+03  0.7818608E-02  0.1235047E+00
         -4   -1    0    0    0  501 -0.00000000000E+00  0.00000000000E+00  0.90250334176E+03  0.90250423533E+03  0.12700000000E+01 0. -1.
          4   -1    0    0  501    0  0.00000000000E+00 -0.00000000000E+00 -0.42351564604E+01  0.44214760255E+01  0.12700000000E+01 0. -1.
         25    2    1    2    0    0  0.00000000000E+00  0.00000000000E+00  0.89826818530E+03  0.90692571136E+03  0.12501405199E+03 0.  0.
    9000005    1    3    3    0    0 -0.30287145776E+02 -0.28370457393E+02  0.11010836109E+03  0.11767346869E+03  0.10000000000E+01 0.  0.
    9000005    1    3    3    0    0  0.30287145776E+02  0.28370457393E+02  0.78815982421E+03  0.78925224266E+03  0.10000000000E+01 0.  0.
<mgrwt>
<rscale>  0 0.12501405E+03</rscale>
<asrwt>0</asrwt>
<pdfrwt beam="2">  1        4 0.66596229E-03 0.12501405E+03</pdfrwt>
<pdfrwt beam="1">  1       -4 0.13886133E+00 0.12501405E+03</pdfrwt>
<totfact> 0.33885651E+03</totfact>
</mgrwt>
</event>
<event>
 5    1  0.3239419E-002  0.1250013E+03  0.7818608E-02  0.1235067E+00
          4   -1    0    0  501    0  0.00000000000E+00  0.00000000000E+00  0.10489002983E+03  0.10489771808E+03  0.12700000000E+01 0. -1.
         -4   -1    0    0    0  501 -0.00000000000E+00 -0.00000000000E+00 -0.37222259487E+02  0.37243918985E+02  0.12700000000E+01 0. -1.
         25    2    1    2    0    0  0.00000000000E+00  0.00000000000E+00  0.67667770342E+02  0.14214163706E+03  0.12500127137E+03 0.  0.
    9000005    1    3    3    0    0 -0.47859500215E+02 -0.36494000656E+02  0.14705026280E+02  0.61964357841E+02  0.10000000000E+01 0.  0.
    9000005    1    3    3    0    0  0.47859500215E+02  0.36494000656E+02  0.52962744061E+02  0.80177279220E+02  0.10000000000E+01 0.  0.
<mgrwt>
<rscale>  0 0.12500127E+03</rscale>
<asrwt>0</asrwt>
<pdfrwt beam="1">  1        4 0.16139185E-01 0.12500127E+03</pdfrwt>
<pdfrwt beam="2">  1       -4 0.57287591E-02 0.12500127E+03</pdfrwt>
<totfact> 0.10089102E+04</totfact>
</mgrwt>
</event>
<event>
 5    1  0.3239419E-002  0.1249987E+03  0.7818608E-02  0.1235071E+00
          4   -1    0    0  501    0  0.00000000000E+00  0.00000000000E+00  0.14511276145E+03  0.14511831875E+03  0.12700000000E+01 0. -1.
         -4   -1    0    0    0  501 -0.00000000000E+00 -0.00000000000E+00 -0.26897120778E+02  0.26927086849E+02  0.12700000000E+01 0. -1.
         25    2    1    2    0    0  0.00000000000E+00  0.00000000000E+00  0.11821564068E+03  0.17204540560E+03  0.12499873554E+03 0.  0.
    9000005    1    3    3    0    0  0.51810060236E+02 -0.83192210525E+01  0.10581710536E+03  0.11811753286E+03  0.10000000000E+01 0.  0.
    9000005    1    3    3    0    0 -0.51810060236E+02  0.83192210525E+01  0.12398535313E+02  0.53927872742E+02  0.10000000000E+01 0.  0.
<mgrwt>
<rscale>  0 0.12499874E+03</rscale>
<asrwt>0</asrwt>
<pdfrwt beam="1">  1        4 0.22327773E-01 0.12499874E+03</pdfrwt>
<pdfrwt beam="2">  1       -4 0.41407511E-02 0.12499874E+03</pdfrwt>
<totfact> 0.95071467E+03</totfact>
</mgrwt>
</event>
<event>
 5    1  0.3239419E-002  0.1249944E+03  0.7818608E-02  0.1235078E+00
         -4   -1    0    0    0  501 -0.00000000000E+00  0.00000000000E+00  0.22829721876E+02  0.22865019154E+02  0.12700000000E+01 0.  1.
          4   -1    0    0  501    0  0.00000000000E+00 -0.00000000000E+00 -0.17091858161E+03  0.17092329988E+03  0.12700000000E+01 0.  1.
         25    2    1    2    0    0  0.00000000000E+00  0.00000000000E+00 -0.14808885974E+03  0.19378831903E+03  0.12499440873E+03 0.  0.
    9000005    1    3    3    0    0 -0.49637489675E+02  0.37586545115E+02 -0.82287969467E+02  0.10319369493E+03  0.10000000000E+01 0.  0.
    9000005    1    3    3    0    0  0.49637489675E+02 -0.37586545115E+02 -0.65800890270E+02  0.90594624097E+02  0.10000000000E+01 0.  0.
<mgrwt>
<rscale>  0 0.12499441E+03</rscale>
<asrwt>0</asrwt>
<pdfrwt beam="2">  1        4 0.26298244E-01 0.12499441E+03</pdfrwt>
<pdfrwt beam="1">  1       -4 0.35153431E-02 0.12499441E+03</pdfrwt>
<totfact> 0.91203724E+03</totfact>
</mgrwt>
</event>
<event>
 5    1  0.3239419E-002  0.1250051E+03  0.7818608E-02  0.1235061E+00
          4   -1    0    0  501    0  0.00000000000E+00  0.00000000000E+00  0.48065036491E+03  0.48065204274E+03  0.12700000000E+01 0.  1.
         -4   -1    0    0    0  501 -0.00000000000E+00 -0.00000000000E+00 -0.80763586919E+01  0.81756021013E+01  0.12700000000E+01 0.  1.
         25    2    1    2    0    0  0.00000000000E+00  0.00000000000E+00  0.47257400622E+03  0.48882764484E+03  0.12500509992E+03 0.  0.
    9000005    1    3    3    0    0  0.27887756610E+02  0.45104274370E+01  0.45427543334E+03  0.45515408409E+03  0.10000000000E+01 0.  0.
    9000005    1    3    3    0    0 -0.27887756610E+02 -0.45104274370E+01  0.18298572879E+02  0.33673560754E+02  0.10000000000E+01 0.  0.
<mgrwt>
<rscale>  0 0.12500510E+03</rscale>
<asrwt>0</asrwt>
<pdfrwt beam="1">  1        4 0.73953985E-01 0.12500510E+03</pdfrwt>
<pdfrwt beam="2">  1       -4 0.12502797E-02 0.12500510E+03</pdfrwt>
<totfact> 0.56735371E+03</totfact>
</mgrwt>
</event>
<event>
 5    1  0.3239419E-002  0.1250050E+03  0.7818608E-02  0.1235061E+00
         -4   -1    0    0    0  501 -0.00000000000E+00  0.00000000000E+00  0.29248019396E+01  0.31886308011E+01  0.12700000000E+01 0.  1.
          4   -1    0    0  501    0  0.00000000000E+00 -0.00000000000E+00 -0.12777617964E+04  0.12777624276E+04  0.12700000000E+01 0.  1.
         25    2    1    2    0    0  0.00000000000E+00  0.00000000000E+00 -0.12748369945E+04  0.12809510584E+04  0.12500500561E+03 0.  0.
    9000005    1    3    3    0    0  0.31903372017E+02 -0.41180339069E+02 -0.99119436925E+03  0.99256280562E+03  0.10000000000E+01 0.  0.
    9000005    1    3    3    0    0 -0.31903372017E+02  0.41180339069E+02 -0.28364262526E+03  0.28838825277E+03  0.10000000000E+01 0.  0.
<mgrwt>
<rscale>  0 0.12500501E+03</rscale>
<asrwt>0</asrwt>
<pdfrwt beam="2">  1        4 0.19659865E+00 0.12500501E+03</pdfrwt>
<pdfrwt beam="1">  1       -4 0.47031363E-03 0.12500501E+03</pdfrwt>
<totfact> 0.22680206E+03</totfact>
</mgrwt>
</event>
<event>
 5    1  0.3239419E-002  0.1249959E+03  0.7818608E-02  0.1235076E+00
          4   -1    0    0  501    0  0.00000000000E+00  0.00000000000E+00  0.28040041990E+01  0.30782039484E+01  0.12700000000E+01 0.  1.
         -4   -1    0    0    0  501 -0.00000000000E+00 -0.00000000000E+00 -0.13277956082E+04  0.13277962156E+04  0.12700000000E+01 0.  1.
         25    2    1    2    0    0  0.00000000000E+00  0.00000000000E+00 -0.13249916040E+04  0.13308744195E+04  0.12499587925E+03 0.  0.
    9000005    1    3    3    0    0 -0.42201594971E+01 -0.61536711536E+02 -0.76919041778E+03  0.77166020722E+03  0.10000000000E+01 0.  0.
    9000005    1    3    3    0    0  0.42201594971E+01  0.61536711536E+02 -0.55580118623E+03  0.55921421229E+03  0.10000000000E+01 0.  0.
<mgrwt>
<rscale>  0 0.12499588E+03</rscale>
<asrwt>0</asrwt>
<pdfrwt beam="1">  1        4 0.45252533E-03 0.12499588E+03</pdfrwt>
<pdfrwt beam="2">  1       -4 0.20429691E+00 0.12499588E+03</pdfrwt>
<totfact> 0.21513356E+03</totfact>
</mgrwt>
</event>
<event>
 5    1  0.3239419E-002  0.1250037E+03  0.7818608E-02  0.1235064E+00
         -4   -1    0    0    0  501 -0.00000000000E+00  0.00000000000E+00  0.59127242366E+02  0.59140880022E+02  0.12700000000E+01 0. -1.
          4   -1    0    0  501    0  0.00000000000E+00 -0.00000000000E+00 -0.66041666946E+02  0.66053877047E+02  0.12700000000E+01 0. -1.
         25    2    1    2    0    0  0.00000000000E+00  0.00000000000E+00 -0.69144245796E+01  0.12519475707E+03  0.12500367167E+03 0.  0.
    9000005    1    3    3    0    0  0.42754881705E+02  0.11064587011E+02  0.40826602578E+02  0.60151612393E+02  0.10000000000E+01 0.  0.
    9000005    1    3    3    0    0 -0.42754881705E+02 -0.11064587011E+02 -0.47741027158E+02  0.65043144677E+02  0.10000000000E+01 0.  0.
<mgrwt>
<rscale>  0 0.12500367E+03</rscale>
<asrwt>0</asrwt>
<pdfrwt beam="2">  1        4 0.10162245E-01 0.12500367E+03</pdfrwt>
<pdfrwt beam="1">  1       -4 0.90984871E-02 0.12500367E+03</pdfrwt>
<totfact> 0.10447767E+04</totfact>
</mgrwt>
</event>
<event>
 5    1  0.3239419E-002  0.1249993E+03  0.7818608E-02  0.1235070E+00
          4   -1    0    0  501    0  0.00000000000E+00  0.00000000000E+00  0.45902572055E+02  0.45920137426E+02  0.12700000000E+01 0. -1.
         -4   -1    0    0    0  501 -0.00000000000E+00 -0.00000000000E+00 -0.85059196435E+02  0.85068676951E+02  0.12700000000E+01 0. -1.
         25    2    1    2    0    0  0.00000000000E+00  0.00000000000E+00 -0.39156624380E+02  0.13098881438E+03  0.12499931303E+03 0.  0.
    9000005    1    3    3    0    0  0.95259667057E+01  0.39981142023E+02 -0.68908032285E+02  0.80240592424E+02  0.10000000000E+01 0.  0.
    9000005    1    3    3    0    0 -0.95259667057E+01 -0.39981142023E+02  0.29751407905E+02  0.50748221953E+02  0.10000000000E+01 0.  0.
<mgrwt>
<rscale>  0 0.12499931E+03</rscale>
<asrwt>0</asrwt>
<pdfrwt beam="1">  1        4 0.70640146E-02 0.12499931E+03</pdfrwt>
<pdfrwt beam="2">  1       -4 0.13088111E-01 0.12499931E+03</pdfrwt>
<totfact> 0.10323489E+04</totfact>
</mgrwt>
</event>
<event>
 5    1  0.3239419E-002  0.1250016E+03  0.7818608E-02  0.1235067E+00
         -4   -1    0    0    0  501 -0.00000000000E+00  0.00000000000E+00  0.75660669225E+02  0.75671327248E+02  0.12700000000E+01 0. -1.
          4   -1    0    0  501    0  0.00000000000E+00 -0.00000000000E+00 -0.51607778965E+02  0.51623403121E+02  0.12700000000E+01 0. -1.
         25    2    1    2    0    0  0.00000000000E+00  0.00000000000E+00  0.24052890259E+02  0.12729473037E+03  0.12500162739E+03 0.  0.
    9000005    1    3    3    0    0 -0.60189666495E+02  0.16805382426E+02  0.12400444222E+02  0.63718033932E+02  0.10000000000E+01 0.  0.
    9000005    1    3    3    0    0  0.60189666495E+02 -0.16805382426E+02  0.11652446037E+02  0.63576696437E+02  0.10000000000E+01 0.  0.
<mgrwt>
<rscale>  0 0.12500163E+03</rscale>
<asrwt>0</asrwt>
<pdfrwt beam="2">  1        4 0.79416800E-02 0.12500163E+03</pdfrwt>
<pdfrwt beam="1">  1       -4 0.11642125E-01 0.12500163E+03</pdfrwt>
<totfact> 0.10402367E+04</totfact>
</mgrwt>
</event>
<event>
 5    1  0.3239419E-002  0.1250471E+03  0.7818608E-02  0.1234996E+00
          4   -1    0    0  501    0  0.00000000000E+00  0.00000000000E+00  0.15413872543E+02  0.15466103800E+02  0.12700000000E+01 0. -1.
         -4   -1    0    0    0  501 -0.00000000000E+00 -0.00000000000E+00 -0.25313267351E+03  0.25313585937E+03  0.12700000000E+01 0. -1.
         25    2    1    2    0    0  0.00000000000E+00  0.00000000000E+00 -0.23771880097E+03  0.26860196317E+03  0.12504713625E+03 0.  0.
    9000005    1    3    3    0    0  0.60199158371E+02 -0.10590330987E+01 -0.82715647289E+02  0.10231294408E+03  0.10000000000E+01 0.  0.
    9000005    1    3    3    0    0 -0.60199158371E+02  0.10590330987E+01 -0.15500315368E+03  0.16628901909E+03  0.10000000000E+01 0.  0.
<mgrwt>
<rscale>  0 0.12504714E+03</rscale>
<asrwt>0</asrwt>
<pdfrwt beam="1">  1        4 0.23756280E-02 0.12504714E+03</pdfrwt>
<pdfrwt beam="2">  1       -4 0.38947748E-01 0.12504714E+03</pdfrwt>
<totfact> 0.79630321E+03</totfact>
</mgrwt>
</event>
<event>
 5    1  0.3239419E-002  0.1250023E+03  0.7818608E-02  0.1235066E+00
         -4   -1    0    0    0  501 -0.00000000000E+00  0.00000000000E+00  0.54629834318E+03  0.54629981939E+03  0.12700000000E+01 0.  1.
          4   -1    0    0  501    0  0.00000000000E+00 -0.00000000000E+00 -0.70927754995E+01  0.72055786920E+01  0.12700000000E+01 0.  1.
         25    2    1    2    0    0  0.00000000000E+00  0.00000000000E+00  0.53920556768E+03  0.55350539808E+03  0.12500232591E+03 0.  0.
    9000005    1    3    3    0    0 -0.21255489693E-01  0.55317697867E+02  0.39834510399E+03  0.40216895706E+03  0.10000000000E+01 0.  0.
    9000005    1    3    3    0    0  0.21255489693E-01 -0.55317697867E+02  0.14086046369E+03  0.15133644102E+03  0.10000000000E+01 0.  0.
<mgrwt>
<rscale>  0 0.12500233E+03</rscale>
<asrwt>0</asrwt>
<pdfrwt beam="2">  1        4 0.10999870E-02 0.12500233E+03</pdfrwt>
<pdfrwt beam="1">  1       -4 0.84054688E-01 0.12500233E+03</pdfrwt>
<totfact> 0.51937820E+03</totfact>
</mgrwt>
</event>
<event>
 5    1  0.3239419E-002  0.1250006E+03  0.7818608E-02  0.1235068E+00
          4   -1    0    0  501    0  0.00000000000E+00  0.00000000000E+00  0.27195656272E+03  0.27195952807E+03  0.12700000000E+01 0.  1.
         -4   -1    0    0    0  501 -0.00000000000E+00 -0.00000000000E+00 -0.14332512391E+02  0.14388669551E+02  0.12700000000E+01 0.  1.
         25    2    1    2    0    0  0.00000000000E+00  0.00000000000E+00  0.25762405033E+03  0.28634819762E+03  0.12500055588E+03 0.  0.
    9000005    1    3    3    0    0 -0.60208797574E+02  0.53144809055E+01  0.16517275261E+03  0.17588741063E+03  0.10000000000E+01 0.  0.
    9000005    1    3    3    0    0  0.60208797574E+02 -0.53144809055E+01  0.92451297717E+02  0.11046078699E+03  0.10000000000E+01 0.  0.
<mgrwt>
<rscale>  0 0.12500056E+03</rscale>
<asrwt>0</asrwt>
<pdfrwt beam="1">  1        4 0.41844018E-01 0.12500056E+03</pdfrwt>
<pdfrwt beam="2">  1       -4 0.22095498E-02 0.12500056E+03</pdfrwt>
<totfact> 0.77342884E+03</totfact>
</mgrwt>
</event>
<event>
 5    1  0.3239419E-002  0.1250045E+03  0.7818608E-02  0.1235062E+00
         -4   -1    0    0    0  501 -0.00000000000E+00  0.00000000000E+00  0.18763874954E+02  0.18806804707E+02  0.12700000000E+01 0. -1.
          4   -1    0    0  501    0  0.00000000000E+00 -0.00000000000E+00 -0.20791152758E+03  0.20791540636E+03  0.12700000000E+01 0. -1.
         25    2    1    2    0    0  0.00000000000E+00  0.00000000000E+00 -0.18914765263E+03  0.22672221107E+03  0.12500450590E+03 0.  0.
    9000005    1    3    3    0    0 -0.42407765086E+01  0.12108420839E+02  0.16358571233E+02  0.20813478647E+02  0.10000000000E+01 0.  0.
    9000005    1    3    3    0    0  0.42407765086E+01 -0.12108420839E+02 -0.20550622386E+03  0.20590873242E+03  0.10000000000E+01 0.  0.
<mgrwt>
<rscale>  0 0.12500451E+03</rscale>
<asrwt>0</asrwt>
<pdfrwt beam="2">  1        4 0.31989988E-01 0.12500451E+03</pdfrwt>
<pdfrwt beam="1">  1       -4 0.28903508E-02 0.12500451E+03</pdfrwt>
<totfact> 0.85806830E+03</totfact>
</mgrwt>
</event>
<event>
 5    1  0.3239419E-002  0.1250025E+03  0.7818608E-02  0.1235065E+00
          4   -1    0    0  501    0  0.00000000000E+00  0.00000000000E+00  0.73948837744E+03  0.73948946799E+03  0.12700000000E+01 0.  1.
         -4   -1    0    0    0  501 -0.00000000000E+00 -0.00000000000E+00 -0.52051356365E+01  0.53578295041E+01  0.12700000000E+01 0.  1.
         25    2    1    2    0    0  0.00000000000E+00  0.00000000000E+00  0.73428324180E+03  0.74484729749E+03  0.12500246954E+03 0.  0.
    9000005    1    3    3    0    0 -0.58108825263E+02 -0.17217936726E+02  0.45796213205E+03  0.46195606643E+03  0.10000000000E+01 0.  0.
    9000005    1    3    3    0    0  0.58108825263E+02  0.17217936726E+02  0.27632110975E+03  0.28289123106E+03  0.10000000000E+01 0.  0.
<mgrwt>
<rscale>  0 0.12500247E+03</rscale>
<asrwt>0</asrwt>
<pdfrwt beam="1">  1        4 0.11377930E+00 0.12500247E+03</pdfrwt>
<pdfrwt beam="2">  1       -4 0.81261948E-03 0.12500247E+03</pdfrwt>
<totfact> 0.40819597E+03</totfact>
</mgrwt>
</event>
<event>
 5    1  0.3239419E-002  0.1249963E+03  0.7818608E-02  0.1235075E+00
          4   -1    0    0  501    0  0.00000000000E+00  0.00000000000E+00  0.50949083933E+02  0.50964910023E+02  0.12700000000E+01 0. -1.
         -4   -1    0    0    0  501 -0.00000000000E+00 -0.00000000000E+00 -0.76632147094E+02  0.76642670023E+02  0.12700000000E+01 0. -1.
         25    2    1    2    0    0  0.00000000000E+00  0.00000000000E+00 -0.25683063160E+02  0.12760758005E+03  0.12499629895E+03 0.  0.
    9000005    1    3    3    0    0 -0.16527687448E+02  0.23893476657E+02 -0.69323244977E+02  0.75171636761E+02  0.10000000000E+01 0.  0.
    9000005    1    3    3    0    0  0.16527687448E+02 -0.23893476657E+02  0.43640181817E+02  0.52435943285E+02  0.10000000000E+01 0.  0.
<mgrwt>
<rscale>  0 0.12499630E+03</rscale>
<asrwt>0</asrwt>
<pdfrwt beam="1">  1        4 0.78403475E-02 0.12499630E+03</pdfrwt>
<pdfrwt beam="2">  1       -4 0.11791588E-01 0.12499630E+03</pdfrwt>
<totfact> 0.10396840E+04</totfact>
</mgrwt>
</event>
<event>
 5    1  0.3239419E-002  0.1249965E+03  0.7818608E-02  0.1235075E+00
         -4   -1    0    0    0  501 -0.00000000000E+00  0.00000000000E+00  0.70840948582E+03  0.70841062422E+03  0.12700000000E+01 0.  1.
          4   -1    0    0  501    0  0.00000000000E+00 -0.00000000000E+00 -0.54395137757E+01  0.55858043392E+01  0.12700000000E+01 0.  1.
         25    2    1    2    0    0  0.00000000000E+00  0.00000000000E+00  0.70296997205E+03  0.71399642856E+03  0.12499647352E+03 0.  0.
    9000005    1    3    3    0    0 -0.47742252894E+02 -0.22048559130E+02  0.54431222713E+03  0.54684756768E+03  0.10000000000E+01 0.  0.
    9000005    1    3    3    0    0  0.47742252894E+02  0.22048559130E+02  0.15865774492E+03  0.16714886088E+03  0.10000000000E+01 0.  0.
<mgrwt>
<rscale>  0 0.12499647E+03</rscale>
<asrwt>0</asrwt>
<pdfrwt beam="2">  1        4 0.84818851E-03 0.12499647E+03</pdfrwt>
<pdfrwt beam="1">  1       -4 0.10899747E+00 0.12499647E+03</pdfrwt>
<totfact> 0.42361319E+03</totfact>
</mgrwt>
</event>
<event>
 5    1  0.3239419E-002  0.1250011E+03  0.7818608E-02  0.1235068E+00
         -4   -1    0    0    0  501 -0.00000000000E+00  0.00000000000E+00  0.13014039343E+03  0.13014659005E+03  0.12700000000E+01 0. -1.
          4   -1    0    0  501    0  0.00000000000E+00 -0.00000000000E+00 -0.29995826780E+02  0.30022700149E+02  0.12700000000E+01 0. -1.
         25    2    1    2    0    0  0.00000000000E+00  0.00000000000E+00  0.10014456665E+03  0.16016929020E+03  0.12500106917E+03 0.  0.
    9000005    1    3    3    0    0  0.24773580452E+02 -0.54703787335E+02  0.27912740476E+02  0.66229568306E+02  0.10000000000E+01 0.  0.
    9000005    1    3    3    0    0 -0.24773580452E+02  0.54703787335E+02  0.72231826174E+02  0.93939721894E+02  0.10000000000E+01 0.  0.
<mgrwt>
<rscale>  0 0.12500107E+03</rscale>
<asrwt>0</asrwt>
<pdfrwt beam="2">  1        4 0.46172863E-02 0.12500107E+03</pdfrwt>
<pdfrwt beam="1">  1       -4 0.20024143E-01 0.12500107E+03</pdfrwt>
<totfact> 0.97307818E+03</totfact>
</mgrwt>
</event>
<event>
 5    1  0.3239419E-002  0.1249984E+03  0.7818608E-02  0.1235072E+00
          4   -1    0    0  501    0  0.00000000000E+00  0.00000000000E+00  0.24551802444E+03  0.24552130911E+03  0.12700000000E+01 0. -1.
         -4   -1    0    0    0  501 -0.00000000000E+00 -0.00000000000E+00 -0.15881079810E+02  0.15931779434E+02  0.12700000000E+01 0. -1.
         25    2    1    2    0    0  0.00000000000E+00  0.00000000000E+00  0.22963694463E+03  0.26145308854E+03  0.12499836466E+03 0.  0.
    9000005    1    3    3    0    0 -0.19155091250E+02  0.59001129125E+02  0.13062353476E+03  0.14460829365E+03  0.10000000000E+01 0.  0.
    9000005    1    3    3    0    0  0.19155091250E+02 -0.59001129125E+02  0.99013409869E+02  0.11684479489E+03  0.10000000000E+01 0.  0.
<mgrwt>
<rscale>  0 0.12499836E+03</rscale>
<asrwt>0</asrwt>
<pdfrwt beam="1">  1        4 0.37776154E-01 0.12499836E+03</pdfrwt>
<pdfrwt beam="2">  1       -4 0.24473958E-02 0.12499836E+03</pdfrwt>
<totfact> 0.80705510E+03</totfact>
</mgrwt>
</event>
<event>
 5    1  0.3239419E-002  0.1249922E+03  0.7818608E-02  0.1235081E+00
         -4   -1    0    0    0  501 -0.00000000000E+00  0.00000000000E+00  0.10197825483E+01  0.16287591736E+01  0.12700000000E+01 0.  1.
          4   -1    0    0  501    0  0.00000000000E+00 -0.00000000000E+00 -0.29487605659E+04  0.29487608394E+04  0.12700000000E+01 0.  1.
         25    2    1    2    0    0  0.00000000000E+00  0.00000000000E+00 -0.29477407834E+04  0.29503895986E+04  0.12499222962E+03 0.  0.
    9000005    1    3    3    0    0  0.28156890870E+02 -0.87179035666E+01 -0.17327022579E+03  0.17576229257E+03  0.10000000000E+01 0.  0.
    9000005    1    3    3    0    0 -0.28156890870E+02  0.87179035666E+01 -0.27744705576E+04  0.27746273060E+04  0.10000000000E+01 0.  0.
<mgrwt>
<rscale>  0 0.12499223E+03</rscale>
<asrwt>0</asrwt>
<pdfrwt beam="2">  1        4 0.45369708E+00 0.12499223E+03</pdfrwt>
<pdfrwt beam="1">  1       -4 0.20375738E-03 0.12499223E+03</pdfrwt>
<totfact> 0.20151692E+02</totfact>
</mgrwt>
</event>
<event>
 5    1  0.3239419E-002  0.1249799E+03  0.7818608E-02  0.1235101E+00
          4   -1    0    0  501    0  0.00000000000E+00  0.00000000000E+00  0.18141481876E+03  0.18141926404E+03  0.12700000000E+01 0. -1.
         -4   -1    0    0    0  501 -0.00000000000E+00 -0.00000000000E+00 -0.21501783357E+02  0.21539256894E+02  0.12700000000E+01 0. -1.
         25    2    1    2    0    0  0.00000000000E+00  0.00000000000E+00  0.15991303540E+03  0.20295852094E+03  0.12497992770E+03 0.  0.
    9000005    1    3    3    0    0 -0.19700175540E+02  0.29874156499E+02 -0.32202510997E+01  0.35943457819E+02  0.10000000000E+01 0.  0.
    9000005    1    3    3    0    0  0.19700175540E+02 -0.29874156499E+02  0.16313328650E+03  0.16701506312E+03  0.10000000000E+01 0.  0.
<mgrwt>
<rscale>  0 0.12497993E+03</rscale>
<asrwt>0</asrwt>
<pdfrwt beam="1">  1        4 0.27913196E-01 0.12497993E+03</pdfrwt>
<pdfrwt beam="2">  1       -4 0.33111913E-02 0.12497993E+03</pdfrwt>
<totfact> 0.89679179E+03</totfact>
</mgrwt>
</event>
<event>
 5    1  0.3239419E-002  0.1250003E+03  0.7818608E-02  0.1235069E+00
         -4   -1    0    0    0  501 -0.00000000000E+00  0.00000000000E+00  0.40330700328E+01  0.42283039022E+01  0.12700000000E+01 0. -1.
          4   -1    0    0  501    0  0.00000000000E+00 -0.00000000000E+00 -0.94547506395E+03  0.94547591691E+03  0.12700000000E+01 0. -1.
         25    2    1    2    0    0  0.00000000000E+00  0.00000000000E+00 -0.94144199392E+03  0.94970422081E+03  0.12500031645E+03 0.  0.
    9000005    1    3    3    0    0 -0.59387686681E+02 -0.11858089418E+02 -0.58787172044E+03  0.59098364724E+03  0.10000000000E+01 0.  0.
    9000005    1    3    3    0    0  0.59387686681E+02  0.11858089418E+02 -0.35357027348E+03  0.35872057357E+03  0.10000000000E+01 0.  0.
<mgrwt>
<rscale>  0 0.12500032E+03</rscale>
<asrwt>0</asrwt>
<pdfrwt beam="2">  1        4 0.14547261E+00 0.12500032E+03</pdfrwt>
<pdfrwt beam="1">  1       -4 0.63555667E-03 0.12500032E+03</pdfrwt>
<totfact> 0.32326289E+03</totfact>
</mgrwt>
</event>
<event>
 5    1  0.3239419E-002  0.1249999E+03  0.7818608E-02  0.1235069E+00
         -4   -1    0    0    0  501 -0.00000000000E+00  0.00000000000E+00  0.24513623537E+02  0.24546499525E+02  0.12700000000E+01 0. -1.
          4   -1    0    0  501    0  0.00000000000E+00 -0.00000000000E+00 -0.15920783676E+03  0.15921290207E+03  0.12700000000E+01 0. -1.
         25    2    1    2    0    0  0.00000000000E+00  0.00000000000E+00 -0.13469421323E+03  0.18375940160E+03  0.12499994640E+03 0.  0.
    9000005    1    3    3    0    0  0.48525238512E+02  0.38549543996E+02 -0.79151782216E+02  0.10053243627E+03  0.10000000000E+01 0.  0.
    9000005    1    3    3    0    0 -0.48525238512E+02 -0.38549543996E+02 -0.55542431009E+02  0.83226965326E+02  0.10000000000E+01 0.  0.
<mgrwt>
<rscale>  0 0.12499995E+03</rscale>
<asrwt>0</asrwt>
<pdfrwt beam="2">  1        4 0.24496431E-01 0.12499995E+03</pdfrwt>
<pdfrwt beam="1">  1       -4 0.37742454E-02 0.12499995E+03</pdfrwt>
<totfact> 0.92944754E+03</totfact>
</mgrwt>
</event>
<event>
 5    1  0.3239419E-002  0.1250056E+03  0.7818608E-02  0.1235061E+00
          4   -1    0    0  501    0  0.00000000000E+00  0.00000000000E+00  0.41767776911E+02  0.41787080397E+02  0.12700000000E+01 0. -1.
         -4   -1    0    0    0  501 -0.00000000000E+00 -0.00000000000E+00 -0.93486138902E+02  0.93494764917E+02  0.12700000000E+01 0. -1.
         25    2    1    2    0    0  0.00000000000E+00  0.00000000000E+00 -0.51718361991E+02  0.13528184531E+03  0.12500555469E+03 0.  0.
    9000005    1    3    3    0    0  0.36136061451E+02 -0.28725170921E+02 -0.71448821915E+02  0.85069880302E+02  0.10000000000E+01 0.  0.
    9000005    1    3    3    0    0 -0.36136061451E+02  0.28725170921E+02  0.19730459923E+02  0.50211965012E+02  0.10000000000E+01 0.  0.
<mgrwt>
<rscale>  0 0.12500555E+03</rscale>
<asrwt>0</asrwt>
<pdfrwt beam="1">  1        4 0.64279603E-02 0.12500555E+03</pdfrwt>
<pdfrwt beam="2">  1       -4 0.14384631E-01 0.12500555E+03</pdfrwt>
<totfact> 0.10230852E+04</totfact>
</mgrwt>
</event>
<event>
 5    1  0.3239419E-002  0.1249976E+03  0.7818608E-02  0.1235073E+00
          4   -1    0    0  501    0  0.00000000000E+00  0.00000000000E+00  0.20050488945E+03  0.20050891151E+03  0.12700000000E+01 0. -1.
         -4   -1    0    0    0  501 -0.00000000000E+00 -0.00000000000E+00 -0.19456391016E+02  0.19497796064E+02  0.12700000000E+01 0. -1.
         25    2    1    2    0    0  0.00000000000E+00  0.00000000000E+00  0.18104849844E+03  0.22000670757E+03  0.12499757034E+03 0.  0.
    9000005    1    3    3    0    0 -0.26183787132E+02  0.10609480257E+02 -0.75830293083E+01  0.29268654109E+02  0.10000000000E+01 0.  0.
    9000005    1    3    3    0    0  0.26183787132E+02 -0.10609480257E+02  0.18863152774E+03  0.19073805346E+03  0.10000000000E+01 0.  0.
<mgrwt>
<rscale>  0 0.12499757E+03</rscale>
<asrwt>0</asrwt>
<pdfrwt beam="1">  1        4 0.30850400E-01 0.12499757E+03</pdfrwt>
<pdfrwt beam="2">  1       -4 0.29967854E-02 0.12499757E+03</pdfrwt>
<totfact> 0.86872003E+03</totfact>
</mgrwt>
</event>
<event>
 5    1  0.3239419E-002  0.1249945E+03  0.7818608E-02  0.1235078E+00
         -4   -1    0    0    0  501 -0.00000000000E+00  0.00000000000E+00  0.23777905777E+02  0.23811797562E+02  0.12700000000E+01 0. -1.
          4   -1    0    0  501    0  0.00000000000E+00 -0.00000000000E+00 -0.16411280021E+03  0.16411771414E+03  0.12700000000E+01 0. -1.
         25    2    1    2    0    0  0.00000000000E+00  0.00000000000E+00 -0.14033489443E+03  0.18792951170E+03  0.12499447496E+03 0.  0.
    9000005    1    3    3    0    0 -0.45579682261E+01  0.44655501332E+02 -0.48037080493E+01  0.45154894359E+02  0.10000000000E+01 0.  0.
    9000005    1    3    3    0    0  0.45579682261E+01 -0.44655501332E+02 -0.13553118639E+03  0.14277461734E+03  0.10000000000E+01 0.  0.
<mgrwt>
<rscale>  0 0.12499447E+03</rscale>
<asrwt>0</asrwt>
<pdfrwt beam="2">  1        4 0.25251107E-01 0.12499447E+03</pdfrwt>
<pdfrwt beam="1">  1       -4 0.36611245E-02 0.12499447E+03</pdfrwt>
<totfact> 0.92220241E+03</totfact>
</mgrwt>
</event>
<event>
 5    1  0.3239419E-002  0.1249990E+03  0.7818608E-02  0.1235071E+00
         -4   -1    0    0    0  501 -0.00000000000E+00  0.00000000000E+00  0.35417206336E+03  0.35417434035E+03  0.12700000000E+01 0. -1.
          4   -1    0    0  501    0  0.00000000000E+00 -0.00000000000E+00 -0.10990188291E+02  0.11063324033E+02  0.12700000000E+01 0. -1.
         25    2    1    2    0    0  0.00000000000E+00  0.00000000000E+00  0.34318187507E+03  0.36523766438E+03  0.12499900844E+03 0.  0.
    9000005    1    3    3    0    0 -0.19514465269E+02  0.56752660693E+02  0.22249528827E+03  0.23044919646E+03  0.10000000000E+01 0.  0.
    9000005    1    3    3    0    0  0.19514465269E+02 -0.56752660693E+02  0.12068658680E+03  0.13478846792E+03  0.10000000000E+01 0.  0.
<mgrwt>
<rscale>  0 0.12499901E+03</rscale>
<asrwt>0</asrwt>
<pdfrwt beam="2">  1        4 0.16965991E-02 0.12499901E+03</pdfrwt>
<pdfrwt beam="1">  1       -4 0.54493812E-01 0.12499901E+03</pdfrwt>
<totfact> 0.68081617E+03</totfact>
</mgrwt>
</event>
<event>
 5    1  0.3239419E-002  0.1249958E+03  0.7818608E-02  0.1235076E+00
         -4   -1    0    0    0  501 -0.00000000000E+00  0.00000000000E+00  0.18568158614E+03  0.18568592927E+03  0.12700000000E+01 0.  1.
          4   -1    0    0  501    0  0.00000000000E+00 -0.00000000000E+00 -0.21012175525E+02  0.21050520665E+02  0.12700000000E+01 0.  1.
         25    2    1    2    0    0  0.00000000000E+00  0.00000000000E+00  0.16466941061E+03  0.20673644994E+03  0.12499577970E+03 0.  0.
    9000005    1    3    3    0    0  0.32910101367E+02  0.21756549725E+02  0.21811289412E+01  0.39524417154E+02  0.10000000000E+01 0.  0.
    9000005    1    3    3    0    0 -0.32910101367E+02 -0.21756549725E+02  0.16248828167E+03  0.16721203279E+03  0.10000000000E+01 0.  0.
<mgrwt>
<rscale>  0 0.12499578E+03</rscale>
<asrwt>0</asrwt>
<pdfrwt beam="2">  1        4 0.32359260E-02 0.12499578E+03</pdfrwt>
<pdfrwt beam="1">  1       -4 0.28569683E-01 0.12499578E+03</pdfrwt>
<totfact> 0.89020050E+03</totfact>
</mgrwt>
</event>
<event>
 5    1  0.3239419E-002  0.1250025E+03  0.7818608E-02  0.1235065E+00
         -4   -1    0    0    0  501 -0.00000000000E+00  0.00000000000E+00  0.14244881622E+02  0.14301382885E+02  0.12700000000E+01 0. -1.
          4   -1    0    0  501    0  0.00000000000E+00 -0.00000000000E+00 -0.27363152615E+03  0.27363447335E+03  0.12700000000E+01 0. -1.
         25    2    1    2    0    0  0.00000000000E+00  0.00000000000E+00 -0.25938664453E+03  0.28793585623E+03  0.12500250375E+03 0.  0.
    9000005    1    3    3    0    0  0.44629043848E+02 -0.35977665794E+02 -0.72372233924E+02  0.92330299653E+02  0.10000000000E+01 0.  0.
    9000005    1    3    3    0    0 -0.44629043848E+02  0.35977665794E+02 -0.18701441060E+03  0.19560555658E+03  0.10000000000E+01 0.  0.
<mgrwt>
<rscale>  0 0.12500250E+03</rscale>
<asrwt>0</asrwt>
<pdfrwt beam="2">  1        4 0.42101727E-01 0.12500250E+03</pdfrwt>
<pdfrwt beam="1">  1       -4 0.21960934E-02 0.12500250E+03</pdfrwt>
<totfact> 0.77133210E+03</totfact>
</mgrwt>
</event>
<event>
 5    1  0.3239419E-002  0.1250010E+03  0.7818608E-02  0.1235068E+00
         -4   -1    0    0    0  501 -0.00000000000E+00  0.00000000000E+00  0.49688946843E+03  0.49689109143E+03  0.12700000000E+01 0.  1.
          4   -1    0    0  501    0  0.00000000000E+00 -0.00000000000E+00 -0.78085922844E+01  0.79111954510E+01  0.12700000000E+01 0.  1.
         25    2    1    2    0    0  0.00000000000E+00  0.00000000000E+00  0.48908087615E+03  0.50480228688E+03  0.12500098169E+03 0.  0.
    9000005    1    3    3    0    0 -0.61534581994E+01 -0.28044246989E+02  0.20383916139E+02  0.35225684864E+02  0.10000000000E+01 0.  0.
    9000005    1    3    3    0    0  0.61534581994E+01  0.28044246989E+02  0.46869696001E+03  0.46957660202E+03  0.10000000000E+01 0.  0.
<mgrwt>
<rscale>  0 0.12500098E+03</rscale>
<asrwt>0</asrwt>
<pdfrwt beam="2">  1        4 0.12093395E-02 0.12500098E+03</pdfrwt>
<pdfrwt beam="1">  1       -4 0.76452541E-01 0.12500098E+03</pdfrwt>
<totfact> 0.55492490E+03</totfact>
</mgrwt>
</event>
<event>
 5    1  0.3239419E-002  0.1250000E+03  0.7818608E-02  0.1235069E+00
          4   -1    0    0  501    0  0.00000000000E+00  0.00000000000E+00  0.64938920008E+03  0.64939044193E+03  0.12700000000E+01 0. -1.
         -4   -1    0    0    0  501 -0.00000000000E+00 -0.00000000000E+00 -0.59469718039E+01  0.60810668173E+01  0.12700000000E+01 0. -1.
         25    2    1    2    0    0  0.00000000000E+00  0.00000000000E+00  0.64344222827E+03  0.65547150875E+03  0.12499999064E+03 0.  0.
    9000005    1    3    3    0    0 -0.22491176707E+02 -0.53896082388E+02  0.20510066513E+03  0.21325553583E+03  0.10000000000E+01 0.  0.
    9000005    1    3    3    0    0  0.22491176707E+02  0.53896082388E+02  0.43834156315E+03  0.44221597292E+03  0.10000000000E+01 0.  0.
<mgrwt>
<rscale>  0 0.12499999E+03</rscale>
<asrwt>0</asrwt>
<pdfrwt beam="1">  1        4 0.99916454E-01 0.12499999E+03</pdfrwt>
<pdfrwt beam="2">  1       -4 0.92532915E-03 0.12499999E+03</pdfrwt>
<totfact> 0.45543162E+03</totfact>
</mgrwt>
</event>
<event>
 5    1  0.3239419E-002  0.1250086E+03  0.7818608E-02  0.1235056E+00
          4   -1    0    0  501    0  0.00000000000E+00  0.00000000000E+00  0.18082529627E+02  0.18127073060E+02  0.12700000000E+01 0. -1.
         -4   -1    0    0    0  501 -0.00000000000E+00 -0.00000000000E+00 -0.21574105135E+03  0.21574478936E+03  0.12700000000E+01 0. -1.
         25    2    1    2    0    0  0.00000000000E+00  0.00000000000E+00 -0.19765852172E+03  0.23387186242E+03  0.12500862700E+03 0.  0.
    9000005    1    3    3    0    0 -0.56537331446E+01 -0.60795341958E+02 -0.73886535922E+02  0.95855404088E+02  0.10000000000E+01 0.  0.
    9000005    1    3    3    0    0  0.56537331446E+01  0.60795341958E+02 -0.12377198580E+03  0.13801645833E+03  0.10000000000E+01 0.  0.
<mgrwt>
<rscale>  0 0.12500863E+03</rscale>
<asrwt>0</asrwt>
<pdfrwt beam="1">  1        4 0.27856417E-02 0.12500863E+03</pdfrwt>
<pdfrwt beam="2">  1       -4 0.33194643E-01 0.12500863E+03</pdfrwt>
<totfact> 0.84702295E+03</totfact>
</mgrwt>
</event>
<event>
 5    1  0.3239419E-002  0.1249983E+03  0.7818608E-02  0.1235072E+00
          4   -1    0    0  501    0  0.00000000000E+00  0.00000000000E+00  0.21562247491E+02  0.21599616127E+02  0.12700000000E+01 0.  1.
         -4   -1    0    0    0  501 -0.00000000000E+00 -0.00000000000E+00 -0.18096004541E+03  0.18096450186E+03  0.12700000000E+01 0.  1.
         25    2    1    2    0    0  0.00000000000E+00  0.00000000000E+00 -0.15939779791E+03  0.20256411799E+03  0.12499825565E+03 0.  0.
    9000005    1    3    3    0    0 -0.15111537067E+02  0.46626235581E+02 -0.16877764590E+02  0.51848079372E+02  0.10000000000E+01 0.  0.
    9000005    1    3    3    0    0  0.15111537067E+02 -0.46626235581E+02 -0.14252003332E+03  0.15071603861E+03  0.10000000000E+01 0.  0.
<mgrwt>
<rscale>  0 0.12499826E+03</rscale>
<asrwt>0</asrwt>
<pdfrwt beam="1">  1        4 0.33204863E-02 0.12499826E+03</pdfrwt>
<pdfrwt beam="2">  1       -4 0.27843223E-01 0.12499826E+03</pdfrwt>
<totfact> 0.89708343E+03</totfact>
</mgrwt>
</event>
<event>
 5    1  0.3239419E-002  0.1249991E+03  0.7818608E-02  0.1235071E+00
          4   -1    0    0  501    0  0.00000000000E+00  0.00000000000E+00  0.12953868923E+03  0.12954491464E+03  0.12700000000E+01 0.  1.
         -4   -1    0    0    0  501 -0.00000000000E+00 -0.00000000000E+00 -0.30134321684E+02  0.30161071655E+02  0.12700000000E+01 0.  1.
         25    2    1    2    0    0  0.00000000000E+00  0.00000000000E+00  0.99404367549E+02  0.15970598629E+03  0.12499909508E+03 0.  0.
    9000005    1    3    3    0    0 -0.13924014595E+02  0.96362979320E+00 -0.28123673308E+02  0.31412541527E+02  0.10000000000E+01 0.  0.
    9000005    1    3    3    0    0  0.13924014595E+02 -0.96362979320E+00  0.12752804086E+03  0.12829344476E+03  0.10000000000E+01 0.  0.
<mgrwt>
<rscale>  0 0.12499910E+03</rscale>
<asrwt>0</asrwt>
<pdfrwt beam="1">  1        4 0.19931566E-01 0.12499910E+03</pdfrwt>
<pdfrwt beam="2">  1       -4 0.46385860E-02 0.12499910E+03</pdfrwt>
<totfact> 0.97401479E+03</totfact>
</mgrwt>
</event>
<event>
 5    1  0.3239419E-002  0.1249896E+03  0.7818608E-02  0.1235086E+00
         -4   -1    0    0    0  501 -0.00000000000E+00  0.00000000000E+00  0.88490927194E+02  0.88500040088E+02  0.12700000000E+01 0.  1.
          4   -1    0    0  501    0  0.00000000000E+00 -0.00000000000E+00 -0.44115064619E+02  0.44133341436E+02  0.12700000000E+01 0.  1.
         25    2    1    2    0    0  0.00000000000E+00  0.00000000000E+00  0.44375862575E+02  0.13263338152E+03  0.12498958643E+03 0.  0.
    9000005    1    3    3    0    0  0.20857593989E+01 -0.11545386889E+00 -0.44083206094E+02  0.44144000514E+02  0.10000000000E+01 0.  0.
    9000005    1    3    3    0    0 -0.20857593989E+01  0.11545386889E+00  0.88459068669E+02  0.88489381011E+02  0.10000000000E+01 0.  0.
<mgrwt>
<rscale>  0 0.12498959E+03</rscale>
<asrwt>0</asrwt>
<pdfrwt beam="2">  1        4 0.67890400E-02 0.12498959E+03</pdfrwt>
<pdfrwt beam="1">  1       -4 0.13616096E-01 0.12498959E+03</pdfrwt>
<totfact> 0.10290615E+04</totfact>
</mgrwt>
</event>
<event>
 5    1  0.3239419E-002  0.1250037E+03  0.7818608E-02  0.1235063E+00
          4   -1    0    0  501    0  0.00000000000E+00  0.00000000000E+00  0.38522916611E+03  0.38523125954E+03  0.12700000000E+01 0.  1.
         -4   -1    0    0    0  501 -0.00000000000E+00 -0.00000000000E+00 -0.10098780596E+02  0.10178323512E+02  0.12700000000E+01 0.  1.
         25    2    1    2    0    0  0.00000000000E+00  0.00000000000E+00  0.37513038552E+03  0.39540958305E+03  0.12500372886E+03 0.  0.
    9000005    1    3    3    0    0  0.45834176661E+02 -0.61675806924E+00  0.32192900509E+03  0.32517754606E+03  0.10000000000E+01 0.  0.
    9000005    1    3    3    0    0 -0.45834176661E+02  0.61675806924E+00  0.53201380425E+02  0.70232036991E+02  0.10000000000E+01 0.  0.
<mgrwt>
<rscale>  0 0.12500373E+03</rscale>
<asrwt>0</asrwt>
<pdfrwt beam="1">  1        4 0.59272306E-01 0.12500373E+03</pdfrwt>
<pdfrwt beam="2">  1       -4 0.15599383E-02 0.12500373E+03</pdfrwt>
<totfact> 0.64996355E+03</totfact>
</mgrwt>
</event>
<event>
 5    1  0.3239419E-002  0.1250014E+03  0.7818608E-02  0.1235067E+00
         -4   -1    0    0    0  501 -0.00000000000E+00  0.00000000000E+00  0.15820012308E+02  0.15870907014E+02  0.12700000000E+01 0.  1.
          4   -1    0    0  501    0  0.00000000000E+00 -0.00000000000E+00 -0.24647482377E+03  0.24647809568E+03  0.12700000000E+01 0.  1.
         25    2    1    2    0    0  0.00000000000E+00  0.00000000000E+00 -0.23065481146E+03  0.26234900270E+03  0.12500142866E+03 0.  0.
    9000005    1    3    3    0    0  0.29970259825E+02 -0.54729511610E+02 -0.10811686934E+03  0.12483506459E+03  0.10000000000E+01 0.  0.
    9000005    1    3    3    0    0 -0.29970259825E+02  0.54729511610E+02 -0.12253794212E+03  0.13751393811E+03  0.10000000000E+01 0.  0.
<mgrwt>
<rscale>  0 0.12500143E+03</rscale>
<asrwt>0</asrwt>
<pdfrwt beam="2">  1        4 0.37923368E-01 0.12500143E+03</pdfrwt>
<pdfrwt beam="1">  1       -4 0.24380149E-02 0.12500143E+03</pdfrwt>
<totfact> 0.80574977E+03</totfact>
</mgrwt>
</event>
<event>
 5    1  0.3239419E-002  0.1250019E+03  0.7818608E-02  0.1235066E+00
         -4   -1    0    0    0  501 -0.00000000000E+00  0.00000000000E+00  0.55528008436E+02  0.55542529838E+02  0.12700000000E+01 0. -1.
          4   -1    0    0  501    0  0.00000000000E+00 -0.00000000000E+00 -0.70320074523E+02  0.70331541864E+02  0.12700000000E+01 0. -1.
         25    2    1    2    0    0  0.00000000000E+00  0.00000000000E+00 -0.14792066087E+02  0.12587407170E+03  0.12500190682E+03 0.  0.
    9000005    1    3    3    0    0 -0.35175384541E+02 -0.42127240942E+02  0.22701588862E+02  0.59400119898E+02  0.10000000000E+01 0.  0.
    9000005    1    3    3    0    0  0.35175384541E+02  0.42127240942E+02 -0.37493654949E+02  0.66473951804E+02  0.10000000000E+01 0.  0.
<mgrwt>
<rscale>  0 0.12500191E+03</rscale>
<asrwt>0</asrwt>
<pdfrwt beam="2">  1        4 0.10820472E-01 0.12500191E+03</pdfrwt>
<pdfrwt beam="1">  1       -4 0.85447697E-02 0.12500191E+03</pdfrwt>
<totfact> 0.10433270E+04</totfact>
</mgrwt>
</event>
<event>
 5    1  0.3239419E-002  0.1249986E+03  0.7818608E-02  0.1235072E+00
          4   -1    0    0  501    0  0.00000000000E+00  0.00000000000E+00  0.16233942048E+03  0.16234438809E+03  0.12700000000E+01 0.  1.
         -4   -1    0    0    0  501 -0.00000000000E+00 -0.00000000000E+00 -0.24039592453E+02  0.24073115821E+02  0.12700000000E+01 0.  1.
         25    2    1    2    0    0  0.00000000000E+00  0.00000000000E+00  0.13829982803E+03  0.18641750391E+03  0.12499857331E+03 0.  0.
    9000005    1    3    3    0    0  0.31793816278E+02 -0.25436740929E+02 -0.15486891950E+01  0.40758716624E+02  0.10000000000E+01 0.  0.
    9000005    1    3    3    0    0 -0.31793816278E+02  0.25436740929E+02  0.13984851722E+03  0.14565878728E+03  0.10000000000E+01 0.  0.
<mgrwt>
<rscale>  0 0.12499857E+03</rscale>
<asrwt>0</asrwt>
<pdfrwt beam="1">  1        4 0.24978256E-01 0.12499857E+03</pdfrwt>
<pdfrwt beam="2">  1       -4 0.37013598E-02 0.12499857E+03</pdfrwt>
<totfact> 0.92477377E+03</totfact>
</mgrwt>
</event>
<event>
 5    1  0.3239419E-002  0.1249974E+03  0.7818608E-02  0.1235073E+00
          4   -1    0    0  501    0  0.00000000000E+00  0.00000000000E+00  0.23794833157E+02  0.23828700866E+02  0.12700000000E+01 0.  1.
         -4   -1    0    0    0  501 -0.00000000000E+00 -0.00000000000E+00 -0.16400393765E+03  0.16400885484E+03  0.12700000000E+01 0.  1.
         25    2    1    2    0    0  0.00000000000E+00  0.00000000000E+00 -0.14020910449E+03  0.18783755570E+03  0.12499741737E+03 0.  0.
    9000005    1    3    3    0    0 -0.27424387660E+02 -0.14041052603E+01  0.14249698191E+02  0.30953553086E+02  0.10000000000E+01 0.  0.
    9000005    1    3    3    0    0  0.27424387660E+02  0.14041052603E+01 -0.15445880269E+03  0.15688400262E+03  0.10000000000E+01 0.  0.
<mgrwt>
<rscale>  0 0.12499742E+03</rscale>
<asrwt>0</asrwt>
<pdfrwt beam="1">  1        4 0.36637271E-02 0.12499742E+03</pdfrwt>
<pdfrwt beam="2">  1       -4 0.25234358E-01 0.12499742E+03</pdfrwt>
<totfact> 0.92230277E+03</totfact>
</mgrwt>
</event>
<event>
 5    1  0.3239419E-002  0.1249981E+03  0.7818608E-02  0.1235072E+00
          4   -1    0    0  501    0  0.00000000000E+00  0.00000000000E+00  0.50984475989E+03  0.50984634164E+03  0.12700000000E+01 0. -1.
         -4   -1    0    0    0  501 -0.00000000000E+00 -0.00000000000E+00 -0.76071728053E+01  0.77124560349E+01  0.12700000000E+01 0. -1.
         25    2    1    2    0    0  0.00000000000E+00  0.00000000000E+00  0.50223758709E+03  0.51755879768E+03  0.12499806068E+03 0.  0.
    9000005    1    3    3    0    0 -0.22083887952E+02 -0.48564067913E+02  0.11637877368E+03  0.12802806630E+03  0.10000000000E+01 0.  0.
    9000005    1    3    3    0    0  0.22083887952E+02  0.48564067913E+02  0.38585881341E+03  0.38953073138E+03  0.10000000000E+01 0.  0.
<mgrwt>
<rscale>  0 0.12499806E+03</rscale>
<asrwt>0</asrwt>
<pdfrwt beam="1">  1        4 0.78445919E-01 0.12499806E+03</pdfrwt>
<pdfrwt beam="2">  1       -4 0.11785540E-02 0.12499806E+03</pdfrwt>
<totfact> 0.54529602E+03</totfact>
</mgrwt>
</event>
<event>
 5    1  0.3239419E-002  0.1249984E+03  0.7818608E-02  0.1235072E+00
         -4   -1    0    0    0  501 -0.00000000000E+00  0.00000000000E+00  0.29050008642E+02  0.29077756140E+02  0.12700000000E+01 0.  1.
          4   -1    0    0  501    0  0.00000000000E+00 -0.00000000000E+00 -0.13436796296E+03  0.13437396463E+03  0.12700000000E+01 0.  1.
         25    2    1    2    0    0  0.00000000000E+00  0.00000000000E+00 -0.10531795432E+03  0.16345172077E+03  0.12499837407E+03 0.  0.
    9000005    1    3    3    0    0 -0.33455301626E+02  0.48177176613E+02 -0.80852019073E+02  0.99891674035E+02  0.10000000000E+01 0.  0.
    9000005    1    3    3    0    0  0.33455301626E+02 -0.48177176613E+02 -0.24465935243E+02  0.63560046732E+02  0.10000000000E+01 0.  0.
<mgrwt>
<rscale>  0 0.12499837E+03</rscale>
<asrwt>0</asrwt>
<pdfrwt beam="2">  1        4 0.20674590E-01 0.12499837E+03</pdfrwt>
<pdfrwt beam="1">  1       -4 0.44718283E-02 0.12499837E+03</pdfrwt>
<totfact> 0.96684950E+03</totfact>
</mgrwt>
</event>
<event>
 5    1  0.3239419E-002  0.1250005E+03  0.7818608E-02  0.1235068E+00
         -4   -1    0    0    0  501 -0.00000000000E+00  0.00000000000E+00  0.12820935724E+03  0.12821564719E+03  0.12700000000E+01 0.  1.
          4   -1    0    0  501    0  0.00000000000E+00 -0.00000000000E+00 -0.30447720118E+02  0.30474194992E+02  0.12700000000E+01 0.  1.
         25    2    1    2    0    0  0.00000000000E+00  0.00000000000E+00  0.97761637121E+02  0.15868984218E+03  0.12500051327E+03 0.  0.
    9000005    1    3    3    0    0  0.36954250594E+02 -0.50338085069E+02  0.51923054602E+02  0.81219105170E+02  0.10000000000E+01 0.  0.
    9000005    1    3    3    0    0 -0.36954250594E+02  0.50338085069E+02  0.45838582518E+02  0.77470737009E+02  0.10000000000E+01 0.  0.
<mgrwt>
<rscale>  0 0.12500051E+03</rscale>
<asrwt>0</asrwt>
<pdfrwt beam="2">  1        4 0.46867851E-02 0.12500051E+03</pdfrwt>
<pdfrwt beam="1">  1       -4 0.19727037E-01 0.12500051E+03</pdfrwt>
<totfact> 0.97594843E+03</totfact>
</mgrwt>
</event>
<event>
 5    1  0.3239419E-002  0.1249985E+03  0.7818608E-02  0.1235072E+00
         -4   -1    0    0    0  501 -0.00000000000E+00  0.00000000000E+00  0.26641299568E+03  0.26641602273E+03  0.12700000000E+01 0. -1.
          4   -1    0    0  501    0  0.00000000000E+00 -0.00000000000E+00 -0.14631406929E+02  0.14686421236E+02  0.12700000000E+01 0. -1.
         25    2    1    2    0    0  0.00000000000E+00  0.00000000000E+00  0.25178158875E+03  0.28110244397E+03  0.12499846227E+03 0.  0.
    9000005    1    3    3    0    0  0.28790365981E+02 -0.26815204121E+02  0.23507489858E+03  0.23834669767E+03  0.10000000000E+01 0.  0.
    9000005    1    3    3    0    0 -0.28790365981E+02  0.26815204121E+02  0.16706690172E+02  0.42755746302E+02  0.10000000000E+01 0.  0.
<mgrwt>
<rscale>  0 0.12499846E+03</rscale>
<asrwt>0</asrwt>
<pdfrwt beam="2">  1        4 0.22554503E-02 0.12499846E+03</pdfrwt>
<pdfrwt beam="1">  1       -4 0.40991081E-01 0.12499846E+03</pdfrwt>
<totfact> 0.78034820E+03</totfact>
</mgrwt>
</event>
<event>
 5    1  0.3239419E-002  0.1250021E+03  0.7818608E-02  0.1235066E+00
          4   -1    0    0  501    0  0.00000000000E+00  0.00000000000E+00  0.25136458592E+02  0.25168521025E+02  0.12700000000E+01 0.  1.
         -4   -1    0    0    0  501 -0.00000000000E+00 -0.00000000000E+00 -0.15527320726E+03  0.15527840092E+03  0.12700000000E+01 0.  1.
         25    2    1    2    0    0  0.00000000000E+00  0.00000000000E+00 -0.13013674866E+03  0.18044692194E+03  0.12500207313E+03 0.  0.
    9000005    1    3    3    0    0 -0.34135195990E+02  0.19717934439E+02 -0.13506753683E+03  0.14070624737E+03  0.10000000000E+01 0.  0.
    9000005    1    3    3    0    0  0.34135195990E+02 -0.19717934439E+02  0.49307881624E+01  0.39740674575E+02  0.10000000000E+01 0.  0.
<mgrwt>
<rscale>  0 0.12500207E+03</rscale>
<asrwt>0</asrwt>
<pdfrwt beam="1">  1        4 0.38700134E-02 0.12500207E+03</pdfrwt>
<pdfrwt beam="2">  1       -4 0.23891051E-01 0.12500207E+03</pdfrwt>
<totfact> 0.93532270E+03</totfact>
</mgrwt>
</event>
<event>
 5    1  0.3239419E-002  0.1250111E+03  0.7818608E-02  0.1235052E+00
         -4   -1    0    0    0  501 -0.00000000000E+00  0.00000000000E+00  0.67431726219E+02  0.67443684662E+02  0.12700000000E+01 0. -1.
          4   -1    0    0  501    0  0.00000000000E+00 -0.00000000000E+00 -0.57915211124E+02  0.57929134116E+02  0.12700000000E+01 0. -1.
         25    2    1    2    0    0  0.00000000000E+00  0.00000000000E+00  0.95165150952E+01  0.12537281878E+03  0.12501111802E+03 0.  0.
    9000005    1    3    3    0    0 -0.38882767611E+02 -0.43249889627E+01  0.53637038138E+02  0.66396588819E+02  0.10000000000E+01 0.  0.
    9000005    1    3    3    0    0  0.38882767611E+02  0.43249889627E+01 -0.44120523043E+02  0.58976229959E+02  0.10000000000E+01 0.  0.
<mgrwt>
<rscale>  0 0.12501112E+03</rscale>
<asrwt>0</asrwt>
<pdfrwt beam="2">  1        4 0.89120234E-02 0.12501112E+03</pdfrwt>
<pdfrwt beam="1">  1       -4 0.10376103E-01 0.12501112E+03</pdfrwt>
<totfact> 0.10442146E+04</totfact>
</mgrwt>
</event>
<event>
 5    1  0.3239419E-002  0.1250033E+03  0.7818608E-02  0.1235064E+00
          4   -1    0    0  501    0  0.00000000000E+00  0.00000000000E+00  0.18383751147E+04  0.18383755534E+04  0.12700000000E+01 0. -1.
         -4   -1    0    0    0  501 -0.00000000000E+00 -0.00000000000E+00 -0.19347158622E+01  0.23143088531E+01  0.12700000000E+01 0. -1.
         25    2    1    2    0    0  0.00000000000E+00  0.00000000000E+00  0.18364403989E+04  0.18406898622E+04  0.12500332167E+03 0.  0.
    9000005    1    3    3    0    0 -0.56858751468E+02  0.20533386183E+01  0.53754680303E+03  0.54055036700E+03  0.10000000000E+01 0.  0.
    9000005    1    3    3    0    0  0.56858751468E+02 -0.20533386183E+01  0.12988935958E+04  0.13001394952E+04  0.10000000000E+01 0.  0.
<mgrwt>
<rscale>  0 0.12500332E+03</rscale>
<asrwt>0</asrwt>
<pdfrwt beam="1">  1        4 0.28285582E+00 0.12500332E+03</pdfrwt>
<pdfrwt beam="2">  1       -4 0.32688220E-03 0.12500332E+03</pdfrwt>
<totfact> 0.12086123E+03</totfact>
</mgrwt>
</event>
<event>
 5    1  0.3239419E-002  0.1250021E+03  0.7818608E-02  0.1235066E+00
          4   -1    0    0  501    0  0.00000000000E+00  0.00000000000E+00  0.22963953197E+01  0.26241820563E+01  0.12700000000E+01 0.  1.
         -4   -1    0    0    0  501 -0.00000000000E+00 -0.00000000000E+00 -0.15874447666E+04  0.15874452747E+04  0.12700000000E+01 0.  1.
         25    2    1    2    0    0  0.00000000000E+00  0.00000000000E+00 -0.15851483713E+04  0.15900694567E+04  0.12500207228E+03 0.  0.
    9000005    1    3    3    0    0  0.24850973513E+02 -0.47407117757E+02 -0.38228167445E+03  0.38601202613E+03  0.10000000000E+01 0.  0.
    9000005    1    3    3    0    0 -0.24850973513E+02  0.47407117757E+02 -0.12028666969E+04  0.12040574306E+04  0.10000000000E+01 0.  0.
<mgrwt>
<rscale>  0 0.12500207E+03</rscale>
<asrwt>0</asrwt>
<pdfrwt beam="1">  1        4 0.37854630E-03 0.12500207E+03</pdfrwt>
<pdfrwt beam="2">  1       -4 0.24424671E+00 0.12500207E+03</pdfrwt>
<totfact> 0.16225567E+03</totfact>
</mgrwt>
</event>
<event>
 5    1  0.3239419E-002  0.1250023E+03  0.7818608E-02  0.1235066E+00
          4   -1    0    0  501    0  0.00000000000E+00  0.00000000000E+00  0.15741123250E+04  0.15741128373E+04  0.12700000000E+01 0.  1.
         -4   -1    0    0    0  501 -0.00000000000E+00 -0.00000000000E+00 -0.23186189801E+01  0.26436516365E+01  0.12700000000E+01 0.  1.
         25    2    1    2    0    0  0.00000000000E+00  0.00000000000E+00  0.15717937060E+04  0.15767564889E+04  0.12500228471E+03 0.  0.
    9000005    1    3    3    0    0 -0.56642933680E+02 -0.19669146382E+02  0.56377338959E+03  0.56695390648E+03  0.10000000000E+01 0.  0.
    9000005    1    3    3    0    0  0.56642933680E+02  0.19669146382E+02  0.10080203164E+04  0.10098025824E+04  0.10000000000E+01 0.  0.
<mgrwt>
<rscale>  0 0.12500228E+03</rscale>
<asrwt>0</asrwt>
<pdfrwt beam="1">  1        4 0.24219633E+00 0.12500228E+03</pdfrwt>
<pdfrwt beam="2">  1       -4 0.38175229E-03 0.12500228E+03</pdfrwt>
<totfact> 0.16469128E+03</totfact>
</mgrwt>
</event>
<event>
 5    1  0.3239419E-002  0.1250055E+03  0.7818608E-02  0.1235061E+00
          4   -1    0    0  501    0  0.00000000000E+00  0.00000000000E+00  0.93171820353E+02  0.93180475465E+02  0.12700000000E+01 0. -1.
         -4   -1    0    0    0  501 -0.00000000000E+00 -0.00000000000E+00 -0.41908669765E+02  0.41927908384E+02  0.12700000000E+01 0. -1.
         25    2    1    2    0    0  0.00000000000E+00  0.00000000000E+00  0.51263150588E+02  0.13510838385E+03  0.12500545899E+03 0.  0.
    9000005    1    3    3    0    0  0.57881330245E+02 -0.22113488206E+02  0.34434549114E+02  0.70894237595E+02  0.10000000000E+01 0.  0.
    9000005    1    3    3    0    0 -0.57881330245E+02  0.22113488206E+02  0.16828601474E+02  0.64214146254E+02  0.10000000000E+01 0.  0.
<mgrwt>
<rscale>  0 0.12500546E+03</rscale>
<asrwt>0</asrwt>
<pdfrwt beam="1">  1        4 0.14336272E-01 0.12500546E+03</pdfrwt>
<pdfrwt beam="2">  1       -4 0.64496333E-02 0.12500546E+03</pdfrwt>
<totfact> 0.10234527E+04</totfact>
</mgrwt>
</event>
<event>
 5    1  0.3239419E-002  0.1249725E+03  0.7818608E-02  0.1235112E+00
          4   -1    0    0  501    0  0.00000000000E+00  0.00000000000E+00  0.10038995379E+03  0.10039798665E+03  0.12700000000E+01 0.  1.
         -4   -1    0    0    0  501 -0.00000000000E+00 -0.00000000000E+00 -0.38873703620E+02  0.38894443473E+02  0.12700000000E+01 0.  1.
         25    2    1    2    0    0  0.00000000000E+00  0.00000000000E+00  0.61516250175E+02  0.13929243012E+03  0.12497252519E+03 0.  0.
    9000005    1    3    3    0    0 -0.10121370788E+02 -0.44353935124E+02 -0.16971853575E+02  0.48567041514E+02  0.10000000000E+01 0.  0.
    9000005    1    3    3    0    0  0.10121370788E+02  0.44353935124E+02  0.78488103750E+02  0.90725388607E+02  0.10000000000E+01 0.  0.
<mgrwt>
<rscale>  0 0.12497253E+03</rscale>
<asrwt>0</asrwt>
<pdfrwt beam="1">  1        4 0.15446821E-01 0.12497253E+03</pdfrwt>
<pdfrwt beam="2">  1       -4 0.59827832E-02 0.12497253E+03</pdfrwt>
<totfact> 0.10154556E+04</totfact>
</mgrwt>
</event>
<event>
 5    1  0.3239419E-002  0.1249906E+03  0.7818608E-02  0.1235084E+00
         -4   -1    0    0    0  501 -0.00000000000E+00  0.00000000000E+00  0.14248048513E+03  0.14248614509E+03  0.12700000000E+01 0.  1.
          4   -1    0    0  501    0  0.00000000000E+00 -0.00000000000E+00 -0.27390978586E+02  0.27420404955E+02  0.12700000000E+01 0.  1.
         25    2    1    2    0    0  0.00000000000E+00  0.00000000000E+00  0.11508950655E+03  0.16990655005E+03  0.12499056457E+03 0.  0.
    9000005    1    3    3    0    0 -0.38238378289E+02 -0.33002847442E+02  0.10755163100E+03  0.11882640634E+03  0.10000000000E+01 0.  0.
    9000005    1    3    3    0    0  0.38238378289E+02  0.33002847442E+02  0.75378755476E+01  0.51080143708E+02  0.10000000000E+01 0.  0.
<mgrwt>
<rscale>  0 0.12499056E+03</rscale>
<asrwt>0</asrwt>
<pdfrwt beam="2">  1        4 0.42166956E-02 0.12499056E+03</pdfrwt>
<pdfrwt beam="1">  1       -4 0.21922774E-01 0.12499056E+03</pdfrwt>
<totfact> 0.95486277E+03</totfact>
</mgrwt>
</event>
<event>
 5    1  0.3239419E-002  0.1250013E+03  0.7818608E-02  0.1235067E+00
          4   -1    0    0  501    0  0.00000000000E+00  0.00000000000E+00  0.27533774683E+02  0.27563048604E+02  0.12700000000E+01 0. -1.
         -4   -1    0    0    0  501 -0.00000000000E+00 -0.00000000000E+00 -0.14176656717E+03  0.14177225563E+03  0.12700000000E+01 0. -1.
         25    2    1    2    0    0  0.00000000000E+00  0.00000000000E+00 -0.11423279248E+03  0.16933530423E+03  0.12500125752E+03 0.  0.
    9000005    1    3    3    0    0  0.44306877897E+02 -0.36647584755E+02 -0.23956502916E+02  0.62298145473E+02  0.10000000000E+01 0.  0.
    9000005    1    3    3    0    0 -0.44306877897E+02  0.36647584755E+02 -0.90276289567E+02  0.10703715876E+03  0.10000000000E+01 0.  0.
<mgrwt>
<rscale>  0 0.12500126E+03</rscale>
<asrwt>0</asrwt>
<pdfrwt beam="1">  1        4 0.42386548E-02 0.12500126E+03</pdfrwt>
<pdfrwt beam="2">  1       -4 0.21812930E-01 0.12500126E+03</pdfrwt>
<totfact> 0.95569897E+03</totfact>
</mgrwt>
</event>
<event>
 5    1  0.3239419E-002  0.1250006E+03  0.7818608E-02  0.1235068E+00
          4   -1    0    0  501    0  0.00000000000E+00  0.00000000000E+00  0.77528183960E+03  0.77528287980E+03  0.12700000000E+01 0.  1.
         -4   -1    0    0    0  501 -0.00000000000E+00 -0.00000000000E+00 -0.49574524331E+01  0.51175418539E+01  0.12700000000E+01 0.  1.
         25    2    1    2    0    0  0.00000000000E+00  0.00000000000E+00  0.77032438716E+03  0.78040042165E+03  0.12500062662E+03 0.  0.
    9000005    1    3    3    0    0 -0.55309666862E+02 -0.57191071166E+01  0.20710349691E+03  0.21444049494E+03  0.10000000000E+01 0.  0.
    9000005    1    3    3    0    0  0.55309666862E+02  0.57191071166E+01  0.56322089025E+03  0.56595992672E+03  0.10000000000E+01 0.  0.
<mgrwt>
<rscale>  0 0.12500063E+03</rscale>
<asrwt>0</asrwt>
<pdfrwt beam="1">  1        4 0.11928656E+00 0.12500063E+03</pdfrwt>
<pdfrwt beam="2">  1       -4 0.77507934E-03 0.12500063E+03</pdfrwt>
<totfact> 0.39154269E+03</totfact>
</mgrwt>
</event>
<event>
 5    1  0.3239419E-002  0.1250024E+03  0.7818608E-02  0.1235066E+00
          4   -1    0    0  501    0  0.00000000000E+00  0.00000000000E+00  0.71076090868E+03  0.71076204331E+03  0.12700000000E+01 0. -1.
         -4   -1    0    0    0  501 -0.00000000000E+00 -0.00000000000E+00 -0.54215605219E+01  0.55683227719E+01  0.12700000000E+01 0. -1.
         25    2    1    2    0    0  0.00000000000E+00  0.00000000000E+00  0.70533934816E+03  0.71633036608E+03  0.12500238921E+03 0.  0.
    9000005    1    3    3    0    0  0.53477784014E+02 -0.41932080340E+01  0.16893989443E+03  0.17725446203E+03  0.10000000000E+01 0.  0.
    9000005    1    3    3    0    0 -0.53477784014E+02  0.41932080340E+01  0.53639945373E+03  0.53907590406E+03  0.10000000000E+01 0.  0.
<mgrwt>
<rscale>  0 0.12500239E+03</rscale>
<asrwt>0</asrwt>
<pdfrwt beam="1">  1        4 0.10935923E+00 0.12500239E+03</pdfrwt>
<pdfrwt beam="2">  1       -4 0.84546278E-03 0.12500239E+03</pdfrwt>
<totfact> 0.42236326E+03</totfact>
</mgrwt>
</event>
<event>
 5    1  0.3239419E-002  0.1249994E+03  0.7818608E-02  0.1235070E+00
          4   -1    0    0  501    0  0.00000000000E+00  0.00000000000E+00  0.39232235050E+01  0.41236613186E+01  0.12700000000E+01 0.  1.
         -4   -1    0    0    0  501 -0.00000000000E+00 -0.00000000000E+00 -0.97066305353E+03  0.97066388436E+03  0.12700000000E+01 0.  1.
         25    2    1    2    0    0  0.00000000000E+00  0.00000000000E+00 -0.96673983003E+03  0.97478754568E+03  0.12499944096E+03 0.  0.
    9000005    1    3    3    0    0 -0.40636788556E+02 -0.19906194903E+02 -0.81947815314E+03  0.82072714629E+03  0.10000000000E+01 0.  0.
    9000005    1    3    3    0    0  0.40636788556E+02  0.19906194903E+02 -0.14726167689E+03  0.15406039939E+03  0.10000000000E+01 0.  0.
<mgrwt>
<rscale>  0 0.12499944E+03</rscale>
<asrwt>0</asrwt>
<pdfrwt beam="1">  1        4 0.61905582E-03 0.12499944E+03</pdfrwt>
<pdfrwt beam="2">  1       -4 0.14934807E+00 0.12499944E+03</pdfrwt>
<totfact> 0.31452364E+03</totfact>
</mgrwt>
</event>
<event>
 5    1  0.3239419E-002  0.1249967E+03  0.7818608E-02  0.1235074E+00
         -4   -1    0    0    0  501 -0.00000000000E+00  0.00000000000E+00  0.75424571163E+02  0.75435262544E+02  0.12700000000E+01 0.  1.
          4   -1    0    0  501    0  0.00000000000E+00 -0.00000000000E+00 -0.51765276933E+02  0.51780853565E+02  0.12700000000E+01 0.  1.
         25    2    1    2    0    0  0.00000000000E+00  0.00000000000E+00  0.23659294230E+02  0.12721611611E+03  0.12499671193E+03 0.  0.
    9000005    1    3    3    0    0  0.51599234254E+02 -0.34915206339E+02  0.16762549450E+02  0.64525465309E+02  0.10000000000E+01 0.  0.
    9000005    1    3    3    0    0 -0.51599234254E+02  0.34915206339E+02  0.68967447801E+01  0.62690650801E+02  0.10000000000E+01 0.  0.
<mgrwt>
<rscale>  0 0.12499671E+03</rscale>
<asrwt>0</asrwt>
<pdfrwt beam="2">  1        4 0.79659094E-02 0.12499671E+03</pdfrwt>
<pdfrwt beam="1">  1       -4 0.11605801E-01 0.12499671E+03</pdfrwt>
<totfact> 0.10405226E+04</totfact>
</mgrwt>
</event>
<event>
 5    1  0.3239419E-002  0.1250025E+03  0.7818608E-02  0.1235065E+00
          4   -1    0    0  501    0  0.00000000000E+00  0.00000000000E+00  0.24895502080E+02  0.24927874434E+02  0.12700000000E+01 0.  1.
         -4   -1    0    0    0  501 -0.00000000000E+00 -0.00000000000E+00 -0.15677518452E+03  0.15678032842E+03  0.12700000000E+01 0.  1.
         25    2    1    2    0    0  0.00000000000E+00  0.00000000000E+00 -0.13187968244E+03  0.18170820286E+03  0.12500248136E+03 0.  0.
    9000005    1    3    3    0    0  0.28118326023E+02  0.49136634763E+02 -0.27470450225E+02  0.62933892059E+02  0.10000000000E+01 0.  0.
    9000005    1    3    3    0    0 -0.28118326023E+02 -0.49136634763E+02 -0.10440923221E+03  0.11877431080E+03  0.10000000000E+01 0.  0.
<mgrwt>
<rscale>  0 0.12500248E+03</rscale>
<asrwt>0</asrwt>
<pdfrwt beam="1">  1        4 0.38329632E-02 0.12500248E+03</pdfrwt>
<pdfrwt beam="2">  1       -4 0.24122144E-01 0.12500248E+03</pdfrwt>
<totfact> 0.93305232E+03</totfact>
</mgrwt>
</event>
<event>
 5    1  0.3239419E-002  0.1249999E+03  0.7818608E-02  0.1235069E+00
         -4   -1    0    0    0  501 -0.00000000000E+00  0.00000000000E+00  0.25841648612E+01  0.28793763266E+01  0.12700000000E+01 0.  1.
          4   -1    0    0  501    0  0.00000000000E+00 -0.00000000000E+00 -0.14296367108E+04  0.14296372749E+04  0.12700000000E+01 0.  1.
         25    2    1    2    0    0  0.00000000000E+00  0.00000000000E+00 -0.14270525459E+04  0.14325166512E+04  0.12499994862E+03 0.  0.
    9000005    1    3    3    0    0  0.14474503267E+02  0.13430746533E+02 -0.13930023434E+04  0.13931426434E+04  0.10000000000E+01 0.  0.
    9000005    1    3    3    0    0 -0.14474503267E+02 -0.13430746533E+02 -0.34050202529E+02  0.39374007791E+02  0.10000000000E+01 0.  0.
<mgrwt>
<rscale>  0 0.12499995E+03</rscale>
<asrwt>0</asrwt>
<pdfrwt beam="2">  1        4 0.21996626E+00 0.12499995E+03</pdfrwt>
<pdfrwt beam="1">  1       -4 0.42031693E-03 0.12499995E+03</pdfrwt>
<totfact> 0.19293815E+03</totfact>
</mgrwt>
</event>
<event>
 5    1  0.3239419E-002  0.1250075E+03  0.7818608E-02  0.1235058E+00
          4   -1    0    0  501    0  0.00000000000E+00  0.00000000000E+00  0.24074543087E+02  0.24108017854E+02  0.12700000000E+01 0.  1.
         -4   -1    0    0    0  501 -0.00000000000E+00 -0.00000000000E+00 -0.16212723448E+03  0.16213220858E+03  0.12700000000E+01 0.  1.
         25    2    1    2    0    0  0.00000000000E+00  0.00000000000E+00 -0.13805269139E+03  0.18624022644E+03  0.12500750515E+03 0.  0.
    9000005    1    3    3    0    0  0.31965637822E+02 -0.33049918024E+02 -0.59654181306E+01  0.46375481628E+02  0.10000000000E+01 0.  0.
    9000005    1    3    3    0    0 -0.31965637822E+02  0.33049918024E+02 -0.13208727326E+03  0.13986474481E+03  0.10000000000E+01 0.  0.
<mgrwt>
<rscale>  0 0.12500751E+03</rscale>
<asrwt>0</asrwt>
<pdfrwt beam="1">  1        4 0.37067336E-02 0.12500751E+03</pdfrwt>
<pdfrwt beam="2">  1       -4 0.24945608E-01 0.12500751E+03</pdfrwt>
<totfact> 0.92490094E+03</totfact>
</mgrwt>
</event>
<event>
 5    1  0.3239419E-002  0.1249997E+03  0.7818608E-02  0.1235070E+00
         -4   -1    0    0    0  501 -0.00000000000E+00  0.00000000000E+00  0.43764301461E+02  0.43782724702E+02  0.12700000000E+01 0.  1.
          4   -1    0    0  501    0  0.00000000000E+00 -0.00000000000E+00 -0.89214428690E+02  0.89223467689E+02  0.12700000000E+01 0.  1.
         25    2    1    2    0    0  0.00000000000E+00  0.00000000000E+00 -0.45450127229E+02  0.13300619239E+03  0.12499973260E+03 0.  0.
    9000005    1    3    3    0    0 -0.46011786998E+02 -0.38502982802E+01 -0.67533193289E+02  0.81814677995E+02  0.10000000000E+01 0.  0.
    9000005    1    3    3    0    0  0.46011786998E+02  0.38502982802E+01  0.22083066059E+02  0.51191514397E+02  0.10000000000E+01 0.  0.
<mgrwt>
<rscale>  0 0.12499973E+03</rscale>
<asrwt>0</asrwt>
<pdfrwt beam="2">  1        4 0.13727409E-01 0.12499973E+03</pdfrwt>
<pdfrwt beam="1">  1       -4 0.67350820E-02 0.12499973E+03</pdfrwt>
<totfact> 0.10280330E+04</totfact>
</mgrwt>
</event>
<event>
 5    1  0.3239419E-002  0.1249991E+03  0.7818608E-02  0.1235071E+00
         -4   -1    0    0    0  501 -0.00000000000E+00  0.00000000000E+00  0.35947111409E+02  0.35969538761E+02  0.12700000000E+01 0. -1.
          4   -1    0    0  501    0  0.00000000000E+00 -0.00000000000E+00 -0.10860504161E+03  0.10861246688E+03  0.12700000000E+01 0. -1.
         25    2    1    2    0    0  0.00000000000E+00  0.00000000000E+00 -0.72657930198E+02  0.14458200564E+03  0.12499912614E+03 0.  0.
    9000005    1    3    3    0    0 -0.36019853292E+02 -0.50868998990E+02 -0.41515993693E+02  0.74897681017E+02  0.10000000000E+01 0.  0.
    9000005    1    3    3    0    0  0.36019853292E+02  0.50868998990E+02 -0.31141936505E+02  0.69684324627E+02  0.10000000000E+01 0.  0.
<mgrwt>
<rscale>  0 0.12499913E+03</rscale>
<asrwt>0</asrwt>
<pdfrwt beam="2">  1        4 0.16710764E-01 0.12499913E+03</pdfrwt>
<pdfrwt beam="1">  1       -4 0.55326212E-02 0.12499913E+03</pdfrwt>
<totfact> 0.10039686E+04</totfact>
</mgrwt>
</event>
<event>
 5    1  0.3239419E-002  0.1249953E+03  0.7818608E-02  0.1235077E+00
          4   -1    0    0  501    0  0.00000000000E+00  0.00000000000E+00  0.50439250206E+02  0.50455236214E+02  0.12700000000E+01 0. -1.
         -4   -1    0    0    0  501 -0.00000000000E+00 -0.00000000000E+00 -0.77405339410E+02  0.77415757240E+02  0.12700000000E+01 0. -1.
         25    2    1    2    0    0  0.00000000000E+00  0.00000000000E+00 -0.26966089203E+02  0.12787099345E+03  0.12499528391E+03 0.  0.
    9000005    1    3    3    0    0 -0.55126688566E+02  0.11803810135E+02 -0.41060112003E+02  0.69751089767E+02  0.10000000000E+01 0.  0.
    9000005    1    3    3    0    0  0.55126688566E+02 -0.11803810135E+02  0.14094022800E+02  0.58119903687E+02  0.10000000000E+01 0.  0.
<mgrwt>
<rscale>  0 0.12499528E+03</rscale>
<asrwt>0</asrwt>
<pdfrwt beam="1">  1        4 0.77619157E-02 0.12499528E+03</pdfrwt>
<pdfrwt beam="2">  1       -4 0.11910545E-01 0.12499528E+03</pdfrwt>
<totfact> 0.10391381E+04</totfact>
</mgrwt>
</event>
<event>
 5    1  0.3239419E-002  0.1250024E+03  0.7818608E-02  0.1235066E+00
          4   -1    0    0  501    0  0.00000000000E+00  0.00000000000E+00  0.92665613796E+01  0.93531844739E+01  0.12700000000E+01 0. -1.
         -4   -1    0    0    0  501 -0.00000000000E+00 -0.00000000000E+00 -0.41950988491E+03  0.41951180727E+03  0.12700000000E+01 0. -1.
         25    2    1    2    0    0  0.00000000000E+00  0.00000000000E+00 -0.41024332353E+03  0.42886499174E+03  0.12500238654E+03 0.  0.
    9000005    1    3    3    0    0  0.16676251436E+02  0.56578680042E+02 -0.13429676259E+03  0.14668287167E+03  0.10000000000E+01 0.  0.
    9000005    1    3    3    0    0 -0.16676251436E+02 -0.56578680042E+02 -0.27594656094E+03  0.28218212008E+03  0.10000000000E+01 0.  0.
<mgrwt>
<rscale>  0 0.12500239E+03</rscale>
<asrwt>0</asrwt>
<pdfrwt beam="1">  1        4 0.14324363E-02 0.12500239E+03</pdfrwt>
<pdfrwt beam="2">  1       -4 0.64546779E-01 0.12500239E+03</pdfrwt>
<totfact> 0.61835760E+03</totfact>
</mgrwt>
</event>
<event>
 5    1  0.3239419E-002  0.1249968E+03  0.7818608E-02  0.1235074E+00
          4   -1    0    0  501    0  0.00000000000E+00  0.00000000000E+00  0.47950098864E+01  0.49603447270E+01  0.12700000000E+01 0. -1.
         -4   -1    0    0    0  501 -0.00000000000E+00 -0.00000000000E+00 -0.80063523896E+03  0.80063624622E+03  0.12700000000E+01 0. -1.
         25    2    1    2    0    0  0.00000000000E+00  0.00000000000E+00 -0.79584022907E+03  0.80559659095E+03  0.12499678851E+03 0.  0.
    9000005    1    3    3    0    0 -0.34307302129E+02 -0.24573539938E+02 -0.10087910671E+03  0.10935467075E+03  0.10000000000E+01 0.  0.
    9000005    1    3    3    0    0  0.34307302129E+02  0.24573539938E+02 -0.69496112236E+03  0.69624192020E+03  0.10000000000E+01 0.  0.
<mgrwt>
<rscale>  0 0.12499679E+03</rscale>
<asrwt>0</asrwt>
<pdfrwt beam="1">  1        4 0.75049001E-03 0.12499679E+03</pdfrwt>
<pdfrwt beam="2">  1       -4 0.12318734E+00 0.12499679E+03</pdfrwt>
<totfact> 0.38018792E+03</totfact>
</mgrwt>
</event>
<event>
 5    1  0.3239419E-002  0.1250130E+03  0.7818608E-02  0.1235049E+00
         -4   -1    0    0    0  501 -0.00000000000E+00  0.00000000000E+00  0.97253245285E+01  0.98078966749E+01  0.12700000000E+01 0. -1.
          4   -1    0    0  501    0  0.00000000000E+00 -0.00000000000E+00 -0.39995936347E+03  0.39996137979E+03  0.12700000000E+01 0. -1.
         25    2    1    2    0    0  0.00000000000E+00  0.00000000000E+00 -0.39023403894E+03  0.40976927647E+03  0.12501301848E+03 0.  0.
    9000005    1    3    3    0    0 -0.24226612938E+02 -0.12879599520E+02 -0.11055326866E+02  0.29597856517E+02  0.10000000000E+01 0.  0.
    9000005    1    3    3    0    0  0.24226612938E+02  0.12879599520E+02 -0.37917871207E+03  0.38017141995E+03  0.10000000000E+01 0.  0.
<mgrwt>
<rscale>  0 0.12501302E+03</rscale>
<asrwt>0</asrwt>
<pdfrwt beam="2">  1        4 0.61538704E-01 0.12501302E+03</pdfrwt>
<pdfrwt beam="1">  1       -4 0.15027109E-02 0.12501302E+03</pdfrwt>
<totfact> 0.63595337E+03</totfact>
</mgrwt>
</event>
<event>
 5    1  0.3239419E-002  0.1249986E+03  0.7818608E-02  0.1235071E+00
          4   -1    0    0  501    0  0.00000000000E+00  0.00000000000E+00  0.31671860852E+02  0.31697313290E+02  0.12700000000E+01 0.  1.
         -4   -1    0    0    0  501 -0.00000000000E+00 -0.00000000000E+00 -0.12325401296E+03  0.12326055577E+03  0.12700000000E+01 0.  1.
         25    2    1    2    0    0  0.00000000000E+00  0.00000000000E+00 -0.91582152103E+02  0.15495786906E+03  0.12499860240E+03 0.  0.
    9000005    1    3    3    0    0  0.52168558639E+02  0.21665798428E+02 -0.12661369753E+02  0.57898839505E+02  0.10000000000E+01 0.  0.
    9000005    1    3    3    0    0 -0.52168558639E+02 -0.21665798428E+02 -0.78920782350E+02  0.97059029558E+02  0.10000000000E+01 0.  0.
<mgrwt>
<rscale>  0 0.12499860E+03</rscale>
<asrwt>0</asrwt>
<pdfrwt beam="1">  1        4 0.48750552E-02 0.12499860E+03</pdfrwt>
<pdfrwt beam="2">  1       -4 0.18964617E-01 0.12499860E+03</pdfrwt>
<totfact> 0.98326861E+03</totfact>
</mgrwt>
</event>
<event>
 5    1  0.3239419E-002  0.1250196E+03  0.7818608E-02  0.1235039E+00
          4   -1    0    0  501    0  0.00000000000E+00  0.00000000000E+00  0.77480192528E+01  0.78514140345E+01  0.12700000000E+01 0. -1.
         -4   -1    0    0    0  501 -0.00000000000E+00 -0.00000000000E+00 -0.50087216456E+03  0.50087377465E+03  0.12700000000E+01 0. -1.
         25    2    1    2    0    0  0.00000000000E+00  0.00000000000E+00 -0.49312414531E+03  0.50872518868E+03  0.12501957813E+03 0.  0.
    9000005    1    3    3    0    0  0.35401087543E+02 -0.50396103382E+02 -0.20321649741E+03  0.21234629513E+03  0.10000000000E+01 0.  0.
    9000005    1    3    3    0    0 -0.35401087543E+02  0.50396103382E+02 -0.28990764789E+03  0.29637889355E+03  0.10000000000E+01 0.  0.
<mgrwt>
<rscale>  0 0.12501958E+03</rscale>
<asrwt>0</asrwt>
<pdfrwt beam="1">  1        4 0.12000807E-02 0.12501958E+03</pdfrwt>
<pdfrwt beam="2">  1       -4 0.77065308E-01 0.12501958E+03</pdfrwt>
<totfact> 0.55169962E+03</totfact>
</mgrwt>
</event>
<event>
 5    1  0.3239419E-002  0.1250007E+03  0.7818608E-02  0.1235068E+00
          4   -1    0    0  501    0  0.00000000000E+00  0.00000000000E+00  0.16076635027E+03  0.16077136648E+03  0.12700000000E+01 0.  1.
         -4   -1    0    0    0  501 -0.00000000000E+00 -0.00000000000E+00 -0.24275944078E+02  0.24309141509E+02  0.12700000000E+01 0.  1.
         25    2    1    2    0    0  0.00000000000E+00  0.00000000000E+00  0.13649040619E+03  0.18508050799E+03  0.12500065381E+03 0.  0.
    9000005    1    3    3    0    0  0.13179337853E+02 -0.27861326022E+02 -0.12246719839E+02  0.33180273971E+02  0.10000000000E+01 0.  0.
    9000005    1    3    3    0    0 -0.13179337853E+02  0.27861326022E+02  0.14873712603E+03  0.15190023401E+03  0.10000000000E+01 0.  0.
<mgrwt>
<rscale>  0 0.12500065E+03</rscale>
<asrwt>0</asrwt>
<pdfrwt beam="1">  1        4 0.24736225E-01 0.12500065E+03</pdfrwt>
<pdfrwt beam="2">  1       -4 0.37377001E-02 0.12500065E+03</pdfrwt>
<totfact> 0.92709047E+03</totfact>
</mgrwt>
</event>
<event>
 5    1  0.3239419E-002  0.1249975E+03  0.7818608E-02  0.1235073E+00
          4   -1    0    0  501    0  0.00000000000E+00  0.00000000000E+00  0.13817115918E+02  0.13875359177E+02  0.12700000000E+01 0. -1.
         -4   -1    0    0    0  501 -0.00000000000E+00 -0.00000000000E+00 -0.28204561425E+03  0.28204847352E+03  0.12700000000E+01 0. -1.
         25    2    1    2    0    0  0.00000000000E+00  0.00000000000E+00 -0.26822849833E+03  0.29592383270E+03  0.12499754975E+03 0.  0.
    9000005    1    3    3    0    0 -0.50337000998E+02  0.21425617630E+02 -0.20561814264E+03  0.21277380324E+03  0.10000000000E+01 0.  0.
    9000005    1    3    3    0    0  0.50337000998E+02 -0.21425617630E+02 -0.62610355686E+02  0.83150029461E+02  0.10000000000E+01 0.  0.
<mgrwt>
<rscale>  0 0.12499755E+03</rscale>
<asrwt>0</asrwt>
<pdfrwt beam="1">  1        4 0.21304106E-02 0.12499755E+03</pdfrwt>
<pdfrwt beam="2">  1       -4 0.43396329E-01 0.12499755E+03</pdfrwt>
<totfact> 0.76117150E+03</totfact>
</mgrwt>
</event>
<event>
 5    1  0.3239419E-002  0.1249998E+03  0.7818608E-02  0.1235070E+00
          4   -1    0    0  501    0  0.00000000000E+00  0.00000000000E+00  0.62101904817E+01  0.63387195725E+01  0.12700000000E+01 0.  1.
         -4   -1    0    0    0  501 -0.00000000000E+00 -0.00000000000E+00 -0.62243273053E+03  0.62243402617E+03  0.12700000000E+01 0.  1.
         25    2    1    2    0    0  0.00000000000E+00  0.00000000000E+00 -0.61622254005E+03  0.62877274574E+03  0.12499978770E+03 0.  0.
    9000005    1    3    3    0    0  0.84575182894E+01 -0.51323570080E+02 -0.48233301084E+03  0.48513067498E+03  0.10000000000E+01 0.  0.
    9000005    1    3    3    0    0 -0.84575182894E+01  0.51323570080E+02 -0.13388952921E+03  0.14364207077E+03  0.10000000000E+01 0.  0.
<mgrwt>
<rscale>  0 0.12499979E+03</rscale>
<asrwt>0</asrwt>
<pdfrwt beam="1">  1        4 0.96540093E-03 0.12499979E+03</pdfrwt>
<pdfrwt beam="2">  1       -4 0.95768819E-01 0.12499979E+03</pdfrwt>
<totfact> 0.47100580E+03</totfact>
</mgrwt>
</event>
<event>
 5    1  0.3239419E-002  0.1250000E+03  0.7818608E-02  0.1235069E+00
          4   -1    0    0  501    0  0.00000000000E+00  0.00000000000E+00  0.23757974813E+03  0.23758314255E+03  0.12700000000E+01 0. -1.
         -4   -1    0    0    0  501 -0.00000000000E+00 -0.00000000000E+00 -0.16413815821E+02  0.16462874895E+02  0.12700000000E+01 0. -1.
         25    2    1    2    0    0  0.00000000000E+00  0.00000000000E+00  0.22116593231E+03  0.25404601744E+03  0.12500003745E+03 0.  0.
    9000005    1    3    3    0    0 -0.45817896730E+02  0.42152256562E+02  0.12155774080E+03  0.13657736541E+03  0.10000000000E+01 0.  0.
    9000005    1    3    3    0    0  0.45817896730E+02 -0.42152256562E+02  0.99608191514E+02  0.11746865203E+03  0.10000000000E+01 0.  0.
<mgrwt>
<rscale>  0 0.12500004E+03</rscale>
<asrwt>0</asrwt>
<pdfrwt beam="1">  1        4 0.36554766E-01 0.12500004E+03</pdfrwt>
<pdfrwt beam="2">  1       -4 0.25292373E-02 0.12500004E+03</pdfrwt>
<totfact> 0.81748877E+03</totfact>
</mgrwt>
</event>
<event>
 5    1  0.3239419E-002  0.1250206E+03  0.7818608E-02  0.1235037E+00
          4   -1    0    0  501    0  0.00000000000E+00  0.00000000000E+00  0.19566574096E+02  0.19607746476E+02  0.12700000000E+01 0.  1.
         -4   -1    0    0    0  501 -0.00000000000E+00 -0.00000000000E+00 -0.19945162833E+03  0.19945567162E+03  0.12700000000E+01 0.  1.
         25    2    1    2    0    0  0.00000000000E+00  0.00000000000E+00 -0.17988505423E+03  0.21906341810E+03  0.12502059196E+03 0.  0.
    9000005    1    3    3    0    0 -0.14983102890E+02 -0.58144602146E+02 -0.12035495527E+03  0.13450503109E+03  0.10000000000E+01 0.  0.
    9000005    1    3    3    0    0  0.14983102890E+02  0.58144602146E+02 -0.59530098963E+02  0.84558387009E+02  0.10000000000E+01 0.  0.
<mgrwt>
<rscale>  0 0.12502059E+03</rscale>
<asrwt>0</asrwt>
<pdfrwt beam="1">  1        4 0.30137204E-02 0.12502059E+03</pdfrwt>
<pdfrwt beam="2">  1       -4 0.30688343E-01 0.12502059E+03</pdfrwt>
<totfact> 0.86976754E+03</totfact>
</mgrwt>
</event>
<event>
 5    1  0.3239419E-002  0.1250005E+03  0.7818608E-02  0.1235068E+00
         -4   -1    0    0    0  501 -0.00000000000E+00  0.00000000000E+00  0.29033586211E+03  0.29033863974E+03  0.12700000000E+01 0. -1.
          4   -1    0    0  501    0  0.00000000000E+00 -0.00000000000E+00 -0.13421538850E+02  0.13481491205E+02  0.12700000000E+01 0. -1.
         25    2    1    2    0    0  0.00000000000E+00  0.00000000000E+00  0.27691432326E+03  0.30382013095E+03  0.12500051817E+03 0.  0.
    9000005    1    3    3    0    0  0.18829315833E+02  0.47905709158E+02  0.22458864141E+03  0.23041388404E+03  0.10000000000E+01 0.  0.
    9000005    1    3    3    0    0 -0.18829315833E+02 -0.47905709158E+02  0.52325681845E+02  0.73406246909E+02  0.10000000000E+01 0.  0.
<mgrwt>
<rscale>  0 0.12500052E+03</rscale>
<asrwt>0</asrwt>
<pdfrwt beam="2">  1        4 0.20696775E-02 0.12500052E+03</pdfrwt>
<pdfrwt beam="1">  1       -4 0.44671881E-01 0.12500052E+03</pdfrwt>
<totfact> 0.75121268E+03</totfact>
</mgrwt>
</event>
<event>
 5    1  0.3239419E-002  0.1249989E+03  0.7818608E-02  0.1235071E+00
         -4   -1    0    0    0  501 -0.00000000000E+00  0.00000000000E+00  0.40368049270E+03  0.40368249043E+03  0.12700000000E+01 0.  1.
          4   -1    0    0  501    0  0.00000000000E+00 -0.00000000000E+00 -0.96327159427E+01  0.97160751558E+01  0.12700000000E+01 0.  1.
         25    2    1    2    0    0  0.00000000000E+00  0.00000000000E+00  0.39404777675E+03  0.41339856559E+03  0.12499889467E+03 0.  0.
    9000005    1    3    3    0    0  0.14904153533E+02  0.60553434837E+02  0.18365984170E+03  0.19396079427E+03  0.10000000000E+01 0.  0.
    9000005    1    3    3    0    0 -0.14904153533E+02 -0.60553434837E+02  0.21038793506E+03  0.21943777132E+03  0.10000000000E+01 0.  0.
<mgrwt>
<rscale>  0 0.12499889E+03</rscale>
<asrwt>0</asrwt>
<pdfrwt beam="2">  1        4 0.14885220E-02 0.12499889E+03</pdfrwt>
<pdfrwt beam="1">  1       -4 0.62111264E-01 0.12499889E+03</pdfrwt>
<totfact> 0.63271730E+03</totfact>
</mgrwt>
</event>
<event>
 5    1  0.3239419E-002  0.1249987E+03  0.7818608E-02  0.1235071E+00
         -4   -1    0    0    0  501 -0.00000000000E+00  0.00000000000E+00  0.79467149837E+02  0.79477297408E+02  0.12700000000E+01 0.  1.
          4   -1    0    0  501    0  0.00000000000E+00 -0.00000000000E+00 -0.49132987262E+02  0.49149398138E+02  0.12700000000E+01 0.  1.
         25    2    1    2    0    0  0.00000000000E+00  0.00000000000E+00  0.30334162575E+02  0.12862669555E+03  0.12499866154E+03 0.  0.
    9000005    1    3    3    0    0 -0.32760917141E+02 -0.43583756345E+02  0.46587649545E+02  0.71723291888E+02  0.10000000000E+01 0.  0.
    9000005    1    3    3    0    0  0.32760917141E+02  0.43583756345E+02 -0.16253486970E+02  0.56903403657E+02  0.10000000000E+01 0.  0.
<mgrwt>
<rscale>  0 0.12499866E+03</rscale>
<asrwt>0</asrwt>
<pdfrwt beam="2">  1        4 0.75609640E-02 0.12499866E+03</pdfrwt>
<pdfrwt beam="1">  1       -4 0.12227758E-01 0.12499866E+03</pdfrwt>
<totfact> 0.10374289E+04</totfact>
</mgrwt>
</event>
<event>
 5    1  0.3239419E-002  0.1249854E+03  0.7818608E-02  0.1235092E+00
         -4   -1    0    0    0  501 -0.00000000000E+00  0.00000000000E+00  0.22053536129E+03  0.22053901805E+03  0.12700000000E+01 0.  1.
          4   -1    0    0  501    0  0.00000000000E+00 -0.00000000000E+00 -0.17681852647E+02  0.17727402884E+02  0.12700000000E+01 0.  1.
         25    2    1    2    0    0  0.00000000000E+00  0.00000000000E+00  0.20285350865E+03  0.23826642093E+03  0.12498536463E+03 0.  0.
    9000005    1    3    3    0    0  0.14102204486E+02 -0.47786970938E+02  0.17331094846E+03  0.18033344565E+03  0.10000000000E+01 0.  0.
    9000005    1    3    3    0    0 -0.14102204486E+02  0.47786970938E+02  0.29542560184E+02  0.57932975282E+02  0.10000000000E+01 0.  0.
<mgrwt>
<rscale>  0 0.12498536E+03</rscale>
<asrwt>0</asrwt>
<pdfrwt beam="2">  1        4 0.27240702E-02 0.12498536E+03</pdfrwt>
<pdfrwt beam="1">  1       -4 0.33932302E-01 0.12498536E+03</pdfrwt>
<totfact> 0.84083667E+03</totfact>
</mgrwt>
</event>
<event>
 5    1  0.3239419E-002  0.1249994E+03  0.7818608E-02  0.1235070E+00
         -4   -1    0    0    0  501 -0.00000000000E+00  0.00000000000E+00  0.11283080611E+02  0.11354329927E+02  0.12700000000E+01 0. -1.
          4   -1    0    0  501    0  0.00000000000E+00 -0.00000000000E+00 -0.34503858091E+03  0.34504091818E+03  0.12700000000E+01 0. -1.
         25    2    1    2    0    0  0.00000000000E+00  0.00000000000E+00 -0.33375550030E+03  0.35639524810E+03  0.12499935556E+03 0.  0.
    9000005    1    3    3    0    0  0.50766544249E+02 -0.65840992127E+01 -0.64687133055E+02  0.82498591262E+02  0.10000000000E+01 0.  0.
    9000005    1    3    3    0    0 -0.50766544249E+02  0.65840992127E+01 -0.26906836724E+03  0.27389665684E+03  0.10000000000E+01 0.  0.
<mgrwt>
<rscale>  0 0.12499936E+03</rscale>
<asrwt>0</asrwt>
<pdfrwt beam="2">  1        4 0.53088511E-01 0.12499936E+03</pdfrwt>
<pdfrwt beam="1">  1       -4 0.17415193E-02 0.12499936E+03</pdfrwt>
<totfact> 0.69027671E+03</totfact>
</mgrwt>
</event>
<event>
 5    1  0.3239419E-002  0.1250002E+03  0.7818608E-02  0.1235069E+00
          4   -1    0    0  501    0  0.00000000000E+00  0.00000000000E+00  0.83207677873E+02  0.83217369323E+02  0.12700000000E+01 0.  1.
         -4   -1    0    0    0  501 -0.00000000000E+00 -0.00000000000E+00 -0.46924931973E+02  0.46942114787E+02  0.12700000000E+01 0.  1.
         25    2    1    2    0    0  0.00000000000E+00  0.00000000000E+00  0.36282745900E+02  0.13015948411E+03  0.12500021461E+03 0.  0.
    9000005    1    3    3    0    0 -0.41844539694E+02  0.21846441075E+02  0.60783179477E+02  0.76966404341E+02  0.10000000000E+01 0.  0.
    9000005    1    3    3    0    0  0.41844539694E+02 -0.21846441075E+02 -0.24500433577E+02  0.53193079769E+02  0.10000000000E+01 0.  0.
<mgrwt>
<rscale>  0 0.12500021E+03</rscale>
<asrwt>0</asrwt>
<pdfrwt beam="1">  1        4 0.12803248E-01 0.12500021E+03</pdfrwt>
<pdfrwt beam="2">  1       -4 0.72212876E-02 0.12500021E+03</pdfrwt>
<totfact> 0.10341047E+04</totfact>
</mgrwt>
</event>
<event>
 5    1  0.3239419E-002  0.1250023E+03  0.7818608E-02  0.1235066E+00
          4   -1    0    0  501    0  0.00000000000E+00  0.00000000000E+00  0.10791880262E+02  0.10866350794E+02  0.12700000000E+01 0. -1.
         -4   -1    0    0    0  501 -0.00000000000E+00 -0.00000000000E+00 -0.36065502349E+03  0.36065725955E+03  0.12700000000E+01 0. -1.
         25    2    1    2    0    0  0.00000000000E+00  0.00000000000E+00 -0.34986314323E+03  0.37152361035E+03  0.12500229620E+03 0.  0.
    9000005    1    3    3    0    0 -0.16739867125E+02 -0.19397743962E+02 -0.34434056379E+03  0.34529396098E+03  0.10000000000E+01 0.  0.
    9000005    1    3    3    0    0  0.16739867125E+02  0.19397743962E+02 -0.55225794419E+01  0.26229649366E+02  0.10000000000E+01 0.  0.
<mgrwt>
<rscale>  0 0.12500230E+03</rscale>
<asrwt>0</asrwt>
<pdfrwt beam="1">  1        4 0.16661901E-02 0.12500230E+03</pdfrwt>
<pdfrwt beam="2">  1       -4 0.55491280E-01 0.12500230E+03</pdfrwt>
<totfact> 0.67416422E+03</totfact>
</mgrwt>
</event>
<event>
 5    1  0.3239419E-002  0.1249998E+03  0.7818608E-02  0.1235070E+00
          4   -1    0    0  501    0  0.00000000000E+00  0.00000000000E+00  0.20458911481E+02  0.20498291611E+02  0.12700000000E+01 0. -1.
         -4   -1    0    0    0  501 -0.00000000000E+00 -0.00000000000E+00 -0.19070582646E+03  0.19071005517E+03  0.12700000000E+01 0. -1.
         25    2    1    2    0    0  0.00000000000E+00  0.00000000000E+00 -0.17024691497E+03  0.21120834678E+03  0.12499981477E+03 0.  0.
    9000005    1    3    3    0    0  0.45212844895E+02 -0.42904152633E+02 -0.77516048011E+02  0.99472133564E+02  0.10000000000E+01 0.  0.
    9000005    1    3    3    0    0 -0.45212844895E+02  0.42904152633E+02 -0.92730866964E+02  0.11173621322E+03  0.10000000000E+01 0.  0.
<mgrwt>
<rscale>  0 0.12499981E+03</rscale>
<asrwt>0</asrwt>
<pdfrwt beam="1">  1        4 0.31508795E-02 0.12499981E+03</pdfrwt>
<pdfrwt beam="2">  1       -4 0.29342711E-01 0.12499981E+03</pdfrwt>
<totfact> 0.88279288E+03</totfact>
</mgrwt>
</event>
<event>
 5    1  0.3239419E-002  0.1249981E+03  0.7818608E-02  0.1235072E+00
         -4   -1    0    0    0  501 -0.00000000000E+00  0.00000000000E+00  0.14113358837E+02  0.14170384528E+02  0.12700000000E+01 0.  1.
          4   -1    0    0  501    0  0.00000000000E+00 -0.00000000000E+00 -0.27615173084E+03  0.27615465114E+03  0.12700000000E+01 0.  1.
         25    2    1    2    0    0  0.00000000000E+00  0.00000000000E+00 -0.26203837200E+03  0.29032503567E+03  0.12499807172E+03 0.  0.
    9000005    1    3    3    0    0  0.14640044792E+02  0.50170936514E+02 -0.51448109913E+02  0.73344132661E+02  0.10000000000E+01 0.  0.
    9000005    1    3    3    0    0 -0.14640044792E+02 -0.50170936514E+02 -0.21059026209E+03  0.21698090300E+03  0.10000000000E+01 0.  0.
<mgrwt>
<rscale>  0 0.12499807E+03</rscale>
<asrwt>0</asrwt>
<pdfrwt beam="2">  1        4 0.42489489E-01 0.12499807E+03</pdfrwt>
<pdfrwt beam="1">  1       -4 0.21758974E-02 0.12499807E+03</pdfrwt>
<totfact> 0.76831992E+03</totfact>
</mgrwt>
</event>
<event>
 5    1  0.3239419E-002  0.1250062E+03  0.7818608E-02  0.1235060E+00
         -4   -1    0    0    0  501 -0.00000000000E+00  0.00000000000E+00  0.23846877186E+02  0.23880671086E+02  0.12700000000E+01 0.  1.
          4   -1    0    0  501    0  0.00000000000E+00 -0.00000000000E+00 -0.16366940353E+03  0.16367433077E+03  0.12700000000E+01 0.  1.
         25    2    1    2    0    0  0.00000000000E+00  0.00000000000E+00 -0.13982252634E+03  0.18755500185E+03  0.12500615923E+03 0.  0.
    9000005    1    3    3    0    0  0.21157387496E+02 -0.12851186926E+02 -0.15600726996E+03  0.15796219906E+03  0.10000000000E+01 0.  0.
    9000005    1    3    3    0    0 -0.21157387496E+02  0.12851186926E+02  0.16184743618E+02  0.29592802792E+02  0.10000000000E+01 0.  0.
<mgrwt>
<rscale>  0 0.12500616E+03</rscale>
<asrwt>0</asrwt>
<pdfrwt beam="2">  1        4 0.25182886E-01 0.12500616E+03</pdfrwt>
<pdfrwt beam="1">  1       -4 0.36717290E-02 0.12500616E+03</pdfrwt>
<totfact> 0.92261753E+03</totfact>
</mgrwt>
</event>
<event>
 5    1  0.3239419E-002  0.1249971E+03  0.7818608E-02  0.1235074E+00
         -4   -1    0    0    0  501 -0.00000000000E+00  0.00000000000E+00  0.23596501240E+03  0.23596843004E+03  0.12700000000E+01 0. -1.
          4   -1    0    0  501    0  0.00000000000E+00 -0.00000000000E+00 -0.16525684115E+02  0.16574412070E+02  0.12700000000E+01 0. -1.
         25    2    1    2    0    0  0.00000000000E+00  0.00000000000E+00  0.21943932828E+03  0.25254284211E+03  0.12499707318E+03 0.  0.
    9000005    1    3    3    0    0 -0.31328640199E+02  0.38369121117E+02  0.18669079548E+03  0.19315311612E+03  0.10000000000E+01 0.  0.
    9000005    1    3    3    0    0  0.31328640199E+02 -0.38369121117E+02  0.32748532804E+02  0.59389725987E+02  0.10000000000E+01 0.  0.
<mgrwt>
<rscale>  0 0.12499707E+03</rscale>
<asrwt>0</asrwt>
<pdfrwt beam="2">  1        4 0.25464241E-02 0.12499707E+03</pdfrwt>
<pdfrwt beam="1">  1       -4 0.36306321E-01 0.12499707E+03</pdfrwt>
<totfact> 0.81969433E+03</totfact>
</mgrwt>
</event>
<event>
 5    1  0.3239419E-002  0.1250007E+03  0.7818608E-02  0.1235068E+00
          4   -1    0    0  501    0  0.00000000000E+00  0.00000000000E+00  0.42139882064E+02  0.42159015173E+02  0.12700000000E+01 0. -1.
         -4   -1    0    0    0  501 -0.00000000000E+00 -0.00000000000E+00 -0.92653774675E+02  0.92662478175E+02  0.12700000000E+01 0. -1.
         25    2    1    2    0    0  0.00000000000E+00  0.00000000000E+00 -0.50513892611E+02  0.13482149335E+03  0.12500072689E+03 0.  0.
    9000005    1    3    3    0    0 -0.45919899849E+02  0.34415365109E+02  0.14305452242E+01  0.57411680147E+02  0.10000000000E+01 0.  0.
    9000005    1    3    3    0    0  0.45919899849E+02 -0.34415365109E+02 -0.51944437835E+02  0.77409813200E+02  0.10000000000E+01 0.  0.
<mgrwt>
<rscale>  0 0.12500073E+03</rscale>
<asrwt>0</asrwt>
<pdfrwt beam="1">  1        4 0.64852001E-02 0.12500073E+03</pdfrwt>
<pdfrwt beam="2">  1       -4 0.14256568E-01 0.12500073E+03</pdfrwt>
<totfact> 0.10241667E+04</totfact>
</mgrwt>
</event>
<event>
 5    1  0.3239419E-002  0.1250026E+03  0.7818608E-02  0.1235065E+00
         -4   -1    0    0    0  501 -0.00000000000E+00  0.00000000000E+00  0.18535018588E+02  0.18578477173E+02  0.12700000000E+01 0.  1.
          4   -1    0    0  501    0  0.00000000000E+00 -0.00000000000E+00 -0.21046641284E+03  0.21047024454E+03  0.12700000000E+01 0.  1.
         25    2    1    2    0    0  0.00000000000E+00  0.00000000000E+00 -0.19193139426E+03  0.22904872171E+03  0.12500262724E+03 0.  0.
    9000005    1    3    3    0    0  0.88869972491E+01  0.32812471238E+02  0.11972136818E+00  0.34009576917E+02  0.10000000000E+01 0.  0.
    9000005    1    3    3    0    0 -0.88869972491E+01 -0.32812471238E+02 -0.19205111562E+03  0.19503914479E+03  0.10000000000E+01 0.  0.
<mgrwt>
<rscale>  0 0.12500263E+03</rscale>
<asrwt>0</asrwt>
<pdfrwt beam="2">  1        4 0.32383084E-01 0.12500263E+03</pdfrwt>
<pdfrwt beam="1">  1       -4 0.28551792E-02 0.12500263E+03</pdfrwt>
<totfact> 0.85450872E+03</totfact>
</mgrwt>
</event>
<event>
 5    1  0.3239419E-002  0.1250098E+03  0.7818608E-02  0.1235054E+00
         -4   -1    0    0    0  501 -0.00000000000E+00  0.00000000000E+00  0.13026200296E+02  0.13087963713E+02  0.12700000000E+01 0.  1.
          4   -1    0    0  501    0  0.00000000000E+00 -0.00000000000E+00 -0.29915104958E+03  0.29915374536E+03  0.12700000000E+01 0.  1.
         25    2    1    2    0    0  0.00000000000E+00  0.00000000000E+00 -0.28612484929E+03  0.31224170908E+03  0.12500982165E+03 0.  0.
    9000005    1    3    3    0    0  0.39748295467E+02 -0.47966415166E+02 -0.13053386220E+03  0.14464021970E+03  0.10000000000E+01 0.  0.
    9000005    1    3    3    0    0 -0.39748295467E+02  0.47966415166E+02 -0.15559098709E+03  0.16760148937E+03  0.10000000000E+01 0.  0.
<mgrwt>
<rscale>  0 0.12500982E+03</rscale>
<asrwt>0</asrwt>
<pdfrwt beam="2">  1        4 0.46028192E-01 0.12500982E+03</pdfrwt>
<pdfrwt beam="1">  1       -4 0.20089894E-02 0.12500982E+03</pdfrwt>
<totfact> 0.74072339E+03</totfact>
</mgrwt>
</event>
<event>
 5    1  0.3239419E-002  0.1249999E+03  0.7818608E-02  0.1235069E+00
         -4   -1    0    0    0  501 -0.00000000000E+00  0.00000000000E+00  0.30870637987E+02  0.30896750472E+02  0.12700000000E+01 0. -1.
          4   -1    0    0  501    0  0.00000000000E+00 -0.00000000000E+00 -0.12645301761E+03  0.12645939491E+03  0.12700000000E+01 0. -1.
         25    2    1    2    0    0  0.00000000000E+00  0.00000000000E+00 -0.95582379621E+02  0.15735614539E+03  0.12499986079E+03 0.  0.
    9000005    1    3    3    0    0  0.16546600437E+02  0.59221048750E+02 -0.61827158993E+02  0.87203900086E+02  0.10000000000E+01 0.  0.
    9000005    1    3    3    0    0 -0.16546600437E+02 -0.59221048750E+02 -0.33755220629E+02  0.70152245301E+02  0.10000000000E+01 0.  0.
<mgrwt>
<rscale>  0 0.12499986E+03</rscale>
<asrwt>0</asrwt>
<pdfrwt beam="2">  1        4 0.19456809E-01 0.12499986E+03</pdfrwt>
<pdfrwt beam="1">  1       -4 0.47518282E-02 0.12499986E+03</pdfrwt>
<totfact> 0.97855240E+03</totfact>
</mgrwt>
</event>
<event>
 5    1  0.3239419E-002  0.1250002E+03  0.7818608E-02  0.1235069E+00
          4   -1    0    0  501    0  0.00000000000E+00  0.00000000000E+00  0.28347051970E+03  0.28347336460E+03  0.12700000000E+01 0.  1.
         -4   -1    0    0    0  501 -0.00000000000E+00 -0.00000000000E+00 -0.13747959166E+02  0.13806494169E+02  0.12700000000E+01 0.  1.
         25    2    1    2    0    0  0.00000000000E+00  0.00000000000E+00  0.26972256054E+03  0.29727985877E+03  0.12500021908E+03 0.  0.
    9000005    1    3    3    0    0 -0.21750865836E+02 -0.46887189973E+02  0.21839641259E+03  0.22443150799E+03  0.10000000000E+01 0.  0.
    9000005    1    3    3    0    0  0.21750865836E+02  0.46887189973E+02  0.51326147946E+02  0.72848350779E+02  0.10000000000E+01 0.  0.
<mgrwt>
<rscale>  0 0.12500022E+03</rscale>
<asrwt>0</asrwt>
<pdfrwt beam="1">  1        4 0.43615572E-01 0.12500022E+03</pdfrwt>
<pdfrwt beam="2">  1       -4 0.21197921E-02 0.12500022E+03</pdfrwt>
<totfact> 0.75940948E+03</totfact>
</mgrwt>
</event>
<event>
 5    1  0.3239419E-002  0.1250005E+03  0.7818608E-02  0.1235068E+00
          4   -1    0    0  501    0  0.00000000000E+00  0.00000000000E+00  0.11810608561E+03  0.11811291359E+03  0.12700000000E+01 0. -1.
         -4   -1    0    0    0  501 -0.00000000000E+00 -0.00000000000E+00 -0.33054366220E+02  0.33078754907E+02  0.12700000000E+01 0. -1.
         25    2    1    2    0    0  0.00000000000E+00  0.00000000000E+00  0.85051719388E+02  0.15119166850E+03  0.12500050261E+03 0.  0.
    9000005    1    3    3    0    0 -0.46245450348E+02 -0.39479285537E+02  0.59971007270E+02  0.85409468898E+02  0.10000000000E+01 0.  0.
    9000005    1    3    3    0    0  0.46245450348E+02  0.39479285537E+02  0.25080712118E+02  0.65782199604E+02  0.10000000000E+01 0.  0.
<mgrwt>
<rscale>  0 0.12500050E+03</rscale>
<asrwt>0</asrwt>
<pdfrwt beam="1">  1        4 0.18172568E-01 0.12500050E+03</pdfrwt>
<pdfrwt beam="2">  1       -4 0.50876885E-02 0.12500050E+03</pdfrwt>
<totfact> 0.99065565E+03</totfact>
</mgrwt>
</event>
<event>
 5    1  0.3239419E-002  0.1249981E+03  0.7818608E-02  0.1235072E+00
          4   -1    0    0  501    0  0.00000000000E+00  0.00000000000E+00  0.31381122138E+03  0.31381379123E+03  0.12700000000E+01 0. -1.
         -4   -1    0    0    0  501 -0.00000000000E+00 -0.00000000000E+00 -0.12412361262E+02  0.12477163624E+02  0.12700000000E+01 0. -1.
         25    2    1    2    0    0  0.00000000000E+00  0.00000000000E+00  0.30139886012E+03  0.32629095485E+03  0.12499805733E+03 0.  0.
    9000005    1    3    3    0    0  0.44907965157E+02  0.18979737859E+02  0.25274355461E+03  0.25740485656E+03  0.10000000000E+01 0.  0.
    9000005    1    3    3    0    0 -0.44907965157E+02 -0.18979737859E+02  0.48655305509E+02  0.68886098292E+02  0.10000000000E+01 0.  0.
<mgrwt>
<rscale>  0 0.12499806E+03</rscale>
<asrwt>0</asrwt>
<pdfrwt beam="1">  1        4 0.48283829E-01 0.12499806E+03</pdfrwt>
<pdfrwt beam="2">  1       -4 0.19147766E-02 0.12499806E+03</pdfrwt>
<totfact> 0.72417212E+03</totfact>
</mgrwt>
</event>
<event>
 5    1  0.3239419E-002  0.1250097E+03  0.7818608E-02  0.1235054E+00
          4   -1    0    0  501    0  0.00000000000E+00  0.00000000000E+00  0.36938107723E+02  0.36959933742E+02  0.12700000000E+01 0.  1.
         -4   -1    0    0    0  501 -0.00000000000E+00 -0.00000000000E+00 -0.10571083425E+03  0.10571846280E+03  0.12700000000E+01 0.  1.
         25    2    1    2    0    0  0.00000000000E+00  0.00000000000E+00 -0.68772726523E+02  0.14267839654E+03  0.12500974733E+03 0.  0.
    9000005    1    3    3    0    0  0.24198370540E+02 -0.89485477486E+01  0.30581965955E+02  0.40023671562E+02  0.10000000000E+01 0.  0.
    9000005    1    3    3    0    0 -0.24198370540E+02  0.89485477486E+01 -0.99354692478E+02  0.10265472498E+03  0.10000000000E+01 0.  0.
<mgrwt>
<rscale>  0 0.12500975E+03</rscale>
<asrwt>0</asrwt>
<pdfrwt beam="1">  1        4 0.56850516E-02 0.12500975E+03</pdfrwt>
<pdfrwt beam="2">  1       -4 0.16265471E-01 0.12500975E+03</pdfrwt>
<totfact> 0.10076161E+04</totfact>
</mgrwt>
</event>
<event>
 5    1  0.3239419E-002  0.1250099E+03  0.7818608E-02  0.1235054E+00
         -4   -1    0    0    0  501 -0.00000000000E+00  0.00000000000E+00  0.12996328558E+03  0.12996949065E+03  0.12700000000E+01 0. -1.
          4   -1    0    0  501    0  0.00000000000E+00 -0.00000000000E+00 -0.30040976309E+02  0.30067809325E+02  0.12700000000E+01 0. -1.
         25    2    1    2    0    0  0.00000000000E+00  0.00000000000E+00  0.99922309271E+02  0.16003729997E+03  0.12500987758E+03 0.  0.
    9000005    1    3    3    0    0  0.12495301330E+02  0.45420397313E+02  0.10253850335E+03  0.11284631016E+03  0.10000000000E+01 0.  0.
    9000005    1    3    3    0    0 -0.12495301330E+02 -0.45420397313E+02 -0.26161940833E+01  0.47190989806E+02  0.10000000000E+01 0.  0.
<mgrwt>
<rscale>  0 0.12500988E+03</rscale>
<asrwt>0</asrwt>
<pdfrwt beam="2">  1        4 0.46242300E-02 0.12500988E+03</pdfrwt>
<pdfrwt beam="1">  1       -4 0.19996893E-01 0.12500988E+03</pdfrwt>
<totfact> 0.97313987E+03</totfact>
</mgrwt>
</event>
<event>
 5    1  0.3239419E-002  0.1250038E+03  0.7818608E-02  0.1235063E+00
         -4   -1    0    0    0  501 -0.00000000000E+00  0.00000000000E+00  0.53455734099E+03  0.53455884962E+03  0.12700000000E+01 0. -1.
          4   -1    0    0  501    0  0.00000000000E+00 -0.00000000000E+00 -0.72511877553E+01  0.73615639550E+01  0.12700000000E+01 0. -1.
         25    2    1    2    0    0  0.00000000000E+00  0.00000000000E+00  0.52730615324E+03  0.54192041358E+03  0.12500382158E+03 0.  0.
    9000005    1    3    3    0    0 -0.40498552368E+02  0.47594676071E+02  0.26226229754E+03  0.26960693360E+03  0.10000000000E+01 0.  0.
    9000005    1    3    3    0    0  0.40498552368E+02 -0.47594676071E+02  0.26504385570E+03  0.27231347998E+03  0.10000000000E+01 0.  0.
<mgrwt>
<rscale>  0 0.12500382E+03</rscale>
<asrwt>0</asrwt>
<pdfrwt beam="2">  1        4 0.11241738E-02 0.12500382E+03</pdfrwt>
<pdfrwt beam="1">  1       -4 0.82248200E-01 0.12500382E+03</pdfrwt>
<totfact> 0.52748068E+03</totfact>
</mgrwt>
</event>
<event>
 5    1  0.3239419E-002  0.1250005E+03  0.7818608E-02  0.1235069E+00
         -4   -1    0    0    0  501 -0.00000000000E+00  0.00000000000E+00  0.29302012510E+03  0.29302287729E+03  0.12700000000E+01 0. -1.
          4   -1    0    0  501    0  0.00000000000E+00 -0.00000000000E+00 -0.13298023845E+02  0.13358530540E+02  0.12700000000E+01 0. -1.
         25    2    1    2    0    0  0.00000000000E+00  0.00000000000E+00  0.27972210125E+03  0.30638140783E+03  0.12500045253E+03 0.  0.
    9000005    1    3    3    0    0  0.26263924314E+02  0.56098667300E+02  0.11958630863E+03  0.13468013738E+03  0.10000000000E+01 0.  0.
    9000005    1    3    3    0    0 -0.26263924314E+02 -0.56098667300E+02  0.16013579263E+03  0.17170127045E+03  0.10000000000E+01 0.  0.
<mgrwt>
<rscale>  0 0.12500045E+03</rscale>
<asrwt>0</asrwt>
<pdfrwt beam="2">  1        4 0.20507158E-02 0.12500045E+03</pdfrwt>
<pdfrwt beam="1">  1       -4 0.45084888E-01 0.12500045E+03</pdfrwt>
<totfact> 0.74804521E+03</totfact>
</mgrwt>
</event>
<event>
 5    1  0.3239419E-002  0.1250089E+03  0.7818608E-02  0.1235055E+00
         -4   -1    0    0    0  501 -0.00000000000E+00  0.00000000000E+00  0.27032088324E+02  0.27061904943E+02  0.12700000000E+01 0.  1.
          4   -1    0    0  501    0  0.00000000000E+00 -0.00000000000E+00 -0.14441243731E+03  0.14441802156E+03  0.12700000000E+01 0.  1.
         25    2    1    2    0    0  0.00000000000E+00  0.00000000000E+00 -0.11738034899E+03  0.17147992650E+03  0.12500887514E+03 0.  0.
    9000005    1    3    3    0    0  0.19623663050E+02  0.24362255002E+02 -0.13290632497E+03  0.13654193070E+03  0.10000000000E+01 0.  0.
    9000005    1    3    3    0    0 -0.19623663050E+02 -0.24362255002E+02  0.15525975987E+02  0.34937995802E+02  0.10000000000E+01 0.  0.
<mgrwt>
<rscale>  0 0.12500888E+03</rscale>
<asrwt>0</asrwt>
<pdfrwt beam="2">  1        4 0.22220021E-01 0.12500888E+03</pdfrwt>
<pdfrwt beam="1">  1       -4 0.41615060E-02 0.12500888E+03</pdfrwt>
<totfact> 0.95154563E+03</totfact>
</mgrwt>
</event>
<event>
 5    1  0.3239419E-002  0.1249991E+03  0.7818608E-02  0.1235071E+00
         -4   -1    0    0    0  501 -0.00000000000E+00  0.00000000000E+00  0.12432838141E+04  0.12432844628E+04  0.12700000000E+01 0. -1.
          4   -1    0    0  501    0  0.00000000000E+00 -0.00000000000E+00 -0.30128211513E+01  0.32695552128E+01  0.12700000000E+01 0. -1.
         25    2    1    2    0    0  0.00000000000E+00  0.00000000000E+00  0.12402709930E+04  0.12465540180E+04  0.12499913494E+03 0.  0.
    9000005    1    3    3    0    0  0.10897331193E+02 -0.68787175349E+01  0.10332963492E+02  0.16548072897E+02  0.10000000000E+01 0.  0.
    9000005    1    3    3    0    0 -0.10897331193E+02  0.68787175349E+01  0.12299380295E+04  0.12300059451E+04  0.10000000000E+01 0.  0.
<mgrwt>
<rscale>  0 0.12499913E+03</rscale>
<asrwt>0</asrwt>
<pdfrwt beam="2">  1        4 0.48330944E-03 0.12499913E+03</pdfrwt>
<pdfrwt beam="1">  1       -4 0.19129430E+00 0.12499913E+03</pdfrwt>
<totfact> 0.23526091E+03</totfact>
</mgrwt>
</event>
<event>
 5    1  0.3239419E-002  0.1250009E+03  0.7818608E-02  0.1235068E+00
         -4   -1    0    0    0  501 -0.00000000000E+00  0.00000000000E+00  0.10294015708E+03  0.10294799094E+03  0.12700000000E+01 0.  1.
          4   -1    0    0  501    0  0.00000000000E+00 -0.00000000000E+00 -0.37927459676E+02  0.37948716677E+02  0.12700000000E+01 0.  1.
         25    2    1    2    0    0  0.00000000000E+00  0.00000000000E+00  0.65012697403E+02  0.14089670762E+03  0.12500092558E+03 0.  0.
    9000005    1    3    3    0    0 -0.32179097917E+02  0.48640303148E+02  0.57809500776E+02  0.82123759126E+02  0.10000000000E+01 0.  0.
    9000005    1    3    3    0    0  0.32179097917E+02 -0.48640303148E+02  0.72031966266E+01  0.58772948494E+02  0.10000000000E+01 0.  0.
<mgrwt>
<rscale>  0 0.12500093E+03</rscale>
<asrwt>0</asrwt>
<pdfrwt beam="2">  1        4 0.58372317E-02 0.12500093E+03</pdfrwt>
<pdfrwt beam="1">  1       -4 0.15839185E-01 0.12500093E+03</pdfrwt>
<totfact> 0.10114824E+04</totfact>
</mgrwt>
</event>
<event>
 5    1  0.3239419E-002  0.1249990E+03  0.7818608E-02  0.1235071E+00
          4   -1    0    0  501    0  0.00000000000E+00  0.00000000000E+00  0.45527155801E+02  0.45544865960E+02  0.12700000000E+01 0.  1.
         -4   -1    0    0    0  501 -0.00000000000E+00 -0.00000000000E+00 -0.85759908488E+02  0.85769311551E+02  0.12700000000E+01 0.  1.
         25    2    1    2    0    0  0.00000000000E+00  0.00000000000E+00 -0.40232752688E+02  0.13131417751E+03  0.12499895530E+03 0.  0.
    9000005    1    3    3    0    0  0.44668213091E+02  0.41797076975E+02 -0.67066836016E+01  0.61548554080E+02  0.10000000000E+01 0.  0.
    9000005    1    3    3    0    0 -0.44668213091E+02 -0.41797076975E+02 -0.33526069086E+02  0.69765623431E+02  0.10000000000E+01 0.  0.
<mgrwt>
<rscale>  0 0.12499896E+03</rscale>
<asrwt>0</asrwt>
<pdfrwt beam="1">  1        4 0.70062635E-02 0.12499896E+03</pdfrwt>
<pdfrwt beam="2">  1       -4 0.13195918E-01 0.12499896E+03</pdfrwt>
<totfact> 0.10316602E+04</totfact>
</mgrwt>
</event>
<event>
 5    1  0.3239419E-002  0.1250014E+03  0.7818608E-02  0.1235067E+00
          4   -1    0    0  501    0  0.00000000000E+00  0.00000000000E+00  0.15440050692E+04  0.15440055915E+04  0.12700000000E+01 0. -1.
         -4   -1    0    0    0  501 -0.00000000000E+00 -0.00000000000E+00 -0.23700698041E+01  0.26888902686E+01  0.12700000000E+01 0. -1.
         25    2    1    2    0    0  0.00000000000E+00  0.00000000000E+00  0.15416349994E+04  0.15466944818E+04  0.12500139440E+03 0.  0.
    9000005    1    3    3    0    0  0.16467135052E+02  0.24364042484E+02  0.88531033931E+02  0.93292642110E+02  0.10000000000E+01 0.  0.
    9000005    1    3    3    0    0 -0.16467135052E+02 -0.24364042484E+02  0.14531039655E+04  0.14534018397E+04  0.10000000000E+01 0.  0.
<mgrwt>
<rscale>  0 0.12500139E+03</rscale>
<asrwt>0</asrwt>
<pdfrwt beam="1">  1        4 0.23756422E+00 0.12500139E+03</pdfrwt>
<pdfrwt beam="2">  1       -4 0.38919028E-03 0.12500139E+03</pdfrwt>
<totfact> 0.17030007E+03</totfact>
</mgrwt>
</event>
<event>
 5    1  0.3239419E-002  0.1249978E+03  0.7818608E-02  0.1235073E+00
         -4   -1    0    0    0  501 -0.00000000000E+00  0.00000000000E+00  0.64492532525E+03  0.64492657570E+03  0.12700000000E+01 0. -1.
          4   -1    0    0  501    0  0.00000000000E+00 -0.00000000000E+00 -0.59888481961E+01  0.61220260303E+01  0.12700000000E+01 0. -1.
         25    2    1    2    0    0  0.00000000000E+00  0.00000000000E+00  0.63893647705E+03  0.65104860173E+03  0.12499784042E+03 0.  0.
    9000005    1    3    3    0    0 -0.16329432053E+02  0.59067818660E+02  0.25579312601E+03  0.26303380176E+03  0.10000000000E+01 0.  0.
    9000005    1    3    3    0    0  0.16329432053E+02 -0.59067818660E+02  0.38314335104E+03  0.38801479997E+03  0.10000000000E+01 0.  0.
<mgrwt>
<rscale>  0 0.12499784E+03</rscale>
<asrwt>0</asrwt>
<pdfrwt beam="2">  1        4 0.93170227E-03 0.12499784E+03</pdfrwt>
<pdfrwt beam="1">  1       -4 0.99229582E-01 0.12499784E+03</pdfrwt>
<totfact> 0.45798062E+03</totfact>
</mgrwt>
</event>
<event>
 5    1  0.3239419E-002  0.1250159E+03  0.7818608E-02  0.1235044E+00
          4   -1    0    0  501    0  0.00000000000E+00  0.00000000000E+00  0.12098037916E+03  0.12098704493E+03  0.12700000000E+01 0.  1.
         -4   -1    0    0    0  501 -0.00000000000E+00 -0.00000000000E+00 -0.32276481758E+02  0.32301457780E+02  0.12700000000E+01 0.  1.
         25    2    1    2    0    0  0.00000000000E+00  0.00000000000E+00  0.88703897401E+02  0.15328850271E+03  0.12501593358E+03 0.  0.
    9000005    1    3    3    0    0 -0.51315505419E+02  0.35295318179E+02  0.37956497071E+02  0.72943377024E+02  0.10000000000E+01 0.  0.
    9000005    1    3    3    0    0  0.51315505419E+02 -0.35295318179E+02  0.50747400331E+02  0.80345125689E+02  0.10000000000E+01 0.  0.
<mgrwt>
<rscale>  0 0.12501593E+03</rscale>
<asrwt>0</asrwt>
<pdfrwt beam="1">  1        4 0.18614800E-01 0.12501593E+03</pdfrwt>
<pdfrwt beam="2">  1       -4 0.49680465E-02 0.12501593E+03</pdfrwt>
<totfact> 0.98616822E+03</totfact>
</mgrwt>
</event>
<event>
 5    1  0.3239419E-002  0.1250053E+03  0.7818608E-02  0.1235061E+00
         -4   -1    0    0    0  501 -0.00000000000E+00  0.00000000000E+00  0.67911142685E+01  0.69088445494E+01  0.12700000000E+01 0.  1.
          4   -1    0    0  501    0  0.00000000000E+00 -0.00000000000E+00 -0.57018693138E+03  0.57018834573E+03  0.12700000000E+01 0.  1.
         25    2    1    2    0    0  0.00000000000E+00  0.00000000000E+00 -0.56339581711E+03  0.57709719028E+03  0.12500528109E+03 0.  0.
    9000005    1    3    3    0    0 -0.25420040568E+02 -0.22144964318E+02 -0.38767295168E+02  0.51385611622E+02  0.10000000000E+01 0.  0.
    9000005    1    3    3    0    0  0.25420040568E+02  0.22144964318E+02 -0.52462852194E+03  0.52571157866E+03  0.10000000000E+01 0.  0.
<mgrwt>
<rscale>  0 0.12500528E+03</rscale>
<asrwt>0</asrwt>
<pdfrwt beam="2">  1        4 0.87730194E-01 0.12500528E+03</pdfrwt>
<pdfrwt beam="1">  1       -4 0.10539522E-02 0.12500528E+03</pdfrwt>
<totfact> 0.50340150E+03</totfact>
</mgrwt>
</event>
<event>
 5    1  0.3239419E-002  0.1249880E+03  0.7818608E-02  0.1235088E+00
          4   -1    0    0  501    0  0.00000000000E+00  0.00000000000E+00  0.10153581827E+04  0.10153589769E+04  0.12700000000E+01 0.  1.
         -4   -1    0    0    0  501 -0.00000000000E+00 -0.00000000000E+00 -0.37407743694E+01  0.39504800826E+01  0.12700000000E+01 0.  1.
         25    2    1    2    0    0  0.00000000000E+00  0.00000000000E+00  0.10116174083E+04  0.10193094570E+04  0.12498795286E+03 0.  0.
    9000005    1    3    3    0    0  0.40778336425E+02 -0.47048367147E+02  0.54902044702E+03  0.55254038117E+03  0.10000000000E+01 0.  0.
    9000005    1    3    3    0    0 -0.40778336425E+02  0.47048367147E+02  0.46259696128E+03  0.46676907584E+03  0.10000000000E+01 0.  0.
<mgrwt>
<rscale>  0 0.12498795E+03</rscale>
<asrwt>0</asrwt>
<pdfrwt beam="1">  1        4 0.15622537E+00 0.12498795E+03</pdfrwt>
<pdfrwt beam="2">  1       -4 0.59169520E-03 0.12498795E+03</pdfrwt>
<totfact> 0.29980538E+03</totfact>
</mgrwt>
</event>
<event>
 5    1  0.3239419E-002  0.1249992E+03  0.7818608E-02  0.1235071E+00
         -4   -1    0    0    0  501 -0.00000000000E+00  0.00000000000E+00  0.48807385699E+02  0.48823906017E+02  0.12700000000E+01 0.  1.
          4   -1    0    0  501    0  0.00000000000E+00 -0.00000000000E+00 -0.79997857588E+02  0.80007937848E+02  0.12700000000E+01 0.  1.
         25    2    1    2    0    0  0.00000000000E+00  0.00000000000E+00 -0.31190471889E+02  0.12883184386E+03  0.12499919383E+03 0.  0.
    9000005    1    3    3    0    0 -0.18618463995E+02 -0.46390644554E+02 -0.54247931132E+02  0.73773824191E+02  0.10000000000E+01 0.  0.
    9000005    1    3    3    0    0  0.18618463995E+02  0.46390644554E+02  0.23057459243E+02  0.55058019674E+02  0.10000000000E+01 0.  0.
<mgrwt>
<rscale>  0 0.12499919E+03</rscale>
<asrwt>0</asrwt>
<pdfrwt beam="2">  1        4 0.12309409E-01 0.12499919E+03</pdfrwt>
<pdfrwt beam="1">  1       -4 0.75108747E-02 0.12499919E+03</pdfrwt>
<totfact> 0.10369750E+04</totfact>
</mgrwt>
</event>
<event>
 5    1  0.3239419E-002  0.1249998E+03  0.7818608E-02  0.1235070E+00
         -4   -1    0    0    0  501 -0.00000000000E+00  0.00000000000E+00  0.24942800263E+02  0.24975111310E+02  0.12700000000E+01 0. -1.
          4   -1    0    0  501    0  0.00000000000E+00 -0.00000000000E+00 -0.15647159499E+03  0.15647674888E+03  0.12700000000E+01 0. -1.
         25    2    1    2    0    0  0.00000000000E+00  0.00000000000E+00 -0.13152879473E+03  0.18145186019E+03  0.12499981489E+03 0.  0.
    9000005    1    3    3    0    0  0.97512399212E+01  0.40557671662E+02 -0.13331104099E+03  0.13968838556E+03  0.10000000000E+01 0.  0.
    9000005    1    3    3    0    0 -0.97512399212E+01 -0.40557671662E+02  0.17822462676E+01  0.41763474621E+02  0.10000000000E+01 0.  0.
<mgrwt>
<rscale>  0 0.12499981E+03</rscale>
<asrwt>0</asrwt>
<pdfrwt beam="2">  1        4 0.24075434E-01 0.12499981E+03</pdfrwt>
<pdfrwt beam="1">  1       -4 0.38402359E-02 0.12499981E+03</pdfrwt>
<totfact> 0.93356702E+03</totfact>
</mgrwt>
</event>
<event>
 5    1  0.3239419E-002  0.1250015E+03  0.7818608E-02  0.1235067E+00
         -4   -1    0    0    0  501 -0.00000000000E+00  0.00000000000E+00  0.10087113493E+02  0.10166747691E+02  0.12700000000E+01 0. -1.
          4   -1    0    0  501    0  0.00000000000E+00 -0.00000000000E+00 -0.38565771650E+03  0.38565980759E+03  0.12700000000E+01 0. -1.
         25    2    1    2    0    0  0.00000000000E+00  0.00000000000E+00 -0.37557060300E+03  0.39582655529E+03  0.12500153610E+03 0.  0.
    9000005    1    3    3    0    0 -0.24492324898E+02  0.55370584496E+02 -0.23679772265E+03  0.24441754655E+03  0.10000000000E+01 0.  0.
    9000005    1    3    3    0    0  0.24492324898E+02 -0.55370584496E+02 -0.13877288035E+03  0.15140900874E+03  0.10000000000E+01 0.  0.
<mgrwt>
<rscale>  0 0.12500154E+03</rscale>
<asrwt>0</asrwt>
<pdfrwt beam="2">  1        4 0.59338232E-01 0.12500154E+03</pdfrwt>
<pdfrwt beam="1">  1       -4 0.15581505E-02 0.12500154E+03</pdfrwt>
<totfact> 0.64958529E+03</totfact>
</mgrwt>
</event>
<event>
 5    1  0.3239419E-002  0.1250052E+03  0.7818608E-02  0.1235061E+00
          4   -1    0    0  501    0  0.00000000000E+00  0.00000000000E+00  0.31233611683E+02  0.31259420961E+02  0.12700000000E+01 0.  1.
         -4   -1    0    0    0  501 -0.00000000000E+00 -0.00000000000E+00 -0.12499539154E+03  0.12500184321E+03  0.12700000000E+01 0.  1.
         25    2    1    2    0    0  0.00000000000E+00  0.00000000000E+00 -0.93761779855E+02  0.15626126417E+03  0.12500524516E+03 0.  0.
    9000005    1    3    3    0    0 -0.18194853306E+02 -0.45114184448E+02  0.21619525405E+01  0.48703350645E+02  0.10000000000E+01 0.  0.
    9000005    1    3    3    0    0  0.18194853306E+02  0.45114184448E+02 -0.95923732396E+02  0.10755791353E+03  0.10000000000E+01 0.  0.
<mgrwt>
<rscale>  0 0.12500525E+03</rscale>
<asrwt>0</asrwt>
<pdfrwt beam="1">  1        4 0.48076527E-02 0.12500525E+03</pdfrwt>
<pdfrwt beam="2">  1       -4 0.19232542E-01 0.12500525E+03</pdfrwt>
<totfact> 0.98056899E+03</totfact>
</mgrwt>
</event>
<event>
 5    1  0.3239419E-002  0.1249994E+03  0.7818608E-02  0.1235070E+00
          4   -1    0    0  501    0  0.00000000000E+00  0.00000000000E+00  0.35444534779E+02  0.35467279931E+02  0.12700000000E+01 0.  1.
         -4   -1    0    0    0  501 -0.00000000000E+00 -0.00000000000E+00 -0.11014463853E+03  0.11015196002E+03  0.12700000000E+01 0.  1.
         25    2    1    2    0    0  0.00000000000E+00  0.00000000000E+00 -0.74700103748E+02  0.14561923995E+03  0.12499943017E+03 0.  0.
    9000005    1    3    3    0    0 -0.51207817864E+02  0.34480687409E+02 -0.26051990923E+02  0.67013913821E+02  0.10000000000E+01 0.  0.
    9000005    1    3    3    0    0  0.51207817864E+02 -0.34480687409E+02 -0.48648112825E+02  0.78605326130E+02  0.10000000000E+01 0.  0.
<mgrwt>
<rscale>  0 0.12499943E+03</rscale>
<asrwt>0</asrwt>
<pdfrwt beam="1">  1        4 0.54553182E-02 0.12499943E+03</pdfrwt>
<pdfrwt beam="2">  1       -4 0.16947642E-01 0.12499943E+03</pdfrwt>
<totfact> 0.10018551E+04</totfact>
</mgrwt>
</event>
<event>
 5    1  0.3239419E-002  0.1249960E+03  0.7818608E-02  0.1235075E+00
         -4   -1    0    0    0  501 -0.00000000000E+00  0.00000000000E+00  0.18691121609E+02  0.18734218078E+02  0.12700000000E+01 0.  1.
          4   -1    0    0  501    0  0.00000000000E+00 -0.00000000000E+00 -0.20869064330E+03  0.20869450760E+03  0.12700000000E+01 0.  1.
         25    2    1    2    0    0  0.00000000000E+00  0.00000000000E+00 -0.18999952169E+03  0.22742872568E+03  0.12499602801E+03 0.  0.
    9000005    1    3    3    0    0  0.52194499468E+02 -0.27429424390E+02 -0.57341964068E+02  0.82254118075E+02  0.10000000000E+01 0.  0.
    9000005    1    3    3    0    0 -0.52194499468E+02  0.27429424390E+02 -0.13265755763E+03  0.14517460760E+03  0.10000000000E+01 0.  0.
<mgrwt>
<rscale>  0 0.12499603E+03</rscale>
<asrwt>0</asrwt>
<pdfrwt beam="2">  1        4 0.32109864E-01 0.12499603E+03</pdfrwt>
<pdfrwt beam="1">  1       -4 0.28791697E-02 0.12499603E+03</pdfrwt>
<totfact> 0.85713587E+03</totfact>
</mgrwt>
</event>
<event>
 5    1  0.3239419E-002  0.1250017E+03  0.7818608E-02  0.1235067E+00
         -4   -1    0    0    0  501 -0.00000000000E+00  0.00000000000E+00  0.20285681611E+02  0.20325397374E+02  0.12700000000E+01 0. -1.
          4   -1    0    0  501    0  0.00000000000E+00 -0.00000000000E+00 -0.19233707195E+03  0.19234126480E+03  0.12700000000E+01 0. -1.
         25    2    1    2    0    0  0.00000000000E+00  0.00000000000E+00 -0.17205139034E+03  0.21266666217E+03  0.12500171312E+03 0.  0.
    9000005    1    3    3    0    0 -0.25456067979E+02 -0.38487169521E+02 -0.15772503127E+03  0.16433946301E+03  0.10000000000E+01 0.  0.
    9000005    1    3    3    0    0  0.25456067979E+02  0.38487169521E+02 -0.14326359069E+02  0.48327199162E+02  0.10000000000E+01 0.  0.
<mgrwt>
<rscale>  0 0.12500171E+03</rscale>
<asrwt>0</asrwt>
<pdfrwt beam="2">  1        4 0.29593695E-01 0.12500171E+03</pdfrwt>
<pdfrwt beam="1">  1       -4 0.31242518E-02 0.12500171E+03</pdfrwt>
<totfact> 0.88038853E+03</totfact>
</mgrwt>
</event>
<event>
 5    1  0.3239419E-002  0.1250028E+03  0.7818608E-02  0.1235065E+00
          4   -1    0    0  501    0  0.00000000000E+00  0.00000000000E+00  0.12068368218E+03  0.12069036434E+03  0.12700000000E+01 0.  1.
         -4   -1    0    0    0  501 -0.00000000000E+00 -0.00000000000E+00 -0.32349068014E+02  0.32373988036E+02  0.12700000000E+01 0.  1.
         25    2    1    2    0    0  0.00000000000E+00  0.00000000000E+00  0.88334614171E+02  0.15306435238E+03  0.12500276761E+03 0.  0.
    9000005    1    3    3    0    0  0.25360783110E+02 -0.28233835887E+02  0.10496289573E+03  0.11161777766E+03  0.10000000000E+01 0.  0.
    9000005    1    3    3    0    0 -0.25360783110E+02  0.28233835887E+02 -0.16628281558E+02  0.41446574725E+02  0.10000000000E+01 0.  0.
<mgrwt>
<rscale>  0 0.12500277E+03</rscale>
<asrwt>0</asrwt>
<pdfrwt beam="1">  1        4 0.18569151E-01 0.12500277E+03</pdfrwt>
<pdfrwt beam="2">  1       -4 0.49792106E-02 0.12500277E+03</pdfrwt>
<totfact> 0.98690190E+03</totfact>
</mgrwt>
</event>
<event>
 5    1  0.3239419E-002  0.1250260E+03  0.7818608E-02  0.1235029E+00
          4   -1    0    0  501    0  0.00000000000E+00  0.00000000000E+00  0.82546791901E+01  0.83518039088E+01  0.12700000000E+01 0.  1.
         -4   -1    0    0    0  501 -0.00000000000E+00 -0.00000000000E+00 -0.47054681913E+03  0.47054853299E+03  0.12700000000E+01 0.  1.
         25    2    1    2    0    0  0.00000000000E+00  0.00000000000E+00 -0.46229213994E+03  0.47890033689E+03  0.12502603739E+03 0.  0.
    9000005    1    3    3    0    0  0.12005834242E+02  0.18011879699E+02 -0.65422344973E+01  0.22635562691E+02  0.10000000000E+01 0.  0.
    9000005    1    3    3    0    0 -0.12005834242E+02 -0.18011879699E+02 -0.45574990544E+03  0.45626477420E+03  0.10000000000E+01 0.  0.
<mgrwt>
<rscale>  0 0.12502604E+03</rscale>
<asrwt>0</asrwt>
<pdfrwt beam="1">  1        4 0.12775540E-02 0.12502604E+03</pdfrwt>
<pdfrwt beam="2">  1       -4 0.72399401E-01 0.12502604E+03</pdfrwt>
<totfact> 0.57506484E+03</totfact>
</mgrwt>
</event>
<event>
 5    1  0.3239419E-002  0.1249792E+03  0.7818608E-02  0.1235102E+00
          4   -1    0    0  501    0  0.00000000000E+00  0.00000000000E+00  0.16695487203E+03  0.16695970231E+03  0.12700000000E+01 0. -1.
         -4   -1    0    0    0  501 -0.00000000000E+00 -0.00000000000E+00 -0.23366853305E+02  0.23401340419E+02  0.12700000000E+01 0. -1.
         25    2    1    2    0    0  0.00000000000E+00  0.00000000000E+00  0.14358801872E+03  0.19036104273E+03  0.12497922814E+03 0.  0.
    9000005    1    3    3    0    0  0.40382595640E+02  0.47375604731E+02  0.79960933090E+02  0.10134077548E+03  0.10000000000E+01 0.  0.
    9000005    1    3    3    0    0 -0.40382595640E+02 -0.47375604731E+02  0.63627085634E+02  0.89020267246E+02  0.10000000000E+01 0.  0.
<mgrwt>
<rscale>  0 0.12497923E+03</rscale>
<asrwt>0</asrwt>
<pdfrwt beam="1">  1        4 0.25688390E-01 0.12497923E+03</pdfrwt>
<pdfrwt beam="2">  1       -4 0.35979249E-02 0.12497923E+03</pdfrwt>
<totfact> 0.91827249E+03</totfact>
</mgrwt>
</event>
<event>
 5    1  0.3239419E-002  0.1250013E+03  0.7818608E-02  0.1235067E+00
         -4   -1    0    0    0  501 -0.00000000000E+00  0.00000000000E+00  0.27480056425E+02  0.27509387509E+02  0.12700000000E+01 0. -1.
          4   -1    0    0  501    0  0.00000000000E+00 -0.00000000000E+00 -0.14204358141E+03  0.14204925878E+03  0.12700000000E+01 0. -1.
         25    2    1    2    0    0  0.00000000000E+00  0.00000000000E+00 -0.11456352499E+03  0.16955864629E+03  0.12500133309E+03 0.  0.
    9000005    1    3    3    0    0  0.50334364211E+02 -0.26593176164E+02 -0.92250630166E+02  0.10840629135E+03  0.10000000000E+01 0.  0.
    9000005    1    3    3    0    0 -0.50334364211E+02  0.26593176164E+02 -0.22312894820E+02  0.61152354936E+02  0.10000000000E+01 0.  0.
<mgrwt>
<rscale>  0 0.12500133E+03</rscale>
<asrwt>0</asrwt>
<pdfrwt beam="2">  1        4 0.21855551E-01 0.12500133E+03</pdfrwt>
<pdfrwt beam="1">  1       -4 0.42303940E-02 0.12500133E+03</pdfrwt>
<totfact> 0.95528095E+03</totfact>
</mgrwt>
</event>
<event>
 5    1  0.3239419E-002  0.1250000E+03  0.7818608E-02  0.1235069E+00
         -4   -1    0    0    0  501 -0.00000000000E+00  0.00000000000E+00  0.41218764428E+02  0.41238324905E+02  0.12700000000E+01 0.  1.
          4   -1    0    0  501    0  0.00000000000E+00 -0.00000000000E+00 -0.94722491675E+02  0.94731005110E+02  0.12700000000E+01 0.  1.
         25    2    1    2    0    0  0.00000000000E+00  0.00000000000E+00 -0.53503727247E+02  0.13596933001E+03  0.12500003950E+03 0.  0.
    9000005    1    3    3    0    0 -0.56365421415E+02 -0.25003026900E+02 -0.37793527953E+02  0.72329543345E+02  0.10000000000E+01 0.  0.
    9000005    1    3    3    0    0  0.56365421415E+02  0.25003026900E+02 -0.15710199294E+02  0.63639786669E+02  0.10000000000E+01 0.  0.
<mgrwt>
<rscale>  0 0.12500004E+03</rscale>
<asrwt>0</asrwt>
<pdfrwt beam="2">  1        4 0.14574850E-01 0.12500004E+03</pdfrwt>
<pdfrwt beam="1">  1       -4 0.63435080E-02 0.12500004E+03</pdfrwt>
<totfact> 0.10217671E+04</totfact>
</mgrwt>
</event>
<event>
 5    1  0.3239419E-002  0.1249958E+03  0.7818608E-02  0.1235076E+00
          4   -1    0    0  501    0  0.00000000000E+00  0.00000000000E+00  0.16709456414E+02  0.16757650004E+02  0.12700000000E+01 0.  1.
         -4   -1    0    0    0  501 -0.00000000000E+00 -0.00000000000E+00 -0.23337264545E+03  0.23337610106E+03  0.12700000000E+01 0.  1.
         25    2    1    2    0    0  0.00000000000E+00  0.00000000000E+00 -0.21666318904E+03  0.25013375106E+03  0.12499582367E+03 0.  0.
    9000005    1    3    3    0    0 -0.16154919668E+02  0.59236497874E+02 -0.85076621206E+02  0.10492366552E+03  0.10000000000E+01 0.  0.
    9000005    1    3    3    0    0  0.16154919668E+02 -0.59236497874E+02 -0.13158656783E+03  0.14521008554E+03  0.10000000000E+01 0.  0.
<mgrwt>
<rscale>  0 0.12499582E+03</rscale>
<asrwt>0</asrwt>
<pdfrwt beam="1">  1        4 0.25746588E-02 0.12499582E+03</pdfrwt>
<pdfrwt beam="2">  1       -4 0.35907454E-01 0.12499582E+03</pdfrwt>
<totfact> 0.82318560E+03</totfact>
</mgrwt>
</event>
<event>
 5    1  0.3239419E-002  0.1249949E+03  0.7818608E-02  0.1235077E+00
         -4   -1    0    0    0  501 -0.00000000000E+00  0.00000000000E+00  0.40994584495E+03  0.40994781216E+03  0.12700000000E+01 0. -1.
          4   -1    0    0  501    0  0.00000000000E+00 -0.00000000000E+00 -0.94835952000E+01  0.95682536504E+01  0.12700000000E+01 0. -1.
         25    2    1    2    0    0  0.00000000000E+00  0.00000000000E+00  0.40046224975E+03  0.41951606581E+03  0.12499486388E+03 0.  0.
    9000005    1    3    3    0    0 -0.26996756722E+01  0.11270381144E+02  0.40632390133E+03  0.40649037200E+03  0.10000000000E+01 0.  0.
    9000005    1    3    3    0    0  0.26996756722E+01 -0.11270381144E+02 -0.58616515782E+01  0.13025693805E+02  0.10000000000E+01 0.  0.
<mgrwt>
<rscale>  0 0.12499486E+03</rscale>
<asrwt>0</asrwt>
<pdfrwt beam="2">  1        4 0.14656783E-02 0.12499486E+03</pdfrwt>
<pdfrwt beam="1">  1       -4 0.63075249E-01 0.12499486E+03</pdfrwt>
<totfact> 0.62705036E+03</totfact>
</mgrwt>
</event>
<event>
 5    1  0.3239419E-002  0.1250081E+03  0.7818608E-02  0.1235057E+00
          4   -1    0    0  501    0  0.00000000000E+00  0.00000000000E+00  0.19362638571E+04  0.19362642736E+04  0.12700000000E+01 0. -1.
         -4   -1    0    0    0  501 -0.00000000000E+00 -0.00000000000E+00 -0.18173737112E+01  0.22171484402E+01  0.12700000000E+01 0. -1.
         25    2    1    2    0    0  0.00000000000E+00  0.00000000000E+00  0.19344464834E+04  0.19384814220E+04  0.12500810570E+03 0.  0.
    9000005    1    3    3    0    0  0.36868172332E+02  0.14445932281E+02  0.21745328965E+03  0.22103140109E+03  0.10000000000E+01 0.  0.
    9000005    1    3    3    0    0 -0.36868172332E+02 -0.14445932281E+02  0.17169931937E+04  0.17174500209E+04  0.10000000000E+01 0.  0.
<mgrwt>
<rscale>  0 0.12500811E+03</rscale>
<asrwt>0</asrwt>
<pdfrwt beam="1">  1        4 0.29791647E+00 0.12500811E+03</pdfrwt>
<pdfrwt beam="2">  1       -4 0.31038100E-03 0.12500811E+03</pdfrwt>
<totfact> 0.10683835E+03</totfact>
</mgrwt>
</event>
<event>
 5    1  0.3239419E-002  0.1250024E+03  0.7818608E-02  0.1235065E+00
          4   -1    0    0  501    0  0.00000000000E+00  0.00000000000E+00  0.18463814045E+03  0.18464250813E+03  0.12700000000E+01 0. -1.
         -4   -1    0    0    0  501 -0.00000000000E+00 -0.00000000000E+00 -0.21133386680E+02  0.21171512288E+02  0.12700000000E+01 0. -1.
         25    2    1    2    0    0  0.00000000000E+00  0.00000000000E+00  0.16350475377E+03  0.20581402042E+03  0.12500242596E+03 0.  0.
    9000005    1    3    3    0    0  0.51949605974E+01  0.80595608621E+01 -0.19923041782E+02  0.22133046124E+02  0.10000000000E+01 0.  0.
    9000005    1    3    3    0    0 -0.51949605974E+01 -0.80595608621E+01  0.18342779555E+03  0.18368097430E+03  0.10000000000E+01 0.  0.
<mgrwt>
<rscale>  0 0.12500243E+03</rscale>
<asrwt>0</asrwt>
<pdfrwt beam="1">  1        4 0.28409137E-01 0.12500243E+03</pdfrwt>
<pdfrwt beam="2">  1       -4 0.32545589E-02 0.12500243E+03</pdfrwt>
<totfact> 0.89159263E+03</totfact>
</mgrwt>
</event>
<event>
 5    1  0.3239419E-002  0.1250017E+03  0.7818608E-02  0.1235067E+00
          4   -1    0    0  501    0  0.00000000000E+00  0.00000000000E+00  0.54874462069E+02  0.54889156373E+02  0.12700000000E+01 0. -1.
         -4   -1    0    0    0  501 -0.00000000000E+00 -0.00000000000E+00 -0.71157250207E+02  0.71168582654E+02  0.12700000000E+01 0. -1.
         25    2    1    2    0    0  0.00000000000E+00  0.00000000000E+00 -0.16282788138E+02  0.12605773903E+03  0.12500169751E+03 0.  0.
    9000005    1    3    3    0    0 -0.44069424492E+02  0.24906640037E+02 -0.45096600612E+02  0.67802347155E+02  0.10000000000E+01 0.  0.
    9000005    1    3    3    0    0  0.44069424492E+02 -0.24906640037E+02  0.28813812474E+02  0.58255391873E+02  0.10000000000E+01 0.  0.
<mgrwt>
<rscale>  0 0.12500170E+03</rscale>
<asrwt>0</asrwt>
<pdfrwt beam="1">  1        4 0.84442270E-02 0.12500170E+03</pdfrwt>
<pdfrwt beam="2">  1       -4 0.10949271E-01 0.12500170E+03</pdfrwt>
<totfact> 0.10429292E+04</totfact>
</mgrwt>
</event>
<event>
 5    1  0.3239419E-002  0.1250070E+03  0.7818608E-02  0.1235058E+00
         -4   -1    0    0    0  501 -0.00000000000E+00  0.00000000000E+00  0.14193614587E+02  0.14250319121E+02  0.12700000000E+01 0.  1.
          4   -1    0    0  501    0  0.00000000000E+00 -0.00000000000E+00 -0.27463562462E+03  0.27463856104E+03  0.12700000000E+01 0.  1.
         25    2    1    2    0    0  0.00000000000E+00  0.00000000000E+00 -0.26044201004E+03  0.28888888017E+03  0.12500697777E+03 0.  0.
    9000005    1    3    3    0    0  0.58081998382E+02 -0.14707734145E+02 -0.89149831802E+02  0.10741754275E+03  0.10000000000E+01 0.  0.
    9000005    1    3    3    0    0 -0.58081998382E+02  0.14707734145E+02 -0.17129217823E+03  0.18147133742E+03  0.10000000000E+01 0.  0.
<mgrwt>
<rscale>  0 0.12500698E+03</rscale>
<asrwt>0</asrwt>
<pdfrwt beam="2">  1        4 0.42256219E-01 0.12500698E+03</pdfrwt>
<pdfrwt beam="1">  1       -4 0.21882210E-02 0.12500698E+03</pdfrwt>
<totfact> 0.77002140E+03</totfact>
</mgrwt>
</event>
<event>
 5    1  0.3239419E-002  0.1250030E+03  0.7818608E-02  0.1235065E+00
          4   -1    0    0  501    0  0.00000000000E+00  0.00000000000E+00  0.55453529409E+02  0.55468070310E+02  0.12700000000E+01 0. -1.
         -4   -1    0    0    0  501 -0.00000000000E+00 -0.00000000000E+00 -0.70415796911E+02  0.70427248665E+02  0.12700000000E+01 0. -1.
         25    2    1    2    0    0  0.00000000000E+00  0.00000000000E+00 -0.14962267502E+02  0.12589531898E+03  0.12500304753E+03 0.  0.
    9000005    1    3    3    0    0 -0.23496213606E+01  0.31573929405E+02  0.46783016065E+02  0.56498533881E+02  0.10000000000E+01 0.  0.
    9000005    1    3    3    0    0  0.23496213606E+01 -0.31573929405E+02 -0.61745283567E+02  0.69396785094E+02  0.10000000000E+01 0.  0.
<mgrwt>
<rscale>  0 0.12500305E+03</rscale>
<asrwt>0</asrwt>
<pdfrwt beam="1">  1        4 0.85333116E-02 0.12500305E+03</pdfrwt>
<pdfrwt beam="2">  1       -4 0.10835199E-01 0.12500305E+03</pdfrwt>
<totfact> 0.10432535E+04</totfact>
</mgrwt>
</event>
<event>
 5    1  0.3239419E-002  0.1249998E+03  0.7818608E-02  0.1235070E+00
          4   -1    0    0  501    0  0.00000000000E+00  0.00000000000E+00  0.20773172924E+02  0.20811958421E+02  0.12700000000E+01 0.  1.
         -4   -1    0    0    0  501 -0.00000000000E+00 -0.00000000000E+00 -0.18782622296E+03  0.18783051651E+03  0.12700000000E+01 0.  1.
         25    2    1    2    0    0  0.00000000000E+00  0.00000000000E+00 -0.16705305004E+03  0.20864247493E+03  0.12499984327E+03 0.  0.
    9000005    1    3    3    0    0  0.44459770521E+02 -0.35352703881E+02 -0.12701256755E+03  0.13913905700E+03  0.10000000000E+01 0.  0.
    9000005    1    3    3    0    0 -0.44459770521E+02  0.35352703881E+02 -0.40040482488E+02  0.69503417933E+02  0.10000000000E+01 0.  0.
<mgrwt>
<rscale>  0 0.12499984E+03</rscale>
<asrwt>0</asrwt>
<pdfrwt beam="1">  1        4 0.31991867E-02 0.12499984E+03</pdfrwt>
<pdfrwt beam="2">  1       -4 0.28899655E-01 0.12499984E+03</pdfrwt>
<totfact> 0.88698375E+03</totfact>
</mgrwt>
</event>
<event>
 5    1  0.3239419E-002  0.1250009E+03  0.7818608E-02  0.1235068E+00
         -4   -1    0    0    0  501 -0.00000000000E+00  0.00000000000E+00  0.45460526699E+02  0.45478262805E+02  0.12700000000E+01 0. -1.
          4   -1    0    0  501    0  0.00000000000E+00 -0.00000000000E+00 -0.85888240252E+02  0.85897629267E+02  0.12700000000E+01 0. -1.
         25    2    1    2    0    0  0.00000000000E+00  0.00000000000E+00 -0.40427713553E+02  0.13137589207E+03  0.12500089998E+03 0.  0.
    9000005    1    3    3    0    0  0.24136285380E+02 -0.56552473600E+02 -0.31943864534E+02  0.69297568670E+02  0.10000000000E+01 0.  0.
    9000005    1    3    3    0    0 -0.24136285380E+02  0.56552473600E+02 -0.84838490189E+01  0.62078323402E+02  0.10000000000E+01 0.  0.
<mgrwt>
<rscale>  0 0.12500090E+03</rscale>
<asrwt>0</asrwt>
<pdfrwt beam="2">  1        4 0.13215662E-01 0.12500090E+03</pdfrwt>
<pdfrwt beam="1">  1       -4 0.69960137E-02 0.12500090E+03</pdfrwt>
<totfact> 0.10314828E+04</totfact>
</mgrwt>
</event>
<event>
 5    1  0.3239419E-002  0.1250062E+03  0.7818608E-02  0.1235060E+00
          4   -1    0    0  501    0  0.00000000000E+00  0.00000000000E+00  0.13109478140E+02  0.13170851039E+02  0.12700000000E+01 0.  1.
         -4   -1    0    0    0  501 -0.00000000000E+00 -0.00000000000E+00 -0.29724211474E+03  0.29724482784E+03  0.12700000000E+01 0.  1.
         25    2    1    2    0    0  0.00000000000E+00  0.00000000000E+00 -0.28413263660E+03  0.31041567888E+03  0.12500615389E+03 0.  0.
    9000005    1    3    3    0    0 -0.33068223432E+02 -0.52329584877E+02 -0.12074230011E+03  0.13568933595E+03  0.10000000000E+01 0.  0.
    9000005    1    3    3    0    0  0.33068223432E+02  0.52329584877E+02 -0.16339033650E+03  0.17472634293E+03  0.10000000000E+01 0.  0.
<mgrwt>
<rscale>  0 0.12500615E+03</rscale>
<asrwt>0</asrwt>
<pdfrwt beam="1">  1        4 0.20217727E-02 0.12500615E+03</pdfrwt>
<pdfrwt beam="2">  1       -4 0.45734481E-01 0.12500615E+03</pdfrwt>
<totfact> 0.74300475E+03</totfact>
</mgrwt>
</event>
<event>
 5    1  0.3239419E-002  0.1249990E+03  0.7818608E-02  0.1235071E+00
          4   -1    0    0  501    0  0.00000000000E+00  0.00000000000E+00  0.33373861378E+03  0.33374103018E+03  0.12700000000E+01 0.  1.
         -4   -1    0    0    0  501 -0.00000000000E+00 -0.00000000000E+00 -0.11667415849E+02  0.11736332161E+02  0.12700000000E+01 0.  1.
         25    2    1    2    0    0  0.00000000000E+00  0.00000000000E+00  0.32207119793E+03  0.34547736234E+03  0.12499900542E+03 0.  0.
    9000005    1    3    3    0    0 -0.35112287830E+02 -0.16040373651E+02  0.25212530387E+02  0.46117654234E+02  0.10000000000E+01 0.  0.
    9000005    1    3    3    0    0  0.35112287830E+02  0.16040373651E+02  0.29685866754E+03  0.29935970811E+03  0.10000000000E+01 0.  0.
<mgrwt>
<rscale>  0 0.12499901E+03</rscale>
<asrwt>0</asrwt>
<pdfrwt beam="1">  1        4 0.51349880E-01 0.12499901E+03</pdfrwt>
<pdfrwt beam="2">  1       -4 0.18004745E-02 0.12499901E+03</pdfrwt>
<totfact> 0.70226534E+03</totfact>
</mgrwt>
</event>
<event>
 5    1  0.3239419E-002  0.1249976E+03  0.7818608E-02  0.1235073E+00
         -4   -1    0    0    0  501 -0.00000000000E+00  0.00000000000E+00  0.23601457406E+02  0.23635602207E+02  0.12700000000E+01 0.  1.
          4   -1    0    0  501    0  0.00000000000E+00 -0.00000000000E+00 -0.16534614752E+03  0.16535102479E+03  0.12700000000E+01 0.  1.
         25    2    1    2    0    0  0.00000000000E+00  0.00000000000E+00 -0.14174469011E+03  0.18898662700E+03  0.12499755201E+03 0.  0.
    9000005    1    3    3    0    0  0.57365395016E+02  0.13467812895E+02 -0.39413944523E+02  0.70898727439E+02  0.10000000000E+01 0.  0.
    9000005    1    3    3    0    0 -0.57365395016E+02 -0.13467812895E+02 -0.10233074559E+03  0.11808789956E+03  0.10000000000E+01 0.  0.
<mgrwt>
<rscale>  0 0.12499755E+03</rscale>
<asrwt>0</asrwt>
<pdfrwt beam="2">  1        4 0.25440870E-01 0.12499755E+03</pdfrwt>
<pdfrwt beam="1">  1       -4 0.36339952E-02 0.12499755E+03</pdfrwt>
<totfact> 0.92028984E+03</totfact>
</mgrwt>
</event>
<event>
 5    1  0.3239419E-002  0.1249996E+03  0.7818608E-02  0.1235070E+00
          4   -1    0    0  501    0  0.00000000000E+00  0.00000000000E+00  0.84224779055E+02  0.84234353484E+02  0.12700000000E+01 0.  1.
         -4   -1    0    0    0  501 -0.00000000000E+00 -0.00000000000E+00 -0.46357672795E+02  0.46375065789E+02  0.12700000000E+01 0.  1.
         25    2    1    2    0    0  0.00000000000E+00  0.00000000000E+00  0.37867106260E+02  0.13060941927E+03  0.12499961066E+03 0.  0.
    9000005    1    3    3    0    0 -0.44646127197E+02  0.43446646920E+02  0.24088296763E+02  0.66799205409E+02  0.10000000000E+01 0.  0.
    9000005    1    3    3    0    0  0.44646127197E+02 -0.43446646920E+02  0.13778809497E+02  0.63810213864E+02  0.10000000000E+01 0.  0.
<mgrwt>
<rscale>  0 0.12499961E+03</rscale>
<asrwt>0</asrwt>
<pdfrwt beam="1">  1        4 0.12959733E-01 0.12499961E+03</pdfrwt>
<pdfrwt beam="2">  1       -4 0.71340241E-02 0.12499961E+03</pdfrwt>
<totfact> 0.10331561E+04</totfact>
</mgrwt>
</event>
<event>
 5    1  0.3239419E-002  0.1250010E+03  0.7818608E-02  0.1235068E+00
          4   -1    0    0  501    0  0.00000000000E+00  0.00000000000E+00  0.15646779660E+04  0.15646784814E+04  0.12700000000E+01 0. -1.
         -4   -1    0    0    0  501 -0.00000000000E+00 -0.00000000000E+00 -0.23344980561E+01  0.26575893539E+01  0.12700000000E+01 0. -1.
         25    2    1    2    0    0  0.00000000000E+00  0.00000000000E+00  0.15623434679E+04  0.15673360707E+04  0.12500098755E+03 0.  0.
    9000005    1    3    3    0    0 -0.23892021668E+02 -0.36061069548E+02  0.13466721690E+04  0.13473671215E+04  0.10000000000E+01 0.  0.
    9000005    1    3    3    0    0  0.23892021668E+02  0.36061069548E+02  0.21567129896E+03  0.21996894925E+03  0.10000000000E+01 0.  0.
<mgrwt>
<rscale>  0 0.12500099E+03</rscale>
<asrwt>0</asrwt>
<pdfrwt beam="1">  1        4 0.24074494E+00 0.12500099E+03</pdfrwt>
<pdfrwt beam="2">  1       -4 0.38404580E-03 0.12500099E+03</pdfrwt>
<totfact> 0.16643710E+03</totfact>
</mgrwt>
</event>
<event>
 5    1  0.3239419E-002  0.1250000E+03  0.7818608E-02  0.1235069E+00
         -4   -1    0    0    0  501 -0.00000000000E+00  0.00000000000E+00  0.23199586269E+02  0.23234321661E+02  0.12700000000E+01 0. -1.
          4   -1    0    0  501    0  0.00000000000E+00 -0.00000000000E+00 -0.16821269163E+03  0.16821748579E+03  0.12700000000E+01 0. -1.
         25    2    1    2    0    0  0.00000000000E+00  0.00000000000E+00 -0.14501310536E+03  0.19145180745E+03  0.12499997540E+03 0.  0.
    9000005    1    3    3    0    0 -0.22260662021E+02 -0.47864697361E+02 -0.12373402115E+03  0.13452759686E+03  0.10000000000E+01 0.  0.
    9000005    1    3    3    0    0  0.22260662021E+02  0.47864697361E+02 -0.21279084219E+02  0.56924210598E+02  0.10000000000E+01 0.  0.
<mgrwt>
<rscale>  0 0.12499998E+03</rscale>
<asrwt>0</asrwt>
<pdfrwt beam="2">  1        4 0.25881916E-01 0.12499998E+03</pdfrwt>
<pdfrwt beam="1">  1       -4 0.35722080E-02 0.12499998E+03</pdfrwt>
<totfact> 0.91595368E+03</totfact>
</mgrwt>
</event>
<event>
 5    1  0.3239419E-002  0.1250058E+03  0.7818608E-02  0.1235060E+00
         -4   -1    0    0    0  501 -0.00000000000E+00  0.00000000000E+00  0.21486158023E+03  0.21486533355E+03  0.12700000000E+01 0.  1.
          4   -1    0    0  501    0  0.00000000000E+00 -0.00000000000E+00 -0.18155887791E+02  0.18200251687E+02  0.12700000000E+01 0.  1.
         25    2    1    2    0    0  0.00000000000E+00  0.00000000000E+00  0.19670569244E+03  0.23306558523E+03  0.12500575019E+03 0.  0.
    9000005    1    3    3    0    0  0.61523040264E+02  0.91915486897E+01  0.10954574630E+03  0.12597952049E+03  0.10000000000E+01 0.  0.
    9000005    1    3    3    0    0 -0.61523040264E+02 -0.91915486897E+01  0.87159946144E+02  0.10708606474E+03  0.10000000000E+01 0.  0.
<mgrwt>
<rscale>  0 0.12500575E+03</rscale>
<asrwt>0</asrwt>
<pdfrwt beam="2">  1        4 0.27969147E-02 0.12500575E+03</pdfrwt>
<pdfrwt beam="1">  1       -4 0.33059330E-01 0.12500575E+03</pdfrwt>
<totfact> 0.84830203E+03</totfact>
</mgrwt>
</event>
<event>
 5    1  0.3239419E-002  0.1250031E+03  0.7818608E-02  0.1235064E+00
          4   -1    0    0  501    0  0.00000000000E+00  0.00000000000E+00  0.84908639594E+01  0.85853171623E+01  0.12700000000E+01 0. -1.
         -4   -1    0    0    0  501 -0.00000000000E+00 -0.00000000000E+00 -0.45743615410E+03  0.45743791707E+03  0.12700000000E+01 0. -1.
         25    2    1    2    0    0  0.00000000000E+00  0.00000000000E+00 -0.44894529014E+03  0.46602323423E+03  0.12500312520E+03 0.  0.
    9000005    1    3    3    0    0  0.57154107168E+02  0.20160132176E+02 -0.16763635539E+03  0.17825815702E+03  0.10000000000E+01 0.  0.
    9000005    1    3    3    0    0 -0.57154107168E+02 -0.20160132176E+02 -0.28130893475E+03  0.28776507722E+03  0.10000000000E+01 0.  0.
<mgrwt>
<rscale>  0 0.12500313E+03</rscale>
<asrwt>0</asrwt>
<pdfrwt beam="1">  1        4 0.13136884E-02 0.12500313E+03</pdfrwt>
<pdfrwt beam="2">  1       -4 0.70382175E-01 0.12500313E+03</pdfrwt>
<totfact> 0.58596385E+03</totfact>
</mgrwt>
</event>
<event>
 5    1  0.3239419E-002  0.1249999E+03  0.7818608E-02  0.1235069E+00
          4   -1    0    0  501    0  0.00000000000E+00  0.00000000000E+00  0.35532838436E+03  0.35533065394E+03  0.12700000000E+01 0.  1.
         -4   -1    0    0    0  501 -0.00000000000E+00 -0.00000000000E+00 -0.10954341938E+02  0.11027715416E+02  0.12700000000E+01 0.  1.
         25    2    1    2    0    0  0.00000000000E+00  0.00000000000E+00  0.34437404242E+03  0.36635836936E+03  0.12499989482E+03 0.  0.
    9000005    1    3    3    0    0  0.58175910756E+02  0.12242721353E+02  0.11574037775E+03  0.13011977506E+03  0.10000000000E+01 0.  0.
    9000005    1    3    3    0    0 -0.58175910756E+02 -0.12242721353E+02  0.22863366466E+03  0.23623859430E+03  0.10000000000E+01 0.  0.
<mgrwt>
<rscale>  0 0.12499989E+03</rscale>
<asrwt>0</asrwt>
<pdfrwt beam="1">  1        4 0.54671715E-01 0.12499989E+03</pdfrwt>
<pdfrwt beam="2">  1       -4 0.16911024E-02 0.12499989E+03</pdfrwt>
<totfact> 0.67961811E+03</totfact>
</mgrwt>
</event>
<event>
 5    1  0.3239419E-002  0.1250004E+03  0.7818608E-02  0.1235069E+00
          4   -1    0    0  501    0  0.00000000000E+00  0.00000000000E+00  0.63176192833E+03  0.63176320484E+03  0.12700000000E+01 0.  1.
         -4   -1    0    0    0  501 -0.00000000000E+00 -0.00000000000E+00 -0.61166380747E+01  0.62470922306E+01  0.12700000000E+01 0.  1.
         25    2    1    2    0    0  0.00000000000E+00  0.00000000000E+00  0.62564529026E+03  0.63801029707E+03  0.12500043979E+03 0.  0.
    9000005    1    3    3    0    0  0.22267620615E+02  0.10751433870E+02  0.19890377223E+02  0.31750076601E+02  0.10000000000E+01 0.  0.
    9000005    1    3    3    0    0 -0.22267620615E+02 -0.10751433870E+02  0.60575491304E+03  0.60626022047E+03  0.10000000000E+01 0.  0.
<mgrwt>
<rscale>  0 0.12500044E+03</rscale>
<asrwt>0</asrwt>
<pdfrwt beam="1">  1        4 0.97204228E-01 0.12500044E+03</pdfrwt>
<pdfrwt beam="2">  1       -4 0.95115484E-03 0.12500044E+03</pdfrwt>
<totfact> 0.46552494E+03</totfact>
</mgrwt>
</event>
<event>
 5    1  0.3239419E-002  0.1249807E+03  0.7818608E-02  0.1235099E+00
          4   -1    0    0  501    0  0.00000000000E+00  0.00000000000E+00  0.72455453520E+01  0.73560062159E+01  0.12700000000E+01 0. -1.
         -4   -1    0    0    0  501 -0.00000000000E+00 -0.00000000000E+00 -0.53476945759E+03  0.53477096562E+03  0.12700000000E+01 0. -1.
         25    2    1    2    0    0  0.00000000000E+00  0.00000000000E+00 -0.52752391224E+03  0.54212697184E+03  0.12498070095E+03 0.  0.
    9000005    1    3    3    0    0 -0.22474787115E+02  0.55943157036E+02 -0.33494376176E+03  0.34032789545E+03  0.10000000000E+01 0.  0.
    9000005    1    3    3    0    0  0.22474787115E+02 -0.55943157036E+02 -0.19258015048E+03  0.20179907639E+03  0.10000000000E+01 0.  0.
<mgrwt>
<rscale>  0 0.12498070E+03</rscale>
<asrwt>0</asrwt>
<pdfrwt beam="1">  1        4 0.11233127E-02 0.12498070E+03</pdfrwt>
<pdfrwt beam="2">  1       -4 0.82280807E-01 0.12498070E+03</pdfrwt>
<totfact> 0.52760202E+03</totfact>
</mgrwt>
</event>
<event>
 5    1  0.3239419E-002  0.1250006E+03  0.7818608E-02  0.1235068E+00
          4   -1    0    0  501    0  0.00000000000E+00  0.00000000000E+00  0.73460166186E+01  0.74549889444E+01  0.12700000000E+01 0. -1.
         -4   -1    0    0    0  501 -0.00000000000E+00 -0.00000000000E+00 -0.52773106519E+03  0.52773259334E+03  0.12700000000E+01 0. -1.
         25    2    1    2    0    0  0.00000000000E+00  0.00000000000E+00 -0.52038504857E+03  0.53518758228E+03  0.12500059779E+03 0.  0.
    9000005    1    3    3    0    0  0.22763788634E+02  0.49586009249E+02 -0.12974256267E+03  0.14075189147E+03  0.10000000000E+01 0.  0.
    9000005    1    3    3    0    0 -0.22763788634E+02 -0.49586009249E+02 -0.39064248591E+03  0.39443569081E+03  0.10000000000E+01 0.  0.
<mgrwt>
<rscale>  0 0.12500060E+03</rscale>
<asrwt>0</asrwt>
<pdfrwt beam="1">  1        4 0.11386569E-02 0.12500060E+03</pdfrwt>
<pdfrwt beam="2">  1       -4 0.81197865E-01 0.12500060E+03</pdfrwt>
<totfact> 0.53233307E+03</totfact>
</mgrwt>
</event>
<event>
 5    1  0.3239419E-002  0.1249982E+03  0.7818608E-02  0.1235072E+00
          4   -1    0    0  501    0  0.00000000000E+00  0.00000000000E+00  0.82541452759E+03  0.82541550461E+03  0.12700000000E+01 0. -1.
         -4   -1    0    0    0  501 -0.00000000000E+00 -0.00000000000E+00 -0.46461317179E+01  0.48165796931E+01  0.12700000000E+01 0. -1.
         25    2    1    2    0    0  0.00000000000E+00  0.00000000000E+00  0.82076839587E+03  0.83023208431E+03  0.12499821659E+03 0.  0.
    9000005    1    3    3    0    0  0.42380986407E+02  0.45864838680E+02  0.39493955192E+03  0.39984744729E+03  0.10000000000E+01 0.  0.
    9000005    1    3    3    0    0 -0.42380986407E+02 -0.45864838680E+02  0.42582884396E+03  0.43038463702E+03  0.10000000000E+01 0.  0.
<mgrwt>
<rscale>  0 0.12499822E+03</rscale>
<asrwt>0</asrwt>
<pdfrwt beam="1">  1        4 0.12699990E+00 0.12499822E+03</pdfrwt>
<pdfrwt beam="2">  1       -4 0.72797681E-03 0.12499822E+03</pdfrwt>
<totfact> 0.36951649E+03</totfact>
</mgrwt>
</event>
<event>
 5    1  0.3239419E-002  0.1249999E+03  0.7818608E-02  0.1235069E+00
         -4   -1    0    0    0  501 -0.00000000000E+00  0.00000000000E+00  0.53868237984E+02  0.53883206693E+02  0.12700000000E+01 0. -1.
          4   -1    0    0  501    0  0.00000000000E+00 -0.00000000000E+00 -0.72484218201E+02  0.72495343218E+02  0.12700000000E+01 0. -1.
         25    2    1    2    0    0  0.00000000000E+00  0.00000000000E+00 -0.18615980217E+02  0.12637854991E+03  0.12499993263E+03 0.  0.
    9000005    1    3    3    0    0  0.45482258628E+02  0.29427358728E+02 -0.40806701892E+02  0.67829139836E+02  0.10000000000E+01 0.  0.
    9000005    1    3    3    0    0 -0.45482258628E+02 -0.29427358728E+02  0.22190721675E+02  0.58549410074E+02  0.10000000000E+01 0.  0.
<mgrwt>
<rscale>  0 0.12499993E+03</rscale>
<asrwt>0</asrwt>
<pdfrwt beam="2">  1        4 0.11153425E-01 0.12499993E+03</pdfrwt>
<pdfrwt beam="1">  1       -4 0.82894284E-02 0.12499993E+03</pdfrwt>
<totfact> 0.10422694E+04</totfact>
</mgrwt>
</event>
<event>
 5    1  0.3239419E-002  0.1249976E+03  0.7818608E-02  0.1235073E+00
         -4   -1    0    0    0  501 -0.00000000000E+00  0.00000000000E+00  0.14606827915E+03  0.14607380010E+03  0.12700000000E+01 0. -1.
          4   -1    0    0  501    0  0.00000000000E+00 -0.00000000000E+00 -0.26720481705E+02  0.26750645648E+02  0.12700000000E+01 0. -1.
         25    2    1    2    0    0  0.00000000000E+00  0.00000000000E+00  0.11934779745E+03  0.17282444574E+03  0.12499756914E+03 0.  0.
    9000005    1    3    3    0    0  0.24612718493E+02  0.40649535476E+02  0.11578397208E+03  0.12516029258E+03  0.10000000000E+01 0.  0.
    9000005    1    3    3    0    0 -0.24612718493E+02 -0.40649535476E+02  0.35638253636E+01  0.47664153169E+02  0.10000000000E+01 0.  0.
<mgrwt>
<rscale>  0 0.12499757E+03</rscale>
<asrwt>0</asrwt>
<pdfrwt beam="2">  1        4 0.41135885E-02 0.12499757E+03</pdfrwt>
<pdfrwt beam="1">  1       -4 0.22474787E-01 0.12499757E+03</pdfrwt>
<totfact> 0.94929983E+03</totfact>
</mgrwt>
</event>
<event>
 5    1  0.3239419E-002  0.1249964E+03  0.7818608E-02  0.1235075E+00
          4   -1    0    0  501    0  0.00000000000E+00  0.00000000000E+00  0.12039976988E+02  0.12106772727E+02  0.12700000000E+01 0.  1.
         -4   -1    0    0    0  501 -0.00000000000E+00 -0.00000000000E+00 -0.32345577782E+03  0.32345827104E+03  0.12700000000E+01 0.  1.
         25    2    1    2    0    0  0.00000000000E+00  0.00000000000E+00 -0.31141580083E+03  0.33556504377E+03  0.12499639031E+03 0.  0.
    9000005    1    3    3    0    0  0.45937069082E+02 -0.98564567583E+01 -0.45095289452E+02  0.65130247861E+02  0.10000000000E+01 0.  0.
    9000005    1    3    3    0    0 -0.45937069082E+02  0.98564567583E+01 -0.26632051138E+03  0.27043479591E+03  0.10000000000E+01 0.  0.
<mgrwt>
<rscale>  0 0.12499639E+03</rscale>
<asrwt>0</asrwt>
<pdfrwt beam="1">  1        4 0.18576343E-02 0.12499639E+03</pdfrwt>
<pdfrwt beam="2">  1       -4 0.49767751E-01 0.12499639E+03</pdfrwt>
<totfact> 0.71348033E+03</totfact>
</mgrwt>
</event>
<event>
 5    1  0.3239419E-002  0.1250025E+03  0.7818608E-02  0.1235065E+00
          4   -1    0    0  501    0  0.00000000000E+00  0.00000000000E+00  0.32967304760E+01  0.35328928418E+01  0.12700000000E+01 0. -1.
         -4   -1    0    0    0  501 -0.00000000000E+00 -0.00000000000E+00 -0.11437223347E+04  0.11437230398E+04  0.12700000000E+01 0. -1.
         25    2    1    2    0    0  0.00000000000E+00  0.00000000000E+00 -0.11404256042E+04  0.11472559327E+04  0.12500246491E+03 0.  0.
    9000005    1    3    3    0    0  0.61380027403E+02  0.12761697595E+01 -0.46307612441E+03  0.46712913993E+03  0.10000000000E+01 0.  0.
    9000005    1    3    3    0    0 -0.61380027403E+02 -0.12761697595E+01 -0.67734947982E+03  0.68012679273E+03  0.10000000000E+01 0.  0.
<mgrwt>
<rscale>  0 0.12500246E+03</rscale>
<asrwt>0</asrwt>
<pdfrwt beam="1">  1        4 0.52541079E-03 0.12500246E+03</pdfrwt>
<pdfrwt beam="2">  1       -4 0.17597520E+00 0.12500246E+03</pdfrwt>
<totfact> 0.26135141E+03</totfact>
</mgrwt>
</event>
<event>
 4    1  0.3239419E-002  0.1244360E+03  0.7818608E-02  0.1235953E+00
         -4   -1    0    0    0  501 -0.00000000000E+00  0.00000000000E+00  0.11166195373E+04  0.11166202596E+04  0.12700000000E+01 0.  1.
          4   -1    0    0  501    0  0.00000000000E+00 -0.00000000000E+00 -0.33497282665E+01  0.35823985623E+01  0.12700000000E+01 0.  1.
    9000005    1    1    2    0    0  0.12003106189E+02 -0.60309864320E+02  0.64143175790E+03  0.64437338115E+03  0.10000000000E+01 0.  0.
    9000005    1    1    2    0    0 -0.12003106189E+02  0.60309864320E+02  0.47183805118E+03  0.47582927698E+03  0.10000000000E+01 0.  0.
<mgrwt>
<rscale>  0 0.12443604E+03</rscale>
<asrwt>0</asrwt>
<pdfrwt beam="2">  1        4 0.53329558E-03 0.12443604E+03</pdfrwt>
<pdfrwt beam="1">  1       -4 0.17180573E+00 0.12443604E+03</pdfrwt>
<totfact> 0.27233090E+03</totfact>
</mgrwt>
</event>
<event>
 5    1  0.3239419E-002  0.1249984E+03  0.7818608E-02  0.1235072E+00
          4   -1    0    0  501    0  0.00000000000E+00  0.00000000000E+00  0.10994341555E+03  0.10995075044E+03  0.12700000000E+01 0. -1.
         -4   -1    0    0    0  501 -0.00000000000E+00 -0.00000000000E+00 -0.35508848669E+02  0.35531552651E+02  0.12700000000E+01 0. -1.
         25    2    1    2    0    0  0.00000000000E+00  0.00000000000E+00  0.74434566879E+02  0.14548230309E+03  0.12499838305E+03 0.  0.
    9000005    1    3    3    0    0  0.11120264186E+02  0.36420724511E+02  0.94885065012E+02  0.10224629583E+03  0.10000000000E+01 0.  0.
    9000005    1    3    3    0    0 -0.11120264186E+02 -0.36420724511E+02 -0.20450498134E+02  0.43236007255E+02  0.10000000000E+01 0.  0.
<mgrwt>
<rscale>  0 0.12499838E+03</rscale>
<asrwt>0</asrwt>
<pdfrwt beam="1">  1        4 0.16916682E-01 0.12499838E+03</pdfrwt>
<pdfrwt beam="2">  1       -4 0.54652105E-02 0.12499838E+03</pdfrwt>
<totfact> 0.10021563E+04</totfact>
</mgrwt>
</event>
<event>
 5    1  0.3239419E-002  0.1249994E+03  0.7818608E-02  0.1235070E+00
          4   -1    0    0  501    0  0.00000000000E+00  0.00000000000E+00  0.68893366194E+01  0.70054164084E+01  0.12700000000E+01 0.  1.
         -4   -1    0    0    0  501 -0.00000000000E+00 -0.00000000000E+00 -0.56214049053E+03  0.56214192513E+03  0.12700000000E+01 0.  1.
         25    2    1    2    0    0  0.00000000000E+00  0.00000000000E+00 -0.55525115391E+03  0.56914734154E+03  0.12499940986E+03 0.  0.
    9000005    1    3    3    0    0  0.30305626454E-01 -0.62349269394E+02 -0.29682518872E+03  0.30330450865E+03  0.10000000000E+01 0.  0.
    9000005    1    3    3    0    0 -0.30305626454E-01  0.62349269394E+02 -0.25842596519E+03  0.26584283289E+03  0.10000000000E+01 0.  0.
<mgrwt>
<rscale>  0 0.12499941E+03</rscale>
<asrwt>0</asrwt>
<pdfrwt beam="1">  1        4 0.10689380E-02 0.12499941E+03</pdfrwt>
<pdfrwt beam="2">  1       -4 0.86492156E-01 0.12499941E+03</pdfrwt>
<totfact> 0.50875563E+03</totfact>
</mgrwt>
</event>
<event>
 5    1  0.3239419E-002  0.1250455E+03  0.7818608E-02  0.1234998E+00
          4   -1    0    0  501    0  0.00000000000E+00  0.00000000000E+00  0.19225376624E+03  0.19225796091E+03  0.12700000000E+01 0. -1.
         -4   -1    0    0    0  501 -0.00000000000E+00 -0.00000000000E+00 -0.20308724521E+02  0.20348395310E+02  0.12700000000E+01 0. -1.
         25    2    1    2    0    0  0.00000000000E+00  0.00000000000E+00  0.17194504172E+03  0.21260635622E+03  0.12504545307E+03 0.  0.
    9000005    1    3    3    0    0 -0.29840364772E+02  0.43899115650E+02  0.29825917744E+02  0.60894704974E+02  0.10000000000E+01 0.  0.
    9000005    1    3    3    0    0  0.29840364772E+02 -0.43899115650E+02  0.14211912398E+03  0.15171165125E+03  0.10000000000E+01 0.  0.
<mgrwt>
<rscale>  0 0.12504545E+03</rscale>
<asrwt>0</asrwt>
<pdfrwt beam="1">  1        4 0.29580878E-01 0.12504545E+03</pdfrwt>
<pdfrwt beam="2">  1       -4 0.31277932E-02 0.12504545E+03</pdfrwt>
<totfact> 0.87962592E+03</totfact>
</mgrwt>
</event>
<event>
 5    1  0.3239419E-002  0.1250025E+03  0.7818608E-02  0.1235065E+00
          4   -1    0    0  501    0  0.00000000000E+00  0.00000000000E+00  0.49632436499E+01  0.51231521086E+01  0.12700000000E+01 0.  1.
         -4   -1    0    0    0  501 -0.00000000000E+00 -0.00000000000E+00 -0.77442878990E+03  0.77442983124E+03  0.12700000000E+01 0.  1.
         25    2    1    2    0    0  0.00000000000E+00  0.00000000000E+00 -0.76946554625E+03  0.77955298335E+03  0.12500250795E+03 0.  0.
    9000005    1    3    3    0    0  0.55446329312E+02 -0.48076221678E+01 -0.20746406620E+03  0.21480164671E+03  0.10000000000E+01 0.  0.
    9000005    1    3    3    0    0 -0.55446329312E+02  0.48076221678E+01 -0.56200148004E+03  0.56475133664E+03  0.10000000000E+01 0.  0.
<mgrwt>
<rscale>  0 0.12500251E+03</rscale>
<asrwt>0</asrwt>
<pdfrwt beam="1">  1        4 0.77595732E-03 0.12500251E+03</pdfrwt>
<pdfrwt beam="2">  1       -4 0.11915518E+00 0.12500251E+03</pdfrwt>
<totfact> 0.39191868E+03</totfact>
</mgrwt>
</event>
<event>
 5    1  0.3239419E-002  0.1249971E+03  0.7818608E-02  0.1235074E+00
          4   -1    0    0  501    0  0.00000000000E+00  0.00000000000E+00  0.10093332773E+02  0.10172918287E+02  0.12700000000E+01 0.  1.
         -4   -1    0    0    0  501 -0.00000000000E+00 -0.00000000000E+00 -0.38539445295E+03  0.38539654547E+03  0.12700000000E+01 0.  1.
         25    2    1    2    0    0  0.00000000000E+00  0.00000000000E+00 -0.37530112017E+03  0.39556946376E+03  0.12499707939E+03 0.  0.
    9000005    1    3    3    0    0  0.54635959705E+02  0.62683687399E+00 -0.91684166623E+02  0.10673550218E+03  0.10000000000E+01 0.  0.
    9000005    1    3    3    0    0 -0.54635959705E+02 -0.62683687399E+00 -0.28361695355E+03  0.28883396158E+03  0.10000000000E+01 0.  0.
<mgrwt>
<rscale>  0 0.12499708E+03</rscale>
<asrwt>0</asrwt>
<pdfrwt beam="1">  1        4 0.15591036E-02 0.12499708E+03</pdfrwt>
<pdfrwt beam="2">  1       -4 0.59297726E-01 0.12499708E+03</pdfrwt>
<totfact> 0.64990187E+03</totfact>
</mgrwt>
</event>
<event>
 5    1  0.3239419E-002  0.1249978E+03  0.7818608E-02  0.1235073E+00
          4   -1    0    0  501    0  0.00000000000E+00  0.00000000000E+00  0.10251912239E+02  0.10330276112E+02  0.12700000000E+01 0.  1.
         -4   -1    0    0    0  501 -0.00000000000E+00 -0.00000000000E+00 -0.37948296231E+03  0.37948508743E+03  0.12700000000E+01 0.  1.
         25    2    1    2    0    0  0.00000000000E+00  0.00000000000E+00 -0.36923105007E+03  0.38981536354E+03  0.12499779726E+03 0.  0.
    9000005    1    3    3    0    0 -0.51448917677E+02  0.33200597862E+02 -0.14568429249E+03  0.15803222427E+03  0.10000000000E+01 0.  0.
    9000005    1    3    3    0    0  0.51448917677E+02 -0.33200597862E+02 -0.22354675757E+03  0.23178313927E+03  0.10000000000E+01 0.  0.
<mgrwt>
<rscale>  0 0.12499780E+03</rscale>
<asrwt>0</asrwt>
<pdfrwt beam="1">  1        4 0.15834090E-02 0.12499780E+03</pdfrwt>
<pdfrwt beam="2">  1       -4 0.58388175E-01 0.12499780E+03</pdfrwt>
<totfact> 0.65558730E+03</totfact>
</mgrwt>
</event>
<event>
 5    1  0.3239419E-002  0.1250002E+03  0.7818608E-02  0.1235069E+00
          4   -1    0    0  501    0  0.00000000000E+00  0.00000000000E+00  0.75836715302E+02  0.75847348588E+02  0.12700000000E+01 0.  1.
         -4   -1    0    0    0  501 -0.00000000000E+00 -0.00000000000E+00 -0.51486747951E+02  0.51502408823E+02  0.12700000000E+01 0.  1.
         25    2    1    2    0    0  0.00000000000E+00  0.00000000000E+00  0.24349967352E+02  0.12734975741E+03  0.12500015921E+03 0.  0.
    9000005    1    3    3    0    0 -0.56262740588E+02 -0.68422396339E+01  0.38993688093E+02  0.68802761084E+02  0.10000000000E+01 0.  0.
    9000005    1    3    3    0    0  0.56262740588E+02  0.68422396339E+01 -0.14643720741E+02  0.58546996327E+02  0.10000000000E+01 0.  0.
<mgrwt>
<rscale>  0 0.12500016E+03</rscale>
<asrwt>0</asrwt>
<pdfrwt beam="1">  1        4 0.11669210E-01 0.12500016E+03</pdfrwt>
<pdfrwt beam="2">  1       -4 0.79230607E-02 0.12500016E+03</pdfrwt>
<totfact> 0.10401518E+04</totfact>
</mgrwt>
</event>
<event>
 5    1  0.3239419E-002  0.1249973E+03  0.7818608E-02  0.1235074E+00
          4   -1    0    0  501    0  0.00000000000E+00  0.00000000000E+00  0.63551415135E+01  0.64807965294E+01  0.12700000000E+01 0. -1.
         -4   -1    0    0    0  501 -0.00000000000E+00 -0.00000000000E+00 -0.60848985935E+03  0.60849118468E+03  0.12700000000E+01 0. -1.
         25    2    1    2    0    0  0.00000000000E+00  0.00000000000E+00 -0.60213471784E+03  0.61497198121E+03  0.12499727696E+03 0.  0.
    9000005    1    3    3    0    0  0.41057385523E+00  0.37033706611E+02 -0.54870007204E+03  0.54994948228E+03  0.10000000000E+01 0.  0.
    9000005    1    3    3    0    0 -0.41057385523E+00 -0.37033706611E+02 -0.53434645795E+02  0.65022498933E+02  0.10000000000E+01 0.  0.
<mgrwt>
<rscale>  0 0.12499728E+03</rscale>
<asrwt>0</asrwt>
<pdfrwt beam="1">  1        4 0.98748228E-03 0.12499728E+03</pdfrwt>
<pdfrwt beam="2">  1       -4 0.93623547E-01 0.12499728E+03</pdfrwt>
<totfact> 0.47938850E+03</totfact>
</mgrwt>
</event>
<event>
 5    1  0.3239419E-002  0.1250000E+03  0.7818608E-02  0.1235069E+00
         -4   -1    0    0    0  501 -0.00000000000E+00  0.00000000000E+00  0.13065476949E+02  0.13127055569E+02  0.12700000000E+01 0.  1.
          4   -1    0    0  501    0  0.00000000000E+00 -0.00000000000E+00 -0.29820898470E+03  0.29821168900E+03  0.12700000000E+01 0.  1.
         25    2    1    2    0    0  0.00000000000E+00  0.00000000000E+00 -0.28514350775E+03  0.31133874457E+03  0.12499997543E+03 0.  0.
    9000005    1    3    3    0    0 -0.18091608339E+02  0.38300171404E+02 -0.25701004788E+03  0.26047912418E+03  0.10000000000E+01 0.  0.
    9000005    1    3    3    0    0  0.18091608339E+02 -0.38300171404E+02 -0.28133459871E+02  0.50859620389E+02  0.10000000000E+01 0.  0.
<mgrwt>
<rscale>  0 0.12499998E+03</rscale>
<asrwt>0</asrwt>
<pdfrwt beam="2">  1        4 0.45883245E-01 0.12499998E+03</pdfrwt>
<pdfrwt beam="1">  1       -4 0.20150184E-02 0.12499998E+03</pdfrwt>
<totfact> 0.74198232E+03</totfact>
</mgrwt>
</event>
<event>
 5    1  0.3239419E-002  0.1249976E+03  0.7818608E-02  0.1235073E+00
          4   -1    0    0  501    0  0.00000000000E+00  0.00000000000E+00  0.28760407635E+02  0.28788434264E+02  0.12700000000E+01 0. -1.
         -4   -1    0    0    0  501 -0.00000000000E+00 -0.00000000000E+00 -0.13571812224E+03  0.13572406420E+03  0.12700000000E+01 0. -1.
         25    2    1    2    0    0  0.00000000000E+00  0.00000000000E+00 -0.10695771460E+03  0.16451249847E+03  0.12499763773E+03 0.  0.
    9000005    1    3    3    0    0  0.29700719754E+02 -0.91853390905E+01 -0.12482446918E+03  0.12864156138E+03  0.10000000000E+01 0.  0.
    9000005    1    3    3    0    0 -0.29700719754E+02  0.91853390905E+01  0.17866754580E+02  0.35870937085E+02  0.10000000000E+01 0.  0.
<mgrwt>
<rscale>  0 0.12499764E+03</rscale>
<asrwt>0</asrwt>
<pdfrwt beam="1">  1        4 0.44272911E-02 0.12499764E+03</pdfrwt>
<pdfrwt beam="2">  1       -4 0.20882324E-01 0.12499764E+03</pdfrwt>
<totfact> 0.96484917E+03</totfact>
</mgrwt>
</event>
<event>
 5    1  0.3239419E-002  0.1250048E+03  0.7818608E-02  0.1235062E+00
          4   -1    0    0  501    0  0.00000000000E+00  0.00000000000E+00  0.59384517361E+03  0.59384653162E+03  0.12700000000E+01 0.  1.
         -4   -1    0    0    0  501 -0.00000000000E+00 -0.00000000000E+00 -0.65157225665E+01  0.66383386900E+01  0.12700000000E+01 0.  1.
         25    2    1    2    0    0  0.00000000000E+00  0.00000000000E+00  0.58732945104E+03  0.60048487031E+03  0.12500478155E+03 0.  0.
    9000005    1    3    3    0    0 -0.44214504821E+02  0.43483597904E+02  0.33081289340E+03  0.33657676117E+03  0.10000000000E+01 0.  0.
    9000005    1    3    3    0    0  0.44214504821E+02 -0.43483597904E+02  0.25651655765E+03  0.26390810914E+03  0.10000000000E+01 0.  0.
<mgrwt>
<rscale>  0 0.12500478E+03</rscale>
<asrwt>0</asrwt>
<pdfrwt beam="1">  1        4 0.91370346E-01 0.12500478E+03</pdfrwt>
<pdfrwt beam="2">  1       -4 0.10119552E-02 0.12500478E+03</pdfrwt>
<totfact> 0.48831892E+03</totfact>
</mgrwt>
</event>
<event>
 5    1  0.3239419E-002  0.1250085E+03  0.7818608E-02  0.1235056E+00
          4   -1    0    0  501    0  0.00000000000E+00  0.00000000000E+00  0.57501445578E+01  0.58887233281E+01  0.12700000000E+01 0.  1.
         -4   -1    0    0    0  501 -0.00000000000E+00 -0.00000000000E+00 -0.67119393958E+03  0.67119514110E+03  0.12700000000E+01 0.  1.
         25    2    1    2    0    0  0.00000000000E+00  0.00000000000E+00 -0.66544379502E+03  0.67708386442E+03  0.12500846023E+03 0.  0.
    9000005    1    3    3    0    0 -0.44632617667E+02  0.11630640107E+02 -0.56113564111E+03  0.56302890696E+03  0.10000000000E+01 0.  0.
    9000005    1    3    3    0    0  0.44632617667E+02 -0.11630640107E+02 -0.10430815391E+03  0.11405495746E+03  0.10000000000E+01 0.  0.
<mgrwt>
<rscale>  0 0.12500846E+03</rscale>
<asrwt>0</asrwt>
<pdfrwt beam="1">  1        4 0.89539048E-03 0.12500846E+03</pdfrwt>
<pdfrwt beam="2">  1       -4 0.10327130E+00 0.12500846E+03</pdfrwt>
<totfact> 0.44316146E+03</totfact>
</mgrwt>
</event>
<event>
 5    1  0.3239419E-002  0.1249997E+03  0.7818608E-02  0.1235070E+00
         -4   -1    0    0    0  501 -0.00000000000E+00  0.00000000000E+00  0.19645172288E+03  0.19645582792E+03  0.12700000000E+01 0.  1.
          4   -1    0    0  501    0  0.00000000000E+00 -0.00000000000E+00 -0.19859314588E+02  0.19899881304E+02  0.12700000000E+01 0.  1.
         25    2    1    2    0    0  0.00000000000E+00  0.00000000000E+00  0.17659240829E+03  0.21635570922E+03  0.12499965698E+03 0.  0.
    9000005    1    3    3    0    0 -0.18854555330E+02 -0.44160304379E+01 -0.14543595671E+02  0.24238641805E+02  0.10000000000E+01 0.  0.
    9000005    1    3    3    0    0  0.18854555330E+02  0.44160304379E+01  0.19113600396E+03  0.19211706742E+03  0.10000000000E+01 0.  0.
<mgrwt>
<rscale>  0 0.12499966E+03</rscale>
<asrwt>0</asrwt>
<pdfrwt beam="2">  1        4 0.30587154E-02 0.12499966E+03</pdfrwt>
<pdfrwt beam="1">  1       -4 0.30226778E-01 0.12499966E+03</pdfrwt>
<totfact> 0.87448985E+03</totfact>
</mgrwt>
</event>
<event>
 5    1  0.3239419E-002  0.1250015E+03  0.7818608E-02  0.1235067E+00
          4   -1    0    0  501    0  0.00000000000E+00  0.00000000000E+00  0.10209412836E+04  0.10209420735E+04  0.12700000000E+01 0.  1.
         -4   -1    0    0    0  501 -0.00000000000E+00 -0.00000000000E+00 -0.37200171959E+01  0.39308304387E+01  0.12700000000E+01 0.  1.
         25    2    1    2    0    0  0.00000000000E+00  0.00000000000E+00  0.10172212664E+04  0.10248729040E+04  0.12500145767E+03 0.  0.
    9000005    1    3    3    0    0 -0.19464073703E+02 -0.56072499751E+02  0.34828816002E+03  0.35331093643E+03  0.10000000000E+01 0.  0.
    9000005    1    3    3    0    0  0.19464073703E+02  0.56072499751E+02  0.66893310640E+03  0.67156196752E+03  0.10000000000E+01 0.  0.
<mgrwt>
<rscale>  0 0.12500146E+03</rscale>
<asrwt>0</asrwt>
<pdfrwt beam="1">  1        4 0.15708409E+00 0.12500146E+03</pdfrwt>
<pdfrwt beam="2">  1       -4 0.58858777E-03 0.12500146E+03</pdfrwt>
<totfact> 0.29791546E+03</totfact>
</mgrwt>
</event>
<event>
 5    1  0.3239419E-002  0.1250019E+03  0.7818608E-02  0.1235066E+00
          4   -1    0    0  501    0  0.00000000000E+00  0.00000000000E+00  0.43394577242E+02  0.43413157384E+02  0.12700000000E+01 0. -1.
         -4   -1    0    0    0  501 -0.00000000000E+00 -0.00000000000E+00 -0.89977404231E+02  0.89986366590E+02  0.12700000000E+01 0. -1.
         25    2    1    2    0    0  0.00000000000E+00  0.00000000000E+00 -0.46582826989E+02  0.13339952397E+03  0.12500189289E+03 0.  0.
    9000005    1    3    3    0    0 -0.60807772956E+01  0.57151081317E+02  0.28957658421E+01  0.57555255260E+02  0.10000000000E+01 0.  0.
    9000005    1    3    3    0    0  0.60807772956E+01 -0.57151081317E+02 -0.49478592831E+02  0.75844268714E+02  0.10000000000E+01 0.  0.
<mgrwt>
<rscale>  0 0.12500189E+03</rscale>
<asrwt>0</asrwt>
<pdfrwt beam="1">  1        4 0.66782075E-02 0.12500189E+03</pdfrwt>
<pdfrwt beam="2">  1       -4 0.13844796E-01 0.12500189E+03</pdfrwt>
<totfact> 0.10271477E+04</totfact>
</mgrwt>
</event>
<event>
 5    1  0.3239419E-002  0.1249950E+03  0.7818608E-02  0.1235077E+00
         -4   -1    0    0    0  501 -0.00000000000E+00  0.00000000000E+00  0.37492776517E+03  0.37492991611E+03  0.12700000000E+01 0. -1.
          4   -1    0    0  501    0  0.00000000000E+00 -0.00000000000E+00 -0.10376937631E+02  0.10454364381E+02  0.12700000000E+01 0. -1.
         25    2    1    2    0    0  0.00000000000E+00  0.00000000000E+00  0.36455082754E+03  0.38538428049E+03  0.12499495106E+03 0.  0.
    9000005    1    3    3    0    0  0.18934020184E+02  0.58600387901E+02  0.21496777081E+03  0.22361718420E+03  0.10000000000E+01 0.  0.
    9000005    1    3    3    0    0 -0.18934020184E+02 -0.58600387901E+02  0.14958305672E+03  0.16176709629E+03  0.10000000000E+01 0.  0.
<mgrwt>
<rscale>  0 0.12499495E+03</rscale>
<asrwt>0</asrwt>
<pdfrwt beam="2">  1        4 0.16025737E-02 0.12499495E+03</pdfrwt>
<pdfrwt beam="1">  1       -4 0.57687301E-01 0.12499495E+03</pdfrwt>
<totfact> 0.66006930E+03</totfact>
</mgrwt>
</event>
<event>
 5    1  0.3239419E-002  0.1250027E+03  0.7818608E-02  0.1235065E+00
          4   -1    0    0  501    0  0.00000000000E+00  0.00000000000E+00  0.27857901872E+02  0.27886835545E+02  0.12700000000E+01 0. -1.
         -4   -1    0    0    0  501 -0.00000000000E+00 -0.00000000000E+00 -0.14012207223E+03  0.14012782745E+03  0.12700000000E+01 0. -1.
         25    2    1    2    0    0  0.00000000000E+00  0.00000000000E+00 -0.11226417036E+03  0.16801466299E+03  0.12500273211E+03 0.  0.
    9000005    1    3    3    0    0  0.57932603248E+02 -0.23016895304E+02 -0.62060834040E+02  0.87968807599E+02  0.10000000000E+01 0.  0.
    9000005    1    3    3    0    0 -0.57932603248E+02  0.23016895304E+02 -0.50203336315E+02  0.80045855393E+02  0.10000000000E+01 0.  0.
<mgrwt>
<rscale>  0 0.12500273E+03</rscale>
<asrwt>0</asrwt>
<pdfrwt beam="1">  1        4 0.42884995E-02 0.12500273E+03</pdfrwt>
<pdfrwt beam="2">  1       -4 0.21559910E-01 0.12500273E+03</pdfrwt>
<totfact> 0.95813611E+03</totfact>
</mgrwt>
</event>
<event>
 5    1  0.3239419E-002  0.1249923E+03  0.7818608E-02  0.1235081E+00
         -4   -1    0    0    0  501 -0.00000000000E+00  0.00000000000E+00  0.33997758760E+02  0.34021471172E+02  0.12700000000E+01 0.  1.
          4   -1    0    0  501    0  0.00000000000E+00 -0.00000000000E+00 -0.11481577135E+03  0.11482279500E+03  0.12700000000E+01 0.  1.
         25    2    1    2    0    0  0.00000000000E+00  0.00000000000E+00 -0.80818012593E+02  0.14884426617E+03  0.12499225741E+03 0.  0.
    9000005    1    3    3    0    0  0.25353393199E+01 -0.54750573268E+02 -0.46700236819E+01  0.55016927757E+02  0.10000000000E+01 0.  0.
    9000005    1    3    3    0    0 -0.25353393199E+01  0.54750573268E+02 -0.76147988911E+02  0.93827338414E+02  0.10000000000E+01 0.  0.
<mgrwt>
<rscale>  0 0.12499226E+03</rscale>
<asrwt>0</asrwt>
<pdfrwt beam="2">  1        4 0.17666329E-01 0.12499226E+03</pdfrwt>
<pdfrwt beam="1">  1       -4 0.52327888E-02 0.12499226E+03</pdfrwt>
<totfact> 0.99551925E+03</totfact>
</mgrwt>
</event>
<event>
 5    1  0.3239419E-002  0.1250006E+03  0.7818608E-02  0.1235068E+00
          4   -1    0    0  501    0  0.00000000000E+00  0.00000000000E+00  0.99272808233E+03  0.99272889468E+03  0.12700000000E+01 0.  1.
         -4   -1    0    0    0  501 -0.00000000000E+00 -0.00000000000E+00 -0.38315952047E+01  0.40365854150E+01  0.12700000000E+01 0.  1.
         25    2    1    2    0    0  0.00000000000E+00  0.00000000000E+00  0.98889648712E+03  0.99676548010E+03  0.12500064030E+03 0.  0.
    9000005    1    3    3    0    0  0.30900444471E+02  0.43264967442E+02  0.23256363100E+03  0.23856558289E+03  0.10000000000E+01 0.  0.
    9000005    1    3    3    0    0 -0.30900444471E+02 -0.43264967442E+02  0.75633285612E+03  0.75819989721E+03  0.10000000000E+01 0.  0.
<mgrwt>
<rscale>  0 0.12500064E+03</rscale>
<asrwt>0</asrwt>
<pdfrwt beam="1">  1        4 0.15274325E+00 0.12500064E+03</pdfrwt>
<pdfrwt beam="2">  1       -4 0.60530705E-03 0.12500064E+03</pdfrwt>
<totfact> 0.30711085E+03</totfact>
</mgrwt>
</event>
<event>
 5    1  0.3239419E-002  0.1249887E+03  0.7818608E-02  0.1235087E+00
          4   -1    0    0  501    0  0.00000000000E+00  0.00000000000E+00  0.79466602401E+02  0.79476750042E+02  0.12700000000E+01 0.  1.
         -4   -1    0    0    0  501 -0.00000000000E+00 -0.00000000000E+00 -0.49125525770E+02  0.49141939138E+02  0.12700000000E+01 0.  1.
         25    2    1    2    0    0  0.00000000000E+00  0.00000000000E+00  0.30341076631E+02  0.12861868918E+03  0.12498874459E+03 0.  0.
    9000005    1    3    3    0    0 -0.56883113074E+02  0.16998280866E+01 -0.11385302077E+02  0.58044836737E+02  0.10000000000E+01 0.  0.
    9000005    1    3    3    0    0  0.56883113074E+02 -0.16998280866E+01  0.41726378708E+02  0.70573852442E+02  0.10000000000E+01 0.  0.
<mgrwt>
<rscale>  0 0.12498874E+03</rscale>
<asrwt>0</asrwt>
<pdfrwt beam="1">  1        4 0.12227674E-01 0.12498874E+03</pdfrwt>
<pdfrwt beam="2">  1       -4 0.75598164E-02 0.12498874E+03</pdfrwt>
<totfact> 0.10376784E+04</totfact>
</mgrwt>
</event>
<event>
 5    1  0.3239419E-002  0.1249942E+03  0.7818608E-02  0.1235078E+00
         -4   -1    0    0    0  501 -0.00000000000E+00  0.00000000000E+00  0.18071199011E+02  0.18115770304E+02  0.12700000000E+01 0.  1.
          4   -1    0    0  501    0  0.00000000000E+00 -0.00000000000E+00 -0.21582615941E+03  0.21582989595E+03  0.12700000000E+01 0.  1.
         25    2    1    2    0    0  0.00000000000E+00  0.00000000000E+00 -0.19775496040E+03  0.23394566625E+03  0.12499420145E+03 0.  0.
    9000005    1    3    3    0    0  0.58205648829E+02  0.59577092037E+01 -0.13994716453E+03  0.15168915819E+03  0.10000000000E+01 0.  0.
    9000005    1    3    3    0    0 -0.58205648829E+02 -0.59577092037E+01 -0.57807795872E+02  0.82256508059E+02  0.10000000000E+01 0.  0.
<mgrwt>
<rscale>  0 0.12499420E+03</rscale>
<asrwt>0</asrwt>
<pdfrwt beam="2">  1        4 0.33207739E-01 0.12499420E+03</pdfrwt>
<pdfrwt beam="1">  1       -4 0.27839006E-02 0.12499420E+03</pdfrwt>
<totfact> 0.84718353E+03</totfact>
</mgrwt>
</event>
<event>
 5    1  0.3239419E-002  0.1250002E+03  0.7818608E-02  0.1235069E+00
          4   -1    0    0  501    0  0.00000000000E+00  0.00000000000E+00  0.53856608017E+02  0.53871579958E+02  0.12700000000E+01 0. -1.
         -4   -1    0    0    0  501 -0.00000000000E+00 -0.00000000000E+00 -0.72500151096E+02  0.72511273668E+02  0.12700000000E+01 0. -1.
         25    2    1    2    0    0  0.00000000000E+00  0.00000000000E+00 -0.18643543079E+02  0.12638285363E+03  0.12500017597E+03 0.  0.
    9000005    1    3    3    0    0  0.54544134288E+02  0.66106916792E+01  0.20781674195E+02  0.58750674992E+02  0.10000000000E+01 0.  0.
    9000005    1    3    3    0    0 -0.54544134288E+02 -0.66106916792E+01 -0.39425217273E+02  0.67632178634E+02  0.10000000000E+01 0.  0.
<mgrwt>
<rscale>  0 0.12500018E+03</rscale>
<asrwt>0</asrwt>
<pdfrwt beam="1">  1        4 0.82876392E-02 0.12500018E+03</pdfrwt>
<pdfrwt beam="2">  1       -4 0.11155877E-01 0.12500018E+03</pdfrwt>
<totfact> 0.10422543E+04</totfact>
</mgrwt>
</event>
<event>
 5    1  0.3239419E-002  0.1249973E+03  0.7818608E-02  0.1235073E+00
          4   -1    0    0  501    0  0.00000000000E+00  0.00000000000E+00  0.90768127819E+01  0.91652294177E+01  0.12700000000E+01 0.  1.
         -4   -1    0    0    0  501 -0.00000000000E+00 -0.00000000000E+00 -0.42816139006E+03  0.42816327358E+03  0.12700000000E+01 0.  1.
         25    2    1    2    0    0  0.00000000000E+00  0.00000000000E+00 -0.41908457728E+03  0.43732850299E+03  0.12499734644E+03 0.  0.
    9000005    1    3    3    0    0 -0.54676041785E+02 -0.26868512515E+02 -0.16084899410E+03  0.17200228316E+03  0.10000000000E+01 0.  0.
    9000005    1    3    3    0    0  0.54676041785E+02  0.26868512515E+02 -0.25823558318E+03  0.26532621983E+03  0.10000000000E+01 0.  0.
<mgrwt>
<rscale>  0 0.12499735E+03</rscale>
<asrwt>0</asrwt>
<pdfrwt beam="1">  1        4 0.14033792E-02 0.12499735E+03</pdfrwt>
<pdfrwt beam="2">  1       -4 0.65877914E-01 0.12499735E+03</pdfrwt>
<totfact> 0.61080859E+03</totfact>
</mgrwt>
</event>
<event>
 5    1  0.3239419E-002  0.1250007E+03  0.7818608E-02  0.1235068E+00
         -4   -1    0    0    0  501 -0.00000000000E+00  0.00000000000E+00  0.25332648627E+02  0.25364463062E+02  0.12700000000E+01 0.  1.
          4   -1    0    0  501    0  0.00000000000E+00 -0.00000000000E+00 -0.15406872796E+03  0.15407396222E+03  0.12700000000E+01 0.  1.
         25    2    1    2    0    0  0.00000000000E+00  0.00000000000E+00 -0.12873607933E+03  0.17943842529E+03  0.12500068139E+03 0.  0.
    9000005    1    3    3    0    0  0.33830077533E+01  0.33963989168E+01 -0.15381144056E+03  0.15388937427E+03  0.10000000000E+01 0.  0.
    9000005    1    3    3    0    0 -0.33830077533E+01 -0.33963989168E+01  0.25075361226E+02  0.25549051013E+02  0.10000000000E+01 0.  0.
<mgrwt>
<rscale>  0 0.12500068E+03</rscale>
<asrwt>0</asrwt>
<pdfrwt beam="2">  1        4 0.23705731E-01 0.12500068E+03</pdfrwt>
<pdfrwt beam="1">  1       -4 0.39001806E-02 0.12500068E+03</pdfrwt>
<totfact> 0.93716755E+03</totfact>
</mgrwt>
</event>
<event>
 5    1  0.3239419E-002  0.1250003E+03  0.7818608E-02  0.1235069E+00
          4   -1    0    0  501    0  0.00000000000E+00  0.00000000000E+00  0.22241036077E+02  0.22277266120E+02  0.12700000000E+01 0.  1.
         -4   -1    0    0    0  501 -0.00000000000E+00 -0.00000000000E+00 -0.17545189537E+03  0.17545649173E+03  0.12700000000E+01 0.  1.
         25    2    1    2    0    0  0.00000000000E+00  0.00000000000E+00 -0.15321085930E+03  0.19773375785E+03  0.12500028635E+03 0.  0.
    9000005    1    3    3    0    0 -0.32812417240E+02 -0.49731315914E+02 -0.46783601686E+02  0.75759909546E+02  0.10000000000E+01 0.  0.
    9000005    1    3    3    0    0  0.32812417240E+02  0.49731315914E+02 -0.10642725761E+03  0.12197384831E+03  0.10000000000E+01 0.  0.
<mgrwt>
<rscale>  0 0.12500029E+03</rscale>
<asrwt>0</asrwt>
<pdfrwt beam="1">  1        4 0.34248385E-02 0.12500029E+03</pdfrwt>
<pdfrwt beam="2">  1       -4 0.26995739E-01 0.12500029E+03</pdfrwt>
<totfact> 0.90518227E+03</totfact>
</mgrwt>
</event>
<event>
 5    1  0.3239419E-002  0.1249982E+03  0.7818608E-02  0.1235072E+00
          4   -1    0    0  501    0  0.00000000000E+00  0.00000000000E+00  0.15838043941E+02  0.15888880888E+02  0.12700000000E+01 0.  1.
         -4   -1    0    0    0  501 -0.00000000000E+00 -0.00000000000E+00 -0.24618238839E+03  0.24618566419E+03  0.12700000000E+01 0.  1.
         25    2    1    2    0    0  0.00000000000E+00  0.00000000000E+00 -0.23034434445E+03  0.26207454508E+03  0.12499820062E+03 0.  0.
    9000005    1    3    3    0    0  0.22095930493E+02 -0.58175044860E+02 -0.12713793254E+03  0.14155430011E+03  0.10000000000E+01 0.  0.
    9000005    1    3    3    0    0 -0.22095930493E+02  0.58175044860E+02 -0.10320641190E+03  0.12052024497E+03  0.10000000000E+01 0.  0.
<mgrwt>
<rscale>  0 0.12499820E+03</rscale>
<asrwt>0</asrwt>
<pdfrwt beam="1">  1        4 0.24407848E-02 0.12499820E+03</pdfrwt>
<pdfrwt beam="2">  1       -4 0.37878373E-01 0.12499820E+03</pdfrwt>
<totfact> 0.80619036E+03</totfact>
</mgrwt>
</event>
<event>
 5    1  0.3239419E-002  0.1249984E+03  0.7818608E-02  0.1235072E+00
         -4   -1    0    0    0  501 -0.00000000000E+00  0.00000000000E+00  0.61539039118E+02  0.61552142412E+02  0.12700000000E+01 0. -1.
          4   -1    0    0  501    0  0.00000000000E+00 -0.00000000000E+00 -0.63448159567E+02  0.63460868671E+02  0.12700000000E+01 0. -1.
         25    2    1    2    0    0  0.00000000000E+00  0.00000000000E+00 -0.19091204493E+01  0.12501301108E+03  0.12499843279E+03 0.  0.
    9000005    1    3    3    0    0  0.95139098119E+01  0.61080807910E+02  0.81992377032E+01  0.62366714470E+02  0.10000000000E+01 0.  0.
    9000005    1    3    3    0    0 -0.95139098119E+01 -0.61080807910E+02 -0.10108358153E+02  0.62646296613E+02  0.10000000000E+01 0.  0.
<mgrwt>
<rscale>  0 0.12499843E+03</rscale>
<asrwt>0</asrwt>
<pdfrwt beam="2">  1        4 0.97632410E-02 0.12499843E+03</pdfrwt>
<pdfrwt beam="1">  1       -4 0.94695300E-02 0.12499843E+03</pdfrwt>
<totfact> 0.10452950E+04</totfact>
</mgrwt>
</event>
<event>
 5    1  0.3239419E-002  0.1250004E+03  0.7818608E-02  0.1235069E+00
          4   -1    0    0  501    0  0.00000000000E+00  0.00000000000E+00  0.40578746050E+03  0.40578944787E+03  0.12700000000E+01 0.  1.
         -4   -1    0    0    0  501 -0.00000000000E+00 -0.00000000000E+00 -0.95825061720E+01  0.96662983886E+01  0.12700000000E+01 0.  1.
         25    2    1    2    0    0  0.00000000000E+00  0.00000000000E+00  0.39620495433E+03  0.41545574626E+03  0.12500044505E+03 0.  0.
    9000005    1    3    3    0    0  0.70689672906E+01  0.49682795151E+02  0.32187951133E+03  0.32576950478E+03  0.10000000000E+01 0.  0.
    9000005    1    3    3    0    0 -0.70689672906E+01 -0.49682795151E+02  0.74325443006E+02  0.89686241479E+02  0.10000000000E+01 0.  0.
<mgrwt>
<rscale>  0 0.12500045E+03</rscale>
<asrwt>0</asrwt>
<pdfrwt beam="1">  1        4 0.62435419E-01 0.12500045E+03</pdfrwt>
<pdfrwt beam="2">  1       -4 0.14808306E-02 0.12500045E+03</pdfrwt>
<totfact> 0.63076227E+03</totfact>
</mgrwt>
</event>
<event>
 5    1  0.3239419E-002  0.1249982E+03  0.7818608E-02  0.1235072E+00
         -4   -1    0    0    0  501 -0.00000000000E+00  0.00000000000E+00  0.10291086376E+03  0.10291869986E+03  0.12700000000E+01 0. -1.
          4   -1    0    0  501    0  0.00000000000E+00 -0.00000000000E+00 -0.37936619899E+02  0.37957871771E+02  0.12700000000E+01 0. -1.
         25    2    1    2    0    0  0.00000000000E+00  0.00000000000E+00  0.64974243864E+02  0.14087657163E+03  0.12499822426E+03 0.  0.
    9000005    1    3    3    0    0 -0.28023341415E+02  0.55790296877E+02  0.29447459322E+02  0.69036350933E+02  0.10000000000E+01 0.  0.
    9000005    1    3    3    0    0  0.28023341415E+02 -0.55790296877E+02  0.35526784542E+02  0.71840220695E+02  0.10000000000E+01 0.  0.
<mgrwt>
<rscale>  0 0.12499822E+03</rscale>
<asrwt>0</asrwt>
<pdfrwt beam="2">  1        4 0.58386407E-02 0.12499822E+03</pdfrwt>
<pdfrwt beam="1">  1       -4 0.15834678E-01 0.12499822E+03</pdfrwt>
<totfact> 0.10115855E+04</totfact>
</mgrwt>
</event>
<event>
 5    1  0.3239419E-002  0.1250030E+03  0.7818608E-02  0.1235065E+00
         -4   -1    0    0    0  501 -0.00000000000E+00  0.00000000000E+00  0.10903143470E+04  0.10903150867E+04  0.12700000000E+01 0.  1.
          4   -1    0    0  501    0  0.00000000000E+00 -0.00000000000E+00 -0.34695446476E+01  0.36946772608E+01  0.12700000000E+01 0.  1.
         25    2    1    2    0    0  0.00000000000E+00  0.00000000000E+00  0.10868448024E+04  0.10940097639E+04  0.12500295648E+03 0.  0.
    9000005    1    3    3    0    0  0.39752926223E+02  0.44748360377E+02  0.38619926096E+03  0.39081143799E+03  0.10000000000E+01 0.  0.
    9000005    1    3    3    0    0 -0.39752926223E+02 -0.44748360377E+02  0.70064554142E+03  0.70319832595E+03  0.10000000000E+01 0.  0.
<mgrwt>
<rscale>  0 0.12500296E+03</rscale>
<asrwt>0</asrwt>
<pdfrwt beam="2">  1        4 0.55115028E-03 0.12500296E+03</pdfrwt>
<pdfrwt beam="1">  1       -4 0.16775823E+00 0.12500296E+03</pdfrwt>
<totfact> 0.27657548E+03</totfact>
</mgrwt>
</event>
<event>
 5    1  0.3239419E-002  0.1249973E+03  0.7818608E-02  0.1235074E+00
          4   -1    0    0  501    0  0.00000000000E+00  0.00000000000E+00  0.99298501486E+01  0.10010735436E+02  0.12700000000E+01 0.  1.
         -4   -1    0    0    0  501 -0.00000000000E+00 -0.00000000000E+00 -0.39169002339E+03  0.39169208228E+03  0.12700000000E+01 0.  1.
         25    2    1    2    0    0  0.00000000000E+00  0.00000000000E+00 -0.38176017324E+03  0.40170281772E+03  0.12499729553E+03 0.  0.
    9000005    1    3    3    0    0 -0.18213614546E+02  0.56927499604E+02 -0.24948967247E+03  0.25655130605E+03  0.10000000000E+01 0.  0.
    9000005    1    3    3    0    0  0.18213614546E+02 -0.56927499604E+02 -0.13227050077E+03  0.14515151167E+03  0.10000000000E+01 0.  0.
<mgrwt>
<rscale>  0 0.12499730E+03</rscale>
<asrwt>0</asrwt>
<pdfrwt beam="1">  1        4 0.15340499E-02 0.12499730E+03</pdfrwt>
<pdfrwt beam="2">  1       -4 0.60266372E-01 0.12499730E+03</pdfrwt>
<totfact> 0.64391361E+03</totfact>
</mgrwt>
</event>
<event>
 5    1  0.3239419E-002  0.1250031E+03  0.7818608E-02  0.1235064E+00
          4   -1    0    0  501    0  0.00000000000E+00  0.00000000000E+00  0.28207054537E+03  0.28207340439E+03  0.12700000000E+01 0. -1.
         -4   -1    0    0    0  501 -0.00000000000E+00 -0.00000000000E+00 -0.13817130051E+02  0.13875373251E+02  0.12700000000E+01 0. -1.
         25    2    1    2    0    0  0.00000000000E+00  0.00000000000E+00  0.26825341532E+03  0.29594877764E+03  0.12500313659E+03 0.  0.
    9000005    1    3    3    0    0 -0.45907995289E+02  0.57179191615E+01  0.34656388645E+02  0.57812662150E+02  0.10000000000E+01 0.  0.
    9000005    1    3    3    0    0  0.45907995289E+02 -0.57179191615E+01  0.23359702667E+03  0.23813611549E+03  0.10000000000E+01 0.  0.
<mgrwt>
<rscale>  0 0.12500314E+03</rscale>
<asrwt>0</asrwt>
<pdfrwt beam="1">  1        4 0.43400167E-01 0.12500314E+03</pdfrwt>
<pdfrwt beam="2">  1       -4 0.21304126E-02 0.12500314E+03</pdfrwt>
<totfact> 0.76104542E+03</totfact>
</mgrwt>
</event>
<event>
 5    1  0.3239419E-002  0.1249997E+03  0.7818608E-02  0.1235070E+00
         -4   -1    0    0    0  501 -0.00000000000E+00  0.00000000000E+00  0.29238879641E+02  0.29266448070E+02  0.12700000000E+01 0.  1.
          4   -1    0    0  501    0  0.00000000000E+00 -0.00000000000E+00 -0.13350361547E+03  0.13350965600E+03  0.12700000000E+01 0.  1.
         25    2    1    2    0    0  0.00000000000E+00  0.00000000000E+00 -0.10426473583E+03  0.16277610407E+03  0.12499969967E+03 0.  0.
    9000005    1    3    3    0    0  0.41963790285E+02  0.24068140413E+02 -0.61682073688E+00  0.48390242259E+02  0.10000000000E+01 0.  0.
    9000005    1    3    3    0    0 -0.41963790285E+02 -0.24068140413E+02 -0.10364791509E+03  0.11438586181E+03  0.10000000000E+01 0.  0.
<mgrwt>
<rscale>  0 0.12499970E+03</rscale>
<asrwt>0</asrwt>
<pdfrwt beam="2">  1        4 0.20541603E-01 0.12499970E+03</pdfrwt>
<pdfrwt beam="1">  1       -4 0.45008746E-02 0.12499970E+03</pdfrwt>
<totfact> 0.96810882E+03</totfact>
</mgrwt>
</event>
<event>
 5    1  0.3239419E-002  0.1249965E+03  0.7818608E-02  0.1235075E+00
         -4   -1    0    0    0  501 -0.00000000000E+00  0.00000000000E+00  0.41695898745E+02  0.41715235492E+02  0.12700000000E+01 0. -1.
          4   -1    0    0  501    0  0.00000000000E+00 -0.00000000000E+00 -0.93633687238E+02  0.93642299661E+02  0.12700000000E+01 0. -1.
         25    2    1    2    0    0  0.00000000000E+00  0.00000000000E+00 -0.51937788493E+02  0.13535753515E+03  0.12499651375E+03 0.  0.
    9000005    1    3    3    0    0  0.32870416572E+02 -0.19049242846E+02  0.27759218503E+02  0.47062853192E+02  0.10000000000E+01 0.  0.
    9000005    1    3    3    0    0 -0.32870416572E+02  0.19049242846E+02 -0.79697006996E+02  0.88294681962E+02  0.10000000000E+01 0.  0.
<mgrwt>
<rscale>  0 0.12499651E+03</rscale>
<asrwt>0</asrwt>
<pdfrwt beam="2">  1        4 0.14407333E-01 0.12499651E+03</pdfrwt>
<pdfrwt beam="1">  1       -4 0.64169036E-02 0.12499651E+03</pdfrwt>
<totfact> 0.10231345E+04</totfact>
</mgrwt>
</event>
<event>
 5    1  0.3239419E-002  0.1250276E+03  0.7818608E-02  0.1235026E+00
          4   -1    0    0  501    0  0.00000000000E+00  0.00000000000E+00  0.50626345744E+01  0.52194989064E+01  0.12700000000E+01 0. -1.
         -4   -1    0    0    0  501 -0.00000000000E+00 -0.00000000000E+00 -0.75999155435E+03  0.75999261548E+03  0.12700000000E+01 0. -1.
         25    2    1    2    0    0  0.00000000000E+00  0.00000000000E+00 -0.75492891977E+03  0.76521211438E+03  0.12502762131E+03 0.  0.
    9000005    1    3    3    0    0  0.28179379598E+02 -0.18532585829E+02 -0.55378322745E+02  0.64848228982E+02  0.10000000000E+01 0.  0.
    9000005    1    3    3    0    0 -0.28179379598E+02  0.18532585829E+02 -0.69955059703E+03  0.70036388540E+03  0.10000000000E+01 0.  0.
<mgrwt>
<rscale>  0 0.12502762E+03</rscale>
<asrwt>0</asrwt>
<pdfrwt beam="1">  1        4 0.79101557E-03 0.12502762E+03</pdfrwt>
<pdfrwt beam="2">  1       -4 0.11693384E+00 0.12502762E+03</pdfrwt>
<totfact> 0.39832868E+03</totfact>
</mgrwt>
</event>
<event>
 5    1  0.3239419E-002  0.1250010E+03  0.7818608E-02  0.1235068E+00
          4   -1    0    0  501    0  0.00000000000E+00  0.00000000000E+00  0.44720328271E+02  0.44738357823E+02  0.12700000000E+01 0. -1.
         -4   -1    0    0    0  501 -0.00000000000E+00 -0.00000000000E+00 -0.87309542472E+02  0.87318778660E+02  0.12700000000E+01 0. -1.
         25    2    1    2    0    0  0.00000000000E+00  0.00000000000E+00 -0.42589214201E+02  0.13205713648E+03  0.12500098452E+03 0.  0.
    9000005    1    3    3    0    0  0.67250038494E+01 -0.62106731245E+02 -0.23074900292E+02  0.66602723415E+02  0.10000000000E+01 0.  0.
    9000005    1    3    3    0    0 -0.67250038494E+01  0.62106731245E+02 -0.19514313908E+02  0.65454413068E+02  0.10000000000E+01 0.  0.
<mgrwt>
<rscale>  0 0.12500098E+03</rscale>
<asrwt>0</asrwt>
<pdfrwt beam="1">  1        4 0.68821479E-02 0.12500098E+03</pdfrwt>
<pdfrwt beam="2">  1       -4 0.13434335E-01 0.12500098E+03</pdfrwt>
<totfact> 0.10300250E+04</totfact>
</mgrwt>
</event>
<event>
 5    1  0.3239419E-002  0.1249964E+03  0.7818608E-02  0.1235075E+00
         -4   -1    0    0    0  501 -0.00000000000E+00  0.00000000000E+00  0.30555671833E+03  0.30555935760E+03  0.12700000000E+01 0. -1.
          4   -1    0    0  501    0  0.00000000000E+00 -0.00000000000E+00 -0.12749062443E+02  0.12812161924E+02  0.12700000000E+01 0. -1.
         25    2    1    2    0    0  0.00000000000E+00  0.00000000000E+00  0.29280765588E+03  0.31837151952E+03  0.12499640434E+03 0.  0.
    9000005    1    3    3    0    0 -0.36093550562E+02 -0.17413978344E+02  0.26853018701E+03  0.27150589748E+03  0.10000000000E+01 0.  0.
    9000005    1    3    3    0    0  0.36093550562E+02  0.17413978344E+02  0.24277468879E+02  0.46865622039E+02  0.10000000000E+01 0.  0.
<mgrwt>
<rscale>  0 0.12499640E+03</rscale>
<asrwt>0</asrwt>
<pdfrwt beam="2">  1        4 0.19664510E-02 0.12499640E+03</pdfrwt>
<pdfrwt beam="1">  1       -4 0.47013783E-01 0.12499640E+03</pdfrwt>
<totfact> 0.73356076E+03</totfact>
</mgrwt>
</event>
<event>
 5    1  0.3239419E-002  0.1249989E+03  0.7818608E-02  0.1235071E+00
         -4   -1    0    0    0  501 -0.00000000000E+00  0.00000000000E+00  0.47386773865E+01  0.49059110645E+01  0.12700000000E+01 0. -1.
          4   -1    0    0  501    0  0.00000000000E+00 -0.00000000000E+00 -0.80985757681E+03  0.80985857260E+03  0.12700000000E+01 0. -1.
         25    2    1    2    0    0  0.00000000000E+00  0.00000000000E+00 -0.80511889942E+03  0.81476448366E+03  0.12499888653E+03 0.  0.
    9000005    1    3    3    0    0 -0.21327404829E+02  0.21854143942E+02 -0.75794752027E+03  0.75856305295E+03  0.10000000000E+01 0.  0.
    9000005    1    3    3    0    0  0.21327404829E+02 -0.21854143942E+02 -0.47171379147E+02  0.56201430719E+02  0.10000000000E+01 0.  0.
<mgrwt>
<rscale>  0 0.12499889E+03</rscale>
<asrwt>0</asrwt>
<pdfrwt beam="2">  1        4 0.12460631E+00 0.12499889E+03</pdfrwt>
<pdfrwt beam="1">  1       -4 0.74196866E-03 0.12499889E+03</pdfrwt>
<totfact> 0.37614986E+03</totfact>
</mgrwt>
</event>
<event>
 5    1  0.3239419E-002  0.1249912E+03  0.7818608E-02  0.1235083E+00
          4   -1    0    0  501    0  0.00000000000E+00  0.00000000000E+00  0.77627008976E+02  0.77637397062E+02  0.12700000000E+01 0.  1.
         -4   -1    0    0    0  501 -0.00000000000E+00 -0.00000000000E+00 -0.50291880855E+02  0.50307913691E+02  0.12700000000E+01 0.  1.
         25    2    1    2    0    0  0.00000000000E+00  0.00000000000E+00  0.27335128120E+02  0.12794531075E+03  0.12499117295E+03 0.  0.
    9000005    1    3    3    0    0 -0.28364561073E+02  0.51850344948E+02 -0.71021779828E+01  0.59535262897E+02  0.10000000000E+01 0.  0.
    9000005    1    3    3    0    0  0.28364561073E+02 -0.51850344948E+02  0.34437306103E+02  0.68410047856E+02  0.10000000000E+01 0.  0.
<mgrwt>
<rscale>  0 0.12499117E+03</rscale>
<asrwt>0</asrwt>
<pdfrwt beam="1">  1        4 0.11944649E-01 0.12499117E+03</pdfrwt>
<pdfrwt beam="2">  1       -4 0.77392448E-02 0.12499117E+03</pdfrwt>
<totfact> 0.10390739E+04</totfact>
</mgrwt>
</event>
<event>
 5    1  0.3239419E-002  0.1250049E+03  0.7818608E-02  0.1235062E+00
         -4   -1    0    0    0  501 -0.00000000000E+00  0.00000000000E+00  0.19828318790E+02  0.19868948790E+02  0.12700000000E+01 0.  1.
          4   -1    0    0  501    0  0.00000000000E+00 -0.00000000000E+00 -0.19677471444E+03  0.19677881274E+03  0.12700000000E+01 0.  1.
         25    2    1    2    0    0  0.00000000000E+00  0.00000000000E+00 -0.17694639565E+03  0.21664776153E+03  0.12500490247E+03 0.  0.
    9000005    1    3    3    0    0  0.58470793985E+02  0.18582731335E+02 -0.67864090960E+02  0.91491455857E+02  0.10000000000E+01 0.  0.
    9000005    1    3    3    0    0 -0.58470793985E+02 -0.18582731335E+02 -0.10908230469E+03  0.12515630567E+03  0.10000000000E+01 0.  0.
<mgrwt>
<rscale>  0 0.12500490E+03</rscale>
<asrwt>0</asrwt>
<pdfrwt beam="2">  1        4 0.30276472E-01 0.12500490E+03</pdfrwt>
<pdfrwt beam="1">  1       -4 0.30539514E-02 0.12500490E+03</pdfrwt>
<totfact> 0.87392020E+03</totfact>
</mgrwt>
</event>
<event>
 5    1  0.3239419E-002  0.1249975E+03  0.7818608E-02  0.1235073E+00
          4   -1    0    0  501    0  0.00000000000E+00  0.00000000000E+00  0.80723831043E+01  0.81716747966E+01  0.12700000000E+01 0. -1.
         -4   -1    0    0    0  501 -0.00000000000E+00 -0.00000000000E+00 -0.48082606292E+03  0.48082774014E+03  0.12700000000E+01 0. -1.
         25    2    1    2    0    0  0.00000000000E+00  0.00000000000E+00 -0.47275367982E+03  0.48899941493E+03  0.12499754407E+03 0.  0.
    9000005    1    3    3    0    0  0.47127626082E+02  0.19131525688E+02 -0.37840543217E+03  0.38180976875E+03  0.10000000000E+01 0.  0.
    9000005    1    3    3    0    0 -0.47127626082E+02 -0.19131525688E+02 -0.94348247646E+02  0.10718964618E+03  0.10000000000E+01 0.  0.
<mgrwt>
<rscale>  0 0.12499754E+03</rscale>
<asrwt>0</asrwt>
<pdfrwt beam="1">  1        4 0.12496723E-02 0.12499754E+03</pdfrwt>
<pdfrwt beam="2">  1       -4 0.73980985E-01 0.12499754E+03</pdfrwt>
<totfact> 0.56731168E+03</totfact>
</mgrwt>
</event>
<event>
 5    1  0.3239419E-002  0.1249997E+03  0.7818608E-02  0.1235070E+00
          4   -1    0    0  501    0  0.00000000000E+00  0.00000000000E+00  0.75996089003E+02  0.76006699992E+02  0.12700000000E+01 0.  1.
         -4   -1    0    0    0  501 -0.00000000000E+00 -0.00000000000E+00 -0.51378337999E+02  0.51394031906E+02  0.12700000000E+01 0.  1.
         25    2    1    2    0    0  0.00000000000E+00  0.00000000000E+00  0.24617751004E+02  0.12740073190E+03  0.12499965129E+03 0.  0.
    9000005    1    3    3    0    0 -0.60717280878E+02 -0.10791754554E+02  0.22611358588E+02  0.65691123455E+02  0.10000000000E+01 0.  0.
    9000005    1    3    3    0    0  0.60717280878E+02  0.10791754554E+02  0.20063924158E+01  0.61709608443E+02  0.10000000000E+01 0.  0.
<mgrwt>
<rscale>  0 0.12499965E+03</rscale>
<asrwt>0</asrwt>
<pdfrwt beam="1">  1        4 0.11693729E-01 0.12499965E+03</pdfrwt>
<pdfrwt beam="2">  1       -4 0.79063832E-02 0.12499965E+03</pdfrwt>
<totfact> 0.10400533E+04</totfact>
</mgrwt>
</event>
<event>
 5    1  0.3239419E-002  0.1249986E+03  0.7818608E-02  0.1235072E+00
         -4   -1    0    0    0  501 -0.00000000000E+00  0.00000000000E+00  0.15940434124E+04  0.15940439184E+04  0.12700000000E+01 0. -1.
          4   -1    0    0  501    0  0.00000000000E+00 -0.00000000000E+00 -0.22853823601E+01  0.26145501586E+01  0.12700000000E+01 0. -1.
         25    2    1    2    0    0  0.00000000000E+00  0.00000000000E+00  0.15917580301E+04  0.15966584685E+04  0.12499855500E+03 0.  0.
    9000005    1    3    3    0    0 -0.45130988098E+02  0.13498309255E+01  0.13477336630E+04  0.13484901389E+04  0.10000000000E+01 0.  0.
    9000005    1    3    3    0    0  0.45130988098E+02 -0.13498309255E+01  0.24402436705E+03  0.24816832965E+03  0.10000000000E+01 0.  0.
<mgrwt>
<rscale>  0 0.12499855E+03</rscale>
<asrwt>0</asrwt>
<pdfrwt beam="2">  1        4 0.37695597E-03 0.12499855E+03</pdfrwt>
<pdfrwt beam="1">  1       -4 0.24526335E+00 0.12499855E+03</pdfrwt>
<totfact> 0.16107001E+03</totfact>
</mgrwt>
</event>
<event>
 5    1  0.3239419E-002  0.1250021E+03  0.7818608E-02  0.1235066E+00
          4   -1    0    0  501    0  0.00000000000E+00  0.00000000000E+00  0.11941740712E+03  0.11942416013E+03  0.12700000000E+01 0.  1.
         -4   -1    0    0    0  501 -0.00000000000E+00 -0.00000000000E+00 -0.32691974191E+02  0.32716633025E+02  0.12700000000E+01 0.  1.
         25    2    1    2    0    0  0.00000000000E+00  0.00000000000E+00  0.86725432931E+02  0.15214079316E+03  0.12500208089E+03 0.  0.
    9000005    1    3    3    0    0  0.27330778918E+02  0.37899889462E+02 -0.71436219590E+01  0.47280063792E+02  0.10000000000E+01 0.  0.
    9000005    1    3    3    0    0 -0.27330778918E+02 -0.37899889462E+02  0.93869054890E+02  0.10486072937E+03  0.10000000000E+01 0.  0.
<mgrwt>
<rscale>  0 0.12500208E+03</rscale>
<asrwt>0</asrwt>
<pdfrwt beam="1">  1        4 0.18374325E-01 0.12500208E+03</pdfrwt>
<pdfrwt beam="2">  1       -4 0.50319508E-02 0.12500208E+03</pdfrwt>
<totfact> 0.98874033E+03</totfact>
</mgrwt>
</event>
<event>
 5    1  0.3239419E-002  0.1250276E+03  0.7818608E-02  0.1235026E+00
         -4   -1    0    0    0  501 -0.00000000000E+00  0.00000000000E+00  0.67059589159E+02  0.67071613952E+02  0.12700000000E+01 0.  1.
          4   -1    0    0  501    0  0.00000000000E+00 -0.00000000000E+00 -0.58252013356E+02  0.58265855868E+02  0.12700000000E+01 0.  1.
         25    2    1    2    0    0  0.00000000000E+00  0.00000000000E+00  0.88075758027E+01  0.12533746982E+03  0.12502762874E+03 0.  0.
    9000005    1    3    3    0    0  0.33355414753E+02 -0.52162649499E+02 -0.41878239103E+01  0.62064994684E+02  0.10000000000E+01 0.  0.
    9000005    1    3    3    0    0 -0.33355414753E+02  0.52162649499E+02  0.12995399713E+02  0.63272475136E+02  0.10000000000E+01 0.  0.
<mgrwt>
<rscale>  0 0.12502763E+03</rscale>
<asrwt>0</asrwt>
<pdfrwt beam="2">  1        4 0.89638380E-02 0.12502763E+03</pdfrwt>
<pdfrwt beam="1">  1       -4 0.10318850E-01 0.12502763E+03</pdfrwt>
<totfact> 0.10439018E+04</totfact>
</mgrwt>
</event>
<event>
 5    1  0.3239419E-002  0.1250023E+03  0.7818608E-02  0.1235066E+00
         -4   -1    0    0    0  501 -0.00000000000E+00  0.00000000000E+00  0.45731445719E+02  0.45749076794E+02  0.12700000000E+01 0.  1.
          4   -1    0    0  501    0  0.00000000000E+00 -0.00000000000E+00 -0.85381512678E+02  0.85390957408E+02  0.12700000000E+01 0.  1.
         25    2    1    2    0    0  0.00000000000E+00  0.00000000000E+00 -0.39650066959E+02  0.13114003420E+03  0.12500232302E+03 0.  0.
    9000005    1    3    3    0    0  0.13596893990E+02 -0.35739573325E+02 -0.71680786625E+02  0.81248555672E+02  0.10000000000E+01 0.  0.
    9000005    1    3    3    0    0 -0.13596893990E+02  0.35739573325E+02  0.32030719666E+02  0.49891478530E+02  0.10000000000E+01 0.  0.
<mgrwt>
<rscale>  0 0.12500232E+03</rscale>
<asrwt>0</asrwt>
<pdfrwt beam="2">  1        4 0.13137700E-01 0.12500232E+03</pdfrwt>
<pdfrwt beam="1">  1       -4 0.70376898E-02 0.12500232E+03</pdfrwt>
<totfact> 0.10319547E+04</totfact>
</mgrwt>
</event>
<event>
 5    1  0.3239419E-002  0.1249987E+03  0.7818608E-02  0.1235071E+00
          4   -1    0    0  501    0  0.00000000000E+00  0.00000000000E+00  0.41410450140E+01  0.43314147582E+01  0.12700000000E+01 0.  1.
         -4   -1    0    0    0  501 -0.00000000000E+00 -0.00000000000E+00 -0.92189554741E+03  0.92189642218E+03  0.12700000000E+01 0.  1.
         25    2    1    2    0    0  0.00000000000E+00  0.00000000000E+00 -0.91775450240E+03  0.92622783694E+03  0.12499871702E+03 0.  0.
    9000005    1    3    3    0    0 -0.27973583804E+02 -0.35778756548E+02 -0.14080964516E+03  0.14795606436E+03  0.10000000000E+01 0.  0.
    9000005    1    3    3    0    0  0.27973583804E+02  0.35778756548E+02 -0.77694485724E+03  0.77827177258E+03  0.10000000000E+01 0.  0.
<mgrwt>
<rscale>  0 0.12499872E+03</rscale>
<asrwt>0</asrwt>
<pdfrwt beam="1">  1        4 0.65179570E-03 0.12499872E+03</pdfrwt>
<pdfrwt beam="2">  1       -4 0.14184464E+00 0.12499872E+03</pdfrwt>
<totfact> 0.33176256E+03</totfact>
</mgrwt>
</event>
<event>
 5    1  0.3239419E-002  0.1249995E+03  0.7818608E-02  0.1235070E+00
          4   -1    0    0  501    0  0.00000000000E+00  0.00000000000E+00  0.25437806597E+02  0.25469489678E+02  0.12700000000E+01 0.  1.
         -4   -1    0    0    0  501 -0.00000000000E+00 -0.00000000000E+00 -0.15342978794E+03  0.15343504400E+03  0.12700000000E+01 0.  1.
         25    2    1    2    0    0  0.00000000000E+00  0.00000000000E+00 -0.12799198134E+03  0.17890453368E+03  0.12499953953E+03 0.  0.
    9000005    1    3    3    0    0  0.22333141143E+02  0.56657642474E+02 -0.84051948143E+02  0.10380071113E+03  0.10000000000E+01 0.  0.
    9000005    1    3    3    0    0 -0.22333141143E+02 -0.56657642474E+02 -0.43940033200E+02  0.75103822550E+02  0.10000000000E+01 0.  0.
<mgrwt>
<rscale>  0 0.12499954E+03</rscale>
<asrwt>0</asrwt>
<pdfrwt beam="1">  1        4 0.39163503E-02 0.12499954E+03</pdfrwt>
<pdfrwt beam="2">  1       -4 0.23607424E-01 0.12499954E+03</pdfrwt>
<totfact> 0.93815532E+03</totfact>
</mgrwt>
</event>
<event>
 5    1  0.3239419E-002  0.1250053E+03  0.7818608E-02  0.1235061E+00
          4   -1    0    0  501    0  0.00000000000E+00  0.00000000000E+00  0.31894210045E+02  0.31919485184E+02  0.12700000000E+01 0.  1.
         -4   -1    0    0    0  501 -0.00000000000E+00 -0.00000000000E+00 -0.12240850557E+03  0.12241509358E+03  0.12700000000E+01 0.  1.
         25    2    1    2    0    0  0.00000000000E+00  0.00000000000E+00 -0.90514295529E+02  0.15433457877E+03  0.12500529792E+03 0.  0.
    9000005    1    3    3    0    0 -0.63655794252E+01  0.38613830566E+01 -0.12186506589E+03  0.12209637654E+03  0.10000000000E+01 0.  0.
    9000005    1    3    3    0    0  0.63655794252E+01 -0.38613830566E+01  0.31350770360E+02  0.32238202225E+02  0.10000000000E+01 0.  0.
<mgrwt>
<rscale>  0 0.12500530E+03</rscale>
<asrwt>0</asrwt>
<pdfrwt beam="1">  1        4 0.49092526E-02 0.12500530E+03</pdfrwt>
<pdfrwt beam="2">  1       -4 0.18834528E-01 0.12500530E+03</pdfrwt>
<totfact> 0.98434558E+03</totfact>
</mgrwt>
</event>
<event>
 5    1  0.3239419E-002  0.1249987E+03  0.7818608E-02  0.1235071E+00
         -4   -1    0    0    0  501 -0.00000000000E+00  0.00000000000E+00  0.11025430606E+02  0.11098334112E+02  0.12700000000E+01 0. -1.
          4   -1    0    0  501    0  0.00000000000E+00 -0.00000000000E+00 -0.35304587533E+03  0.35304815959E+03  0.12700000000E+01 0. -1.
         25    2    1    2    0    0  0.00000000000E+00  0.00000000000E+00 -0.34202044472E+03  0.36414649370E+03  0.12499873705E+03 0.  0.
    9000005    1    3    3    0    0 -0.35356725754E+02  0.49283974622E+02 -0.21482101865E+03  0.22322203803E+03  0.10000000000E+01 0.  0.
    9000005    1    3    3    0    0  0.35356725754E+02 -0.49283974622E+02 -0.12719942607E+03  0.14092445566E+03  0.10000000000E+01 0.  0.
<mgrwt>
<rscale>  0 0.12499874E+03</rscale>
<asrwt>0</asrwt>
<pdfrwt beam="2">  1        4 0.54320525E-01 0.12499874E+03</pdfrwt>
<pdfrwt beam="1">  1       -4 0.17020040E-02 0.12499874E+03</pdfrwt>
<totfact> 0.68197711E+03</totfact>
</mgrwt>
</event>
<event>
 5    1  0.3239419E-002  0.1250006E+03  0.7818608E-02  0.1235068E+00
         -4   -1    0    0    0  501 -0.00000000000E+00  0.00000000000E+00  0.94673508504E+03  0.94673593686E+03  0.12700000000E+01 0.  1.
          4   -1    0    0  501    0  0.00000000000E+00 -0.00000000000E+00 -0.40274606761E+01  0.42229538830E+01  0.12700000000E+01 0.  1.
         25    2    1    2    0    0  0.00000000000E+00  0.00000000000E+00  0.94270762436E+03  0.95095889074E+03  0.12500058741E+03 0.  0.
    9000005    1    3    3    0    0  0.70614057439E+01 -0.59558881434E+02  0.33780504952E+03  0.34308945669E+03  0.10000000000E+01 0.  0.
    9000005    1    3    3    0    0 -0.70614057439E+01  0.59558881434E+02  0.60490257484E+03  0.60786943405E+03  0.10000000000E+01 0.  0.
<mgrwt>
<rscale>  0 0.12500059E+03</rscale>
<asrwt>0</asrwt>
<pdfrwt beam="2">  1        4 0.63471342E-03 0.12500059E+03</pdfrwt>
<pdfrwt beam="1">  1       -4 0.14566651E+00 0.12500059E+03</pdfrwt>
<totfact> 0.32281567E+03</totfact>
</mgrwt>
</event>
<event>
 5    1  0.3239419E-002  0.1250033E+03  0.7818608E-02  0.1235064E+00
         -4   -1    0    0    0  501 -0.00000000000E+00  0.00000000000E+00  0.21551950577E+02  0.21589337037E+02  0.12700000000E+01 0. -1.
          4   -1    0    0  501    0  0.00000000000E+00 -0.00000000000E+00 -0.18106110657E+03  0.18106556054E+03  0.12700000000E+01 0. -1.
         25    2    1    2    0    0  0.00000000000E+00  0.00000000000E+00 -0.15950915599E+03  0.20265489757E+03  0.12500334662E+03 0.  0.
    9000005    1    3    3    0    0  0.25905078366E+02  0.53635406326E+02 -0.49096001147E+02  0.77196160692E+02  0.10000000000E+01 0.  0.
    9000005    1    3    3    0    0 -0.25905078366E+02 -0.53635406326E+02 -0.11041315484E+03  0.12545873688E+03  0.10000000000E+01 0.  0.
<mgrwt>
<rscale>  0 0.12500335E+03</rscale>
<asrwt>0</asrwt>
<pdfrwt beam="2">  1        4 0.27858772E-01 0.12500335E+03</pdfrwt>
<pdfrwt beam="1">  1       -4 0.33189033E-02 0.12500335E+03</pdfrwt>
<totfact> 0.89682946E+03</totfact>
</mgrwt>
</event>
<event>
 5    1  0.3239419E-002  0.1250008E+03  0.7818608E-02  0.1235068E+00
          4   -1    0    0  501    0  0.00000000000E+00  0.00000000000E+00  0.63305624287E+02  0.63318362000E+02  0.12700000000E+01 0. -1.
         -4   -1    0    0    0  501 -0.00000000000E+00 -0.00000000000E+00 -0.61679969471E+02  0.61693042833E+02  0.12700000000E+01 0. -1.
         25    2    1    2    0    0  0.00000000000E+00  0.00000000000E+00  0.16256548156E+01  0.12501140483E+03  0.12500083434E+03 0.  0.
    9000005    1    3    3    0    0 -0.59546710832E+02  0.15503830807E+02 -0.10102425828E+02  0.62363759895E+02  0.10000000000E+01 0.  0.
    9000005    1    3    3    0    0  0.59546710832E+02 -0.15503830807E+02  0.11728080644E+02  0.62647644937E+02  0.10000000000E+01 0.  0.
<mgrwt>
<rscale>  0 0.12500083E+03</rscale>
<asrwt>0</asrwt>
<pdfrwt beam="1">  1        4 0.97413122E-02 0.12500083E+03</pdfrwt>
<pdfrwt beam="2">  1       -4 0.94912116E-02 0.12500083E+03</pdfrwt>
<totfact> 0.10452418E+04</totfact>
</mgrwt>
</event>
<event>
 5    1  0.3239419E-002  0.1250021E+03  0.7818608E-02  0.1235066E+00
         -4   -1    0    0    0  501 -0.00000000000E+00  0.00000000000E+00  0.40136870542E+02  0.40156958014E+02  0.12700000000E+01 0. -1.
          4   -1    0    0  501    0  0.00000000000E+00 -0.00000000000E+00 -0.97277905278E+02  0.97286195091E+02  0.12700000000E+01 0. -1.
         25    2    1    2    0    0  0.00000000000E+00  0.00000000000E+00 -0.57141034736E+02  0.13744315310E+03  0.12500208992E+03 0.  0.
    9000005    1    3    3    0    0  0.59484461349E+02 -0.85099770279E+01 -0.47441414700E+02  0.76567020836E+02  0.10000000000E+01 0.  0.
    9000005    1    3    3    0    0 -0.59484461349E+02  0.85099770279E+01 -0.96996200361E+01  0.60876132268E+02  0.10000000000E+01 0.  0.
<mgrwt>
<rscale>  0 0.12500209E+03</rscale>
<asrwt>0</asrwt>
<pdfrwt beam="2">  1        4 0.14968014E-01 0.12500209E+03</pdfrwt>
<pdfrwt beam="1">  1       -4 0.61770861E-02 0.12500209E+03</pdfrwt>
<totfact> 0.10186348E+04</totfact>
</mgrwt>
</event>
<event>
 5    1  0.3239419E-002  0.1249951E+03  0.7818608E-02  0.1235077E+00
         -4   -1    0    0    0  501 -0.00000000000E+00  0.00000000000E+00  0.11230059701E+03  0.11230777795E+03  0.12700000000E+01 0.  1.
          4   -1    0    0  501    0  0.00000000000E+00 -0.00000000000E+00 -0.34761238736E+02  0.34784430691E+02  0.12700000000E+01 0.  1.
         25    2    1    2    0    0  0.00000000000E+00  0.00000000000E+00  0.77539358274E+02  0.14709220864E+03  0.12499506295E+03 0.  0.
    9000005    1    3    3    0    0  0.39466756712E+02 -0.16334594763E+02 -0.14906354435E+02  0.45250892521E+02  0.10000000000E+01 0.  0.
    9000005    1    3    3    0    0 -0.39466756712E+02  0.16334594763E+02  0.92445712709E+02  0.10184131612E+03  0.10000000000E+01 0.  0.
<mgrwt>
<rscale>  0 0.12499506E+03</rscale>
<asrwt>0</asrwt>
<pdfrwt beam="2">  1        4 0.53502194E-02 0.12499506E+03</pdfrwt>
<pdfrwt beam="1">  1       -4 0.17279351E-01 0.12499506E+03</pdfrwt>
<totfact> 0.99897616E+03</totfact>
</mgrwt>
</event>
<event>
 5    1  0.3239419E-002  0.1250008E+03  0.7818608E-02  0.1235068E+00
          4   -1    0    0  501    0  0.00000000000E+00  0.00000000000E+00  0.32901217981E+03  0.32901463093E+03  0.12700000000E+01 0. -1.
         -4   -1    0    0    0  501 -0.00000000000E+00 -0.00000000000E+00 -0.11836349602E+02  0.11904287963E+02  0.12700000000E+01 0. -1.
         25    2    1    2    0    0  0.00000000000E+00  0.00000000000E+00  0.31717583021E+03  0.34091891889E+03  0.12500080795E+03 0.  0.
    9000005    1    3    3    0    0  0.22745920680E+02 -0.50607607592E+02  0.80166107780E+02  0.97499290717E+02  0.10000000000E+01 0.  0.
    9000005    1    3    3    0    0 -0.22745920680E+02  0.50607607592E+02  0.23700972243E+03  0.24341962818E+03  0.10000000000E+01 0.  0.
<mgrwt>
<rscale>  0 0.12500081E+03</rscale>
<asrwt>0</asrwt>
<pdfrwt beam="1">  1        4 0.50622673E-01 0.12500081E+03</pdfrwt>
<pdfrwt beam="2">  1       -4 0.18263914E-02 0.12500081E+03</pdfrwt>
<totfact> 0.70734009E+03</totfact>
</mgrwt>
</event>
<event>
 5    1  0.3239419E-002  0.1249944E+03  0.7818608E-02  0.1235078E+00
          4   -1    0    0  501    0  0.00000000000E+00  0.00000000000E+00  0.48827324806E+02  0.48843838380E+02  0.12700000000E+01 0. -1.
         -4   -1    0    0    0  501 -0.00000000000E+00 -0.00000000000E+00 -0.79959068205E+02  0.79969153355E+02  0.12700000000E+01 0. -1.
         25    2    1    2    0    0  0.00000000000E+00  0.00000000000E+00 -0.31131743400E+02  0.12881299173E+03  0.12499440545E+03 0.  0.
    9000005    1    3    3    0    0  0.30095828591E+02 -0.37835981306E+02  0.25236362513E+02  0.54545342357E+02  0.10000000000E+01 0.  0.
    9000005    1    3    3    0    0 -0.30095828591E+02  0.37835981306E+02 -0.56368105912E+02  0.74267649378E+02  0.10000000000E+01 0.  0.
<mgrwt>
<rscale>  0 0.12499441E+03</rscale>
<asrwt>0</asrwt>
<pdfrwt beam="1">  1        4 0.75139422E-02 0.12499441E+03</pdfrwt>
<pdfrwt beam="2">  1       -4 0.12303441E-01 0.12499441E+03</pdfrwt>
<totfact> 0.10371277E+04</totfact>
</mgrwt>
</event>
<event>
 5    1  0.3239419E-002  0.1249997E+03  0.7818608E-02  0.1235070E+00
         -4   -1    0    0    0  501 -0.00000000000E+00  0.00000000000E+00  0.62064961787E+03  0.62065091724E+03  0.12700000000E+01 0.  1.
          4   -1    0    0  501    0  0.00000000000E+00 -0.00000000000E+00 -0.62283903225E+01  0.63565514243E+01  0.12700000000E+01 0.  1.
         25    2    1    2    0    0  0.00000000000E+00  0.00000000000E+00  0.61442122755E+03  0.62700746866E+03  0.12499968356E+03 0.  0.
    9000005    1    3    3    0    0  0.44817371129E+02  0.21728621431E+02  0.49653000538E+03  0.49902282111E+03  0.10000000000E+01 0.  0.
    9000005    1    3    3    0    0 -0.44817371129E+02 -0.21728621431E+02  0.11789122217E+03  0.12798464756E+03  0.10000000000E+01 0.  0.
<mgrwt>
<rscale>  0 0.12499968E+03</rscale>
<asrwt>0</asrwt>
<pdfrwt beam="2">  1        4 0.96817195E-03 0.12499968E+03</pdfrwt>
<pdfrwt beam="1">  1       -4 0.95494558E-01 0.12499968E+03</pdfrwt>
<totfact> 0.47206334E+03</totfact>
</mgrwt>
</event>
<event>
 5    1  0.3239419E-002  0.1250002E+03  0.7818608E-02  0.1235069E+00
         -4   -1    0    0    0  501 -0.00000000000E+00  0.00000000000E+00  0.48496815460E+02  0.48513441537E+02  0.12700000000E+01 0.  1.
          4   -1    0    0  501    0  0.00000000000E+00 -0.00000000000E+00 -0.80511367339E+02  0.80521383314E+02  0.12700000000E+01 0.  1.
         25    2    1    2    0    0  0.00000000000E+00  0.00000000000E+00 -0.32014551879E+02  0.12903482485E+03  0.12500021797E+03 0.  0.
    9000005    1    3    3    0    0 -0.44445237202E+02 -0.19786005665E+02 -0.56495673550E+02  0.74562901365E+02  0.10000000000E+01 0.  0.
    9000005    1    3    3    0    0  0.44445237202E+02  0.19786005665E+02  0.24481121671E+02  0.54471923487E+02  0.10000000000E+01 0.  0.
<mgrwt>
<rscale>  0 0.12500022E+03</rscale>
<asrwt>0</asrwt>
<pdfrwt beam="2">  1        4 0.12388414E-01 0.12500022E+03</pdfrwt>
<pdfrwt beam="1">  1       -4 0.74630979E-02 0.12500022E+03</pdfrwt>
<totfact> 0.10365147E+04</totfact>
</mgrwt>
</event>
<event>
 5    1  0.3239419E-002  0.1250020E+03  0.7818608E-02  0.1235066E+00
         -4   -1    0    0    0  501 -0.00000000000E+00  0.00000000000E+00  0.10501886605E+03  0.10502654487E+03  0.12700000000E+01 0. -1.
          4   -1    0    0  501    0  0.00000000000E+00 -0.00000000000E+00 -0.37177030988E+02  0.37198716820E+02  0.12700000000E+01 0. -1.
         25    2    1    2    0    0  0.00000000000E+00  0.00000000000E+00  0.67841835062E+02  0.14222526169E+03  0.12500204189E+03 0.  0.
    9000005    1    3    3    0    0 -0.48752135857E+02  0.96009819470E+01  0.77043182870E+02  0.91682068212E+02  0.10000000000E+01 0.  0.
    9000005    1    3    3    0    0  0.48752135857E+02 -0.96009819470E+01 -0.92013478084E+01  0.50543193473E+02  0.10000000000E+01 0.  0.
<mgrwt>
<rscale>  0 0.12500204E+03</rscale>
<asrwt>0</asrwt>
<pdfrwt beam="2">  1        4 0.57218021E-02 0.12500204E+03</pdfrwt>
<pdfrwt beam="1">  1       -4 0.16159007E-01 0.12500204E+03</pdfrwt>
<totfact> 0.10087209E+04</totfact>
</mgrwt>
</event>
<event>
 5    1  0.3239419E-002  0.1250001E+03  0.7818608E-02  0.1235069E+00
          4   -1    0    0  501    0  0.00000000000E+00  0.00000000000E+00  0.16579493979E+02  0.16628064247E+02  0.12700000000E+01 0.  1.
         -4   -1    0    0    0  501 -0.00000000000E+00 -0.00000000000E+00 -0.23521291527E+03  0.23521634384E+03  0.12700000000E+01 0.  1.
         25    2    1    2    0    0  0.00000000000E+00  0.00000000000E+00 -0.21863342129E+03  0.25184440809E+03  0.12500013192E+03 0.  0.
    9000005    1    3    3    0    0  0.59847623205E+02  0.59429577061E+01 -0.75113257364E+02  0.96229196096E+02  0.10000000000E+01 0.  0.
    9000005    1    3    3    0    0 -0.59847623205E+02 -0.59429577061E+01 -0.14352016392E+03  0.15561521199E+03  0.10000000000E+01 0.  0.
<mgrwt>
<rscale>  0 0.12500013E+03</rscale>
<asrwt>0</asrwt>
<pdfrwt beam="1">  1        4 0.25546915E-02 0.12500013E+03</pdfrwt>
<pdfrwt beam="2">  1       -4 0.36190600E-01 0.12500013E+03</pdfrwt>
<totfact> 0.82064142E+03</totfact>
</mgrwt>
</event>
<event>
 5    1  0.3239419E-002  0.1250028E+03  0.7818608E-02  0.1235065E+00
          4   -1    0    0  501    0  0.00000000000E+00  0.00000000000E+00  0.10226081449E+03  0.10226870040E+03  0.12700000000E+01 0.  1.
         -4   -1    0    0    0  501 -0.00000000000E+00 -0.00000000000E+00 -0.38180662048E+02  0.38201778158E+02  0.12700000000E+01 0.  1.
         25    2    1    2    0    0  0.00000000000E+00  0.00000000000E+00  0.64080152445E+02  0.14047047855E+03  0.12500275760E+03 0.  0.
    9000005    1    3    3    0    0  0.25415591141E+02 -0.54867671407E+02  0.14307463050E+02  0.62145934200E+02  0.10000000000E+01 0.  0.
    9000005    1    3    3    0    0 -0.25415591141E+02  0.54867671407E+02  0.49772689395E+02  0.78324544354E+02  0.10000000000E+01 0.  0.
<mgrwt>
<rscale>  0 0.12500276E+03</rscale>
<asrwt>0</asrwt>
<pdfrwt beam="1">  1        4 0.15734664E-01 0.12500276E+03</pdfrwt>
<pdfrwt beam="2">  1       -4 0.58761789E-02 0.12500276E+03</pdfrwt>
<totfact> 0.10123215E+04</totfact>
</mgrwt>
</event>
<event>
 5    1  0.3239419E-002  0.1250040E+03  0.7818608E-02  0.1235063E+00
         -4   -1    0    0    0  501 -0.00000000000E+00  0.00000000000E+00  0.98560397430E+02  0.98568579383E+02  0.12700000000E+01 0.  1.
          4   -1    0    0  501    0  0.00000000000E+00 -0.00000000000E+00 -0.39615585733E+02  0.39635937393E+02  0.12700000000E+01 0.  1.
         25    2    1    2    0    0  0.00000000000E+00  0.00000000000E+00  0.58944811697E+02  0.13820451678E+03  0.12500399046E+03 0.  0.
    9000005    1    3    3    0    0 -0.41733461611E+02 -0.46396250157E+02  0.25771439259E+02  0.67523780464E+02  0.10000000000E+01 0.  0.
    9000005    1    3    3    0    0  0.41733461611E+02  0.46396250157E+02  0.33173372438E+02  0.70680736312E+02  0.10000000000E+01 0.  0.
<mgrwt>
<rscale>  0 0.12500399E+03</rscale>
<asrwt>0</asrwt>
<pdfrwt beam="2">  1        4 0.60969005E-02 0.12500399E+03</pdfrwt>
<pdfrwt beam="1">  1       -4 0.15165333E-01 0.12500399E+03</pdfrwt>
<totfact> 0.10170020E+04</totfact>
</mgrwt>
</event>
<event>
 5    1  0.3239419E-002  0.1249994E+03  0.7818608E-02  0.1235070E+00
         -4   -1    0    0    0  501 -0.00000000000E+00  0.00000000000E+00  0.58920430236E+03  0.58920567106E+03  0.12700000000E+01 0.  1.
          4   -1    0    0  501    0  0.00000000000E+00 -0.00000000000E+00 -0.65674304397E+01  0.66890987869E+01  0.12700000000E+01 0.  1.
         25    2    1    2    0    0  0.00000000000E+00  0.00000000000E+00  0.58263687192E+03  0.59589476985E+03  0.12499940888E+03 0.  0.
    9000005    1    3    3    0    0 -0.61741639398E+02  0.37102872202E+01  0.24883518195E+03  0.25640932909E+03  0.10000000000E+01 0.  0.
    9000005    1    3    3    0    0  0.61741639398E+02 -0.37102872202E+01  0.33380168997E+03  0.33948544076E+03  0.10000000000E+01 0.  0.
<mgrwt>
<rscale>  0 0.12499941E+03</rscale>
<asrwt>0</asrwt>
<pdfrwt beam="2">  1        4 0.10198385E-02 0.12499941E+03</pdfrwt>
<pdfrwt beam="1">  1       -4 0.90656259E-01 0.12499941E+03</pdfrwt>
<totfact> 0.49128419E+03</totfact>
</mgrwt>
</event>
<event>
 5    1  0.3239419E-002  0.1249990E+03  0.7818608E-02  0.1235071E+00
          4   -1    0    0  501    0  0.00000000000E+00  0.00000000000E+00  0.20969460365E+02  0.21007883472E+02  0.12700000000E+01 0. -1.
         -4   -1    0    0    0  501 -0.00000000000E+00 -0.00000000000E+00 -0.18606880482E+03  0.18607313892E+03  0.12700000000E+01 0. -1.
         25    2    1    2    0    0  0.00000000000E+00  0.00000000000E+00 -0.16509934446E+03  0.20708102239E+03  0.12499902518E+03 0.  0.
    9000005    1    3    3    0    0  0.37953048777E+02  0.43571739412E+02 -0.12197189549E+03  0.13497064005E+03  0.10000000000E+01 0.  0.
    9000005    1    3    3    0    0 -0.37953048777E+02 -0.43571739412E+02 -0.43127448967E+02  0.72110382341E+02  0.10000000000E+01 0.  0.
<mgrwt>
<rscale>  0 0.12499903E+03</rscale>
<asrwt>0</asrwt>
<pdfrwt beam="1">  1        4 0.32293600E-02 0.12499903E+03</pdfrwt>
<pdfrwt beam="2">  1       -4 0.28629258E-01 0.12499903E+03</pdfrwt>
<totfact> 0.88956758E+03</totfact>
</mgrwt>
</event>
<event>
 5    1  0.3239419E-002  0.1249989E+03  0.7818608E-02  0.1235071E+00
         -4   -1    0    0    0  501 -0.00000000000E+00  0.00000000000E+00  0.19415802847E+01  0.23200504309E+01  0.12700000000E+01 0. -1.
          4   -1    0    0  501    0  0.00000000000E+00 -0.00000000000E+00 -0.18328065698E+04  0.18328070098E+04  0.12700000000E+01 0. -1.
         25    2    1    2    0    0  0.00000000000E+00  0.00000000000E+00 -0.18308649895E+04  0.18351270602E+04  0.12499886955E+03 0.  0.
    9000005    1    3    3    0    0 -0.35820983544E+02 -0.45172628844E+02 -0.12694491898E+04  0.12707580237E+04  0.10000000000E+01 0.  0.
    9000005    1    3    3    0    0  0.35820983544E+02  0.45172628844E+02 -0.56141579972E+03  0.56436903657E+03  0.10000000000E+01 0.  0.
<mgrwt>
<rscale>  0 0.12499887E+03</rscale>
<asrwt>0</asrwt>
<pdfrwt beam="2">  1        4 0.28199813E+00 0.12499887E+03</pdfrwt>
<pdfrwt beam="1">  1       -4 0.32785306E-03 0.12499887E+03</pdfrwt>
<totfact> 0.12170470E+03</totfact>
</mgrwt>
</event>
<event>
 5    1  0.3239419E-002  0.1250079E+03  0.7818608E-02  0.1235057E+00
         -4   -1    0    0    0  501 -0.00000000000E+00  0.00000000000E+00  0.11205784953E+02  0.11277522619E+02  0.12700000000E+01 0. -1.
          4   -1    0    0  501    0  0.00000000000E+00 -0.00000000000E+00 -0.34745094227E+03  0.34745326331E+03  0.12700000000E+01 0. -1.
         25    2    1    2    0    0  0.00000000000E+00  0.00000000000E+00 -0.33624515731E+03  0.35873078592E+03  0.12500788356E+03 0.  0.
    9000005    1    3    3    0    0 -0.12903898881E+02  0.18998049486E+02 -0.13284516052E+01  0.23026099849E+02  0.10000000000E+01 0.  0.
    9000005    1    3    3    0    0  0.12903898881E+02 -0.18998049486E+02 -0.33491670571E+03  0.33570468607E+03  0.10000000000E+01 0.  0.
<mgrwt>
<rscale>  0 0.12500788E+03</rscale>
<asrwt>0</asrwt>
<pdfrwt beam="2">  1        4 0.53459680E-01 0.12500788E+03</pdfrwt>
<pdfrwt beam="1">  1       -4 0.17296640E-02 0.12500788E+03</pdfrwt>
<totfact> 0.68762635E+03</totfact>
</mgrwt>
</event>
<event>
 5    1  0.3239419E-002  0.1249988E+03  0.7818608E-02  0.1235071E+00
         -4   -1    0    0    0  501 -0.00000000000E+00  0.00000000000E+00  0.32115242991E+02  0.32140344310E+02  0.12700000000E+01 0. -1.
          4   -1    0    0  501    0  0.00000000000E+00 -0.00000000000E+00 -0.12155398848E+03  0.12156062280E+03  0.12700000000E+01 0. -1.
         25    2    1    2    0    0  0.00000000000E+00  0.00000000000E+00 -0.89438745490E+02  0.15370096711E+03  0.12499879238E+03 0.  0.
    9000005    1    3    3    0    0  0.27884551407E+02  0.37684061867E+02  0.60914170859E+01  0.47283634464E+02  0.10000000000E+01 0.  0.
    9000005    1    3    3    0    0 -0.27884551407E+02 -0.37684061867E+02 -0.95530162576E+02  0.10641733265E+03  0.10000000000E+01 0.  0.
<mgrwt>
<rscale>  0 0.12499879E+03</rscale>
<asrwt>0</asrwt>
<pdfrwt beam="2">  1        4 0.18703055E-01 0.12499879E+03</pdfrwt>
<pdfrwt beam="1">  1       -4 0.49432479E-02 0.12499879E+03</pdfrwt>
<totfact> 0.98573693E+03</totfact>
</mgrwt>
</event>
<event>
 5    1  0.3239419E-002  0.1250041E+03  0.7818608E-02  0.1235063E+00
          4   -1    0    0  501    0  0.00000000000E+00  0.00000000000E+00  0.42473428985E+03  0.42473618856E+03  0.12700000000E+01 0. -1.
         -4   -1    0    0    0  501 -0.00000000000E+00 -0.00000000000E+00 -0.91517648133E+01  0.92394642267E+01  0.12700000000E+01 0. -1.
         25    2    1    2    0    0  0.00000000000E+00  0.00000000000E+00  0.41558252503E+03  0.43397565279E+03  0.12500412832E+03 0.  0.
    9000005    1    3    3    0    0  0.54292396938E+02 -0.21762599683E+02  0.13139569491E+03  0.14383012115E+03  0.10000000000E+01 0.  0.
    9000005    1    3    3    0    0 -0.54292396938E+02  0.21762599683E+02  0.28418683013E+03  0.29014553163E+03  0.10000000000E+01 0.  0.
<mgrwt>
<rscale>  0 0.12500413E+03</rscale>
<asrwt>0</asrwt>
<pdfrwt beam="1">  1        4 0.65350631E-01 0.12500413E+03</pdfrwt>
<pdfrwt beam="2">  1       -4 0.14148559E-02 0.12500413E+03</pdfrwt>
<totfact> 0.61371680E+03</totfact>
</mgrwt>
</event>
<event>
 5    1  0.3239419E-002  0.1249977E+03  0.7818608E-02  0.1235073E+00
          4   -1    0    0  501    0  0.00000000000E+00  0.00000000000E+00  0.16352633557E+02  0.16401875632E+02  0.12700000000E+01 0. -1.
         -4   -1    0    0    0  501 -0.00000000000E+00 -0.00000000000E+00 -0.23845720620E+03  0.23846058812E+03  0.12700000000E+01 0. -1.
         25    2    1    2    0    0  0.00000000000E+00  0.00000000000E+00 -0.22210457264E+03  0.25486246375E+03  0.12499773695E+03 0.  0.
    9000005    1    3    3    0    0 -0.35393984472E+02 -0.38738286992E+02 -0.18024766578E+03  0.18773281555E+03  0.10000000000E+01 0.  0.
    9000005    1    3    3    0    0  0.35393984472E+02  0.38738286992E+02 -0.41856906863E+02  0.67129648204E+02  0.10000000000E+01 0.  0.
<mgrwt>
<rscale>  0 0.12499774E+03</rscale>
<asrwt>0</asrwt>
<pdfrwt beam="1">  1        4 0.25198379E-02 0.12499774E+03</pdfrwt>
<pdfrwt beam="2">  1       -4 0.36689770E-01 0.12499774E+03</pdfrwt>
<totfact> 0.81636606E+03</totfact>
</mgrwt>
</event>
<event>
 5    1  0.3239419E-002  0.1250006E+03  0.7818608E-02  0.1235068E+00
         -4   -1    0    0    0  501 -0.00000000000E+00  0.00000000000E+00  0.15941940979E+01  0.20382234474E+01  0.12700000000E+01 0. -1.
          4   -1    0    0  501    0  0.00000000000E+00 -0.00000000000E+00 -0.21503477126E+04  0.21503480876E+04  0.12700000000E+01 0. -1.
         25    2    1    2    0    0  0.00000000000E+00  0.00000000000E+00 -0.21487535185E+04  0.21523863111E+04  0.12500059539E+03 0.  0.
    9000005    1    3    3    0    0 -0.61498012792E+02  0.94470783697E+01 -0.97392285095E+03  0.97590879311E+03  0.10000000000E+01 0.  0.
    9000005    1    3    3    0    0  0.61498012792E+02 -0.94470783697E+01 -0.11748306675E+04  0.11764775180E+04  0.10000000000E+01 0.  0.
<mgrwt>
<rscale>  0 0.12500060E+03</rscale>
<asrwt>0</asrwt>
<pdfrwt beam="2">  1        4 0.33085487E+00 0.12500060E+03</pdfrwt>
<pdfrwt beam="1">  1       -4 0.27944730E-03 0.12500060E+03</pdfrwt>
<totfact> 0.80011035E+02</totfact>
</mgrwt>
</event>
<event>
 5    1  0.3239419E-002  0.1249991E+03  0.7818608E-02  0.1235071E+00
          4   -1    0    0  501    0  0.00000000000E+00  0.00000000000E+00  0.13759798680E+02  0.13818283530E+02  0.12700000000E+01 0.  1.
         -4   -1    0    0    0  501 -0.00000000000E+00 -0.00000000000E+00 -0.28322267638E+03  0.28322552377E+03  0.12700000000E+01 0.  1.
         25    2    1    2    0    0  0.00000000000E+00  0.00000000000E+00 -0.26946287770E+03  0.29704380730E+03  0.12499912399E+03 0.  0.
    9000005    1    3    3    0    0 -0.47852573446E+02  0.92316422296E+01 -0.22768668421E+03  0.23284612552E+03  0.10000000000E+01 0.  0.
    9000005    1    3    3    0    0  0.47852573446E+02 -0.92316422296E+01 -0.41776193493E+02  0.64197681784E+02  0.10000000000E+01 0.  0.
<mgrwt>
<rscale>  0 0.12499912E+03</rscale>
<asrwt>0</asrwt>
<pdfrwt beam="1">  1        4 0.21216102E-02 0.12499912E+03</pdfrwt>
<pdfrwt beam="2">  1       -4 0.43577433E-01 0.12499912E+03</pdfrwt>
<totfact> 0.75972640E+03</totfact>
</mgrwt>
</event>
<event>
 5    1  0.3239419E-002  0.1249968E+03  0.7818608E-02  0.1235074E+00
         -4   -1    0    0    0  501 -0.00000000000E+00  0.00000000000E+00  0.16987340022E+03  0.16987814751E+03  0.12700000000E+01 0. -1.
          4   -1    0    0  501    0  0.00000000000E+00 -0.00000000000E+00 -0.22971264681E+02  0.23006344800E+02  0.12700000000E+01 0. -1.
         25    2    1    2    0    0  0.00000000000E+00  0.00000000000E+00  0.14690213554E+03  0.19288449231E+03  0.12499675975E+03 0.  0.
    9000005    1    3    3    0    0  0.35894316083E+02  0.51144236360E+02  0.74925246075E+02  0.97564990336E+02  0.10000000000E+01 0.  0.
    9000005    1    3    3    0    0 -0.35894316083E+02 -0.51144236360E+02  0.71976889461E+02  0.95319501973E+02  0.10000000000E+01 0.  0.
<mgrwt>
<rscale>  0 0.12499676E+03</rscale>
<asrwt>0</asrwt>
<pdfrwt beam="2">  1        4 0.35371044E-02 0.12499676E+03</pdfrwt>
<pdfrwt beam="1">  1       -4 0.26137433E-01 0.12499676E+03</pdfrwt>
<totfact> 0.91354459E+03</totfact>
</mgrwt>
</event>
<event>
 5    1  0.3239419E-002  0.1250004E+03  0.7818608E-02  0.1235069E+00
         -4   -1    0    0    0  501 -0.00000000000E+00  0.00000000000E+00  0.47261010841E+02  0.47278071510E+02  0.12700000000E+01 0. -1.
          4   -1    0    0  501    0  0.00000000000E+00 -0.00000000000E+00 -0.82616307972E+02  0.82626068785E+02  0.12700000000E+01 0. -1.
         25    2    1    2    0    0  0.00000000000E+00  0.00000000000E+00 -0.35355297132E+02  0.12990414030E+03  0.12500035452E+03 0.  0.
    9000005    1    3    3    0    0  0.29131591309E+02  0.53263308442E+02 -0.22759025773E+01  0.60760261445E+02  0.10000000000E+01 0.  0.
    9000005    1    3    3    0    0 -0.29131591309E+02 -0.53263308442E+02 -0.33079394554E+02  0.69143878850E+02  0.10000000000E+01 0.  0.
<mgrwt>
<rscale>  0 0.12500035E+03</rscale>
<asrwt>0</asrwt>
<pdfrwt beam="2">  1        4 0.12712264E-01 0.12500035E+03</pdfrwt>
<pdfrwt beam="1">  1       -4 0.72729879E-02 0.12500035E+03</pdfrwt>
<totfact> 0.10346476E+04</totfact>
</mgrwt>
</event>
<event>
 5    1  0.3239419E-002  0.1249980E+03  0.7818608E-02  0.1235072E+00
          4   -1    0    0  501    0  0.00000000000E+00  0.00000000000E+00  0.16586836661E+02  0.16635385491E+02  0.12700000000E+01 0. -1.
         -4   -1    0    0    0  501 -0.00000000000E+00 -0.00000000000E+00 -0.23510108435E+03  0.23510451455E+03  0.12700000000E+01 0. -1.
         25    2    1    2    0    0  0.00000000000E+00  0.00000000000E+00 -0.21851424769E+03  0.25173990004E+03  0.12499800331E+03 0.  0.
    9000005    1    3    3    0    0 -0.42335143935E+02  0.17626793841E+02 -0.23761224843E+02  0.51658146300E+02  0.10000000000E+01 0.  0.
    9000005    1    3    3    0    0  0.42335143935E+02 -0.17626793841E+02 -0.19475302285E+03  0.20008175374E+03  0.10000000000E+01 0.  0.
<mgrwt>
<rscale>  0 0.12499800E+03</rscale>
<asrwt>0</asrwt>
<pdfrwt beam="1">  1        4 0.25558196E-02 0.12499800E+03</pdfrwt>
<pdfrwt beam="2">  1       -4 0.36173393E-01 0.12499800E+03</pdfrwt>
<totfact> 0.82083058E+03</totfact>
</mgrwt>
</event>
<event>
 5    1  0.3239419E-002  0.1250006E+03  0.7818608E-02  0.1235068E+00
         -4   -1    0    0    0  501 -0.00000000000E+00  0.00000000000E+00  0.99096766957E+02  0.99104904628E+02  0.12700000000E+01 0. -1.
          4   -1    0    0  501    0  0.00000000000E+00 -0.00000000000E+00 -0.39398929652E+02  0.39419393167E+02  0.12700000000E+01 0. -1.
         25    2    1    2    0    0  0.00000000000E+00  0.00000000000E+00  0.59697837305E+02  0.13852429780E+03  0.12500059720E+03 0.  0.
    9000005    1    3    3    0    0 -0.29427501663E+02  0.64392635472E+01  0.90525133776E+02  0.95410910352E+02  0.10000000000E+01 0.  0.
    9000005    1    3    3    0    0  0.29427501663E+02 -0.64392635472E+01 -0.30827296470E+02  0.43113387443E+02  0.10000000000E+01 0.  0.
<mgrwt>
<rscale>  0 0.12500060E+03</rscale>
<asrwt>0</asrwt>
<pdfrwt beam="2">  1        4 0.60635739E-02 0.12500060E+03</pdfrwt>
<pdfrwt beam="1">  1       -4 0.15247856E-01 0.12500060E+03</pdfrwt>
<totfact> 0.10164126E+04</totfact>
</mgrwt>
</event>
<event>
 5    1  0.3239419E-002  0.1250128E+03  0.7818608E-02  0.1235049E+00
          4   -1    0    0  501    0  0.00000000000E+00  0.00000000000E+00  0.85850093219E+02  0.85859486405E+02  0.12700000000E+01 0.  1.
         -4   -1    0    0    0  501 -0.00000000000E+00 -0.00000000000E+00 -0.45489378965E+02  0.45507103826E+02  0.12700000000E+01 0.  1.
         25    2    1    2    0    0  0.00000000000E+00  0.00000000000E+00  0.40360714253E+02  0.13136659023E+03  0.12501277444E+03 0.  0.
    9000005    1    3    3    0    0  0.46083633312E+02 -0.42216810649E+02  0.20492228890E+02  0.65779113749E+02  0.10000000000E+01 0.  0.
    9000005    1    3    3    0    0 -0.46083633312E+02  0.42216810649E+02  0.19868485363E+02  0.65587476482E+02  0.10000000000E+01 0.  0.
<mgrwt>
<rscale>  0 0.12501277E+03</rscale>
<asrwt>0</asrwt>
<pdfrwt beam="1">  1        4 0.13209793E-01 0.12501277E+03</pdfrwt>
<pdfrwt beam="2">  1       -4 0.70004520E-02 0.12501277E+03</pdfrwt>
<totfact> 0.10312264E+04</totfact>
</mgrwt>
</event>
<event>
 5    1  0.3239419E-002  0.1250072E+03  0.7818608E-02  0.1235058E+00
          4   -1    0    0  501    0  0.00000000000E+00  0.00000000000E+00  0.26684503027E+03  0.26684805242E+03  0.12700000000E+01 0.  1.
         -4   -1    0    0    0  501 -0.00000000000E+00 -0.00000000000E+00 -0.14609674668E+02  0.14664770503E+02  0.12700000000E+01 0.  1.
         25    2    1    2    0    0  0.00000000000E+00  0.00000000000E+00  0.25223535560E+03  0.28151282292E+03  0.12500717921E+03 0.  0.
    9000005    1    3    3    0    0 -0.37481056508E+02  0.48428696230E+02  0.15420245659E+03  0.16592035992E+03  0.10000000000E+01 0.  0.
    9000005    1    3    3    0    0  0.37481056508E+02 -0.48428696230E+02  0.98032899010E+02  0.11559246301E+03  0.10000000000E+01 0.  0.
<mgrwt>
<rscale>  0 0.12500718E+03</rscale>
<asrwt>0</asrwt>
<pdfrwt beam="1">  1        4 0.41057552E-01 0.12500718E+03</pdfrwt>
<pdfrwt beam="2">  1       -4 0.22521129E-02 0.12500718E+03</pdfrwt>
<totfact> 0.77965500E+03</totfact>
</mgrwt>
</event>
<event>
 5    1  0.3239419E-002  0.1250015E+03  0.7818608E-02  0.1235067E+00
         -4   -1    0    0    0  501 -0.00000000000E+00  0.00000000000E+00  0.33025095550E+03  0.33025339742E+03  0.12700000000E+01 0. -1.
          4   -1    0    0  501    0  0.00000000000E+00 -0.00000000000E+00 -0.11791819194E+02  0.11860012643E+02  0.12700000000E+01 0. -1.
         25    2    1    2    0    0  0.00000000000E+00  0.00000000000E+00  0.31845913630E+03  0.34211341006E+03  0.12500145539E+03 0.  0.
    9000005    1    3    3    0    0  0.36683812668E+02 -0.42785584817E+02  0.85332280602E+02  0.10226879530E+03  0.10000000000E+01 0.  0.
    9000005    1    3    3    0    0 -0.36683812668E+02  0.42785584817E+02  0.23312685570E+03  0.23984461476E+03  0.10000000000E+01 0.  0.
<mgrwt>
<rscale>  0 0.12500146E+03</rscale>
<asrwt>0</asrwt>
<pdfrwt beam="2">  1        4 0.18195598E-02 0.12500146E+03</pdfrwt>
<pdfrwt beam="1">  1       -4 0.50813266E-01 0.12500146E+03</pdfrwt>
<totfact> 0.70598709E+03</totfact>
</mgrwt>
</event>
<event>
 5    1  0.3239419E-002  0.1249982E+03  0.7818608E-02  0.1235072E+00
         -4   -1    0    0    0  501 -0.00000000000E+00  0.00000000000E+00  0.14967767650E+02  0.15021550134E+02  0.12700000000E+01 0.  1.
          4   -1    0    0  501    0  0.00000000000E+00 -0.00000000000E+00 -0.26044677681E+03  0.26044987320E+03  0.12700000000E+01 0.  1.
         25    2    1    2    0    0  0.00000000000E+00  0.00000000000E+00 -0.24547900916E+03  0.27547142333E+03  0.12499824453E+03 0.  0.
    9000005    1    3    3    0    0 -0.40539106228E+02  0.33176599791E+02 -0.47647244004E+02  0.70819247162E+02  0.10000000000E+01 0.  0.
    9000005    1    3    3    0    0  0.40539106228E+02 -0.33176599791E+02 -0.19783176515E+03  0.20465217617E+03  0.10000000000E+01 0.  0.
<mgrwt>
<rscale>  0 0.12499824E+03</rscale>
<asrwt>0</asrwt>
<pdfrwt beam="2">  1        4 0.40073107E-01 0.12499824E+03</pdfrwt>
<pdfrwt beam="1">  1       -4 0.23071090E-02 0.12499824E+03</pdfrwt>
<totfact> 0.78785495E+03</totfact>
</mgrwt>
</event>
<event>
 5    1  0.3239419E-002  0.1250004E+03  0.7818608E-02  0.1235069E+00
          4   -1    0    0  501    0  0.00000000000E+00  0.00000000000E+00  0.15095061016E+04  0.15095066359E+04  0.12700000000E+01 0. -1.
         -4   -1    0    0    0  501 -0.00000000000E+00 -0.00000000000E+00 -0.24313975240E+01  0.27430993274E+01  0.12700000000E+01 0. -1.
         25    2    1    2    0    0  0.00000000000E+00  0.00000000000E+00  0.15070747041E+04  0.15122497352E+04  0.12500039148E+03 0.  0.
    9000005    1    3    3    0    0 -0.60751799608E+02  0.11752477488E+01  0.57692698086E+03  0.58011887024E+03  0.10000000000E+01 0.  0.
    9000005    1    3    3    0    0  0.60751799608E+02 -0.11752477488E+01  0.93014772326E+03  0.93213086498E+03  0.10000000000E+01 0.  0.
<mgrwt>
<rscale>  0 0.12500039E+03</rscale>
<asrwt>0</asrwt>
<pdfrwt beam="1">  1        4 0.23225537E+00 0.12500039E+03</pdfrwt>
<pdfrwt beam="2">  1       -4 0.39807993E-03 0.12500039E+03</pdfrwt>
<totfact> 0.17690754E+03</totfact>
</mgrwt>
</event>
<event>
 5    1  0.3239419E-002  0.1250011E+03  0.7818608E-02  0.1235068E+00
          4   -1    0    0  501    0  0.00000000000E+00  0.00000000000E+00  0.38371922228E+03  0.38372132394E+03  0.12700000000E+01 0. -1.
         -4   -1    0    0    0  501 -0.00000000000E+00 -0.00000000000E+00 -0.10138399748E+02  0.10217634239E+02  0.12700000000E+01 0. -1.
         25    2    1    2    0    0  0.00000000000E+00  0.00000000000E+00  0.37358082253E+03  0.39393895818E+03  0.12500108723E+03 0.  0.
    9000005    1    3    3    0    0  0.81967569780E+01 -0.14997187489E+02  0.37622621878E+03  0.37661554688E+03  0.10000000000E+01 0.  0.
    9000005    1    3    3    0    0 -0.81967569780E+01  0.14997187489E+02 -0.26453962498E+01  0.17323411294E+02  0.10000000000E+01 0.  0.
<mgrwt>
<rscale>  0 0.12500109E+03</rscale>
<asrwt>0</asrwt>
<pdfrwt beam="1">  1        4 0.59039987E-01 0.12500109E+03</pdfrwt>
<pdfrwt beam="2">  1       -4 0.15660103E-02 0.12500109E+03</pdfrwt>
<totfact> 0.65145010E+03</totfact>
</mgrwt>
</event>
<event>
 5    1  0.3239419E-002  0.1250039E+03  0.7818608E-02  0.1235063E+00
          4   -1    0    0  501    0  0.00000000000E+00  0.00000000000E+00  0.22306154839E+03  0.22306516373E+03  0.12700000000E+01 0. -1.
         -4   -1    0    0    0  501 -0.00000000000E+00 -0.00000000000E+00 -0.17486300186E+02  0.17532358489E+02  0.12700000000E+01 0. -1.
         25    2    1    2    0    0  0.00000000000E+00  0.00000000000E+00  0.20557524820E+03  0.24059752221E+03  0.12500394003E+03 0.  0.
    9000005    1    3    3    0    0 -0.36331998755E+02 -0.32873798672E+02  0.17745075337E+03  0.18409364640E+03  0.10000000000E+01 0.  0.
    9000005    1    3    3    0    0  0.36331998755E+02  0.32873798672E+02  0.28124494825E+02  0.56503875812E+02  0.10000000000E+01 0.  0.
<mgrwt>
<rscale>  0 0.12500394E+03</rscale>
<asrwt>0</asrwt>
<pdfrwt beam="1">  1        4 0.34320980E-01 0.12500394E+03</pdfrwt>
<pdfrwt beam="2">  1       -4 0.26940212E-02 0.12500394E+03</pdfrwt>
<totfact> 0.83701106E+03</totfact>
</mgrwt>
</event>
<event>
 5    1  0.3239419E-002  0.1250045E+03  0.7818608E-02  0.1235062E+00
         -4   -1    0    0    0  501 -0.00000000000E+00  0.00000000000E+00  0.49567339970E+03  0.49567502668E+03  0.12700000000E+01 0. -1.
          4   -1    0    0  501    0  0.00000000000E+00 -0.00000000000E+00 -0.78284425034E+01  0.79307888655E+01  0.12700000000E+01 0. -1.
         25    2    1    2    0    0  0.00000000000E+00  0.00000000000E+00  0.48784495720E+03  0.50360581555E+03  0.12500446066E+03 0.  0.
    9000005    1    3    3    0    0  0.34390575900E+02 -0.45519560772E+02  0.34669678422E+03  0.35136078653E+03  0.10000000000E+01 0.  0.
    9000005    1    3    3    0    0 -0.34390575900E+02  0.45519560772E+02  0.14114817298E+03  0.15224502901E+03  0.10000000000E+01 0.  0.
<mgrwt>
<rscale>  0 0.12500446E+03</rscale>
<asrwt>0</asrwt>
<pdfrwt beam="2">  1        4 0.12123736E-02 0.12500446E+03</pdfrwt>
<pdfrwt beam="1">  1       -4 0.76265452E-01 0.12500446E+03</pdfrwt>
<totfact> 0.55580224E+03</totfact>
</mgrwt>
</event>
<event>
 5    1  0.3239419E-002  0.1250027E+03  0.7818608E-02  0.1235065E+00
          4   -1    0    0  501    0  0.00000000000E+00  0.00000000000E+00  0.43424398255E+02  0.43442965643E+02  0.12700000000E+01 0.  1.
         -4   -1    0    0    0  501 -0.00000000000E+00 -0.00000000000E+00 -0.89916843610E+02  0.89925812005E+02  0.12700000000E+01 0.  1.
         25    2    1    2    0    0  0.00000000000E+00  0.00000000000E+00 -0.46492445355E+02  0.13336877765E+03  0.12500273347E+03 0.  0.
    9000005    1    3    3    0    0  0.40251843383E+02 -0.27580414079E+02 -0.64904638347E+02  0.81206540472E+02  0.10000000000E+01 0.  0.
    9000005    1    3    3    0    0 -0.40251843383E+02  0.27580414079E+02  0.18412192992E+02  0.52162237176E+02  0.10000000000E+01 0.  0.
<mgrwt>
<rscale>  0 0.12500273E+03</rscale>
<asrwt>0</asrwt>
<pdfrwt beam="1">  1        4 0.66827948E-02 0.12500273E+03</pdfrwt>
<pdfrwt beam="2">  1       -4 0.13835479E-01 0.12500273E+03</pdfrwt>
<totfact> 0.10271935E+04</totfact>
</mgrwt>
</event>
<event>
 5    1  0.3239419E-002  0.1249960E+03  0.7818608E-02  0.1235076E+00
          4   -1    0    0  501    0  0.00000000000E+00  0.00000000000E+00  0.66851768319E+02  0.66863830487E+02  0.12700000000E+01 0. -1.
         -4   -1    0    0    0  501 -0.00000000000E+00 -0.00000000000E+00 -0.58403511672E+02  0.58417318285E+02  0.12700000000E+01 0. -1.
         25    2    1    2    0    0  0.00000000000E+00  0.00000000000E+00  0.84482566474E+01  0.12528114877E+03  0.12499597272E+03 0.  0.
    9000005    1    3    3    0    0 -0.47101059534E+02  0.30493953445E+02 -0.23345122724E+02  0.60781459023E+02  0.10000000000E+01 0.  0.
    9000005    1    3    3    0    0  0.47101059534E+02 -0.30493953445E+02  0.31793379372E+02  0.64499689749E+02  0.10000000000E+01 0.  0.
<mgrwt>
<rscale>  0 0.12499597E+03</rscale>
<asrwt>0</asrwt>
<pdfrwt beam="1">  1        4 0.10286877E-01 0.12499597E+03</pdfrwt>
<pdfrwt beam="2">  1       -4 0.89871456E-02 0.12499597E+03</pdfrwt>
<totfact> 0.10447710E+04</totfact>
</mgrwt>
</event>
<event>
 5    1  0.3239419E-002  0.1249950E+03  0.7818608E-02  0.1235077E+00
          4   -1    0    0  501    0  0.00000000000E+00  0.00000000000E+00  0.71341557617E+03  0.71341670657E+03  0.12700000000E+01 0. -1.
         -4   -1    0    0    0  501 -0.00000000000E+00 -0.00000000000E+00 -0.54001797798E+01  0.55475076975E+01  0.12700000000E+01 0. -1.
         25    2    1    2    0    0  0.00000000000E+00  0.00000000000E+00  0.70801539639E+03  0.71896421427E+03  0.12499495942E+03 0.  0.
    9000005    1    3    3    0    0 -0.95173177973E+01  0.30134130430E+02  0.66409518020E+03  0.66484739115E+03  0.10000000000E+01 0.  0.
    9000005    1    3    3    0    0  0.95173177973E+01 -0.30134130430E+02  0.43920216193E+02  0.54116823126E+02  0.10000000000E+01 0.  0.
<mgrwt>
<rscale>  0 0.12499496E+03</rscale>
<asrwt>0</asrwt>
<pdfrwt beam="1">  1        4 0.10976755E+00 0.12499496E+03</pdfrwt>
<pdfrwt beam="2">  1       -4 0.84221761E-03 0.12499496E+03</pdfrwt>
<totfact> 0.42108993E+03</totfact>
</mgrwt>
</event>
<event>
 5    1  0.3239419E-002  0.1250023E+03  0.7818608E-02  0.1235066E+00
          4   -1    0    0  501    0  0.00000000000E+00  0.00000000000E+00  0.45748808208E+03  0.45748984485E+03  0.12700000000E+01 0. -1.
         -4   -1    0    0    0  501 -0.00000000000E+00 -0.00000000000E+00 -0.84897694621E+01  0.85842347079E+01  0.12700000000E+01 0. -1.
         25    2    1    2    0    0  0.00000000000E+00  0.00000000000E+00  0.44899831262E+03  0.46607407956E+03  0.12500225161E+03 0.  0.
    9000005    1    3    3    0    0  0.46988638028E+02 -0.28423969715E+02  0.33570280011E+03  0.34016646537E+03  0.10000000000E+01 0.  0.
    9000005    1    3    3    0    0 -0.46988638028E+02  0.28423969715E+02  0.11329551250E+03  0.12590761419E+03  0.10000000000E+01 0.  0.
<mgrwt>
<rscale>  0 0.12500225E+03</rscale>
<asrwt>0</asrwt>
<pdfrwt beam="1">  1        4 0.70390173E-01 0.12500225E+03</pdfrwt>
<pdfrwt beam="2">  1       -4 0.13135207E-02 0.12500225E+03</pdfrwt>
<totfact> 0.58593258E+03</totfact>
</mgrwt>
</event>
<event>
 5    1  0.3239419E-002  0.1249985E+03  0.7818608E-02  0.1235072E+00
         -4   -1    0    0    0  501 -0.00000000000E+00  0.00000000000E+00  0.12796258696E+04  0.12796264998E+04  0.12700000000E+01 0.  1.
          4   -1    0    0  501    0  0.00000000000E+00 -0.00000000000E+00 -0.29198251993E+01  0.31840664557E+01  0.12700000000E+01 0.  1.
         25    2    1    2    0    0  0.00000000000E+00  0.00000000000E+00  0.12767060444E+04  0.12828105662E+04  0.12499850058E+03 0.  0.
    9000005    1    3    3    0    0 -0.21654082370E+02  0.50727999927E+02  0.33688256426E+03  0.34136943530E+03  0.10000000000E+01 0.  0.
    9000005    1    3    3    0    0  0.21654082370E+02 -0.50727999927E+02  0.93982348010E+03  0.94144113093E+03  0.10000000000E+01 0.  0.
<mgrwt>
<rscale>  0 0.12499850E+03</rscale>
<asrwt>0</asrwt>
<pdfrwt beam="2">  1        4 0.46957840E-03 0.12499850E+03</pdfrwt>
<pdfrwt beam="1">  1       -4 0.19688598E+00 0.12499850E+03</pdfrwt>
<totfact> 0.22638615E+03</totfact>
</mgrwt>
</event>
<event>
 5    1  0.3239419E-002  0.1250010E+03  0.7818608E-02  0.1235068E+00
         -4   -1    0    0    0  501 -0.00000000000E+00  0.00000000000E+00  0.34285005941E+02  0.34308519822E+02  0.12700000000E+01 0. -1.
          4   -1    0    0  501    0  0.00000000000E+00 -0.00000000000E+00 -0.11387029435E+03  0.11387737631E+03  0.12700000000E+01 0. -1.
         25    2    1    2    0    0  0.00000000000E+00  0.00000000000E+00 -0.79585288410E+02  0.14818589613E+03  0.12500096672E+03 0.  0.
    9000005    1    3    3    0    0  0.68327358801E+01 -0.47840118797E+02  0.71790277152E+01  0.48866160941E+02  0.10000000000E+01 0.  0.
    9000005    1    3    3    0    0 -0.68327358801E+01  0.47840118797E+02 -0.86764316125E+02  0.99319735193E+02  0.10000000000E+01 0.  0.
<mgrwt>
<rscale>  0 0.12500097E+03</rscale>
<asrwt>0</asrwt>
<pdfrwt beam="2">  1        4 0.17520860E-01 0.12500097E+03</pdfrwt>
<pdfrwt beam="1">  1       -4 0.52769699E-02 0.12500097E+03</pdfrwt>
<totfact> 0.99664380E+03</totfact>
</mgrwt>
</event>
<event>
 5    1  0.3239419E-002  0.1249973E+03  0.7818608E-02  0.1235073E+00
          4   -1    0    0  501    0  0.00000000000E+00  0.00000000000E+00  0.46214201598E+02  0.46231648569E+02  0.12700000000E+01 0.  1.
         -4   -1    0    0    0  501 -0.00000000000E+00 -0.00000000000E+00 -0.84483121904E+02  0.84492667059E+02  0.12700000000E+01 0.  1.
         25    2    1    2    0    0  0.00000000000E+00  0.00000000000E+00 -0.38268920306E+02  0.13072431563E+03  0.12499734571E+03 0.  0.
    9000005    1    3    3    0    0  0.19569574340E+02 -0.57705842451E+02 -0.46374779272E+01  0.61118235367E+02  0.10000000000E+01 0.  0.
    9000005    1    3    3    0    0 -0.19569574340E+02  0.57705842451E+02 -0.33631442379E+02  0.69606080261E+02  0.10000000000E+01 0.  0.
<mgrwt>
<rscale>  0 0.12499735E+03</rscale>
<asrwt>0</asrwt>
<pdfrwt beam="1">  1        4 0.71119535E-02 0.12499735E+03</pdfrwt>
<pdfrwt beam="2">  1       -4 0.12999480E-01 0.12499735E+03</pdfrwt>
<totfact> 0.10329622E+04</totfact>
</mgrwt>
</event>
<event>
 5    1  0.3239419E-002  0.1250036E+03  0.7818608E-02  0.1235064E+00
          4   -1    0    0  501    0  0.00000000000E+00  0.00000000000E+00  0.98146761461E+02  0.98154977893E+02  0.12700000000E+01 0. -1.
         -4   -1    0    0    0  501 -0.00000000000E+00 -0.00000000000E+00 -0.39782395261E+02  0.39802661628E+02  0.12700000000E+01 0. -1.
         25    2    1    2    0    0  0.00000000000E+00  0.00000000000E+00  0.58364366200E+02  0.13795763952E+03  0.12500364419E+03 0.  0.
    9000005    1    3    3    0    0  0.24682967368E+02 -0.28666353892E+02 -0.25716773854E+02  0.45753264157E+02  0.10000000000E+01 0.  0.
    9000005    1    3    3    0    0 -0.24682967368E+02  0.28666353892E+02  0.84081140054E+02  0.92204375364E+02  0.10000000000E+01 0.  0.
<mgrwt>
<rscale>  0 0.12500364E+03</rscale>
<asrwt>0</asrwt>
<pdfrwt beam="1">  1        4 0.15101693E-01 0.12500364E+03</pdfrwt>
<pdfrwt beam="2">  1       -4 0.61225595E-02 0.12500364E+03</pdfrwt>
<totfact> 0.10175256E+04</totfact>
</mgrwt>
</event>
<event>
 5    1  0.3239419E-002  0.1250012E+03  0.7818608E-02  0.1235067E+00
          4   -1    0    0  501    0  0.00000000000E+00  0.00000000000E+00  0.14985117539E+02  0.15038837976E+02  0.12700000000E+01 0.  1.
         -4   -1    0    0    0  501 -0.00000000000E+00 -0.00000000000E+00 -0.26015842180E+03  0.26016152162E+03  0.12700000000E+01 0.  1.
         25    2    1    2    0    0  0.00000000000E+00  0.00000000000E+00 -0.24517330426E+03  0.27520035960E+03  0.12500115520E+03 0.  0.
    9000005    1    3    3    0    0 -0.40009088228E+02  0.13780932432E+02 -0.21345425572E+02  0.47405362908E+02  0.10000000000E+01 0.  0.
    9000005    1    3    3    0    0  0.40009088228E+02 -0.13780932432E+02 -0.22382787869E+03  0.22779499669E+03  0.10000000000E+01 0.  0.
<mgrwt>
<rscale>  0 0.12500116E+03</rscale>
<asrwt>0</asrwt>
<pdfrwt beam="1">  1        4 0.23097737E-02 0.12500116E+03</pdfrwt>
<pdfrwt beam="2">  1       -4 0.40028740E-01 0.12500116E+03</pdfrwt>
<totfact> 0.78816814E+03</totfact>
</mgrwt>
</event>
<event>
 5    1  0.3239419E-002  0.1249994E+03  0.7818608E-02  0.1235070E+00
         -4   -1    0    0    0  501 -0.00000000000E+00  0.00000000000E+00  0.12962091616E+03  0.12962713761E+03  0.12700000000E+01 0. -1.
          4   -1    0    0  501    0  0.00000000000E+00 -0.00000000000E+00 -0.30115332064E+02  0.30142098887E+02  0.12700000000E+01 0. -1.
         25    2    1    2    0    0  0.00000000000E+00  0.00000000000E+00  0.99505584096E+02  0.15976923650E+03  0.12499939066E+03 0.  0.
    9000005    1    3    3    0    0  0.21248388771E+01  0.41989548350E+02 -0.93415531669E+01  0.43080177883E+02  0.10000000000E+01 0.  0.
    9000005    1    3    3    0    0 -0.21248388771E+01 -0.41989548350E+02  0.10884713726E+03  0.11668905862E+03  0.10000000000E+01 0.  0.
<mgrwt>
<rscale>  0 0.12499939E+03</rscale>
<asrwt>0</asrwt>
<pdfrwt beam="2">  1        4 0.46356657E-02 0.12499939E+03</pdfrwt>
<pdfrwt beam="1">  1       -4 0.19944216E-01 0.12499939E+03</pdfrwt>
<totfact> 0.97388627E+03</totfact>
</mgrwt>
</event>
<event>
 5    1  0.3239419E-002  0.1250062E+03  0.7818608E-02  0.1235060E+00
          4   -1    0    0  501    0  0.00000000000E+00  0.00000000000E+00  0.16912181461E+03  0.16912658300E+03  0.12700000000E+01 0.  1.
         -4   -1    0    0    0  501 -0.00000000000E+00 -0.00000000000E+00 -0.23076978664E+02  0.23111898326E+02  0.12700000000E+01 0.  1.
         25    2    1    2    0    0  0.00000000000E+00  0.00000000000E+00  0.14604483595E+03  0.19223848133E+03  0.12500615823E+03 0.  0.
    9000005    1    3    3    0    0 -0.56256043647E+02 -0.14573140664E+02  0.10837637241E+03  0.12297787188E+03  0.10000000000E+01 0.  0.
    9000005    1    3    3    0    0  0.56256043647E+02  0.14573140664E+02  0.37668463542E+02  0.69260609449E+02  0.10000000000E+01 0.  0.
<mgrwt>
<rscale>  0 0.12500616E+03</rscale>
<asrwt>0</asrwt>
<pdfrwt beam="1">  1        4 0.26021795E-01 0.12500616E+03</pdfrwt>
<pdfrwt beam="2">  1       -4 0.35533572E-02 0.12500616E+03</pdfrwt>
<totfact> 0.91446665E+03</totfact>
</mgrwt>
</event>
<event>
 5    1  0.3239419E-002  0.1250123E+03  0.7818608E-02  0.1235050E+00
         -4   -1    0    0    0  501 -0.00000000000E+00  0.00000000000E+00  0.26692419778E+03  0.26692721903E+03  0.12700000000E+01 0. -1.
          4   -1    0    0  501    0  0.00000000000E+00 -0.00000000000E+00 -0.14606531150E+02  0.14661638798E+02  0.12700000000E+01 0. -1.
         25    2    1    2    0    0  0.00000000000E+00  0.00000000000E+00  0.25231766663E+03  0.28158885783E+03  0.12501231924E+03 0.  0.
    9000005    1    3    3    0    0 -0.61210451065E+02 -0.12581719261E+02  0.12841246063E+03  0.14281379143E+03  0.10000000000E+01 0.  0.
    9000005    1    3    3    0    0  0.61210451065E+02  0.12581719261E+02  0.12390520600E+03  0.13877506640E+03  0.10000000000E+01 0.  0.
<mgrwt>
<rscale>  0 0.12501232E+03</rscale>
<asrwt>0</asrwt>
<pdfrwt beam="2">  1        4 0.22516299E-02 0.12501232E+03</pdfrwt>
<pdfrwt beam="1">  1       -4 0.41069735E-01 0.12501232E+03</pdfrwt>
<totfact> 0.77946557E+03</totfact>
</mgrwt>
</event>
<event>
 5    1  0.3239419E-002  0.1249961E+03  0.7818608E-02  0.1235075E+00
         -4   -1    0    0    0  501 -0.00000000000E+00  0.00000000000E+00  0.50364219728E+02  0.50380229543E+02  0.12700000000E+01 0.  1.
          4   -1    0    0  501    0  0.00000000000E+00 -0.00000000000E+00 -0.77521617434E+02  0.77532019640E+02  0.12700000000E+01 0.  1.
         25    2    1    2    0    0  0.00000000000E+00  0.00000000000E+00 -0.27157397705E+02  0.12791224918E+03  0.12499607690E+03 0.  0.
    9000005    1    3    3    0    0  0.45371234691E+01 -0.61573572463E+02 -0.37039877377E+01  0.61859597804E+02  0.10000000000E+01 0.  0.
    9000005    1    3    3    0    0 -0.45371234691E+01  0.61573572463E+02 -0.23453409968E+02  0.66052651380E+02  0.10000000000E+01 0.  0.
<mgrwt>
<rscale>  0 0.12499608E+03</rscale>
<asrwt>0</asrwt>
<pdfrwt beam="2">  1        4 0.11928434E-01 0.12499608E+03</pdfrwt>
<pdfrwt beam="1">  1       -4 0.77503732E-02 0.12499608E+03</pdfrwt>
<totfact> 0.10390303E+04</totfact>
</mgrwt>
</event>
<event>
 5    1  0.3239419E-002  0.1250067E+03  0.7818608E-02  0.1235059E+00
         -4   -1    0    0    0  501 -0.00000000000E+00  0.00000000000E+00  0.16764677133E+02  0.16812712434E+02  0.12700000000E+01 0.  1.
          4   -1    0    0  501    0  0.00000000000E+00 -0.00000000000E+00 -0.23264671952E+03  0.23265018591E+03  0.12700000000E+01 0.  1.
         25    2    1    2    0    0  0.00000000000E+00  0.00000000000E+00 -0.21588204239E+03  0.24946289835E+03  0.12500672552E+03 0.  0.
    9000005    1    3    3    0    0  0.27742347806E+02 -0.48881297859E+02 -0.16247051578E+03  0.17192058527E+03  0.10000000000E+01 0.  0.
    9000005    1    3    3    0    0 -0.27742347806E+02  0.48881297859E+02 -0.53411526609E+02  0.77542313074E+02  0.10000000000E+01 0.  0.
<mgrwt>
<rscale>  0 0.12500673E+03</rscale>
<asrwt>0</asrwt>
<pdfrwt beam="2">  1        4 0.35795762E-01 0.12500673E+03</pdfrwt>
<pdfrwt beam="1">  1       -4 0.25831429E-02 0.12500673E+03</pdfrwt>
<totfact> 0.82395573E+03</totfact>
</mgrwt>
</event>
<event>
 5    1  0.3239419E-002  0.1250026E+03  0.7818608E-02  0.1235065E+00
         -4   -1    0    0    0  501 -0.00000000000E+00  0.00000000000E+00  0.57364350332E+02  0.57378406992E+02  0.12700000000E+01 0.  1.
          4   -1    0    0  501    0  0.00000000000E+00 -0.00000000000E+00 -0.68069937779E+02  0.68081784122E+02  0.12700000000E+01 0.  1.
         25    2    1    2    0    0  0.00000000000E+00  0.00000000000E+00 -0.10705587448E+02  0.12546019111E+03  0.12500259978E+03 0.  0.
    9000005    1    3    3    0    0 -0.53204175306E+02 -0.18999981530E+01 -0.38200541988E+02  0.65533012071E+02  0.10000000000E+01 0.  0.
    9000005    1    3    3    0    0  0.53204175306E+02  0.18999981530E+01  0.27494954540E+02  0.59927179043E+02  0.10000000000E+01 0.  0.
<mgrwt>
<rscale>  0 0.12500260E+03</rscale>
<asrwt>0</asrwt>
<pdfrwt beam="2">  1        4 0.10474291E-01 0.12500260E+03</pdfrwt>
<pdfrwt beam="1">  1       -4 0.88272772E-02 0.12500260E+03</pdfrwt>
<totfact> 0.10442222E+04</totfact>
</mgrwt>
</event>
<event>
 5    1  0.3239419E-002  0.1250058E+03  0.7818608E-02  0.1235060E+00
         -4   -1    0    0    0  501 -0.00000000000E+00  0.00000000000E+00  0.70008241708E+03  0.70008356902E+03  0.12700000000E+01 0. -1.
          4   -1    0    0  501    0  0.00000000000E+00 -0.00000000000E+00 -0.55067895161E+01  0.56513388480E+01  0.12700000000E+01 0. -1.
         25    2    1    2    0    0  0.00000000000E+00  0.00000000000E+00  0.69457562757E+03  0.70573490787E+03  0.12500583095E+03 0.  0.
    9000005    1    3    3    0    0  0.64902130346E+01 -0.24890536497E+02  0.66883786974E+03  0.66933306931E+03  0.10000000000E+01 0.  0.
    9000005    1    3    3    0    0 -0.64902130346E+01  0.24890536497E+02  0.25737757825E+02  0.36401838555E+02  0.10000000000E+01 0.  0.
<mgrwt>
<rscale>  0 0.12500583E+03</rscale>
<asrwt>0</asrwt>
<pdfrwt beam="2">  1        4 0.85840705E-03 0.12500583E+03</pdfrwt>
<pdfrwt beam="1">  1       -4 0.10771609E+00 0.12500583E+03</pdfrwt>
<totfact> 0.42780260E+03</totfact>
</mgrwt>
</event>
<event>
 5    1  0.3239419E-002  0.1250028E+03  0.7818608E-02  0.1235065E+00
          4   -1    0    0  501    0  0.00000000000E+00  0.00000000000E+00  0.32170707840E+01  0.34586766876E+01  0.12700000000E+01 0.  1.
         -4   -1    0    0    0  501 -0.00000000000E+00 -0.00000000000E+00 -0.11700907173E+04  0.11700914065E+04  0.12700000000E+01 0.  1.
         25    2    1    2    0    0  0.00000000000E+00  0.00000000000E+00 -0.11668736465E+04  0.11735500832E+04  0.12500276342E+03 0.  0.
    9000005    1    3    3    0    0 -0.43956191278E+02  0.23552664562E+02 -0.93703012203E+03  0.93835671488E+03  0.10000000000E+01 0.  0.
    9000005    1    3    3    0    0  0.43956191278E+02 -0.23552664562E+02 -0.22984352451E+03  0.23519336835E+03  0.10000000000E+01 0.  0.
<mgrwt>
<rscale>  0 0.12500276E+03</rscale>
<asrwt>0</asrwt>
<pdfrwt beam="1">  1        4 0.51357299E-03 0.12500276E+03</pdfrwt>
<pdfrwt beam="2">  1       -4 0.18003227E+00 0.12500276E+03</pdfrwt>
<totfact> 0.25414286E+03</totfact>
</mgrwt>
</event>
<event>
 5    1  0.3239419E-002  0.1250019E+03  0.7818608E-02  0.1235066E+00
         -4   -1    0    0    0  501 -0.00000000000E+00  0.00000000000E+00  0.22062461100E+03  0.22062826627E+03  0.12700000000E+01 0. -1.
          4   -1    0    0  501    0  0.00000000000E+00 -0.00000000000E+00 -0.17679372985E+02  0.17724929595E+02  0.12700000000E+01 0. -1.
         25    2    1    2    0    0  0.00000000000E+00  0.00000000000E+00  0.20294523802E+03  0.23835319587E+03  0.12500190538E+03 0.  0.
    9000005    1    3    3    0    0  0.42709114875E+02 -0.29937093932E+02  0.35831415990E+02  0.63286558275E+02  0.10000000000E+01 0.  0.
    9000005    1    3    3    0    0 -0.42709114875E+02  0.29937093932E+02  0.16711382203E+03  0.17506663759E+03  0.10000000000E+01 0.  0.
<mgrwt>
<rscale>  0 0.12500191E+03</rscale>
<asrwt>0</asrwt>
<pdfrwt beam="2">  1        4 0.27236891E-02 0.12500191E+03</pdfrwt>
<pdfrwt beam="1">  1       -4 0.33946033E-01 0.12500191E+03</pdfrwt>
<totfact> 0.84039671E+03</totfact>
</mgrwt>
</event>
<event>
 5    1  0.3239419E-002  0.1250002E+03  0.7818608E-02  0.1235069E+00
         -4   -1    0    0    0  501 -0.00000000000E+00  0.00000000000E+00  0.18040099404E+01  0.22062075752E+01  0.12700000000E+01 0.  1.
          4   -1    0    0  501    0  0.00000000000E+00 -0.00000000000E+00 -0.19477525256E+04  0.19477529396E+04  0.12700000000E+01 0.  1.
         25    2    1    2    0    0  0.00000000000E+00  0.00000000000E+00 -0.19459485156E+04  0.19499591472E+04  0.12500020086E+03 0.  0.
    9000005    1    3    3    0    0 -0.48789307097E+02 -0.94155514075E+01 -0.15641604716E+04  0.15649498490E+04  0.10000000000E+01 0.  0.
    9000005    1    3    3    0    0  0.48789307097E+02  0.94155514075E+01 -0.38178804407E+03  0.38500929818E+03  0.10000000000E+01 0.  0.
<mgrwt>
<rscale>  0 0.12500020E+03</rscale>
<asrwt>0</asrwt>
<pdfrwt beam="2">  1        4 0.29968369E+00 0.12500020E+03</pdfrwt>
<pdfrwt beam="1">  1       -4 0.30851168E-03 0.12500020E+03</pdfrwt>
<totfact> 0.10528681E+03</totfact>
</mgrwt>
</event>
<event>
 5    1  0.3239419E-002  0.1249965E+03  0.7818608E-02  0.1235075E+00
         -4   -1    0    0    0  501 -0.00000000000E+00  0.00000000000E+00  0.17200718150E+02  0.17247539096E+02  0.12700000000E+01 0. -1.
          4   -1    0    0  501    0  0.00000000000E+00 -0.00000000000E+00 -0.22672816667E+03  0.22673172354E+03  0.12700000000E+01 0. -1.
         25    2    1    2    0    0  0.00000000000E+00  0.00000000000E+00 -0.20952744852E+03  0.24397926264E+03  0.12499651561E+03 0.  0.
    9000005    1    3    3    0    0  0.44584089448E+02  0.94196504864E+01 -0.18822975853E+03  0.19366959711E+03  0.10000000000E+01 0.  0.
    9000005    1    3    3    0    0 -0.44584089448E+02 -0.94196504864E+01 -0.21297689989E+02  0.50309665533E+02  0.10000000000E+01 0.  0.
<mgrwt>
<rscale>  0 0.12499652E+03</rscale>
<asrwt>0</asrwt>
<pdfrwt beam="2">  1        4 0.34885129E-01 0.12499652E+03</pdfrwt>
<pdfrwt beam="1">  1       -4 0.26501397E-02 0.12499652E+03</pdfrwt>
<totfact> 0.83214736E+03</totfact>
</mgrwt>
</event>
<event>
 5    1  0.3239419E-002  0.1249985E+03  0.7818608E-02  0.1235072E+00
          4   -1    0    0  501    0  0.00000000000E+00  0.00000000000E+00  0.17435697574E+02  0.17481889197E+02  0.12700000000E+01 0.  1.
         -4   -1    0    0    0  501 -0.00000000000E+00 -0.00000000000E+00 -0.22368759271E+03  0.22369119793E+03  0.12700000000E+01 0.  1.
         25    2    1    2    0    0  0.00000000000E+00  0.00000000000E+00 -0.20625189513E+03  0.24117308713E+03  0.12499845482E+03 0.  0.
    9000005    1    3    3    0    0 -0.54050753650E+02  0.31306293294E+02 -0.99472553950E+02  0.11746215118E+03  0.10000000000E+01 0.  0.
    9000005    1    3    3    0    0  0.54050753650E+02 -0.31306293294E+02 -0.10677934118E+03  0.12371093595E+03  0.10000000000E+01 0.  0.
<mgrwt>
<rscale>  0 0.12499845E+03</rscale>
<asrwt>0</asrwt>
<pdfrwt beam="1">  1        4 0.26862457E-02 0.12499845E+03</pdfrwt>
<pdfrwt beam="2">  1       -4 0.34417304E-01 0.12499845E+03</pdfrwt>
<totfact> 0.83625848E+03</totfact>
</mgrwt>
</event>
<event>
 5    1  0.3239419E-002  0.1250000E+03  0.7818608E-02  0.1235069E+00
          4   -1    0    0  501    0  0.00000000000E+00  0.00000000000E+00  0.20855209586E+03  0.20855596272E+03  0.12700000000E+01 0. -1.
         -4   -1    0    0    0  501 -0.00000000000E+00 -0.00000000000E+00 -0.18704745462E+02  0.18747810614E+02  0.12700000000E+01 0. -1.
         25    2    1    2    0    0  0.00000000000E+00  0.00000000000E+00  0.18984735040E+03  0.22730377334E+03  0.12499995568E+03 0.  0.
    9000005    1    3    3    0    0  0.23656796286E+02 -0.45255867063E+02  0.16042530340E+03  0.16835977989E+03  0.10000000000E+01 0.  0.
    9000005    1    3    3    0    0 -0.23656796286E+02  0.45255867063E+02  0.29422047004E+02  0.58943993451E+02  0.10000000000E+01 0.  0.
<mgrwt>
<rscale>  0 0.12499996E+03</rscale>
<asrwt>0</asrwt>
<pdfrwt beam="1">  1        4 0.32088549E-01 0.12499996E+03</pdfrwt>
<pdfrwt beam="2">  1       -4 0.28812632E-02 0.12499996E+03</pdfrwt>
<totfact> 0.85725415E+03</totfact>
</mgrwt>
</event>
<event>
 5    1  0.3239419E-002  0.1250001E+03  0.7818608E-02  0.1235069E+00
          4   -1    0    0  501    0  0.00000000000E+00  0.00000000000E+00  0.43505986183E+01  0.45321747912E+01  0.12700000000E+01 0. -1.
         -4   -1    0    0    0  501 -0.00000000000E+00 -0.00000000000E+00 -0.87933121593E+03  0.87933213305E+03  0.12700000000E+01 0. -1.
         25    2    1    2    0    0  0.00000000000E+00  0.00000000000E+00 -0.87498061732E+03  0.88386430784E+03  0.12500013600E+03 0.  0.
    9000005    1    3    3    0    0 -0.59431429401E+02  0.14404433039E+02 -0.34647699602E+03  0.35183361303E+03  0.10000000000E+01 0.  0.
    9000005    1    3    3    0    0  0.59431429401E+02 -0.14404433039E+02 -0.52850362130E+03  0.53203069481E+03  0.10000000000E+01 0.  0.
<mgrwt>
<rscale>  0 0.12500014E+03</rscale>
<asrwt>0</asrwt>
<pdfrwt beam="1">  1        4 0.68336151E-03 0.12500014E+03</pdfrwt>
<pdfrwt beam="2">  1       -4 0.13529562E+00 0.12500014E+03</pdfrwt>
<totfact> 0.34780110E+03</totfact>
</mgrwt>
</event>
<event>
 5    1  0.3239419E-002  0.1249959E+03  0.7818608E-02  0.1235076E+00
         -4   -1    0    0    0  501 -0.00000000000E+00  0.00000000000E+00  0.40713835110E+02  0.40733638058E+02  0.12700000000E+01 0. -1.
          4   -1    0    0  501    0  0.00000000000E+00 -0.00000000000E+00 -0.95890440604E+02  0.95898850354E+02  0.12700000000E+01 0. -1.
         25    2    1    2    0    0  0.00000000000E+00  0.00000000000E+00 -0.55176605493E+02  0.13663248841E+03  0.12499591632E+03 0.  0.
    9000005    1    3    3    0    0 -0.14152719013E+02  0.45104240482E+02 -0.72262397304E+02  0.86357084418E+02  0.10000000000E+01 0.  0.
    9000005    1    3    3    0    0  0.14152719013E+02 -0.45104240482E+02  0.17085791811E+02  0.50275403994E+02  0.10000000000E+01 0.  0.
<mgrwt>
<rscale>  0 0.12499592E+03</rscale>
<asrwt>0</asrwt>
<pdfrwt beam="2">  1        4 0.14754546E-01 0.12499592E+03</pdfrwt>
<pdfrwt beam="1">  1       -4 0.62658372E-02 0.12499592E+03</pdfrwt>
<totfact> 0.10204715E+04</totfact>
</mgrwt>
</event>
<event>
 5    1  0.3239419E-002  0.1250014E+03  0.7818608E-02  0.1235067E+00
          4   -1    0    0  501    0  0.00000000000E+00  0.00000000000E+00  0.10157589328E+02  0.10236675288E+02  0.12700000000E+01 0. -1.
         -4   -1    0    0    0  501 -0.00000000000E+00 -0.00000000000E+00 -0.38300193369E+03  0.38300403928E+03  0.12700000000E+01 0. -1.
         25    2    1    2    0    0  0.00000000000E+00  0.00000000000E+00 -0.37284434436E+03  0.39324071457E+03  0.12500141790E+03 0.  0.
    9000005    1    3    3    0    0  0.30528383381E+02 -0.30051078810E+01 -0.35770211169E+03  0.35901645307E+03  0.10000000000E+01 0.  0.
    9000005    1    3    3    0    0 -0.30528383381E+02  0.30051078810E+01 -0.15142232666E+02  0.34224261502E+02  0.10000000000E+01 0.  0.
<mgrwt>
<rscale>  0 0.12500142E+03</rscale>
<asrwt>0</asrwt>
<pdfrwt beam="1">  1        4 0.15689518E-02 0.12500142E+03</pdfrwt>
<pdfrwt beam="2">  1       -4 0.58929609E-01 0.12500142E+03</pdfrwt>
<totfact> 0.65213504E+03</totfact>
</mgrwt>
</event>
<event>
 5    1  0.3239419E-002  0.1249807E+03  0.7818608E-02  0.1235099E+00
         -4   -1    0    0    0  501 -0.00000000000E+00  0.00000000000E+00  0.16108398191E+03  0.16108898823E+03  0.12700000000E+01 0.  1.
          4   -1    0    0  501    0  0.00000000000E+00 -0.00000000000E+00 -0.24220257944E+02  0.24253531595E+02  0.12700000000E+01 0.  1.
         25    2    1    2    0    0  0.00000000000E+00  0.00000000000E+00  0.13686372397E+03  0.18534251983E+03  0.12498068137E+03 0.  0.
    9000005    1    3    3    0    0 -0.38499184852E+02 -0.47157418171E+02  0.47562875917E+02  0.77260834116E+02  0.10000000000E+01 0.  0.
    9000005    1    3    3    0    0  0.38499184852E+02  0.47157418171E+02  0.89300848052E+02  0.10808168571E+03  0.10000000000E+01 0.  0.
<mgrwt>
<rscale>  0 0.12498068E+03</rscale>
<asrwt>0</asrwt>
<pdfrwt beam="2">  1        4 0.37291382E-02 0.12498068E+03</pdfrwt>
<pdfrwt beam="1">  1       -4 0.24785095E-01 0.12498068E+03</pdfrwt>
<totfact> 0.92704205E+03</totfact>
</mgrwt>
</event>
<event>
 5    1  0.3239419E-002  0.1249978E+03  0.7818608E-02  0.1235073E+00
          4   -1    0    0  501    0  0.00000000000E+00  0.00000000000E+00  0.50519340593E+01  0.52091206301E+01  0.12700000000E+01 0.  1.
         -4   -1    0    0    0  501 -0.00000000000E+00 -0.00000000000E+00 -0.76118922073E+03  0.76119028019E+03  0.12700000000E+01 0.  1.
         25    2    1    2    0    0  0.00000000000E+00  0.00000000000E+00 -0.75613728667E+03  0.76639940082E+03  0.12499778111E+03 0.  0.
    9000005    1    3    3    0    0  0.31608752749E+02 -0.17009799498E+02 -0.69170535959E+03  0.69263681032E+03  0.10000000000E+01 0.  0.
    9000005    1    3    3    0    0 -0.31608752749E+02  0.17009799498E+02 -0.64431927075E+02  0.73762590491E+02  0.10000000000E+01 0.  0.
<mgrwt>
<rscale>  0 0.12499778E+03</rscale>
<asrwt>0</asrwt>
<pdfrwt beam="1">  1        4 0.78939400E-03 0.12499778E+03</pdfrwt>
<pdfrwt beam="2">  1       -4 0.11711812E+00 0.12499778E+03</pdfrwt>
<totfact> 0.39803723E+03</totfact>
</mgrwt>
</event>
<event>
 5    1  0.3239419E-002  0.1250024E+03  0.7818608E-02  0.1235066E+00
         -4   -1    0    0    0  501 -0.00000000000E+00  0.00000000000E+00  0.68861528152E+02  0.68873238340E+02  0.12700000000E+01 0.  1.
          4   -1    0    0  501    0  0.00000000000E+00 -0.00000000000E+00 -0.56704701820E+02  0.56718921962E+02  0.12700000000E+01 0.  1.
         25    2    1    2    0    0  0.00000000000E+00  0.00000000000E+00  0.12156826332E+02  0.12559216030E+03  0.12500240919E+03 0.  0.
    9000005    1    3    3    0    0 -0.59068769981E+02 -0.13520725466E+02  0.21430258724E+02  0.64282078320E+02  0.10000000000E+01 0.  0.
    9000005    1    3    3    0    0  0.59068769981E+02  0.13520725466E+02 -0.92734323918E+01  0.61310081981E+02  0.10000000000E+01 0.  0.
<mgrwt>
<rscale>  0 0.12500241E+03</rscale>
<asrwt>0</asrwt>
<pdfrwt beam="2">  1        4 0.87257950E-02 0.12500241E+03</pdfrwt>
<pdfrwt beam="1">  1       -4 0.10596076E-01 0.12500241E+03</pdfrwt>
<totfact> 0.10439352E+04</totfact>
</mgrwt>
</event>
<event>
 5    1  0.3239419E-002  0.1250336E+03  0.7818608E-02  0.1235017E+00
         -4   -1    0    0    0  501 -0.00000000000E+00  0.00000000000E+00  0.56614649728E+02  0.56628892483E+02  0.12700000000E+01 0.  1.
          4   -1    0    0  501    0  0.00000000000E+00 -0.00000000000E+00 -0.69005490637E+02  0.69017176399E+02  0.12700000000E+01 0.  1.
         25    2    1    2    0    0  0.00000000000E+00  0.00000000000E+00 -0.12390840909E+02  0.12564606888E+03  0.12503360223E+03 0.  0.
    9000005    1    3    3    0    0  0.27123694908E+02  0.48931847614E+02  0.21821786900E+02  0.60060060938E+02  0.10000000000E+01 0.  0.
    9000005    1    3    3    0    0 -0.27123694908E+02 -0.48931847614E+02 -0.34212627809E+02  0.65586007943E+02  0.10000000000E+01 0.  0.
<mgrwt>
<rscale>  0 0.12503360E+03</rscale>
<asrwt>0</asrwt>
<pdfrwt beam="2">  1        4 0.10618224E-01 0.12503360E+03</pdfrwt>
<pdfrwt beam="1">  1       -4 0.87119407E-02 0.12503360E+03</pdfrwt>
<totfact> 0.10430823E+04</totfact>
</mgrwt>
</event>
<event>
 5    1  0.3239419E-002  0.1249944E+03  0.7818608E-02  0.1235078E+00
          4   -1    0    0  501    0  0.00000000000E+00  0.00000000000E+00  0.51358074854E+02  0.51373774951E+02  0.12700000000E+01 0.  1.
         -4   -1    0    0    0  501 -0.00000000000E+00 -0.00000000000E+00 -0.76019653467E+02  0.76030261167E+02  0.12700000000E+01 0.  1.
         25    2    1    2    0    0  0.00000000000E+00  0.00000000000E+00 -0.24661578613E+02  0.12740403612E+03  0.12499437971E+03 0.  0.
    9000005    1    3    3    0    0  0.17441851214E+02  0.45915998755E+02  0.27045569827E+02  0.56079942606E+02  0.10000000000E+01 0.  0.
    9000005    1    3    3    0    0 -0.17441851214E+02 -0.45915998755E+02 -0.51707148440E+02  0.71324093512E+02  0.10000000000E+01 0.  0.
<mgrwt>
<rscale>  0 0.12499438E+03</rscale>
<asrwt>0</asrwt>
<pdfrwt beam="1">  1        4 0.79032660E-02 0.12499438E+03</pdfrwt>
<pdfrwt beam="2">  1       -4 0.11697355E-01 0.12499438E+03</pdfrwt>
<totfact> 0.10401699E+04</totfact>
</mgrwt>
</event>
<event>
 5    1  0.3239419E-002  0.1249983E+03  0.7818608E-02  0.1235072E+00
          4   -1    0    0  501    0  0.00000000000E+00  0.00000000000E+00  0.85442089106E+02  0.85451527141E+02  0.12700000000E+01 0. -1.
         -4   -1    0    0    0  501 -0.00000000000E+00 -0.00000000000E+00 -0.45696081425E+02  0.45713726140E+02  0.12700000000E+01 0. -1.
         25    2    1    2    0    0  0.00000000000E+00  0.00000000000E+00  0.39746007681E+02  0.13116525328E+03  0.12499831416E+03 0.  0.
    9000005    1    3    3    0    0  0.27842398926E+02  0.20432107260E+02  0.74523923490E+02  0.82143078573E+02  0.10000000000E+01 0.  0.
    9000005    1    3    3    0    0 -0.27842398926E+02 -0.20432107260E+02 -0.34777915809E+02  0.49022174708E+02  0.10000000000E+01 0.  0.
<mgrwt>
<rscale>  0 0.12499831E+03</rscale>
<asrwt>0</asrwt>
<pdfrwt beam="1">  1        4 0.13147020E-01 0.12499831E+03</pdfrwt>
<pdfrwt beam="2">  1       -4 0.70322498E-02 0.12499831E+03</pdfrwt>
<totfact> 0.10319940E+04</totfact>
</mgrwt>
</event>
<event>
 5    1  0.3239419E-002  0.1250018E+03  0.7818608E-02  0.1235067E+00
         -4   -1    0    0    0  501 -0.00000000000E+00  0.00000000000E+00  0.29332299076E+03  0.29332574010E+03  0.12700000000E+01 0.  1.
          4   -1    0    0  501    0  0.00000000000E+00 -0.00000000000E+00 -0.13284510888E+02  0.13345078850E+02  0.12700000000E+01 0.  1.
         25    2    1    2    0    0  0.00000000000E+00  0.00000000000E+00  0.28003847987E+03  0.30667081895E+03  0.12500176395E+03 0.  0.
    9000005    1    3    3    0    0  0.13199762262E+02 -0.31083167286E+02  0.26902259100E+03  0.27113566988E+03  0.10000000000E+01 0.  0.
    9000005    1    3    3    0    0 -0.13199762262E+02  0.31083167286E+02  0.11015888873E+02  0.35535149077E+02  0.10000000000E+01 0.  0.
<mgrwt>
<rscale>  0 0.12500176E+03</rscale>
<asrwt>0</asrwt>
<pdfrwt beam="2">  1        4 0.20486416E-02 0.12500176E+03</pdfrwt>
<pdfrwt beam="1">  1       -4 0.45131481E-01 0.12500176E+03</pdfrwt>
<totfact> 0.74766685E+03</totfact>
</mgrwt>
</event>
<event>
 5    1  0.3239419E-002  0.1249975E+03  0.7818608E-02  0.1235073E+00
         -4   -1    0    0    0  501 -0.00000000000E+00  0.00000000000E+00  0.54906860354E+02  0.54921545990E+02  0.12700000000E+01 0. -1.
          4   -1    0    0  501    0  0.00000000000E+00 -0.00000000000E+00 -0.71110505373E+02  0.71121845269E+02  0.12700000000E+01 0. -1.
         25    2    1    2    0    0  0.00000000000E+00  0.00000000000E+00 -0.16203645019E+02  0.12604339126E+03  0.12499751345E+03 0.  0.
    9000005    1    3    3    0    0  0.63052080398E+00  0.17221382931E+02 -0.68672056699E+02  0.70808367852E+02  0.10000000000E+01 0.  0.
    9000005    1    3    3    0    0 -0.63052080398E+00 -0.17221382931E+02  0.52468411680E+02  0.55235023407E+02  0.10000000000E+01 0.  0.
<mgrwt>
<rscale>  0 0.12499751E+03</rscale>
<asrwt>0</asrwt>
<pdfrwt beam="2">  1        4 0.10942080E-01 0.12499751E+03</pdfrwt>
<pdfrwt beam="1">  1       -4 0.84492113E-02 0.12499751E+03</pdfrwt>
<totfact> 0.10430591E+04</totfact>
</mgrwt>
</event>
<event>
 5    1  0.3239419E-002  0.1250033E+03  0.7818608E-02  0.1235064E+00
          4   -1    0    0  501    0  0.00000000000E+00  0.00000000000E+00  0.13243563605E+02  0.13304317981E+02  0.12700000000E+01 0. -1.
         -4   -1    0    0    0  501 -0.00000000000E+00 -0.00000000000E+00 -0.29423296007E+03  0.29423570091E+03  0.12700000000E+01 0. -1.
         25    2    1    2    0    0  0.00000000000E+00  0.00000000000E+00 -0.28098939646E+03  0.30754001889E+03  0.12500328914E+03 0.  0.
    9000005    1    3    3    0    0 -0.15682372232E+02  0.59996202098E+02 -0.12144169039E+03  0.13636189068E+03  0.10000000000E+01 0.  0.
    9000005    1    3    3    0    0  0.15682372232E+02 -0.59996202098E+02 -0.15954770608E+03  0.17117812821E+03  0.10000000000E+01 0.  0.
<mgrwt>
<rscale>  0 0.12500329E+03</rscale>
<asrwt>0</asrwt>
<pdfrwt beam="1">  1        4 0.20423558E-02 0.12500329E+03</pdfrwt>
<pdfrwt beam="2">  1       -4 0.45271489E-01 0.12500329E+03</pdfrwt>
<totfact> 0.74657216E+03</totfact>
</mgrwt>
</event>
<event>
 5    1  0.3239419E-002  0.1250034E+03  0.7818608E-02  0.1235064E+00
         -4   -1    0    0    0  501 -0.00000000000E+00  0.00000000000E+00  0.22707586663E+04  0.22707590214E+04  0.12700000000E+01 0.  1.
          4   -1    0    0  501    0  0.00000000000E+00 -0.00000000000E+00 -0.14855422464E+01  0.19544144304E+01  0.12700000000E+01 0.  1.
         25    2    1    2    0    0  0.00000000000E+00  0.00000000000E+00  0.22692731240E+04  0.22727134359E+04  0.12500340019E+03 0.  0.
    9000005    1    3    3    0    0  0.11431349445E+02  0.19321454294E+00  0.17601211404E+02  0.21012275576E+02  0.10000000000E+01 0.  0.
    9000005    1    3    3    0    0 -0.11431349445E+02 -0.19321454294E+00  0.22516719126E+04  0.22517011603E+04  0.10000000000E+01 0.  0.
<mgrwt>
<rscale>  0 0.12500340E+03</rscale>
<asrwt>0</asrwt>
<pdfrwt beam="2">  1        4 0.26464045E-03 0.12500340E+03</pdfrwt>
<pdfrwt beam="1">  1       -4 0.34938216E+00 0.12500340E+03</pdfrwt>
<totfact> 0.67080248E+02</totfact>
</mgrwt>
</event>
<event>
 5    1  0.3239419E-002  0.1250079E+03  0.7818608E-02  0.1235057E+00
         -4   -1    0    0    0  501 -0.00000000000E+00  0.00000000000E+00  0.74535876623E+01  0.75610097897E+01  0.12700000000E+01 0.  1.
          4   -1    0    0  501    0  0.00000000000E+00 -0.00000000000E+00 -0.52028429627E+03  0.52028584629E+03  0.12700000000E+01 0.  1.
         25    2    1    2    0    0  0.00000000000E+00  0.00000000000E+00 -0.51283070861E+03  0.52784685608E+03  0.12500787086E+03 0.  0.
    9000005    1    3    3    0    0  0.38937058481E+02 -0.14759553891E+02 -0.59635427707E+02  0.72741481921E+02  0.10000000000E+01 0.  0.
    9000005    1    3    3    0    0 -0.38937058481E+02  0.14759553891E+02 -0.45319528090E+03  0.45510537416E+03  0.10000000000E+01 0.  0.
<mgrwt>
<rscale>  0 0.12500787E+03</rscale>
<asrwt>0</asrwt>
<pdfrwt beam="2">  1        4 0.80052092E-01 0.12500787E+03</pdfrwt>
<pdfrwt beam="1">  1       -4 0.11550887E-02 0.12500787E+03</pdfrwt>
<totfact> 0.53757439E+03</totfact>
</mgrwt>
</event>
<event>
 5    1  0.3239419E-002  0.1250028E+03  0.7818608E-02  0.1235065E+00
          4   -1    0    0  501    0  0.00000000000E+00  0.00000000000E+00  0.87628092987E+02  0.87637295603E+02  0.12700000000E+01 0. -1.
         -4   -1    0    0    0  501 -0.00000000000E+00 -0.00000000000E+00 -0.44558982446E+02  0.44577077256E+02  0.12700000000E+01 0. -1.
         25    2    1    2    0    0  0.00000000000E+00  0.00000000000E+00  0.43069110541E+02  0.13221437286E+03  0.12500276840E+03 0.  0.
    9000005    1    3    3    0    0  0.54270711973E+02  0.18587496206E+02 -0.46871913666E+01  0.57565397212E+02  0.10000000000E+01 0.  0.
    9000005    1    3    3    0    0 -0.54270711973E+02 -0.18587496206E+02  0.47756301908E+02  0.74648975647E+02  0.10000000000E+01 0.  0.
<mgrwt>
<rscale>  0 0.12500277E+03</rscale>
<asrwt>0</asrwt>
<pdfrwt beam="1">  1        4 0.13483345E-01 0.12500277E+03</pdfrwt>
<pdfrwt beam="2">  1       -4 0.68573280E-02 0.12500277E+03</pdfrwt>
<totfact> 0.10296482E+04</totfact>
</mgrwt>
</event>
<event>
 5    1  0.3239419E-002  0.1250000E+03  0.7818608E-02  0.1235069E+00
          4   -1    0    0  501    0  0.00000000000E+00  0.00000000000E+00  0.59106216562E+03  0.59106353003E+03  0.12700000000E+01 0.  1.
         -4   -1    0    0    0  501 -0.00000000000E+00 -0.00000000000E+00 -0.65464689996E+01  0.66685198030E+01  0.12700000000E+01 0.  1.
         25    2    1    2    0    0  0.00000000000E+00  0.00000000000E+00  0.58451569663E+03  0.59773204983E+03  0.12500001519E+03 0.  0.
    9000005    1    3    3    0    0 -0.59114989672E+02 -0.20677592866E+01  0.38865623285E+03  0.39313296092E+03  0.10000000000E+01 0.  0.
    9000005    1    3    3    0    0  0.59114989672E+02  0.20677592866E+01  0.19585946378E+03  0.20459908891E+03  0.10000000000E+01 0.  0.
<mgrwt>
<rscale>  0 0.12500002E+03</rscale>
<asrwt>0</asrwt>
<pdfrwt beam="1">  1        4 0.90942150E-01 0.12500002E+03</pdfrwt>
<pdfrwt beam="2">  1       -4 0.10166424E-02 0.12500002E+03</pdfrwt>
<totfact> 0.49011061E+03</totfact>
</mgrwt>
</event>
<event>
 5    1  0.3239419E-002  0.1249976E+03  0.7818608E-02  0.1235073E+00
         -4   -1    0    0    0  501 -0.00000000000E+00  0.00000000000E+00  0.30705250481E+03  0.30705513122E+03  0.12700000000E+01 0. -1.
          4   -1    0    0  501    0  0.00000000000E+00 -0.00000000000E+00 -0.12686889474E+02  0.12750296645E+02  0.12700000000E+01 0. -1.
         25    2    1    2    0    0  0.00000000000E+00  0.00000000000E+00  0.29436561534E+03  0.31980542787E+03  0.12499758478E+03 0.  0.
    9000005    1    3    3    0    0  0.46676451079E+01  0.79598627843E+01  0.30531241880E+03  0.30545346520E+03  0.10000000000E+01 0.  0.
    9000005    1    3    3    0    0 -0.46676451079E+01 -0.79598627843E+01 -0.10946803465E+02  0.14351962671E+02  0.10000000000E+01 0.  0.
<mgrwt>
<rscale>  0 0.12499758E+03</rscale>
<asrwt>0</asrwt>
<pdfrwt beam="2">  1        4 0.19569089E-02 0.12499758E+03</pdfrwt>
<pdfrwt beam="1">  1       -4 0.47243920E-01 0.12499758E+03</pdfrwt>
<totfact> 0.73183194E+03</totfact>
</mgrwt>
</event>
<event>
 5    1  0.3239419E-002  0.1250094E+03  0.7818608E-02  0.1235055E+00
         -4   -1    0    0    0  501 -0.00000000000E+00  0.00000000000E+00  0.31402271298E+03  0.31402528110E+03  0.12700000000E+01 0. -1.
          4   -1    0    0  501    0  0.00000000000E+00 -0.00000000000E+00 -0.12406215760E+02  0.12471050056E+02  0.12700000000E+01 0. -1.
         25    2    1    2    0    0  0.00000000000E+00  0.00000000000E+00  0.30161649722E+03  0.32649633115E+03  0.12500937109E+03 0.  0.
    9000005    1    3    3    0    0 -0.43763898220E+02  0.44568573115E+02  0.15616029606E+03  0.16819237367E+03  0.10000000000E+01 0.  0.
    9000005    1    3    3    0    0  0.43763898220E+02 -0.44568573115E+02  0.14545620116E+03  0.15830395748E+03  0.10000000000E+01 0.  0.
<mgrwt>
<rscale>  0 0.12500937E+03</rscale>
<asrwt>0</asrwt>
<pdfrwt beam="2">  1        4 0.19138336E-02 0.12500937E+03</pdfrwt>
<pdfrwt beam="1">  1       -4 0.48316365E-01 0.12500937E+03</pdfrwt>
<totfact> 0.72375050E+03</totfact>
</mgrwt>
</event>
<event>
 5    1  0.3239419E-002  0.1249998E+03  0.7818608E-02  0.1235070E+00
         -4   -1    0    0    0  501 -0.00000000000E+00  0.00000000000E+00  0.48321335974E+02  0.48338022408E+02  0.12700000000E+01 0. -1.
          4   -1    0    0  501    0  0.00000000000E+00 -0.00000000000E+00 -0.80803077341E+02  0.80813057161E+02  0.12700000000E+01 0. -1.
         25    2    1    2    0    0  0.00000000000E+00  0.00000000000E+00 -0.32481741367E+02  0.12915107957E+03  0.12499975133E+03 0.  0.
    9000005    1    3    3    0    0  0.17149880657E+02  0.32248760470E+02  0.36149467900E+02  0.51399270305E+02  0.10000000000E+01 0.  0.
    9000005    1    3    3    0    0 -0.17149880657E+02 -0.32248760470E+02 -0.68631209267E+02  0.77751809264E+02  0.10000000000E+01 0.  0.
<mgrwt>
<rscale>  0 0.12499975E+03</rscale>
<asrwt>0</asrwt>
<pdfrwt beam="2">  1        4 0.12433294E-01 0.12499975E+03</pdfrwt>
<pdfrwt beam="1">  1       -4 0.74361030E-02 0.12499975E+03</pdfrwt>
<totfact> 0.10362760E+04</totfact>
</mgrwt>
</event>
<event>
 5    1  0.3239419E-002  0.1249989E+03  0.7818608E-02  0.1235071E+00
          4   -1    0    0  501    0  0.00000000000E+00  0.00000000000E+00  0.65324989102E+02  0.65337333135E+02  0.12700000000E+01 0.  1.
         -4   -1    0    0    0  501 -0.00000000000E+00 -0.00000000000E+00 -0.59771395681E+02  0.59784886398E+02  0.12700000000E+01 0.  1.
         25    2    1    2    0    0  0.00000000000E+00  0.00000000000E+00  0.55535934217E+01  0.12512221953E+03  0.12499890968E+03 0.  0.
    9000005    1    3    3    0    0  0.66742802148E+01 -0.34175995297E+02 -0.49165019875E+02  0.60255654093E+02  0.10000000000E+01 0.  0.
    9000005    1    3    3    0    0 -0.66742802148E+01  0.34175995297E+02  0.54718613296E+02  0.64866565440E+02  0.10000000000E+01 0.  0.
<mgrwt>
<rscale>  0 0.12499891E+03</rscale>
<asrwt>0</asrwt>
<pdfrwt beam="1">  1        4 0.10051986E-01 0.12499891E+03</pdfrwt>
<pdfrwt beam="2">  1       -4 0.91975866E-02 0.12499891E+03</pdfrwt>
<totfact> 0.10450466E+04</totfact>
</mgrwt>
</event>
<event>
 5    1  0.3239419E-002  0.1250011E+03  0.7818608E-02  0.1235068E+00
         -4   -1    0    0    0  501 -0.00000000000E+00  0.00000000000E+00  0.22316669442E+02  0.22352776896E+02  0.12700000000E+01 0.  1.
          4   -1    0    0  501    0  0.00000000000E+00 -0.00000000000E+00 -0.17486049087E+03  0.17486510277E+03  0.12700000000E+01 0.  1.
         25    2    1    2    0    0  0.00000000000E+00  0.00000000000E+00 -0.15254382142E+03  0.19721787966E+03  0.12500109841E+03 0.  0.
    9000005    1    3    3    0    0 -0.25314879925E+02 -0.52773396719E+02 -0.11081820332E+03  0.12532975997E+03  0.10000000000E+01 0.  0.
    9000005    1    3    3    0    0  0.25314879925E+02  0.52773396719E+02 -0.41725618101E+02  0.71888119691E+02  0.10000000000E+01 0.  0.
<mgrwt>
<rscale>  0 0.12500110E+03</rscale>
<asrwt>0</asrwt>
<pdfrwt beam="2">  1        4 0.26904745E-01 0.12500110E+03</pdfrwt>
<pdfrwt beam="1">  1       -4 0.34364661E-02 0.12500110E+03</pdfrwt>
<totfact> 0.90604146E+03</totfact>
</mgrwt>
</event>
<event>
 5    1  0.3239419E-002  0.1250051E+03  0.7818608E-02  0.1235061E+00
         -4   -1    0    0    0  501 -0.00000000000E+00  0.00000000000E+00  0.14365342223E+02  0.14421371543E+02  0.12700000000E+01 0.  1.
          4   -1    0    0  501    0  0.00000000000E+00 -0.00000000000E+00 -0.27135711995E+03  0.27136009185E+03  0.12700000000E+01 0.  1.
         25    2    1    2    0    0  0.00000000000E+00  0.00000000000E+00 -0.25699177773E+03  0.28578146339E+03  0.12500508389E+03 0.  0.
    9000005    1    3    3    0    0  0.29852862229E+01  0.32112781758E+02 -0.25087320024E+03  0.25293972658E+03  0.10000000000E+01 0.  0.
    9000005    1    3    3    0    0 -0.29852862229E+01 -0.32112781758E+02 -0.61185774898E+01  0.32841736808E+02  0.10000000000E+01 0.  0.
<mgrwt>
<rscale>  0 0.12500508E+03</rscale>
<asrwt>0</asrwt>
<pdfrwt beam="2">  1        4 0.41751784E-01 0.12500508E+03</pdfrwt>
<pdfrwt beam="1">  1       -4 0.22145914E-02 0.12500508E+03</pdfrwt>
<totfact> 0.77408975E+03</totfact>
</mgrwt>
</event>
<event>
 5    1  0.3239419E-002  0.1250133E+03  0.7818608E-02  0.1235049E+00
          4   -1    0    0  501    0  0.00000000000E+00  0.00000000000E+00  0.19580430863E+02  0.19621574166E+02  0.12700000000E+01 0.  1.
         -4   -1    0    0    0  501 -0.00000000000E+00 -0.00000000000E+00 -0.19928737024E+03  0.19929141686E+03  0.12700000000E+01 0.  1.
         25    2    1    2    0    0  0.00000000000E+00  0.00000000000E+00 -0.17970693937E+03  0.21891299103E+03  0.12501325363E+03 0.  0.
    9000005    1    3    3    0    0  0.31876150629E+02 -0.38549508969E+01  0.40418892955E+01  0.32377252731E+02  0.10000000000E+01 0.  0.
    9000005    1    3    3    0    0 -0.31876150629E+02  0.38549508969E+01 -0.18374882867E+03  0.18653573830E+03  0.10000000000E+01 0.  0.
<mgrwt>
<rscale>  0 0.12501325E+03</rscale>
<asrwt>0</asrwt>
<pdfrwt beam="1">  1        4 0.30158503E-02 0.12501325E+03</pdfrwt>
<pdfrwt beam="2">  1       -4 0.30663070E-01 0.12501325E+03</pdfrwt>
<totfact> 0.87014883E+03</totfact>
</mgrwt>
</event>
<event>
 5    1  0.3239419E-002  0.1250015E+03  0.7818608E-02  0.1235067E+00
         -4   -1    0    0    0  501 -0.00000000000E+00  0.00000000000E+00  0.28201009745E+02  0.28229591754E+02  0.12700000000E+01 0. -1.
          4   -1    0    0  501    0  0.00000000000E+00 -0.00000000000E+00 -0.13841629529E+03  0.13842212143E+03  0.12700000000E+01 0. -1.
         25    2    1    2    0    0  0.00000000000E+00  0.00000000000E+00 -0.11021528554E+03  0.16665171319E+03  0.12500153735E+03 0.  0.
    9000005    1    3    3    0    0  0.11564447061E+02 -0.28831083535E+01  0.26678305743E+02  0.29236633645E+02  0.10000000000E+01 0.  0.
    9000005    1    3    3    0    0 -0.11564447061E+02  0.28831083535E+01 -0.13689359129E+03  0.13741507954E+03  0.10000000000E+01 0.  0.
<mgrwt>
<rscale>  0 0.12500154E+03</rscale>
<asrwt>0</asrwt>
<pdfrwt beam="2">  1        4 0.21297461E-01 0.12500154E+03</pdfrwt>
<pdfrwt beam="1">  1       -4 0.43412638E-02 0.12500154E+03</pdfrwt>
<totfact> 0.96072178E+03</totfact>
</mgrwt>
</event>
<event>
 5    1  0.3239419E-002  0.1250016E+03  0.7818608E-02  0.1235067E+00
          4   -1    0    0  501    0  0.00000000000E+00  0.00000000000E+00  0.37918407804E+03  0.37918620484E+03  0.12700000000E+01 0. -1.
         -4   -1    0    0    0  501 -0.00000000000E+00 -0.00000000000E+00 -0.10260676907E+02  0.10338974349E+02  0.12700000000E+01 0. -1.
         25    2    1    2    0    0  0.00000000000E+00  0.00000000000E+00  0.36892340114E+03  0.38952517919E+03  0.12500155726E+03 0.  0.
    9000005    1    3    3    0    0  0.18536259535E+02 -0.56561639895E+02  0.24379455813E+03  0.25095736411E+03  0.10000000000E+01 0.  0.
    9000005    1    3    3    0    0 -0.18536259535E+02  0.56561639895E+02  0.12512884301E+03  0.13856781509E+03  0.10000000000E+01 0.  0.
<mgrwt>
<rscale>  0 0.12500156E+03</rscale>
<asrwt>0</asrwt>
<pdfrwt beam="1">  1        4 0.58342202E-01 0.12500156E+03</pdfrwt>
<pdfrwt beam="2">  1       -4 0.15847520E-02 0.12500156E+03</pdfrwt>
<totfact> 0.65582208E+03</totfact>
</mgrwt>
</event>
<event>
 5    1  0.3239419E-002  0.1250037E+03  0.7818608E-02  0.1235063E+00
          4   -1    0    0  501    0  0.00000000000E+00  0.00000000000E+00  0.30784466350E+03  0.30784728315E+03  0.12700000000E+01 0. -1.
         -4   -1    0    0    0  501 -0.00000000000E+00 -0.00000000000E+00 -0.12655327352E+02  0.12718891869E+02  0.12700000000E+01 0. -1.
         25    2    1    2    0    0  0.00000000000E+00  0.00000000000E+00  0.29518933615E+03  0.32056617502E+03  0.12500371352E+03 0.  0.
    9000005    1    3    3    0    0  0.59133674883E+02  0.12384140124E+01  0.95848798130E+02  0.11263355307E+03  0.10000000000E+01 0.  0.
    9000005    1    3    3    0    0 -0.59133674883E+02 -0.12384140124E+01  0.19934053801E+03  0.20793262195E+03  0.10000000000E+01 0.  0.
<mgrwt>
<rscale>  0 0.12500371E+03</rscale>
<asrwt>0</asrwt>
<pdfrwt beam="1">  1        4 0.47365805E-01 0.12500371E+03</pdfrwt>
<pdfrwt beam="2">  1       -4 0.19520647E-02 0.12500371E+03</pdfrwt>
<totfact> 0.73082821E+03</totfact>
</mgrwt>
</event>
<event>
 5    1  0.3239419E-002  0.1250002E+03  0.7818608E-02  0.1235069E+00
          4   -1    0    0  501    0  0.00000000000E+00  0.00000000000E+00  0.17602815970E+03  0.17603274101E+03  0.12700000000E+01 0. -1.
         -4   -1    0    0    0  501 -0.00000000000E+00 -0.00000000000E+00 -0.22168069916E+02  0.22204419015E+02  0.12700000000E+01 0. -1.
         25    2    1    2    0    0  0.00000000000E+00  0.00000000000E+00  0.15386008979E+03  0.19823716003E+03  0.12500017755E+03 0.  0.
    9000005    1    3    3    0    0 -0.55216664100E+02  0.29229802522E+02  0.79172697263E+02  0.10085919562E+03  0.10000000000E+01 0.  0.
    9000005    1    3    3    0    0  0.55216664100E+02 -0.29229802522E+02  0.74687392525E+02  0.97377964406E+02  0.10000000000E+01 0.  0.
<mgrwt>
<rscale>  0 0.12500018E+03</rscale>
<asrwt>0</asrwt>
<pdfrwt beam="1">  1        4 0.27084403E-01 0.12500018E+03</pdfrwt>
<pdfrwt beam="2">  1       -4 0.34136209E-02 0.12500018E+03</pdfrwt>
<totfact> 0.90433141E+03</totfact>
</mgrwt>
</event>
<event>
 5    1  0.3239419E-002  0.1250047E+03  0.7818608E-02  0.1235062E+00
         -4   -1    0    0    0  501 -0.00000000000E+00  0.00000000000E+00  0.26872533756E+03  0.26872833856E+03  0.12700000000E+01 0. -1.
          4   -1    0    0  501    0  0.00000000000E+00 -0.00000000000E+00 -0.14506479491E+02  0.14561965774E+02  0.12700000000E+01 0. -1.
         25    2    1    2    0    0  0.00000000000E+00  0.00000000000E+00  0.25421885807E+03  0.28329030433E+03  0.12500467485E+03 0.  0.
    9000005    1    3    3    0    0 -0.29181650966E+02 -0.50921513378E+02  0.17576618564E+03  0.18530871887E+03  0.10000000000E+01 0.  0.
    9000005    1    3    3    0    0  0.29181650966E+02  0.50921513378E+02  0.78452672431E+02  0.97981585461E+02  0.10000000000E+01 0.  0.
<mgrwt>
<rscale>  0 0.12500467E+03</rscale>
<asrwt>0</asrwt>
<pdfrwt beam="2">  1        4 0.22362651E-02 0.12500467E+03</pdfrwt>
<pdfrwt beam="1">  1       -4 0.41346859E-01 0.12500467E+03</pdfrwt>
<totfact> 0.77735770E+03</totfact>
</mgrwt>
</event>
<event>
 5    1  0.3239419E-002  0.1249950E+03  0.7818608E-02  0.1235077E+00
          4   -1    0    0  501    0  0.00000000000E+00  0.00000000000E+00  0.15919725764E+03  0.15920232329E+03  0.12700000000E+01 0.  1.
         -4   -1    0    0    0  501 -0.00000000000E+00 -0.00000000000E+00 -0.24513299005E+02  0.24546175428E+02  0.12700000000E+01 0.  1.
         25    2    1    2    0    0  0.00000000000E+00  0.00000000000E+00  0.13468395863E+03  0.18374849871E+03  0.12499496816E+03 0.  0.
    9000005    1    3    3    0    0 -0.31911644116E+00 -0.56441832291E+02  0.10676428241E+03  0.12077000565E+03  0.10000000000E+01 0.  0.
    9000005    1    3    3    0    0  0.31911644116E+00  0.56441832291E+02  0.27919676227E+02  0.62978493061E+02  0.10000000000E+01 0.  0.
<mgrwt>
<rscale>  0 0.12499497E+03</rscale>
<asrwt>0</asrwt>
<pdfrwt beam="1">  1        4 0.24494805E-01 0.12499497E+03</pdfrwt>
<pdfrwt beam="2">  1       -4 0.37741953E-02 0.12499497E+03</pdfrwt>
<totfact> 0.92957062E+03</totfact>
</mgrwt>
</event>
<event>
 5    1  0.3239419E-002  0.1249929E+03  0.7818608E-02  0.1235080E+00
         -4   -1    0    0    0  501 -0.00000000000E+00  0.00000000000E+00  0.73539398401E+02  0.73550363814E+02  0.12700000000E+01 0. -1.
          4   -1    0    0  501    0  0.00000000000E+00 -0.00000000000E+00 -0.53089271282E+02  0.53104459561E+02  0.12700000000E+01 0. -1.
         25    2    1    2    0    0  0.00000000000E+00  0.00000000000E+00  0.20450127119E+02  0.12665482338E+03  0.12499294614E+03 0.  0.
    9000005    1    3    3    0    0 -0.89775440576E+01 -0.21472895433E+02  0.68988597029E+02  0.72815575639E+02  0.10000000000E+01 0.  0.
    9000005    1    3    3    0    0  0.89775440576E+01  0.21472895433E+02 -0.48538469910E+02  0.53839247736E+02  0.10000000000E+01 0.  0.
<mgrwt>
<rscale>  0 0.12499295E+03</rscale>
<asrwt>0</asrwt>
<pdfrwt beam="2">  1        4 0.81695920E-02 0.12499295E+03</pdfrwt>
<pdfrwt beam="1">  1       -4 0.11315765E-01 0.12499295E+03</pdfrwt>
<totfact> 0.10418313E+04</totfact>
</mgrwt>
</event>
<event>
 5    1  0.3239419E-002  0.1250077E+03  0.7818608E-02  0.1235057E+00
          4   -1    0    0  501    0  0.00000000000E+00  0.00000000000E+00  0.12907710669E+02  0.12970038347E+02  0.12700000000E+01 0. -1.
         -4   -1    0    0    0  501 -0.00000000000E+00 -0.00000000000E+00 -0.30187402772E+03  0.30187669919E+03  0.12700000000E+01 0. -1.
         25    2    1    2    0    0  0.00000000000E+00  0.00000000000E+00 -0.28896631705E+03  0.31484673753E+03  0.12500774274E+03 0.  0.
    9000005    1    3    3    0    0  0.42268228431E+02 -0.20061085813E+02 -0.40129562819E+02  0.61647644811E+02  0.10000000000E+01 0.  0.
    9000005    1    3    3    0    0 -0.42268228431E+02  0.20061085813E+02 -0.24883675423E+03  0.25319909272E+03  0.10000000000E+01 0.  0.
<mgrwt>
<rscale>  0 0.12500774E+03</rscale>
<asrwt>0</asrwt>
<pdfrwt beam="1">  1        4 0.19908018E-02 0.12500774E+03</pdfrwt>
<pdfrwt beam="2">  1       -4 0.46447153E-01 0.12500774E+03</pdfrwt>
<totfact> 0.73760596E+03</totfact>
</mgrwt>
</event>
<event>
 5    1  0.3239419E-002  0.1249952E+03  0.7818608E-02  0.1235077E+00
          4   -1    0    0  501    0  0.00000000000E+00  0.00000000000E+00  0.11566535381E+02  0.11636049188E+02  0.12700000000E+01 0.  1.
         -4   -1    0    0    0  501 -0.00000000000E+00 -0.00000000000E+00 -0.33661146092E+03  0.33661385670E+03  0.12700000000E+01 0.  1.
         25    2    1    2    0    0  0.00000000000E+00  0.00000000000E+00 -0.32504492554E+03  0.34824990588E+03  0.12499517324E+03 0.  0.
    9000005    1    3    3    0    0 -0.14680316259E+02  0.50035136617E+02 -0.25846822165E+03  0.26367754585E+03  0.10000000000E+01 0.  0.
    9000005    1    3    3    0    0  0.14680316259E+02 -0.50035136617E+02 -0.66576703884E+02  0.84572360034E+02  0.10000000000E+01 0.  0.
<mgrwt>
<rscale>  0 0.12499517E+03</rscale>
<asrwt>0</asrwt>
<pdfrwt beam="1">  1        4 0.17849987E-02 0.12499517E+03</pdfrwt>
<pdfrwt beam="2">  1       -4 0.51791903E-01 0.12499517E+03</pdfrwt>
<totfact> 0.69924991E+03</totfact>
</mgrwt>
</event>
<event>
 5    1  0.3239419E-002  0.1249988E+03  0.7818608E-02  0.1235071E+00
          4   -1    0    0  501    0  0.00000000000E+00  0.00000000000E+00  0.17696966636E+03  0.17697422330E+03  0.12700000000E+01 0. -1.
         -4   -1    0    0    0  501 -0.00000000000E+00 -0.00000000000E+00 -0.22049445909E+02  0.22085990240E+02  0.12700000000E+01 0. -1.
         25    2    1    2    0    0  0.00000000000E+00  0.00000000000E+00  0.15492022045E+03  0.19906021354E+03  0.12499877563E+03 0.  0.
    9000005    1    3    3    0    0  0.37306850047E+02 -0.37074206247E+02  0.23717734622E+02  0.57704668484E+02  0.10000000000E+01 0.  0.
    9000005    1    3    3    0    0 -0.37306850047E+02  0.37074206247E+02  0.13120248583E+03  0.14135554505E+03  0.10000000000E+01 0.  0.
<mgrwt>
<rscale>  0 0.12499878E+03</rscale>
<asrwt>0</asrwt>
<pdfrwt beam="1">  1        4 0.27229265E-01 0.12499878E+03</pdfrwt>
<pdfrwt beam="2">  1       -4 0.33953840E-02 0.12499878E+03</pdfrwt>
<totfact> 0.90296724E+03</totfact>
</mgrwt>
</event>
<event>
 5    1  0.3239419E-002  0.1249991E+03  0.7818608E-02  0.1235071E+00
         -4   -1    0    0    0  501 -0.00000000000E+00  0.00000000000E+00  0.47127996595E+02  0.47145105398E+02  0.12700000000E+01 0. -1.
          4   -1    0    0  501    0  0.00000000000E+00 -0.00000000000E+00 -0.82847796241E+02  0.82857529784E+02  0.12700000000E+01 0. -1.
         25    2    1    2    0    0  0.00000000000E+00  0.00000000000E+00 -0.35719799646E+02  0.13000263518E+03  0.12499912427E+03 0.  0.
    9000005    1    3    3    0    0  0.51811660141E+01 -0.56988353981E+02  0.82586540958E+01  0.57824928346E+02  0.10000000000E+01 0.  0.
    9000005    1    3    3    0    0 -0.51811660141E+01  0.56988353981E+02 -0.43978453742E+02  0.72177706837E+02  0.10000000000E+01 0.  0.
<mgrwt>
<rscale>  0 0.12499912E+03</rscale>
<asrwt>0</asrwt>
<pdfrwt beam="2">  1        4 0.12747880E-01 0.12499912E+03</pdfrwt>
<pdfrwt beam="1">  1       -4 0.72525258E-02 0.12499912E+03</pdfrwt>
<totfact> 0.10344656E+04</totfact>
</mgrwt>
</event>
<event>
 5    1  0.3239419E-002  0.1249998E+03  0.7818608E-02  0.1235070E+00
          4   -1    0    0  501    0  0.00000000000E+00  0.00000000000E+00  0.39462716813E+01  0.41455952748E+01  0.12700000000E+01 0. -1.
         -4   -1    0    0    0  501 -0.00000000000E+00 -0.00000000000E+00 -0.96527309027E+03  0.96527392574E+03  0.12700000000E+01 0. -1.
         25    2    1    2    0    0  0.00000000000E+00  0.00000000000E+00 -0.96132681859E+03  0.96941952101E+03  0.12499982229E+03 0.  0.
    9000005    1    3    3    0    0 -0.42888278751E+02 -0.20761561184E+02 -0.16709404956E+03  0.17375807399E+03  0.10000000000E+01 0.  0.
    9000005    1    3    3    0    0  0.42888278751E+02  0.20761561184E+02 -0.79423276903E+03  0.79566144702E+03  0.10000000000E+01 0.  0.
<mgrwt>
<rscale>  0 0.12499982E+03</rscale>
<asrwt>0</asrwt>
<pdfrwt beam="1">  1        4 0.62251634E-03 0.12499982E+03</pdfrwt>
<pdfrwt beam="2">  1       -4 0.14851877E+00 0.12499982E+03</pdfrwt>
<totfact> 0.31636544E+03</totfact>
</mgrwt>
</event>
<event>
 5    1  0.3239419E-002  0.1249995E+03  0.7818608E-02  0.1235070E+00
          4   -1    0    0  501    0  0.00000000000E+00  0.00000000000E+00  0.15256441544E+02  0.15309209927E+02  0.12700000000E+01 0.  1.
         -4   -1    0    0    0  501 -0.00000000000E+00 -0.00000000000E+00 -0.25554108325E+03  0.25554423908E+03  0.12700000000E+01 0.  1.
         25    2    1    2    0    0  0.00000000000E+00  0.00000000000E+00 -0.24028464170E+03  0.27085344901E+03  0.12499952720E+03 0.  0.
    9000005    1    3    3    0    0  0.17064921436E+02 -0.57887266865E+02 -0.15528738479E+03  0.16660527928E+03  0.10000000000E+01 0.  0.
    9000005    1    3    3    0    0 -0.17064921436E+02  0.57887266865E+02 -0.84997256908E+02  0.10424816972E+03  0.10000000000E+01 0.  0.
<mgrwt>
<rscale>  0 0.12499953E+03</rscale>
<asrwt>0</asrwt>
<pdfrwt beam="1">  1        4 0.23514469E-02 0.12499953E+03</pdfrwt>
<pdfrwt beam="2">  1       -4 0.39318312E-01 0.12499953E+03</pdfrwt>
<totfact> 0.79407491E+03</totfact>
</mgrwt>
</event>
<event>
 5    1  0.3239419E-002  0.1250052E+03  0.7818608E-02  0.1235061E+00
         -4   -1    0    0    0  501 -0.00000000000E+00  0.00000000000E+00  0.26878668193E+04  0.26878671194E+04  0.12700000000E+01 0. -1.
          4   -1    0    0  501    0  0.00000000000E+00 -0.00000000000E+00 -0.11756204240E+01  0.17306020285E+01  0.12700000000E+01 0. -1.
         25    2    1    2    0    0  0.00000000000E+00  0.00000000000E+00  0.26866911989E+04  0.26895977214E+04  0.12500521844E+03 0.  0.
    9000005    1    3    3    0    0  0.17788724402E+02 -0.46230214953E+02  0.21631839609E+04  0.21637512611E+04  0.10000000000E+01 0.  0.
    9000005    1    3    3    0    0 -0.17788724402E+02  0.46230214953E+02  0.52350723802E+03  0.52584646025E+03  0.10000000000E+01 0.  0.
<mgrwt>
<rscale>  0 0.12500522E+03</rscale>
<asrwt>0</asrwt>
<pdfrwt beam="2">  1        4 0.22358050E-03 0.12500522E+03</pdfrwt>
<pdfrwt beam="1">  1       -4 0.41355726E+00 0.12500522E+03</pdfrwt>
<totfact> 0.33450127E+02</totfact>
</mgrwt>
</event>
<event>
 5    1  0.3239419E-002  0.1249997E+03  0.7818608E-02  0.1235070E+00
         -4   -1    0    0    0  501 -0.00000000000E+00  0.00000000000E+00  0.15830447540E+03  0.15830956962E+03  0.12700000000E+01 0. -1.
          4   -1    0    0  501    0  0.00000000000E+00 -0.00000000000E+00 -0.24653577561E+02  0.24686267165E+02  0.12700000000E+01 0. -1.
         25    2    1    2    0    0  0.00000000000E+00  0.00000000000E+00  0.13365089784E+03  0.18299583678E+03  0.12499965514E+03 0.  0.
    9000005    1    3    3    0    0 -0.46220274845E+02 -0.42038305763E+02  0.64919199210E+02  0.90105690077E+02  0.10000000000E+01 0.  0.
    9000005    1    3    3    0    0  0.46220274845E+02  0.42038305763E+02  0.68731698630E+02  0.92890146704E+02  0.10000000000E+01 0.  0.
<mgrwt>
<rscale>  0 0.12499966E+03</rscale>
<asrwt>0</asrwt>
<pdfrwt beam="2">  1        4 0.37957645E-02 0.12499966E+03</pdfrwt>
<pdfrwt beam="1">  1       -4 0.24357441E-01 0.12499966E+03</pdfrwt>
<totfact> 0.93081224E+03</totfact>
</mgrwt>
</event>
<event>
 5    1  0.3239419E-002  0.1249883E+03  0.7818608E-02  0.1235088E+00
          4   -1    0    0  501    0  0.00000000000E+00  0.00000000000E+00  0.63545438389E+02  0.63558128040E+02  0.12700000000E+01 0.  1.
         -4   -1    0    0    0  501 -0.00000000000E+00 -0.00000000000E+00 -0.61434890740E+02  0.61448016243E+02  0.12700000000E+01 0.  1.
         25    2    1    2    0    0  0.00000000000E+00  0.00000000000E+00  0.21105476484E+01  0.12500614428E+03  0.12498832624E+03 0.  0.
    9000005    1    3    3    0    0 -0.46008863089E+02 -0.52809437447E+01  0.43011421897E+02  0.63211440920E+02  0.10000000000E+01 0.  0.
    9000005    1    3    3    0    0  0.46008863089E+02  0.52809437447E+01 -0.40900874248E+02  0.61794703364E+02  0.10000000000E+01 0.  0.
<mgrwt>
<rscale>  0 0.12498833E+03</rscale>
<asrwt>0</asrwt>
<pdfrwt beam="1">  1        4 0.97782071E-02 0.12498833E+03</pdfrwt>
<pdfrwt beam="2">  1       -4 0.94535074E-02 0.12498833E+03</pdfrwt>
<totfact> 0.10455487E+04</totfact>
</mgrwt>
</event>
<event>
 5    1  0.3239419E-002  0.1249988E+03  0.7818608E-02  0.1235071E+00
          4   -1    0    0  501    0  0.00000000000E+00  0.00000000000E+00  0.27215228898E+03  0.27215525220E+03  0.12700000000E+01 0.  1.
         -4   -1    0    0    0  501 -0.00000000000E+00 -0.00000000000E+00 -0.14321769130E+02  0.14377968250E+02  0.12700000000E+01 0.  1.
         25    2    1    2    0    0  0.00000000000E+00  0.00000000000E+00  0.25783051985E+03  0.28653322045E+03  0.12499883780E+03 0.  0.
    9000005    1    3    3    0    0 -0.32992749737E+01  0.63574830655E+01 -0.13388964618E+02  0.15217331560E+02  0.10000000000E+01 0.  0.
    9000005    1    3    3    0    0  0.32992749737E+01 -0.63574830655E+01  0.27121948447E+03  0.27131588889E+03  0.10000000000E+01 0.  0.
<mgrwt>
<rscale>  0 0.12499884E+03</rscale>
<asrwt>0</asrwt>
<pdfrwt beam="1">  1        4 0.41874134E-01 0.12499884E+03</pdfrwt>
<pdfrwt beam="2">  1       -4 0.22079000E-02 0.12499884E+03</pdfrwt>
<totfact> 0.77321741E+03</totfact>
</mgrwt>
</event>
<event>
 5    1  0.3239419E-002  0.1249987E+03  0.7818608E-02  0.1235071E+00
         -4   -1    0    0    0  501 -0.00000000000E+00  0.00000000000E+00  0.60371440052E+02  0.60384796712E+02  0.12700000000E+01 0.  1.
          4   -1    0    0  501    0  0.00000000000E+00 -0.00000000000E+00 -0.64675536070E+02  0.64688004035E+02  0.12700000000E+01 0.  1.
         25    2    1    2    0    0  0.00000000000E+00  0.00000000000E+00 -0.43040960183E+01  0.12507280075E+03  0.12499872097E+03 0.  0.
    9000005    1    3    3    0    0  0.58570578059E+02  0.42402140238E+01  0.19230643298E+02  0.61800563677E+02  0.10000000000E+01 0.  0.
    9000005    1    3    3    0    0 -0.58570578059E+02 -0.42402140238E+01 -0.23534739316E+02  0.63272237070E+02  0.10000000000E+01 0.  0.
<mgrwt>
<rscale>  0 0.12499872E+03</rscale>
<asrwt>0</asrwt>
<pdfrwt beam="2">  1        4 0.99520690E-02 0.12499872E+03</pdfrwt>
<pdfrwt beam="1">  1       -4 0.92899003E-02 0.12499872E+03</pdfrwt>
<totfact> 0.10451584E+04</totfact>
</mgrwt>
</event>
<event>
 5    1  0.3239419E-002  0.1249964E+03  0.7818608E-02  0.1235075E+00
          4   -1    0    0  501    0  0.00000000000E+00  0.00000000000E+00  0.84961651073E+02  0.84971142472E+02  0.12700000000E+01 0. -1.
         -4   -1    0    0    0  501 -0.00000000000E+00 -0.00000000000E+00 -0.45953158028E+02  0.45970704071E+02  0.12700000000E+01 0. -1.
         25    2    1    2    0    0  0.00000000000E+00  0.00000000000E+00  0.39008493045E+02  0.13094184654E+03  0.12499641853E+03 0.  0.
    9000005    1    3    3    0    0 -0.39227762323E+02 -0.35402739691E+02 -0.15441969112E+02  0.55060200913E+02  0.10000000000E+01 0.  0.
    9000005    1    3    3    0    0  0.39227762323E+02  0.35402739691E+02  0.54450462157E+02  0.75881645631E+02  0.10000000000E+01 0.  0.
<mgrwt>
<rscale>  0 0.12499642E+03</rscale>
<asrwt>0</asrwt>
<pdfrwt beam="1">  1        4 0.13073103E-01 0.12499642E+03</pdfrwt>
<pdfrwt beam="2">  1       -4 0.70717965E-02 0.12499642E+03</pdfrwt>
<totfact> 0.10325170E+04</totfact>
</mgrwt>
</event>
<event>
 5    1  0.3239419E-002  0.1249999E+03  0.7818608E-02  0.1235069E+00
          4   -1    0    0  501    0  0.00000000000E+00  0.00000000000E+00  0.28896057533E+01  0.31563778940E+01  0.12700000000E+01 0.  1.
         -4   -1    0    0    0  501 -0.00000000000E+00 -0.00000000000E+00 -0.12919119496E+04  0.12919125738E+04  0.12700000000E+01 0.  1.
         25    2    1    2    0    0  0.00000000000E+00  0.00000000000E+00 -0.12890223438E+04  0.12950689517E+04  0.12499994713E+03 0.  0.
    9000005    1    3    3    0    0 -0.45518284442E+02  0.34949583230E+02 -0.38823467596E+03  0.39245452119E+03  0.10000000000E+01 0.  0.
    9000005    1    3    3    0    0  0.45518284442E+02 -0.34949583230E+02 -0.90078766785E+03  0.90261443050E+03  0.10000000000E+01 0.  0.
<mgrwt>
<rscale>  0 0.12499995E+03</rscale>
<asrwt>0</asrwt>
<pdfrwt beam="1">  1        4 0.46512471E-03 0.12499995E+03</pdfrwt>
<pdfrwt beam="2">  1       -4 0.19877581E+00 0.12499995E+03</pdfrwt>
<totfact> 0.22345289E+03</totfact>
</mgrwt>
</event>
<event>
 5    1  0.3239419E-002  0.1249555E+03  0.7818608E-02  0.1235139E+00
          4   -1    0    0  501    0  0.00000000000E+00  0.00000000000E+00  0.57921703441E+03  0.57921842672E+03  0.12700000000E+01 0. -1.
         -4   -1    0    0    0  501 -0.00000000000E+00 -0.00000000000E+00 -0.66779712835E+01  0.67976613966E+01  0.12700000000E+01 0. -1.
         25    2    1    2    0    0  0.00000000000E+00  0.00000000000E+00  0.57253906313E+03  0.58601608811E+03  0.12495549898E+03 0.  0.
    9000005    1    3    3    0    0 -0.58299710132E+02  0.22441321135E+02  0.28631284949E+03  0.29305036577E+03  0.10000000000E+01 0.  0.
    9000005    1    3    3    0    0  0.58299710132E+02 -0.22441321135E+02  0.28622621364E+03  0.29296572235E+03  0.10000000000E+01 0.  0.
<mgrwt>
<rscale>  0 0.12495550E+03</rscale>
<asrwt>0</asrwt>
<pdfrwt beam="1">  1        4 0.89119648E-01 0.12495550E+03</pdfrwt>
<pdfrwt beam="2">  1       -4 0.10366940E-02 0.12495550E+03</pdfrwt>
<totfact> 0.49810978E+03</totfact>
</mgrwt>
</event>
<event>
 5    1  0.3239419E-002  0.1249957E+03  0.7818608E-02  0.1235076E+00
         -4   -1    0    0    0  501 -0.00000000000E+00  0.00000000000E+00  0.14237361640E+02  0.14293892628E+02  0.12700000000E+01 0. -1.
          4   -1    0    0  501    0  0.00000000000E+00 -0.00000000000E+00 -0.27374548107E+03  0.27374842704E+03  0.12700000000E+01 0. -1.
         25    2    1    2    0    0  0.00000000000E+00  0.00000000000E+00 -0.25950811943E+03  0.28804231966E+03  0.12499565540E+03 0.  0.
    9000005    1    3    3    0    0 -0.26153655268E+02  0.54012630025E+02 -0.89601551377E+02  0.10784626046E+03  0.10000000000E+01 0.  0.
    9000005    1    3    3    0    0  0.26153655268E+02 -0.54012630025E+02 -0.16990656805E+03  0.18019605920E+03  0.10000000000E+01 0.  0.
<mgrwt>
<rscale>  0 0.12499566E+03</rscale>
<asrwt>0</asrwt>
<pdfrwt beam="2">  1        4 0.42119261E-01 0.12499566E+03</pdfrwt>
<pdfrwt beam="1">  1       -4 0.21949387E-02 0.12499566E+03</pdfrwt>
<totfact> 0.77131141E+03</totfact>
</mgrwt>
</event>
<event>
 5    1  0.3239419E-002  0.1249834E+03  0.7818608E-02  0.1235095E+00
          4   -1    0    0  501    0  0.00000000000E+00  0.00000000000E+00  0.11235349436E+03  0.11236067192E+03  0.12700000000E+01 0.  1.
         -4   -1    0    0    0  501 -0.00000000000E+00 -0.00000000000E+00 -0.34738366673E+02  0.34761573887E+02  0.12700000000E+01 0.  1.
         25    2    1    2    0    0  0.00000000000E+00  0.00000000000E+00  0.77615127683E+02  0.14712224581E+03  0.12498338756E+03 0.  0.
    9000005    1    3    3    0    0  0.32285595913E+02  0.35305656194E+02  0.86118450055E+02  0.98520233975E+02  0.10000000000E+01 0.  0.
    9000005    1    3    3    0    0 -0.32285595913E+02 -0.35305656194E+02 -0.85033223712E+01  0.48602011831E+02  0.10000000000E+01 0.  0.
<mgrwt>
<rscale>  0 0.12498339E+03</rscale>
<asrwt>0</asrwt>
<pdfrwt beam="1">  1        4 0.17287490E-01 0.12498339E+03</pdfrwt>
<pdfrwt beam="2">  1       -4 0.53467014E-02 0.12498339E+03</pdfrwt>
<totfact> 0.99917823E+03</totfact>
</mgrwt>
</event>
<event>
 5    1  0.3239419E-002  0.1250002E+03  0.7818608E-02  0.1235069E+00
         -4   -1    0    0    0  501 -0.00000000000E+00  0.00000000000E+00  0.35745201989E+02  0.35767755944E+02  0.12700000000E+01 0.  1.
          4   -1    0    0  501    0  0.00000000000E+00 -0.00000000000E+00 -0.10922000002E+03  0.10922738349E+03  0.12700000000E+01 0.  1.
         25    2    1    2    0    0  0.00000000000E+00  0.00000000000E+00 -0.73474798031E+02  0.14499513944E+03  0.12500017806E+03 0.  0.
    9000005    1    3    3    0    0  0.18331018287E+02 -0.58373824903E+02 -0.51489031032E+02  0.79972807765E+02  0.10000000000E+01 0.  0.
    9000005    1    3    3    0    0 -0.18331018287E+02  0.58373824903E+02 -0.21985766999E+02  0.65022331670E+02  0.10000000000E+01 0.  0.
<mgrwt>
<rscale>  0 0.12500018E+03</rscale>
<asrwt>0</asrwt>
<pdfrwt beam="2">  1        4 0.16805380E-01 0.12500018E+03</pdfrwt>
<pdfrwt beam="1">  1       -4 0.55015648E-02 0.12500018E+03</pdfrwt>
<totfact> 0.10031047E+04</totfact>
</mgrwt>
</event>
<event>
 5    1  0.3239419E-002  0.1250015E+03  0.7818608E-02  0.1235067E+00
          4   -1    0    0  501    0  0.00000000000E+00  0.00000000000E+00  0.10386321101E+02  0.10463678416E+02  0.12700000000E+01 0. -1.
         -4   -1    0    0    0  501 -0.00000000000E+00 -0.00000000000E+00 -0.37463087102E+03  0.37463302367E+03  0.12700000000E+01 0. -1.
         25    2    1    2    0    0  0.00000000000E+00  0.00000000000E+00 -0.36424454992E+03  0.38509670208E+03  0.12500151123E+03 0.  0.
    9000005    1    3    3    0    0 -0.34427629353E+02  0.22170798493E+01 -0.34265102974E+03  0.34438482151E+03  0.10000000000E+01 0.  0.
    9000005    1    3    3    0    0  0.34427629353E+02 -0.22170798493E+01 -0.21593520182E+02  0.40711880573E+02  0.10000000000E+01 0.  0.
<mgrwt>
<rscale>  0 0.12500151E+03</rscale>
<asrwt>0</asrwt>
<pdfrwt beam="1">  1        4 0.16040120E-02 0.12500151E+03</pdfrwt>
<pdfrwt beam="2">  1       -4 0.57641624E-01 0.12500151E+03</pdfrwt>
<totfact> 0.66026343E+03</totfact>
</mgrwt>
</event>
<event>
 5    1  0.3239419E-002  0.1250354E+03  0.7818608E-02  0.1235014E+00
          4   -1    0    0  501    0  0.00000000000E+00  0.00000000000E+00  0.69780778009E+03  0.69780893578E+03  0.12700000000E+01 0.  1.
         -4   -1    0    0    0  501 -0.00000000000E+00 -0.00000000000E+00 -0.55278919184E+01  0.56719034778E+01  0.12700000000E+01 0.  1.
         25    2    1    2    0    0  0.00000000000E+00  0.00000000000E+00  0.69227988817E+03  0.70348083925E+03  0.12503538553E+03 0.  0.
    9000005    1    3    3    0    0  0.53468623534E+02 -0.31357727170E+02  0.39159128567E+03  0.39646807661E+03  0.10000000000E+01 0.  0.
    9000005    1    3    3    0    0 -0.53468623534E+02  0.31357727170E+02  0.30068860250E+03  0.30701276265E+03  0.10000000000E+01 0.  0.
<mgrwt>
<rscale>  0 0.12503539E+03</rscale>
<asrwt>0</asrwt>
<pdfrwt beam="1">  1        4 0.10736618E+00 0.12503539E+03</pdfrwt>
<pdfrwt beam="2">  1       -4 0.86161189E-03 0.12503539E+03</pdfrwt>
<totfact> 0.42870394E+03</totfact>
</mgrwt>
</event>
<event>
 5    1  0.3239419E-002  0.1249987E+03  0.7818608E-02  0.1235071E+00
          4   -1    0    0  501    0  0.00000000000E+00  0.00000000000E+00  0.32474042090E+03  0.32474290426E+03  0.12700000000E+01 0.  1.
         -4   -1    0    0    0  501 -0.00000000000E+00 -0.00000000000E+00 -0.11992536700E+02  0.12059595205E+02  0.12700000000E+01 0.  1.
         25    2    1    2    0    0  0.00000000000E+00  0.00000000000E+00  0.31274788420E+03  0.33680249946E+03  0.12499873829E+03 0.  0.
    9000005    1    3    3    0    0 -0.33569257516E+02  0.52672337933E+02  0.15105221458E+03  0.16345960285E+03  0.10000000000E+01 0.  0.
    9000005    1    3    3    0    0  0.33569257516E+02 -0.52672337933E+02  0.16169566962E+03  0.17334289661E+03  0.10000000000E+01 0.  0.
<mgrwt>
<rscale>  0 0.12499874E+03</rscale>
<asrwt>0</asrwt>
<pdfrwt beam="1">  1        4 0.49965412E-01 0.12499874E+03</pdfrwt>
<pdfrwt beam="2">  1       -4 0.18503551E-02 0.12499874E+03</pdfrwt>
<totfact> 0.71203258E+03</totfact>
</mgrwt>
</event>
<event>
 5    1  0.3239419E-002  0.1250012E+03  0.7818608E-02  0.1235067E+00
         -4   -1    0    0    0  501 -0.00000000000E+00  0.00000000000E+00  0.89037990731E+02  0.89047047640E+02  0.12700000000E+01 0. -1.
          4   -1    0    0  501    0  0.00000000000E+00 -0.00000000000E+00 -0.43852062667E+02  0.43870449054E+02  0.12700000000E+01 0. -1.
         25    2    1    2    0    0  0.00000000000E+00  0.00000000000E+00  0.45185928064E+02  0.13291749669E+03  0.12500117132E+03 0.  0.
    9000005    1    3    3    0    0  0.32015234772E+02  0.15031248087E+02  0.77376749109E+02  0.85082753712E+02  0.10000000000E+01 0.  0.
    9000005    1    3    3    0    0 -0.32015234772E+02 -0.15031248087E+02 -0.32190821045E+02  0.47834742982E+02  0.10000000000E+01 0.  0.
<mgrwt>
<rscale>  0 0.12500117E+03</rscale>
<asrwt>0</asrwt>
<pdfrwt beam="2">  1        4 0.67485823E-02 0.12500117E+03</pdfrwt>
<pdfrwt beam="1">  1       -4 0.13700263E-01 0.12500117E+03</pdfrwt>
<totfact> 0.10281882E+04</totfact>
</mgrwt>
</event>
<event>
 5    1  0.3239419E-002  0.1250004E+03  0.7818608E-02  0.1235069E+00
         -4   -1    0    0    0  501 -0.00000000000E+00  0.00000000000E+00  0.24221840439E+02  0.24255111920E+02  0.12700000000E+01 0.  1.
          4   -1    0    0  501    0  0.00000000000E+00 -0.00000000000E+00 -0.16112431048E+03  0.16112931555E+03  0.12700000000E+01 0.  1.
         25    2    1    2    0    0  0.00000000000E+00  0.00000000000E+00 -0.13690247004E+03  0.18538442747E+03  0.12500039857E+03 0.  0.
    9000005    1    3    3    0    0  0.31825324060E+02  0.48665341119E+02 -0.10240378078E+03  0.11776544908E+03  0.10000000000E+01 0.  0.
    9000005    1    3    3    0    0 -0.31825324060E+02 -0.48665341119E+02 -0.34498689261E+02  0.67618978390E+02  0.10000000000E+01 0.  0.
<mgrwt>
<rscale>  0 0.12500040E+03</rscale>
<asrwt>0</asrwt>
<pdfrwt beam="2">  1        4 0.24791299E-01 0.12500040E+03</pdfrwt>
<pdfrwt beam="1">  1       -4 0.37293814E-02 0.12500040E+03</pdfrwt>
<totfact> 0.92655842E+03</totfact>
</mgrwt>
</event>
<event>
 5    1  0.3239419E-002  0.1249948E+03  0.7818608E-02  0.1235077E+00
          4   -1    0    0  501    0  0.00000000000E+00  0.00000000000E+00  0.44393462258E+02  0.44411624506E+02  0.12700000000E+01 0.  1.
         -4   -1    0    0    0  501 -0.00000000000E+00 -0.00000000000E+00 -0.87943530233E+02  0.87952699844E+02  0.12700000000E+01 0.  1.
         25    2    1    2    0    0  0.00000000000E+00  0.00000000000E+00 -0.43550067975E+02  0.13236432435E+03  0.12499482365E+03 0.  0.
    9000005    1    3    3    0    0 -0.11113207927E+02  0.59378940182E+02 -0.38703953147E+02  0.71752058624E+02  0.10000000000E+01 0.  0.
    9000005    1    3    3    0    0  0.11113207927E+02 -0.59378940182E+02 -0.48461148280E+01  0.60612265726E+02  0.10000000000E+01 0.  0.
<mgrwt>
<rscale>  0 0.12499482E+03</rscale>
<asrwt>0</asrwt>
<pdfrwt beam="1">  1        4 0.68318659E-02 0.12499482E+03</pdfrwt>
<pdfrwt beam="2">  1       -4 0.13531876E-01 0.12499482E+03</pdfrwt>
<totfact> 0.10295130E+04</totfact>
</mgrwt>
</event>
<event>
 5    1  0.3239419E-002  0.1249995E+03  0.7818608E-02  0.1235070E+00
          4   -1    0    0  501    0  0.00000000000E+00  0.00000000000E+00  0.77545123811E+01  0.78578217254E+01  0.12700000000E+01 0. -1.
         -4   -1    0    0    0  501 -0.00000000000E+00 -0.00000000000E+00 -0.50029780136E+03  0.50029941330E+03  0.12700000000E+01 0. -1.
         25    2    1    2    0    0  0.00000000000E+00  0.00000000000E+00 -0.49254328898E+03  0.50815723503E+03  0.12499953595E+03 0.  0.
    9000005    1    3    3    0    0 -0.38257420624E+02 -0.49175141594E+02 -0.26593522040E+03  0.27313799852E+03  0.10000000000E+01 0.  0.
    9000005    1    3    3    0    0  0.38257420624E+02  0.49175141594E+02 -0.22660806858E+03  0.23501923651E+03  0.10000000000E+01 0.  0.
<mgrwt>
<rscale>  0 0.12499954E+03</rscale>
<asrwt>0</asrwt>
<pdfrwt beam="1">  1        4 0.12010732E-02 0.12499954E+03</pdfrwt>
<pdfrwt beam="2">  1       -4 0.76976938E-01 0.12499954E+03</pdfrwt>
<totfact> 0.55237548E+03</totfact>
</mgrwt>
</event>
<event>
 5    1  0.3239419E-002  0.1249986E+03  0.7818608E-02  0.1235071E+00
          4   -1    0    0  501    0  0.00000000000E+00  0.00000000000E+00  0.13185340017E+02  0.13246361438E+02  0.12700000000E+01 0.  1.
         -4   -1    0    0    0  501 -0.00000000000E+00 -0.00000000000E+00 -0.29550424209E+03  0.29550697115E+03  0.12700000000E+01 0.  1.
         25    2    1    2    0    0  0.00000000000E+00  0.00000000000E+00 -0.28231890208E+03  0.30875333258E+03  0.12499863164E+03 0.  0.
    9000005    1    3    3    0    0 -0.21076431374E+02 -0.50373457637E+02 -0.66098128592E+02  0.85741843910E+02  0.10000000000E+01 0.  0.
    9000005    1    3    3    0    0  0.21076431374E+02  0.50373457637E+02 -0.21622077349E+03  0.22301148867E+03  0.10000000000E+01 0.  0.
<mgrwt>
<rscale>  0 0.12499863E+03</rscale>
<asrwt>0</asrwt>
<pdfrwt beam="1">  1        4 0.20334180E-02 0.12499863E+03</pdfrwt>
<pdfrwt beam="2">  1       -4 0.45467090E-01 0.12499863E+03</pdfrwt>
<totfact> 0.74516058E+03</totfact>
</mgrwt>
</event>
<event>
 5    1  0.3239419E-002  0.1250035E+03  0.7818608E-02  0.1235064E+00
         -4   -1    0    0    0  501 -0.00000000000E+00  0.00000000000E+00  0.10401120139E+01  0.16415641935E+01  0.12700000000E+01 0.  1.
          4   -1    0    0  501    0  0.00000000000E+00 -0.00000000000E+00 -0.29128502345E+04  0.29128505113E+04  0.12700000000E+01 0.  1.
         25    2    1    2    0    0  0.00000000000E+00  0.00000000000E+00 -0.29118101225E+04  0.29144920755E+04  0.12500347615E+03 0.  0.
    9000005    1    3    3    0    0 -0.27528781912E+02 -0.54984445188E+02 -0.17158932286E+04  0.17169949607E+04  0.10000000000E+01 0.  0.
    9000005    1    3    3    0    0  0.27528781912E+02  0.54984445188E+02 -0.11959168939E+04  0.11974971149E+04  0.10000000000E+01 0.  0.
<mgrwt>
<rscale>  0 0.12500348E+03</rscale>
<asrwt>0</asrwt>
<pdfrwt beam="2">  1        4 0.44817203E+00 0.12500348E+03</pdfrwt>
<pdfrwt beam="1">  1       -4 0.20630641E-03 0.12500348E+03</pdfrwt>
<totfact> 0.21676070E+02</totfact>
</mgrwt>
</event>
<event>
 5    1  0.3239419E-002  0.1250016E+03  0.7818608E-02  0.1235067E+00
          4   -1    0    0  501    0  0.00000000000E+00  0.00000000000E+00  0.43677151280E+02  0.43695611266E+02  0.12700000000E+01 0. -1.
         -4   -1    0    0    0  501 -0.00000000000E+00 -0.00000000000E+00 -0.89395124493E+02  0.89404145223E+02  0.12700000000E+01 0. -1.
         25    2    1    2    0    0  0.00000000000E+00  0.00000000000E+00 -0.45717973213E+02  0.13309975649E+03  0.12500164840E+03 0.  0.
    9000005    1    3    3    0    0  0.46424721752E+02  0.41830914639E+02 -0.23415142848E+02  0.66740910421E+02  0.10000000000E+01 0.  0.
    9000005    1    3    3    0    0 -0.46424721752E+02 -0.41830914639E+02 -0.22302830365E+02  0.66358846068E+02  0.10000000000E+01 0.  0.
<mgrwt>
<rscale>  0 0.12500165E+03</rscale>
<asrwt>0</asrwt>
<pdfrwt beam="1">  1        4 0.67216756E-02 0.12500165E+03</pdfrwt>
<pdfrwt beam="2">  1       -4 0.13755210E-01 0.12500165E+03</pdfrwt>
<totfact> 0.10277898E+04</totfact>
</mgrwt>
</event>
<event>
 5    1  0.3239419E-002  0.1249989E+03  0.7818608E-02  0.1235071E+00
         -4   -1    0    0    0  501 -0.00000000000E+00  0.00000000000E+00  0.16184902928E+02  0.16234653762E+02  0.12700000000E+01 0.  1.
          4   -1    0    0  501    0  0.00000000000E+00 -0.00000000000E+00 -0.24092551696E+03  0.24092886424E+03  0.12700000000E+01 0.  1.
         25    2    1    2    0    0  0.00000000000E+00  0.00000000000E+00 -0.22474061403E+03  0.25716351800E+03  0.12499892557E+03 0.  0.
    9000005    1    3    3    0    0  0.36068710438E+02 -0.50693499627E+02 -0.10030376720E+03  0.11803655575E+03  0.10000000000E+01 0.  0.
    9000005    1    3    3    0    0 -0.36068710438E+02  0.50693499627E+02 -0.12443684683E+03  0.13912696225E+03  0.10000000000E+01 0.  0.
<mgrwt>
<rscale>  0 0.12499893E+03</rscale>
<asrwt>0</asrwt>
<pdfrwt beam="2">  1        4 0.37069546E-01 0.12499893E+03</pdfrwt>
<pdfrwt beam="1">  1       -4 0.24940697E-02 0.12499893E+03</pdfrwt>
<totfact> 0.81307722E+03</totfact>
</mgrwt>
</event>
<event>
 5    1  0.3239419E-002  0.1249999E+03  0.7818608E-02  0.1235069E+00
         -4   -1    0    0    0  501 -0.00000000000E+00  0.00000000000E+00  0.37606438802E+03  0.37606653246E+03  0.12700000000E+01 0. -1.
          4   -1    0    0  501    0  0.00000000000E+00 -0.00000000000E+00 -0.10346160657E+02  0.10423816016E+02  0.12700000000E+01 0. -1.
         25    2    1    2    0    0  0.00000000000E+00  0.00000000000E+00  0.36571822736E+03  0.38649034848E+03  0.12499987056E+03 0.  0.
    9000005    1    3    3    0    0 -0.20315504324E+02  0.24474732971E+02  0.34917799553E+03  0.35062516287E+03  0.10000000000E+01 0.  0.
    9000005    1    3    3    0    0  0.20315504324E+02 -0.24474732971E+02  0.16540231828E+02  0.35865185610E+02  0.10000000000E+01 0.  0.
<mgrwt>
<rscale>  0 0.12499987E+03</rscale>
<asrwt>0</asrwt>
<pdfrwt beam="2">  1        4 0.15978555E-02 0.12499987E+03</pdfrwt>
<pdfrwt beam="1">  1       -4 0.57862195E-01 0.12499987E+03</pdfrwt>
<totfact> 0.65888466E+03</totfact>
</mgrwt>
</event>
<event>
 5    1  0.3239419E-002  0.1250041E+03  0.7818608E-02  0.1235063E+00
         -4   -1    0    0    0  501 -0.00000000000E+00  0.00000000000E+00  0.90264013042E+02  0.90272946947E+02  0.12700000000E+01 0. -1.
          4   -1    0    0  501    0  0.00000000000E+00 -0.00000000000E+00 -0.43258289057E+02  0.43276927711E+02  0.12700000000E+01 0. -1.
         25    2    1    2    0    0  0.00000000000E+00  0.00000000000E+00  0.47005723985E+02  0.13354987466E+03  0.12500412367E+03 0.  0.
    9000005    1    3    3    0    0 -0.15937293571E+00 -0.60525557549E+02  0.40127481408E+02  0.72626326359E+02  0.10000000000E+01 0.  0.
    9000005    1    3    3    0    0  0.15937293571E+00  0.60525557549E+02  0.68782425780E+01  0.60923548299E+02  0.10000000000E+01 0.  0.
<mgrwt>
<rscale>  0 0.12500412E+03</rscale>
<asrwt>0</asrwt>
<pdfrwt beam="2">  1        4 0.66572424E-02 0.12500412E+03</pdfrwt>
<pdfrwt beam="1">  1       -4 0.13888892E-01 0.12500412E+03</pdfrwt>
<totfact> 0.10267772E+04</totfact>
</mgrwt>
</event>
<event>
 5    1  0.3239419E-002  0.1250065E+03  0.7818608E-02  0.1235059E+00
         -4   -1    0    0    0  501 -0.00000000000E+00  0.00000000000E+00  0.10832183072E+03  0.10832927541E+03  0.12700000000E+01 0. -1.
          4   -1    0    0  501    0  0.00000000000E+00 -0.00000000000E+00 -0.36045401856E+02  0.36067768090E+02  0.12700000000E+01 0. -1.
         25    2    1    2    0    0  0.00000000000E+00  0.00000000000E+00  0.72276428866E+02  0.14439704350E+03  0.12500649584E+03 0.  0.
    9000005    1    3    3    0    0 -0.11755215703E+02  0.66336878716E+00  0.10703479811E+03  0.10768506471E+03  0.10000000000E+01 0.  0.
    9000005    1    3    3    0    0  0.11755215703E+02 -0.66336878716E+00 -0.34758369245E+02  0.36711978793E+02  0.10000000000E+01 0.  0.
<mgrwt>
<rscale>  0 0.12500650E+03</rscale>
<asrwt>0</asrwt>
<pdfrwt beam="2">  1        4 0.55477395E-02 0.12500650E+03</pdfrwt>
<pdfrwt beam="1">  1       -4 0.16667190E-01 0.12500650E+03</pdfrwt>
<totfact> 0.10041784E+04</totfact>
</mgrwt>
</event>
<event>
 5    1  0.3239419E-002  0.1249998E+03  0.7818608E-02  0.1235070E+00
         -4   -1    0    0    0  501 -0.00000000000E+00  0.00000000000E+00  0.45348181658E+02  0.45365961686E+02  0.12700000000E+01 0. -1.
          4   -1    0    0  501    0  0.00000000000E+00 -0.00000000000E+00 -0.86099493172E+02  0.86108859152E+02  0.12700000000E+01 0. -1.
         25    2    1    2    0    0  0.00000000000E+00  0.00000000000E+00 -0.40751311514E+02  0.13147482084E+03  0.12499983650E+03 0.  0.
    9000005    1    3    3    0    0  0.10730846890E+02  0.59871093282E+02 -0.35454993366E+02  0.70411330341E+02  0.10000000000E+01 0.  0.
    9000005    1    3    3    0    0 -0.10730846890E+02 -0.59871093282E+02 -0.52963181478E+01  0.61063490497E+02  0.10000000000E+01 0.  0.
<mgrwt>
<rscale>  0 0.12499984E+03</rscale>
<asrwt>0</asrwt>
<pdfrwt beam="2">  1        4 0.13248164E-01 0.12499984E+03</pdfrwt>
<pdfrwt beam="1">  1       -4 0.69787315E-02 0.12499984E+03</pdfrwt>
<totfact> 0.10312959E+04</totfact>
</mgrwt>
</event>
<event>
 5    1  0.3239419E-002  0.1250001E+03  0.7818608E-02  0.1235069E+00
          4   -1    0    0  501    0  0.00000000000E+00  0.00000000000E+00  0.85254765233E+02  0.85264224004E+02  0.12700000000E+01 0.  1.
         -4   -1    0    0    0  501 -0.00000000000E+00 -0.00000000000E+00 -0.45797796458E+02  0.45815402000E+02  0.12700000000E+01 0.  1.
         25    2    1    2    0    0  0.00000000000E+00  0.00000000000E+00  0.39456968775E+02  0.13107962600E+03  0.12500006387E+03 0.  0.
    9000005    1    3    3    0    0 -0.33359315840E+02  0.49712181646E+02  0.38519541876E+02  0.71196208212E+02  0.10000000000E+01 0.  0.
    9000005    1    3    3    0    0  0.33359315840E+02 -0.49712181646E+02  0.93742689879E+00  0.59883417793E+02  0.10000000000E+01 0.  0.
<mgrwt>
<rscale>  0 0.12500006E+03</rscale>
<asrwt>0</asrwt>
<pdfrwt beam="1">  1        4 0.13118200E-01 0.12500006E+03</pdfrwt>
<pdfrwt beam="2">  1       -4 0.70478967E-02 0.12500006E+03</pdfrwt>
<totfact> 0.10321368E+04</totfact>
</mgrwt>
</event>
<event>
 5    1  0.3239419E-002  0.1250017E+03  0.7818608E-02  0.1235067E+00
         -4   -1    0    0    0  501 -0.00000000000E+00  0.00000000000E+00  0.31789975846E+01  0.34232916386E+01  0.12700000000E+01 0. -1.
          4   -1    0    0  501    0  0.00000000000E+00 -0.00000000000E+00 -0.11830897763E+04  0.11830904579E+04  0.12700000000E+01 0. -1.
         25    2    1    2    0    0  0.00000000000E+00  0.00000000000E+00 -0.11799107787E+04  0.11865137496E+04  0.12500172890E+03 0.  0.
    9000005    1    3    3    0    0 -0.30617124203E+02 -0.38304693002E+02 -0.22224683459E+03  0.22759462490E+03  0.10000000000E+01 0.  0.
    9000005    1    3    3    0    0  0.30617124203E+02  0.38304693002E+02 -0.95766394412E+03  0.95891912468E+03  0.10000000000E+01 0.  0.
<mgrwt>
<rscale>  0 0.12500173E+03</rscale>
<asrwt>0</asrwt>
<pdfrwt beam="2">  1        4 0.18203232E+00 0.12500173E+03</pdfrwt>
<pdfrwt beam="1">  1       -4 0.50792178E-03 0.12500173E+03</pdfrwt>
<totfact> 0.25067616E+03</totfact>
</mgrwt>
</event>
<event>
 5    1  0.3239419E-002  0.1249996E+03  0.7818608E-02  0.1235070E+00
         -4   -1    0    0    0  501 -0.00000000000E+00  0.00000000000E+00  0.36261175908E+02  0.36283409131E+02  0.12700000000E+01 0.  1.
          4   -1    0    0  501    0  0.00000000000E+00 -0.00000000000E+00 -0.10766577850E+03  0.10767326855E+03  0.12700000000E+01 0.  1.
         25    2    1    2    0    0  0.00000000000E+00  0.00000000000E+00 -0.71404602594E+02  0.14395667768E+03  0.12499963111E+03 0.  0.
    9000005    1    3    3    0    0 -0.52183733005E+02 -0.14571657107E+02  0.16125665125E+00  0.54189493307E+02  0.10000000000E+01 0.  0.
    9000005    1    3    3    0    0  0.52183733005E+02  0.14571657107E+02 -0.71565859246E+02  0.89767184375E+02  0.10000000000E+01 0.  0.
<mgrwt>
<rscale>  0 0.12499963E+03</rscale>
<asrwt>0</asrwt>
<pdfrwt beam="2">  1        4 0.16566252E-01 0.12499963E+03</pdfrwt>
<pdfrwt beam="1">  1       -4 0.55809289E-02 0.12499963E+03</pdfrwt>
<totfact> 0.10052313E+04</totfact>
</mgrwt>
</event>
<event>
 5    1  0.3239419E-002  0.1249885E+03  0.7818608E-02  0.1235087E+00
         -4   -1    0    0    0  501 -0.00000000000E+00  0.00000000000E+00  0.17159701545E+03  0.17160171506E+03  0.12700000000E+01 0. -1.
          4   -1    0    0  501    0  0.00000000000E+00 -0.00000000000E+00 -0.22737180157E+02  0.22772620874E+02  0.12700000000E+01 0. -1.
         25    2    1    2    0    0  0.00000000000E+00  0.00000000000E+00  0.14885983529E+03  0.19437433593E+03  0.12498852710E+03 0.  0.
    9000005    1    3    3    0    0  0.49176254655E+02 -0.35540566888E+02  0.51201710206E+02  0.79398054413E+02  0.10000000000E+01 0.  0.
    9000005    1    3    3    0    0 -0.49176254655E+02  0.35540566888E+02  0.97658125084E+02  0.11497628152E+03  0.10000000000E+01 0.  0.
<mgrwt>
<rscale>  0 0.12498853E+03</rscale>
<asrwt>0</asrwt>
<pdfrwt beam="2">  1        4 0.35011154E-02 0.12498853E+03</pdfrwt>
<pdfrwt beam="1">  1       -4 0.26402629E-01 0.12498853E+03</pdfrwt>
<totfact> 0.91115119E+03</totfact>
</mgrwt>
</event>
<event>
 5    1  0.3239419E-002  0.1250066E+03  0.7818608E-02  0.1235059E+00
          4   -1    0    0  501    0  0.00000000000E+00  0.00000000000E+00  0.89609322798E+01  0.90504810548E+01  0.12700000000E+01 0. -1.
         -4   -1    0    0    0  501 -0.00000000000E+00 -0.00000000000E+00 -0.43370774793E+03  0.43370960736E+03  0.12700000000E+01 0. -1.
         25    2    1    2    0    0  0.00000000000E+00  0.00000000000E+00 -0.42474681565E+03  0.44276008842E+03  0.12500655377E+03 0.  0.
    9000005    1    3    3    0    0  0.23518670193E+02  0.45064677309E+02 -0.83606811050E+02  0.97852193856E+02  0.10000000000E+01 0.  0.
    9000005    1    3    3    0    0 -0.23518670193E+02 -0.45064677309E+02 -0.34114000460E+03  0.34490789456E+03  0.10000000000E+01 0.  0.
<mgrwt>
<rscale>  0 0.12500655E+03</rscale>
<asrwt>0</asrwt>
<pdfrwt beam="1">  1        4 0.13856367E-02 0.12500655E+03</pdfrwt>
<pdfrwt beam="2">  1       -4 0.66731284E-01 0.12500655E+03</pdfrwt>
<totfact> 0.60587411E+03</totfact>
</mgrwt>
</event>
<event>
 5    1  0.3239419E-002  0.1250005E+03  0.7818608E-02  0.1235068E+00
          4   -1    0    0  501    0  0.00000000000E+00  0.00000000000E+00  0.45982072888E+02  0.45999607901E+02  0.12700000000E+01 0. -1.
         -4   -1    0    0    0  501 -0.00000000000E+00 -0.00000000000E+00 -0.84913835666E+02  0.84923332409E+02  0.12700000000E+01 0. -1.
         25    2    1    2    0    0  0.00000000000E+00  0.00000000000E+00 -0.38931762778E+02  0.13092294031E+03  0.12500053659E+03 0.  0.
    9000005    1    3    3    0    0  0.47790906976E+02  0.39797318754E+02 -0.13053204005E+02  0.63554571073E+02  0.10000000000E+01 0.  0.
    9000005    1    3    3    0    0 -0.47790906976E+02 -0.39797318754E+02 -0.25878558774E+02  0.67368369237E+02  0.10000000000E+01 0.  0.
<mgrwt>
<rscale>  0 0.12500054E+03</rscale>
<asrwt>0</asrwt>
<pdfrwt beam="1">  1        4 0.70762444E-02 0.12500054E+03</pdfrwt>
<pdfrwt beam="2">  1       -4 0.13065746E-01 0.12500054E+03</pdfrwt>
<totfact> 0.10324617E+04</totfact>
</mgrwt>
</event>
<event>
 5    1  0.3239419E-002  0.1249969E+03  0.7818608E-02  0.1235074E+00
         -4   -1    0    0    0  501 -0.00000000000E+00  0.00000000000E+00  0.12672097446E+04  0.12672103810E+04  0.12700000000E+01 0. -1.
          4   -1    0    0  501    0  0.00000000000E+00 -0.00000000000E+00 -0.29509271192E+01  0.32126112219E+01  0.12700000000E+01 0. -1.
         25    2    1    2    0    0  0.00000000000E+00  0.00000000000E+00  0.12642588174E+04  0.12704229922E+04  0.12499688629E+03 0.  0.
    9000005    1    3    3    0    0  0.41951452948E+02 -0.14602932157E+02  0.10788539653E+04  0.10797685161E+04  0.10000000000E+01 0.  0.
    9000005    1    3    3    0    0 -0.41951452948E+02  0.14602932157E+02  0.18540485217E+03  0.19065447606E+03  0.10000000000E+01 0.  0.
<mgrwt>
<rscale>  0 0.12499689E+03</rscale>
<asrwt>0</asrwt>
<pdfrwt beam="2">  1        4 0.47416704E-03 0.12499689E+03</pdfrwt>
<pdfrwt beam="1">  1       -4 0.19497562E+00 0.12499689E+03</pdfrwt>
<totfact> 0.22939071E+03</totfact>
</mgrwt>
</event>
<event>
 5    1  0.3239419E-002  0.1250011E+03  0.7818608E-02  0.1235068E+00
          4   -1    0    0  501    0  0.00000000000E+00  0.00000000000E+00  0.35943561828E+03  0.35943786193E+03  0.12700000000E+01 0. -1.
         -4   -1    0    0    0  501 -0.00000000000E+00 -0.00000000000E+00 -0.10828531530E+02  0.10902751721E+02  0.12700000000E+01 0. -1.
         25    2    1    2    0    0  0.00000000000E+00  0.00000000000E+00  0.34860708675E+03  0.37034061365E+03  0.12500107674E+03 0.  0.
    9000005    1    3    3    0    0 -0.41586326851E+02 -0.39941704915E+01  0.31199549766E+03  0.31478177606E+03  0.10000000000E+01 0.  0.
    9000005    1    3    3    0    0  0.41586326851E+02  0.39941704915E+01  0.36611589094E+02  0.55558837595E+02  0.10000000000E+01 0.  0.
<mgrwt>
<rscale>  0 0.12500108E+03</rscale>
<asrwt>0</asrwt>
<pdfrwt beam="1">  1        4 0.55303669E-01 0.12500108E+03</pdfrwt>
<pdfrwt beam="2">  1       -4 0.16718098E-02 0.12500108E+03</pdfrwt>
<totfact> 0.67541708E+03</totfact>
</mgrwt>
</event>
<event>
 5    1  0.3239419E-002  0.1249974E+03  0.7818608E-02  0.1235073E+00
         -4   -1    0    0    0  501 -0.00000000000E+00  0.00000000000E+00  0.68735735869E+00  0.14440776082E+01  0.12700000000E+01 0.  1.
          4   -1    0    0  501    0  0.00000000000E+00 -0.00000000000E+00 -0.36644604931E+04  0.36644607132E+04  0.12700000000E+01 0.  1.
         25    2    1    2    0    0  0.00000000000E+00  0.00000000000E+00 -0.36637731357E+04  0.36659047908E+04  0.12499737955E+03 0.  0.
    9000005    1    3    3    0    0 -0.52388874906E+02  0.32126351754E+02 -0.21641978471E+04  0.21650704419E+04  0.10000000000E+01 0.  0.
    9000005    1    3    3    0    0  0.52388874906E+02 -0.32126351754E+02 -0.14995752886E+04  0.15008343489E+04  0.10000000000E+01 0.  0.
<mgrwt>
<rscale>  0 0.12499738E+03</rscale>
<asrwt>0</asrwt>
<pdfrwt beam="2">  1        4 0.56381129E+00 0.12499738E+03</pdfrwt>
<pdfrwt beam="1">  1       -4 0.16397640E-03 0.12499738E+03</pdfrwt>
<totfact> 0.37922152E+01</totfact>
</mgrwt>
</event>
<event>
 5    1  0.3239419E-002  0.1249999E+03  0.7818608E-02  0.1235069E+00
         -4   -1    0    0    0  501 -0.00000000000E+00  0.00000000000E+00  0.26350573504E+03  0.26350879549E+03  0.12700000000E+01 0.  1.
          4   -1    0    0  501    0  0.00000000000E+00 -0.00000000000E+00 -0.14793785021E+02  0.14848197711E+02  0.12700000000E+01 0.  1.
         25    2    1    2    0    0  0.00000000000E+00  0.00000000000E+00  0.24871195002E+03  0.27835699320E+03  0.12499992632E+03 0.  0.
    9000005    1    3    3    0    0  0.45623239813E+02 -0.13535820005E+02  0.34160092359E+02  0.58588483034E+02  0.10000000000E+01 0.  0.
    9000005    1    3    3    0    0 -0.45623239813E+02  0.13535820005E+02  0.21455185766E+03  0.21976851016E+03  0.10000000000E+01 0.  0.
<mgrwt>
<rscale>  0 0.12499993E+03</rscale>
<asrwt>0</asrwt>
<pdfrwt beam="2">  1        4 0.22803879E-02 0.12499993E+03</pdfrwt>
<pdfrwt beam="1">  1       -4 0.40543766E-01 0.12499993E+03</pdfrwt>
<totfact> 0.78396587E+03</totfact>
</mgrwt>
</event>
<event>
 5    1  0.3239419E-002  0.1249963E+03  0.7818608E-02  0.1235075E+00
         -4   -1    0    0    0  501 -0.00000000000E+00  0.00000000000E+00  0.17961544035E+02  0.18006386759E+02  0.12700000000E+01 0. -1.
          4   -1    0    0  501    0  0.00000000000E+00 -0.00000000000E+00 -0.21714778207E+03  0.21715149587E+03  0.12700000000E+01 0. -1.
         25    2    1    2    0    0  0.00000000000E+00  0.00000000000E+00 -0.19918623803E+03  0.23515788263E+03  0.12499628930E+03 0.  0.
    9000005    1    3    3    0    0 -0.53353259950E+02 -0.29197668458E+02 -0.12659144773E+03  0.14044738812E+03  0.10000000000E+01 0.  0.
    9000005    1    3    3    0    0  0.53353259950E+02  0.29197668458E+02 -0.72594790300E+02  0.94710494505E+02  0.10000000000E+01 0.  0.
<mgrwt>
<rscale>  0 0.12499629E+03</rscale>
<asrwt>0</asrwt>
<pdfrwt beam="2">  1        4 0.33411084E-01 0.12499629E+03</pdfrwt>
<pdfrwt beam="1">  1       -4 0.27670497E-02 0.12499629E+03</pdfrwt>
<totfact> 0.84530837E+03</totfact>
</mgrwt>
</event>
<event>
 5    1  0.3239419E-002  0.1249962E+03  0.7818608E-02  0.1235075E+00
         -4   -1    0    0    0  501 -0.00000000000E+00  0.00000000000E+00  0.10545741945E+02  0.10621938296E+02  0.12700000000E+01 0. -1.
          4   -1    0    0  501    0  0.00000000000E+00 -0.00000000000E+00 -0.36897705020E+03  0.36897923583E+03  0.12700000000E+01 0. -1.
         25    2    1    2    0    0  0.00000000000E+00  0.00000000000E+00 -0.35843130825E+03  0.37960117413E+03  0.12499619459E+03 0.  0.
    9000005    1    3    3    0    0  0.31858426253E+02  0.40977173704E+02 -0.28489478012E+03  0.28958612506E+03  0.10000000000E+01 0.  0.
    9000005    1    3    3    0    0 -0.31858426253E+02 -0.40977173704E+02 -0.73536528131E+02  0.90015049063E+02  0.10000000000E+01 0.  0.
<mgrwt>
<rscale>  0 0.12499619E+03</rscale>
<asrwt>0</asrwt>
<pdfrwt beam="2">  1        4 0.56771720E-01 0.12499619E+03</pdfrwt>
<pdfrwt beam="1">  1       -4 0.16284515E-02 0.12499619E+03</pdfrwt>
<totfact> 0.66591898E+03</totfact>
</mgrwt>
</event>
<event>
 5    1  0.3239419E-002  0.1249964E+03  0.7818608E-02  0.1235075E+00
         -4   -1    0    0    0  501 -0.00000000000E+00  0.00000000000E+00  0.37872217204E+02  0.37893505195E+02  0.12700000000E+01 0.  1.
          4   -1    0    0  501    0  0.00000000000E+00 -0.00000000000E+00 -0.10308279359E+03  0.10309061662E+03  0.12700000000E+01 0.  1.
         25    2    1    2    0    0  0.00000000000E+00  0.00000000000E+00 -0.65210576390E+02  0.14098412182E+03  0.12499641327E+03 0.  0.
    9000005    1    3    3    0    0  0.18959032255E+02 -0.30946926755E+02  0.24772495270E+02  0.43952630200E+02  0.10000000000E+01 0.  0.
    9000005    1    3    3    0    0 -0.18959032255E+02  0.30946926755E+02 -0.89983071660E+02  0.97031491615E+02  0.10000000000E+01 0.  0.
<mgrwt>
<rscale>  0 0.12499641E+03</rscale>
<asrwt>0</asrwt>
<pdfrwt beam="2">  1        4 0.15861131E-01 0.12499641E+03</pdfrwt>
<pdfrwt beam="1">  1       -4 0.58287343E-02 0.12499641E+03</pdfrwt>
<totfact> 0.10114047E+04</totfact>
</mgrwt>
</event>
<event>
 5    1  0.3239419E-002  0.1250023E+03  0.7818608E-02  0.1235066E+00
          4   -1    0    0  501    0  0.00000000000E+00  0.00000000000E+00  0.28699183764E+02  0.28727270123E+02  0.12700000000E+01 0.  1.
         -4   -1    0    0    0  501 -0.00000000000E+00 -0.00000000000E+00 -0.13601762584E+03  0.13602355472E+03  0.12700000000E+01 0.  1.
         25    2    1    2    0    0  0.00000000000E+00  0.00000000000E+00 -0.10731844207E+03  0.16475082484E+03  0.12500234509E+03 0.  0.
    9000005    1    3    3    0    0 -0.57441429751E+02  0.18662738683E+02 -0.74811943302E+02  0.96154264219E+02  0.10000000000E+01 0.  0.
    9000005    1    3    3    0    0  0.57441429751E+02 -0.18662738683E+02 -0.32506498772E+02  0.68596560624E+02  0.10000000000E+01 0.  0.
<mgrwt>
<rscale>  0 0.12500235E+03</rscale>
<asrwt>0</asrwt>
<pdfrwt beam="1">  1        4 0.44178757E-02 0.12500235E+03</pdfrwt>
<pdfrwt beam="2">  1       -4 0.20928405E-01 0.12500235E+03</pdfrwt>
<totfact> 0.96429523E+03</totfact>
</mgrwt>
</event>
<event>
 5    1  0.3239419E-002  0.1249992E+03  0.7818608E-02  0.1235071E+00
          4   -1    0    0  501    0  0.00000000000E+00  0.00000000000E+00  0.31036171792E+01  0.33534071621E+01  0.12700000000E+01 0.  1.
         -4   -1    0    0    0  501 -0.00000000000E+00 -0.00000000000E+00 -0.12096564985E+04  0.12096571652E+04  0.12700000000E+01 0.  1.
         25    2    1    2    0    0  0.00000000000E+00  0.00000000000E+00 -0.12065528813E+04  0.12130105724E+04  0.12499917273E+03 0.  0.
    9000005    1    3    3    0    0  0.55565284488E+02  0.22387173054E+02 -0.43063204105E+03  0.43477999165E+03  0.10000000000E+01 0.  0.
    9000005    1    3    3    0    0 -0.55565284488E+02 -0.22387173054E+02 -0.77592084029E+03  0.77823058071E+03  0.10000000000E+01 0.  0.
<mgrwt>
<rscale>  0 0.12499917E+03</rscale>
<asrwt>0</asrwt>
<pdfrwt beam="1">  1        4 0.49674643E-03 0.12499917E+03</pdfrwt>
<pdfrwt beam="2">  1       -4 0.18611990E+00 0.12499917E+03</pdfrwt>
<totfact> 0.24375219E+03</totfact>
</mgrwt>
</event>
<event>
 5    1  0.3239419E-002  0.1249995E+03  0.7818608E-02  0.1235070E+00
         -4   -1    0    0    0  501 -0.00000000000E+00  0.00000000000E+00  0.14071687973E+02  0.14128881852E+02  0.12700000000E+01 0. -1.
          4   -1    0    0  501    0  0.00000000000E+00 -0.00000000000E+00 -0.27697245561E+03  0.27697536726E+03  0.12700000000E+01 0. -1.
         25    2    1    2    0    0  0.00000000000E+00  0.00000000000E+00 -0.26290076764E+03  0.29110424911E+03  0.12499948090E+03 0.  0.
    9000005    1    3    3    0    0  0.40309737481E+02  0.15297444007E+00 -0.20241838730E+02  0.45117960638E+02  0.10000000000E+01 0.  0.
    9000005    1    3    3    0    0 -0.40309737481E+02 -0.15297444007E+00 -0.24265892891E+03  0.24598628847E+03  0.10000000000E+01 0.  0.
<mgrwt>
<rscale>  0 0.12499948E+03</rscale>
<asrwt>0</asrwt>
<pdfrwt beam="2">  1        4 0.42615766E-01 0.12499948E+03</pdfrwt>
<pdfrwt beam="1">  1       -4 0.21694988E-02 0.12499948E+03</pdfrwt>
<totfact> 0.76729315E+03</totfact>
</mgrwt>
</event>
<event>
 5    1  0.3239419E-002  0.1249665E+03  0.7818608E-02  0.1235122E+00
         -4   -1    0    0    0  501 -0.00000000000E+00  0.00000000000E+00  0.50141928538E+02  0.50158009306E+02  0.12700000000E+01 0. -1.
          4   -1    0    0  501    0  0.00000000000E+00 -0.00000000000E+00 -0.77828386338E+02  0.77838747549E+02  0.12700000000E+01 0. -1.
         25    2    1    2    0    0  0.00000000000E+00  0.00000000000E+00 -0.27686457800E+02  0.12799675685E+03  0.12496651479E+03 0.  0.
    9000005    1    3    3    0    0  0.11506437472E+02 -0.52020654397E+01 -0.76512653010E+02  0.77554146625E+02  0.10000000000E+01 0.  0.
    9000005    1    3    3    0    0 -0.11506437472E+02  0.52020654397E+01  0.48826195210E+02  0.50442610230E+02  0.10000000000E+01 0.  0.
<mgrwt>
<rscale>  0 0.12496651E+03</rscale>
<asrwt>0</asrwt>
<pdfrwt beam="2">  1        4 0.11975632E-01 0.12496651E+03</pdfrwt>
<pdfrwt beam="1">  1       -4 0.77161768E-02 0.12496651E+03</pdfrwt>
<totfact> 0.10395414E+04</totfact>
</mgrwt>
</event>
<event>
 5    1  0.3239419E-002  0.1249995E+03  0.7818608E-02  0.1235070E+00
         -4   -1    0    0    0  501 -0.00000000000E+00  0.00000000000E+00  0.11708462112E+03  0.11709150867E+03  0.12700000000E+01 0. -1.
          4   -1    0    0  501    0  0.00000000000E+00 -0.00000000000E+00 -0.33342404670E+02  0.33366582822E+02  0.12700000000E+01 0. -1.
         25    2    1    2    0    0  0.00000000000E+00  0.00000000000E+00  0.83742216447E+02  0.15045809149E+03  0.12499951392E+03 0.  0.
    9000005    1    3    3    0    0  0.58210433476E+02 -0.18544650261E+02  0.57696546133E+02  0.84037194471E+02  0.10000000000E+01 0.  0.
    9000005    1    3    3    0    0 -0.58210433476E+02  0.18544650261E+02  0.26045670314E+02  0.66420897019E+02  0.10000000000E+01 0.  0.
<mgrwt>
<rscale>  0 0.12499951E+03</rscale>
<asrwt>0</asrwt>
<pdfrwt beam="2">  1        4 0.51319905E-02 0.12499951E+03</pdfrwt>
<pdfrwt beam="1">  1       -4 0.18015408E-01 0.12499951E+03</pdfrwt>
<totfact> 0.99213548E+03</totfact>
</mgrwt>
</event>
<event>
 5    1  0.3239419E-002  0.1249970E+03  0.7818608E-02  0.1235074E+00
         -4   -1    0    0    0  501 -0.00000000000E+00  0.00000000000E+00  0.21896174140E+02  0.21932973851E+02  0.12700000000E+01 0.  1.
          4   -1    0    0  501    0  0.00000000000E+00 -0.00000000000E+00 -0.17820128765E+03  0.17820581310E+03  0.12700000000E+01 0.  1.
         25    2    1    2    0    0  0.00000000000E+00  0.00000000000E+00 -0.15630511351E+03  0.20013878695E+03  0.12499698208E+03 0.  0.
    9000005    1    3    3    0    0 -0.19955377293E+02  0.54603609905E+02 -0.11484962228E+03  0.12872920040E+03  0.10000000000E+01 0.  0.
    9000005    1    3    3    0    0  0.19955377293E+02 -0.54603609905E+02 -0.41455491234E+02  0.71409586549E+02  0.10000000000E+01 0.  0.
<mgrwt>
<rscale>  0 0.12499698E+03</rscale>
<asrwt>0</asrwt>
<pdfrwt beam="2">  1        4 0.27418761E-01 0.12499698E+03</pdfrwt>
<pdfrwt beam="1">  1       -4 0.33718212E-02 0.12499698E+03</pdfrwt>
<totfact> 0.90118190E+03</totfact>
</mgrwt>
</event>
<event>
 5    1  0.3239419E-002  0.1249990E+03  0.7818608E-02  0.1235071E+00
         -4   -1    0    0    0  501 -0.00000000000E+00  0.00000000000E+00  0.15206754135E+03  0.15207284449E+03  0.12700000000E+01 0. -1.
          4   -1    0    0  501    0  0.00000000000E+00 -0.00000000000E+00 -0.25665749442E+02  0.25697151485E+02  0.12700000000E+01 0. -1.
         25    2    1    2    0    0  0.00000000000E+00  0.00000000000E+00  0.12640179190E+03  0.17776999597E+03  0.12499903388E+03 0.  0.
    9000005    1    3    3    0    0  0.15150249580E+02 -0.35552572520E+02  0.13304200381E+03  0.13854490338E+03  0.10000000000E+01 0.  0.
    9000005    1    3    3    0    0 -0.15150249580E+02  0.35552572520E+02 -0.66402119021E+01  0.39225092597E+02  0.10000000000E+01 0.  0.
<mgrwt>
<rscale>  0 0.12499903E+03</rscale>
<asrwt>0</asrwt>
<pdfrwt beam="2">  1        4 0.39514003E-02 0.12499903E+03</pdfrwt>
<pdfrwt beam="1">  1       -4 0.23397830E-01 0.12499903E+03</pdfrwt>
<totfact> 0.94021995E+03</totfact>
</mgrwt>
</event>
<event>
 5    1  0.3239419E-002  0.1250001E+03  0.7818608E-02  0.1235069E+00
          4   -1    0    0  501    0  0.00000000000E+00  0.00000000000E+00  0.40850544287E+01  0.42779165123E+01  0.12700000000E+01 0. -1.
         -4   -1    0    0    0  501 -0.00000000000E+00 -0.00000000000E+00 -0.93398561914E+03  0.93398648259E+03  0.12700000000E+01 0. -1.
         25    2    1    2    0    0  0.00000000000E+00  0.00000000000E+00 -0.92990056472E+03  0.93826439911E+03  0.12500008949E+03 0.  0.
    9000005    1    3    3    0    0  0.17097788953E+02  0.38145946833E+00 -0.13785269553E+02  0.21988941654E+02  0.10000000000E+01 0.  0.
    9000005    1    3    3    0    0 -0.17097788953E+02 -0.38145946833E+00 -0.91611529516E+03  0.91627545745E+03  0.10000000000E+01 0.  0.
<mgrwt>
<rscale>  0 0.12500009E+03</rscale>
<asrwt>0</asrwt>
<pdfrwt beam="1">  1        4 0.64337262E-03 0.12500009E+03</pdfrwt>
<pdfrwt beam="2">  1       -4 0.14370483E+00 0.12500009E+03</pdfrwt>
<totfact> 0.32736306E+03</totfact>
</mgrwt>
</event>
<event>
 5    1  0.3239419E-002  0.1249981E+03  0.7818608E-02  0.1235072E+00
         -4   -1    0    0    0  501 -0.00000000000E+00  0.00000000000E+00  0.27423139687E+03  0.27423433762E+03  0.12700000000E+01 0. -1.
          4   -1    0    0  501    0  0.00000000000E+00 -0.00000000000E+00 -0.14212588615E+02  0.14269217748E+02  0.12700000000E+01 0. -1.
         25    2    1    2    0    0  0.00000000000E+00  0.00000000000E+00  0.26001880826E+03  0.28850355537E+03  0.12499808324E+03 0.  0.
    9000005    1    3    3    0    0  0.28811583663E+01 -0.56345340990E+02  0.19202857305E+03  0.20014762400E+03  0.10000000000E+01 0.  0.
    9000005    1    3    3    0    0 -0.28811583663E+01  0.56345340990E+02  0.67990235207E+02  0.88355931370E+02  0.10000000000E+01 0.  0.
<mgrwt>
<rscale>  0 0.12499808E+03</rscale>
<asrwt>0</asrwt>
<pdfrwt beam="2">  1        4 0.21911346E-02 0.12499808E+03</pdfrwt>
<pdfrwt beam="1">  1       -4 0.42194025E-01 0.12499808E+03</pdfrwt>
<totfact> 0.77067221E+03</totfact>
</mgrwt>
</event>
<event>
 5    1  0.3239419E-002  0.1250028E+03  0.7818608E-02  0.1235065E+00
         -4   -1    0    0    0  501 -0.00000000000E+00  0.00000000000E+00  0.30710555344E+02  0.30736803828E+02  0.12700000000E+01 0. -1.
          4   -1    0    0  501    0  0.00000000000E+00 -0.00000000000E+00 -0.12711765986E+03  0.12712400382E+03  0.12700000000E+01 0. -1.
         25    2    1    2    0    0  0.00000000000E+00  0.00000000000E+00 -0.96407104515E+02  0.15786080765E+03  0.12500281913E+03 0.  0.
    9000005    1    3    3    0    0 -0.47203654651E+02  0.22953586402E+02 -0.53709902461E+01  0.52772148690E+02  0.10000000000E+01 0.  0.
    9000005    1    3    3    0    0  0.47203654651E+02 -0.22953586402E+02 -0.91036114269E+02  0.10508865896E+03  0.10000000000E+01 0.  0.
<mgrwt>
<rscale>  0 0.12500282E+03</rscale>
<asrwt>0</asrwt>
<pdfrwt beam="2">  1        4 0.19559070E-01 0.12500282E+03</pdfrwt>
<pdfrwt beam="1">  1       -4 0.47272080E-02 0.12500282E+03</pdfrwt>
<totfact> 0.97750601E+03</totfact>
</mgrwt>
</event>
<event>
 5    1  0.3239419E-002  0.1249997E+03  0.7818608E-02  0.1235070E+00
          4   -1    0    0  501    0  0.00000000000E+00  0.00000000000E+00  0.50965068097E+02  0.50980889224E+02  0.12700000000E+01 0. -1.
         -4   -1    0    0    0  501 -0.00000000000E+00 -0.00000000000E+00 -0.76612230113E+02  0.76622755777E+02  0.12700000000E+01 0. -1.
         25    2    1    2    0    0  0.00000000000E+00  0.00000000000E+00 -0.25647162016E+02  0.12760364500E+03  0.12499965319E+03 0.  0.
    9000005    1    3    3    0    0 -0.43696403533E+02 -0.33851188621E+01 -0.58298107163E+02  0.72941785077E+02  0.10000000000E+01 0.  0.
    9000005    1    3    3    0    0  0.43696403533E+02  0.33851188621E+01  0.32650945147E+02  0.54661859924E+02  0.10000000000E+01 0.  0.
<mgrwt>
<rscale>  0 0.12499965E+03</rscale>
<asrwt>0</asrwt>
<pdfrwt beam="1">  1        4 0.78428064E-02 0.12499965E+03</pdfrwt>
<pdfrwt beam="2">  1       -4 0.11788524E-01 0.12499965E+03</pdfrwt>
<totfact> 0.10396138E+04</totfact>
</mgrwt>
</event>
<event>
 5    1  0.3239419E-002  0.1249950E+03  0.7818608E-02  0.1235077E+00
         -4   -1    0    0    0  501 -0.00000000000E+00  0.00000000000E+00  0.12044393201E+04  0.12044399897E+04  0.12700000000E+01 0.  1.
          4   -1    0    0  501    0  0.00000000000E+00 -0.00000000000E+00 -0.31179142825E+01  0.33666436510E+01  0.12700000000E+01 0.  1.
         25    2    1    2    0    0  0.00000000000E+00  0.00000000000E+00  0.12013214058E+04  0.12078066333E+04  0.12499497352E+03 0.  0.
    9000005    1    3    3    0    0  0.42726322348E+02 -0.42053747237E+02  0.43028763056E+03  0.43444504979E+03  0.10000000000E+01 0.  0.
    9000005    1    3    3    0    0 -0.42726322348E+02  0.42053747237E+02  0.77103377527E+03  0.77336158353E+03  0.10000000000E+01 0.  0.
<mgrwt>
<rscale>  0 0.12499497E+03</rscale>
<asrwt>0</asrwt>
<pdfrwt beam="2">  1        4 0.49886340E-03 0.12499497E+03</pdfrwt>
<pdfrwt beam="1">  1       -4 0.18531763E+00 0.12499497E+03</pdfrwt>
<totfact> 0.24511993E+03</totfact>
</mgrwt>
</event>
<event>
 5    1  0.3239419E-002  0.1250025E+03  0.7818608E-02  0.1235065E+00
          4   -1    0    0  501    0  0.00000000000E+00  0.00000000000E+00  0.14062466053E+02  0.14119697287E+02  0.12700000000E+01 0. -1.
         -4   -1    0    0    0  501 -0.00000000000E+00 -0.00000000000E+00 -0.27716668183E+03  0.27716959144E+03  0.12700000000E+01 0. -1.
         25    2    1    2    0    0  0.00000000000E+00  0.00000000000E+00 -0.26310421578E+03  0.29128928872E+03  0.12500248544E+03 0.  0.
    9000005    1    3    3    0    0 -0.33404377973E+02 -0.52741925957E+02 -0.12502647551E+03  0.13975043041E+03  0.10000000000E+01 0.  0.
    9000005    1    3    3    0    0  0.33404377973E+02  0.52741925957E+02 -0.13807774027E+03  0.15153885832E+03  0.10000000000E+01 0.  0.
<mgrwt>
<rscale>  0 0.12500249E+03</rscale>
<asrwt>0</asrwt>
<pdfrwt beam="1">  1        4 0.21680827E-02 0.12500249E+03</pdfrwt>
<pdfrwt beam="2">  1       -4 0.42645650E-01 0.12500249E+03</pdfrwt>
<totfact> 0.76700416E+03</totfact>
</mgrwt>
</event>
<event>
 4    1  0.3239419E-002  0.1240201E+03  0.7818608E-02  0.1236609E+00
          4   -1    0    0  501    0  0.00000000000E+00  0.00000000000E+00  0.22058145130E+03  0.22058510729E+03  0.12700000000E+01 0. -1.
         -4   -1    0    0    0  501 -0.00000000000E+00 -0.00000000000E+00 -0.17405390703E+02  0.17451662543E+02  0.12700000000E+01 0. -1.
    9000005    1    1    2    0    0  0.75528923857E+01  0.20476936862E+02 -0.97981388830E+01  0.23944825166E+02  0.10000000000E+01 0.  0.
    9000005    1    1    2    0    0 -0.75528923857E+01 -0.20476936862E+02  0.21297419948E+03  0.21409194467E+03  0.10000000000E+01 0.  0.
<mgrwt>
<rscale>  0 0.12402013E+03</rscale>
<asrwt>0</asrwt>
<pdfrwt beam="1">  1        4 0.33939447E-01 0.12402013E+03</pdfrwt>
<pdfrwt beam="2">  1       -4 0.26815931E-02 0.12402013E+03</pdfrwt>
<totfact> 0.85954609E+03</totfact>
</mgrwt>
</event>
<event>
 5    1  0.3239419E-002  0.1250381E+03  0.7818608E-02  0.1235010E+00
          4   -1    0    0  501    0  0.00000000000E+00  0.00000000000E+00  0.23173048933E+02  0.23207824044E+02  0.12700000000E+01 0.  1.
         -4   -1    0    0    0  501 -0.00000000000E+00 -0.00000000000E+00 -0.16850778948E+03  0.16851257524E+03  0.12700000000E+01 0.  1.
         25    2    1    2    0    0  0.00000000000E+00  0.00000000000E+00 -0.14533474055E+03  0.19172039929E+03  0.12503809297E+03 0.  0.
    9000005    1    3    3    0    0  0.52348790309E+02  0.94625800215E+01 -0.22331926895E+02  0.57703130126E+02  0.10000000000E+01 0.  0.
    9000005    1    3    3    0    0 -0.52348790309E+02 -0.94625800215E+01 -0.12300281365E+03  0.13401726916E+03  0.10000000000E+01 0.  0.
<mgrwt>
<rscale>  0 0.12503809E+03</rscale>
<asrwt>0</asrwt>
<pdfrwt beam="1">  1        4 0.35681277E-02 0.12503809E+03</pdfrwt>
<pdfrwt beam="2">  1       -4 0.25927318E-01 0.12503809E+03</pdfrwt>
<totfact> 0.91470770E+03</totfact>
</mgrwt>
</event>
<event>
 4    1  0.3239419E-002  0.1250634E+03  0.7818608E-02  0.1234970E+00
         -4   -1    0    0    0  501 -0.00000000000E+00  0.00000000000E+00  0.54194783832E+03  0.54194932637E+03  0.12700000000E+01 0. -1.
          4   -1    0    0  501    0  0.00000000000E+00 -0.00000000000E+00 -0.71577149351E+01  0.72695105126E+01  0.12700000000E+01 0. -1.
    9000005    1    1    2    0    0  0.31481480399E+02  0.48699307879E+02  0.37005789365E+03  0.37457516048E+03  0.10000000000E+01 0.  0.
    9000005    1    1    2    0    0 -0.31481480399E+02 -0.48699307879E+02  0.16473222973E+03  0.17464367640E+03  0.10000000000E+01 0.  0.
<mgrwt>
<rscale>  0 0.12506340E+03</rscale>
<asrwt>0</asrwt>
<pdfrwt beam="2">  1        4 0.11099007E-02 0.12506340E+03</pdfrwt>
<pdfrwt beam="1">  1       -4 0.83385327E-01 0.12506340E+03</pdfrwt>
<totfact> 0.52165756E+03</totfact>
</mgrwt>
</event>
<event>
 5    1  0.3239419E-002  0.1249956E+03  0.7818608E-02  0.1235076E+00
          4   -1    0    0  501    0  0.00000000000E+00  0.00000000000E+00  0.11413155117E+02  0.11483597421E+02  0.12700000000E+01 0.  1.
         -4   -1    0    0    0  501 -0.00000000000E+00 -0.00000000000E+00 -0.34110991192E+03  0.34111227610E+03  0.12700000000E+01 0.  1.
         25    2    1    2    0    0  0.00000000000E+00  0.00000000000E+00 -0.32969675680E+03  0.35259587353E+03  0.12499559425E+03 0.  0.
    9000005    1    3    3    0    0 -0.39902477176E+02 -0.66435535747E+01 -0.29920663818E+03  0.30193038406E+03  0.10000000000E+01 0.  0.
    9000005    1    3    3    0    0  0.39902477176E+02  0.66435535747E+01 -0.30490118620E+02  0.50665489461E+02  0.10000000000E+01 0.  0.
<mgrwt>
<rscale>  0 0.12499559E+03</rscale>
<asrwt>0</asrwt>
<pdfrwt beam="1">  1        4 0.17614708E-02 0.12499559E+03</pdfrwt>
<pdfrwt beam="2">  1       -4 0.52484041E-01 0.12499559E+03</pdfrwt>
<totfact> 0.69446693E+03</totfact>
</mgrwt>
</event>
<event>
 5    1  0.3239419E-002  0.1249985E+03  0.7818608E-02  0.1235072E+00
          4   -1    0    0  501    0  0.00000000000E+00  0.00000000000E+00  0.34903209629E+02  0.34926307311E+02  0.12700000000E+01 0.  1.
         -4   -1    0    0    0  501 -0.00000000000E+00 -0.00000000000E+00 -0.11185019013E+03  0.11185739998E+03  0.12700000000E+01 0.  1.
         25    2    1    2    0    0  0.00000000000E+00  0.00000000000E+00 -0.76946980497E+02  0.14678370729E+03  0.12499847567E+03 0.  0.
    9000005    1    3    3    0    0 -0.59135013691E+00 -0.59207835732E+02 -0.61936766204E+02  0.85691776238E+02  0.10000000000E+01 0.  0.
    9000005    1    3    3    0    0  0.59135013691E+00  0.59207835732E+02 -0.15010214292E+02  0.61091931056E+02  0.10000000000E+01 0.  0.
<mgrwt>
<rscale>  0 0.12499848E+03</rscale>
<asrwt>0</asrwt>
<pdfrwt beam="1">  1        4 0.53720560E-02 0.12499848E+03</pdfrwt>
<pdfrwt beam="2">  1       -4 0.17210053E-01 0.12499848E+03</pdfrwt>
<totfact> 0.99952156E+03</totfact>
</mgrwt>
</event>
<event>
 5    1  0.3239419E-002  0.1250014E+03  0.7818608E-02  0.1235067E+00
         -4   -1    0    0    0  501 -0.00000000000E+00  0.00000000000E+00  0.50515359399E+03  0.50515519043E+03  0.12700000000E+01 0. -1.
          4   -1    0    0  501    0  0.00000000000E+00 -0.00000000000E+00 -0.76792096858E+01  0.77835185745E+01  0.12700000000E+01 0. -1.
         25    2    1    2    0    0  0.00000000000E+00  0.00000000000E+00  0.49747438430E+03  0.51293870901E+03  0.12500142463E+03 0.  0.
    9000005    1    3    3    0    0 -0.55863170461E+02  0.26372948923E+02  0.21000067819E+03  0.21890068774E+03  0.10000000000E+01 0.  0.
    9000005    1    3    3    0    0  0.55863170461E+02 -0.26372948923E+02  0.28747370611E+03  0.29403802127E+03  0.10000000000E+01 0.  0.
<mgrwt>
<rscale>  0 0.12500142E+03</rscale>
<asrwt>0</asrwt>
<pdfrwt beam="2">  1        4 0.11895632E-02 0.12500142E+03</pdfrwt>
<pdfrwt beam="1">  1       -4 0.77724103E-01 0.12500142E+03</pdfrwt>
<totfact> 0.54872545E+03</totfact>
</mgrwt>
</event>
<event>
 5    1  0.3239419E-002  0.1249907E+03  0.7818608E-02  0.1235084E+00
          4   -1    0    0  501    0  0.00000000000E+00  0.00000000000E+00  0.17728610678E+03  0.17729065558E+03  0.12700000000E+01 0.  1.
         -4   -1    0    0    0  501 -0.00000000000E+00 -0.00000000000E+00 -0.22007179344E+02  0.22043793745E+02  0.12700000000E+01 0.  1.
         25    2    1    2    0    0  0.00000000000E+00  0.00000000000E+00  0.15527892744E+03  0.19933444933E+03  0.12499070919E+03 0.  0.
    9000005    1    3    3    0    0  0.27810992531E+01  0.40296984428E+02  0.16046053084E+01  0.40437064993E+02  0.10000000000E+01 0.  0.
    9000005    1    3    3    0    0 -0.27810992531E+01 -0.40296984428E+02  0.15367432213E+03  0.15889738434E+03  0.10000000000E+01 0.  0.
<mgrwt>
<rscale>  0 0.12499071E+03</rscale>
<asrwt>0</asrwt>
<pdfrwt beam="1">  1        4 0.27277952E-01 0.12499071E+03</pdfrwt>
<pdfrwt beam="2">  1       -4 0.33888863E-02 0.12499071E+03</pdfrwt>
<totfact> 0.90266645E+03</totfact>
</mgrwt>
</event>
<event>
 5    1  0.3239419E-002  0.1249944E+03  0.7818608E-02  0.1235078E+00
         -4   -1    0    0    0  501 -0.00000000000E+00  0.00000000000E+00  0.25832364454E+02  0.25863564203E+02  0.12700000000E+01 0. -1.
          4   -1    0    0  501    0  0.00000000000E+00 -0.00000000000E+00 -0.15107661187E+03  0.15108194979E+03  0.12700000000E+01 0. -1.
         25    2    1    2    0    0  0.00000000000E+00  0.00000000000E+00 -0.12524424741E+03  0.17694551400E+03  0.12499437353E+03 0.  0.
    9000005    1    3    3    0    0 -0.48906232030E+01 -0.28584249578E+02  0.15736691782E+02  0.33009407561E+02  0.10000000000E+01 0.  0.
    9000005    1    3    3    0    0  0.48906232030E+01  0.28584249578E+02 -0.14098093920E+03  0.14393610644E+03  0.10000000000E+01 0.  0.
<mgrwt>
<rscale>  0 0.12499437E+03</rscale>
<asrwt>0</asrwt>
<pdfrwt beam="2">  1        4 0.23245366E-01 0.12499437E+03</pdfrwt>
<pdfrwt beam="1">  1       -4 0.39770206E-02 0.12499437E+03</pdfrwt>
<totfact> 0.94181613E+03</totfact>
</mgrwt>
</event>
<event>
 5    1  0.3239419E-002  0.1250028E+03  0.7818608E-02  0.1235065E+00
         -4   -1    0    0    0  501 -0.00000000000E+00  0.00000000000E+00  0.99919319759E+02  0.99927390445E+02  0.12700000000E+01 0.  1.
          4   -1    0    0  501    0  0.00000000000E+00 -0.00000000000E+00 -0.39075850882E+02  0.39096483502E+02  0.12700000000E+01 0.  1.
         25    2    1    2    0    0  0.00000000000E+00  0.00000000000E+00  0.60843468876E+02  0.13902387395E+03  0.12500283926E+03 0.  0.
    9000005    1    3    3    0    0 -0.42962774232E+02  0.27962553514E+02  0.70176379435E+02  0.86910463118E+02  0.10000000000E+01 0.  0.
    9000005    1    3    3    0    0  0.42962774232E+02 -0.27962553514E+02 -0.93329105584E+01  0.52113410829E+02  0.10000000000E+01 0.  0.
<mgrwt>
<rscale>  0 0.12500284E+03</rscale>
<asrwt>0</asrwt>
<pdfrwt beam="2">  1        4 0.60138775E-02 0.12500284E+03</pdfrwt>
<pdfrwt beam="1">  1       -4 0.15374411E-01 0.12500284E+03</pdfrwt>
<totfact> 0.10153207E+04</totfact>
</mgrwt>
</event>
<event>
 5    1  0.3239419E-002  0.1249997E+03  0.7818608E-02  0.1235070E+00
         -4   -1    0    0    0  501 -0.00000000000E+00  0.00000000000E+00  0.10822768623E+03  0.10823513739E+03  0.12700000000E+01 0.  1.
          4   -1    0    0  501    0  0.00000000000E+00 -0.00000000000E+00 -0.36072855646E+02  0.36095204868E+02  0.12700000000E+01 0.  1.
         25    2    1    2    0    0  0.00000000000E+00  0.00000000000E+00  0.72154830581E+02  0.14433034226E+03  0.12499971248E+03 0.  0.
    9000005    1    3    3    0    0 -0.60103705476E+02  0.10775526459E+02  0.20730416702E+02  0.64492771371E+02  0.10000000000E+01 0.  0.
    9000005    1    3    3    0    0  0.60103705476E+02 -0.10775526459E+02  0.51424413880E+02  0.79837570888E+02  0.10000000000E+01 0.  0.
<mgrwt>
<rscale>  0 0.12499971E+03</rscale>
<asrwt>0</asrwt>
<pdfrwt beam="2">  1        4 0.55519625E-02 0.12499971E+03</pdfrwt>
<pdfrwt beam="1">  1       -4 0.16652705E-01 0.12499971E+03</pdfrwt>
<totfact> 0.10044677E+04</totfact>
</mgrwt>
</event>
<event>
 5    1  0.3239419E-002  0.1250190E+03  0.7818608E-02  0.1235040E+00
         -4   -1    0    0    0  501 -0.00000000000E+00  0.00000000000E+00  0.87741753450E+01  0.88656106944E+01  0.12700000000E+01 0. -1.
          4   -1    0    0  501    0  0.00000000000E+00 -0.00000000000E+00 -0.44293298629E+03  0.44293480699E+03  0.12700000000E+01 0. -1.
         25    2    1    2    0    0  0.00000000000E+00  0.00000000000E+00 -0.43415881095E+03  0.45180041769E+03  0.12501897576E+03 0.  0.
    9000005    1    3    3    0    0 -0.20763088383E+02  0.57161572542E+02 -0.26918473207E+03  0.27597096078E+03  0.10000000000E+01 0.  0.
    9000005    1    3    3    0    0  0.20763088383E+02 -0.57161572542E+02 -0.16497407888E+03  0.17582945691E+03  0.10000000000E+01 0.  0.
<mgrwt>
<rscale>  0 0.12501898E+03</rscale>
<asrwt>0</asrwt>
<pdfrwt beam="2">  1        4 0.68150693E-01 0.12501898E+03</pdfrwt>
<pdfrwt beam="1">  1       -4 0.13570470E-02 0.12501898E+03</pdfrwt>
<totfact> 0.59783159E+03</totfact>
</mgrwt>
</event>
<event>
 5    1  0.3239419E-002  0.1250005E+03  0.7818608E-02  0.1235068E+00
         -4   -1    0    0    0  501 -0.00000000000E+00  0.00000000000E+00  0.10628165459E+03  0.10628924217E+03  0.12700000000E+01 0.  1.
          4   -1    0    0  501    0  0.00000000000E+00 -0.00000000000E+00 -0.36734204918E+02  0.36756152015E+02  0.12700000000E+01 0.  1.
         25    2    1    2    0    0  0.00000000000E+00  0.00000000000E+00  0.69547449671E+02  0.14304539419E+03  0.12500054817E+03 0.  0.
    9000005    1    3    3    0    0  0.33280593353E+02 -0.39829302786E+02 -0.50544267640E+01  0.52158589746E+02  0.10000000000E+01 0.  0.
    9000005    1    3    3    0    0 -0.33280593353E+02  0.39829302786E+02  0.74601876435E+02  0.90886804444E+02  0.10000000000E+01 0.  0.
<mgrwt>
<rscale>  0 0.12500055E+03</rscale>
<asrwt>0</asrwt>
<pdfrwt beam="2">  1        4 0.56536881E-02 0.12500055E+03</pdfrwt>
<pdfrwt beam="1">  1       -4 0.16353295E-01 0.12500055E+03</pdfrwt>
<totfact> 0.10070729E+04</totfact>
</mgrwt>
</event>
<event>
 5    1  0.3239419E-002  0.1250010E+03  0.7818608E-02  0.1235068E+00
         -4   -1    0    0    0  501 -0.00000000000E+00  0.00000000000E+00  0.96334626471E+02  0.96342997448E+02  0.12700000000E+01 0. -1.
          4   -1    0    0  501    0  0.00000000000E+00 -0.00000000000E+00 -0.40529326192E+02  0.40549219247E+02  0.12700000000E+01 0. -1.
         25    2    1    2    0    0  0.00000000000E+00  0.00000000000E+00  0.55805300279E+02  0.13689221670E+03  0.12500098981E+03 0.  0.
    9000005    1    3    3    0    0  0.51336129118E+01  0.24473515438E+02  0.90622145009E+02  0.94014254799E+02  0.10000000000E+01 0.  0.
    9000005    1    3    3    0    0 -0.51336129118E+01 -0.24473515438E+02 -0.34816844730E+02  0.42877961896E+02  0.10000000000E+01 0.  0.
<mgrwt>
<rscale>  0 0.12500099E+03</rscale>
<asrwt>0</asrwt>
<pdfrwt beam="2">  1        4 0.62374552E-02 0.12500099E+03</pdfrwt>
<pdfrwt beam="1">  1       -4 0.14822886E-01 0.12500099E+03</pdfrwt>
<totfact> 0.10198112E+04</totfact>
</mgrwt>
</event>
<event>
 4    1  0.3239419E-002  0.1250676E+03  0.7818608E-02  0.1234964E+00
          4   -1    0    0  501    0  0.00000000000E+00  0.00000000000E+00  0.76373989821E+01  0.77422711921E+01  0.12700000000E+01 0.  1.
         -4   -1    0    0    0  501 -0.00000000000E+00 -0.00000000000E+00 -0.50841962151E+03  0.50842120770E+03  0.12700000000E+01 0.  1.
    9000005    1    1    2    0    0  0.86719725914E+01  0.59519792517E+02 -0.32087437437E+03  0.32646465802E+03  0.10000000000E+01 0.  0.
    9000005    1    1    2    0    0 -0.86719725914E+01 -0.59519792517E+02 -0.17990784817E+03  0.18969882088E+03  0.10000000000E+01 0.  0.
<mgrwt>
<rscale>  0 0.12506759E+03</rscale>
<asrwt>0</asrwt>
<pdfrwt beam="1">  1        4 0.11831740E-02 0.12506759E+03</pdfrwt>
<pdfrwt beam="2">  1       -4 0.78226566E-01 0.12506759E+03</pdfrwt>
<totfact> 0.54550669E+03</totfact>
</mgrwt>
</event>
<event>
 5    1  0.3239419E-002  0.1249977E+03  0.7818608E-02  0.1235073E+00
          4   -1    0    0  501    0  0.00000000000E+00  0.00000000000E+00  0.26257932576E+03  0.26258239701E+03  0.12700000000E+01 0.  1.
         -4   -1    0    0    0  501 -0.00000000000E+00 -0.00000000000E+00 -0.14845647868E+02  0.14899871161E+02  0.12700000000E+01 0.  1.
         25    2    1    2    0    0  0.00000000000E+00  0.00000000000E+00  0.24773367790E+03  0.27748226817E+03  0.12499773592E+03 0.  0.
    9000005    1    3    3    0    0 -0.27044711736E+02  0.47322680616E+02  0.19171936622E+03  0.19931926128E+03  0.10000000000E+01 0.  0.
    9000005    1    3    3    0    0  0.27044711736E+02 -0.47322680616E+02  0.56014311680E+02  0.78163006893E+02  0.10000000000E+01 0.  0.
<mgrwt>
<rscale>  0 0.12499774E+03</rscale>
<asrwt>0</asrwt>
<pdfrwt beam="1">  1        4 0.40401222E-01 0.12499774E+03</pdfrwt>
<pdfrwt beam="2">  1       -4 0.22883534E-02 0.12499774E+03</pdfrwt>
<totfact> 0.78517081E+03</totfact>
</mgrwt>
</event>
<event>
 5    1  0.3239419E-002  0.1250015E+03  0.7818608E-02  0.1235067E+00
          4   -1    0    0  501    0  0.00000000000E+00  0.00000000000E+00  0.87653192156E+02  0.87662392137E+02  0.12700000000E+01 0. -1.
         -4   -1    0    0    0  501 -0.00000000000E+00 -0.00000000000E+00 -0.44545330694E+02  0.44563431046E+02  0.12700000000E+01 0. -1.
         25    2    1    2    0    0  0.00000000000E+00  0.00000000000E+00  0.43107861463E+02  0.13222582318E+03  0.12500152238E+03 0.  0.
    9000005    1    3    3    0    0 -0.41685708924E+02  0.28264945289E+01  0.70711844474E+02  0.82139225396E+02  0.10000000000E+01 0.  0.
    9000005    1    3    3    0    0  0.41685708924E+02 -0.28264945289E+01 -0.27603983012E+02  0.50086597787E+02  0.10000000000E+01 0.  0.
<mgrwt>
<rscale>  0 0.12500152E+03</rscale>
<asrwt>0</asrwt>
<pdfrwt beam="1">  1        4 0.13487206E-01 0.12500152E+03</pdfrwt>
<pdfrwt beam="2">  1       -4 0.68552280E-02 0.12500152E+03</pdfrwt>
<totfact> 0.10296527E+04</totfact>
</mgrwt>
</event>
<event>
 5    1  0.3239419E-002  0.1250020E+03  0.7818608E-02  0.1235066E+00
         -4   -1    0    0    0  501 -0.00000000000E+00  0.00000000000E+00  0.51424231279E+02  0.51439911185E+02  0.12700000000E+01 0.  1.
          4   -1    0    0  501    0  0.00000000000E+00 -0.00000000000E+00 -0.75931163541E+02  0.75941783603E+02  0.12700000000E+01 0.  1.
         25    2    1    2    0    0  0.00000000000E+00  0.00000000000E+00 -0.24506932262E+02  0.12738169479E+03  0.12500202574E+03 0.  0.
    9000005    1    3    3    0    0 -0.39640691120E+02  0.30584656767E+02  0.25855944214E+02  0.56358987510E+02  0.10000000000E+01 0.  0.
    9000005    1    3    3    0    0  0.39640691120E+02 -0.30584656767E+02 -0.50362876476E+02  0.71022707277E+02  0.10000000000E+01 0.  0.
<mgrwt>
<rscale>  0 0.12500203E+03</rscale>
<asrwt>0</asrwt>
<pdfrwt beam="2">  1        4 0.11683741E-01 0.12500203E+03</pdfrwt>
<pdfrwt beam="1">  1       -4 0.79134433E-02 0.12500203E+03</pdfrwt>
<totfact> 0.10400388E+04</totfact>
</mgrwt>
</event>
<event>
 5    1  0.3239419E-002  0.1250082E+03  0.7818608E-02  0.1235056E+00
          4   -1    0    0  501    0  0.00000000000E+00  0.00000000000E+00  0.56941719610E+02  0.56955880576E+02  0.12700000000E+01 0. -1.
         -4   -1    0    0    0  501 -0.00000000000E+00 -0.00000000000E+00 -0.68581256456E+02  0.68593014492E+02  0.12700000000E+01 0. -1.
         25    2    1    2    0    0  0.00000000000E+00  0.00000000000E+00 -0.11639536846E+02  0.12554889507E+03  0.12500818467E+03 0.  0.
    9000005    1    3    3    0    0  0.61000789104E+02  0.13527502599E+02 -0.45211322697E+01  0.62654052023E+02  0.10000000000E+01 0.  0.
    9000005    1    3    3    0    0 -0.61000789104E+02 -0.13527502599E+02 -0.71184045762E+01  0.62894843045E+02  0.10000000000E+01 0.  0.
<mgrwt>
<rscale>  0 0.12500818E+03</rscale>
<asrwt>0</asrwt>
<pdfrwt beam="1">  1        4 0.87622583E-02 0.12500818E+03</pdfrwt>
<pdfrwt beam="2">  1       -4 0.10552956E-01 0.12500818E+03</pdfrwt>
<totfact> 0.10438947E+04</totfact>
</mgrwt>
</event>
<event>
 5    1  0.3239419E-002  0.1249962E+03  0.7818608E-02  0.1235075E+00
          4   -1    0    0  501    0  0.00000000000E+00  0.00000000000E+00  0.55619244443E+01  0.57050769955E+01  0.12700000000E+01 0. -1.
         -4   -1    0    0    0  501 -0.00000000000E+00 -0.00000000000E+00 -0.69321107100E+03  0.69321223435E+03  0.12700000000E+01 0. -1.
         25    2    1    2    0    0  0.00000000000E+00  0.00000000000E+00 -0.68764914655E+03  0.69891731135E+03  0.12499623732E+03 0.  0.
    9000005    1    3    3    0    0 -0.55542694456E+02  0.13073456900E+02 -0.48628280753E+03  0.48962013345E+03  0.10000000000E+01 0.  0.
    9000005    1    3    3    0    0  0.55542694456E+02 -0.13073456900E+02 -0.20136633902E+03  0.20929717789E+03  0.10000000000E+01 0.  0.
<mgrwt>
<rscale>  0 0.12499624E+03</rscale>
<asrwt>0</asrwt>
<pdfrwt beam="1">  1        4 0.86678245E-03 0.12499624E+03</pdfrwt>
<pdfrwt beam="2">  1       -4 0.10665889E+00 0.12499624E+03</pdfrwt>
<totfact> 0.43147478E+03</totfact>
</mgrwt>
</event>
<event>
 5    1  0.3239419E-002  0.1250073E+03  0.7818608E-02  0.1235058E+00
          4   -1    0    0  501    0  0.00000000000E+00  0.00000000000E+00  0.36008226742E+03  0.36008450704E+03  0.12700000000E+01 0.  1.
         -4   -1    0    0    0  501 -0.00000000000E+00 -0.00000000000E+00 -0.10810029751E+02  0.10884376106E+02  0.12700000000E+01 0.  1.
         25    2    1    2    0    0  0.00000000000E+00  0.00000000000E+00  0.34927223767E+03  0.37096888314E+03  0.12500726482E+03 0.  0.
    9000005    1    3    3    0    0 -0.34773368445E+02  0.42343732558E+02  0.85434575086E+02  0.10149997764E+03  0.10000000000E+01 0.  0.
    9000005    1    3    3    0    0  0.34773368445E+02 -0.42343732558E+02  0.26383766258E+03  0.26946890551E+03  0.10000000000E+01 0.  0.
<mgrwt>
<rscale>  0 0.12500726E+03</rscale>
<asrwt>0</asrwt>
<pdfrwt beam="1">  1        4 0.55403155E-01 0.12500726E+03</pdfrwt>
<pdfrwt beam="2">  1       -4 0.16689730E-02 0.12500726E+03</pdfrwt>
<totfact> 0.67466863E+03</totfact>
</mgrwt>
</event>
<event>
 5    1  0.3239419E-002  0.1249959E+03  0.7818608E-02  0.1235076E+00
         -4   -1    0    0    0  501 -0.00000000000E+00  0.00000000000E+00  0.96906120216E+03  0.96906203435E+03  0.12700000000E+01 0.  1.
          4   -1    0    0  501    0  0.00000000000E+00 -0.00000000000E+00 -0.39298082785E+01  0.41299265255E+01  0.12700000000E+01 0.  1.
         25    2    1    2    0    0  0.00000000000E+00  0.00000000000E+00  0.96513139388E+03  0.97319196088E+03  0.12499594101E+03 0.  0.
    9000005    1    3    3    0    0  0.15820697053E+02 -0.55492963460E+02  0.66930014792E+03  0.67178378326E+03  0.10000000000E+01 0.  0.
    9000005    1    3    3    0    0 -0.15820697053E+02  0.55492963460E+02  0.29583124596E+03  0.30140817761E+03  0.10000000000E+01 0.  0.
<mgrwt>
<rscale>  0 0.12499594E+03</rscale>
<asrwt>0</asrwt>
<pdfrwt beam="2">  1        4 0.62004402E-03 0.12499594E+03</pdfrwt>
<pdfrwt beam="1">  1       -4 0.14910170E+00 0.12499594E+03</pdfrwt>
<totfact> 0.31509423E+03</totfact>
</mgrwt>
</event>
<event>
 5    1  0.3239419E-002  0.1250013E+03  0.7818608E-02  0.1235067E+00
         -4   -1    0    0    0  501 -0.00000000000E+00  0.00000000000E+00  0.30884243467E+03  0.30884504586E+03  0.12700000000E+01 0.  1.
          4   -1    0    0  501    0  0.00000000000E+00 -0.00000000000E+00 -0.12613751824E+02  0.12677524801E+02  0.12700000000E+01 0.  1.
         25    2    1    2    0    0  0.00000000000E+00  0.00000000000E+00  0.29622868285E+03  0.32152257066E+03  0.12500132361E+03 0.  0.
    9000005    1    3    3    0    0  0.50058816789E+02 -0.18988020645E+02  0.65208661971E+02  0.84377720178E+02  0.10000000000E+01 0.  0.
    9000005    1    3    3    0    0 -0.50058816789E+02  0.18988020645E+02  0.23102002088E+03  0.23714485049E+03  0.10000000000E+01 0.  0.
<mgrwt>
<rscale>  0 0.12500132E+03</rscale>
<asrwt>0</asrwt>
<pdfrwt beam="2">  1        4 0.19456839E-02 0.12500132E+03</pdfrwt>
<pdfrwt beam="1">  1       -4 0.47519321E-01 0.12500132E+03</pdfrwt>
<totfact> 0.72973263E+03</totfact>
</mgrwt>
</event>
<event>
 5    1  0.3239419E-002  0.1250284E+03  0.7818608E-02  0.1235025E+00
          4   -1    0    0  501    0  0.00000000000E+00  0.00000000000E+00  0.31497400054E+02  0.31522993356E+02  0.12700000000E+01 0. -1.
         -4   -1    0    0    0  501 -0.00000000000E+00 -0.00000000000E+00 -0.12399528174E+03  0.12400178544E+03  0.12700000000E+01 0. -1.
         25    2    1    2    0    0  0.00000000000E+00  0.00000000000E+00 -0.92497881681E+02  0.15552477880E+03  0.12502839159E+03 0.  0.
    9000005    1    3    3    0    0  0.16990513631E+02 -0.13716683465E+02 -0.11910247952E+03  0.12109180644E+03  0.10000000000E+01 0.  0.
    9000005    1    3    3    0    0 -0.16990513631E+02  0.13716683465E+02  0.26604597843E+02  0.34432972354E+02  0.10000000000E+01 0.  0.
<mgrwt>
<rscale>  0 0.12502839E+03</rscale>
<asrwt>0</asrwt>
<pdfrwt beam="1">  1        4 0.48482229E-02 0.12502839E+03</pdfrwt>
<pdfrwt beam="2">  1       -4 0.19078666E-01 0.12502839E+03</pdfrwt>
<totfact> 0.98149896E+03</totfact>
</mgrwt>
</event>
<event>
 5    1  0.3239419E-002  0.1249985E+03  0.7818608E-02  0.1235072E+00
         -4   -1    0    0    0  501 -0.00000000000E+00  0.00000000000E+00  0.18450891288E+02  0.18494547556E+02  0.12700000000E+01 0.  1.
          4   -1    0    0  501    0  0.00000000000E+00 -0.00000000000E+00 -0.21140980869E+03  0.21141362329E+03  0.12700000000E+01 0.  1.
         25    2    1    2    0    0  0.00000000000E+00  0.00000000000E+00 -0.19295891740E+03  0.22990817084E+03  0.12499849285E+03 0.  0.
    9000005    1    3    3    0    0 -0.76016950047E+00 -0.71197662647E-01 -0.21141024982E+03  0.21141399352E+03  0.10000000000E+01 0.  0.
    9000005    1    3    3    0    0  0.76016950047E+00  0.71197662647E-01  0.18451332418E+02  0.18494177321E+02  0.10000000000E+01 0.  0.
<mgrwt>
<rscale>  0 0.12499849E+03</rscale>
<asrwt>0</asrwt>
<pdfrwt beam="2">  1        4 0.32528236E-01 0.12499849E+03</pdfrwt>
<pdfrwt beam="1">  1       -4 0.28422504E-02 0.12499849E+03</pdfrwt>
<totfact> 0.85326569E+03</totfact>
</mgrwt>
</event>
<event>
 5    1  0.3239419E-002  0.1249998E+03  0.7818608E-02  0.1235070E+00
          4   -1    0    0  501    0  0.00000000000E+00  0.00000000000E+00  0.97714775172E+02  0.97723027926E+02  0.12700000000E+01 0.  1.
         -4   -1    0    0    0  501 -0.00000000000E+00 -0.00000000000E+00 -0.39955891279E+02  0.39976069690E+02  0.12700000000E+01 0.  1.
         25    2    1    2    0    0  0.00000000000E+00  0.00000000000E+00  0.57758883894E+02  0.13769909762E+03  0.12499981126E+03 0.  0.
    9000005    1    3    3    0    0 -0.14736754306E+02 -0.46423441761E+02 -0.14250904405E+02  0.50758212624E+02  0.10000000000E+01 0.  0.
    9000005    1    3    3    0    0  0.14736754306E+02  0.46423441761E+02  0.72009788299E+02  0.86940884992E+02  0.10000000000E+01 0.  0.
<mgrwt>
<rscale>  0 0.12499981E+03</rscale>
<asrwt>0</asrwt>
<pdfrwt beam="1">  1        4 0.15035229E-01 0.12499981E+03</pdfrwt>
<pdfrwt beam="2">  1       -4 0.61492473E-02 0.12499981E+03</pdfrwt>
<totfact> 0.10181532E+04</totfact>
</mgrwt>
</event>
<event>
 5    1  0.3239419E-002  0.1250029E+03  0.7818608E-02  0.1235065E+00
          4   -1    0    0  501    0  0.00000000000E+00  0.00000000000E+00  0.69751542743E+02  0.69763103536E+02  0.12700000000E+01 0. -1.
         -4   -1    0    0    0  501 -0.00000000000E+00 -0.00000000000E+00 -0.55981561005E+02  0.55995964789E+02  0.12700000000E+01 0. -1.
         25    2    1    2    0    0  0.00000000000E+00  0.00000000000E+00  0.13769981737E+02  0.12575906832E+03  0.12500292344E+03 0.  0.
    9000005    1    3    3    0    0 -0.14044360996E+02 -0.98720837480E+01 -0.53567845861E+02  0.56260254385E+02  0.10000000000E+01 0.  0.
    9000005    1    3    3    0    0  0.14044360996E+02  0.98720837480E+01  0.67337827598E+02  0.69498813939E+02  0.10000000000E+01 0.  0.
<mgrwt>
<rscale>  0 0.12500292E+03</rscale>
<asrwt>0</asrwt>
<pdfrwt beam="1">  1        4 0.10733004E-01 0.12500292E+03</pdfrwt>
<pdfrwt beam="2">  1       -4 0.86145451E-02 0.12500292E+03</pdfrwt>
<totfact> 0.10435557E+04</totfact>
</mgrwt>
</event>
<event>
 5    1  0.3239419E-002  0.1250029E+03  0.7818608E-02  0.1235065E+00
          4   -1    0    0  501    0  0.00000000000E+00  0.00000000000E+00  0.42294553268E+03  0.42294743943E+03  0.12700000000E+01 0.  1.
         -4   -1    0    0    0  501 -0.00000000000E+00 -0.00000000000E+00 -0.91906508215E+01  0.92779826753E+01  0.12700000000E+01 0.  1.
         25    2    1    2    0    0  0.00000000000E+00  0.00000000000E+00  0.41375488186E+03  0.43222542210E+03  0.12500285295E+03 0.  0.
    9000005    1    3    3    0    0 -0.44759761481E+02 -0.16614374176E+02  0.67451175720E+02  0.82644629487E+02  0.10000000000E+01 0.  0.
    9000005    1    3    3    0    0  0.44759761481E+02  0.16614374176E+02  0.34630370614E+03  0.34958079262E+03  0.10000000000E+01 0.  0.
<mgrwt>
<rscale>  0 0.12500285E+03</rscale>
<asrwt>0</asrwt>
<pdfrwt beam="1">  1        4 0.65075420E-01 0.12500285E+03</pdfrwt>
<pdfrwt beam="2">  1       -4 0.14208105E-02 0.12500285E+03</pdfrwt>
<totfact> 0.61530908E+03</totfact>
</mgrwt>
</event>
<event>
 5    1  0.3239419E-002  0.1250004E+03  0.7818608E-02  0.1235069E+00
         -4   -1    0    0    0  501 -0.00000000000E+00  0.00000000000E+00  0.12233483153E+03  0.12234142350E+03  0.12700000000E+01 0. -1.
          4   -1    0    0  501    0  0.00000000000E+00 -0.00000000000E+00 -0.31910915501E+02  0.31936177419E+02  0.12700000000E+01 0. -1.
         25    2    1    2    0    0  0.00000000000E+00  0.00000000000E+00  0.90423916025E+02  0.15427760092E+03  0.12500037423E+03 0.  0.
    9000005    1    3    3    0    0 -0.33433337426E+01 -0.32058600003E+02 -0.20865837042E+02  0.38409827781E+02  0.10000000000E+01 0.  0.
    9000005    1    3    3    0    0  0.33433337426E+01  0.32058600003E+02  0.11128975307E+03  0.11586777314E+03  0.10000000000E+01 0.  0.
<mgrwt>
<rscale>  0 0.12500037E+03</rscale>
<asrwt>0</asrwt>
<pdfrwt beam="2">  1        4 0.49118220E-02 0.12500037E+03</pdfrwt>
<pdfrwt beam="1">  1       -4 0.18823193E-01 0.12500037E+03</pdfrwt>
<totfact> 0.98456673E+03</totfact>
</mgrwt>
</event>
<event>
 5    1  0.3239419E-002  0.1249978E+03  0.7818608E-02  0.1235073E+00
          4   -1    0    0  501    0  0.00000000000E+00  0.00000000000E+00  0.44609485016E+02  0.44627559348E+02  0.12700000000E+01 0. -1.
         -4   -1    0    0    0  501 -0.00000000000E+00 -0.00000000000E+00 -0.87521979524E+02  0.87531193296E+02  0.12700000000E+01 0. -1.
         25    2    1    2    0    0  0.00000000000E+00  0.00000000000E+00 -0.42912494509E+02  0.13215875264E+03  0.12499781484E+03 0.  0.
    9000005    1    3    3    0    0  0.28071976263E+02 -0.28645072024E+02 -0.72123840309E+02  0.82531353699E+02  0.10000000000E+01 0.  0.
    9000005    1    3    3    0    0 -0.28071976263E+02  0.28645072024E+02  0.29211345800E+02  0.49627398945E+02  0.10000000000E+01 0.  0.
<mgrwt>
<rscale>  0 0.12499781E+03</rscale>
<asrwt>0</asrwt>
<pdfrwt beam="1">  1        4 0.68650968E-02 0.12499781E+03</pdfrwt>
<pdfrwt beam="2">  1       -4 0.13467019E-01 0.12499781E+03</pdfrwt>
<totfact> 0.10298819E+04</totfact>
</mgrwt>
</event>
<event>
 5    1  0.3239419E-002  0.1249983E+03  0.7818608E-02  0.1235072E+00
         -4   -1    0    0    0  501 -0.00000000000E+00  0.00000000000E+00  0.10930629050E+03  0.10931366814E+03  0.12700000000E+01 0. -1.
          4   -1    0    0  501    0  0.00000000000E+00 -0.00000000000E+00 -0.35715871211E+02  0.35738443676E+02  0.12700000000E+01 0. -1.
         25    2    1    2    0    0  0.00000000000E+00  0.00000000000E+00  0.73590419289E+02  0.14505211182E+03  0.12499826132E+03 0.  0.
    9000005    1    3    3    0    0  0.38717975962E+02 -0.12179016372E+02  0.91933869222E+02  0.10049998215E+03  0.10000000000E+01 0.  0.
    9000005    1    3    3    0    0 -0.38717975962E+02  0.12179016372E+02 -0.18343449933E+02  0.44552129667E+02  0.10000000000E+01 0.  0.
<mgrwt>
<rscale>  0 0.12499826E+03</rscale>
<asrwt>0</asrwt>
<pdfrwt beam="2">  1        4 0.54970533E-02 0.12499826E+03</pdfrwt>
<pdfrwt beam="1">  1       -4 0.16818656E-01 0.12499826E+03</pdfrwt>
<totfact> 0.10030322E+04</totfact>
</mgrwt>
</event>
<event>
 5    1  0.3239419E-002  0.1249840E+03  0.7818608E-02  0.1235094E+00
         -4   -1    0    0    0  501 -0.00000000000E+00  0.00000000000E+00  0.24864380202E+02  0.24896793023E+02  0.12700000000E+01 0. -1.
          4   -1    0    0  501    0  0.00000000000E+00 -0.00000000000E+00 -0.15692481945E+03  0.15692995845E+03  0.12700000000E+01 0. -1.
         25    2    1    2    0    0  0.00000000000E+00  0.00000000000E+00 -0.13206043925E+03  0.18182675148E+03  0.12498403073E+03 0.  0.
    9000005    1    3    3    0    0  0.58424858167E+02  0.30212300426E+01 -0.34102081792E+02  0.67724027238E+02  0.10000000000E+01 0.  0.
    9000005    1    3    3    0    0 -0.58424858167E+02 -0.30212300426E+01 -0.97958357459E+02  0.11410272424E+03  0.10000000000E+01 0.  0.
<mgrwt>
<rscale>  0 0.12498403E+03</rscale>
<asrwt>0</asrwt>
<pdfrwt beam="2">  1        4 0.24145168E-01 0.12498403E+03</pdfrwt>
<pdfrwt beam="1">  1       -4 0.38281780E-02 0.12498403E+03</pdfrwt>
<totfact> 0.93322617E+03</totfact>
</mgrwt>
</event>
<event>
 5    1  0.3239419E-002  0.1250073E+03  0.7818608E-02  0.1235058E+00
         -4   -1    0    0    0  501 -0.00000000000E+00  0.00000000000E+00  0.10769778558E+02  0.10844400868E+02  0.12700000000E+01 0.  1.
          4   -1    0    0  501    0  0.00000000000E+00 -0.00000000000E+00 -0.36141899581E+03  0.36142122715E+03  0.12700000000E+01 0.  1.
         25    2    1    2    0    0  0.00000000000E+00  0.00000000000E+00 -0.35064921725E+03  0.37226562802E+03  0.12500729676E+03 0.  0.
    9000005    1    3    3    0    0  0.36074862152E+01 -0.30319581930E+02 -0.12939820466E+02  0.33177250623E+02  0.10000000000E+01 0.  0.
    9000005    1    3    3    0    0 -0.36074862152E+01  0.30319581930E+02 -0.33770939679E+03  0.33908837739E+03  0.10000000000E+01 0.  0.
<mgrwt>
<rscale>  0 0.12500730E+03</rscale>
<asrwt>0</asrwt>
<pdfrwt beam="2">  1        4 0.55608825E-01 0.12500730E+03</pdfrwt>
<pdfrwt beam="1">  1       -4 0.16628011E-02 0.12500730E+03</pdfrwt>
<totfact> 0.67331717E+03</totfact>
</mgrwt>
</event>
<event>
 5    1  0.3239419E-002  0.1249978E+03  0.7818608E-02  0.1235073E+00
         -4   -1    0    0    0  501 -0.00000000000E+00  0.00000000000E+00  0.28958171729E+03  0.28958450216E+03  0.12700000000E+01 0.  1.
          4   -1    0    0  501    0  0.00000000000E+00 -0.00000000000E+00 -0.13456066309E+02  0.13515865511E+02  0.12700000000E+01 0.  1.
         25    2    1    2    0    0  0.00000000000E+00  0.00000000000E+00  0.27612565098E+03  0.30310036767E+03  0.12499783098E+03 0.  0.
    9000005    1    3    3    0    0  0.38310465624E+02  0.39818128042E+01  0.18737588595E+02  0.42844414290E+02  0.10000000000E+01 0.  0.
    9000005    1    3    3    0    0 -0.38310465624E+02 -0.39818128042E+01  0.25738806239E+03  0.26025595338E+03  0.10000000000E+01 0.  0.
<mgrwt>
<rscale>  0 0.12499783E+03</rscale>
<asrwt>0</asrwt>
<pdfrwt beam="2">  1        4 0.20749782E-02 0.12499783E+03</pdfrwt>
<pdfrwt beam="1">  1       -4 0.44555848E-01 0.12499783E+03</pdfrwt>
<totfact> 0.75215192E+03</totfact>
</mgrwt>
</event>
<event>
 5    1  0.3239419E-002  0.1249995E+03  0.7818608E-02  0.1235070E+00
         -4   -1    0    0    0  501 -0.00000000000E+00  0.00000000000E+00  0.66824816654E+02  0.66836883686E+02  0.12700000000E+01 0. -1.
          4   -1    0    0  501    0  0.00000000000E+00 -0.00000000000E+00 -0.58430391369E+02  0.58444191632E+02  0.12700000000E+01 0. -1.
         25    2    1    2    0    0  0.00000000000E+00  0.00000000000E+00  0.83944252853E+01  0.12528107532E+03  0.12499952583E+03 0.  0.
    9000005    1    3    3    0    0 -0.31745792073E+01 -0.24489309197E+02 -0.53337803522E+02  0.58785419133E+02  0.10000000000E+01 0.  0.
    9000005    1    3    3    0    0  0.31745792073E+01  0.24489309197E+02  0.61732228807E+02  0.66495656186E+02  0.10000000000E+01 0.  0.
<mgrwt>
<rscale>  0 0.12499953E+03</rscale>
<asrwt>0</asrwt>
<pdfrwt beam="2">  1        4 0.89912809E-02 0.12499953E+03</pdfrwt>
<pdfrwt beam="1">  1       -4 0.10282731E-01 0.12499953E+03</pdfrwt>
<totfact> 0.10446873E+04</totfact>
</mgrwt>
</event>
<event>
 5    1  0.3239419E-002  0.1249999E+03  0.7818608E-02  0.1235069E+00
          4   -1    0    0  501    0  0.00000000000E+00  0.00000000000E+00  0.37623361967E+01  0.39709033805E+01  0.12700000000E+01 0.  1.
         -4   -1    0    0    0  501 -0.00000000000E+00 -0.00000000000E+00 -0.10100389974E+04  0.10100397959E+04  0.12700000000E+01 0.  1.
         25    2    1    2    0    0  0.00000000000E+00  0.00000000000E+00 -0.10062766612E+04  0.10140106993E+04  0.12499991696E+03 0.  0.
    9000005    1    3    3    0    0 -0.56946131958E+02 -0.16213854228E+02 -0.34099920277E+03  0.34610288543E+03  0.10000000000E+01 0.  0.
    9000005    1    3    3    0    0  0.56946131958E+02  0.16213854228E+02 -0.66527745848E+03  0.66790781383E+03  0.10000000000E+01 0.  0.
<mgrwt>
<rscale>  0 0.12499992E+03</rscale>
<asrwt>0</asrwt>
<pdfrwt beam="1">  1        4 0.59492680E-03 0.12499992E+03</pdfrwt>
<pdfrwt beam="2">  1       -4 0.15540651E+00 0.12499992E+03</pdfrwt>
<totfact> 0.30145696E+03</totfact>
</mgrwt>
</event>
<event>
 5    1  0.3239419E-002  0.1250000E+03  0.7818608E-02  0.1235069E+00
         -4   -1    0    0    0  501 -0.00000000000E+00  0.00000000000E+00  0.42456857195E+01  0.44315626170E+01  0.12700000000E+01 0. -1.
          4   -1    0    0  501    0  0.00000000000E+00 -0.00000000000E+00 -0.90015642963E+03  0.90015732553E+03  0.12700000000E+01 0. -1.
         25    2    1    2    0    0  0.00000000000E+00  0.00000000000E+00 -0.89591074391E+03  0.90458888815E+03  0.12499998201E+03 0.  0.
    9000005    1    3    3    0    0 -0.24731121145E+02  0.18272922080E+02 -0.84165651296E+03  0.84221862592E+03  0.10000000000E+01 0.  0.
    9000005    1    3    3    0    0  0.24731121145E+02 -0.18272922080E+02 -0.54254230947E+02  0.62370262226E+02  0.10000000000E+01 0.  0.
<mgrwt>
<rscale>  0 0.12499998E+03</rscale>
<asrwt>0</asrwt>
<pdfrwt beam="2">  1        4 0.13849982E+00 0.12499998E+03</pdfrwt>
<pdfrwt beam="1">  1       -4 0.66755027E-03 0.12499998E+03</pdfrwt>
<totfact> 0.33984861E+03</totfact>
</mgrwt>
</event>
<event>
 5    1  0.3239419E-002  0.1250188E+03  0.7818608E-02  0.1235040E+00
          4   -1    0    0  501    0  0.00000000000E+00  0.00000000000E+00  0.16566070294E+01  0.20874019378E+01  0.12700000000E+01 0. -1.
         -4   -1    0    0    0  501 -0.00000000000E+00 -0.00000000000E+00 -0.20868622131E+04  0.20868625995E+04  0.12700000000E+01 0. -1.
         25    2    1    2    0    0  0.00000000000E+00  0.00000000000E+00 -0.20852056061E+04  0.20889500015E+04  0.12501875496E+03 0.  0.
    9000005    1    3    3    0    0  0.76009856124E+01  0.60683190502E+02 -0.82719305350E+03  0.82945136828E+03  0.10000000000E+01 0.  0.
    9000005    1    3    3    0    0 -0.76009856124E+01 -0.60683190502E+02 -0.12580125526E+04  0.12594986332E+04  0.10000000000E+01 0.  0.
<mgrwt>
<rscale>  0 0.12501875E+03</rscale>
<asrwt>0</asrwt>
<pdfrwt beam="1">  1        4 0.28803209E-03 0.12501875E+03</pdfrwt>
<pdfrwt beam="2">  1       -4 0.32108703E+00 0.12501875E+03</pdfrwt>
<totfact> 0.87411064E+02</totfact>
</mgrwt>
</event>
<event>
 5    1  0.3239419E-002  0.1249969E+03  0.7818608E-02  0.1235074E+00
         -4   -1    0    0    0  501 -0.00000000000E+00  0.00000000000E+00  0.27342809335E+02  0.27372287488E+02  0.12700000000E+01 0. -1.
          4   -1    0    0  501    0  0.00000000000E+00 -0.00000000000E+00 -0.14274578173E+03  0.14275143117E+03  0.12700000000E+01 0. -1.
         25    2    1    2    0    0  0.00000000000E+00  0.00000000000E+00 -0.11540297239E+03  0.17012371866E+03  0.12499693441E+03 0.  0.
    9000005    1    3    3    0    0 -0.45657288937E+02 -0.32069414560E+02 -0.96004628807E+02  0.11104469432E+03  0.10000000000E+01 0.  0.
    9000005    1    3    3    0    0  0.45657288937E+02  0.32069414560E+02 -0.19398343586E+02  0.59079024342E+02  0.10000000000E+01 0.  0.
<mgrwt>
<rscale>  0 0.12499693E+03</rscale>
<asrwt>0</asrwt>
<pdfrwt beam="2">  1        4 0.21963591E-01 0.12499693E+03</pdfrwt>
<pdfrwt beam="1">  1       -4 0.42092883E-02 0.12499693E+03</pdfrwt>
<totfact> 0.95432148E+03</totfact>
</mgrwt>
</event>
<event>
 5    1  0.3239419E-002  0.1249990E+03  0.7818608E-02  0.1235071E+00
         -4   -1    0    0    0  501 -0.00000000000E+00  0.00000000000E+00  0.11858909253E+03  0.11859589271E+03  0.12700000000E+01 0. -1.
          4   -1    0    0  501    0  0.00000000000E+00 -0.00000000000E+00 -0.32918847983E+02  0.32943336997E+02  0.12700000000E+01 0. -1.
         25    2    1    2    0    0  0.00000000000E+00  0.00000000000E+00  0.85670244549E+02  0.15153922971E+03  0.12499898935E+03 0.  0.
    9000005    1    3    3    0    0  0.54302532831E+02 -0.41697849992E+01  0.56850738674E+01  0.54767437805E+02  0.10000000000E+01 0.  0.
    9000005    1    3    3    0    0 -0.54302532831E+02  0.41697849992E+01  0.79985170681E+02  0.96771791901E+02  0.10000000000E+01 0.  0.
<mgrwt>
<rscale>  0 0.12499899E+03</rscale>
<asrwt>0</asrwt>
<pdfrwt beam="2">  1        4 0.50668450E-02 0.12499899E+03</pdfrwt>
<pdfrwt beam="1">  1       -4 0.18246883E-01 0.12499899E+03</pdfrwt>
<totfact> 0.99000008E+03</totfact>
</mgrwt>
</event>
<event>
 5    1  0.3239419E-002  0.1249990E+03  0.7818608E-02  0.1235071E+00
         -4   -1    0    0    0  501 -0.00000000000E+00  0.00000000000E+00  0.98238894811E+03  0.98238976902E+03  0.12700000000E+01 0.  1.
          4   -1    0    0  501    0  0.00000000000E+00 -0.00000000000E+00 -0.38739616675E+01  0.40768221694E+01  0.12700000000E+01 0.  1.
         25    2    1    2    0    0  0.00000000000E+00  0.00000000000E+00  0.97851498644E+03  0.98646659119E+03  0.12499902733E+03 0.  0.
    9000005    1    3    3    0    0  0.24443211076E+02 -0.51321468019E+02  0.28440111573E+03  0.29002820255E+03  0.10000000000E+01 0.  0.
    9000005    1    3    3    0    0 -0.24443211076E+02  0.51321468019E+02  0.69411387071E+03  0.69643838863E+03  0.10000000000E+01 0.  0.
<mgrwt>
<rscale>  0 0.12499903E+03</rscale>
<asrwt>0</asrwt>
<pdfrwt beam="2">  1        4 0.61166164E-03 0.12499903E+03</pdfrwt>
<pdfrwt beam="1">  1       -4 0.15115249E+00 0.12499903E+03</pdfrwt>
<totfact> 0.31056233E+03</totfact>
</mgrwt>
</event>
<event>
 5    1  0.3239419E-002  0.1250007E+03  0.7818608E-02  0.1235068E+00
         -4   -1    0    0    0  501 -0.00000000000E+00  0.00000000000E+00  0.14401962195E+03  0.14402522142E+03  0.12700000000E+01 0.  1.
          4   -1    0    0  501    0  0.00000000000E+00 -0.00000000000E+00 -0.27102330271E+02  0.27132069698E+02  0.12700000000E+01 0.  1.
         25    2    1    2    0    0  0.00000000000E+00  0.00000000000E+00  0.11691729168E+03  0.17115729112E+03  0.12500066084E+03 0.  0.
    9000005    1    3    3    0    0  0.39030123543E+02 -0.44847944312E+02  0.32099134461E+02  0.67572502439E+02  0.10000000000E+01 0.  0.
    9000005    1    3    3    0    0 -0.39030123543E+02  0.44847944312E+02  0.84818157217E+02  0.10358478868E+03  0.10000000000E+01 0.  0.
<mgrwt>
<rscale>  0 0.12500066E+03</rscale>
<asrwt>0</asrwt>
<pdfrwt beam="2">  1        4 0.41723076E-02 0.12500066E+03</pdfrwt>
<pdfrwt beam="1">  1       -4 0.22159583E-01 0.12500066E+03</pdfrwt>
<totfact> 0.95231959E+03</totfact>
</mgrwt>
</event>
<event>
 5    1  0.3239419E-002  0.1250020E+03  0.7818608E-02  0.1235066E+00
          4   -1    0    0  501    0  0.00000000000E+00  0.00000000000E+00  0.10521227818E+03  0.10521994288E+03  0.12700000000E+01 0.  1.
         -4   -1    0    0    0  501 -0.00000000000E+00 -0.00000000000E+00 -0.37108636252E+02  0.37130362030E+02  0.12700000000E+01 0.  1.
         25    2    1    2    0    0  0.00000000000E+00  0.00000000000E+00  0.68103641928E+02  0.14235030491E+03  0.12500201304E+03 0.  0.
    9000005    1    3    3    0    0 -0.20024191990E+02  0.16694399048E+02  0.98729390412E+02  0.10211838109E+03  0.10000000000E+01 0.  0.
    9000005    1    3    3    0    0  0.20024191990E+02 -0.16694399048E+02 -0.30625748484E+02  0.40231923825E+02  0.10000000000E+01 0.  0.
<mgrwt>
<rscale>  0 0.12500201E+03</rscale>
<asrwt>0</asrwt>
<pdfrwt beam="1">  1        4 0.16188765E-01 0.12500201E+03</pdfrwt>
<pdfrwt beam="2">  1       -4 0.57112817E-02 0.12500201E+03</pdfrwt>
<totfact> 0.10084647E+04</totfact>
</mgrwt>
</event>
<event>
 5    1  0.3239419E-002  0.1250045E+03  0.7818608E-02  0.1235062E+00
          4   -1    0    0  501    0  0.00000000000E+00  0.00000000000E+00  0.45065811332E+02  0.45083702721E+02  0.12700000000E+01 0.  1.
         -4   -1    0    0    0  501 -0.00000000000E+00 -0.00000000000E+00 -0.86645312044E+02  0.86654619030E+02  0.12700000000E+01 0.  1.
         25    2    1    2    0    0  0.00000000000E+00  0.00000000000E+00 -0.41579500712E+02  0.13173832175E+03  0.12500452207E+03 0.  0.
    9000005    1    3    3    0    0 -0.28006910760E+02 -0.49608769299E+02 -0.47866491827E+02  0.74415173731E+02  0.10000000000E+01 0.  0.
    9000005    1    3    3    0    0  0.28006910760E+02  0.49608769299E+02  0.62869911151E+01  0.57323148020E+02  0.10000000000E+01 0.  0.
<mgrwt>
<rscale>  0 0.12500452E+03</rscale>
<asrwt>0</asrwt>
<pdfrwt beam="1">  1        4 0.69352939E-02 0.12500452E+03</pdfrwt>
<pdfrwt beam="2">  1       -4 0.13332140E-01 0.12500452E+03</pdfrwt>
<totfact> 0.10306235E+04</totfact>
</mgrwt>
</event>
<event>
 5    1  0.3239419E-002  0.1250016E+03  0.7818608E-02  0.1235067E+00
         -4   -1    0    0    0  501 -0.00000000000E+00  0.00000000000E+00  0.19373232659E+02  0.19414815056E+02  0.12700000000E+01 0.  1.
          4   -1    0    0  501    0  0.00000000000E+00 -0.00000000000E+00 -0.20137676672E+03  0.20138077136E+03  0.12700000000E+01 0.  1.
         25    2    1    2    0    0  0.00000000000E+00  0.00000000000E+00 -0.18200353406E+03  0.22079558642E+03  0.12500161827E+03 0.  0.
    9000005    1    3    3    0    0 -0.32642076302E+02 -0.16787407466E+02 -0.16655661151E+01  0.36757261938E+02  0.10000000000E+01 0.  0.
    9000005    1    3    3    0    0  0.32642076302E+02  0.16787407466E+02 -0.18033796794E+03  0.18403832448E+03  0.10000000000E+01 0.  0.
<mgrwt>
<rscale>  0 0.12500162E+03</rscale>
<asrwt>0</asrwt>
<pdfrwt beam="2">  1        4 0.30984546E-01 0.12500162E+03</pdfrwt>
<pdfrwt beam="1">  1       -4 0.29840042E-02 0.12500162E+03</pdfrwt>
<totfact> 0.86739480E+03</totfact>
</mgrwt>
</event>
<event>
 5    1  0.3239419E-002  0.1250106E+03  0.7818608E-02  0.1235053E+00
         -4   -1    0    0    0  501 -0.00000000000E+00  0.00000000000E+00  0.53357007246E+02  0.53372119334E+02  0.12700000000E+01 0.  1.
          4   -1    0    0  501    0  0.00000000000E+00 -0.00000000000E+00 -0.73191164995E+02  0.73202182572E+02  0.12700000000E+01 0.  1.
         25    2    1    2    0    0  0.00000000000E+00  0.00000000000E+00 -0.19834157749E+02  0.12657430191E+03  0.12501063990E+03 0.  0.
    9000005    1    3    3    0    0  0.32333783583E+00 -0.60854668663E+02  0.44918694130E+01  0.61029272782E+02  0.10000000000E+01 0.  0.
    9000005    1    3    3    0    0 -0.32333783583E+00  0.60854668663E+02 -0.24326027162E+02  0.65545029124E+02  0.10000000000E+01 0.  0.
<mgrwt>
<rscale>  0 0.12501064E+03</rscale>
<asrwt>0</asrwt>
<pdfrwt beam="2">  1        4 0.11262189E-01 0.12501064E+03</pdfrwt>
<pdfrwt beam="1">  1       -4 0.82107803E-02 0.12501064E+03</pdfrwt>
<totfact> 0.10415907E+04</totfact>
</mgrwt>
</event>
<event>
 5    1  0.3239419E-002  0.1250010E+03  0.7818608E-02  0.1235068E+00
         -4   -1    0    0    0  501 -0.00000000000E+00  0.00000000000E+00  0.47885307876E+03  0.47885476289E+03  0.12700000000E+01 0. -1.
          4   -1    0    0  501    0  0.00000000000E+00 -0.00000000000E+00 -0.81064994303E+01  0.82053782980E+01  0.12700000000E+01 0. -1.
         25    2    1    2    0    0  0.00000000000E+00  0.00000000000E+00  0.47074657933E+03  0.48706014118E+03  0.12500095671E+03 0.  0.
    9000005    1    3    3    0    0  0.60665295391E+02  0.14064635597E+01  0.17717987221E+03  0.18728577982E+03  0.10000000000E+01 0.  0.
    9000005    1    3    3    0    0 -0.60665295391E+02 -0.14064635597E+01  0.29356670712E+03  0.29977436137E+03  0.10000000000E+01 0.  0.
<mgrwt>
<rscale>  0 0.12500096E+03</rscale>
<asrwt>0</asrwt>
<pdfrwt beam="2">  1        4 0.12548891E-02 0.12500096E+03</pdfrwt>
<pdfrwt beam="1">  1       -4 0.73677456E-01 0.12500096E+03</pdfrwt>
<totfact> 0.56881299E+03</totfact>
</mgrwt>
</event>
<event>
 5    1  0.3239419E-002  0.1249989E+03  0.7818608E-02  0.1235071E+00
         -4   -1    0    0    0  501 -0.00000000000E+00  0.00000000000E+00  0.62934194804E+03  0.62934322946E+03  0.12700000000E+01 0. -1.
          4   -1    0    0  501    0  0.00000000000E+00 -0.00000000000E+00 -0.61405008800E+01  0.62704586002E+01  0.12700000000E+01 0. -1.
         25    2    1    2    0    0  0.00000000000E+00  0.00000000000E+00  0.62320144716E+03  0.63561368806E+03  0.12499886681E+03 0.  0.
    9000005    1    3    3    0    0 -0.33484173136E+02 -0.15304265111E+02  0.56836675354E+03  0.56955875633E+03  0.10000000000E+01 0.  0.
    9000005    1    3    3    0    0  0.33484173136E+02  0.15304265111E+02  0.54834693619E+02  0.66054931727E+02  0.10000000000E+01 0.  0.
<mgrwt>
<rscale>  0 0.12499887E+03</rscale>
<asrwt>0</asrwt>
<pdfrwt beam="2">  1        4 0.95478780E-03 0.12499887E+03</pdfrwt>
<pdfrwt beam="1">  1       -4 0.96831930E-01 0.12499887E+03</pdfrwt>
<totfact> 0.46695229E+03</totfact>
</mgrwt>
</event>
<event>
 5    1  0.3239419E-002  0.1250504E+03  0.7818608E-02  0.1234991E+00
          4   -1    0    0  501    0  0.00000000000E+00  0.00000000000E+00  0.15260061699E+02  0.15312817607E+02  0.12700000000E+01 0. -1.
         -4   -1    0    0    0  501 -0.00000000000E+00 -0.00000000000E+00 -0.25568850932E+03  0.25569166333E+03  0.12700000000E+01 0. -1.
         25    2    1    2    0    0  0.00000000000E+00  0.00000000000E+00 -0.24042844762E+03  0.27100448094E+03  0.12505035092E+03 0.  0.
    9000005    1    3    3    0    0  0.46091794937E+02  0.21960780090E+02 -0.19840251021E+03  0.20486894709E+03  0.10000000000E+01 0.  0.
    9000005    1    3    3    0    0 -0.46091794937E+02 -0.21960780090E+02 -0.42025937406E+02  0.66135533849E+02  0.10000000000E+01 0.  0.
<mgrwt>
<rscale>  0 0.12505035E+03</rscale>
<asrwt>0</asrwt>
<pdfrwt beam="1">  1        4 0.23520028E-02 0.12505035E+03</pdfrwt>
<pdfrwt beam="2">  1       -4 0.39340991E-01 0.12505035E+03</pdfrwt>
<totfact> 0.79297279E+03</totfact>
</mgrwt>
</event>
<event>
 5    1  0.3239419E-002  0.1249990E+03  0.7818608E-02  0.1235071E+00
          4   -1    0    0  501    0  0.00000000000E+00  0.00000000000E+00  0.56688785059E+02  0.56703009192E+02  0.12700000000E+01 0.  1.
         -4   -1    0    0    0  501 -0.00000000000E+00 -0.00000000000E+00 -0.68877107033E+02  0.68888814573E+02  0.12700000000E+01 0.  1.
         25    2    1    2    0    0  0.00000000000E+00  0.00000000000E+00 -0.12188321974E+02  0.12559182377E+03  0.12499900401E+03 0.  0.
    9000005    1    3    3    0    0  0.13659923186E+02  0.56964409196E+02 -0.27960885758E+02  0.64918014055E+02  0.10000000000E+01 0.  0.
    9000005    1    3    3    0    0 -0.13659923186E+02 -0.56964409196E+02  0.15772563783E+02  0.60673809710E+02  0.10000000000E+01 0.  0.
<mgrwt>
<rscale>  0 0.12499900E+03</rscale>
<asrwt>0</asrwt>
<pdfrwt beam="1">  1        4 0.87233463E-02 0.12499900E+03</pdfrwt>
<pdfrwt beam="2">  1       -4 0.10598473E-01 0.12499900E+03</pdfrwt>
<totfact> 0.10440162E+04</totfact>
</mgrwt>
</event>
<event>
 5    1  0.3239419E-002  0.1249996E+03  0.7818608E-02  0.1235070E+00
          4   -1    0    0  501    0  0.00000000000E+00  0.00000000000E+00  0.52645699366E+02  0.52661015579E+02  0.12700000000E+01 0. -1.
         -4   -1    0    0    0  501 -0.00000000000E+00 -0.00000000000E+00 -0.74166794487E+02  0.74177667155E+02  0.12700000000E+01 0. -1.
         25    2    1    2    0    0  0.00000000000E+00  0.00000000000E+00 -0.21521095121E+02  0.12683868273E+03  0.12499957561E+03 0.  0.
    9000005    1    3    3    0    0 -0.30434287375E+02 -0.53962728603E+02 -0.19066426693E+02  0.64828624489E+02  0.10000000000E+01 0.  0.
    9000005    1    3    3    0    0  0.30434287375E+02  0.53962728603E+02 -0.24546684283E+01  0.62010058244E+02  0.10000000000E+01 0.  0.
<mgrwt>
<rscale>  0 0.12499958E+03</rscale>
<asrwt>0</asrwt>
<pdfrwt beam="1">  1        4 0.81013529E-02 0.12499958E+03</pdfrwt>
<pdfrwt beam="2">  1       -4 0.11412291E-01 0.12499958E+03</pdfrwt>
<totfact> 0.10412752E+04</totfact>
</mgrwt>
</event>
<event>
 5    1  0.3239419E-002  0.1249942E+03  0.7818608E-02  0.1235078E+00
         -4   -1    0    0    0  501 -0.00000000000E+00  0.00000000000E+00  0.35522440641E+03  0.35522667666E+03  0.12700000000E+01 0.  1.
          4   -1    0    0  501    0  0.00000000000E+00 -0.00000000000E+00 -0.10956558216E+02  0.11029916951E+02  0.12700000000E+01 0.  1.
         25    2    1    2    0    0  0.00000000000E+00  0.00000000000E+00  0.34426784819E+03  0.36625659361E+03  0.12499416411E+03 0.  0.
    9000005    1    3    3    0    0  0.18316791122E+02  0.64143256808E+01 -0.19162978329E+01  0.19527432200E+02  0.10000000000E+01 0.  0.
    9000005    1    3    3    0    0 -0.18316791122E+02 -0.64143256808E+01  0.34618414603E+03  0.34672916141E+03  0.10000000000E+01 0.  0.
<mgrwt>
<rscale>  0 0.12499416E+03</rscale>
<asrwt>0</asrwt>
<pdfrwt beam="2">  1        4 0.16914421E-02 0.12499416E+03</pdfrwt>
<pdfrwt beam="1">  1       -4 0.54655721E-01 0.12499416E+03</pdfrwt>
<totfact> 0.67981168E+03</totfact>
</mgrwt>
</event>
<event>
 5    1  0.3239419E-002  0.1249992E+03  0.7818608E-02  0.1235070E+00
         -4   -1    0    0    0  501 -0.00000000000E+00  0.00000000000E+00  0.77159430828E+02  0.77169881856E+02  0.12700000000E+01 0. -1.
          4   -1    0    0  501    0  0.00000000000E+00 -0.00000000000E+00 -0.50603222124E+02  0.50619156348E+02  0.12700000000E+01 0. -1.
         25    2    1    2    0    0  0.00000000000E+00  0.00000000000E+00  0.26556208704E+02  0.12778903820E+03  0.12499922426E+03 0.  0.
    9000005    1    3    3    0    0  0.14668893253E+02  0.52494539606E+02 -0.17971225368E+02  0.57400505738E+02  0.10000000000E+01 0.  0.
    9000005    1    3    3    0    0 -0.14668893253E+02 -0.52494539606E+02  0.44527434072E+02  0.70388532466E+02  0.10000000000E+01 0.  0.
<mgrwt>
<rscale>  0 0.12499922E+03</rscale>
<asrwt>0</asrwt>
<pdfrwt beam="2">  1        4 0.77871407E-02 0.12499922E+03</pdfrwt>
<pdfrwt beam="1">  1       -4 0.11872711E-01 0.12499922E+03</pdfrwt>
<totfact> 0.10392228E+04</totfact>
</mgrwt>
</event>
<event>
 5    1  0.3239419E-002  0.1250013E+03  0.7818608E-02  0.1235067E+00
          4   -1    0    0  501    0  0.00000000000E+00  0.00000000000E+00  0.22210152367E+02  0.22246432707E+02  0.12700000000E+01 0. -1.
         -4   -1    0    0    0  501 -0.00000000000E+00 -0.00000000000E+00 -0.17569841507E+03  0.17570300498E+03  0.12700000000E+01 0. -1.
         25    2    1    2    0    0  0.00000000000E+00  0.00000000000E+00 -0.15348826270E+03  0.19794943768E+03  0.12500133236E+03 0.  0.
    9000005    1    3    3    0    0  0.30746525875E+02 -0.53763008184E+02 -0.89948116894E+02  0.10921297375E+03  0.10000000000E+01 0.  0.
    9000005    1    3    3    0    0 -0.30746525875E+02  0.53763008184E+02 -0.63540145809E+02  0.88736463935E+02  0.10000000000E+01 0.  0.
<mgrwt>
<rscale>  0 0.12500133E+03</rscale>
<asrwt>0</asrwt>
<pdfrwt beam="1">  1        4 0.34200905E-02 0.12500133E+03</pdfrwt>
<pdfrwt beam="2">  1       -4 0.27033668E-01 0.12500133E+03</pdfrwt>
<totfact> 0.90479542E+03</totfact>
</mgrwt>
</event>
<event>
 5    1  0.3239419E-002  0.1249963E+03  0.7818608E-02  0.1235075E+00
         -4   -1    0    0    0  501 -0.00000000000E+00  0.00000000000E+00  0.73865496759E+03  0.73865605937E+03  0.12700000000E+01 0.  1.
          4   -1    0    0  501    0  0.00000000000E+00 -0.00000000000E+00 -0.52106476031E+01  0.53631845431E+01  0.12700000000E+01 0.  1.
         25    2    1    2    0    0  0.00000000000E+00  0.00000000000E+00  0.73344431998E+03  0.74401924391E+03  0.12499625912E+03 0.  0.
    9000005    1    3    3    0    0 -0.52845780736E+02  0.32651316094E+02  0.32625014736E+03  0.33211284775E+03  0.10000000000E+01 0.  0.
    9000005    1    3    3    0    0  0.52845780736E+02 -0.32651316094E+02  0.40719417262E+03  0.41190639616E+03  0.10000000000E+01 0.  0.
<mgrwt>
<rscale>  0 0.12499626E+03</rscale>
<asrwt>0</asrwt>
<pdfrwt beam="2">  1        4 0.81345514E-03 0.12499626E+03</pdfrwt>
<pdfrwt beam="1">  1       -4 0.11365112E+00 0.12499626E+03</pdfrwt>
<totfact> 0.40865159E+03</totfact>
</mgrwt>
</event>
<event>
 5    1  0.3239419E-002  0.1249985E+03  0.7818608E-02  0.1235072E+00
         -4   -1    0    0    0  501 -0.00000000000E+00  0.00000000000E+00  0.39479168557E+02  0.39499590504E+02  0.12700000000E+01 0.  1.
          4   -1    0    0  501    0  0.00000000000E+00 -0.00000000000E+00 -0.98892169921E+02  0.98900324427E+02  0.12700000000E+01 0.  1.
         25    2    1    2    0    0  0.00000000000E+00  0.00000000000E+00 -0.59413001364E+02  0.13839991493E+03  0.12499852688E+03 0.  0.
    9000005    1    3    3    0    0  0.25962950840E+02 -0.56090902579E+02 -0.19504888305E+02  0.64820558747E+02  0.10000000000E+01 0.  0.
    9000005    1    3    3    0    0 -0.25962950840E+02  0.56090902579E+02 -0.39908113059E+02  0.73579356184E+02  0.10000000000E+01 0.  0.
<mgrwt>
<rscale>  0 0.12499853E+03</rscale>
<asrwt>0</asrwt>
<pdfrwt beam="2">  1        4 0.15216378E-01 0.12499853E+03</pdfrwt>
<pdfrwt beam="1">  1       -4 0.60759165E-02 0.12499853E+03</pdfrwt>
<totfact> 0.10167194E+04</totfact>
</mgrwt>
</event>
<event>
 5    1  0.3239419E-002  0.1249990E+03  0.7818608E-02  0.1235071E+00
          4   -1    0    0  501    0  0.00000000000E+00  0.00000000000E+00  0.56327701066E+03  0.56327844237E+03  0.12700000000E+01 0.  1.
         -4   -1    0    0    0  501 -0.00000000000E+00 -0.00000000000E+00 -0.68751566772E+01  0.69914719006E+01  0.12700000000E+01 0.  1.
         25    2    1    2    0    0  0.00000000000E+00  0.00000000000E+00  0.55640185399E+03  0.57026991427E+03  0.12499900802E+03 0.  0.
    9000005    1    3    3    0    0  0.62054379913E+02  0.25635061871E+01  0.30976603581E+03  0.31593245254E+03  0.10000000000E+01 0.  0.
    9000005    1    3    3    0    0 -0.62054379913E+02 -0.25635061871E+01  0.24663581818E+03  0.25433746173E+03  0.10000000000E+01 0.  0.
<mgrwt>
<rscale>  0 0.12499901E+03</rscale>
<asrwt>0</asrwt>
<pdfrwt beam="1">  1        4 0.86667035E-01 0.12499901E+03</pdfrwt>
<pdfrwt beam="2">  1       -4 0.10667742E-02 0.12499901E+03</pdfrwt>
<totfact> 0.50800810E+03</totfact>
</mgrwt>
</event>
<event>
 5    1  0.3239419E-002  0.1250000E+03  0.7818608E-02  0.1235069E+00
          4   -1    0    0  501    0  0.00000000000E+00  0.00000000000E+00  0.63225616182E+02  0.63238370010E+02  0.12700000000E+01 0.  1.
         -4   -1    0    0    0  501 -0.00000000000E+00 -0.00000000000E+00 -0.61757222910E+02  0.61770279922E+02  0.12700000000E+01 0.  1.
         25    2    1    2    0    0  0.00000000000E+00  0.00000000000E+00  0.14683932714E+01  0.12500864993E+03  0.12500002552E+03 0.  0.
    9000005    1    3    3    0    0  0.49989621900E+02  0.22707513148E+02  0.30580151979E+02  0.62854905506E+02  0.10000000000E+01 0.  0.
    9000005    1    3    3    0    0 -0.49989621900E+02 -0.22707513148E+02 -0.29111758708E+02  0.62153744426E+02  0.10000000000E+01 0.  0.
<mgrwt>
<rscale>  0 0.12500003E+03</rscale>
<asrwt>0</asrwt>
<pdfrwt beam="1">  1        4 0.97290033E-02 0.12500003E+03</pdfrwt>
<pdfrwt beam="2">  1       -4 0.95030967E-02 0.12500003E+03</pdfrwt>
<totfact> 0.10452669E+04</totfact>
</mgrwt>
</event>
<event>
 5    1  0.3239419E-002  0.1250019E+03  0.7818608E-02  0.1235066E+00
          4   -1    0    0  501    0  0.00000000000E+00  0.00000000000E+00  0.70194622527E+01  0.71334248659E+01  0.12700000000E+01 0. -1.
         -4   -1    0    0    0  501 -0.00000000000E+00 -0.00000000000E+00 -0.55190963898E+03  0.55191110018E+03  0.12700000000E+01 0. -1.
         25    2    1    2    0    0  0.00000000000E+00  0.00000000000E+00 -0.54489017673E+03  0.55904452504E+03  0.12500190513E+03 0.  0.
    9000005    1    3    3    0    0  0.32549036366E+02 -0.52112932332E+02 -0.22141951816E+03  0.22978859960E+03  0.10000000000E+01 0.  0.
    9000005    1    3    3    0    0 -0.32549036366E+02  0.52112932332E+02 -0.32347065857E+03  0.32925592544E+03  0.10000000000E+01 0.  0.
<mgrwt>
<rscale>  0 0.12500191E+03</rscale>
<asrwt>0</asrwt>
<pdfrwt beam="1">  1        4 0.10887965E-02 0.12500191E+03</pdfrwt>
<pdfrwt beam="2">  1       -4 0.84918020E-01 0.12500191E+03</pdfrwt>
<totfact> 0.51557140E+03</totfact>
</mgrwt>
</event>
<event>
 5    1  0.3239419E-002  0.1249996E+03  0.7818608E-02  0.1235070E+00
         -4   -1    0    0    0  501 -0.00000000000E+00  0.00000000000E+00  0.44249967563E+02  0.44268188684E+02  0.12700000000E+01 0. -1.
          4   -1    0    0  501    0  0.00000000000E+00 -0.00000000000E+00 -0.88235390340E+02  0.88244529623E+02  0.12700000000E+01 0. -1.
         25    2    1    2    0    0  0.00000000000E+00  0.00000000000E+00 -0.43985422777E+02  0.13251271831E+03  0.12499961238E+03 0.  0.
    9000005    1    3    3    0    0  0.22045165972E+02 -0.58141388342E+02 -0.15388044929E+02  0.64064048481E+02  0.10000000000E+01 0.  0.
    9000005    1    3    3    0    0 -0.22045165972E+02  0.58141388342E+02 -0.28597377848E+02  0.68448669826E+02  0.10000000000E+01 0.  0.
<mgrwt>
<rscale>  0 0.12499961E+03</rscale>
<asrwt>0</asrwt>
<pdfrwt beam="2">  1        4 0.13576780E-01 0.12499961E+03</pdfrwt>
<pdfrwt beam="1">  1       -4 0.68097920E-02 0.12499961E+03</pdfrwt>
<totfact> 0.10290857E+04</totfact>
</mgrwt>
</event>
<event>
 5    1  0.3239419E-002  0.1249996E+03  0.7818608E-02  0.1235070E+00
         -4   -1    0    0    0  501 -0.00000000000E+00  0.00000000000E+00  0.15965898867E+02  0.16016329999E+02  0.12700000000E+01 0.  1.
          4   -1    0    0  501    0  0.00000000000E+00 -0.00000000000E+00 -0.24422253709E+03  0.24422583918E+03  0.12700000000E+01 0.  1.
         25    2    1    2    0    0  0.00000000000E+00  0.00000000000E+00 -0.22825663822E+03  0.26024216918E+03  0.12499957490E+03 0.  0.
    9000005    1    3    3    0    0 -0.52072831411E+02 -0.31509321936E+02 -0.14363074934E+03  0.15599746567E+03  0.10000000000E+01 0.  0.
    9000005    1    3    3    0    0  0.52072831411E+02  0.31509321936E+02 -0.84625888885E+02  0.10424470351E+03  0.10000000000E+01 0.  0.
<mgrwt>
<rscale>  0 0.12499957E+03</rscale>
<asrwt>0</asrwt>
<pdfrwt beam="2">  1        4 0.37576829E-01 0.12499957E+03</pdfrwt>
<pdfrwt beam="1">  1       -4 0.24604256E-02 0.12499957E+03</pdfrwt>
<totfact> 0.80872854E+03</totfact>
</mgrwt>
</event>
<event>
 5    1  0.3239419E-002  0.1249980E+03  0.7818608E-02  0.1235072E+00
          4   -1    0    0  501    0  0.00000000000E+00  0.00000000000E+00  0.19521666546E+02  0.19562933439E+02  0.12700000000E+01 0. -1.
         -4   -1    0    0    0  501 -0.00000000000E+00 -0.00000000000E+00 -0.19983708369E+03  0.19984111919E+03  0.12700000000E+01 0. -1.
         25    2    1    2    0    0  0.00000000000E+00  0.00000000000E+00 -0.18031541715E+03  0.21940405263E+03  0.12499795458E+03 0.  0.
    9000005    1    3    3    0    0 -0.43378860245E+02  0.24343202631E+02 -0.15655219002E+03  0.16426778513E+03  0.10000000000E+01 0.  0.
    9000005    1    3    3    0    0  0.43378860245E+02 -0.24343202631E+02 -0.23763227125E+02  0.55136267500E+02  0.10000000000E+01 0.  0.
<mgrwt>
<rscale>  0 0.12499795E+03</rscale>
<asrwt>0</asrwt>
<pdfrwt beam="1">  1        4 0.30068183E-02 0.12499795E+03</pdfrwt>
<pdfrwt beam="2">  1       -4 0.30747650E-01 0.12499795E+03</pdfrwt>
<totfact> 0.86966712E+03</totfact>
</mgrwt>
</event>
<event>
 5    1  0.3239419E-002  0.1250003E+03  0.7818608E-02  0.1235069E+00
          4   -1    0    0  501    0  0.00000000000E+00  0.00000000000E+00  0.77680178995E+02  0.77690559972E+02  0.12700000000E+01 0.  1.
         -4   -1    0    0    0  501 -0.00000000000E+00 -0.00000000000E+00 -0.50264817213E+02  0.50280858678E+02  0.12700000000E+01 0.  1.
         25    2    1    2    0    0  0.00000000000E+00  0.00000000000E+00  0.27415361782E+02  0.12797141865E+03  0.12500032772E+03 0.  0.
    9000005    1    3    3    0    0  0.41626013761E+02  0.45282126277E+02  0.23963342664E+01  0.61562475581E+02  0.10000000000E+01 0.  0.
    9000005    1    3    3    0    0 -0.41626013761E+02 -0.45282126277E+02  0.25019027516E+02  0.66408943069E+02  0.10000000000E+01 0.  0.
<mgrwt>
<rscale>  0 0.12500033E+03</rscale>
<asrwt>0</asrwt>
<pdfrwt beam="1">  1        4 0.11952829E-01 0.12500033E+03</pdfrwt>
<pdfrwt beam="2">  1       -4 0.77350813E-02 0.12500033E+03</pdfrwt>
<totfact> 0.10388028E+04</totfact>
</mgrwt>
</event>
<event>
 5    1  0.3239419E-002  0.1250073E+03  0.7818608E-02  0.1235058E+00
          4   -1    0    0  501    0  0.00000000000E+00  0.00000000000E+00  0.13696392748E+03  0.13696981540E+03  0.12700000000E+01 0.  1.
         -4   -1    0    0    0  501 -0.00000000000E+00 -0.00000000000E+00 -0.28502987064E+02  0.28531266561E+02  0.12700000000E+01 0.  1.
         25    2    1    2    0    0  0.00000000000E+00  0.00000000000E+00  0.10846094042E+03  0.16550108196E+03  0.12500732992E+03 0.  0.
    9000005    1    3    3    0    0  0.58355855929E+02  0.57780017004E+01  0.25622624219E+02  0.64002422585E+02  0.10000000000E+01 0.  0.
    9000005    1    3    3    0    0 -0.58355855929E+02 -0.57780017004E+01  0.82838316198E+02  0.10149865938E+03  0.10000000000E+01 0.  0.
<mgrwt>
<rscale>  0 0.12500733E+03</rscale>
<asrwt>0</asrwt>
<pdfrwt beam="1">  1        4 0.21074002E-01 0.12500733E+03</pdfrwt>
<pdfrwt beam="2">  1       -4 0.43877032E-02 0.12500733E+03</pdfrwt>
<totfact> 0.96276726E+03</totfact>
</mgrwt>
</event>
<event>
 5    1  0.3239419E-002  0.1249997E+03  0.7818608E-02  0.1235070E+00
         -4   -1    0    0    0  501 -0.00000000000E+00  0.00000000000E+00  0.13500102105E+03  0.13500699457E+03  0.12700000000E+01 0. -1.
          4   -1    0    0  501    0  0.00000000000E+00 -0.00000000000E+00 -0.28914272080E+02  0.28942149712E+02  0.12700000000E+01 0. -1.
         25    2    1    2    0    0  0.00000000000E+00  0.00000000000E+00  0.10608674897E+03  0.16394914428E+03  0.12499969442E+03 0.  0.
    9000005    1    3    3    0    0  0.11662212965E+02  0.37993180212E+02 -0.10209601866E+02  0.41045400767E+02  0.10000000000E+01 0.  0.
    9000005    1    3    3    0    0 -0.11662212965E+02 -0.37993180212E+02  0.11629635083E+03  0.12290374352E+03  0.10000000000E+01 0.  0.
<mgrwt>
<rscale>  0 0.12499969E+03</rscale>
<asrwt>0</asrwt>
<pdfrwt beam="2">  1        4 0.44509536E-02 0.12499969E+03</pdfrwt>
<pdfrwt beam="1">  1       -4 0.20771991E-01 0.12499969E+03</pdfrwt>
<totfact> 0.96587442E+03</totfact>
</mgrwt>
</event>
<event>
 5    1  0.3239419E-002  0.1249930E+03  0.7818608E-02  0.1235080E+00
          4   -1    0    0  501    0  0.00000000000E+00  0.00000000000E+00  0.15266767679E+02  0.15319500493E+02  0.12700000000E+01 0.  1.
         -4   -1    0    0    0  501 -0.00000000000E+00 -0.00000000000E+00 -0.25534206765E+03  0.25534522594E+03  0.12700000000E+01 0.  1.
         25    2    1    2    0    0  0.00000000000E+00  0.00000000000E+00 -0.24007529997E+03  0.27066472644E+03  0.12499297772E+03 0.  0.
    9000005    1    3    3    0    0 -0.36143221262E+02  0.32640237965E+02 -0.20482486573E+03  0.21053727271E+03  0.10000000000E+01 0.  0.
    9000005    1    3    3    0    0  0.36143221262E+02 -0.32640237965E+02 -0.35250434239E+02  0.60127453727E+02  0.10000000000E+01 0.  0.
<mgrwt>
<rscale>  0 0.12499298E+03</rscale>
<asrwt>0</asrwt>
<pdfrwt beam="1">  1        4 0.23530330E-02 0.12499298E+03</pdfrwt>
<pdfrwt beam="2">  1       -4 0.39287691E-01 0.12499298E+03</pdfrwt>
<totfact> 0.79444738E+03</totfact>
</mgrwt>
</event>
<event>
 4    1  0.3239419E-002  0.1262452E+03  0.7818608E-02  0.1233136E+00
         -4   -1    0    0    0  501 -0.00000000000E+00  0.00000000000E+00  0.16446179689E+04  0.16446184593E+04  0.12700000000E+01 0. -1.
          4   -1    0    0  501    0  0.00000000000E+00 -0.00000000000E+00 -0.22557710524E+01  0.25887068279E+01  0.12700000000E+01 0. -1.
    9000005    1    1    2    0    0 -0.51345531364E+02  0.12429385889E+02  0.37058986704E+03  0.37433768549E+03  0.10000000000E+01 0.  0.
    9000005    1    1    2    0    0  0.51345531364E+02 -0.12429385889E+02  0.12717723308E+04  0.12728694806E+04  0.10000000000E+01 0.  0.
<mgrwt>
<rscale>  0 0.12624523E+03</rscale>
<asrwt>0</asrwt>
<pdfrwt beam="2">  1        4 0.37268861E-03 0.12624523E+03</pdfrwt>
<pdfrwt beam="1">  1       -4 0.25304465E+00 0.12624523E+03</pdfrwt>
<totfact> 0.14800629E+03</totfact>
</mgrwt>
</event>
<event>
 5    1  0.3239419E-002  0.1250005E+03  0.7818608E-02  0.1235069E+00
         -4   -1    0    0    0  501 -0.00000000000E+00  0.00000000000E+00  0.51557097608E+01  0.53098251513E+01  0.12700000000E+01 0.  1.
          4   -1    0    0  501    0  0.00000000000E+00 -0.00000000000E+00 -0.74634890249E+03  0.74634998302E+03  0.12700000000E+01 0.  1.
         25    2    1    2    0    0  0.00000000000E+00  0.00000000000E+00 -0.74119319273E+03  0.75165980817E+03  0.12500047306E+03 0.  0.
    9000005    1    3    3    0    0  0.45518245170E+02  0.42630665567E+02 -0.34654712428E+03  0.35211531298E+03  0.10000000000E+01 0.  0.
    9000005    1    3    3    0    0 -0.45518245170E+02 -0.42630665567E+02 -0.39464606845E+03  0.39954449518E+03  0.10000000000E+01 0.  0.
<mgrwt>
<rscale>  0 0.12500047E+03</rscale>
<asrwt>0</asrwt>
<pdfrwt beam="2">  1        4 0.11483476E+00 0.12500047E+03</pdfrwt>
<pdfrwt beam="1">  1       -4 0.80512486E-03 0.12500047E+03</pdfrwt>
<totfact> 0.40494479E+03</totfact>
</mgrwt>
</event>
<event>
 5    1  0.3239419E-002  0.1250021E+03  0.7818608E-02  0.1235066E+00
         -4   -1    0    0    0  501 -0.00000000000E+00  0.00000000000E+00  0.84117116525E+02  0.84126703208E+02  0.12700000000E+01 0.  1.
          4   -1    0    0  501    0  0.00000000000E+00 -0.00000000000E+00 -0.46418898313E+02  0.46436268375E+02  0.12700000000E+01 0.  1.
         25    2    1    2    0    0  0.00000000000E+00  0.00000000000E+00  0.37698218212E+02  0.13056297158E+03  0.12500213555E+03 0.  0.
    9000005    1    3    3    0    0  0.14128995373E+02  0.53807190876E+02  0.48585628487E+02  0.73867486729E+02  0.10000000000E+01 0.  0.
    9000005    1    3    3    0    0 -0.14128995373E+02 -0.53807190876E+02 -0.10887410275E+02  0.56695484853E+02  0.10000000000E+01 0.  0.
<mgrwt>
<rscale>  0 0.12500214E+03</rscale>
<asrwt>0</asrwt>
<pdfrwt beam="2">  1        4 0.71434426E-02 0.12500214E+03</pdfrwt>
<pdfrwt beam="1">  1       -4 0.12943168E-01 0.12500214E+03</pdfrwt>
<totfact> 0.10331970E+04</totfact>
</mgrwt>
</event>
<event>
 5    1  0.3239419E-002  0.1250010E+03  0.7818608E-02  0.1235068E+00
          4   -1    0    0  501    0  0.00000000000E+00  0.00000000000E+00  0.18698583931E+03  0.18699015215E+03  0.12700000000E+01 0.  1.
         -4   -1    0    0    0  501 -0.00000000000E+00 -0.00000000000E+00 -0.20867089038E+02  0.20905700298E+02  0.12700000000E+01 0.  1.
         25    2    1    2    0    0  0.00000000000E+00  0.00000000000E+00  0.16611875027E+03  0.20789585245E+03  0.12500098509E+03 0.  0.
    9000005    1    3    3    0    0  0.28878247808E+01 -0.22285613853E+02  0.18004168083E+03  0.18144143671E+03  0.10000000000E+01 0.  0.
    9000005    1    3    3    0    0 -0.28878247808E+01  0.22285613853E+02 -0.13922930565E+02  0.26454415742E+02  0.10000000000E+01 0.  0.
<mgrwt>
<rscale>  0 0.12500099E+03</rscale>
<asrwt>0</asrwt>
<pdfrwt beam="1">  1        4 0.28770354E-01 0.12500099E+03</pdfrwt>
<pdfrwt beam="2">  1       -4 0.32136233E-02 0.12500099E+03</pdfrwt>
<totfact> 0.88818716E+03</totfact>
</mgrwt>
</event>
<event>
 5    1  0.3239419E-002  0.1249997E+03  0.7818608E-02  0.1235070E+00
          4   -1    0    0  501    0  0.00000000000E+00  0.00000000000E+00  0.30313065471E+01  0.32865969304E+01  0.12700000000E+01 0. -1.
         -4   -1    0    0    0  501 -0.00000000000E+00 -0.00000000000E+00 -0.12363035996E+04  0.12363042520E+04  0.12700000000E+01 0. -1.
         25    2    1    2    0    0  0.00000000000E+00  0.00000000000E+00 -0.12332722931E+04  0.12395908489E+04  0.12499969484E+03 0.  0.
    9000005    1    3    3    0    0 -0.37999925933E+01  0.50112938234E+02 -0.98495827051E+03  0.98624010320E+03  0.10000000000E+01 0.  0.
    9000005    1    3    3    0    0  0.37999925933E+01 -0.50112938234E+02 -0.24831402259E+03  0.25335074568E+03  0.10000000000E+01 0.  0.
<mgrwt>
<rscale>  0 0.12499969E+03</rscale>
<asrwt>0</asrwt>
<pdfrwt beam="1">  1        4 0.48604374E-03 0.12499969E+03</pdfrwt>
<pdfrwt beam="2">  1       -4 0.19021986E+00 0.12499969E+03</pdfrwt>
<totfact> 0.23699560E+03</totfact>
</mgrwt>
</event>
<event>
 5    1  0.3239419E-002  0.1250010E+03  0.7818608E-02  0.1235068E+00
          4   -1    0    0  501    0  0.00000000000E+00  0.00000000000E+00  0.23607179665E+03  0.23607521274E+03  0.12700000000E+01 0.  1.
         -4   -1    0    0    0  501 -0.00000000000E+00 -0.00000000000E+00 -0.16519238642E+02  0.16567985554E+02  0.12700000000E+01 0.  1.
         25    2    1    2    0    0  0.00000000000E+00  0.00000000000E+00  0.21955255800E+03  0.25264319830E+03  0.12500103968E+03 0.  0.
    9000005    1    3    3    0    0  0.11384350850E+02  0.15784895273E+02  0.22980050751E+03  0.23062532301E+03  0.10000000000E+01 0.  0.
    9000005    1    3    3    0    0 -0.11384350850E+02 -0.15784895273E+02 -0.10247949505E+02  0.22017875286E+02  0.10000000000E+01 0.  0.
<mgrwt>
<rscale>  0 0.12500104E+03</rscale>
<asrwt>0</asrwt>
<pdfrwt beam="1">  1        4 0.36322749E-01 0.12500104E+03</pdfrwt>
<pdfrwt beam="2">  1       -4 0.25454340E-02 0.12500104E+03</pdfrwt>
<totfact> 0.81947801E+03</totfact>
</mgrwt>
</event>
<event>
 5    1  0.3239419E-002  0.1250041E+03  0.7818608E-02  0.1235063E+00
          4   -1    0    0  501    0  0.00000000000E+00  0.00000000000E+00  0.76481155090E+01  0.77528427586E+01  0.12700000000E+01 0.  1.
         -4   -1    0    0    0  501 -0.00000000000E+00 -0.00000000000E+00 -0.50720151341E+03  0.50720310341E+03  0.12700000000E+01 0.  1.
         25    2    1    2    0    0  0.00000000000E+00  0.00000000000E+00 -0.49955339790E+03  0.51495594617E+03  0.12500411648E+03 0.  0.
    9000005    1    3    3    0    0 -0.24763677395E+02  0.71631051752E+01 -0.48429807285E+03  0.48498471435E+03  0.10000000000E+01 0.  0.
    9000005    1    3    3    0    0  0.24763677395E+02 -0.71631051752E+01 -0.15255325058E+02  0.29971231815E+02  0.10000000000E+01 0.  0.
<mgrwt>
<rscale>  0 0.12500412E+03</rscale>
<asrwt>0</asrwt>
<pdfrwt beam="1">  1        4 0.11848118E-02 0.12500412E+03</pdfrwt>
<pdfrwt beam="2">  1       -4 0.78039155E-01 0.12500412E+03</pdfrwt>
<totfact> 0.54717419E+03</totfact>
</mgrwt>
</event>
<event>
 5    1  0.3239419E-002  0.1250067E+03  0.7818608E-02  0.1235059E+00
         -4   -1    0    0    0  501 -0.00000000000E+00  0.00000000000E+00  0.27369998373E+02  0.27399447275E+02  0.12700000000E+01 0.  1.
          4   -1    0    0  501    0  0.00000000000E+00 -0.00000000000E+00 -0.14262644454E+03  0.14263209871E+03  0.12700000000E+01 0.  1.
         25    2    1    2    0    0  0.00000000000E+00  0.00000000000E+00 -0.11525644616E+03  0.17003154598E+03  0.12500671281E+03 0.  0.
    9000005    1    3    3    0    0  0.96655165367E+01  0.20670674747E+02 -0.13676413591E+03  0.13865831340E+03  0.10000000000E+01 0.  0.
    9000005    1    3    3    0    0 -0.96655165367E+01 -0.20670674747E+02  0.21507689744E+02  0.31373232580E+02  0.10000000000E+01 0.  0.
<mgrwt>
<rscale>  0 0.12500671E+03</rscale>
<asrwt>0</asrwt>
<pdfrwt beam="2">  1        4 0.21945230E-01 0.12500671E+03</pdfrwt>
<pdfrwt beam="1">  1       -4 0.42134693E-02 0.12500671E+03</pdfrwt>
<totfact> 0.95428378E+03</totfact>
</mgrwt>
</event>
<event>
 5    1  0.3239419E-002  0.1250011E+03  0.7818608E-02  0.1235068E+00
         -4   -1    0    0    0  501 -0.00000000000E+00  0.00000000000E+00  0.26492352195E+03  0.26492656602E+03  0.12700000000E+01 0.  1.
          4   -1    0    0  501    0  0.00000000000E+00 -0.00000000000E+00 -0.14714603492E+02  0.14769307902E+02  0.12700000000E+01 0.  1.
         25    2    1    2    0    0  0.00000000000E+00  0.00000000000E+00  0.25020891846E+03  0.27969587392E+03  0.12500111604E+03 0.  0.
    9000005    1    3    3    0    0 -0.45745223019E+02  0.16161218801E+02  0.21323965329E+03  0.21869147253E+03  0.10000000000E+01 0.  0.
    9000005    1    3    3    0    0  0.45745223019E+02 -0.16161218801E+02  0.36969265173E+02  0.61004401395E+02  0.10000000000E+01 0.  0.
<mgrwt>
<rscale>  0 0.12500112E+03</rscale>
<asrwt>0</asrwt>
<pdfrwt beam="2">  1        4 0.22682274E-02 0.12500112E+03</pdfrwt>
<pdfrwt beam="1">  1       -4 0.40761906E-01 0.12500112E+03</pdfrwt>
<totfact> 0.78216506E+03</totfact>
</mgrwt>
</event>
<event>
 5    1  0.3239419E-002  0.1249966E+03  0.7818608E-02  0.1235075E+00
          4   -1    0    0  501    0  0.00000000000E+00  0.00000000000E+00  0.28299556896E+03  0.28299841864E+03  0.12700000000E+01 0.  1.
         -4   -1    0    0    0  501 -0.00000000000E+00 -0.00000000000E+00 -0.13770319171E+02  0.13828759528E+02  0.12700000000E+01 0.  1.
         25    2    1    2    0    0  0.00000000000E+00  0.00000000000E+00  0.26922524979E+03  0.29682717816E+03  0.12499655425E+03 0.  0.
    9000005    1    3    3    0    0  0.45988778502E+02  0.23896116488E+02  0.21752417752E+03  0.22361520506E+03  0.10000000000E+01 0.  0.
    9000005    1    3    3    0    0 -0.45988778502E+02 -0.23896116488E+02  0.51701072273E+02  0.73211973102E+02  0.10000000000E+01 0.  0.
<mgrwt>
<rscale>  0 0.12499655E+03</rscale>
<asrwt>0</asrwt>
<pdfrwt beam="1">  1        4 0.43542489E-01 0.12499655E+03</pdfrwt>
<pdfrwt beam="2">  1       -4 0.21232255E-02 0.12499655E+03</pdfrwt>
<totfact> 0.76004380E+03</totfact>
</mgrwt>
</event>
<event>
 5    1  0.3239419E-002  0.1250016E+03  0.7818608E-02  0.1235067E+00
          4   -1    0    0  501    0  0.00000000000E+00  0.00000000000E+00  0.40798086766E+03  0.40798284434E+03  0.12700000000E+01 0.  1.
         -4   -1    0    0    0  501 -0.00000000000E+00 -0.00000000000E+00 -0.95307176314E+01  0.96149611840E+01  0.12700000000E+01 0.  1.
         25    2    1    2    0    0  0.00000000000E+00  0.00000000000E+00  0.39845015003E+03  0.41759780553E+03  0.12500162048E+03 0.  0.
    9000005    1    3    3    0    0  0.53069490633E+02  0.72323658707E+01  0.30678822876E+03  0.31143008085E+03  0.10000000000E+01 0.  0.
    9000005    1    3    3    0    0 -0.53069490633E+02 -0.72323658707E+01  0.91661921266E+02  0.10616772467E+03  0.10000000000E+01 0.  0.
<mgrwt>
<rscale>  0 0.12500162E+03</rscale>
<asrwt>0</asrwt>
<pdfrwt beam="1">  1        4 0.62772919E-01 0.12500162E+03</pdfrwt>
<pdfrwt beam="2">  1       -4 0.14728966E-02 0.12500162E+03</pdfrwt>
<totfact> 0.62874243E+03</totfact>
</mgrwt>
</event>
<event>
 5    1  0.3239419E-002  0.1249990E+03  0.7818608E-02  0.1235071E+00
         -4   -1    0    0    0  501 -0.00000000000E+00  0.00000000000E+00  0.14333280940E+04  0.14333286566E+04  0.12700000000E+01 0.  1.
          4   -1    0    0  501    0  0.00000000000E+00 -0.00000000000E+00 -0.25767066114E+01  0.28726846261E+01  0.12700000000E+01 0.  1.
         25    2    1    2    0    0  0.00000000000E+00  0.00000000000E+00  0.14307513874E+04  0.14362013413E+04  0.12499904057E+03 0.  0.
    9000005    1    3    3    0    0  0.14173505115E+02  0.43511159590E+02  0.22641093500E+03  0.23099138673E+03  0.10000000000E+01 0.  0.
    9000005    1    3    3    0    0 -0.14173505115E+02 -0.43511159590E+02  0.12043404524E+04  0.12052099545E+04  0.10000000000E+01 0.  0.
<mgrwt>
<rscale>  0 0.12499904E+03</rscale>
<asrwt>0</asrwt>
<pdfrwt beam="2">  1        4 0.41922697E-03 0.12499904E+03</pdfrwt>
<pdfrwt beam="1">  1       -4 0.22053496E+00 0.12499904E+03</pdfrwt>
<totfact> 0.19217534E+03</totfact>
</mgrwt>
</event>
<event>
 5    1  0.3239419E-002  0.1250000E+03  0.7818608E-02  0.1235069E+00
         -4   -1    0    0    0  501 -0.00000000000E+00  0.00000000000E+00  0.43736021297E+03  0.43736205687E+03  0.12700000000E+01 0.  1.
          4   -1    0    0  501    0  0.00000000000E+00 -0.00000000000E+00 -0.88844009739E+01  0.89747134030E+01  0.12700000000E+01 0.  1.
         25    2    1    2    0    0  0.00000000000E+00  0.00000000000E+00  0.42847581200E+03  0.44633677028E+03  0.12499996413E+03 0.  0.
    9000005    1    3    3    0    0  0.68070012167E+00  0.59360863762E+02  0.28394170445E+03  0.29008286234E+03  0.10000000000E+01 0.  0.
    9000005    1    3    3    0    0 -0.68070012167E+00 -0.59360863762E+02  0.14453410755E+03  0.15625390794E+03  0.10000000000E+01 0.  0.
<mgrwt>
<rscale>  0 0.12499996E+03</rscale>
<asrwt>0</asrwt>
<pdfrwt beam="2">  1        4 0.13739199E-02 0.12499996E+03</pdfrwt>
<pdfrwt beam="1">  1       -4 0.67293274E-01 0.12499996E+03</pdfrwt>
<totfact> 0.60282505E+03</totfact>
</mgrwt>
</event>
<event>
 5    1  0.3239419E-002  0.1249965E+03  0.7818608E-02  0.1235075E+00
         -4   -1    0    0    0  501 -0.00000000000E+00  0.00000000000E+00  0.21647460911E+02  0.21684682702E+02  0.12700000000E+01 0.  1.
          4   -1    0    0  501    0  0.00000000000E+00 -0.00000000000E+00 -0.18024387067E+03  0.18024834483E+03  0.12700000000E+01 0.  1.
         25    2    1    2    0    0  0.00000000000E+00  0.00000000000E+00 -0.15859640976E+03  0.20193302753E+03  0.12499650563E+03 0.  0.
    9000005    1    3    3    0    0 -0.15296560457E+02 -0.60582732188E+02 -0.80724438769E+02  0.10208666522E+03  0.10000000000E+01 0.  0.
    9000005    1    3    3    0    0  0.15296560457E+02  0.60582732188E+02 -0.77871970993E+02  0.99846362315E+02  0.10000000000E+01 0.  0.
<mgrwt>
<rscale>  0 0.12499651E+03</rscale>
<asrwt>0</asrwt>
<pdfrwt beam="2">  1        4 0.27733033E-01 0.12499651E+03</pdfrwt>
<pdfrwt beam="1">  1       -4 0.33335861E-02 0.12499651E+03</pdfrwt>
<totfact> 0.89817529E+03</totfact>
</mgrwt>
</event>
<event>
 5    1  0.3239419E-002  0.1249985E+03  0.7818608E-02  0.1235072E+00
          4   -1    0    0  501    0  0.00000000000E+00  0.00000000000E+00  0.14178411688E+03  0.14178980464E+03  0.12700000000E+01 0. -1.
         -4   -1    0    0    0  501 -0.00000000000E+00 -0.00000000000E+00 -0.27529142117E+02  0.27558420958E+02  0.12700000000E+01 0. -1.
         25    2    1    2    0    0  0.00000000000E+00  0.00000000000E+00  0.11425497477E+03  0.16934822560E+03  0.12499848901E+03 0.  0.
    9000005    1    3    3    0    0  0.21418312813E+01  0.57602253026E+02  0.89827051015E+02  0.10673568330E+03  0.10000000000E+01 0.  0.
    9000005    1    3    3    0    0 -0.21418312813E+01 -0.57602253026E+02  0.24427923752E+02  0.62612542304E+02  0.10000000000E+01 0.  0.
<mgrwt>
<rscale>  0 0.12499849E+03</rscale>
<asrwt>0</asrwt>
<pdfrwt beam="1">  1        4 0.21815631E-01 0.12499849E+03</pdfrwt>
<pdfrwt beam="2">  1       -4 0.42379423E-02 0.12499849E+03</pdfrwt>
<totfact> 0.95573427E+03</totfact>
</mgrwt>
</event>
<event>
 5    1  0.3239419E-002  0.1250015E+03  0.7818608E-02  0.1235067E+00
          4   -1    0    0  501    0  0.00000000000E+00  0.00000000000E+00  0.69339470891E+02  0.69351100377E+02  0.12700000000E+01 0.  1.
         -4   -1    0    0    0  501 -0.00000000000E+00 -0.00000000000E+00 -0.56313001496E+02  0.56327320525E+02  0.12700000000E+01 0.  1.
         25    2    1    2    0    0  0.00000000000E+00  0.00000000000E+00  0.13026469395E+02  0.12567842090E+03  0.12500150629E+03 0.  0.
    9000005    1    3    3    0    0 -0.55870694082E+01 -0.41153266486E+02 -0.40435862408E+02  0.57972973493E+02  0.10000000000E+01 0.  0.
    9000005    1    3    3    0    0  0.55870694082E+01  0.41153266486E+02  0.53462331802E+02  0.67705447408E+02  0.10000000000E+01 0.  0.
<mgrwt>
<rscale>  0 0.12500151E+03</rscale>
<asrwt>0</asrwt>
<pdfrwt beam="1">  1        4 0.10669607E-01 0.12500151E+03</pdfrwt>
<pdfrwt beam="2">  1       -4 0.86655347E-02 0.12500151E+03</pdfrwt>
<totfact> 0.10437665E+04</totfact>
</mgrwt>
</event>
<event>
 5    1  0.3239419E-002  0.1249974E+03  0.7818608E-02  0.1235073E+00
         -4   -1    0    0    0  501 -0.00000000000E+00  0.00000000000E+00  0.57070536226E+01  0.58466538337E+01  0.12700000000E+01 0.  1.
          4   -1    0    0  501    0  0.00000000000E+00 -0.00000000000E+00 -0.67602108936E+03  0.67602228230E+03  0.12700000000E+01 0.  1.
         25    2    1    2    0    0  0.00000000000E+00  0.00000000000E+00 -0.67031403574E+03  0.68186893613E+03  0.12499735818E+03 0.  0.
    9000005    1    3    3    0    0 -0.18018881019E+02 -0.41516490621E+02 -0.57021823308E+03  0.57201235336E+03  0.10000000000E+01 0.  0.
    9000005    1    3    3    0    0  0.18018881019E+02  0.41516490621E+02 -0.10009580266E+03  0.10985658277E+03  0.10000000000E+01 0.  0.
<mgrwt>
<rscale>  0 0.12499736E+03</rscale>
<asrwt>0</asrwt>
<pdfrwt beam="2">  1        4 0.10401401E+00 0.12499736E+03</pdfrwt>
<pdfrwt beam="1">  1       -4 0.88883903E-03 0.12499736E+03</pdfrwt>
<totfact> 0.44063819E+03</totfact>
</mgrwt>
</event>
<event>
 5    1  0.3239419E-002  0.1250000E+03  0.7818608E-02  0.1235069E+00
         -4   -1    0    0    0  501 -0.00000000000E+00  0.00000000000E+00  0.28727049161E+03  0.28727329888E+03  0.12700000000E+01 0. -1.
          4   -1    0    0  501    0  0.00000000000E+00 -0.00000000000E+00 -0.13565272283E+02  0.13624592182E+02  0.12700000000E+01 0. -1.
         25    2    1    2    0    0  0.00000000000E+00  0.00000000000E+00  0.27370521933E+03  0.30089789106E+03  0.12499997504E+03 0.  0.
    9000005    1    3    3    0    0  0.40980369991E+02 -0.44634374618E+02  0.17364633969E+03  0.18391756145E+03  0.10000000000E+01 0.  0.
    9000005    1    3    3    0    0 -0.40980369991E+02  0.44634374618E+02  0.10005887963E+03  0.11698032961E+03  0.10000000000E+01 0.  0.
<mgrwt>
<rscale>  0 0.12499998E+03</rscale>
<asrwt>0</asrwt>
<pdfrwt beam="2">  1        4 0.20917442E-02 0.12499998E+03</pdfrwt>
<pdfrwt beam="1">  1       -4 0.44200235E-01 0.12499998E+03</pdfrwt>
<totfact> 0.75486390E+03</totfact>
</mgrwt>
</event>
<event>
 5    1  0.3239419E-002  0.1250056E+03  0.7818608E-02  0.1235060E+00
          4   -1    0    0  501    0  0.00000000000E+00  0.00000000000E+00  0.14579564782E+03  0.14580117909E+03  0.12700000000E+01 0.  1.
         -4   -1    0    0    0  501 -0.00000000000E+00 -0.00000000000E+00 -0.26773960214E+02  0.26804063974E+02  0.12700000000E+01 0.  1.
         25    2    1    2    0    0  0.00000000000E+00  0.00000000000E+00  0.11902168761E+03  0.17260524307E+03  0.12500563112E+03 0.  0.
    9000005    1    3    3    0    0 -0.54188397918E+02 -0.30585908385E+02  0.51492603126E+02  0.80773562738E+02  0.10000000000E+01 0.  0.
    9000005    1    3    3    0    0  0.54188397918E+02  0.30585908385E+02  0.67529084484E+02  0.91831680328E+02  0.10000000000E+01 0.  0.
<mgrwt>
<rscale>  0 0.12500563E+03</rscale>
<asrwt>0</asrwt>
<pdfrwt beam="1">  1        4 0.22432841E-01 0.12500563E+03</pdfrwt>
<pdfrwt beam="2">  1       -4 0.41218120E-02 0.12500563E+03</pdfrwt>
<totfact> 0.94953275E+03</totfact>
</mgrwt>
</event>
<event>
 5    1  0.3239419E-002  0.1250008E+03  0.7818608E-02  0.1235068E+00
          4   -1    0    0  501    0  0.00000000000E+00  0.00000000000E+00  0.19711236099E+03  0.19711645227E+03  0.12700000000E+01 0. -1.
         -4   -1    0    0    0  501 -0.00000000000E+00 -0.00000000000E+00 -0.19792968428E+02  0.19833670845E+02  0.12700000000E+01 0. -1.
         25    2    1    2    0    0  0.00000000000E+00  0.00000000000E+00  0.17731939257E+03  0.21695012312E+03  0.12500075576E+03 0.  0.
    9000005    1    3    3    0    0 -0.45650452489E+02 -0.34181805907E+02  0.44310771946E+02  0.72227447539E+02  0.10000000000E+01 0.  0.
    9000005    1    3    3    0    0  0.45650452489E+02  0.34181805907E+02  0.13300862062E+03  0.14472267558E+03  0.10000000000E+01 0.  0.
<mgrwt>
<rscale>  0 0.12500076E+03</rscale>
<asrwt>0</asrwt>
<pdfrwt beam="1">  1        4 0.30328424E-01 0.12500076E+03</pdfrwt>
<pdfrwt beam="2">  1       -4 0.30485177E-02 0.12500076E+03</pdfrwt>
<totfact> 0.87351789E+03</totfact>
</mgrwt>
</event>
<event>
 5    1  0.3239419E-002  0.1250037E+03  0.7818608E-02  0.1235064E+00
         -4   -1    0    0    0  501 -0.00000000000E+00  0.00000000000E+00  0.85754915138E+01  0.86690227075E+01  0.12700000000E+01 0.  1.
          4   -1    0    0  501    0  0.00000000000E+00 -0.00000000000E+00 -0.45297479002E+03  0.45297657036E+03  0.12700000000E+01 0.  1.
         25    2    1    2    0    0  0.00000000000E+00  0.00000000000E+00 -0.44439929851E+03  0.46164559306E+03  0.12500366828E+03 0.  0.
    9000005    1    3    3    0    0  0.23222782053E+02 -0.56986426870E+02 -0.26244020846E+03  0.26956003685E+03  0.10000000000E+01 0.  0.
    9000005    1    3    3    0    0 -0.23222782053E+02  0.56986426870E+02 -0.18195909005E+03  0.19208555621E+03  0.10000000000E+01 0.  0.
<mgrwt>
<rscale>  0 0.12500367E+03</rscale>
<asrwt>0</asrwt>
<pdfrwt beam="2">  1        4 0.69695742E-01 0.12500367E+03</pdfrwt>
<pdfrwt beam="1">  1       -4 0.13266384E-02 0.12500367E+03</pdfrwt>
<totfact> 0.58963295E+03</totfact>
</mgrwt>
</event>
<event>
 5    1  0.3239419E-002  0.1249996E+03  0.7818608E-02  0.1235070E+00
         -4   -1    0    0    0  501 -0.00000000000E+00  0.00000000000E+00  0.22775160384E+02  0.22810542091E+02  0.12700000000E+01 0.  1.
          4   -1    0    0  501    0  0.00000000000E+00 -0.00000000000E+00 -0.17134166464E+03  0.17134637125E+03  0.12700000000E+01 0.  1.
         25    2    1    2    0    0  0.00000000000E+00  0.00000000000E+00 -0.14856650426E+03  0.19415691335E+03  0.12499960325E+03 0.  0.
    9000005    1    3    3    0    0 -0.38630413256E+02  0.42914848006E+02 -0.11140689302E+03  0.12548501432E+03  0.10000000000E+01 0.  0.
    9000005    1    3    3    0    0  0.38630413256E+02 -0.42914848006E+02 -0.37159611237E+02  0.68671899020E+02  0.10000000000E+01 0.  0.
<mgrwt>
<rscale>  0 0.12499960E+03</rscale>
<asrwt>0</asrwt>
<pdfrwt beam="2">  1        4 0.26363339E-01 0.12499960E+03</pdfrwt>
<pdfrwt beam="1">  1       -4 0.35069547E-02 0.12499960E+03</pdfrwt>
<totfact> 0.91129824E+03</totfact>
</mgrwt>
</event>
<event>
 5    1  0.3239419E-002  0.1249982E+03  0.7818608E-02  0.1235072E+00
          4   -1    0    0  501    0  0.00000000000E+00  0.00000000000E+00  0.10911775535E+01  0.16743859929E+01  0.12700000000E+01 0. -1.
         -4   -1    0    0    0  501 -0.00000000000E+00 -0.00000000000E+00 -0.28242550376E+04  0.28242553231E+04  0.12700000000E+01 0. -1.
         25    2    1    2    0    0  0.00000000000E+00  0.00000000000E+00 -0.28231638600E+04  0.28259297091E+04  0.12499816123E+03 0.  0.
    9000005    1    3    3    0    0  0.14753976610E+02 -0.36521603391E+01 -0.27819405009E+04  0.27819822014E+04  0.10000000000E+01 0.  0.
    9000005    1    3    3    0    0 -0.14753976610E+02  0.36521603391E+01 -0.41223359129E+02  0.43947507766E+02  0.10000000000E+01 0.  0.
<mgrwt>
<rscale>  0 0.12499816E+03</rscale>
<asrwt>0</asrwt>
<pdfrwt beam="1">  1        4 0.21275988E-03 0.12499816E+03</pdfrwt>
<pdfrwt beam="2">  1       -4 0.43454104E+00 0.12499816E+03</pdfrwt>
<totfact> 0.25847614E+02</totfact>
</mgrwt>
</event>
<event>
 5    1  0.3239419E-002  0.1250029E+03  0.7818608E-02  0.1235065E+00
         -4   -1    0    0    0  501 -0.00000000000E+00  0.00000000000E+00  0.14123344637E+03  0.14123915630E+03  0.12700000000E+01 0. -1.
          4   -1    0    0  501    0  0.00000000000E+00 -0.00000000000E+00 -0.27638521188E+02  0.27667684281E+02  0.12700000000E+01 0. -1.
         25    2    1    2    0    0  0.00000000000E+00  0.00000000000E+00  0.11359492518E+03  0.16890684058E+03  0.12500285504E+03 0.  0.
    9000005    1    3    3    0    0  0.32795755263E+02  0.53100009057E+02  0.52470186978E+02  0.81543197427E+02  0.10000000000E+01 0.  0.
    9000005    1    3    3    0    0 -0.32795755263E+02 -0.53100009057E+02  0.61124738200E+02  0.87363643154E+02  0.10000000000E+01 0.  0.
<mgrwt>
<rscale>  0 0.12500286E+03</rscale>
<asrwt>0</asrwt>
<pdfrwt beam="2">  1        4 0.42547626E-02 0.12500286E+03</pdfrwt>
<pdfrwt beam="1">  1       -4 0.21730905E-01 0.12500286E+03</pdfrwt>
<totfact> 0.95646439E+03</totfact>
</mgrwt>
</event>
<event>
 5    1  0.3239419E-002  0.1249977E+03  0.7818608E-02  0.1235073E+00
         -4   -1    0    0    0  501 -0.00000000000E+00  0.00000000000E+00  0.88405035886E+02  0.88414157633E+02  0.12700000000E+01 0. -1.
          4   -1    0    0  501    0  0.00000000000E+00 -0.00000000000E+00 -0.44163646362E+02  0.44181903082E+02  0.12700000000E+01 0. -1.
         25    2    1    2    0    0  0.00000000000E+00  0.00000000000E+00  0.44241389524E+02  0.13259606072E+03  0.12499765906E+03 0.  0.
    9000005    1    3    3    0    0  0.51577473005E+02  0.21542988511E+02 -0.75200859445E+01  0.56408224296E+02  0.10000000000E+01 0.  0.
    9000005    1    3    3    0    0 -0.51577473005E+02 -0.21542988511E+02  0.51761475468E+02  0.76187836419E+02  0.10000000000E+01 0.  0.
<mgrwt>
<rscale>  0 0.12499766E+03</rscale>
<asrwt>0</asrwt>
<pdfrwt beam="2">  1        4 0.67965132E-02 0.12499766E+03</pdfrwt>
<pdfrwt beam="1">  1       -4 0.13602881E-01 0.12499766E+03</pdfrwt>
<totfact> 0.10289536E+04</totfact>
</mgrwt>
</event>
<event>
 5    1  0.3239419E-002  0.1249984E+03  0.7818608E-02  0.1235072E+00
          4   -1    0    0  501    0  0.00000000000E+00  0.00000000000E+00  0.30607098482E+02  0.30633435614E+02  0.12700000000E+01 0. -1.
         -4   -1    0    0    0  501 -0.00000000000E+00 -0.00000000000E+00 -0.12753806865E+03  0.12754439171E+03  0.12700000000E+01 0. -1.
         25    2    1    2    0    0  0.00000000000E+00  0.00000000000E+00 -0.96930970170E+02  0.15817782732E+03  0.12499844830E+03 0.  0.
    9000005    1    3    3    0    0 -0.20325160769E+02  0.17432224509E+02 -0.11991691590E+03  0.12287416869E+03  0.10000000000E+01 0.  0.
    9000005    1    3    3    0    0  0.20325160769E+02 -0.17432224509E+02  0.22985945731E+02  0.35303658631E+02  0.10000000000E+01 0.  0.
<mgrwt>
<rscale>  0 0.12499845E+03</rscale>
<asrwt>0</asrwt>
<pdfrwt beam="1">  1        4 0.47112968E-02 0.12499845E+03</pdfrwt>
<pdfrwt beam="2">  1       -4 0.19623753E-01 0.12499845E+03</pdfrwt>
<totfact> 0.97698648E+03</totfact>
</mgrwt>
</event>
<event>
 5    1  0.3239419E-002  0.1250058E+03  0.7818608E-02  0.1235060E+00
         -4   -1    0    0    0  501 -0.00000000000E+00  0.00000000000E+00  0.57555173233E+03  0.57555313351E+03  0.12700000000E+01 0.  1.
          4   -1    0    0  501    0  0.00000000000E+00 -0.00000000000E+00 -0.67267680492E+01  0.68456050417E+01  0.12700000000E+01 0.  1.
         25    2    1    2    0    0  0.00000000000E+00  0.00000000000E+00  0.56882496429E+03  0.58239873855E+03  0.12500580256E+03 0.  0.
    9000005    1    3    3    0    0 -0.26702639904E+02  0.27055303984E+02  0.51551787289E+03  0.51691846332E+03  0.10000000000E+01 0.  0.
    9000005    1    3    3    0    0  0.26702639904E+02 -0.27055303984E+02  0.53307091396E+02  0.65480275233E+02  0.10000000000E+01 0.  0.
<mgrwt>
<rscale>  0 0.12500580E+03</rscale>
<asrwt>0</asrwt>
<pdfrwt beam="2">  1        4 0.10441362E-02 0.12500580E+03</pdfrwt>
<pdfrwt beam="1">  1       -4 0.88555691E-01 0.12500580E+03</pdfrwt>
<totfact> 0.49991468E+03</totfact>
</mgrwt>
</event>
<event>
 5    1  0.3239419E-002  0.1249998E+03  0.7818608E-02  0.1235070E+00
         -4   -1    0    0    0  501 -0.00000000000E+00  0.00000000000E+00  0.50856701778E+02  0.50872556607E+02  0.12700000000E+01 0. -1.
          4   -1    0    0  501    0  0.00000000000E+00 -0.00000000000E+00 -0.76775674055E+02  0.76786177314E+02  0.12700000000E+01 0. -1.
         25    2    1    2    0    0  0.00000000000E+00  0.00000000000E+00 -0.25918972277E+02  0.12765873392E+03  0.12499983689E+03 0.  0.
    9000005    1    3    3    0    0 -0.56122927295E+02 -0.27450456705E+02 -0.14378010966E+02  0.64117374718E+02  0.10000000000E+01 0.  0.
    9000005    1    3    3    0    0  0.56122927295E+02  0.27450456705E+02 -0.11540961311E+02  0.63541359203E+02  0.10000000000E+01 0.  0.
<mgrwt>
<rscale>  0 0.12499984E+03</rscale>
<asrwt>0</asrwt>
<pdfrwt beam="2">  1        4 0.11813670E-01 0.12499984E+03</pdfrwt>
<pdfrwt beam="1">  1       -4 0.78261355E-02 0.12499984E+03</pdfrwt>
<totfact> 0.10394903E+04</totfact>
</mgrwt>
</event>
<event>
 5    1  0.3239419E-002  0.1249952E+03  0.7818608E-02  0.1235077E+00
          4   -1    0    0  501    0  0.00000000000E+00  0.00000000000E+00  0.23046297602E+04  0.23046301101E+04  0.12700000000E+01 0.  1.
         -4   -1    0    0    0  501 -0.00000000000E+00 -0.00000000000E+00 -0.14565129943E+01  0.19324414875E+01  0.12700000000E+01 0.  1.
         25    2    1    2    0    0  0.00000000000E+00  0.00000000000E+00  0.23031732472E+04  0.23065625516E+04  0.12499519135E+03 0.  0.
    9000005    1    3    3    0    0 -0.34624579804E+02 -0.50813464604E+02  0.13571389481E+04  0.13585315581E+04  0.10000000000E+01 0.  0.
    9000005    1    3    3    0    0  0.34624579804E+02  0.50813464604E+02  0.94603429906E+03  0.94803099354E+03  0.10000000000E+01 0.  0.
<mgrwt>
<rscale>  0 0.12499519E+03</rscale>
<asrwt>0</asrwt>
<pdfrwt beam="1">  1        4 0.35459807E+00 0.12499519E+03</pdfrwt>
<pdfrwt beam="2">  1       -4 0.26071351E-03 0.12499519E+03</pdfrwt>
<totfact> 0.63724312E+02</totfact>
</mgrwt>
</event>
<event>
 5    1  0.3239419E-002  0.1250014E+03  0.7818608E-02  0.1235067E+00
          4   -1    0    0  501    0  0.00000000000E+00  0.00000000000E+00  0.50497518215E+02  0.50513485782E+02  0.12700000000E+01 0.  1.
         -4   -1    0    0    0  501 -0.00000000000E+00 -0.00000000000E+00 -0.77323651300E+02  0.77334080136E+02  0.12700000000E+01 0.  1.
         25    2    1    2    0    0  0.00000000000E+00  0.00000000000E+00 -0.26826133086E+02  0.12784756592E+03  0.12500143477E+03 0.  0.
    9000005    1    3    3    0    0  0.44700560522E+02  0.43650851100E+02 -0.12039826256E+02  0.63635637256E+02  0.10000000000E+01 0.  0.
    9000005    1    3    3    0    0 -0.44700560522E+02 -0.43650851100E+02 -0.14786306829E+02  0.64211928661E+02  0.10000000000E+01 0.  0.
<mgrwt>
<rscale>  0 0.12500143E+03</rscale>
<asrwt>0</asrwt>
<pdfrwt beam="1">  1        4 0.77708794E-02 0.12500143E+03</pdfrwt>
<pdfrwt beam="2">  1       -4 0.11897977E-01 0.12500143E+03</pdfrwt>
<totfact> 0.10390444E+04</totfact>
</mgrwt>
</event>
<event>
 5    1  0.3239419E-002  0.1249986E+03  0.7818608E-02  0.1235071E+00
          4   -1    0    0  501    0  0.00000000000E+00  0.00000000000E+00  0.85972499677E+01  0.86905469912E+01  0.12700000000E+01 0.  1.
         -4   -1    0    0    0  501 -0.00000000000E+00 -0.00000000000E+00 -0.45180392456E+03  0.45180570951E+03  0.12700000000E+01 0.  1.
         25    2    1    2    0    0  0.00000000000E+00  0.00000000000E+00 -0.44320667459E+03  0.46049625650E+03  0.12499858339E+03 0.  0.
    9000005    1    3    3    0    0 -0.61323056841E+02 -0.91154845876E+01 -0.25050630653E+03  0.25806591982E+03  0.10000000000E+01 0.  0.
    9000005    1    3    3    0    0  0.61323056841E+02  0.91154845876E+01 -0.19270036806E+03  0.20243033668E+03  0.10000000000E+01 0.  0.
<mgrwt>
<rscale>  0 0.12499858E+03</rscale>
<asrwt>0</asrwt>
<pdfrwt beam="1">  1        4 0.13299682E-02 0.12499858E+03</pdfrwt>
<pdfrwt beam="2">  1       -4 0.69515592E-01 0.12499858E+03</pdfrwt>
<totfact> 0.59067020E+03</totfact>
</mgrwt>
</event>
<event>
 5    1  0.3239419E-002  0.1250001E+03  0.7818608E-02  0.1235069E+00
          4   -1    0    0  501    0  0.00000000000E+00  0.00000000000E+00  0.50639096073E+01  0.52207356293E+01  0.12700000000E+01 0.  1.
         -4   -1    0    0    0  501 -0.00000000000E+00 -0.00000000000E+00 -0.75947094762E+03  0.75947200947E+03  0.12700000000E+01 0.  1.
         25    2    1    2    0    0  0.00000000000E+00  0.00000000000E+00 -0.75440703801E+03  0.76469274510E+03  0.12500006166E+03 0.  0.
    9000005    1    3    3    0    0  0.36406744801E+02  0.42304750596E+02 -0.54916087519E+03  0.55199076969E+03  0.10000000000E+01 0.  0.
    9000005    1    3    3    0    0 -0.36406744801E+02 -0.42304750596E+02 -0.20524616282E+03  0.21270197541E+03  0.10000000000E+01 0.  0.
<mgrwt>
<rscale>  0 0.12500006E+03</rscale>
<asrwt>0</asrwt>
<pdfrwt beam="1">  1        4 0.79120884E-03 0.12500006E+03</pdfrwt>
<pdfrwt beam="2">  1       -4 0.11685374E+00 0.12500006E+03</pdfrwt>
<totfact> 0.39881022E+03</totfact>
</mgrwt>
</event>
<event>
 5    1  0.3239419E-002  0.1250015E+03  0.7818608E-02  0.1235067E+00
         -4   -1    0    0    0  501 -0.00000000000E+00  0.00000000000E+00  0.48429840981E+02  0.48446490043E+02  0.12700000000E+01 0.  1.
          4   -1    0    0  501    0  0.00000000000E+00 -0.00000000000E+00 -0.80624331470E+02  0.80634333414E+02  0.12700000000E+01 0.  1.
         25    2    1    2    0    0  0.00000000000E+00  0.00000000000E+00 -0.32194490489E+02  0.12908082346E+03  0.12500149506E+03 0.  0.
    9000005    1    3    3    0    0  0.55129991421E+02  0.17761587986E+02  0.81323565030E+01  0.58497223731E+02  0.10000000000E+01 0.  0.
    9000005    1    3    3    0    0 -0.55129991421E+02 -0.17761587986E+02 -0.40326846992E+02  0.70583599726E+02  0.10000000000E+01 0.  0.
<mgrwt>
<rscale>  0 0.12500150E+03</rscale>
<asrwt>0</asrwt>
<pdfrwt beam="2">  1        4 0.12405793E-01 0.12500150E+03</pdfrwt>
<pdfrwt beam="1">  1       -4 0.74527948E-02 0.12500150E+03</pdfrwt>
<totfact> 0.10363861E+04</totfact>
</mgrwt>
</event>
<event>
 5    1  0.3239419E-002  0.1250022E+03  0.7818608E-02  0.1235066E+00
         -4   -1    0    0    0  501 -0.00000000000E+00  0.00000000000E+00  0.33596262952E+01  0.35916554461E+01  0.12700000000E+01 0. -1.
          4   -1    0    0  501    0  0.00000000000E+00 -0.00000000000E+00 -0.11237011516E+04  0.11237018693E+04  0.12700000000E+01 0. -1.
         25    2    1    2    0    0  0.00000000000E+00  0.00000000000E+00 -0.11203415253E+04  0.11272935247E+04  0.12500223018E+03 0.  0.
    9000005    1    3    3    0    0 -0.15198082342E+02  0.57168041982E+02 -0.74193202158E+03  0.74428710279E+03  0.10000000000E+01 0.  0.
    9000005    1    3    3    0    0  0.15198082342E+02 -0.57168041982E+02 -0.37840950372E+03  0.38300642192E+03  0.10000000000E+01 0.  0.
<mgrwt>
<rscale>  0 0.12500223E+03</rscale>
<asrwt>0</asrwt>
<pdfrwt beam="2">  1        4 0.17289471E+00 0.12500223E+03</pdfrwt>
<pdfrwt beam="1">  1       -4 0.53477008E-03 0.12500223E+03</pdfrwt>
<totfact> 0.26696752E+03</totfact>
</mgrwt>
</event>
<event>
 5    1  0.3239419E-002  0.1250024E+03  0.7818608E-02  0.1235065E+00
         -4   -1    0    0    0  501 -0.00000000000E+00  0.00000000000E+00  0.37606659452E+02  0.37628097682E+02  0.12700000000E+01 0. -1.
          4   -1    0    0  501    0  0.00000000000E+00 -0.00000000000E+00 -0.10382032976E+03  0.10382809722E+03  0.12700000000E+01 0. -1.
         25    2    1    2    0    0  0.00000000000E+00  0.00000000000E+00 -0.66213670309E+02  0.14145619490E+03  0.12500241973E+03 0.  0.
    9000005    1    3    3    0    0 -0.53365160328E+02  0.20902267646E+02 -0.49146286719E+01  0.57531719117E+02  0.10000000000E+01 0.  0.
    9000005    1    3    3    0    0  0.53365160328E+02 -0.20902267646E+02 -0.61299041637E+02  0.83924475781E+02  0.10000000000E+01 0.  0.
<mgrwt>
<rscale>  0 0.12500242E+03</rscale>
<asrwt>0</asrwt>
<pdfrwt beam="2">  1        4 0.15974605E-01 0.12500242E+03</pdfrwt>
<pdfrwt beam="1">  1       -4 0.57878865E-02 0.12500242E+03</pdfrwt>
<totfact> 0.10102943E+04</totfact>
</mgrwt>
</event>
<event>
 5    1  0.3239419E-002  0.1250009E+03  0.7818608E-02  0.1235068E+00
          4   -1    0    0  501    0  0.00000000000E+00  0.00000000000E+00  0.31719176168E+03  0.31719430414E+03  0.12700000000E+01 0. -1.
         -4   -1    0    0    0  501 -0.00000000000E+00 -0.00000000000E+00 -0.12279935161E+02  0.12345432660E+02  0.12700000000E+01 0. -1.
         25    2    1    2    0    0  0.00000000000E+00  0.00000000000E+00  0.30491182652E+03  0.32953973680E+03  0.12500086471E+03 0.  0.
    9000005    1    3    3    0    0  0.37814702977E+02 -0.38039965853E+02  0.67916837469E+02  0.86548758369E+02  0.10000000000E+01 0.  0.
    9000005    1    3    3    0    0 -0.37814702977E+02  0.38039965853E+02  0.23699498905E+03  0.24299097843E+03  0.10000000000E+01 0.  0.
<mgrwt>
<rscale>  0 0.12500086E+03</rscale>
<asrwt>0</asrwt>
<pdfrwt beam="1">  1        4 0.48803964E-01 0.12500086E+03</pdfrwt>
<pdfrwt beam="2">  1       -4 0.18944547E-02 0.12500086E+03</pdfrwt>
<totfact> 0.72034304E+03</totfact>
</mgrwt>
</event>
<event>
 5    1  0.3239419E-002  0.1249983E+03  0.7818608E-02  0.1235072E+00
         -4   -1    0    0    0  501 -0.00000000000E+00  0.00000000000E+00  0.11997709220E+03  0.11998381371E+03  0.12700000000E+01 0.  1.
          4   -1    0    0  501    0  0.00000000000E+00 -0.00000000000E+00 -0.32537409318E+02  0.32562185201E+02  0.12700000000E+01 0.  1.
         25    2    1    2    0    0  0.00000000000E+00  0.00000000000E+00  0.87439682880E+02  0.15254599891E+03  0.12499833455E+03 0.  0.
    9000005    1    3    3    0    0  0.33812217295E+02 -0.21756495907E+02  0.10210135512E+03  0.10973740415E+03  0.10000000000E+01 0.  0.
    9000005    1    3    3    0    0 -0.33812217295E+02  0.21756495907E+02 -0.14661672239E+02  0.42808594761E+02  0.10000000000E+01 0.  0.
<mgrwt>
<rscale>  0 0.12499833E+03</rscale>
<asrwt>0</asrwt>
<pdfrwt beam="2">  1        4 0.50081781E-02 0.12499833E+03</pdfrwt>
<pdfrwt beam="1">  1       -4 0.18460437E-01 0.12499833E+03</pdfrwt>
<totfact> 0.98802293E+03</totfact>
</mgrwt>
</event>
<event>
 5    1  0.3239419E-002  0.1250060E+03  0.7818608E-02  0.1235060E+00
         -4   -1    0    0    0  501 -0.00000000000E+00  0.00000000000E+00  0.15975632195E+02  0.16026032697E+02  0.12700000000E+01 0. -1.
          4   -1    0    0  501    0  0.00000000000E+00 -0.00000000000E+00 -0.24409948289E+03  0.24410278665E+03  0.12700000000E+01 0. -1.
         25    2    1    2    0    0  0.00000000000E+00  0.00000000000E+00 -0.22812385070E+03  0.26012881934E+03  0.12500604544E+03 0.  0.
    9000005    1    3    3    0    0 -0.44386929433E+02 -0.15391275095E+02 -0.19982393685E+03  0.20527468570E+03  0.10000000000E+01 0.  0.
    9000005    1    3    3    0    0  0.44386929433E+02  0.15391275095E+02 -0.28299913853E+02  0.54854133642E+02  0.10000000000E+01 0.  0.
<mgrwt>
<rscale>  0 0.12500605E+03</rscale>
<asrwt>0</asrwt>
<pdfrwt beam="2">  1        4 0.37557895E-01 0.12500605E+03</pdfrwt>
<pdfrwt beam="1">  1       -4 0.24619208E-02 0.12500605E+03</pdfrwt>
<totfact> 0.80877103E+03</totfact>
</mgrwt>
</event>
<event>
 5    1  0.3239419E-002  0.1249968E+03  0.7818608E-02  0.1235074E+00
          4   -1    0    0  501    0  0.00000000000E+00  0.00000000000E+00  0.29388854293E+01  0.32015539299E+01  0.12700000000E+01 0.  1.
         -4   -1    0    0    0  501 -0.00000000000E+00 -0.00000000000E+00 -0.12719745344E+04  0.12719751684E+04  0.12700000000E+01 0.  1.
         25    2    1    2    0    0  0.00000000000E+00  0.00000000000E+00 -0.12690356490E+04  0.12751767224E+04  0.12499677936E+03 0.  0.
    9000005    1    3    3    0    0  0.31180041266E+02 -0.47900966020E+02 -0.37676621227E+03  0.38107804479E+03  0.10000000000E+01 0.  0.
    9000005    1    3    3    0    0 -0.31180041266E+02  0.47900966020E+02 -0.89226943672E+03  0.89409867756E+03  0.10000000000E+01 0.  0.
<mgrwt>
<rscale>  0 0.12499678E+03</rscale>
<asrwt>0</asrwt>
<pdfrwt beam="1">  1        4 0.47239128E-03 0.12499678E+03</pdfrwt>
<pdfrwt beam="2">  1       -4 0.19570822E+00 0.12499678E+03</pdfrwt>
<totfact> 0.22823747E+03</totfact>
</mgrwt>
</event>
<event>
 5    1  0.3239419E-002  0.1250000E+03  0.7818608E-02  0.1235069E+00
         -4   -1    0    0    0  501 -0.00000000000E+00  0.00000000000E+00  0.63831596729E+02  0.63844229504E+02  0.12700000000E+01 0. -1.
          4   -1    0    0  501    0  0.00000000000E+00 -0.00000000000E+00 -0.61170858145E+02  0.61184040290E+02  0.12700000000E+01 0. -1.
         25    2    1    2    0    0  0.00000000000E+00  0.00000000000E+00  0.26607385840E+01  0.12502826979E+03  0.12499995487E+03 0.  0.
    9000005    1    3    3    0    0  0.13881900162E+02  0.39564137002E+02  0.47678961230E+02  0.63500483721E+02  0.10000000000E+01 0.  0.
    9000005    1    3    3    0    0 -0.13881900162E+02 -0.39564137002E+02 -0.45018222646E+02  0.61527786073E+02  0.10000000000E+01 0.  0.
<mgrwt>
<rscale>  0 0.12499995E+03</rscale>
<asrwt>0</asrwt>
<pdfrwt beam="2">  1        4 0.94128870E-02 0.12499995E+03</pdfrwt>
<pdfrwt beam="1">  1       -4 0.98222314E-02 0.12499995E+03</pdfrwt>
<totfact> 0.10452259E+04</totfact>
</mgrwt>
</event>
<event>
 5    1  0.3239419E-002  0.1249979E+03  0.7818608E-02  0.1235073E+00
          4   -1    0    0  501    0  0.00000000000E+00  0.00000000000E+00  0.13429294466E+02  0.13489212351E+02  0.12700000000E+01 0.  1.
         -4   -1    0    0    0  501 -0.00000000000E+00 -0.00000000000E+00 -0.29015663356E+03  0.29015941291E+03  0.12700000000E+01 0.  1.
         25    2    1    2    0    0  0.00000000000E+00  0.00000000000E+00 -0.27672733910E+03  0.30364862526E+03  0.12499786966E+03 0.  0.
    9000005    1    3    3    0    0 -0.62212417320E+01  0.37001040381E+02 -0.16966880946E+02  0.41190482966E+02  0.10000000000E+01 0.  0.
    9000005    1    3    3    0    0  0.62212417320E+01 -0.37001040381E+02 -0.25976045815E+03  0.26245814229E+03  0.10000000000E+01 0.  0.
<mgrwt>
<rscale>  0 0.12499787E+03</rscale>
<asrwt>0</asrwt>
<pdfrwt beam="1">  1        4 0.20708684E-02 0.12499787E+03</pdfrwt>
<pdfrwt beam="2">  1       -4 0.44644300E-01 0.12499787E+03</pdfrwt>
<totfact> 0.75146984E+03</totfact>
</mgrwt>
</event>
<event>
 5    1  0.3239419E-002  0.1249993E+03  0.7818608E-02  0.1235070E+00
          4   -1    0    0  501    0  0.00000000000E+00  0.00000000000E+00  0.27667471088E+02  0.27696603698E+02  0.12700000000E+01 0.  1.
         -4   -1    0    0    0  501 -0.00000000000E+00 -0.00000000000E+00 -0.14107771538E+03  0.14108343162E+03  0.12700000000E+01 0.  1.
         25    2    1    2    0    0  0.00000000000E+00  0.00000000000E+00 -0.11341024429E+03  0.16878003531E+03  0.12499926724E+03 0.  0.
    9000005    1    3    3    0    0  0.43919388861E+02 -0.39109389260E+02 -0.28165744077E+02  0.65213236276E+02  0.10000000000E+01 0.  0.
    9000005    1    3    3    0    0 -0.43919388861E+02  0.39109389260E+02 -0.85244500214E+02  0.10356679904E+03  0.10000000000E+01 0.  0.
<mgrwt>
<rscale>  0 0.12499927E+03</rscale>
<asrwt>0</asrwt>
<pdfrwt beam="1">  1        4 0.42592148E-02 0.12499927E+03</pdfrwt>
<pdfrwt beam="2">  1       -4 0.21706944E-01 0.12499927E+03</pdfrwt>
<totfact> 0.95677839E+03</totfact>
</mgrwt>
</event>
<event>
 5    1  0.3239419E-002  0.1249961E+03  0.7818608E-02  0.1235075E+00
         -4   -1    0    0    0  501 -0.00000000000E+00  0.00000000000E+00  0.42291163468E+03  0.42291354158E+03  0.12700000000E+01 0.  1.
          4   -1    0    0  501    0  0.00000000000E+00 -0.00000000000E+00 -0.91903932586E+01  0.92777275368E+01  0.12700000000E+01 0.  1.
         25    2    1    2    0    0  0.00000000000E+00  0.00000000000E+00  0.41372124143E+03  0.43219126912E+03  0.12499610991E+03 0.  0.
    9000005    1    3    3    0    0  0.92144947021E+01 -0.43408040142E+02  0.35899047433E+03  0.36172410138E+03  0.10000000000E+01 0.  0.
    9000005    1    3    3    0    0 -0.92144947021E+01  0.43408040142E+02  0.54730767099E+02  0.70467167737E+02  0.10000000000E+01 0.  0.
<mgrwt>
<rscale>  0 0.12499611E+03</rscale>
<asrwt>0</asrwt>
<pdfrwt beam="2">  1        4 0.14207712E-02 0.12499611E+03</pdfrwt>
<pdfrwt beam="1">  1       -4 0.65070202E-01 0.12499611E+03</pdfrwt>
<totfact> 0.61543138E+03</totfact>
</mgrwt>
</event>
<event>
 5    1  0.3239419E-002  0.1250035E+03  0.7818608E-02  0.1235064E+00
         -4   -1    0    0    0  501 -0.00000000000E+00  0.00000000000E+00  0.24548045030E+03  0.24548373547E+03  0.12700000000E+01 0.  1.
          4   -1    0    0  501    0  0.00000000000E+00 -0.00000000000E+00 -0.15884834773E+02  0.15935522450E+02  0.12700000000E+01 0.  1.
         25    2    1    2    0    0  0.00000000000E+00  0.00000000000E+00  0.22959561553E+03  0.26141925792E+03  0.12500352692E+03 0.  0.
    9000005    1    3    3    0    0  0.45633763448E+02  0.41301959774E+02  0.92159774199E+02  0.11082741641E+03  0.10000000000E+01 0.  0.
    9000005    1    3    3    0    0 -0.45633763448E+02 -0.41301959774E+02  0.13743584133E+03  0.15059184151E+03  0.10000000000E+01 0.  0.
<mgrwt>
<rscale>  0 0.12500353E+03</rscale>
<asrwt>0</asrwt>
<pdfrwt beam="2">  1        4 0.24479725E-02 0.12500353E+03</pdfrwt>
<pdfrwt beam="1">  1       -4 0.37770375E-01 0.12500353E+03</pdfrwt>
<totfact> 0.80700964E+03</totfact>
</mgrwt>
</event>
<event>
 5    1  0.3239419E-002  0.1250016E+03  0.7818608E-02  0.1235067E+00
          4   -1    0    0  501    0  0.00000000000E+00  0.00000000000E+00  0.20569554614E+03  0.20569946670E+03  0.12700000000E+01 0.  1.
         -4   -1    0    0    0  501 -0.00000000000E+00 -0.00000000000E+00 -0.18965607205E+02  0.19008081351E+02  0.12700000000E+01 0.  1.
         25    2    1    2    0    0  0.00000000000E+00  0.00000000000E+00  0.18672993893E+03  0.22470754805E+03  0.12500164822E+03 0.  0.
    9000005    1    3    3    0    0  0.14381854348E+02 -0.54971643748E+02  0.46604515178E+02  0.73496259673E+02  0.10000000000E+01 0.  0.
    9000005    1    3    3    0    0 -0.14381854348E+02  0.54971643748E+02  0.14012542375E+03  0.15121128838E+03  0.10000000000E+01 0.  0.
<mgrwt>
<rscale>  0 0.12500165E+03</rscale>
<asrwt>0</asrwt>
<pdfrwt beam="1">  1        4 0.31649038E-01 0.12500165E+03</pdfrwt>
<pdfrwt beam="2">  1       -4 0.29213545E-02 0.12500165E+03</pdfrwt>
<totfact> 0.86125709E+03</totfact>
</mgrwt>
</event>
<event>
 5    1  0.3239419E-002  0.1250009E+03  0.7818608E-02  0.1235068E+00
          4   -1    0    0  501    0  0.00000000000E+00  0.00000000000E+00  0.11985087188E+03  0.11985760047E+03  0.12700000000E+01 0. -1.
         -4   -1    0    0    0  501 -0.00000000000E+00 -0.00000000000E+00 -0.32573024068E+02  0.32597772884E+02  0.12700000000E+01 0. -1.
         25    2    1    2    0    0  0.00000000000E+00  0.00000000000E+00  0.87277847816E+02  0.15245537336E+03  0.12500087258E+03 0.  0.
    9000005    1    3    3    0    0 -0.99473518881E+01  0.33462502917E+02 -0.19577868968E+02  0.40037255955E+02  0.10000000000E+01 0.  0.
    9000005    1    3    3    0    0  0.99473518881E+01 -0.33462502917E+02  0.10685571678E+03  0.11241811740E+03  0.10000000000E+01 0.  0.
<mgrwt>
<rscale>  0 0.12500087E+03</rscale>
<asrwt>0</asrwt>
<pdfrwt beam="1">  1        4 0.18441017E-01 0.12500087E+03</pdfrwt>
<pdfrwt beam="2">  1       -4 0.50136558E-02 0.12500087E+03</pdfrwt>
<totfact> 0.98814549E+03</totfact>
</mgrwt>
</event>
<event>
 5    1  0.3239419E-002  0.1250051E+03  0.7818608E-02  0.1235061E+00
          4   -1    0    0  501    0  0.00000000000E+00  0.00000000000E+00  0.58443759619E+02  0.58457556726E+02  0.12700000000E+01 0. -1.
         -4   -1    0    0    0  501 -0.00000000000E+00 -0.00000000000E+00 -0.66815521537E+02  0.66827590247E+02  0.12700000000E+01 0. -1.
         25    2    1    2    0    0  0.00000000000E+00  0.00000000000E+00 -0.83717619180E+01  0.12528514697E+03  0.12500512651E+03 0.  0.
    9000005    1    3    3    0    0 -0.20884601657E+02 -0.57033175265E+02  0.10565130039E+02  0.61656886395E+02  0.10000000000E+01 0.  0.
    9000005    1    3    3    0    0  0.20884601657E+02  0.57033175265E+02 -0.18936891957E+02  0.63628260578E+02  0.10000000000E+01 0.  0.
<mgrwt>
<rscale>  0 0.12500513E+03</rscale>
<asrwt>0</asrwt>
<pdfrwt beam="1">  1        4 0.89933373E-02 0.12500513E+03</pdfrwt>
<pdfrwt beam="2">  1       -4 0.10281301E-01 0.12500513E+03</pdfrwt>
<totfact> 0.10445462E+04</totfact>
</mgrwt>
</event>
<event>
 5    1  0.3239419E-002  0.1249974E+03  0.7818608E-02  0.1235073E+00
          4   -1    0    0  501    0  0.00000000000E+00  0.00000000000E+00  0.13429217399E+04  0.13429223405E+04  0.12700000000E+01 0. -1.
         -4   -1    0    0    0  501 -0.00000000000E+00 -0.00000000000E+00 -0.27693905267E+01  0.30467070567E+01  0.12700000000E+01 0. -1.
         25    2    1    2    0    0  0.00000000000E+00  0.00000000000E+00  0.13401523494E+04  0.13459690475E+04  0.12499742890E+03 0.  0.
    9000005    1    3    3    0    0  0.29129651762E+02 -0.31906654195E+02  0.18390267772E+03  0.18891205908E+03  0.10000000000E+01 0.  0.
    9000005    1    3    3    0    0 -0.29129651762E+02  0.31906654195E+02  0.11562496717E+04  0.11570569884E+04  0.10000000000E+01 0.  0.
<mgrwt>
<rscale>  0 0.12499743E+03</rscale>
<asrwt>0</asrwt>
<pdfrwt beam="1">  1        4 0.20662476E+00 0.12499743E+03</pdfrwt>
<pdfrwt beam="2">  1       -4 0.44743823E-03 0.12499743E+03</pdfrwt>
<totfact> 0.21170025E+03</totfact>
</mgrwt>
</event>
<event>
 4    1  0.3239419E-002  0.1251406E+03  0.7818608E-02  0.1234850E+00
         -4   -1    0    0    0  501 -0.00000000000E+00  0.00000000000E+00  0.32176630423E+01  0.34592275805E+01  0.12700000000E+01 0.  1.
          4   -1    0    0  501    0  0.00000000000E+00 -0.00000000000E+00 -0.11724724459E+04  0.11724731338E+04  0.12700000000E+01 0.  1.
    9000005    1    1    2    0    0  0.27080857111E+02 -0.70969176750E+01 -0.11103750280E+04  0.11107283385E+04  0.10000000000E+01 0.  0.
    9000005    1    1    2    0    0 -0.27080857111E+02  0.70969176750E+01 -0.58879754897E+02  0.65204022875E+02  0.10000000000E+01 0.  0.
<mgrwt>
<rscale>  0 0.12514061E+03</rscale>
<asrwt>0</asrwt>
<pdfrwt beam="2">  1        4 0.18039868E+00 0.12514061E+03</pdfrwt>
<pdfrwt beam="1">  1       -4 0.51366082E-03 0.12514061E+03</pdfrwt>
<totfact> 0.25274013E+03</totfact>
</mgrwt>
</event>
<event>
 5    1  0.3239419E-002  0.1250021E+03  0.7818608E-02  0.1235066E+00
          4   -1    0    0  501    0  0.00000000000E+00  0.00000000000E+00  0.10997959823E+02  0.11071044227E+02  0.12700000000E+01 0. -1.
         -4   -1    0    0    0  501 -0.00000000000E+00 -0.00000000000E+00 -0.35394092104E+03  0.35394319952E+03  0.12700000000E+01 0. -1.
         25    2    1    2    0    0  0.00000000000E+00  0.00000000000E+00 -0.34294296122E+03  0.36501424375E+03  0.12500209394E+03 0.  0.
    9000005    1    3    3    0    0  0.77236925022E+01  0.62013911469E+02 -0.17142709350E+03  0.18246541872E+03  0.10000000000E+01 0.  0.
    9000005    1    3    3    0    0 -0.77236925022E+01 -0.62013911469E+02 -0.17151586771E+03  0.18254882503E+03  0.10000000000E+01 0.  0.
<mgrwt>
<rscale>  0 0.12500209E+03</rscale>
<asrwt>0</asrwt>
<pdfrwt beam="1">  1        4 0.16977912E-02 0.12500209E+03</pdfrwt>
<pdfrwt beam="2">  1       -4 0.54458238E-01 0.12500209E+03</pdfrwt>
<totfact> 0.68100637E+03</totfact>
</mgrwt>
</event>
<event>
 5    1  0.3239419E-002  0.1250001E+03  0.7818608E-02  0.1235069E+00
          4   -1    0    0  501    0  0.00000000000E+00  0.00000000000E+00  0.45854015506E+03  0.45854191379E+03  0.12700000000E+01 0.  1.
         -4   -1    0    0    0  501 -0.00000000000E+00 -0.00000000000E+00 -0.84697799905E+01  0.85644657210E+01  0.12700000000E+01 0.  1.
         25    2    1    2    0    0  0.00000000000E+00  0.00000000000E+00  0.45007037506E+03  0.46710637951E+03  0.12500010906E+03 0.  0.
    9000005    1    3    3    0    0  0.60392677606E+02 -0.14580141266E+00  0.16501717184E+03  0.17572411266E+03  0.10000000000E+01 0.  0.
    9000005    1    3    3    0    0 -0.60392677606E+02  0.14580141266E+00  0.28505320322E+03  0.29138226685E+03  0.10000000000E+01 0.  0.
<mgrwt>
<rscale>  0 0.12500011E+03</rscale>
<asrwt>0</asrwt>
<pdfrwt beam="1">  1        4 0.70552082E-01 0.12500011E+03</pdfrwt>
<pdfrwt beam="2">  1       -4 0.13104614E-02 0.12500011E+03</pdfrwt>
<totfact> 0.58509840E+03</totfact>
</mgrwt>
</event>
<event>
 5    1  0.3239419E-002  0.1250015E+03  0.7818608E-02  0.1235067E+00
          4   -1    0    0  501    0  0.00000000000E+00  0.00000000000E+00  0.13820276515E+02  0.13878506510E+02  0.12700000000E+01 0. -1.
         -4   -1    0    0    0  501 -0.00000000000E+00 -0.00000000000E+00 -0.28199940641E+03  0.28200226615E+03  0.12700000000E+01 0. -1.
         25    2    1    2    0    0  0.00000000000E+00  0.00000000000E+00 -0.26817912989E+03  0.29588077266E+03  0.12500154367E+03 0.  0.
    9000005    1    3    3    0    0  0.13849416821E+02  0.26525427321E+02 -0.42280635027E+01  0.30237082562E+02  0.10000000000E+01 0.  0.
    9000005    1    3    3    0    0 -0.13849416821E+02 -0.26525427321E+02 -0.26395106639E+03  0.26564369010E+03  0.10000000000E+01 0.  0.
<mgrwt>
<rscale>  0 0.12500154E+03</rscale>
<asrwt>0</asrwt>
<pdfrwt beam="1">  1        4 0.21308958E-02 0.12500154E+03</pdfrwt>
<pdfrwt beam="2">  1       -4 0.43389219E-01 0.12500154E+03</pdfrwt>
<totfact> 0.76115862E+03</totfact>
</mgrwt>
</event>
<event>
 5    1  0.3239419E-002  0.1249942E+03  0.7818608E-02  0.1235078E+00
         -4   -1    0    0    0  501 -0.00000000000E+00  0.00000000000E+00  0.19934639003E+03  0.19935043546E+03  0.12700000000E+01 0.  1.
          4   -1    0    0  501    0  0.00000000000E+00 -0.00000000000E+00 -0.19568651607E+02  0.19609819625E+02  0.12700000000E+01 0.  1.
         25    2    1    2    0    0  0.00000000000E+00  0.00000000000E+00  0.17977773842E+03  0.21896025508E+03  0.12499423216E+03 0.  0.
    9000005    1    3    3    0    0 -0.74428771932E+01  0.10794996843E+02 -0.17140274742E+02  0.21603643118E+02  0.10000000000E+01 0.  0.
    9000005    1    3    3    0    0  0.74428771932E+01 -0.10794996843E+02  0.19691801316E+03  0.19735661196E+03  0.10000000000E+01 0.  0.
<mgrwt>
<rscale>  0 0.12499423E+03</rscale>
<asrwt>0</asrwt>
<pdfrwt beam="2">  1        4 0.30140397E-02 0.12499423E+03</pdfrwt>
<pdfrwt beam="1">  1       -4 0.30672154E-01 0.12499423E+03</pdfrwt>
<totfact> 0.87044357E+03</totfact>
</mgrwt>
</event>
<event>
 5    1  0.3239419E-002  0.1250013E+03  0.7818608E-02  0.1235067E+00
         -4   -1    0    0    0  501 -0.00000000000E+00  0.00000000000E+00  0.63803050656E+03  0.63803177053E+03  0.12700000000E+01 0. -1.
          4   -1    0    0  501    0  0.00000000000E+00 -0.00000000000E+00 -0.60553445597E+01  0.61870912177E+01  0.12700000000E+01 0. -1.
         25    2    1    2    0    0  0.00000000000E+00  0.00000000000E+00  0.63197516200E+03  0.64421886175E+03  0.12500134576E+03 0.  0.
    9000005    1    3    3    0    0  0.33395392951E+02 -0.13778731827E+02  0.53188104771E+02  0.64304589341E+02  0.10000000000E+01 0.  0.
    9000005    1    3    3    0    0 -0.33395392951E+02  0.13778731827E+02  0.57878705723E+03  0.57991427241E+03  0.10000000000E+01 0.  0.
<mgrwt>
<rscale>  0 0.12500135E+03</rscale>
<asrwt>0</asrwt>
<pdfrwt beam="2">  1        4 0.94182375E-03 0.12500135E+03</pdfrwt>
<pdfrwt beam="1">  1       -4 0.98168699E-01 0.12500135E+03</pdfrwt>
<totfact> 0.46188837E+03</totfact>
</mgrwt>
</event>
<event>
 5    1  0.3239419E-002  0.1249996E+03  0.7818608E-02  0.1235070E+00
         -4   -1    0    0    0  501 -0.00000000000E+00  0.00000000000E+00  0.40661396106E+02  0.40681224580E+02  0.12700000000E+01 0. -1.
          4   -1    0    0  501    0  0.00000000000E+00 -0.00000000000E+00 -0.96019659943E+02  0.96028058377E+02  0.12700000000E+01 0. -1.
         25    2    1    2    0    0  0.00000000000E+00  0.00000000000E+00 -0.55358263837E+02  0.13670928296E+03  0.12499956269E+03 0.  0.
    9000005    1    3    3    0    0  0.19075033600E+02  0.15027692295E+02 -0.90653855440E+02  0.93855260634E+02  0.10000000000E+01 0.  0.
    9000005    1    3    3    0    0 -0.19075033600E+02 -0.15027692295E+02  0.35295591604E+02  0.42854022322E+02  0.10000000000E+01 0.  0.
<mgrwt>
<rscale>  0 0.12499956E+03</rscale>
<asrwt>0</asrwt>
<pdfrwt beam="2">  1        4 0.14774427E-01 0.12499956E+03</pdfrwt>
<pdfrwt beam="1">  1       -4 0.62577708E-02 0.12499956E+03</pdfrwt>
<totfact> 0.10202268E+04</totfact>
</mgrwt>
</event>
<event>
 5    1  0.3239419E-002  0.1249995E+03  0.7818608E-02  0.1235070E+00
         -4   -1    0    0    0  501 -0.00000000000E+00  0.00000000000E+00  0.27467140493E+02  0.27496485354E+02  0.12700000000E+01 0. -1.
          4   -1    0    0  501    0  0.00000000000E+00 -0.00000000000E+00 -0.14210622210E+03  0.14211189697E+03  0.12700000000E+01 0. -1.
         25    2    1    2    0    0  0.00000000000E+00  0.00000000000E+00 -0.11463908161E+03  0.16960838232E+03  0.12499953729E+03 0.  0.
    9000005    1    3    3    0    0  0.39846330349E+02  0.27329806557E+02 -0.35460871543E+01  0.48458467814E+02  0.10000000000E+01 0.  0.
    9000005    1    3    3    0    0 -0.39846330349E+02 -0.27329806557E+02 -0.11109299445E+03  0.12114991451E+03  0.10000000000E+01 0.  0.
<mgrwt>
<rscale>  0 0.12499954E+03</rscale>
<asrwt>0</asrwt>
<pdfrwt beam="2">  1        4 0.21865189E-01 0.12499954E+03</pdfrwt>
<pdfrwt beam="1">  1       -4 0.42284078E-02 0.12499954E+03</pdfrwt>
<totfact> 0.95522671E+03</totfact>
</mgrwt>
</event>
<event>
 5    1  0.3239419E-002  0.1250004E+03  0.7818608E-02  0.1235069E+00
          4   -1    0    0  501    0  0.00000000000E+00  0.00000000000E+00  0.38901487833E+03  0.38901695138E+03  0.12700000000E+01 0. -1.
         -4   -1    0    0    0  501 -0.00000000000E+00 -0.00000000000E+00 -0.99991863239E+01  0.10079515223E+02  0.12700000000E+01 0. -1.
         25    2    1    2    0    0  0.00000000000E+00  0.00000000000E+00  0.37901569201E+03  0.39909646660E+03  0.12500037948E+03 0.  0.
    9000005    1    3    3    0    0 -0.16873485764E+02 -0.34082482520E+02  0.34782968778E+03  0.34990401804E+03  0.10000000000E+01 0.  0.
    9000005    1    3    3    0    0  0.16873485764E+02  0.34082482520E+02  0.31186004223E+02  0.49192448566E+02  0.10000000000E+01 0.  0.
<mgrwt>
<rscale>  0 0.12500038E+03</rscale>
<asrwt>0</asrwt>
<pdfrwt beam="1">  1        4 0.59854786E-01 0.12500038E+03</pdfrwt>
<pdfrwt beam="2">  1       -4 0.15446748E-02 0.12500038E+03</pdfrwt>
<totfact> 0.64640214E+03</totfact>
</mgrwt>
</event>
<event>
 5    1  0.3239419E-002  0.1249920E+03  0.7818608E-02  0.1235082E+00
          4   -1    0    0  501    0  0.00000000000E+00  0.00000000000E+00  0.12741470920E+02  0.12804607811E+02  0.12700000000E+01 0. -1.
         -4   -1    0    0    0  501 -0.00000000000E+00 -0.00000000000E+00 -0.30571626709E+03  0.30571890498E+03  0.12700000000E+01 0. -1.
         25    2    1    2    0    0  0.00000000000E+00  0.00000000000E+00 -0.29297479617E+03  0.31852351279E+03  0.12499198779E+03 0.  0.
    9000005    1    3    3    0    0 -0.45299110072E+02 -0.87162878693E+01 -0.25390475558E+03  0.25806318597E+03  0.10000000000E+01 0.  0.
    9000005    1    3    3    0    0  0.45299110072E+02  0.87162878693E+01 -0.39070040586E+02  0.60460326818E+02  0.10000000000E+01 0.  0.
<mgrwt>
<rscale>  0 0.12499199E+03</rscale>
<asrwt>0</asrwt>
<pdfrwt beam="1">  1        4 0.19652861E-02 0.12499199E+03</pdfrwt>
<pdfrwt beam="2">  1       -4 0.47038326E-01 0.12499199E+03</pdfrwt>
<totfact> 0.73345108E+03</totfact>
</mgrwt>
</event>
<event>
 5    1  0.3239419E-002  0.1249986E+03  0.7818608E-02  0.1235072E+00
         -4   -1    0    0    0  501 -0.00000000000E+00  0.00000000000E+00  0.29302491232E+01  0.31936280191E+01  0.12700000000E+01 0.  1.
          4   -1    0    0  501    0  0.00000000000E+00 -0.00000000000E+00 -0.12754512818E+04  0.12754519141E+04  0.12700000000E+01 0.  1.
         25    2    1    2    0    0  0.00000000000E+00  0.00000000000E+00 -0.12725210327E+04  0.12786455421E+04  0.12499857495E+03 0.  0.
    9000005    1    3    3    0    0 -0.57300108127E+02  0.24560405786E+02 -0.59209061462E+03  0.59536443616E+03  0.10000000000E+01 0.  0.
    9000005    1    3    3    0    0  0.57300108127E+02 -0.24560405786E+02 -0.68043041807E+03  0.68328110596E+03  0.10000000000E+01 0.  0.
<mgrwt>
<rscale>  0 0.12499857E+03</rscale>
<asrwt>0</asrwt>
<pdfrwt beam="2">  1        4 0.19624316E+00 0.12499857E+03</pdfrwt>
<pdfrwt beam="1">  1       -4 0.47111713E-03 0.12499857E+03</pdfrwt>
<totfact> 0.22738971E+03</totfact>
</mgrwt>
</event>
<event>
 5    1  0.3239419E-002  0.1249972E+03  0.7818608E-02  0.1235074E+00
         -4   -1    0    0    0  501 -0.00000000000E+00  0.00000000000E+00  0.13025944627E+03  0.13026563723E+03  0.12700000000E+01 0.  1.
          4   -1    0    0  501    0  0.00000000000E+00 -0.00000000000E+00 -0.29966513282E+02  0.29993412915E+02  0.12700000000E+01 0.  1.
         25    2    1    2    0    0  0.00000000000E+00  0.00000000000E+00  0.10029293299E+03  0.16025905015E+03  0.12499716295E+03 0.  0.
    9000005    1    3    3    0    0  0.20549453183E+02 -0.35573306782E+02  0.11051878022E+03  0.11791158112E+03  0.10000000000E+01 0.  0.
    9000005    1    3    3    0    0 -0.20549453183E+02  0.35573306782E+02 -0.10225847226E+02  0.42347469027E+02  0.10000000000E+01 0.  0.
<mgrwt>
<rscale>  0 0.12499716E+03</rscale>
<asrwt>0</asrwt>
<pdfrwt beam="2">  1        4 0.46127783E-02 0.12499716E+03</pdfrwt>
<pdfrwt beam="1">  1       -4 0.20042460E-01 0.12499716E+03</pdfrwt>
<totfact> 0.97299070E+03</totfact>
</mgrwt>
</event>
<event>
 5    1  0.3239419E-002  0.1249991E+03  0.7818608E-02  0.1235071E+00
         -4   -1    0    0    0  501 -0.00000000000E+00  0.00000000000E+00  0.55889501927E+03  0.55889646221E+03  0.12700000000E+01 0. -1.
          4   -1    0    0  501    0  0.00000000000E+00 -0.00000000000E+00 -0.69299776845E+01  0.70453879032E+01  0.12700000000E+01 0. -1.
         25    2    1    2    0    0  0.00000000000E+00  0.00000000000E+00  0.55196504159E+03  0.56594185011E+03  0.12499908228E+03 0.  0.
    9000005    1    3    3    0    0 -0.43918132929E+01 -0.42745889255E+02  0.70553952318E+02  0.82615732521E+02  0.10000000000E+01 0.  0.
    9000005    1    3    3    0    0  0.43918132929E+01  0.42745889255E+02  0.48141108927E+03  0.48332611759E+03  0.10000000000E+01 0.  0.
<mgrwt>
<rscale>  0 0.12499908E+03</rscale>
<asrwt>0</asrwt>
<pdfrwt beam="2">  1        4 0.10751389E-02 0.12499908E+03</pdfrwt>
<pdfrwt beam="1">  1       -4 0.85992853E-01 0.12499908E+03</pdfrwt>
<totfact> 0.51091560E+03</totfact>
</mgrwt>
</event>
<event>
 5    1  0.3239419E-002  0.1250017E+03  0.7818608E-02  0.1235067E+00
          4   -1    0    0  501    0  0.00000000000E+00  0.00000000000E+00  0.84638164767E+02  0.84647692439E+02  0.12700000000E+01 0. -1.
         -4   -1    0    0    0  501 -0.00000000000E+00 -0.00000000000E+00 -0.46132718058E+02  0.46150195833E+02  0.12700000000E+01 0. -1.
         25    2    1    2    0    0  0.00000000000E+00  0.00000000000E+00  0.38505446710E+02  0.13079788827E+03  0.12500167259E+03 0.  0.
    9000005    1    3    3    0    0  0.96142990185E-01 -0.47435235518E+02  0.61823922480E+02  0.77931432702E+02  0.10000000000E+01 0.  0.
    9000005    1    3    3    0    0 -0.96142990185E-01  0.47435235518E+02 -0.23318475771E+02  0.52866455569E+02  0.10000000000E+01 0.  0.
<mgrwt>
<rscale>  0 0.12500167E+03</rscale>
<asrwt>0</asrwt>
<pdfrwt beam="1">  1        4 0.13023333E-01 0.12500167E+03</pdfrwt>
<pdfrwt beam="2">  1       -4 0.70994186E-02 0.12500167E+03</pdfrwt>
<totfact> 0.10327034E+04</totfact>
</mgrwt>
</event>
<event>
 5    1  0.3239419E-002  0.1250008E+03  0.7818608E-02  0.1235068E+00
          4   -1    0    0  501    0  0.00000000000E+00  0.00000000000E+00  0.17330700574E+02  0.17377171300E+02  0.12700000000E+01 0. -1.
         -4   -1    0    0    0  501 -0.00000000000E+00 -0.00000000000E+00 -0.22504770045E+03  0.22505128388E+03  0.12700000000E+01 0. -1.
         25    2    1    2    0    0  0.00000000000E+00  0.00000000000E+00 -0.20771699988E+03  0.24242845518E+03  0.12500081538E+03 0.  0.
    9000005    1    3    3    0    0 -0.97411964893E+00 -0.14107262225E+02  0.14196562903E+02  0.20062556040E+02  0.10000000000E+01 0.  0.
    9000005    1    3    3    0    0  0.97411964893E+00  0.14107262225E+02 -0.22191356278E+03  0.22236589914E+03  0.10000000000E+01 0.  0.
<mgrwt>
<rscale>  0 0.12500082E+03</rscale>
<asrwt>0</asrwt>
<pdfrwt beam="1">  1        4 0.26701121E-02 0.12500082E+03</pdfrwt>
<pdfrwt beam="2">  1       -4 0.34626571E-01 0.12500082E+03</pdfrwt>
<totfact> 0.83435501E+03</totfact>
</mgrwt>
</event>
<event>
 5    1  0.3239419E-002  0.1249946E+03  0.7818608E-02  0.1235078E+00
          4   -1    0    0  501    0  0.00000000000E+00  0.00000000000E+00  0.26137043010E+02  0.26167879496E+02  0.12700000000E+01 0.  1.
         -4   -1    0    0    0  501 -0.00000000000E+00 -0.00000000000E+00 -0.14931814537E+03  0.14932354616E+03  0.12700000000E+01 0.  1.
         25    2    1    2    0    0  0.00000000000E+00  0.00000000000E+00 -0.12318110236E+03  0.17549142565E+03  0.12499462588E+03 0.  0.
    9000005    1    3    3    0    0  0.38211290889E+01 -0.62367565758E+02 -0.62677932314E+02  0.88508968389E+02  0.10000000000E+01 0.  0.
    9000005    1    3    3    0    0 -0.38211290889E+01  0.62367565758E+02 -0.60503170045E+02  0.86982457263E+02  0.10000000000E+01 0.  0.
<mgrwt>
<rscale>  0 0.12499463E+03</rscale>
<asrwt>0</asrwt>
<pdfrwt beam="1">  1        4 0.40238711E-02 0.12499463E+03</pdfrwt>
<pdfrwt beam="2">  1       -4 0.22974809E-01 0.12499463E+03</pdfrwt>
<totfact> 0.94446300E+03</totfact>
</mgrwt>
</event>
<event>
 5    1  0.3239419E-002  0.1250026E+03  0.7818608E-02  0.1235065E+00
          4   -1    0    0  501    0  0.00000000000E+00  0.00000000000E+00  0.33170289531E+02  0.33194593047E+02  0.12700000000E+01 0. -1.
         -4   -1    0    0    0  501 -0.00000000000E+00 -0.00000000000E+00 -0.11769747377E+03  0.11770432546E+03  0.12700000000E+01 0. -1.
         25    2    1    2    0    0  0.00000000000E+00  0.00000000000E+00 -0.84527184243E+02  0.15089891851E+03  0.12500255490E+03 0.  0.
    9000005    1    3    3    0    0  0.37656951819E+02 -0.23534343613E+02 -0.95344597336E+02  0.10518319063E+03  0.10000000000E+01 0.  0.
    9000005    1    3    3    0    0 -0.37656951819E+02  0.23534343613E+02  0.10817413093E+02  0.45715727881E+02  0.10000000000E+01 0.  0.
<mgrwt>
<rscale>  0 0.12500255E+03</rscale>
<asrwt>0</asrwt>
<pdfrwt beam="1">  1        4 0.51055181E-02 0.12500255E+03</pdfrwt>
<pdfrwt beam="2">  1       -4 0.18109700E-01 0.12500255E+03</pdfrwt>
<totfact> 0.99119115E+03</totfact>
</mgrwt>
</event>
<event>
 5    1  0.3239419E-002  0.1249979E+03  0.7818608E-02  0.1235073E+00
          4   -1    0    0  501    0  0.00000000000E+00  0.00000000000E+00  0.85602437453E+02  0.85611857812E+02  0.12700000000E+01 0.  1.
         -4   -1    0    0    0  501 -0.00000000000E+00 -0.00000000000E+00 -0.45610148388E+02  0.45627826334E+02  0.12700000000E+01 0.  1.
         25    2    1    2    0    0  0.00000000000E+00  0.00000000000E+00  0.39992289065E+02  0.13123968415E+03  0.12499788602E+03 0.  0.
    9000005    1    3    3    0    0  0.32450208085E+02 -0.31109762818E+02 -0.25579807521E+02  0.51731614127E+02  0.10000000000E+01 0.  0.
    9000005    1    3    3    0    0 -0.32450208085E+02  0.31109762818E+02  0.65572096586E+02  0.79508070019E+02  0.10000000000E+01 0.  0.
<mgrwt>
<rscale>  0 0.12499789E+03</rscale>
<asrwt>0</asrwt>
<pdfrwt beam="1">  1        4 0.13171690E-01 0.12499789E+03</pdfrwt>
<pdfrwt beam="2">  1       -4 0.70190305E-02 0.12499789E+03</pdfrwt>
<totfact> 0.10318446E+04</totfact>
</mgrwt>
</event>
<event>
 5    1  0.3239419E-002  0.1249960E+03  0.7818608E-02  0.1235076E+00
          4   -1    0    0  501    0  0.00000000000E+00  0.00000000000E+00  0.61890023632E+03  0.61890153936E+03  0.12700000000E+01 0. -1.
         -4   -1    0    0    0  501 -0.00000000000E+00 -0.00000000000E+00 -0.62459822020E+01  0.63737895845E+01  0.12700000000E+01 0. -1.
         25    2    1    2    0    0  0.00000000000E+00  0.00000000000E+00  0.61265425412E+03  0.62527532894E+03  0.12499600751E+03 0.  0.
    9000005    1    3    3    0    0  0.23328544556E+02 -0.33181721903E+02  0.68530538554E+02  0.79640959148E+02  0.10000000000E+01 0.  0.
    9000005    1    3    3    0    0 -0.23328544556E+02  0.33181721903E+02  0.54412371557E+03  0.54563436979E+03  0.10000000000E+01 0.  0.
<mgrwt>
<rscale>  0 0.12499601E+03</rscale>
<asrwt>0</asrwt>
<pdfrwt beam="1">  1        4 0.95225307E-01 0.12499601E+03</pdfrwt>
<pdfrwt beam="2">  1       -4 0.97085237E-03 0.12499601E+03</pdfrwt>
<totfact> 0.47314219E+03</totfact>
</mgrwt>
</event>
<event>
 5    1  0.3239419E-002  0.1249625E+03  0.7818608E-02  0.1235128E+00
         -4   -1    0    0    0  501 -0.00000000000E+00  0.00000000000E+00  0.13944372561E+03  0.13944950883E+03  0.12700000000E+01 0.  1.
          4   -1    0    0  501    0  0.00000000000E+00 -0.00000000000E+00 -0.27975520648E+02  0.28004332800E+02  0.12700000000E+01 0.  1.
         25    2    1    2    0    0  0.00000000000E+00  0.00000000000E+00  0.11146820497E+03  0.16745384163E+03  0.12496250781E+03 0.  0.
    9000005    1    3    3    0    0 -0.91520982313E+01 -0.50332933323E+02  0.76842232723E+01  0.51741785495E+02  0.10000000000E+01 0.  0.
    9000005    1    3    3    0    0  0.91520982313E+01  0.50332933323E+02  0.10378398169E+03  0.11571205614E+03  0.10000000000E+01 0.  0.
<mgrwt>
<rscale>  0 0.12496251E+03</rscale>
<asrwt>0</asrwt>
<pdfrwt beam="2">  1        4 0.43065875E-02 0.12496251E+03</pdfrwt>
<pdfrwt beam="1">  1       -4 0.21455542E-01 0.12496251E+03</pdfrwt>
<totfact> 0.96005497E+03</totfact>
</mgrwt>
</event>
<event>
 5    1  0.3239419E-002  0.1249988E+03  0.7818608E-02  0.1235071E+00
          4   -1    0    0  501    0  0.00000000000E+00  0.00000000000E+00  0.32741407853E+01  0.35118225869E+01  0.12700000000E+01 0. -1.
         -4   -1    0    0    0  501 -0.00000000000E+00 -0.00000000000E+00 -0.11510140538E+04  0.11510147545E+04  0.12700000000E+01 0. -1.
         25    2    1    2    0    0  0.00000000000E+00  0.00000000000E+00 -0.11477399130E+04  0.11545265771E+04  0.12499883656E+03 0.  0.
    9000005    1    3    3    0    0  0.56786464292E+02  0.23024255764E+01 -0.33387302521E+03  0.33867713335E+03  0.10000000000E+01 0.  0.
    9000005    1    3    3    0    0 -0.56786464292E+02 -0.23024255764E+01 -0.81386688783E+03  0.81584944371E+03  0.10000000000E+01 0.  0.
<mgrwt>
<rscale>  0 0.12499884E+03</rscale>
<asrwt>0</asrwt>
<pdfrwt beam="1">  1        4 0.52205200E-03 0.12499884E+03</pdfrwt>
<pdfrwt beam="2">  1       -4 0.17709711E+00 0.12499884E+03</pdfrwt>
<totfact> 0.25935683E+03</totfact>
</mgrwt>
</event>
<event>
 5    1  0.3239419E-002  0.1249967E+03  0.7818608E-02  0.1235074E+00
         -4   -1    0    0    0  501 -0.00000000000E+00  0.00000000000E+00  0.69617655066E+01  0.70766573302E+01  0.12700000000E+01 0. -1.
          4   -1    0    0  501    0  0.00000000000E+00 -0.00000000000E+00 -0.55636340001E+03  0.55636484951E+03  0.12700000000E+01 0. -1.
         25    2    1    2    0    0  0.00000000000E+00  0.00000000000E+00 -0.54940163450E+03  0.56344150684E+03  0.12499670250E+03 0.  0.
    9000005    1    3    3    0    0  0.24899524971E+02  0.56537401293E+02 -0.31712540959E+03  0.32308820699E+03  0.10000000000E+01 0.  0.
    9000005    1    3    3    0    0 -0.24899524971E+02 -0.56537401293E+02 -0.23227622492E+03  0.24035329985E+03  0.10000000000E+01 0.  0.
<mgrwt>
<rscale>  0 0.12499670E+03</rscale>
<asrwt>0</asrwt>
<pdfrwt beam="2">  1        4 0.85603283E-01 0.12499670E+03</pdfrwt>
<pdfrwt beam="1">  1       -4 0.10799906E-02 0.12499670E+03</pdfrwt>
<totfact> 0.51263436E+03</totfact>
</mgrwt>
</event>
<event>
 5    1  0.3239419E-002  0.1249934E+03  0.7818608E-02  0.1235080E+00
         -4   -1    0    0    0  501 -0.00000000000E+00  0.00000000000E+00  0.72229097643E+03  0.72229209295E+03  0.12700000000E+01 0.  1.
          4   -1    0    0  501    0  0.00000000000E+00 -0.00000000000E+00 -0.53318638061E+01  0.54810283384E+01  0.12700000000E+01 0.  1.
         25    2    1    2    0    0  0.00000000000E+00  0.00000000000E+00  0.71695911262E+03  0.72777312128E+03  0.12499338738E+03 0.  0.
    9000005    1    3    3    0    0  0.55896656781E+02 -0.19081722839E+02  0.47727672648E+03  0.48091851911E+03  0.10000000000E+01 0.  0.
    9000005    1    3    3    0    0 -0.55896656781E+02  0.19081722839E+02  0.23968238615E+03  0.24685460217E+03  0.10000000000E+01 0.  0.
<mgrwt>
<rscale>  0 0.12499339E+03</rscale>
<asrwt>0</asrwt>
<pdfrwt beam="2">  1        4 0.83184748E-03 0.12499339E+03</pdfrwt>
<pdfrwt beam="1">  1       -4 0.11113316E+00 0.12499339E+03</pdfrwt>
<totfact> 0.41666524E+03</totfact>
</mgrwt>
</event>
<event>
 5    1  0.3239419E-002  0.1250015E+03  0.7818608E-02  0.1235067E+00
          4   -1    0    0  501    0  0.00000000000E+00  0.00000000000E+00  0.49333090932E+01  0.50941573012E+01  0.12700000000E+01 0.  1.
         -4   -1    0    0    0  501 -0.00000000000E+00 -0.00000000000E+00 -0.77896792815E+03  0.77896896343E+03  0.12700000000E+01 0.  1.
         25    2    1    2    0    0  0.00000000000E+00  0.00000000000E+00 -0.77403461906E+03  0.78406312073E+03  0.12500154316E+03 0.  0.
    9000005    1    3    3    0    0  0.29036728166E+02 -0.22084550216E+02 -0.68758050937E+02  0.77842973411E+02  0.10000000000E+01 0.  0.
    9000005    1    3    3    0    0 -0.29036728166E+02  0.22084550216E+02 -0.70527656812E+03  0.70622014732E+03  0.10000000000E+01 0.  0.
<mgrwt>
<rscale>  0 0.12500154E+03</rscale>
<asrwt>0</asrwt>
<pdfrwt beam="1">  1        4 0.77142383E-03 0.12500154E+03</pdfrwt>
<pdfrwt beam="2">  1       -4 0.11985358E+00 0.12500154E+03</pdfrwt>
<totfact> 0.38984882E+03</totfact>
</mgrwt>
</event>
<event>
 5    1  0.3239419E-002  0.1250015E+03  0.7818608E-02  0.1235067E+00
         -4   -1    0    0    0  501 -0.00000000000E+00  0.00000000000E+00  0.44506700594E+01  0.46283219397E+01  0.12700000000E+01 0.  1.
          4   -1    0    0  501    0  0.00000000000E+00 -0.00000000000E+00 -0.86034499924E+03  0.86034593660E+03  0.12700000000E+01 0.  1.
         25    2    1    2    0    0  0.00000000000E+00  0.00000000000E+00 -0.85589432918E+03  0.86497425854E+03  0.12500146082E+03 0.  0.
    9000005    1    3    3    0    0  0.35456006157E+02 -0.41996768477E+02 -0.63374138572E+03  0.63612105838E+03  0.10000000000E+01 0.  0.
    9000005    1    3    3    0    0 -0.35456006157E+02  0.41996768477E+02 -0.22215294346E+03  0.22885320016E+03  0.10000000000E+01 0.  0.
<mgrwt>
<rscale>  0 0.12500146E+03</rscale>
<asrwt>0</asrwt>
<pdfrwt beam="2">  1        4 0.13237438E+00 0.12500146E+03</pdfrwt>
<pdfrwt beam="1">  1       -4 0.69845679E-03 0.12500146E+03</pdfrwt>
<totfact> 0.35521179E+03</totfact>
</mgrwt>
</event>
<event>
 5    1  0.3239419E-002  0.1249980E+03  0.7818608E-02  0.1235072E+00
          4   -1    0    0  501    0  0.00000000000E+00  0.00000000000E+00  0.21989138976E+03  0.21989505722E+03  0.12700000000E+01 0.  1.
         -4   -1    0    0    0  501 -0.00000000000E+00 -0.00000000000E+00 -0.17737374060E+02  0.17782782081E+02  0.12700000000E+01 0.  1.
         25    2    1    2    0    0  0.00000000000E+00  0.00000000000E+00  0.20215401570E+03  0.23767783931E+03  0.12499803691E+03 0.  0.
    9000005    1    3    3    0    0  0.38635615172E+02  0.48951334389E+02  0.93427728617E+02  0.11233291758E+03  0.10000000000E+01 0.  0.
    9000005    1    3    3    0    0 -0.38635615172E+02 -0.48951334389E+02  0.10872628709E+03  0.12534492172E+03  0.10000000000E+01 0.  0.
<mgrwt>
<rscale>  0 0.12499804E+03</rscale>
<asrwt>0</asrwt>
<pdfrwt beam="1">  1        4 0.33833221E-01 0.12499804E+03</pdfrwt>
<pdfrwt beam="2">  1       -4 0.27326017E-02 0.12499804E+03</pdfrwt>
<totfact> 0.84148113E+03</totfact>
</mgrwt>
</event>
<event>
 5    1  0.3239419E-002  0.1249994E+03  0.7818608E-02  0.1235070E+00
         -4   -1    0    0    0  501 -0.00000000000E+00  0.00000000000E+00  0.59791061103E+01  0.61124962068E+01  0.12700000000E+01 0.  1.
          4   -1    0    0  501    0  0.00000000000E+00 -0.00000000000E+00 -0.64596956672E+03  0.64597081515E+03  0.12700000000E+01 0.  1.
         25    2    1    2    0    0  0.00000000000E+00  0.00000000000E+00 -0.63999046061E+03  0.65208331136E+03  0.12499942113E+03 0.  0.
    9000005    1    3    3    0    0  0.49331537165E+02 -0.32205891534E+02 -0.21126835709E+03  0.21933111662E+03  0.10000000000E+01 0.  0.
    9000005    1    3    3    0    0 -0.49331537165E+02  0.32205891534E+02 -0.42872210352E+03  0.43275219474E+03  0.10000000000E+01 0.  0.
<mgrwt>
<rscale>  0 0.12499942E+03</rscale>
<asrwt>0</asrwt>
<pdfrwt beam="2">  1        4 0.99390236E-01 0.12499942E+03</pdfrwt>
<pdfrwt beam="1">  1       -4 0.93021980E-03 0.12499942E+03</pdfrwt>
<totfact> 0.45737176E+03</totfact>
</mgrwt>
</event>
<event>
 5    1  0.3239419E-002  0.1249982E+03  0.7818608E-02  0.1235072E+00
          4   -1    0    0  501    0  0.00000000000E+00  0.00000000000E+00  0.68181690269E+01  0.69354400639E+01  0.12700000000E+01 0. -1.
         -4   -1    0    0    0  501 -0.00000000000E+00 -0.00000000000E+00 -0.56789875384E+03  0.56790017390E+03  0.12700000000E+01 0. -1.
         25    2    1    2    0    0  0.00000000000E+00  0.00000000000E+00 -0.56108058482E+03  0.57483561396E+03  0.12499824169E+03 0.  0.
    9000005    1    3    3    0    0 -0.30643903485E+02 -0.52887079018E+02 -0.34033255460E+03  0.34577932221E+03  0.10000000000E+01 0.  0.
    9000005    1    3    3    0    0  0.30643903485E+02  0.52887079018E+02 -0.22074803022E+03  0.22905629176E+03  0.10000000000E+01 0.  0.
<mgrwt>
<rscale>  0 0.12499824E+03</rscale>
<asrwt>0</asrwt>
<pdfrwt beam="1">  1        4 0.10580796E-02 0.12499824E+03</pdfrwt>
<pdfrwt beam="2">  1       -4 0.87378132E-01 0.12499824E+03</pdfrwt>
<totfact> 0.50497551E+03</totfact>
</mgrwt>
</event>
<event>
 5    1  0.3239419E-002  0.1250008E+03  0.7818608E-02  0.1235068E+00
         -4   -1    0    0    0  501 -0.00000000000E+00  0.00000000000E+00  0.14013177827E+03  0.14013753309E+03  0.12700000000E+01 0. -1.
          4   -1    0    0  501    0  0.00000000000E+00 -0.00000000000E+00 -0.27855126488E+02  0.27884063040E+02  0.12700000000E+01 0. -1.
         25    2    1    2    0    0  0.00000000000E+00  0.00000000000E+00  0.11227665178E+03  0.16802159613E+03  0.12500084092E+03 0.  0.
    9000005    1    3    3    0    0 -0.12341303126E+02 -0.52449123400E+02  0.98688788819E+02  0.11244418770E+03  0.10000000000E+01 0.  0.
    9000005    1    3    3    0    0  0.12341303126E+02  0.52449123400E+02  0.13587862961E+02  0.55577408433E+02  0.10000000000E+01 0.  0.
<mgrwt>
<rscale>  0 0.12500084E+03</rscale>
<asrwt>0</asrwt>
<pdfrwt beam="2">  1        4 0.42880726E-02 0.12500084E+03</pdfrwt>
<pdfrwt beam="1">  1       -4 0.21561404E-01 0.12500084E+03</pdfrwt>
<totfact> 0.95816381E+03</totfact>
</mgrwt>
</event>
<event>
 5    1  0.3239419E-002  0.1249874E+03  0.7818608E-02  0.1235089E+00
         -4   -1    0    0    0  501 -0.00000000000E+00  0.00000000000E+00  0.49948009038E+02  0.49964152218E+02  0.12700000000E+01 0.  1.
          4   -1    0    0  501    0  0.00000000000E+00 -0.00000000000E+00 -0.78156600952E+02  0.78166918657E+02  0.12700000000E+01 0.  1.
         25    2    1    2    0    0  0.00000000000E+00  0.00000000000E+00 -0.28208591914E+02  0.12813107088E+03  0.12498738603E+03 0.  0.
    9000005    1    3    3    0    0  0.35958157449E+02 -0.90594187675E+01 -0.65662405584E+02  0.75416269217E+02  0.10000000000E+01 0.  0.
    9000005    1    3    3    0    0 -0.35958157449E+02  0.90594187675E+01  0.37453813670E+02  0.52714801659E+02  0.10000000000E+01 0.  0.
<mgrwt>
<rscale>  0 0.12498739E+03</rscale>
<asrwt>0</asrwt>
<pdfrwt beam="2">  1        4 0.12026128E-01 0.12498739E+03</pdfrwt>
<pdfrwt beam="1">  1       -4 0.76863445E-02 0.12498739E+03</pdfrwt>
<totfact> 0.10387616E+04</totfact>
</mgrwt>
</event>
<event>
 5    1  0.3239419E-002  0.1250048E+03  0.7818608E-02  0.1235062E+00
          4   -1    0    0  501    0  0.00000000000E+00  0.00000000000E+00  0.80563226522E+02  0.80573236051E+02  0.12700000000E+01 0. -1.
         -4   -1    0    0    0  501 -0.00000000000E+00 -0.00000000000E+00 -0.48469163180E+02  0.48485798739E+02  0.12700000000E+01 0. -1.
         25    2    1    2    0    0  0.00000000000E+00  0.00000000000E+00  0.32094063342E+02  0.12905903479E+03  0.12500482214E+03 0.  0.
    9000005    1    3    3    0    0  0.25731058938E+02 -0.34701937279E+02  0.62669554300E+02  0.76123484426E+02  0.10000000000E+01 0.  0.
    9000005    1    3    3    0    0 -0.25731058938E+02  0.34701937279E+02 -0.30575490958E+02  0.52935550364E+02  0.10000000000E+01 0.  0.
<mgrwt>
<rscale>  0 0.12500482E+03</rscale>
<asrwt>0</asrwt>
<pdfrwt beam="1">  1        4 0.12396392E-01 0.12500482E+03</pdfrwt>
<pdfrwt beam="2">  1       -4 0.74588441E-02 0.12500482E+03</pdfrwt>
<totfact> 0.10363550E+04</totfact>
</mgrwt>
</event>
<event>
 5    1  0.3239419E-002  0.1250006E+03  0.7818608E-02  0.1235068E+00
          4   -1    0    0  501    0  0.00000000000E+00  0.00000000000E+00  0.31411807412E+03  0.31412064145E+03  0.12700000000E+01 0.  1.
         -4   -1    0    0    0  501 -0.00000000000E+00 -0.00000000000E+00 -0.12400684494E+02  0.12465547558E+02  0.12700000000E+01 0.  1.
         25    2    1    2    0    0  0.00000000000E+00  0.00000000000E+00  0.30171738962E+03  0.32658618901E+03  0.12500062260E+03 0.  0.
    9000005    1    3    3    0    0  0.33550483846E+02  0.31266894313E+02  0.39949569098E+02  0.60829447782E+02  0.10000000000E+01 0.  0.
    9000005    1    3    3    0    0 -0.33550483846E+02 -0.31266894313E+02  0.26176782052E+03  0.26575674123E+03  0.10000000000E+01 0.  0.
<mgrwt>
<rscale>  0 0.12500062E+03</rscale>
<asrwt>0</asrwt>
<pdfrwt beam="1">  1        4 0.48331038E-01 0.12500062E+03</pdfrwt>
<pdfrwt beam="2">  1       -4 0.19129848E-02 0.12500062E+03</pdfrwt>
<totfact> 0.72378577E+03</totfact>
</mgrwt>
</event>
<event>
 5    1  0.3239419E-002  0.1250018E+03  0.7818608E-02  0.1235067E+00
         -4   -1    0    0    0  501 -0.00000000000E+00  0.00000000000E+00  0.34292378386E+02  0.34315887216E+02  0.12700000000E+01 0.  1.
          4   -1    0    0  501    0  0.00000000000E+00 -0.00000000000E+00 -0.11384729069E+03  0.11385437408E+03  0.12700000000E+01 0.  1.
         25    2    1    2    0    0  0.00000000000E+00  0.00000000000E+00 -0.79554912299E+02  0.14817026129E+03  0.12500176903E+03 0.  0.
    9000005    1    3    3    0    0 -0.72173089182E+01  0.24690110262E+00  0.33801941823E+02  0.34579210216E+02  0.10000000000E+01 0.  0.
    9000005    1    3    3    0    0  0.72173089182E+01 -0.24690110262E+00 -0.11335685412E+03  0.11359105108E+03  0.10000000000E+01 0.  0.
<mgrwt>
<rscale>  0 0.12500177E+03</rscale>
<asrwt>0</asrwt>
<pdfrwt beam="2">  1        4 0.17517321E-01 0.12500177E+03</pdfrwt>
<pdfrwt beam="1">  1       -4 0.52781038E-02 0.12500177E+03</pdfrwt>
<totfact> 0.99665718E+03</totfact>
</mgrwt>
</event>
<event>
 5    1  0.3239419E-002  0.1249940E+03  0.7818608E-02  0.1235079E+00
         -4   -1    0    0    0  501 -0.00000000000E+00  0.00000000000E+00  0.49616544650E+02  0.49632795640E+02  0.12700000000E+01 0.  1.
          4   -1    0    0  501    0  0.00000000000E+00 -0.00000000000E+00 -0.78686902735E+02  0.78697150914E+02  0.12700000000E+01 0.  1.
         25    2    1    2    0    0  0.00000000000E+00  0.00000000000E+00 -0.29070358085E+02  0.12832994655E+03  0.12499395771E+03 0.  0.
    9000005    1    3    3    0    0  0.29067081227E+02 -0.28151457500E+02  0.34353693002E+02  0.53090262698E+02  0.10000000000E+01 0.  0.
    9000005    1    3    3    0    0 -0.29067081227E+02  0.28151457500E+02 -0.63424051087E+02  0.75239683856E+02  0.10000000000E+01 0.  0.
<mgrwt>
<rscale>  0 0.12499396E+03</rscale>
<asrwt>0</asrwt>
<pdfrwt beam="2">  1        4 0.12107716E-01 0.12499396E+03</pdfrwt>
<pdfrwt beam="1">  1       -4 0.76353530E-02 0.12499396E+03</pdfrwt>
<totfact> 0.10381784E+04</totfact>
</mgrwt>
</event>
<event>
 5    1  0.3239419E-002  0.1249960E+03  0.7818608E-02  0.1235076E+00
          4   -1    0    0  501    0  0.00000000000E+00  0.00000000000E+00  0.50020106452E+01  0.51607180212E+01  0.12700000000E+01 0. -1.
         -4   -1    0    0    0  501 -0.00000000000E+00 -0.00000000000E+00 -0.76853134554E+03  0.76853239488E+03  0.12700000000E+01 0. -1.
         25    2    1    2    0    0  0.00000000000E+00  0.00000000000E+00 -0.76352933490E+03  0.77369311290E+03  0.12499595075E+03 0.  0.
    9000005    1    3    3    0    0 -0.16611872745E+01  0.36294754285E+02 -0.69646487436E+03  0.69741263966E+03  0.10000000000E+01 0.  0.
    9000005    1    3    3    0    0  0.16611872745E+01 -0.36294754285E+02 -0.67064460535E+02  0.76280473246E+02  0.10000000000E+01 0.  0.
<mgrwt>
<rscale>  0 0.12499595E+03</rscale>
<asrwt>0</asrwt>
<pdfrwt beam="1">  1        4 0.78182969E-03 0.12499595E+03</pdfrwt>
<pdfrwt beam="2">  1       -4 0.11824779E+00 0.12499595E+03</pdfrwt>
<totfact> 0.39469212E+03</totfact>
</mgrwt>
</event>
<event>
 5    1  0.3239419E-002  0.1250017E+03  0.7818608E-02  0.1235067E+00
         -4   -1    0    0    0  501 -0.00000000000E+00  0.00000000000E+00  0.44616215468E+02  0.44634287075E+02  0.12700000000E+01 0.  1.
          4   -1    0    0  501    0  0.00000000000E+00 -0.00000000000E+00 -0.87514175558E+02  0.87523390151E+02  0.12700000000E+01 0.  1.
         25    2    1    2    0    0  0.00000000000E+00  0.00000000000E+00 -0.42897960090E+02  0.13215767723E+03  0.12500166667E+03 0.  0.
    9000005    1    3    3    0    0  0.31606221612E-01 -0.56298791697E+01  0.44352734528E+02  0.44719812147E+02  0.10000000000E+01 0.  0.
    9000005    1    3    3    0    0 -0.31606221612E-01  0.56298791697E+01 -0.87250694617E+02  0.87437865079E+02  0.10000000000E+01 0.  0.
<mgrwt>
<rscale>  0 0.12500167E+03</rscale>
<asrwt>0</asrwt>
<pdfrwt beam="2">  1        4 0.13465818E-01 0.12500167E+03</pdfrwt>
<pdfrwt beam="1">  1       -4 0.68661321E-02 0.12500167E+03</pdfrwt>
<totfact> 0.10297947E+04</totfact>
</mgrwt>
</event>
<event>
 5    1  0.3239419E-002  0.1249990E+03  0.7818608E-02  0.1235071E+00
          4   -1    0    0  501    0  0.00000000000E+00  0.00000000000E+00  0.91735154201E+02  0.91743944848E+02  0.12700000000E+01 0. -1.
         -4   -1    0    0    0  501 -0.00000000000E+00 -0.00000000000E+00 -0.42560849809E+02  0.42579793758E+02  0.12700000000E+01 0. -1.
         25    2    1    2    0    0  0.00000000000E+00  0.00000000000E+00  0.49174304392E+02  0.13432373861E+03  0.12499901816E+03 0.  0.
    9000005    1    3    3    0    0  0.27670642153E+02  0.15324374242E+02 -0.33328492610E+02  0.45959648636E+02  0.10000000000E+01 0.  0.
    9000005    1    3    3    0    0 -0.27670642153E+02 -0.15324374242E+02  0.82502797002E+02  0.88364089970E+02  0.10000000000E+01 0.  0.
<mgrwt>
<rscale>  0 0.12499902E+03</rscale>
<asrwt>0</asrwt>
<pdfrwt beam="1">  1        4 0.14115234E-01 0.12499902E+03</pdfrwt>
<pdfrwt beam="2">  1       -4 0.65499566E-02 0.12499902E+03</pdfrwt>
<totfact> 0.10252571E+04</totfact>
</mgrwt>
</event>
<event>
 5    1  0.3239419E-002  0.1249900E+03  0.7818608E-02  0.1235085E+00
          4   -1    0    0  501    0  0.00000000000E+00  0.00000000000E+00  0.83855459354E+03  0.83855555525E+03  0.12700000000E+01 0. -1.
         -4   -1    0    0    0  501 -0.00000000000E+00 -0.00000000000E+00 -0.45700138864E+01  0.47431979636E+01  0.12700000000E+01 0. -1.
         25    2    1    2    0    0  0.00000000000E+00  0.00000000000E+00  0.83398457965E+03  0.84329875322E+03  0.12499003191E+03 0.  0.
    9000005    1    3    3    0    0  0.33829614611E+02 -0.20885877495E+02  0.74224491231E+03  0.74330960747E+03  0.10000000000E+01 0.  0.
    9000005    1    3    3    0    0 -0.33829614611E+02  0.20885877495E+02  0.91739667342E+02  0.99989145749E+02  0.10000000000E+01 0.  0.
<mgrwt>
<rscale>  0 0.12499003E+03</rscale>
<asrwt>0</asrwt>
<pdfrwt beam="1">  1        4 0.12902172E+00 0.12499003E+03</pdfrwt>
<pdfrwt beam="2">  1       -4 0.71647531E-03 0.12499003E+03</pdfrwt>
<totfact> 0.36411070E+03</totfact>
</mgrwt>
</event>
<event>
 5    1  0.3239419E-002  0.1250003E+03  0.7818608E-02  0.1235069E+00
         -4   -1    0    0    0  501 -0.00000000000E+00  0.00000000000E+00  0.10610166892E+02  0.10685903868E+02  0.12700000000E+01 0. -1.
          4   -1    0    0  501    0  0.00000000000E+00 -0.00000000000E+00 -0.36677686186E+03  0.36677906060E+03  0.12700000000E+01 0. -1.
         25    2    1    2    0    0  0.00000000000E+00  0.00000000000E+00 -0.35616669497E+03  0.37746496447E+03  0.12500033919E+03 0.  0.
    9000005    1    3    3    0    0  0.24294726849E+02 -0.53125053320E+02 -0.24511592087E+03  0.25198277660E+03  0.10000000000E+01 0.  0.
    9000005    1    3    3    0    0 -0.24294726849E+02  0.53125053320E+02 -0.11105077410E+03  0.12548218787E+03  0.10000000000E+01 0.  0.
<mgrwt>
<rscale>  0 0.12500034E+03</rscale>
<asrwt>0</asrwt>
<pdfrwt beam="2">  1        4 0.56433195E-01 0.12500034E+03</pdfrwt>
<pdfrwt beam="1">  1       -4 0.16383287E-02 0.12500034E+03</pdfrwt>
<totfact> 0.66804630E+03</totfact>
</mgrwt>
</event>
<event>
 5    1  0.3239419E-002  0.1249997E+03  0.7818608E-02  0.1235070E+00
         -4   -1    0    0    0  501 -0.00000000000E+00  0.00000000000E+00  0.30092610799E+02  0.30119397814E+02  0.12700000000E+01 0. -1.
          4   -1    0    0  501    0  0.00000000000E+00 -0.00000000000E+00 -0.12971940568E+03  0.12972562241E+03  0.12700000000E+01 0. -1.
         25    2    1    2    0    0  0.00000000000E+00  0.00000000000E+00 -0.99626794884E+02  0.15984502023E+03  0.12499972893E+03 0.  0.
    9000005    1    3    3    0    0 -0.58536908151E+02 -0.20209587162E+02 -0.39096476802E+02  0.73242962307E+02  0.10000000000E+01 0.  0.
    9000005    1    3    3    0    0  0.58536908151E+02  0.20209587162E+02 -0.60530318082E+02  0.86602057922E+02  0.10000000000E+01 0.  0.
<mgrwt>
<rscale>  0 0.12499973E+03</rscale>
<asrwt>0</asrwt>
<pdfrwt beam="2">  1        4 0.19959370E-01 0.12499973E+03</pdfrwt>
<pdfrwt beam="1">  1       -4 0.46321713E-02 0.12499973E+03</pdfrwt>
<totfact> 0.97373265E+03</totfact>
</mgrwt>
</event>
<event>
 5    1  0.3239419E-002  0.1250016E+03  0.7818608E-02  0.1235067E+00
         -4   -1    0    0    0  501 -0.00000000000E+00  0.00000000000E+00  0.12805366508E+02  0.12868189904E+02  0.12700000000E+01 0. -1.
          4   -1    0    0  501    0  0.00000000000E+00 -0.00000000000E+00 -0.30424493311E+03  0.30424758376E+03  0.12700000000E+01 0. -1.
         25    2    1    2    0    0  0.00000000000E+00  0.00000000000E+00 -0.29143956660E+03  0.31711577366E+03  0.12500157169E+03 0.  0.
    9000005    1    3    3    0    0 -0.47295209672E+01 -0.56083677849E+02 -0.21461881246E+03  0.22187830437E+03  0.10000000000E+01 0.  0.
    9000005    1    3    3    0    0  0.47295209672E+01  0.56083677849E+02 -0.76820754140E+02  0.95237469288E+02  0.10000000000E+01 0.  0.
<mgrwt>
<rscale>  0 0.12500157E+03</rscale>
<asrwt>0</asrwt>
<pdfrwt beam="2">  1        4 0.46811944E-01 0.12500157E+03</pdfrwt>
<pdfrwt beam="1">  1       -4 0.19750931E-02 0.12500157E+03</pdfrwt>
<totfact> 0.73497925E+03</totfact>
</mgrwt>
</event>
<event>
 5    1  0.3239419E-002  0.1249944E+03  0.7818608E-02  0.1235078E+00
         -4   -1    0    0    0  501 -0.00000000000E+00  0.00000000000E+00  0.24804020817E+02  0.24836512410E+02  0.12700000000E+01 0.  1.
          4   -1    0    0  501    0  0.00000000000E+00 -0.00000000000E+00 -0.15733235609E+03  0.15733748178E+03  0.12700000000E+01 0.  1.
         25    2    1    2    0    0  0.00000000000E+00  0.00000000000E+00 -0.13252833528E+03  0.18217399419E+03  0.12499441791E+03 0.  0.
    9000005    1    3    3    0    0  0.10787026973E+02  0.20713362551E+02 -0.15074008988E+03  0.15254172555E+03  0.10000000000E+01 0.  0.
    9000005    1    3    3    0    0 -0.10787026973E+02 -0.20713362551E+02  0.18211754601E+02  0.29632268639E+02  0.10000000000E+01 0.  0.
<mgrwt>
<rscale>  0 0.12499442E+03</rscale>
<asrwt>0</asrwt>
<pdfrwt beam="2">  1        4 0.24207871E-01 0.12499442E+03</pdfrwt>
<pdfrwt beam="1">  1       -4 0.38188970E-02 0.12499442E+03</pdfrwt>
<totfact> 0.93238802E+03</totfact>
</mgrwt>
</event>
<event>
 5    1  0.3239419E-002  0.1250007E+03  0.7818608E-02  0.1235068E+00
         -4   -1    0    0    0  501 -0.00000000000E+00  0.00000000000E+00  0.35496714708E+02  0.35519426446E+02  0.12700000000E+01 0. -1.
          4   -1    0    0  501    0  0.00000000000E+00 -0.00000000000E+00 -0.10998503755E+03  0.10999236967E+03  0.12700000000E+01 0. -1.
         25    2    1    2    0    0  0.00000000000E+00  0.00000000000E+00 -0.74488322846E+02  0.14551179612E+03  0.12500069027E+03 0.  0.
    9000005    1    3    3    0    0  0.62178337617E+02  0.42458423884E+01 -0.31894383091E+02  0.70017315853E+02  0.10000000000E+01 0.  0.
    9000005    1    3    3    0    0 -0.62178337617E+02 -0.42458423884E+01 -0.42593939755E+02  0.75494480264E+02  0.10000000000E+01 0.  0.
<mgrwt>
<rscale>  0 0.12500069E+03</rscale>
<asrwt>0</asrwt>
<pdfrwt beam="2">  1        4 0.16923086E-01 0.12500069E+03</pdfrwt>
<pdfrwt beam="1">  1       -4 0.54633441E-02 0.12500069E+03</pdfrwt>
<totfact> 0.10020445E+04</totfact>
</mgrwt>
</event>
<event>
 5    1  0.3239419E-002  0.1250009E+03  0.7818608E-02  0.1235068E+00
          4   -1    0    0  501    0  0.00000000000E+00  0.00000000000E+00  0.57930591329E+02  0.57944510627E+02  0.12700000000E+01 0.  1.
         -4   -1    0    0    0  501 -0.00000000000E+00 -0.00000000000E+00 -0.67402809209E+02  0.67414772782E+02  0.12700000000E+01 0.  1.
         25    2    1    2    0    0  0.00000000000E+00  0.00000000000E+00 -0.94722178799E+01  0.12535928341E+03  0.12500090810E+03 0.  0.
    9000005    1    3    3    0    0 -0.18749195945E+02 -0.58174578051E+02 -0.17792376990E+02  0.63666180653E+02  0.10000000000E+01 0.  0.
    9000005    1    3    3    0    0  0.18749195945E+02  0.58174578051E+02  0.83201591099E+01  0.61693102756E+02  0.10000000000E+01 0.  0.
<mgrwt>
<rscale>  0 0.12500091E+03</rscale>
<asrwt>0</asrwt>
<pdfrwt beam="1">  1        4 0.89143897E-02 0.12500091E+03</pdfrwt>
<pdfrwt beam="2">  1       -4 0.10371654E-01 0.12500091E+03</pdfrwt>
<totfact> 0.10444849E+04</totfact>
</mgrwt>
</event>
<event>
 5    1  0.3239419E-002  0.1249982E+03  0.7818608E-02  0.1235072E+00
          4   -1    0    0  501    0  0.00000000000E+00  0.00000000000E+00  0.40883507832E+02  0.40903228634E+02  0.12700000000E+01 0.  1.
         -4   -1    0    0    0  501 -0.00000000000E+00 -0.00000000000E+00 -0.95496104675E+02  0.95504549149E+02  0.12700000000E+01 0.  1.
         25    2    1    2    0    0  0.00000000000E+00  0.00000000000E+00 -0.54612596843E+02  0.13640777778E+03  0.12499818441E+03 0.  0.
    9000005    1    3    3    0    0  0.14824604803E+02  0.46995306259E+02 -0.69243318348E+02  0.84993910687E+02  0.10000000000E+01 0.  0.
    9000005    1    3    3    0    0 -0.14824604803E+02 -0.46995306259E+02  0.14630721505E+02  0.51413867096E+02  0.10000000000E+01 0.  0.
<mgrwt>
<rscale>  0 0.12499818E+03</rscale>
<asrwt>0</asrwt>
<pdfrwt beam="1">  1        4 0.62919370E-02 0.12499818E+03</pdfrwt>
<pdfrwt beam="2">  1       -4 0.14693875E-01 0.12499818E+03</pdfrwt>
<totfact> 0.10208901E+04</totfact>
</mgrwt>
</event>
<event>
 5    1  0.3239419E-002  0.1250024E+03  0.7818608E-02  0.1235066E+00
          4   -1    0    0  501    0  0.00000000000E+00  0.00000000000E+00  0.18896282974E+03  0.18896709747E+03  0.12700000000E+01 0. -1.
         -4   -1    0    0    0  501 -0.00000000000E+00 -0.00000000000E+00 -0.20648831765E+02  0.20687850378E+02  0.12700000000E+01 0. -1.
         25    2    1    2    0    0  0.00000000000E+00  0.00000000000E+00  0.16831399798E+03  0.20965494784E+03  0.12500238094E+03 0.  0.
    9000005    1    3    3    0    0 -0.55431025465E+02 -0.22600319655E+02  0.54059379338E+02  0.80664673352E+02  0.10000000000E+01 0.  0.
    9000005    1    3    3    0    0  0.55431025465E+02  0.22600319655E+02  0.11425461864E+03  0.12899027449E+03  0.10000000000E+01 0.  0.
<mgrwt>
<rscale>  0 0.12500238E+03</rscale>
<asrwt>0</asrwt>
<pdfrwt beam="1">  1        4 0.29074533E-01 0.12500238E+03</pdfrwt>
<pdfrwt beam="2">  1       -4 0.31800732E-02 0.12500238E+03</pdfrwt>
<totfact> 0.88527552E+03</totfact>
</mgrwt>
</event>
<event>
 5    1  0.3239419E-002  0.1250041E+03  0.7818608E-02  0.1235063E+00
         -4   -1    0    0    0  501 -0.00000000000E+00  0.00000000000E+00  0.18323741262E+03  0.18324181369E+03  0.12700000000E+01 0. -1.
          4   -1    0    0  501    0  0.00000000000E+00 -0.00000000000E+00 -0.21295788393E+02  0.21333623773E+02  0.12700000000E+01 0. -1.
         25    2    1    2    0    0  0.00000000000E+00  0.00000000000E+00  0.16194162423E+03  0.20457543746E+03  0.12500407975E+03 0.  0.
    9000005    1    3    3    0    0 -0.29603404932E+02 -0.27443301735E+02  0.15904657746E+03  0.16409238311E+03  0.10000000000E+01 0.  0.
    9000005    1    3    3    0    0  0.29603404932E+02  0.27443301735E+02  0.28950467677E+01  0.40483054350E+02  0.10000000000E+01 0.  0.
<mgrwt>
<rscale>  0 0.12500408E+03</rscale>
<asrwt>0</asrwt>
<pdfrwt beam="2">  1        4 0.32795239E-02 0.12500408E+03</pdfrwt>
<pdfrwt beam="1">  1       -4 0.28193622E-01 0.12500408E+03</pdfrwt>
<totfact> 0.89361360E+03</totfact>
</mgrwt>
</event>
<event>
 5    1  0.3239419E-002  0.1250011E+03  0.7818608E-02  0.1235068E+00
          4   -1    0    0  501    0  0.00000000000E+00  0.00000000000E+00  0.73224927809E+03  0.73225037943E+03  0.12700000000E+01 0.  1.
         -4   -1    0    0    0  501 -0.00000000000E+00 -0.00000000000E+00 -0.52579783164E+01  0.54091807121E+01  0.12700000000E+01 0.  1.
         25    2    1    2    0    0  0.00000000000E+00  0.00000000000E+00  0.72699129978E+03  0.73765956014E+03  0.12500110684E+03 0.  0.
    9000005    1    3    3    0    0 -0.52307488447E+02  0.13987486812E+02  0.17936269749E+03  0.18735981529E+03  0.10000000000E+01 0.  0.
    9000005    1    3    3    0    0  0.52307488447E+02 -0.13987486812E+02  0.54762860229E+03  0.55029974485E+03  0.10000000000E+01 0.  0.
<mgrwt>
<rscale>  0 0.12500111E+03</rscale>
<asrwt>0</asrwt>
<pdfrwt beam="1">  1        4 0.11266538E+00 0.12500111E+03</pdfrwt>
<pdfrwt beam="2">  1       -4 0.82063593E-03 0.12500111E+03</pdfrwt>
<totfact> 0.41170476E+03</totfact>
</mgrwt>
</event>
<event>
 5    1  0.3239419E-002  0.1249903E+03  0.7818608E-02  0.1235084E+00
         -4   -1    0    0    0  501 -0.00000000000E+00  0.00000000000E+00  0.35122837375E+03  0.35123066982E+03  0.12700000000E+01 0.  1.
          4   -1    0    0  501    0  0.00000000000E+00 -0.00000000000E+00 -0.11081350200E+02  0.11153888213E+02  0.12700000000E+01 0.  1.
         25    2    1    2    0    0  0.00000000000E+00  0.00000000000E+00  0.34014702355E+03  0.36238455804E+03  0.12499028072E+03 0.  0.
    9000005    1    3    3    0    0  0.21624955331E+02  0.36772243411E+02  0.37692327220E+02  0.56934595017E+02  0.10000000000E+01 0.  0.
    9000005    1    3    3    0    0 -0.21624955331E+02 -0.36772243411E+02  0.30245469633E+03  0.30544996302E+03  0.10000000000E+01 0.  0.
<mgrwt>
<rscale>  0 0.12499028E+03</rscale>
<asrwt>0</asrwt>
<pdfrwt beam="2">  1        4 0.17105799E-02 0.12499028E+03</pdfrwt>
<pdfrwt beam="1">  1       -4 0.54040882E-01 0.12499028E+03</pdfrwt>
<totfact> 0.68397958E+03</totfact>
</mgrwt>
</event>
<event>
 5    1  0.3239419E-002  0.1249957E+03  0.7818608E-02  0.1235076E+00
          4   -1    0    0  501    0  0.00000000000E+00  0.00000000000E+00  0.15208278654E+02  0.15261213570E+02  0.12700000000E+01 0. -1.
         -4   -1    0    0    0  501 -0.00000000000E+00 -0.00000000000E+00 -0.25633188048E+03  0.25633502658E+03  0.12700000000E+01 0. -1.
         25    2    1    2    0    0  0.00000000000E+00  0.00000000000E+00 -0.24112360183E+03  0.27159624015E+03  0.12499570515E+03 0.  0.
    9000005    1    3    3    0    0 -0.31618859602E+02  0.15754121493E+02 -0.85593672197E+01  0.36362169816E+02  0.10000000000E+01 0.  0.
    9000005    1    3    3    0    0  0.31618859602E+02 -0.15754121493E+02 -0.23256423461E+03  0.23523407033E+03  0.10000000000E+01 0.  0.
<mgrwt>
<rscale>  0 0.12499571E+03</rscale>
<asrwt>0</asrwt>
<pdfrwt beam="1">  1        4 0.23440493E-02 0.12499571E+03</pdfrwt>
<pdfrwt beam="2">  1       -4 0.39439985E-01 0.12499571E+03</pdfrwt>
<totfact> 0.79313319E+03</totfact>
</mgrwt>
</event>
<event>
 5    1  0.3239419E-002  0.1249942E+03  0.7818608E-02  0.1235078E+00
          4   -1    0    0  501    0  0.00000000000E+00  0.00000000000E+00  0.11612172134E+02  0.11681414370E+02  0.12700000000E+01 0.  1.
         -4   -1    0    0    0  501 -0.00000000000E+00 -0.00000000000E+00 -0.33529140600E+03  0.33529381121E+03  0.12700000000E+01 0.  1.
         25    2    1    2    0    0  0.00000000000E+00  0.00000000000E+00 -0.32367923386E+03  0.34697522558E+03  0.12499424280E+03 0.  0.
    9000005    1    3    3    0    0  0.14046847841E+02  0.19851516768E+02 -0.20489091903E+01  0.24425287739E+02  0.10000000000E+01 0.  0.
    9000005    1    3    3    0    0 -0.14046847841E+02 -0.19851516768E+02 -0.32163032467E+03  0.32254993784E+03  0.10000000000E+01 0.  0.
<mgrwt>
<rscale>  0 0.12499424E+03</rscale>
<asrwt>0</asrwt>
<pdfrwt beam="1">  1        4 0.17919996E-02 0.12499424E+03</pdfrwt>
<pdfrwt beam="2">  1       -4 0.51588797E-01 0.12499424E+03</pdfrwt>
<totfact> 0.70067536E+03</totfact>
</mgrwt>
</event>
<event>
 5    1  0.3239419E-002  0.1250041E+03  0.7818608E-02  0.1235063E+00
          4   -1    0    0  501    0  0.00000000000E+00  0.00000000000E+00  0.55159296784E+02  0.55173915229E+02  0.12700000000E+01 0. -1.
         -4   -1    0    0    0  501 -0.00000000000E+00 -0.00000000000E+00 -0.70792510572E+02  0.70803901397E+02  0.12700000000E+01 0. -1.
         25    2    1    2    0    0  0.00000000000E+00  0.00000000000E+00 -0.15633213788E+02  0.12597781663E+03  0.12500405157E+03 0.  0.
    9000005    1    3    3    0    0  0.42183830906E+02 -0.45850086265E+02 -0.12732847873E+02  0.63598989106E+02  0.10000000000E+01 0.  0.
    9000005    1    3    3    0    0 -0.42183830906E+02  0.45850086265E+02 -0.29003659141E+01  0.62378827520E+02  0.10000000000E+01 0.  0.
<mgrwt>
<rscale>  0 0.12500405E+03</rscale>
<asrwt>0</asrwt>
<pdfrwt beam="1">  1        4 0.84880464E-02 0.12500405E+03</pdfrwt>
<pdfrwt beam="2">  1       -4 0.10893156E-01 0.12500405E+03</pdfrwt>
<totfact> 0.10430489E+04</totfact>
</mgrwt>
</event>
<event>
 5    1  0.3239419E-002  0.1250004E+03  0.7818608E-02  0.1235069E+00
          4   -1    0    0  501    0  0.00000000000E+00  0.00000000000E+00  0.12298050449E+04  0.12298057006E+04  0.12700000000E+01 0. -1.
         -4   -1    0    0    0  501 -0.00000000000E+00 -0.00000000000E+00 -0.30487088981E+01  0.33026543788E+01  0.12700000000E+01 0. -1.
         25    2    1    2    0    0  0.00000000000E+00  0.00000000000E+00  0.12267563360E+04  0.12331083550E+04  0.12500042932E+03 0.  0.
    9000005    1    3    3    0    0 -0.19711308797E+02 -0.10887191365E+01  0.28471280584E+02  0.34660277291E+02  0.10000000000E+01 0.  0.
    9000005    1    3    3    0    0  0.19711308797E+02  0.10887191365E+01  0.11982850554E+04  0.11984480777E+04  0.10000000000E+01 0.  0.
<mgrwt>
<rscale>  0 0.12500043E+03</rscale>
<asrwt>0</asrwt>
<pdfrwt beam="1">  1        4 0.18922047E+00 0.12500043E+03</pdfrwt>
<pdfrwt beam="2">  1       -4 0.48861657E-03 0.12500043E+03</pdfrwt>
<totfact> 0.23861980E+03</totfact>
</mgrwt>
</event>
<event>
 5    1  0.3239419E-002  0.1250056E+03  0.7818608E-02  0.1235060E+00
         -4   -1    0    0    0  501 -0.00000000000E+00  0.00000000000E+00  0.22295236613E+02  0.22331378722E+02  0.12700000000E+01 0.  1.
          4   -1    0    0  501    0  0.00000000000E+00 -0.00000000000E+00 -0.17504105914E+03  0.17504566628E+03  0.12700000000E+01 0.  1.
         25    2    1    2    0    0  0.00000000000E+00  0.00000000000E+00 -0.15274582253E+03  0.19737704500E+03  0.12500564626E+03 0.  0.
    9000005    1    3    3    0    0 -0.23525253099E+02  0.19404965363E+02 -0.16250306328E+03  0.16534278270E+03  0.10000000000E+01 0.  0.
    9000005    1    3    3    0    0  0.23525253099E+02 -0.19404965363E+02  0.97572407596E+01  0.32034262304E+02  0.10000000000E+01 0.  0.
<mgrwt>
<rscale>  0 0.12500565E+03</rscale>
<asrwt>0</asrwt>
<pdfrwt beam="2">  1        4 0.26932527E-01 0.12500565E+03</pdfrwt>
<pdfrwt beam="1">  1       -4 0.34331711E-02 0.12500565E+03</pdfrwt>
<totfact> 0.90567893E+03</totfact>
</mgrwt>
</event>
<event>
 5    1  0.3239419E-002  0.1249991E+03  0.7818608E-02  0.1235071E+00
         -4   -1    0    0    0  501 -0.00000000000E+00  0.00000000000E+00  0.10275525409E+03  0.10276310205E+03  0.12700000000E+01 0.  1.
          4   -1    0    0  501    0  0.00000000000E+00 -0.00000000000E+00 -0.37994648660E+02  0.38015868092E+02  0.12700000000E+01 0.  1.
         25    2    1    2    0    0  0.00000000000E+00  0.00000000000E+00  0.64760605432E+02  0.14077897014E+03  0.12499912967E+03 0.  0.
    9000005    1    3    3    0    0  0.53302973014E+02 -0.28796011052E+02  0.49637087489E+02  0.78327885450E+02  0.10000000000E+01 0.  0.
    9000005    1    3    3    0    0 -0.53302973014E+02  0.28796011052E+02  0.15123517943E+02  0.62451084695E+02  0.10000000000E+01 0.  0.
<mgrwt>
<rscale>  0 0.12499913E+03</rscale>
<asrwt>0</asrwt>
<pdfrwt beam="2">  1        4 0.58475666E-02 0.12499913E+03</pdfrwt>
<pdfrwt beam="1">  1       -4 0.15810736E-01 0.12499913E+03</pdfrwt>
<totfact> 0.10117665E+04</totfact>
</mgrwt>
</event>
<event>
 5    1  0.3239419E-002  0.1249839E+03  0.7818608E-02  0.1235094E+00
          4   -1    0    0  501    0  0.00000000000E+00  0.00000000000E+00  0.15524478566E+02  0.15576338939E+02  0.12700000000E+01 0. -1.
         -4   -1    0    0    0  501 -0.00000000000E+00 -0.00000000000E+00 -0.25108088101E+03  0.25108409290E+03  0.12700000000E+01 0. -1.
         25    2    1    2    0    0  0.00000000000E+00  0.00000000000E+00 -0.23555640244E+03  0.26666043184E+03  0.12498386767E+03 0.  0.
    9000005    1    3    3    0    0 -0.47000011694E+02 -0.40893644585E+02 -0.10755702311E+03  0.12430126503E+03  0.10000000000E+01 0.  0.
    9000005    1    3    3    0    0  0.47000011694E+02  0.40893644585E+02 -0.12799937932E+03  0.14235916681E+03  0.10000000000E+01 0.  0.
<mgrwt>
<rscale>  0 0.12498387E+03</rscale>
<asrwt>0</asrwt>
<pdfrwt beam="1">  1        4 0.23926178E-02 0.12498387E+03</pdfrwt>
<pdfrwt beam="2">  1       -4 0.38632061E-01 0.12498387E+03</pdfrwt>
<totfact> 0.80009071E+03</totfact>
</mgrwt>
</event>
<event>
 4    1  0.3239419E-002  0.1248931E+03  0.7818608E-02  0.1235236E+00
         -4   -1    0    0    0  501 -0.00000000000E+00  0.00000000000E+00  0.43134363506E+02  0.43153055686E+02  0.12700000000E+01 0. -1.
          4   -1    0    0  501    0  0.00000000000E+00 -0.00000000000E+00 -0.90362551164E+02  0.90371475327E+02  0.12700000000E+01 0. -1.
    9000005    1    1    2    0    0  0.14735805832E+02  0.60291253041E+02 -0.16331931067E+02  0.64186533940E+02  0.10000000000E+01 0.  0.
    9000005    1    1    2    0    0 -0.14735805832E+02 -0.60291253041E+02 -0.30896256591E+02  0.69337997074E+02  0.10000000000E+01 0.  0.
<mgrwt>
<rscale>  0 0.12489315E+03</rscale>
<asrwt>0</asrwt>
<pdfrwt beam="2">  1        4 0.13904055E-01 0.12489315E+03</pdfrwt>
<pdfrwt beam="1">  1       -4 0.66381803E-02 0.12489315E+03</pdfrwt>
<totfact> 0.10294054E+04</totfact>
</mgrwt>
</event>
<event>
 5    1  0.3239419E-002  0.1249985E+03  0.7818608E-02  0.1235072E+00
         -4   -1    0    0    0  501 -0.00000000000E+00  0.00000000000E+00  0.49123354158E+02  0.49139768251E+02  0.12700000000E+01 0.  1.
          4   -1    0    0  501    0  0.00000000000E+00 -0.00000000000E+00 -0.79482484619E+02  0.79492630232E+02  0.12700000000E+01 0.  1.
         25    2    1    2    0    0  0.00000000000E+00  0.00000000000E+00 -0.30359130461E+02  0.12863239848E+03  0.12499846854E+03 0.  0.
    9000005    1    3    3    0    0 -0.33146215039E+02 -0.51459326130E+02 -0.28131997206E+02  0.67373162936E+02  0.10000000000E+01 0.  0.
    9000005    1    3    3    0    0  0.33146215039E+02  0.51459326130E+02 -0.22271332551E+01  0.61259235546E+02  0.10000000000E+01 0.  0.
<mgrwt>
<rscale>  0 0.12499847E+03</rscale>
<asrwt>0</asrwt>
<pdfrwt beam="2">  1        4 0.12230118E-01 0.12499847E+03</pdfrwt>
<pdfrwt beam="1">  1       -4 0.75594821E-02 0.12499847E+03</pdfrwt>
<totfact> 0.10374211E+04</totfact>
</mgrwt>
</event>
<event>
 5    1  0.3239419E-002  0.1249970E+03  0.7818608E-02  0.1235074E+00
         -4   -1    0    0    0  501 -0.00000000000E+00  0.00000000000E+00  0.25933580033E+01  0.28876297777E+01  0.12700000000E+01 0. -1.
          4   -1    0    0  501    0  0.00000000000E+00 -0.00000000000E+00 -0.14250184990E+04  0.14250190649E+04  0.12700000000E+01 0. -1.
         25    2    1    2    0    0  0.00000000000E+00  0.00000000000E+00 -0.14224251410E+04  0.14279066947E+04  0.12499698808E+03 0.  0.
    9000005    1    3    3    0    0 -0.14117904408E+02 -0.56292194499E+02 -0.44650809235E+03  0.45026503631E+03  0.10000000000E+01 0.  0.
    9000005    1    3    3    0    0  0.14117904408E+02  0.56292194499E+02 -0.97591704862E+03  0.97764165837E+03  0.10000000000E+01 0.  0.
<mgrwt>
<rscale>  0 0.12499699E+03</rscale>
<asrwt>0</asrwt>
<pdfrwt beam="2">  1        4 0.21925570E+00 0.12499699E+03</pdfrwt>
<pdfrwt beam="1">  1       -4 0.42165912E-03 0.12499699E+03</pdfrwt>
<totfact> 0.19391227E+03</totfact>
</mgrwt>
</event>
<event>
 5    1  0.3239419E-002  0.1250020E+03  0.7818608E-02  0.1235066E+00
         -4   -1    0    0    0  501 -0.00000000000E+00  0.00000000000E+00  0.95814048129E+01  0.96652065776E+01  0.12700000000E+01 0. -1.
          4   -1    0    0  501    0  0.00000000000E+00 -0.00000000000E+00 -0.40584357598E+03  0.40584556307E+03  0.12700000000E+01 0. -1.
         25    2    1    2    0    0  0.00000000000E+00  0.00000000000E+00 -0.39626217117E+03  0.41551076965E+03  0.12500196557E+03 0.  0.
    9000005    1    3    3    0    0  0.58560506279E+02 -0.84951916372E+01 -0.26493272780E+03  0.27146243099E+03  0.10000000000E+01 0.  0.
    9000005    1    3    3    0    0 -0.58560506279E+02  0.84951916372E+01 -0.13132944336E+03  0.14404833866E+03  0.10000000000E+01 0.  0.
<mgrwt>
<rscale>  0 0.12500197E+03</rscale>
<asrwt>0</asrwt>
<pdfrwt beam="2">  1        4 0.62444059E-01 0.12500197E+03</pdfrwt>
<pdfrwt beam="1">  1       -4 0.14806617E-02 0.12500197E+03</pdfrwt>
<totfact> 0.63068949E+03</totfact>
</mgrwt>
</event>
<event>
 5    1  0.3239419E-002  0.1249993E+03  0.7818608E-02  0.1235070E+00
         -4   -1    0    0    0  501 -0.00000000000E+00  0.00000000000E+00  0.50414719951E+02  0.50430713734E+02  0.12700000000E+01 0. -1.
          4   -1    0    0  501    0  0.00000000000E+00 -0.00000000000E+00 -0.77447969836E+02  0.77458381933E+02  0.12700000000E+01 0. -1.
         25    2    1    2    0    0  0.00000000000E+00  0.00000000000E+00 -0.27033249885E+02  0.12788909567E+03  0.12499929676E+03 0.  0.
    9000005    1    3    3    0    0  0.39528414914E+02  0.43539657279E+02  0.81147406590E+01  0.59372100835E+02  0.10000000000E+01 0.  0.
    9000005    1    3    3    0    0 -0.39528414914E+02 -0.43539657279E+02 -0.35147990544E+02  0.68516994833E+02  0.10000000000E+01 0.  0.
<mgrwt>
<rscale>  0 0.12499930E+03</rscale>
<asrwt>0</asrwt>
<pdfrwt beam="2">  1        4 0.11917104E-01 0.12499930E+03</pdfrwt>
<pdfrwt beam="1">  1       -4 0.77581419E-02 0.12499930E+03</pdfrwt>
<totfact> 0.10390048E+04</totfact>
</mgrwt>
</event>
<event>
 5    1  0.3239419E-002  0.1249970E+03  0.7818608E-02  0.1235074E+00
          4   -1    0    0  501    0  0.00000000000E+00  0.00000000000E+00  0.31399207684E+02  0.31424880957E+02  0.12700000000E+01 0.  1.
         -4   -1    0    0    0  501 -0.00000000000E+00 -0.00000000000E+00 -0.12432030035E+03  0.12432678706E+03  0.12700000000E+01 0.  1.
         25    2    1    2    0    0  0.00000000000E+00  0.00000000000E+00 -0.92921092671E+02  0.15575166802E+03  0.12499701047E+03 0.  0.
    9000005    1    3    3    0    0 -0.10535002251E+01 -0.19241833786E+02 -0.12053155070E+03  0.12206642759E+03  0.10000000000E+01 0.  0.
    9000005    1    3    3    0    0  0.10535002251E+01  0.19241833786E+02  0.27610458028E+02  0.33685240428E+02  0.10000000000E+01 0.  0.
<mgrwt>
<rscale>  0 0.12499701E+03</rscale>
<asrwt>0</asrwt>
<pdfrwt beam="1">  1        4 0.48331213E-02 0.12499701E+03</pdfrwt>
<pdfrwt beam="2">  1       -4 0.19128674E-01 0.12499701E+03</pdfrwt>
<totfact> 0.98174739E+03</totfact>
</mgrwt>
</event>
<event>
 5    1  0.3239419E-002  0.1249965E+03  0.7818608E-02  0.1235075E+00
          4   -1    0    0  501    0  0.00000000000E+00  0.00000000000E+00  0.39840988619E+02  0.39861225196E+02  0.12700000000E+01 0.  1.
         -4   -1    0    0    0  501 -0.00000000000E+00 -0.00000000000E+00 -0.97991231733E+02  0.97999461205E+02  0.12700000000E+01 0.  1.
         25    2    1    2    0    0  0.00000000000E+00  0.00000000000E+00 -0.58150243114E+02  0.13786068640E+03  0.12499647227E+03 0.  0.
    9000005    1    3    3    0    0 -0.92527030424E+01 -0.61308567220E+02 -0.37666310497E+02  0.72554144435E+02  0.10000000000E+01 0.  0.
    9000005    1    3    3    0    0  0.92527030424E+01  0.61308567220E+02 -0.20483932616E+02  0.65306541967E+02  0.10000000000E+01 0.  0.
<mgrwt>
<rscale>  0 0.12499647E+03</rscale>
<asrwt>0</asrwt>
<pdfrwt beam="1">  1        4 0.61315726E-02 0.12499647E+03</pdfrwt>
<pdfrwt beam="2">  1       -4 0.15077764E-01 0.12499647E+03</pdfrwt>
<totfact> 0.10178927E+04</totfact>
</mgrwt>
</event>
<event>
 5    1  0.3239419E-002  0.1249877E+03  0.7818608E-02  0.1235089E+00
         -4   -1    0    0    0  501 -0.00000000000E+00  0.00000000000E+00  0.56749103436E+01  0.58152822295E+01  0.12700000000E+01 0. -1.
          4   -1    0    0  501    0  0.00000000000E+00 -0.00000000000E+00 -0.67965270926E+03  0.67965389582E+03  0.12700000000E+01 0. -1.
         25    2    1    2    0    0  0.00000000000E+00  0.00000000000E+00 -0.67397779892E+03  0.68546917805E+03  0.12498768189E+03 0.  0.
    9000005    1    3    3    0    0 -0.59774419306E+02  0.10994094972E+02 -0.25739502892E+03  0.26447505031E+03  0.10000000000E+01 0.  0.
    9000005    1    3    3    0    0  0.59774419306E+02 -0.10994094972E+02 -0.41658277000E+03  0.42099412774E+03  0.10000000000E+01 0.  0.
<mgrwt>
<rscale>  0 0.12498768E+03</rscale>
<asrwt>0</asrwt>
<pdfrwt beam="2">  1        4 0.10457278E+00 0.12498768E+03</pdfrwt>
<pdfrwt beam="1">  1       -4 0.88395278E-03 0.12498768E+03</pdfrwt>
<totfact> 0.43876785E+03</totfact>
</mgrwt>
</event>
<event>
 5    1  0.3239419E-002  0.1249984E+03  0.7818608E-02  0.1235072E+00
          4   -1    0    0  501    0  0.00000000000E+00  0.00000000000E+00  0.47031040099E+02  0.47048184160E+02  0.12700000000E+01 0. -1.
         -4   -1    0    0    0  501 -0.00000000000E+00 -0.00000000000E+00 -0.83017645222E+02  0.83027358853E+02  0.12700000000E+01 0. -1.
         25    2    1    2    0    0  0.00000000000E+00  0.00000000000E+00 -0.35986605123E+02  0.13007554301E+03  0.12499844456E+03 0.  0.
    9000005    1    3    3    0    0 -0.15769427990E+02 -0.48360643501E+02  0.19781622421E+02  0.54586988235E+02  0.10000000000E+01 0.  0.
    9000005    1    3    3    0    0  0.15769427990E+02  0.48360643501E+02 -0.55768227544E+02  0.75488554778E+02  0.10000000000E+01 0.  0.
<mgrwt>
<rscale>  0 0.12499844E+03</rscale>
<asrwt>0</asrwt>
<pdfrwt beam="1">  1        4 0.72376106E-02 0.12499844E+03</pdfrwt>
<pdfrwt beam="2">  1       -4 0.12774011E-01 0.12499844E+03</pdfrwt>
<totfact> 0.10343255E+04</totfact>
</mgrwt>
</event>
<event>
 5    1  0.3239419E-002  0.1249997E+03  0.7818608E-02  0.1235070E+00
         -4   -1    0    0    0  501 -0.00000000000E+00  0.00000000000E+00  0.61296635589E+01  0.62598462717E+01  0.12700000000E+01 0. -1.
          4   -1    0    0  501    0  0.00000000000E+00 -0.00000000000E+00 -0.63043969001E+03  0.63044096919E+03  0.12700000000E+01 0. -1.
         25    2    1    2    0    0  0.00000000000E+00  0.00000000000E+00 -0.62431002645E+03  0.63670081546E+03  0.12499967716E+03 0.  0.
    9000005    1    3    3    0    0 -0.26559055694E+02  0.21988335203E+02 -0.57762787892E+03  0.57865692499E+03  0.10000000000E+01 0.  0.
    9000005    1    3    3    0    0  0.26559055694E+02 -0.21988335203E+02 -0.46682147524E+02  0.58043890478E+02  0.10000000000E+01 0.  0.
<mgrwt>
<rscale>  0 0.12499968E+03</rscale>
<asrwt>0</asrwt>
<pdfrwt beam="2">  1        4 0.97000784E-01 0.12499968E+03</pdfrwt>
<pdfrwt beam="1">  1       -4 0.95313811E-03 0.12499968E+03</pdfrwt>
<totfact> 0.46630316E+03</totfact>
</mgrwt>
</event>
<event>
 5    1  0.3239419E-002  0.1250480E+03  0.7818608E-02  0.1234994E+00
         -4   -1    0    0    0  501 -0.00000000000E+00  0.00000000000E+00  0.68628721939E+01  0.69793921476E+01  0.12700000000E+01 0.  1.
          4   -1    0    0  501    0  0.00000000000E+00 -0.00000000000E+00 -0.56471137807E+03  0.56471280614E+03  0.12700000000E+01 0.  1.
         25    2    1    2    0    0  0.00000000000E+00  0.00000000000E+00 -0.55784850587E+03  0.57169219829E+03  0.12504804708E+03 0.  0.
    9000005    1    3    3    0    0  0.36258674552E+02 -0.48614433983E+02 -0.34828869938E+03  0.35353086539E+03  0.10000000000E+01 0.  0.
    9000005    1    3    3    0    0 -0.36258674552E+02  0.48614433983E+02 -0.20955980650E+03  0.21816133290E+03  0.10000000000E+01 0.  0.
<mgrwt>
<rscale>  0 0.12504805E+03</rscale>
<asrwt>0</asrwt>
<pdfrwt beam="2">  1        4 0.86887710E-01 0.12504805E+03</pdfrwt>
<pdfrwt beam="1">  1       -4 0.10648999E-02 0.12504805E+03</pdfrwt>
<totfact> 0.50651259E+03</totfact>
</mgrwt>
</event>
<event>
 5    1  0.3239419E-002  0.1249995E+03  0.7818608E-02  0.1235070E+00
          4   -1    0    0  501    0  0.00000000000E+00  0.00000000000E+00  0.39540325571E+03  0.39540529527E+03  0.12700000000E+01 0. -1.
         -4   -1    0    0    0  501 -0.00000000000E+00 -0.00000000000E+00 -0.98361890684E+01  0.99178382417E+01  0.12700000000E+01 0. -1.
         25    2    1    2    0    0  0.00000000000E+00  0.00000000000E+00  0.38556706664E+03  0.40532313351E+03  0.12499951872E+03 0.  0.
    9000005    1    3    3    0    0  0.36714860542E+02 -0.48622630095E+01  0.29567865147E+02  0.47401278839E+02  0.10000000000E+01 0.  0.
    9000005    1    3    3    0    0 -0.36714860542E+02  0.48622630095E+01  0.35599920149E+03  0.35792185467E+03  0.10000000000E+01 0.  0.
<mgrwt>
<rscale>  0 0.12499952E+03</rscale>
<asrwt>0</asrwt>
<pdfrwt beam="1">  1        4 0.60837707E-01 0.12499952E+03</pdfrwt>
<pdfrwt beam="2">  1       -4 0.15196975E-02 0.12499952E+03</pdfrwt>
<totfact> 0.64039019E+03</totfact>
</mgrwt>
</event>
<event>
 5    1  0.3239419E-002  0.1250032E+03  0.7818608E-02  0.1235064E+00
          4   -1    0    0  501    0  0.00000000000E+00  0.00000000000E+00  0.87922419803E+02  0.87931591616E+02  0.12700000000E+01 0.  1.
         -4   -1    0    0    0  501 -0.00000000000E+00 -0.00000000000E+00 -0.44410071374E+02  0.44428226832E+02  0.12700000000E+01 0.  1.
         25    2    1    2    0    0  0.00000000000E+00  0.00000000000E+00  0.43512348430E+02  0.13235981845E+03  0.12500318825E+03 0.  0.
    9000005    1    3    3    0    0 -0.79120791436E+01  0.57793727855E+02 -0.19850929960E+01  0.58375136573E+02  0.10000000000E+01 0.  0.
    9000005    1    3    3    0    0  0.79120791436E+01 -0.57793727855E+02  0.45497441426E+02  0.73984681874E+02  0.10000000000E+01 0.  0.
<mgrwt>
<rscale>  0 0.12500319E+03</rscale>
<asrwt>0</asrwt>
<pdfrwt beam="1">  1        4 0.13528628E-01 0.12500319E+03</pdfrwt>
<pdfrwt beam="2">  1       -4 0.68344208E-02 0.12500319E+03</pdfrwt>
<totfact> 0.10293284E+04</totfact>
</mgrwt>
</event>
<event>
 5    1  0.3239419E-002  0.1249987E+03  0.7818608E-02  0.1235071E+00
          4   -1    0    0  501    0  0.00000000000E+00  0.00000000000E+00  0.31568034117E+02  0.31593570201E+02  0.12700000000E+01 0. -1.
         -4   -1    0    0    0  501 -0.00000000000E+00 -0.00000000000E+00 -0.12365919206E+03  0.12366571344E+03  0.12700000000E+01 0. -1.
         25    2    1    2    0    0  0.00000000000E+00  0.00000000000E+00 -0.92091157946E+02  0.15525928364E+03  0.12499865514E+03 0.  0.
    9000005    1    3    3    0    0 -0.45918588332E+02  0.14959228979E+02  0.32149128156E+01  0.48411062274E+02  0.10000000000E+01 0.  0.
    9000005    1    3    3    0    0  0.45918588332E+02 -0.14959228979E+02 -0.95306070762E+02  0.10684822137E+03  0.10000000000E+01 0.  0.
<mgrwt>
<rscale>  0 0.12499866E+03</rscale>
<asrwt>0</asrwt>
<pdfrwt beam="1">  1        4 0.48590866E-02 0.12499866E+03</pdfrwt>
<pdfrwt beam="2">  1       -4 0.19026957E-01 0.12499866E+03</pdfrwt>
<totfact> 0.98267594E+03</totfact>
</mgrwt>
</event>
<event>
 5    1  0.3239419E-002  0.1249991E+03  0.7818608E-02  0.1235071E+00
         -4   -1    0    0    0  501 -0.00000000000E+00  0.00000000000E+00  0.22324865051E+01  0.25684423286E+01  0.12700000000E+01 0. -1.
          4   -1    0    0  501    0  0.00000000000E+00 -0.00000000000E+00 -0.16269301770E+04  0.16269306727E+04  0.12700000000E+01 0. -1.
         25    2    1    2    0    0  0.00000000000E+00  0.00000000000E+00 -0.16246976905E+04  0.16294991150E+04  0.12499912136E+03 0.  0.
    9000005    1    3    3    0    0  0.58051920086E+02 -0.17591166753E+02 -0.61649473882E+03  0.61947254788E+03  0.10000000000E+01 0.  0.
    9000005    1    3    3    0    0 -0.58051920086E+02  0.17591166753E+02 -0.10082029516E+04  0.10100265671E+04  0.10000000000E+01 0.  0.
<mgrwt>
<rscale>  0 0.12499912E+03</rscale>
<asrwt>0</asrwt>
<pdfrwt beam="2">  1        4 0.25032195E+00 0.12499912E+03</pdfrwt>
<pdfrwt beam="1">  1       -4 0.36934165E-03 0.12499912E+03</pdfrwt>
<totfact> 0.15519141E+03</totfact>
</mgrwt>
</event>
<event>
 5    1  0.3239419E-002  0.1250015E+03  0.7818608E-02  0.1235067E+00
          4   -1    0    0  501    0  0.00000000000E+00  0.00000000000E+00  0.36173304822E+02  0.36195592021E+02  0.12700000000E+01 0.  1.
         -4   -1    0    0    0  501 -0.00000000000E+00 -0.00000000000E+00 -0.10793045350E+03  0.10793792518E+03  0.12700000000E+01 0.  1.
         25    2    1    2    0    0  0.00000000000E+00  0.00000000000E+00 -0.71757148677E+02  0.14413351720E+03  0.12500152957E+03 0.  0.
    9000005    1    3    3    0    0 -0.21322580836E+02 -0.23143812738E+02 -0.98133424001E+02  0.10306045521E+03  0.10000000000E+01 0.  0.
    9000005    1    3    3    0    0  0.21322580836E+02  0.23143812738E+02  0.26376275324E+02  0.41073061993E+02  0.10000000000E+01 0.  0.
<mgrwt>
<rscale>  0 0.12500153E+03</rscale>
<asrwt>0</asrwt>
<pdfrwt beam="1">  1        4 0.55674130E-02 0.12500153E+03</pdfrwt>
<pdfrwt beam="2">  1       -4 0.16606974E-01 0.12500153E+03</pdfrwt>
<totfact> 0.10048277E+04</totfact>
</mgrwt>
</event>
<event>
 5    1  0.3239419E-002  0.1250015E+03  0.7818608E-02  0.1235067E+00
         -4   -1    0    0    0  501 -0.00000000000E+00  0.00000000000E+00  0.24158111560E+03  0.24158445379E+03  0.12700000000E+01 0. -1.
          4   -1    0    0  501    0  0.00000000000E+00 -0.00000000000E+00 -0.16141524264E+02  0.16191408387E+02  0.12700000000E+01 0. -1.
         25    2    1    2    0    0  0.00000000000E+00  0.00000000000E+00  0.22543959134E+03  0.25777586218E+03  0.12500154312E+03 0.  0.
    9000005    1    3    3    0    0 -0.53737617450E+01  0.30852606976E+02  0.22424141202E+03  0.22641990093E+03  0.10000000000E+01 0.  0.
    9000005    1    3    3    0    0  0.53737617450E+01 -0.30852606976E+02  0.11981793200E+01  0.31355961255E+02  0.10000000000E+01 0.  0.
<mgrwt>
<rscale>  0 0.12500154E+03</rscale>
<asrwt>0</asrwt>
<pdfrwt beam="2">  1        4 0.24874055E-02 0.12500154E+03</pdfrwt>
<pdfrwt beam="1">  1       -4 0.37170419E-01 0.12500154E+03</pdfrwt>
<totfact> 0.81216412E+03</totfact>
</mgrwt>
</event>
<event>
 5    1  0.3239419E-002  0.1249973E+03  0.7818608E-02  0.1235073E+00
         -4   -1    0    0    0  501 -0.00000000000E+00  0.00000000000E+00  0.14340730597E+02  0.14396855700E+02  0.12700000000E+01 0. -1.
          4   -1    0    0  501    0  0.00000000000E+00 -0.00000000000E+00 -0.27178724638E+03  0.27179021358E+03  0.12700000000E+01 0. -1.
         25    2    1    2    0    0  0.00000000000E+00  0.00000000000E+00 -0.25744651578E+03  0.28618706928E+03  0.12499732050E+03 0.  0.
    9000005    1    3    3    0    0  0.31073885359E+02  0.39332219404E+02 -0.21415960044E+03  0.21994986768E+03  0.10000000000E+01 0.  0.
    9000005    1    3    3    0    0 -0.31073885359E+02 -0.39332219404E+02 -0.43286915349E+02  0.66237201594E+02  0.10000000000E+01 0.  0.
<mgrwt>
<rscale>  0 0.12499732E+03</rscale>
<asrwt>0</asrwt>
<pdfrwt beam="2">  1        4 0.41817964E-01 0.12499732E+03</pdfrwt>
<pdfrwt beam="1">  1       -4 0.22108120E-02 0.12499732E+03</pdfrwt>
<totfact> 0.77369440E+03</totfact>
</mgrwt>
</event>
<event>
 5    1  0.3239419E-002  0.1249973E+03  0.7818608E-02  0.1235073E+00
          4   -1    0    0  501    0  0.00000000000E+00  0.00000000000E+00  0.14100677689E+03  0.14101249600E+03  0.12700000000E+01 0.  1.
         -4   -1    0    0    0  501 -0.00000000000E+00 -0.00000000000E+00 -0.27680547988E+02  0.27709666850E+02  0.12700000000E+01 0.  1.
         25    2    1    2    0    0  0.00000000000E+00  0.00000000000E+00  0.11332622890E+03  0.16872216285E+03  0.12499733629E+03 0.  0.
    9000005    1    3    3    0    0 -0.55870970106E+01 -0.56911996883E+02  0.22651952717E+02  0.61516680698E+02  0.10000000000E+01 0.  0.
    9000005    1    3    3    0    0  0.55870970106E+01  0.56911996883E+02  0.90674276186E+02  0.10720548216E+03  0.10000000000E+01 0.  0.
<mgrwt>
<rscale>  0 0.12499734E+03</rscale>
<asrwt>0</asrwt>
<pdfrwt beam="1">  1        4 0.21696030E-01 0.12499734E+03</pdfrwt>
<pdfrwt beam="2">  1       -4 0.42612257E-02 0.12499734E+03</pdfrwt>
<totfact> 0.95692804E+03</totfact>
</mgrwt>
</event>
<event>
 5    1  0.3239419E-002  0.1250036E+03  0.7818608E-02  0.1235064E+00
          4   -1    0    0  501    0  0.00000000000E+00  0.00000000000E+00  0.16699588989E+04  0.16699593819E+04  0.12700000000E+01 0. -1.
         -4   -1    0    0    0  501 -0.00000000000E+00 -0.00000000000E+00 -0.21663740664E+01  0.25111902746E+01  0.12700000000E+01 0. -1.
         25    2    1    2    0    0  0.00000000000E+00  0.00000000000E+00  0.16677925249E+04  0.16724705721E+04  0.12500363442E+03 0.  0.
    9000005    1    3    3    0    0  0.51762877692E+02  0.33384920801E+02  0.69260048414E+03  0.69533472449E+03  0.10000000000E+01 0.  0.
    9000005    1    3    3    0    0 -0.51762877692E+02 -0.33384920801E+02  0.97519204074E+03  0.97713584765E+03  0.10000000000E+01 0.  0.
<mgrwt>
<rscale>  0 0.12500363E+03</rscale>
<asrwt>0</asrwt>
<pdfrwt beam="1">  1        4 0.25694441E+00 0.12500363E+03</pdfrwt>
<pdfrwt beam="2">  1       -4 0.35984826E-03 0.12500363E+03</pdfrwt>
<totfact> 0.14771125E+03</totfact>
</mgrwt>
</event>
<event>
 5    1  0.3239419E-002  0.1250042E+03  0.7818608E-02  0.1235063E+00
          4   -1    0    0  501    0  0.00000000000E+00  0.00000000000E+00  0.91732128541E+02  0.91740919478E+02  0.12700000000E+01 0.  1.
         -4   -1    0    0    0  501 -0.00000000000E+00 -0.00000000000E+00 -0.42565771874E+02  0.42584713633E+02  0.12700000000E+01 0.  1.
         25    2    1    2    0    0  0.00000000000E+00  0.00000000000E+00  0.49166356667E+02  0.13432563311E+03  0.12500418026E+03 0.  0.
    9000005    1    3    3    0    0  0.41566234745E+02  0.44539740730E+02  0.96172850144E+01  0.61684945864E+02  0.10000000000E+01 0.  0.
    9000005    1    3    3    0    0 -0.41566234745E+02 -0.44539740730E+02  0.39549071653E+02  0.72640687247E+02  0.10000000000E+01 0.  0.
<mgrwt>
<rscale>  0 0.12500418E+03</rscale>
<asrwt>0</asrwt>
<pdfrwt beam="1">  1        4 0.14114768E-01 0.12500418E+03</pdfrwt>
<pdfrwt beam="2">  1       -4 0.65507136E-02 0.12500418E+03</pdfrwt>
<totfact> 0.10251338E+04</totfact>
</mgrwt>
</event>
<event>
 5    1  0.3239419E-002  0.1249919E+03  0.7818608E-02  0.1235082E+00
         -4   -1    0    0    0  501 -0.00000000000E+00  0.00000000000E+00  0.27434829176E+03  0.27435123126E+03  0.12700000000E+01 0.  1.
          4   -1    0    0  501    0  0.00000000000E+00 -0.00000000000E+00 -0.14205102922E+02  0.14261761779E+02  0.12700000000E+01 0.  1.
         25    2    1    2    0    0  0.00000000000E+00  0.00000000000E+00  0.26014318884E+03  0.28861299304E+03  0.12499192394E+03 0.  0.
    9000005    1    3    3    0    0 -0.50901923701E+02  0.36243832871E+02  0.13088471201E+03  0.14503940532E+03  0.10000000000E+01 0.  0.
    9000005    1    3    3    0    0  0.50901923701E+02 -0.36243832871E+02  0.12925847683E+03  0.14357358771E+03  0.10000000000E+01 0.  0.
<mgrwt>
<rscale>  0 0.12499192E+03</rscale>
<asrwt>0</asrwt>
<pdfrwt beam="2">  1        4 0.21899852E-02 0.12499192E+03</pdfrwt>
<pdfrwt beam="1">  1       -4 0.42212010E-01 0.12499192E+03</pdfrwt>
<totfact> 0.77063599E+03</totfact>
</mgrwt>
</event>
<event>
 5    1  0.3239419E-002  0.1249984E+03  0.7818608E-02  0.1235072E+00
          4   -1    0    0  501    0  0.00000000000E+00  0.00000000000E+00  0.24505391669E+02  0.24538278685E+02  0.12700000000E+01 0. -1.
         -4   -1    0    0    0  501 -0.00000000000E+00 -0.00000000000E+00 -0.15925720396E+03  0.15926226770E+03  0.12700000000E+01 0. -1.
         25    2    1    2    0    0  0.00000000000E+00  0.00000000000E+00 -0.13475181229E+03  0.18380054638E+03  0.12499835973E+03 0.  0.
    9000005    1    3    3    0    0 -0.14681483579E+02  0.57741954824E+02 -0.95099073546E+02  0.11222527833E+03  0.10000000000E+01 0.  0.
    9000005    1    3    3    0    0  0.14681483579E+02 -0.57741954824E+02 -0.39652738743E+02  0.71575268053E+02  0.10000000000E+01 0.  0.
<mgrwt>
<rscale>  0 0.12499836E+03</rscale>
<asrwt>0</asrwt>
<pdfrwt beam="1">  1        4 0.37729796E-02 0.12499836E+03</pdfrwt>
<pdfrwt beam="2">  1       -4 0.24504027E-01 0.12499836E+03</pdfrwt>
<totfact> 0.92940749E+03</totfact>
</mgrwt>
</event>
<event>
 5    1  0.3239419E-002  0.1250007E+03  0.7818608E-02  0.1235068E+00
         -4   -1    0    0    0  501 -0.00000000000E+00  0.00000000000E+00  0.49097383835E+03  0.49097548090E+03  0.12700000000E+01 0.  1.
          4   -1    0    0  501    0  0.00000000000E+00 -0.00000000000E+00 -0.79038627680E+01  0.80052449466E+01  0.12700000000E+01 0.  1.
         25    2    1    2    0    0  0.00000000000E+00  0.00000000000E+00  0.48306997558E+03  0.49898072585E+03  0.12500065383E+03 0.  0.
    9000005    1    3    3    0    0 -0.42885977024E+02 -0.10274093356E+01  0.60136155768E+02  0.73875705247E+02  0.10000000000E+01 0.  0.
    9000005    1    3    3    0    0  0.42885977024E+02  0.10274093356E+01  0.42293381982E+03  0.42510502060E+03  0.10000000000E+01 0.  0.
<mgrwt>
<rscale>  0 0.12500065E+03</rscale>
<asrwt>0</asrwt>
<pdfrwt beam="2">  1        4 0.12239034E-02 0.12500065E+03</pdfrwt>
<pdfrwt beam="1">  1       -4 0.75542392E-01 0.12500065E+03</pdfrwt>
<totfact> 0.55942715E+03</totfact>
</mgrwt>
</event>
<event>
 5    1  0.3239419E-002  0.1250003E+03  0.7818608E-02  0.1235069E+00
         -4   -1    0    0    0  501 -0.00000000000E+00  0.00000000000E+00  0.11085724358E+03  0.11086451801E+03  0.12700000000E+01 0. -1.
          4   -1    0    0  501    0  0.00000000000E+00 -0.00000000000E+00 -0.35217063685E+02  0.35239955656E+02  0.12700000000E+01 0. -1.
         25    2    1    2    0    0  0.00000000000E+00  0.00000000000E+00  0.75640179892E+02  0.14610447366E+03  0.12500032164E+03 0.  0.
    9000005    1    3    3    0    0  0.48664685356E+02 -0.23749021763E+02  0.74279476259E+02  0.91927733731E+02  0.10000000000E+01 0.  0.
    9000005    1    3    3    0    0 -0.48664685356E+02  0.23749021763E+02  0.13607036328E+01  0.54176739934E+02  0.10000000000E+01 0.  0.
<mgrwt>
<rscale>  0 0.12500032E+03</rscale>
<asrwt>0</asrwt>
<pdfrwt beam="2">  1        4 0.54203303E-02 0.12500032E+03</pdfrwt>
<pdfrwt beam="1">  1       -4 0.17057281E-01 0.12500032E+03</pdfrwt>
<totfact> 0.10008524E+04</totfact>
</mgrwt>
</event>
<event>
 5    1  0.3239419E-002  0.1249992E+03  0.7818608E-02  0.1235071E+00
         -4   -1    0    0    0  501 -0.00000000000E+00  0.00000000000E+00  0.93961942370E+03  0.93962028197E+03  0.12700000000E+01 0.  1.
          4   -1    0    0  501    0  0.00000000000E+00 -0.00000000000E+00 -0.40593376457E+01  0.42533659755E+01  0.12700000000E+01 0.  1.
         25    2    1    2    0    0  0.00000000000E+00  0.00000000000E+00  0.93556008605E+03  0.94387364795E+03  0.12499915469E+03 0.  0.
    9000005    1    3    3    0    0 -0.60947139812E+02  0.11922068520E+02  0.52037107285E+03  0.52406463631E+03  0.10000000000E+01 0.  0.
    9000005    1    3    3    0    0  0.60947139812E+02 -0.11922068520E+02  0.41518901320E+03  0.41980901164E+03  0.10000000000E+01 0.  0.
<mgrwt>
<rscale>  0 0.12499915E+03</rscale>
<asrwt>0</asrwt>
<pdfrwt beam="2">  1        4 0.63950521E-03 0.12499915E+03</pdfrwt>
<pdfrwt beam="1">  1       -4 0.14457173E+00 0.12499915E+03</pdfrwt>
<totfact> 0.32535107E+03</totfact>
</mgrwt>
</event>
<event>
 5    1  0.3239419E-002  0.1249983E+03  0.7818608E-02  0.1235072E+00
         -4   -1    0    0    0  501 -0.00000000000E+00  0.00000000000E+00  0.27643766183E+02  0.27672923749E+02  0.12700000000E+01 0. -1.
          4   -1    0    0  501    0  0.00000000000E+00 -0.00000000000E+00 -0.14119649433E+03  0.14120220576E+03  0.12700000000E+01 0. -1.
         25    2    1    2    0    0  0.00000000000E+00  0.00000000000E+00 -0.11355272814E+03  0.16887512950E+03  0.12499834917E+03 0.  0.
    9000005    1    3    3    0    0  0.62354088088E+02  0.27907256420E+01 -0.52650472470E+02  0.81663288583E+02  0.10000000000E+01 0.  0.
    9000005    1    3    3    0    0 -0.62354088088E+02 -0.27907256420E+01 -0.60902255674E+02  0.87211840922E+02  0.10000000000E+01 0.  0.
<mgrwt>
<rscale>  0 0.12499835E+03</rscale>
<asrwt>0</asrwt>
<pdfrwt beam="2">  1        4 0.21725219E-01 0.12499835E+03</pdfrwt>
<pdfrwt beam="1">  1       -4 0.42555694E-02 0.12499835E+03</pdfrwt>
<totfact> 0.95662042E+03</totfact>
</mgrwt>
</event>
<event>
 5    1  0.3239419E-002  0.1249999E+03  0.7818608E-02  0.1235069E+00
         -4   -1    0    0    0  501 -0.00000000000E+00  0.00000000000E+00  0.52121290568E+03  0.52121445294E+03  0.12700000000E+01 0. -1.
          4   -1    0    0  501    0  0.00000000000E+00 -0.00000000000E+00 -0.74391579119E+01  0.75467854374E+01  0.12700000000E+01 0. -1.
         25    2    1    2    0    0  0.00000000000E+00  0.00000000000E+00  0.51377374777E+03  0.52876123837E+03  0.12499993323E+03 0.  0.
    9000005    1    3    3    0    0  0.23249504572E+02 -0.57497369017E+02  0.28931237780E+03  0.29588703732E+03  0.10000000000E+01 0.  0.
    9000005    1    3    3    0    0 -0.23249504572E+02  0.57497369017E+02  0.22446136997E+03  0.23287420106E+03  0.10000000000E+01 0.  0.
<mgrwt>
<rscale>  0 0.12499993E+03</rscale>
<asrwt>0</asrwt>
<pdfrwt beam="2">  1        4 0.11528837E-02 0.12499993E+03</pdfrwt>
<pdfrwt beam="1">  1       -4 0.80195015E-01 0.12499993E+03</pdfrwt>
<totfact> 0.53699988E+03</totfact>
</mgrwt>
</event>
<event>
 5    1  0.3239419E-002  0.1250042E+03  0.7818608E-02  0.1235063E+00
          4   -1    0    0  501    0  0.00000000000E+00  0.00000000000E+00  0.12599176272E+04  0.12599182673E+04  0.12700000000E+01 0. -1.
         -4   -1    0    0    0  501 -0.00000000000E+00 -0.00000000000E+00 -0.29698931984E+01  0.32300411158E+01  0.12700000000E+01 0. -1.
         25    2    1    2    0    0  0.00000000000E+00  0.00000000000E+00  0.12569477340E+04  0.12631483084E+04  0.12500417191E+03 0.  0.
    9000005    1    3    3    0    0 -0.32281563934E+02 -0.28015418670E+02  0.10891649800E+04  0.10900038150E+04  0.10000000000E+01 0.  0.
    9000005    1    3    3    0    0  0.32281563934E+02  0.28015418670E+02  0.16778275395E+03  0.17314449335E+03  0.10000000000E+01 0.  0.
<mgrwt>
<rscale>  0 0.12500417E+03</rscale>
<asrwt>0</asrwt>
<pdfrwt beam="1">  1        4 0.19385367E+00 0.12500417E+03</pdfrwt>
<pdfrwt beam="2">  1       -4 0.47696694E-03 0.12500417E+03</pdfrwt>
<totfact> 0.23113208E+03</totfact>
</mgrwt>
</event>
<event>
 5    1  0.3239419E-002  0.1249967E+03  0.7818608E-02  0.1235074E+00
         -4   -1    0    0    0  501 -0.00000000000E+00  0.00000000000E+00  0.14831271135E+03  0.14831814875E+03  0.12700000000E+01 0.  1.
          4   -1    0    0  501    0  0.00000000000E+00 -0.00000000000E+00 -0.26315309636E+02  0.26345937471E+02  0.12700000000E+01 0.  1.
         25    2    1    2    0    0  0.00000000000E+00  0.00000000000E+00  0.12199740171E+03  0.17466408622E+03  0.12499670792E+03 0.  0.
    9000005    1    3    3    0    0 -0.21408633601E+02 -0.42309172971E+02  0.41238551027E+01  0.47606742076E+02  0.10000000000E+01 0.  0.
    9000005    1    3    3    0    0  0.21408633601E+02  0.42309172971E+02  0.11787354661E+03  0.12705734414E+03  0.10000000000E+01 0.  0.
<mgrwt>
<rscale>  0 0.12499671E+03</rscale>
<asrwt>0</asrwt>
<pdfrwt beam="2">  1        4 0.40512834E-02 0.12499671E+03</pdfrwt>
<pdfrwt beam="1">  1       -4 0.22820114E-01 0.12499671E+03</pdfrwt>
<totfact> 0.94593384E+03</totfact>
</mgrwt>
</event>
<event>
 5    1  0.3239419E-002  0.1249979E+03  0.7818608E-02  0.1235073E+00
         -4   -1    0    0    0  501 -0.00000000000E+00  0.00000000000E+00  0.14196640130E+02  0.14253332627E+02  0.12700000000E+01 0. -1.
          4   -1    0    0  501    0  0.00000000000E+00 -0.00000000000E+00 -0.27453753107E+03  0.27454046854E+03  0.12700000000E+01 0. -1.
         25    2    1    2    0    0  0.00000000000E+00  0.00000000000E+00 -0.26034089094E+03  0.28879380116E+03  0.12499792037E+03 0.  0.
    9000005    1    3    3    0    0  0.11342979604E+02  0.61269337320E+02 -0.11920518759E+03  0.13451197579E+03  0.10000000000E+01 0.  0.
    9000005    1    3    3    0    0 -0.11342979604E+02 -0.61269337320E+02 -0.14113570335E+03  0.15428182538E+03  0.10000000000E+01 0.  0.
<mgrwt>
<rscale>  0 0.12499792E+03</rscale>
<asrwt>0</asrwt>
<pdfrwt beam="2">  1        4 0.42241126E-01 0.12499792E+03</pdfrwt>
<pdfrwt beam="1">  1       -4 0.21886856E-02 0.12499792E+03</pdfrwt>
<totfact> 0.77029935E+03</totfact>
</mgrwt>
</event>
<event>
 5    1  0.3239419E-002  0.1249980E+03  0.7818608E-02  0.1235072E+00
          4   -1    0    0  501    0  0.00000000000E+00  0.00000000000E+00  0.10630078000E+03  0.10630836622E+03  0.12700000000E+01 0.  1.
         -4   -1    0    0    0  501 -0.00000000000E+00 -0.00000000000E+00 -0.36726108099E+02  0.36748060032E+02  0.12700000000E+01 0.  1.
         25    2    1    2    0    0  0.00000000000E+00  0.00000000000E+00  0.69574671901E+02  0.14305642625E+03  0.12499802447E+03 0.  0.
    9000005    1    3    3    0    0  0.31828845039E+02 -0.50071793313E+02  0.12335111635E+02  0.60608702685E+02  0.10000000000E+01 0.  0.
    9000005    1    3    3    0    0 -0.31828845039E+02  0.50071793313E+02  0.57239560266E+02  0.82447723568E+02  0.10000000000E+01 0.  0.
<mgrwt>
<rscale>  0 0.12499802E+03</rscale>
<asrwt>0</asrwt>
<pdfrwt beam="1">  1        4 0.16356238E-01 0.12499802E+03</pdfrwt>
<pdfrwt beam="2">  1       -4 0.56524427E-02 0.12499802E+03</pdfrwt>
<totfact> 0.10071076E+04</totfact>
</mgrwt>
</event>
<event>
 5    1  0.3239419E-002  0.1249929E+03  0.7818608E-02  0.1235080E+00
          4   -1    0    0  501    0  0.00000000000E+00  0.00000000000E+00  0.45856823177E+03  0.45856999040E+03  0.12700000000E+01 0. -1.
         -4   -1    0    0    0  501 -0.00000000000E+00 -0.00000000000E+00 -0.84682742013E+01  0.85629765823E+01  0.12700000000E+01 0. -1.
         25    2    1    2    0    0  0.00000000000E+00  0.00000000000E+00  0.45009995757E+03  0.46713296698E+03  0.12499294793E+03 0.  0.
    9000005    1    3    3    0    0 -0.40674108218E+02  0.47426842847E+02  0.22900647327E+03  0.23737871282E+03  0.10000000000E+01 0.  0.
    9000005    1    3    3    0    0  0.40674108218E+02 -0.47426842847E+02  0.22109348431E+03  0.22975425416E+03  0.10000000000E+01 0.  0.
<mgrwt>
<rscale>  0 0.12499295E+03</rscale>
<asrwt>0</asrwt>
<pdfrwt beam="1">  1        4 0.70556383E-01 0.12499295E+03</pdfrwt>
<pdfrwt beam="2">  1       -4 0.13102314E-02 0.12499295E+03</pdfrwt>
<totfact> 0.58516858E+03</totfact>
</mgrwt>
</event>
<event>
 5    1  0.3239419E-002  0.1249998E+03  0.7818608E-02  0.1235070E+00
         -4   -1    0    0    0  501 -0.00000000000E+00  0.00000000000E+00  0.11705043918E+02  0.11773739980E+02  0.12700000000E+01 0. -1.
          4   -1    0    0  501    0  0.00000000000E+00 -0.00000000000E+00 -0.33267644642E+03  0.33267887054E+03  0.12700000000E+01 0. -1.
         25    2    1    2    0    0  0.00000000000E+00  0.00000000000E+00 -0.32097140251E+03  0.34445261052E+03  0.12499983868E+03 0.  0.
    9000005    1    3    3    0    0 -0.34117409659E+02 -0.50807129604E+02 -0.19532859263E+03  0.20469396953E+03  0.10000000000E+01 0.  0.
    9000005    1    3    3    0    0  0.34117409659E+02  0.50807129604E+02 -0.12564280987E+03  0.13975864100E+03  0.10000000000E+01 0.  0.
<mgrwt>
<rscale>  0 0.12499984E+03</rscale>
<asrwt>0</asrwt>
<pdfrwt beam="2">  1        4 0.51186455E-01 0.12499984E+03</pdfrwt>
<pdfrwt beam="1">  1       -4 0.18062470E-02 0.12499984E+03</pdfrwt>
<totfact> 0.70339433E+03</totfact>
</mgrwt>
</event>
<event>
 5    1  0.3239419E-002  0.1250005E+03  0.7818608E-02  0.1235069E+00
         -4   -1    0    0    0  501 -0.00000000000E+00  0.00000000000E+00  0.43665175357E+02  0.43683640404E+02  0.12700000000E+01 0. -1.
          4   -1    0    0  501    0  0.00000000000E+00 -0.00000000000E+00 -0.89417955293E+02  0.89426973721E+02  0.12700000000E+01 0. -1.
         25    2    1    2    0    0  0.00000000000E+00  0.00000000000E+00 -0.45752779936E+02  0.13311061413E+03  0.12500047488E+03 0.  0.
    9000005    1    3    3    0    0  0.23666548371E+02 -0.26233469322E+02  0.32013847046E+02  0.47688434941E+02  0.10000000000E+01 0.  0.
    9000005    1    3    3    0    0 -0.23666548371E+02  0.26233469322E+02 -0.77766626982E+02  0.85422179184E+02  0.10000000000E+01 0.  0.
<mgrwt>
<rscale>  0 0.12500047E+03</rscale>
<asrwt>0</asrwt>
<pdfrwt beam="2">  1        4 0.13758723E-01 0.12500047E+03</pdfrwt>
<pdfrwt beam="1">  1       -4 0.67198334E-02 0.12500047E+03</pdfrwt>
<totfact> 0.10277940E+04</totfact>
</mgrwt>
</event>
<event>
 5    1  0.3239419E-002  0.1249992E+03  0.7818608E-02  0.1235070E+00
         -4   -1    0    0    0  501 -0.00000000000E+00  0.00000000000E+00  0.23700696229E+02  0.23734698266E+02  0.12700000000E+01 0. -1.
          4   -1    0    0  501    0  0.00000000000E+00 -0.00000000000E+00 -0.16465925013E+03  0.16466414775E+03  0.12700000000E+01 0. -1.
         25    2    1    2    0    0  0.00000000000E+00  0.00000000000E+00 -0.14095855390E+03  0.18839884601E+03  0.12499924504E+03 0.  0.
    9000005    1    3    3    0    0 -0.36336858712E+02  0.26857983116E+02 -0.54163326773E+01  0.45519833235E+02  0.10000000000E+01 0.  0.
    9000005    1    3    3    0    0  0.36336858712E+02 -0.26857983116E+02 -0.13554222122E+03  0.14287901278E+03  0.10000000000E+01 0.  0.
<mgrwt>
<rscale>  0 0.12499925E+03</rscale>
<asrwt>0</asrwt>
<pdfrwt beam="2">  1        4 0.25335184E-01 0.12499925E+03</pdfrwt>
<pdfrwt beam="1">  1       -4 0.36492533E-02 0.12499925E+03</pdfrwt>
<totfact> 0.92128217E+03</totfact>
</mgrwt>
</event>
<event>
 5    1  0.3239419E-002  0.1250009E+03  0.7818608E-02  0.1235068E+00
          4   -1    0    0  501    0  0.00000000000E+00  0.00000000000E+00  0.22604694800E+02  0.22640342908E+02  0.12700000000E+01 0. -1.
         -4   -1    0    0    0  501 -0.00000000000E+00 -0.00000000000E+00 -0.17263538912E+03  0.17264006047E+03  0.12700000000E+01 0. -1.
         25    2    1    2    0    0  0.00000000000E+00  0.00000000000E+00 -0.15003069432E+03  0.19528040337E+03  0.12500090681E+03 0.  0.
    9000005    1    3    3    0    0  0.46934626089E+02  0.26438472316E+02 -0.12450271927E+03  0.13566052871E+03  0.10000000000E+01 0.  0.
    9000005    1    3    3    0    0 -0.46934626089E+02 -0.26438472316E+02 -0.25527975054E+02  0.59619874664E+02  0.10000000000E+01 0.  0.
<mgrwt>
<rscale>  0 0.12500091E+03</rscale>
<asrwt>0</asrwt>
<pdfrwt beam="1">  1        4 0.34807470E-02 0.12500091E+03</pdfrwt>
<pdfrwt beam="2">  1       -4 0.26562391E-01 0.12500091E+03</pdfrwt>
<totfact> 0.90934727E+03</totfact>
</mgrwt>
</event>
<event>
 5    1  0.3239419E-002  0.1250101E+03  0.7818608E-02  0.1235054E+00
          4   -1    0    0  501    0  0.00000000000E+00  0.00000000000E+00  0.12254371646E+02  0.12320005050E+02  0.12700000000E+01 0. -1.
         -4   -1    0    0    0  501 -0.00000000000E+00 -0.00000000000E+00 -0.31789679873E+03  0.31789933555E+03  0.12700000000E+01 0. -1.
         25    2    1    2    0    0  0.00000000000E+00  0.00000000000E+00 -0.30564242708E+03  0.33021934060E+03  0.12501007828E+03 0.  0.
    9000005    1    3    3    0    0  0.33554854430E+02  0.52612718406E+02 -0.14372666336E+03  0.15669199135E+03  0.10000000000E+01 0.  0.
    9000005    1    3    3    0    0 -0.33554854430E+02 -0.52612718406E+02 -0.16191576372E+03  0.17352734924E+03  0.10000000000E+01 0.  0.
<mgrwt>
<rscale>  0 0.12501008E+03</rscale>
<asrwt>0</asrwt>
<pdfrwt beam="1">  1        4 0.18905321E-02 0.12501008E+03</pdfrwt>
<pdfrwt beam="2">  1       -4 0.48912437E-01 0.12501008E+03</pdfrwt>
<totfact> 0.71940871E+03</totfact>
</mgrwt>
</event>
<event>
 5    1  0.3239419E-002  0.1250010E+03  0.7818608E-02  0.1235068E+00
         -4   -1    0    0    0  501 -0.00000000000E+00  0.00000000000E+00  0.92080224869E+02  0.92088982577E+02  0.12700000000E+01 0. -1.
          4   -1    0    0  501    0  0.00000000000E+00 -0.00000000000E+00 -0.42402649778E+02  0.42421664373E+02  0.12700000000E+01 0. -1.
         25    2    1    2    0    0  0.00000000000E+00  0.00000000000E+00  0.49677575091E+02  0.13451064695E+03  0.12500101070E+03 0.  0.
    9000005    1    3    3    0    0 -0.46962116013E+02 -0.92988293107E+01  0.68061775183E+02  0.83218470354E+02  0.10000000000E+01 0.  0.
    9000005    1    3    3    0    0  0.46962116013E+02  0.92988293107E+01 -0.18384200092E+02  0.51292176596E+02  0.10000000000E+01 0.  0.
<mgrwt>
<rscale>  0 0.12500101E+03</rscale>
<asrwt>0</asrwt>
<pdfrwt beam="2">  1        4 0.65256209E-02 0.12500101E+03</pdfrwt>
<pdfrwt beam="1">  1       -4 0.14168325E-01 0.12500101E+03</pdfrwt>
<totfact> 0.10248162E+04</totfact>
</mgrwt>
</event>
<event>
 5    1  0.3239419E-002  0.1249942E+03  0.7818608E-02  0.1235078E+00
         -4   -1    0    0    0  501 -0.00000000000E+00  0.00000000000E+00  0.47794152661E+01  0.49452715078E+01  0.12700000000E+01 0. -1.
          4   -1    0    0  501    0  0.00000000000E+00 -0.00000000000E+00 -0.80312623792E+03  0.80312724205E+03  0.12700000000E+01 0. -1.
         25    2    1    2    0    0  0.00000000000E+00  0.00000000000E+00 -0.79834682265E+03  0.80807251356E+03  0.12499415162E+03 0.  0.
    9000005    1    3    3    0    0  0.23117713721E+01  0.22661771506E+01 -0.80261547657E+03  0.80262262806E+03  0.10000000000E+01 0.  0.
    9000005    1    3    3    0    0 -0.23117713721E+01 -0.22661771506E+01  0.42686539163E+01  0.54498855045E+01  0.10000000000E+01 0.  0.
<mgrwt>
<rscale>  0 0.12499415E+03</rscale>
<asrwt>0</asrwt>
<pdfrwt beam="2">  1        4 0.12357061E+00 0.12499415E+03</pdfrwt>
<pdfrwt beam="1">  1       -4 0.74813071E-03 0.12499415E+03</pdfrwt>
<totfact> 0.37911751E+03</totfact>
</mgrwt>
</event>
<event>
 5    1  0.3239419E-002  0.1249981E+03  0.7818608E-02  0.1235072E+00
          4   -1    0    0  501    0  0.00000000000E+00  0.00000000000E+00  0.20514441435E+03  0.20514834544E+03  0.12700000000E+01 0. -1.
         -4   -1    0    0    0  501 -0.00000000000E+00 -0.00000000000E+00 -0.19015593075E+02  0.19057955819E+02  0.12700000000E+01 0. -1.
         25    2    1    2    0    0  0.00000000000E+00  0.00000000000E+00  0.18612882127E+03  0.22420630126E+03  0.12499810965E+03 0.  0.
    9000005    1    3    3    0    0  0.93653057928E+01 -0.33447404469E+02  0.18624408611E+03  0.18945790411E+03  0.10000000000E+01 0.  0.
    9000005    1    3    3    0    0 -0.93653057928E+01  0.33447404469E+02 -0.11526484340E+00  0.34748397147E+02  0.10000000000E+01 0.  0.
<mgrwt>
<rscale>  0 0.12499811E+03</rscale>
<asrwt>0</asrwt>
<pdfrwt beam="1">  1        4 0.31564241E-01 0.12499811E+03</pdfrwt>
<pdfrwt beam="2">  1       -4 0.29290368E-02 0.12499811E+03</pdfrwt>
<totfact> 0.86210740E+03</totfact>
</mgrwt>
</event>
<event>
 5    1  0.3239419E-002  0.1249937E+03  0.7818608E-02  0.1235079E+00
          4   -1    0    0  501    0  0.00000000000E+00  0.00000000000E+00  0.99060625210E+01  0.99871404651E+01  0.12700000000E+01 0. -1.
         -4   -1    0    0    0  501 -0.00000000000E+00 -0.00000000000E+00 -0.39260048664E+03  0.39260254076E+03  0.12700000000E+01 0. -1.
         25    2    1    2    0    0  0.00000000000E+00  0.00000000000E+00 -0.38269442412E+03  0.40258968123E+03  0.12499371655E+03 0.  0.
    9000005    1    3    3    0    0 -0.56336373691E+02 -0.26649764718E+02 -0.20605797119E+03  0.21527862051E+03  0.10000000000E+01 0.  0.
    9000005    1    3    3    0    0  0.56336373691E+02  0.26649764718E+02 -0.17663645294E+03  0.18731106071E+03  0.10000000000E+01 0.  0.
<mgrwt>
<rscale>  0 0.12499372E+03</rscale>
<asrwt>0</asrwt>
<pdfrwt beam="1">  1        4 0.15304047E-02 0.12499372E+03</pdfrwt>
<pdfrwt beam="2">  1       -4 0.60406458E-01 0.12499372E+03</pdfrwt>
<totfact> 0.64310622E+03</totfact>
</mgrwt>
</event>
<event>
 5    1  0.3239419E-002  0.1249989E+03  0.7818608E-02  0.1235071E+00
         -4   -1    0    0    0  501 -0.00000000000E+00  0.00000000000E+00  0.13554092419E+03  0.13554687392E+03  0.12700000000E+01 0. -1.
          4   -1    0    0  501    0  0.00000000000E+00 -0.00000000000E+00 -0.28798614239E+02  0.28826603721E+02  0.12700000000E+01 0. -1.
         25    2    1    2    0    0  0.00000000000E+00  0.00000000000E+00  0.10674230995E+03  0.16437347764E+03  0.12499887767E+03 0.  0.
    9000005    1    3    3    0    0  0.21126405240E+02 -0.54210114494E+02  0.23381137760E+02  0.62711554875E+02  0.10000000000E+01 0.  0.
    9000005    1    3    3    0    0 -0.21126405240E+02  0.54210114494E+02  0.83361172187E+02  0.10166192276E+03  0.10000000000E+01 0.  0.
<mgrwt>
<rscale>  0 0.12499888E+03</rscale>
<asrwt>0</asrwt>
<pdfrwt beam="2">  1        4 0.44331667E-02 0.12499888E+03</pdfrwt>
<pdfrwt beam="1">  1       -4 0.20855061E-01 0.12499888E+03</pdfrwt>
<totfact> 0.96508610E+03</totfact>
</mgrwt>
</event>
<event>
 5    1  0.3239419E-002  0.1249966E+03  0.7818608E-02  0.1235075E+00
         -4   -1    0    0    0  501 -0.00000000000E+00  0.00000000000E+00  0.52109830677E+02  0.52125304346E+02  0.12700000000E+01 0. -1.
          4   -1    0    0  501    0  0.00000000000E+00 -0.00000000000E+00 -0.74925782340E+02  0.74936544884E+02  0.12700000000E+01 0. -1.
         25    2    1    2    0    0  0.00000000000E+00  0.00000000000E+00 -0.22815951662E+02  0.12706184923E+03  0.12499658347E+03 0.  0.
    9000005    1    3    3    0    0  0.36628999203E+02 -0.39373904851E+02 -0.43762286317E+02  0.69340649474E+02  0.10000000000E+01 0.  0.
    9000005    1    3    3    0    0 -0.36628999203E+02  0.39373904851E+02  0.20946334655E+02  0.57721199756E+02  0.10000000000E+01 0.  0.
<mgrwt>
<rscale>  0 0.12499658E+03</rscale>
<asrwt>0</asrwt>
<pdfrwt beam="2">  1        4 0.11529062E-01 0.12499658E+03</pdfrwt>
<pdfrwt beam="1">  1       -4 0.80189152E-02 0.12499658E+03</pdfrwt>
<totfact> 0.10408605E+04</totfact>
</mgrwt>
</event>
<event>
 5    1  0.3239419E-002  0.1250068E+03  0.7818608E-02  0.1235059E+00
          4   -1    0    0  501    0  0.00000000000E+00  0.00000000000E+00  0.36915559333E+02  0.36937398675E+02  0.12700000000E+01 0.  1.
         -4   -1    0    0    0  501 -0.00000000000E+00 -0.00000000000E+00 -0.10577036337E+03  0.10577798763E+03  0.12700000000E+01 0.  1.
         25    2    1    2    0    0  0.00000000000E+00  0.00000000000E+00 -0.68854804036E+02  0.14271538631E+03  0.12500678961E+03 0.  0.
    9000005    1    3    3    0    0 -0.16724723018E+01 -0.51400165423E+02 -0.74966823906E+02  0.90916438864E+02  0.10000000000E+01 0.  0.
    9000005    1    3    3    0    0  0.16724723018E+01  0.51400165423E+02  0.61120198704E+01  0.51798947441E+02  0.10000000000E+01 0.  0.
<mgrwt>
<rscale>  0 0.12500679E+03</rscale>
<asrwt>0</asrwt>
<pdfrwt beam="1">  1        4 0.56815833E-02 0.12500679E+03</pdfrwt>
<pdfrwt beam="2">  1       -4 0.16274630E-01 0.12500679E+03</pdfrwt>
<totfact> 0.10076074E+04</totfact>
</mgrwt>
</event>
<event>
 4    1  0.3239419E-002  0.1249026E+03  0.7818608E-02  0.1235222E+00
         -4   -1    0    0    0  501 -0.00000000000E+00  0.00000000000E+00  0.50554682543E+02  0.50570632061E+02  0.12700000000E+01 0. -1.
          4   -1    0    0  501    0  0.00000000000E+00 -0.00000000000E+00 -0.77114156553E+02  0.77124613716E+02  0.12700000000E+01 0. -1.
    9000005    1    1    2    0    0  0.44339640923E+02 -0.38050229441E+02  0.92433467322E+01  0.59163022037E+02  0.10000000000E+01 0.  0.
    9000005    1    1    2    0    0 -0.44339640923E+02  0.38050229441E+02 -0.35802820742E+02  0.68532223740E+02  0.10000000000E+01 0.  0.
<mgrwt>
<rscale>  0 0.12490264E+03</rscale>
<asrwt>0</asrwt>
<pdfrwt beam="2">  1        4 0.11865748E-01 0.12490264E+03</pdfrwt>
<pdfrwt beam="1">  1       -4 0.77796748E-02 0.12490264E+03</pdfrwt>
<totfact> 0.10416952E+04</totfact>
</mgrwt>
</event>
<event>
 5    1  0.3239419E-002  0.1249964E+03  0.7818608E-02  0.1235075E+00
         -4   -1    0    0    0  501 -0.00000000000E+00  0.00000000000E+00  0.79931034764E+01  0.80933678518E+01  0.12700000000E+01 0. -1.
          4   -1    0    0  501    0  0.00000000000E+00 -0.00000000000E+00 -0.48552730097E+03  0.48552896194E+03  0.12700000000E+01 0. -1.
         25    2    1    2    0    0  0.00000000000E+00  0.00000000000E+00 -0.47753419749E+03  0.49362232979E+03  0.12499637874E+03 0.  0.
    9000005    1    3    3    0    0 -0.53069911307E+02  0.17198030786E+02 -0.34996306336E+03  0.35438303213E+03  0.10000000000E+01 0.  0.
    9000005    1    3    3    0    0  0.53069911307E+02 -0.17198030786E+02 -0.12757113413E+03  0.13923929766E+03  0.10000000000E+01 0.  0.
<mgrwt>
<rscale>  0 0.12499638E+03</rscale>
<asrwt>0</asrwt>
<pdfrwt beam="2">  1        4 0.74704325E-01 0.12499638E+03</pdfrwt>
<pdfrwt beam="1">  1       -4 0.12375490E-02 0.12499638E+03</pdfrwt>
<totfact> 0.56367112E+03</totfact>
</mgrwt>
</event>
<event>
 5    1  0.3239419E-002  0.1250010E+03  0.7818608E-02  0.1235068E+00
         -4   -1    0    0    0  501 -0.00000000000E+00  0.00000000000E+00  0.89119848203E+02  0.89128896794E+02  0.12700000000E+01 0. -1.
          4   -1    0    0  501    0  0.00000000000E+00 -0.00000000000E+00 -0.43811684646E+02  0.43830087970E+02  0.12700000000E+01 0. -1.
         25    2    1    2    0    0  0.00000000000E+00  0.00000000000E+00  0.45308163557E+02  0.13295898476E+03  0.12500104777E+03 0.  0.
    9000005    1    3    3    0    0  0.58619704579E+02  0.88646241789E+01  0.16359251027E+01  0.59317177763E+02  0.10000000000E+01 0.  0.
    9000005    1    3    3    0    0 -0.58619704579E+02 -0.88646241789E+01  0.43672238455E+02  0.73641807002E+02  0.10000000000E+01 0.  0.
<mgrwt>
<rscale>  0 0.12500105E+03</rscale>
<asrwt>0</asrwt>
<pdfrwt beam="2">  1        4 0.67423709E-02 0.12500105E+03</pdfrwt>
<pdfrwt beam="1">  1       -4 0.13712858E-01 0.12500105E+03</pdfrwt>
<totfact> 0.10281029E+04</totfact>
</mgrwt>
</event>
<event>
 5    1  0.3239419E-002  0.1249997E+03  0.7818608E-02  0.1235070E+00
         -4   -1    0    0    0  501 -0.00000000000E+00  0.00000000000E+00  0.80461511423E+02  0.80471533603E+02  0.12700000000E+01 0. -1.
          4   -1    0    0  501    0  0.00000000000E+00 -0.00000000000E+00 -0.48526472405E+02  0.48543088325E+02  0.12700000000E+01 0. -1.
         25    2    1    2    0    0  0.00000000000E+00  0.00000000000E+00  0.31935039018E+02  0.12901462193E+03  0.12499970382E+03 0.  0.
    9000005    1    3    3    0    0  0.11761405553E+02  0.11058302654E+02  0.78277234608E+02  0.79930858723E+02  0.10000000000E+01 0.  0.
    9000005    1    3    3    0    0 -0.11761405553E+02 -0.11058302654E+02 -0.46342195591E+02  0.49083763205E+02  0.10000000000E+01 0.  0.
<mgrwt>
<rscale>  0 0.12499970E+03</rscale>
<asrwt>0</asrwt>
<pdfrwt beam="2">  1        4 0.74676602E-02 0.12499970E+03</pdfrwt>
<pdfrwt beam="1">  1       -4 0.12380743E-01 0.12499970E+03</pdfrwt>
<totfact> 0.10365702E+04</totfact>
</mgrwt>
</event>
<event>
 5    1  0.3239419E-002  0.1250008E+03  0.7818608E-02  0.1235068E+00
          4   -1    0    0  501    0  0.00000000000E+00  0.00000000000E+00  0.14061246731E+03  0.14061820246E+03  0.12700000000E+01 0.  1.
         -4   -1    0    0    0  501 -0.00000000000E+00 -0.00000000000E+00 -0.27759767502E+02  0.27788803352E+02  0.12700000000E+01 0.  1.
         25    2    1    2    0    0  0.00000000000E+00  0.00000000000E+00  0.11285269981E+03  0.16840700581E+03  0.12500075101E+03 0.  0.
    9000005    1    3    3    0    0 -0.62334678751E+02  0.18814361327E+01  0.61839699002E+02  0.87831089881E+02  0.10000000000E+01 0.  0.
    9000005    1    3    3    0    0  0.62334678751E+02 -0.18814361327E+01  0.51013000805E+02  0.80575915931E+02  0.10000000000E+01 0.  0.
<mgrwt>
<rscale>  0 0.12500075E+03</rscale>
<asrwt>0</asrwt>
<pdfrwt beam="1">  1        4 0.21635362E-01 0.12500075E+03</pdfrwt>
<pdfrwt beam="2">  1       -4 0.42734082E-02 0.12500075E+03</pdfrwt>
<totfact> 0.95744407E+03</totfact>
</mgrwt>
</event>
<event>
 5    1  0.3239419E-002  0.1250009E+03  0.7818608E-02  0.1235068E+00
         -4   -1    0    0    0  501 -0.00000000000E+00  0.00000000000E+00  0.12080069892E+02  0.12146645158E+02  0.12700000000E+01 0. -1.
          4   -1    0    0  501    0  0.00000000000E+00 -0.00000000000E+00 -0.32241129608E+03  0.32241379738E+03  0.12700000000E+01 0. -1.
         25    2    1    2    0    0  0.00000000000E+00  0.00000000000E+00 -0.31033122619E+03  0.33456044254E+03  0.12500087905E+03 0.  0.
    9000005    1    3    3    0    0 -0.29996938466E+02  0.53563432019E+02 -0.12390164396E+03  0.13828042140E+03  0.10000000000E+01 0.  0.
    9000005    1    3    3    0    0  0.29996938466E+02 -0.53563432019E+02 -0.18642958224E+03  0.19628002114E+03  0.10000000000E+01 0.  0.
<mgrwt>
<rscale>  0 0.12500088E+03</rscale>
<asrwt>0</asrwt>
<pdfrwt beam="2">  1        4 0.49607045E-01 0.12500088E+03</pdfrwt>
<pdfrwt beam="1">  1       -4 0.18637861E-02 0.12500088E+03</pdfrwt>
<totfact> 0.71455787E+03</totfact>
</mgrwt>
</event>
<event>
 5    1  0.3239419E-002  0.1249801E+03  0.7818608E-02  0.1235100E+00
         -4   -1    0    0    0  501 -0.00000000000E+00  0.00000000000E+00  0.10291687684E+04  0.10291695520E+04  0.12700000000E+01 0. -1.
          4   -1    0    0  501    0  0.00000000000E+00 -0.00000000000E+00 -0.36872522481E+01  0.38998370660E+01  0.12700000000E+01 0. -1.
         25    2    1    2    0    0  0.00000000000E+00  0.00000000000E+00  0.10254815161E+04  0.10330693890E+04  0.12498008898E+03 0.  0.
    9000005    1    3    3    0    0  0.10096947668E+02  0.19081499946E+02  0.28079089238E+02  0.35432855443E+02  0.10000000000E+01 0.  0.
    9000005    1    3    3    0    0 -0.10096947668E+02 -0.19081499946E+02  0.99740242688E+03  0.99763653358E+03  0.10000000000E+01 0.  0.
<mgrwt>
<rscale>  0 0.12498009E+03</rscale>
<asrwt>0</asrwt>
<pdfrwt beam="2">  1        4 0.58368234E-03 0.12498009E+03</pdfrwt>
<pdfrwt beam="1">  1       -4 0.15835012E+00 0.12498009E+03</pdfrwt>
<totfact> 0.29542167E+03</totfact>
</mgrwt>
</event>
<event>
 5    1  0.3239419E-002  0.1250024E+03  0.7818608E-02  0.1235066E+00
          4   -1    0    0  501    0  0.00000000000E+00  0.00000000000E+00  0.21404232980E+03  0.21404609748E+03  0.12700000000E+01 0.  1.
         -4   -1    0    0    0  501 -0.00000000000E+00 -0.00000000000E+00 -0.18224572534E+02  0.18268769637E+02  0.12700000000E+01 0.  1.
         25    2    1    2    0    0  0.00000000000E+00  0.00000000000E+00  0.19581775726E+03  0.23231486712E+03  0.12500241367E+03 0.  0.
    9000005    1    3    3    0    0  0.61799208677E+02  0.65166716406E+01  0.85610318309E+02  0.10579100058E+03  0.10000000000E+01 0.  0.
    9000005    1    3    3    0    0 -0.61799208677E+02 -0.65166716406E+01  0.11020743895E+03  0.12652386654E+03  0.10000000000E+01 0.  0.
<mgrwt>
<rscale>  0 0.12500241E+03</rscale>
<asrwt>0</asrwt>
<pdfrwt beam="1">  1        4 0.32933281E-01 0.12500241E+03</pdfrwt>
<pdfrwt beam="2">  1       -4 0.28074698E-02 0.12500241E+03</pdfrwt>
<totfact> 0.84950833E+03</totfact>
</mgrwt>
</event>
<event>
 5    1  0.3239419E-002  0.1249992E+03  0.7818608E-02  0.1235070E+00
          4   -1    0    0  501    0  0.00000000000E+00  0.00000000000E+00  0.60449727601E+03  0.60449861009E+03  0.12700000000E+01 0. -1.
         -4   -1    0    0    0  501 -0.00000000000E+00 -0.00000000000E+00 -0.63981463768E+01  0.65229730230E+01  0.12700000000E+01 0. -1.
         25    2    1    2    0    0  0.00000000000E+00  0.00000000000E+00  0.59809912963E+03  0.61102158312E+03  0.12499922466E+03 0.  0.
    9000005    1    3    3    0    0 -0.42695114847E+02 -0.16115834691E+02  0.90362304642E+02  0.10123704391E+03  0.10000000000E+01 0.  0.
    9000005    1    3    3    0    0  0.42695114847E+02  0.16115834691E+02  0.50773682499E+03  0.50978453921E+03  0.10000000000E+01 0.  0.
<mgrwt>
<rscale>  0 0.12499922E+03</rscale>
<asrwt>0</asrwt>
<pdfrwt beam="1">  1        4 0.93009311E-01 0.12499922E+03</pdfrwt>
<pdfrwt beam="2">  1       -4 0.99403461E-03 0.12499922E+03</pdfrwt>
<totfact> 0.48180014E+03</totfact>
</mgrwt>
</event>
<event>
 5    1  0.3239419E-002  0.1250012E+03  0.7818608E-02  0.1235067E+00
          4   -1    0    0  501    0  0.00000000000E+00  0.00000000000E+00  0.33839575449E+02  0.33863398627E+02  0.12700000000E+01 0.  1.
         -4   -1    0    0    0  501 -0.00000000000E+00 -0.00000000000E+00 -0.11536872571E+03  0.11537571569E+03  0.12700000000E+01 0.  1.
         25    2    1    2    0    0  0.00000000000E+00  0.00000000000E+00 -0.81529150259E+02  0.14923911432E+03  0.12500124360E+03 0.  0.
    9000005    1    3    3    0    0  0.33586491591E+02 -0.29219490158E+02  0.11597162763E+02  0.46014402165E+02  0.10000000000E+01 0.  0.
    9000005    1    3    3    0    0 -0.33586491591E+02  0.29219490158E+02 -0.93126313022E+02  0.10322471215E+03  0.10000000000E+01 0.  0.
<mgrwt>
<rscale>  0 0.12500124E+03</rscale>
<asrwt>0</asrwt>
<pdfrwt beam="1">  1        4 0.52084588E-02 0.12500124E+03</pdfrwt>
<pdfrwt beam="2">  1       -4 0.17751405E-01 0.12500124E+03</pdfrwt>
<totfact> 0.99452802E+03</totfact>
</mgrwt>
</event>
<event>
 5    1  0.3239419E-002  0.1249974E+03  0.7818608E-02  0.1235073E+00
         -4   -1    0    0    0  501 -0.00000000000E+00  0.00000000000E+00  0.10135406346E+04  0.10135414303E+04  0.12700000000E+01 0.  1.
          4   -1    0    0  501    0  0.00000000000E+00 -0.00000000000E+00 -0.37484594555E+01  0.39577579878E+01  0.12700000000E+01 0.  1.
         25    2    1    2    0    0  0.00000000000E+00  0.00000000000E+00  0.10097921752E+04  0.10174991883E+04  0.12499744451E+03 0.  0.
    9000005    1    3    3    0    0  0.53766313245E+02 -0.29563714562E+02  0.60130136792E+03  0.60442465595E+03  0.10000000000E+01 0.  0.
    9000005    1    3    3    0    0 -0.53766313245E+02  0.29563714562E+02  0.40849080724E+03  0.41307453233E+03  0.10000000000E+01 0.  0.
<mgrwt>
<rscale>  0 0.12499744E+03</rscale>
<asrwt>0</asrwt>
<pdfrwt beam="2">  1        4 0.59284775E-03 0.12499744E+03</pdfrwt>
<pdfrwt beam="1">  1       -4 0.15594533E+00 0.12499744E+03</pdfrwt>
<totfact> 0.30033345E+03</totfact>
</mgrwt>
</event>
<event>
 5    1  0.3239419E-002  0.1250010E+03  0.7818608E-02  0.1235068E+00
         -4   -1    0    0    0  501 -0.00000000000E+00  0.00000000000E+00  0.47818720662E+02  0.47835582423E+02  0.12700000000E+01 0.  1.
          4   -1    0    0  501    0  0.00000000000E+00 -0.00000000000E+00 -0.81653761800E+02  0.81663637661E+02  0.12700000000E+01 0.  1.
         25    2    1    2    0    0  0.00000000000E+00  0.00000000000E+00 -0.33835041138E+02  0.12949922008E+03  0.12500095197E+03 0.  0.
    9000005    1    3    3    0    0  0.83950233481E+01 -0.61923030166E+02 -0.16286149896E+02  0.64584648024E+02  0.10000000000E+01 0.  0.
    9000005    1    3    3    0    0 -0.83950233481E+01  0.61923030166E+02 -0.17548891242E+02  0.64914572060E+02  0.10000000000E+01 0.  0.
<mgrwt>
<rscale>  0 0.12500095E+03</rscale>
<asrwt>0</asrwt>
<pdfrwt beam="2">  1        4 0.12564174E-01 0.12500095E+03</pdfrwt>
<pdfrwt beam="1">  1       -4 0.73587830E-02 0.12500095E+03</pdfrwt>
<totfact> 0.10355009E+04</totfact>
</mgrwt>
</event>
<event>
 5    1  0.3239419E-002  0.1249999E+03  0.7818608E-02  0.1235069E+00
         -4   -1    0    0    0  501 -0.00000000000E+00  0.00000000000E+00  0.31359122833E+03  0.31359379998E+03  0.12700000000E+01 0.  1.
          4   -1    0    0  501    0  0.00000000000E+00 -0.00000000000E+00 -0.12421476026E+02  0.12486231084E+02  0.12700000000E+01 0.  1.
         25    2    1    2    0    0  0.00000000000E+00  0.00000000000E+00  0.30116975230E+03  0.32608003106E+03  0.12499986782E+03 0.  0.
    9000005    1    3    3    0    0  0.43234139566E+01  0.70866728311E+01 -0.10989529327E+02  0.13808786872E+02  0.10000000000E+01 0.  0.
    9000005    1    3    3    0    0 -0.43234139566E+01 -0.70866728311E+01  0.31215928163E+03  0.31227124419E+03  0.10000000000E+01 0.  0.
<mgrwt>
<rscale>  0 0.12499987E+03</rscale>
<asrwt>0</asrwt>
<pdfrwt beam="2">  1        4 0.19161753E-02 0.12499987E+03</pdfrwt>
<pdfrwt beam="1">  1       -4 0.48249984E-01 0.12499987E+03</pdfrwt>
<totfact> 0.72438984E+03</totfact>
</mgrwt>
</event>
<event>
 5    1  0.3239419E-002  0.1249985E+03  0.7818608E-02  0.1235072E+00
          4   -1    0    0  501    0  0.00000000000E+00  0.00000000000E+00  0.15195747442E+02  0.15248725859E+02  0.12700000000E+01 0. -1.
         -4   -1    0    0    0  501 -0.00000000000E+00 -0.00000000000E+00 -0.25655383988E+03  0.25655698325E+03  0.12700000000E+01 0. -1.
         25    2    1    2    0    0  0.00000000000E+00  0.00000000000E+00 -0.24135809244E+03  0.27180570911E+03  0.12499845888E+03 0.  0.
    9000005    1    3    3    0    0 -0.82635742656E+01  0.59769375007E+02 -0.15604273708E+03  0.16730511242E+03  0.10000000000E+01 0.  0.
    9000005    1    3    3    0    0  0.82635742656E+01 -0.59769375007E+02 -0.85315355357E+02  0.10450059669E+03  0.10000000000E+01 0.  0.
<mgrwt>
<rscale>  0 0.12499846E+03</rscale>
<asrwt>0</asrwt>
<pdfrwt beam="1">  1        4 0.23421246E-02 0.12499846E+03</pdfrwt>
<pdfrwt beam="2">  1       -4 0.39474135E-01 0.12499846E+03</pdfrwt>
<totfact> 0.79280025E+03</totfact>
</mgrwt>
</event>
<event>
 5    1  0.3239419E-002  0.1249957E+03  0.7818608E-02  0.1235076E+00
          4   -1    0    0  501    0  0.00000000000E+00  0.00000000000E+00  0.11805785065E+03  0.11806468143E+03  0.12700000000E+01 0. -1.
         -4   -1    0    0    0  501 -0.00000000000E+00 -0.00000000000E+00 -0.33065363099E+02  0.33089743681E+02  0.12700000000E+01 0. -1.
         25    2    1    2    0    0  0.00000000000E+00  0.00000000000E+00  0.84992487556E+02  0.15115442511E+03  0.12499574909E+03 0.  0.
    9000005    1    3    3    0    0 -0.56339281757E+02  0.17485571845E+02  0.67429767193E+02  0.89597061310E+02  0.10000000000E+01 0.  0.
    9000005    1    3    3    0    0  0.56339281757E+02 -0.17485571845E+02  0.17562720363E+02  0.61557363801E+02  0.10000000000E+01 0.  0.
<mgrwt>
<rscale>  0 0.12499575E+03</rscale>
<asrwt>0</asrwt>
<pdfrwt beam="1">  1        4 0.18165147E-01 0.12499575E+03</pdfrwt>
<pdfrwt beam="2">  1       -4 0.50893798E-02 0.12499575E+03</pdfrwt>
<totfact> 0.99083555E+03</totfact>
</mgrwt>
</event>
<event>
 5    1  0.3239419E-002  0.1250010E+03  0.7818608E-02  0.1235068E+00
          4   -1    0    0  501    0  0.00000000000E+00  0.00000000000E+00  0.40006673902E+02  0.40026826713E+02  0.12700000000E+01 0. -1.
         -4   -1    0    0    0  501 -0.00000000000E+00 -0.00000000000E+00 -0.97592679947E+02  0.97600943024E+02  0.12700000000E+01 0. -1.
         25    2    1    2    0    0  0.00000000000E+00  0.00000000000E+00 -0.57586006045E+02  0.13762776974E+03  0.12500101964E+03 0.  0.
    9000005    1    3    3    0    0  0.25008240415E+02 -0.39798116379E+01 -0.91696061962E+02  0.95133688926E+02  0.10000000000E+01 0.  0.
    9000005    1    3    3    0    0 -0.25008240415E+02  0.39798116379E+01  0.34110055917E+02  0.42494080811E+02  0.10000000000E+01 0.  0.
<mgrwt>
<rscale>  0 0.12500102E+03</rscale>
<asrwt>0</asrwt>
<pdfrwt beam="1">  1        4 0.61570588E-02 0.12500102E+03</pdfrwt>
<pdfrwt beam="2">  1       -4 0.15016444E-01 0.12500102E+03</pdfrwt>
<totfact> 0.10182742E+04</totfact>
</mgrwt>
</event>
<event>
 5    1  0.3239419E-002  0.1250001E+03  0.7818608E-02  0.1235069E+00
         -4   -1    0    0    0  501 -0.00000000000E+00  0.00000000000E+00  0.10457506412E+03  0.10458277552E+03  0.12700000000E+01 0.  1.
          4   -1    0    0  501    0  0.00000000000E+00 -0.00000000000E+00 -0.37333752196E+02  0.37355347048E+02  0.12700000000E+01 0.  1.
         25    2    1    2    0    0  0.00000000000E+00  0.00000000000E+00  0.67241311921E+02  0.14193812257E+03  0.12500014643E+03 0.  0.
    9000005    1    3    3    0    0  0.49556824007E+02 -0.21708413304E+02  0.69133523788E+02  0.87792813631E+02  0.10000000000E+01 0.  0.
    9000005    1    3    3    0    0 -0.49556824007E+02  0.21708413304E+02 -0.18922118676E+01  0.54145308935E+02  0.10000000000E+01 0.  0.
<mgrwt>
<rscale>  0 0.12500015E+03</rscale>
<asrwt>0</asrwt>
<pdfrwt beam="2">  1        4 0.57459086E-02 0.12500015E+03</pdfrwt>
<pdfrwt beam="1">  1       -4 0.16090726E-01 0.12500015E+03</pdfrwt>
<totfact> 0.10093541E+04</totfact>
</mgrwt>
</event>
<event>
 5    1  0.3239419E-002  0.1249997E+03  0.7818608E-02  0.1235070E+00
         -4   -1    0    0    0  501 -0.00000000000E+00  0.00000000000E+00  0.24343310242E+02  0.24376415929E+02  0.12700000000E+01 0. -1.
          4   -1    0    0  501    0  0.00000000000E+00 -0.00000000000E+00 -0.16031955146E+03  0.16032458165E+03  0.12700000000E+01 0. -1.
         25    2    1    2    0    0  0.00000000000E+00  0.00000000000E+00 -0.13597624122E+03  0.18470099758E+03  0.12499968132E+03 0.  0.
    9000005    1    3    3    0    0 -0.24038888796E+02  0.22363370565E+02  0.10579173081E+02  0.34509526520E+02  0.10000000000E+01 0.  0.
    9000005    1    3    3    0    0  0.24038888796E+02 -0.22363370565E+02 -0.14655541430E+03  0.15019147106E+03  0.10000000000E+01 0.  0.
<mgrwt>
<rscale>  0 0.12499968E+03</rscale>
<asrwt>0</asrwt>
<pdfrwt beam="2">  1        4 0.24667479E-01 0.12499968E+03</pdfrwt>
<pdfrwt beam="1">  1       -4 0.37480583E-02 0.12499968E+03</pdfrwt>
<totfact> 0.92778250E+03</totfact>
</mgrwt>
</event>
<event>
 5    1  0.3239419E-002  0.1249972E+03  0.7818608E-02  0.1235074E+00
          4   -1    0    0  501    0  0.00000000000E+00  0.00000000000E+00  0.91889824033E+02  0.91898599885E+02  0.12700000000E+01 0. -1.
         -4   -1    0    0    0  501 -0.00000000000E+00 -0.00000000000E+00 -0.42487950905E+02  0.42506927343E+02  0.12700000000E+01 0. -1.
         25    2    1    2    0    0  0.00000000000E+00  0.00000000000E+00  0.49401873127E+02  0.13440552723E+03  0.12499720269E+03 0.  0.
    9000005    1    3    3    0    0 -0.24471563299E+02  0.52510605773E+02 -0.49005531570E+00  0.57943604333E+02  0.10000000000E+01 0.  0.
    9000005    1    3    3    0    0  0.24471563299E+02 -0.52510605773E+02  0.49891928443E+02  0.76461922894E+02  0.10000000000E+01 0.  0.
<mgrwt>
<rscale>  0 0.12499720E+03</rscale>
<asrwt>0</asrwt>
<pdfrwt beam="1">  1        4 0.14139031E-01 0.12499720E+03</pdfrwt>
<pdfrwt beam="2">  1       -4 0.65387427E-02 0.12499720E+03</pdfrwt>
<totfact> 0.10251263E+04</totfact>
</mgrwt>
</event>
<event>
 5    1  0.3239419E-002  0.1250018E+03  0.7818608E-02  0.1235066E+00
         -4   -1    0    0    0  501 -0.00000000000E+00  0.00000000000E+00  0.35091547808E+02  0.35114521605E+02  0.12700000000E+01 0.  1.
          4   -1    0    0  501    0  0.00000000000E+00 -0.00000000000E+00 -0.11125623020E+03  0.11126347855E+03  0.12700000000E+01 0.  1.
         25    2    1    2    0    0  0.00000000000E+00  0.00000000000E+00 -0.76164682396E+02  0.14637800016E+03  0.12500184033E+03 0.  0.
    9000005    1    3    3    0    0 -0.24523410600E+02 -0.29692549935E+02 -0.95715861171E+02  0.10317737770E+03  0.10000000000E+01 0.  0.
    9000005    1    3    3    0    0  0.24523410600E+02  0.29692549935E+02  0.19551178775E+02  0.43200622456E+02  0.10000000000E+01 0.  0.
<mgrwt>
<rscale>  0 0.12500184E+03</rscale>
<asrwt>0</asrwt>
<pdfrwt beam="2">  1        4 0.17118668E-01 0.12500184E+03</pdfrwt>
<pdfrwt beam="1">  1       -4 0.54010245E-02 0.12500184E+03</pdfrwt>
<totfact> 0.10002651E+04</totfact>
</mgrwt>
</event>
<event>
 5    1  0.3239419E-002  0.1250010E+03  0.7818608E-02  0.1235068E+00
         -4   -1    0    0    0  501 -0.00000000000E+00  0.00000000000E+00  0.38940627871E+02  0.38961332100E+02  0.12700000000E+01 0.  1.
          4   -1    0    0  501    0  0.00000000000E+00 -0.00000000000E+00 -0.10026315528E+03  0.10027119830E+03  0.12700000000E+01 0.  1.
         25    2    1    2    0    0  0.00000000000E+00  0.00000000000E+00 -0.61322527413E+02  0.13923253040E+03  0.12500098060E+03 0.  0.
    9000005    1    3    3    0    0 -0.47445390051E+02  0.23007584332E+01 -0.75891765223E+02  0.89537246748E+02  0.10000000000E+01 0.  0.
    9000005    1    3    3    0    0  0.47445390051E+02 -0.23007584332E+01  0.14569237810E+02  0.49695283648E+02  0.10000000000E+01 0.  0.
<mgrwt>
<rscale>  0 0.12500098E+03</rscale>
<asrwt>0</asrwt>
<pdfrwt beam="2">  1        4 0.15427312E-01 0.12500098E+03</pdfrwt>
<pdfrwt beam="1">  1       -4 0.59930772E-02 0.12500098E+03</pdfrwt>
<totfact> 0.10149292E+04</totfact>
</mgrwt>
</event>
<event>
 5    1  0.3239419E-002  0.1249998E+03  0.7818608E-02  0.1235070E+00
         -4   -1    0    0    0  501 -0.00000000000E+00  0.00000000000E+00  0.44132487969E+02  0.44150757573E+02  0.12700000000E+01 0. -1.
          4   -1    0    0  501    0  0.00000000000E+00 -0.00000000000E+00 -0.88470427872E+02  0.88479542878E+02  0.12700000000E+01 0. -1.
         25    2    1    2    0    0  0.00000000000E+00  0.00000000000E+00 -0.44337939904E+02  0.13263030045E+03  0.12499977473E+03 0.  0.
    9000005    1    3    3    0    0  0.36066231616E+02  0.50776526874E+02 -0.16737171607E+02  0.64499315173E+02  0.10000000000E+01 0.  0.
    9000005    1    3    3    0    0 -0.36066231616E+02 -0.50776526874E+02 -0.27600768297E+02  0.68130985278E+02  0.10000000000E+01 0.  0.
<mgrwt>
<rscale>  0 0.12499977E+03</rscale>
<asrwt>0</asrwt>
<pdfrwt beam="2">  1        4 0.13612942E-01 0.12499977E+03</pdfrwt>
<pdfrwt beam="1">  1       -4 0.67917201E-02 0.12499977E+03</pdfrwt>
<totfact> 0.10288316E+04</totfact>
</mgrwt>
</event>
<event>
 5    1  0.3239419E-002  0.1249941E+03  0.7818608E-02  0.1235079E+00
         -4   -1    0    0    0  501 -0.00000000000E+00  0.00000000000E+00  0.26699024843E+02  0.26729212999E+02  0.12700000000E+01 0. -1.
          4   -1    0    0  501    0  0.00000000000E+00 -0.00000000000E+00 -0.14617740290E+03  0.14618291972E+03  0.12700000000E+01 0. -1.
         25    2    1    2    0    0  0.00000000000E+00  0.00000000000E+00 -0.11947837806E+03  0.17291213272E+03  0.12499409114E+03 0.  0.
    9000005    1    3    3    0    0  0.22410671871E+02  0.45262006621E+02 -0.11064228927E+03  0.12162895885E+03  0.10000000000E+01 0.  0.
    9000005    1    3    3    0    0 -0.22410671871E+02 -0.45262006621E+02 -0.88360887897E+01  0.51283173870E+02  0.10000000000E+01 0.  0.
<mgrwt>
<rscale>  0 0.12499409E+03</rscale>
<asrwt>0</asrwt>
<pdfrwt beam="2">  1        4 0.22491577E-01 0.12499409E+03</pdfrwt>
<pdfrwt beam="1">  1       -4 0.41102889E-02 0.12499409E+03</pdfrwt>
<totfact> 0.94921210E+03</totfact>
</mgrwt>
</event>
<event>
 5    1  0.3239419E-002  0.1249991E+03  0.7818608E-02  0.1235071E+00
          4   -1    0    0  501    0  0.00000000000E+00  0.00000000000E+00  0.34176860808E+02  0.34200449042E+02  0.12700000000E+01 0.  1.
         -4   -1    0    0    0  501 -0.00000000000E+00 -0.00000000000E+00 -0.11422702709E+03  0.11423408693E+03  0.12700000000E+01 0.  1.
         25    2    1    2    0    0  0.00000000000E+00  0.00000000000E+00 -0.80050166280E+02  0.14843453597E+03  0.12499912939E+03 0.  0.
    9000005    1    3    3    0    0  0.28132126156E+02 -0.42729997568E+02  0.25909958876E+01  0.51234582793E+02  0.10000000000E+01 0.  0.
    9000005    1    3    3    0    0 -0.28132126156E+02  0.42729997568E+02 -0.82641162167E+02  0.97199953182E+02  0.10000000000E+01 0.  0.
<mgrwt>
<rscale>  0 0.12499913E+03</rscale>
<asrwt>0</asrwt>
<pdfrwt beam="1">  1        4 0.52603362E-02 0.12499913E+03</pdfrwt>
<pdfrwt beam="2">  1       -4 0.17575746E-01 0.12499913E+03</pdfrwt>
<totfact> 0.99618622E+03</totfact>
</mgrwt>
</event>
<event>
 5    1  0.3239419E-002  0.1250051E+03  0.7818608E-02  0.1235061E+00
          4   -1    0    0  501    0  0.00000000000E+00  0.00000000000E+00  0.41109117514E+02  0.41128730138E+02  0.12700000000E+01 0. -1.
         -4   -1    0    0    0  501 -0.00000000000E+00 -0.00000000000E+00 -0.94982737521E+02  0.94991227632E+02  0.12700000000E+01 0. -1.
         25    2    1    2    0    0  0.00000000000E+00  0.00000000000E+00 -0.53873620008E+02  0.13611995777E+03  0.12500510378E+03 0.  0.
    9000005    1    3    3    0    0 -0.14919742304E+02 -0.45152065946E+02 -0.71091767204E+02  0.85535648321E+02  0.10000000000E+01 0.  0.
    9000005    1    3    3    0    0  0.14919742304E+02  0.45152065946E+02  0.17218147196E+02  0.50584309449E+02  0.10000000000E+01 0.  0.
<mgrwt>
<rscale>  0 0.12500510E+03</rscale>
<asrwt>0</asrwt>
<pdfrwt beam="1">  1        4 0.63266414E-02 0.12500510E+03</pdfrwt>
<pdfrwt beam="2">  1       -4 0.14614891E-01 0.12500510E+03</pdfrwt>
<totfact> 0.10213343E+04</totfact>
</mgrwt>
</event>
<event>
 5    1  0.3239419E-002  0.1249992E+03  0.7818608E-02  0.1235071E+00
          4   -1    0    0  501    0  0.00000000000E+00  0.00000000000E+00  0.10508920671E+03  0.10509688039E+03  0.12700000000E+01 0. -1.
         -4   -1    0    0    0  501 -0.00000000000E+00 -0.00000000000E+00 -0.37150435061E+02  0.37172136409E+02  0.12700000000E+01 0. -1.
         25    2    1    2    0    0  0.00000000000E+00  0.00000000000E+00  0.67938771650E+02  0.14226901680E+03  0.12499918578E+03 0.  0.
    9000005    1    3    3    0    0 -0.20868218114E+02 -0.54394477928E+02  0.59696760641E+02  0.83420291221E+02  0.10000000000E+01 0.  0.
    9000005    1    3    3    0    0  0.20868218114E+02  0.54394477928E+02  0.82420110087E+01  0.58848725575E+02  0.10000000000E+01 0.  0.
<mgrwt>
<rscale>  0 0.12499919E+03</rscale>
<asrwt>0</asrwt>
<pdfrwt beam="1">  1        4 0.16169830E-01 0.12499919E+03</pdfrwt>
<pdfrwt beam="2">  1       -4 0.57177113E-02 0.12499919E+03</pdfrwt>
<totfact> 0.10086959E+04</totfact>
</mgrwt>
</event>
<event>
 5    1  0.3239419E-002  0.1249926E+03  0.7818608E-02  0.1235081E+00
         -4   -1    0    0    0  501 -0.00000000000E+00  0.00000000000E+00  0.28818328462E+03  0.28818608300E+03  0.12700000000E+01 0.  1.
          4   -1    0    0  501    0  0.00000000000E+00 -0.00000000000E+00 -0.13520513613E+02  0.13580029026E+02  0.12700000000E+01 0.  1.
         25    2    1    2    0    0  0.00000000000E+00  0.00000000000E+00  0.27466277100E+03  0.30176611202E+03  0.12499259414E+03 0.  0.
    9000005    1    3    3    0    0 -0.35643130362E+02 -0.40090133221E+02  0.59956488888E+02  0.80457641548E+02  0.10000000000E+01 0.  0.
    9000005    1    3    3    0    0  0.35643130362E+02  0.40090133221E+02  0.21470628212E+03  0.22130847047E+03  0.10000000000E+01 0.  0.
<mgrwt>
<rscale>  0 0.12499259E+03</rscale>
<asrwt>0</asrwt>
<pdfrwt beam="2">  1        4 0.20848725E-02 0.12499259E+03</pdfrwt>
<pdfrwt beam="1">  1       -4 0.44340681E-01 0.12499259E+03</pdfrwt>
<totfact> 0.75390226E+03</totfact>
</mgrwt>
</event>
<event>
 5    1  0.3239419E-002  0.1250214E+03  0.7818608E-02  0.1235036E+00
          4   -1    0    0  501    0  0.00000000000E+00  0.00000000000E+00  0.48827299048E+03  0.48827464211E+03  0.12700000000E+01 0.  1.
         -4   -1    0    0    0  501 -0.00000000000E+00 -0.00000000000E+00 -0.79508127198E+01  0.80516037474E+01  0.12700000000E+01 0.  1.
         25    2    1    2    0    0  0.00000000000E+00  0.00000000000E+00  0.48032217776E+03  0.49632624586E+03  0.12502138970E+03 0.  0.
    9000005    1    3    3    0    0  0.43099815177E+02  0.38363244192E+02  0.33554311518E+03  0.34046955035E+03  0.10000000000E+01 0.  0.
    9000005    1    3    3    0    0 -0.43099815177E+02 -0.38363244192E+02  0.14477906258E+03  0.15585669551E+03  0.10000000000E+01 0.  0.
<mgrwt>
<rscale>  0 0.12502139E+03</rscale>
<asrwt>0</asrwt>
<pdfrwt beam="1">  1        4 0.75126814E-01 0.12502139E+03</pdfrwt>
<pdfrwt beam="2">  1       -4 0.12310820E-02 0.12502139E+03</pdfrwt>
<totfact> 0.56124124E+03</totfact>
</mgrwt>
</event>
<event>
 5    1  0.3239419E-002  0.1250006E+03  0.7818608E-02  0.1235068E+00
          4   -1    0    0  501    0  0.00000000000E+00  0.00000000000E+00  0.27446551973E+02  0.27475918824E+02  0.12700000000E+01 0. -1.
         -4   -1    0    0    0  501 -0.00000000000E+00 -0.00000000000E+00 -0.14221522909E+03  0.14222089961E+03  0.12700000000E+01 0. -1.
         25    2    1    2    0    0  0.00000000000E+00  0.00000000000E+00 -0.11476867712E+03  0.16969681843E+03  0.12500064375E+03 0.  0.
    9000005    1    3    3    0    0  0.28518934873E+02 -0.53315253155E+02 -0.35943177311E+02  0.70347408342E+02  0.10000000000E+01 0.  0.
    9000005    1    3    3    0    0 -0.28518934873E+02  0.53315253155E+02 -0.78825499808E+02  0.99349410090E+02  0.10000000000E+01 0.  0.
<mgrwt>
<rscale>  0 0.12500064E+03</rscale>
<asrwt>0</asrwt>
<pdfrwt beam="1">  1        4 0.42252417E-02 0.12500064E+03</pdfrwt>
<pdfrwt beam="2">  1       -4 0.21881961E-01 0.12500064E+03</pdfrwt>
<totfact> 0.95503796E+03</totfact>
</mgrwt>
</event>
<event>
 5    1  0.3239419E-002  0.1249998E+03  0.7818608E-02  0.1235070E+00
         -4   -1    0    0    0  501 -0.00000000000E+00  0.00000000000E+00  0.50347926944E+01  0.51924981922E+01  0.12700000000E+01 0.  1.
          4   -1    0    0  501    0  0.00000000000E+00 -0.00000000000E+00 -0.76372694701E+03  0.76372800295E+03  0.12700000000E+01 0.  1.
         25    2    1    2    0    0  0.00000000000E+00  0.00000000000E+00 -0.75869215431E+03  0.76892050114E+03  0.12499980822E+03 0.  0.
    9000005    1    3    3    0    0 -0.22247923604E+02  0.15109905157E+02 -0.72633799649E+03  0.72683640834E+03  0.10000000000E+01 0.  0.
    9000005    1    3    3    0    0  0.22247923604E+02 -0.15109905157E+02 -0.32354157821E+02  0.42084092801E+02  0.10000000000E+01 0.  0.
<mgrwt>
<rscale>  0 0.12499981E+03</rscale>
<asrwt>0</asrwt>
<pdfrwt beam="2">  1        4 0.11750858E+00 0.12499981E+03</pdfrwt>
<pdfrwt beam="1">  1       -4 0.78679652E-03 0.12499981E+03</pdfrwt>
<totfact> 0.39685292E+03</totfact>
</mgrwt>
</event>
<event>
 5    1  0.3239419E-002  0.1249988E+03  0.7818608E-02  0.1235071E+00
         -4   -1    0    0    0  501 -0.00000000000E+00  0.00000000000E+00  0.44854921659E+02  0.44872897132E+02  0.12700000000E+01 0.  1.
          4   -1    0    0  501    0  0.00000000000E+00 -0.00000000000E+00 -0.87044626612E+02  0.87053890907E+02  0.12700000000E+01 0.  1.
         25    2    1    2    0    0  0.00000000000E+00  0.00000000000E+00 -0.42189704954E+02  0.13192678804E+03  0.12499882479E+03 0.  0.
    9000005    1    3    3    0    0  0.57657129371E+00 -0.35334595935E+02 -0.75490790980E+02  0.83359016472E+02  0.10000000000E+01 0.  0.
    9000005    1    3    3    0    0 -0.57657129371E+00  0.35334595935E+02  0.33301086027E+02  0.48567771566E+02  0.10000000000E+01 0.  0.
<mgrwt>
<rscale>  0 0.12499882E+03</rscale>
<asrwt>0</asrwt>
<pdfrwt beam="2">  1        4 0.13393576E-01 0.12499882E+03</pdfrwt>
<pdfrwt beam="1">  1       -4 0.69028526E-02 0.12499882E+03</pdfrwt>
<totfact> 0.10303534E+04</totfact>
</mgrwt>
</event>
<event>
 5    1  0.3239419E-002  0.1250005E+03  0.7818608E-02  0.1235068E+00
          4   -1    0    0  501    0  0.00000000000E+00  0.00000000000E+00  0.22917289266E+02  0.22952451880E+02  0.12700000000E+01 0.  1.
         -4   -1    0    0    0  501 -0.00000000000E+00 -0.00000000000E+00 -0.17028315223E+03  0.17028788809E+03  0.12700000000E+01 0.  1.
         25    2    1    2    0    0  0.00000000000E+00  0.00000000000E+00 -0.14736586296E+03  0.19324033997E+03  0.12500052571E+03 0.  0.
    9000005    1    3    3    0    0  0.99569091929E+01  0.27516432587E+02 -0.15904479050E+03  0.16171746810E+03  0.10000000000E+01 0.  0.
    9000005    1    3    3    0    0 -0.99569091929E+01 -0.27516432587E+02  0.11678927538E+02  0.31522871878E+02  0.10000000000E+01 0.  0.
<mgrwt>
<rscale>  0 0.12500053E+03</rscale>
<asrwt>0</asrwt>
<pdfrwt beam="1">  1        4 0.35288060E-02 0.12500053E+03</pdfrwt>
<pdfrwt beam="2">  1       -4 0.26200476E-01 0.12500053E+03</pdfrwt>
<totfact> 0.91285469E+03</totfact>
</mgrwt>
</event>
<event>
 5    1  0.3239419E-002  0.1249968E+03  0.7818608E-02  0.1235074E+00
         -4   -1    0    0    0  501 -0.00000000000E+00  0.00000000000E+00  0.96164362212E+03  0.96164446073E+03  0.12700000000E+01 0.  1.
          4   -1    0    0  501    0  0.00000000000E+00 -0.00000000000E+00 -0.39617180859E+01  0.41603016948E+01  0.12700000000E+01 0.  1.
         25    2    1    2    0    0  0.00000000000E+00  0.00000000000E+00  0.95768190403E+03  0.96580476243E+03  0.12499683924E+03 0.  0.
    9000005    1    3    3    0    0 -0.22148972885E+02 -0.55576775884E+02  0.61828419743E+03  0.62117284536E+03  0.10000000000E+01 0.  0.
    9000005    1    3    3    0    0  0.22148972885E+02  0.55576775884E+02  0.33939770660E+03  0.34463191707E+03  0.10000000000E+01 0.  0.
<mgrwt>
<rscale>  0 0.12499684E+03</rscale>
<asrwt>0</asrwt>
<pdfrwt beam="2">  1        4 0.62483526E-03 0.12499684E+03</pdfrwt>
<pdfrwt beam="1">  1       -4 0.14796051E+00 0.12499684E+03</pdfrwt>
<totfact> 0.31763592E+03</totfact>
</mgrwt>
</event>
<event>
 5    1  0.3239419E-002  0.1249966E+03  0.7818608E-02  0.1235075E+00
          4   -1    0    0  501    0  0.00000000000E+00  0.00000000000E+00  0.53775062538E+02  0.53790057175E+02  0.12700000000E+01 0.  1.
         -4   -1    0    0    0  501 -0.00000000000E+00 -0.00000000000E+00 -0.72605920462E+02  0.72617026833E+02  0.12700000000E+01 0.  1.
         25    2    1    2    0    0  0.00000000000E+00  0.00000000000E+00 -0.18830857924E+02  0.12640708401E+03  0.12499659866E+03 0.  0.
    9000005    1    3    3    0    0  0.56736180335E+02  0.25485383077E+02 -0.33025100797E+01  0.62292900739E+02  0.10000000000E+01 0.  0.
    9000005    1    3    3    0    0 -0.56736180335E+02 -0.25485383077E+02 -0.15528347844E+02  0.64114183270E+02  0.10000000000E+01 0.  0.
<mgrwt>
<rscale>  0 0.12499660E+03</rscale>
<asrwt>0</asrwt>
<pdfrwt beam="1">  1        4 0.82750943E-02 0.12499660E+03</pdfrwt>
<pdfrwt beam="2">  1       -4 0.11172149E-01 0.12499660E+03</pdfrwt>
<totfact> 0.10422855E+04</totfact>
</mgrwt>
</event>
<event>
 5    1  0.3239419E-002  0.1249950E+03  0.7818608E-02  0.1235077E+00
          4   -1    0    0  501    0  0.00000000000E+00  0.00000000000E+00  0.21011692920E+02  0.21050038939E+02  0.12700000000E+01 0. -1.
         -4   -1    0    0    0  501 -0.00000000000E+00 -0.00000000000E+00 -0.18568343190E+03  0.18568777499E+03  0.12700000000E+01 0. -1.
         25    2    1    2    0    0  0.00000000000E+00  0.00000000000E+00 -0.16467173898E+03  0.20673781393E+03  0.12499496826E+03 0.  0.
    9000005    1    3    3    0    0 -0.38696596716E+02  0.48048160814E+02 -0.98782940765E+02  0.11646940260E+03  0.10000000000E+01 0.  0.
    9000005    1    3    3    0    0  0.38696596716E+02 -0.48048160814E+02 -0.65888798215E+02  0.90268411336E+02  0.10000000000E+01 0.  0.
<mgrwt>
<rscale>  0 0.12499497E+03</rscale>
<asrwt>0</asrwt>
<pdfrwt beam="1">  1        4 0.32358520E-02 0.12499497E+03</pdfrwt>
<pdfrwt beam="2">  1       -4 0.28569965E-01 0.12499497E+03</pdfrwt>
<totfact> 0.89021442E+03</totfact>
</mgrwt>
</event>
<event>
 5    1  0.3239419E-002  0.1249930E+03  0.7818608E-02  0.1235080E+00
         -4   -1    0    0    0  501 -0.00000000000E+00  0.00000000000E+00  0.23323282199E+02  0.23357833644E+02  0.12700000000E+01 0.  1.
          4   -1    0    0  501    0  0.00000000000E+00 -0.00000000000E+00 -0.16730311800E+03  0.16730793822E+03  0.12700000000E+01 0.  1.
         25    2    1    2    0    0  0.00000000000E+00  0.00000000000E+00 -0.14397983580E+03  0.19066577186E+03  0.12499297358E+03 0.  0.
    9000005    1    3    3    0    0 -0.19156322871E+02 -0.55143377563E+01 -0.16233034757E+03  0.16355278772E+03  0.10000000000E+01 0.  0.
    9000005    1    3    3    0    0  0.19156322871E+02  0.55143377563E+01  0.18350511777E+02  0.27112984146E+02  0.10000000000E+01 0.  0.
<mgrwt>
<rscale>  0 0.12499297E+03</rscale>
<asrwt>0</asrwt>
<pdfrwt beam="2">  1        4 0.25741969E-01 0.12499297E+03</pdfrwt>
<pdfrwt beam="1">  1       -4 0.35912260E-02 0.12499297E+03</pdfrwt>
<totfact> 0.91746040E+03</totfact>
</mgrwt>
</event>
<event>
 5    1  0.3239419E-002  0.1250032E+03  0.7818608E-02  0.1235064E+00
          4   -1    0    0  501    0  0.00000000000E+00  0.00000000000E+00  0.53215652553E+03  0.53215804097E+03  0.12700000000E+01 0. -1.
         -4   -1    0    0    0  501 -0.00000000000E+00 -0.00000000000E+00 -0.72843249648E+01  0.73942065290E+01  0.12700000000E+01 0. -1.
         25    2    1    2    0    0  0.00000000000E+00  0.00000000000E+00  0.52487220057E+03  0.53955224750E+03  0.12500320336E+03 0.  0.
    9000005    1    3    3    0    0 -0.48454959782E+02  0.31929879697E+02  0.36255674278E+03  0.36717270062E+03  0.10000000000E+01 0.  0.
    9000005    1    3    3    0    0  0.48454959782E+02 -0.31929879697E+02  0.16231545779E+03  0.17237954688E+03  0.10000000000E+01 0.  0.
<mgrwt>
<rscale>  0 0.12500320E+03</rscale>
<asrwt>0</asrwt>
<pdfrwt beam="1">  1        4 0.81878801E-01 0.12500320E+03</pdfrwt>
<pdfrwt beam="2">  1       -4 0.11292344E-02 0.12500320E+03</pdfrwt>
<totfact> 0.52917366E+03</totfact>
</mgrwt>
</event>
<event>
 5    1  0.3239419E-002  0.1250008E+03  0.7818608E-02  0.1235068E+00
         -4   -1    0    0    0  501 -0.00000000000E+00  0.00000000000E+00  0.28852466162E+02  0.28880403453E+02  0.12700000000E+01 0. -1.
          4   -1    0    0  501    0  0.00000000000E+00 -0.00000000000E+00 -0.13529224844E+03  0.13529820911E+03  0.12700000000E+01 0. -1.
         25    2    1    2    0    0  0.00000000000E+00  0.00000000000E+00 -0.10643978228E+03  0.16417861257E+03  0.12500075828E+03 0.  0.
    9000005    1    3    3    0    0  0.30762755235E+02  0.34369556021E+01  0.18082507796E+02  0.35862750336E+02  0.10000000000E+01 0.  0.
    9000005    1    3    3    0    0 -0.30762755235E+02 -0.34369556021E+01 -0.12452229008E+03  0.12831586223E+03  0.10000000000E+01 0.  0.
<mgrwt>
<rscale>  0 0.12500076E+03</rscale>
<asrwt>0</asrwt>
<pdfrwt beam="2">  1        4 0.20816799E-01 0.12500076E+03</pdfrwt>
<pdfrwt beam="1">  1       -4 0.44414486E-02 0.12500076E+03</pdfrwt>
<totfact> 0.96541532E+03</totfact>
</mgrwt>
</event>
<event>
 5    1  0.3239419E-002  0.1250007E+03  0.7818608E-02  0.1235068E+00
         -4   -1    0    0    0  501 -0.00000000000E+00  0.00000000000E+00  0.89837730266E+01  0.90730963730E+01  0.12700000000E+01 0. -1.
          4   -1    0    0  501    0  0.00000000000E+00 -0.00000000000E+00 -0.43257555650E+03  0.43257742079E+03  0.12700000000E+01 0. -1.
         25    2    1    2    0    0  0.00000000000E+00  0.00000000000E+00 -0.42359178347E+03  0.44165051716E+03  0.12500072115E+03 0.  0.
    9000005    1    3    3    0    0 -0.62001066507E+02  0.71821863874E+01 -0.20086068935E+03  0.21033718781E+03  0.10000000000E+01 0.  0.
    9000005    1    3    3    0    0  0.62001066507E+02 -0.71821863874E+01 -0.22273109412E+03  0.23131332936E+03  0.10000000000E+01 0.  0.
<mgrwt>
<rscale>  0 0.12500072E+03</rscale>
<asrwt>0</asrwt>
<pdfrwt beam="2">  1        4 0.66557084E-01 0.12500072E+03</pdfrwt>
<pdfrwt beam="1">  1       -4 0.13891337E-02 0.12500072E+03</pdfrwt>
<totfact> 0.60692998E+03</totfact>
</mgrwt>
</event>
<event>
 5    1  0.3239419E-002  0.1249991E+03  0.7818608E-02  0.1235071E+00
         -4   -1    0    0    0  501 -0.00000000000E+00  0.00000000000E+00  0.39290790533E+02  0.39311310340E+02  0.12700000000E+01 0. -1.
          4   -1    0    0  501    0  0.00000000000E+00 -0.00000000000E+00 -0.99367053807E+02  0.99375169344E+02  0.12700000000E+01 0. -1.
         25    2    1    2    0    0  0.00000000000E+00  0.00000000000E+00 -0.60076263274E+02  0.13868647968E+03  0.12499912895E+03 0.  0.
    9000005    1    3    3    0    0  0.49998671498E+02 -0.10556887942E+02  0.98711789722E+01  0.52055309132E+02  0.10000000000E+01 0.  0.
    9000005    1    3    3    0    0 -0.49998671498E+02  0.10556887942E+02 -0.69947442246E+02  0.86631170553E+02  0.10000000000E+01 0.  0.
<mgrwt>
<rscale>  0 0.12499913E+03</rscale>
<asrwt>0</asrwt>
<pdfrwt beam="2">  1        4 0.15289442E-01 0.12499913E+03</pdfrwt>
<pdfrwt beam="1">  1       -4 0.60469398E-02 0.12499913E+03</pdfrwt>
<totfact> 0.10161081E+04</totfact>
</mgrwt>
</event>
<event>
 5    1  0.3239419E-002  0.1249999E+03  0.7818608E-02  0.1235069E+00
         -4   -1    0    0    0  501 -0.00000000000E+00  0.00000000000E+00  0.75973179875E+02  0.75983794063E+02  0.12700000000E+01 0.  1.
          4   -1    0    0  501    0  0.00000000000E+00 -0.00000000000E+00 -0.51394030348E+02  0.51409719464E+02  0.12700000000E+01 0.  1.
         25    2    1    2    0    0  0.00000000000E+00  0.00000000000E+00  0.24579149527E+02  0.12739351353E+03  0.12499989079E+03 0.  0.
    9000005    1    3    3    0    0 -0.46036064577E+02  0.41954407003E+02  0.17461358356E+02  0.64694594399E+02  0.10000000000E+01 0.  0.
    9000005    1    3    3    0    0  0.46036064577E+02 -0.41954407003E+02  0.71177911705E+01  0.62698919129E+02  0.10000000000E+01 0.  0.
<mgrwt>
<rscale>  0 0.12499989E+03</rscale>
<asrwt>0</asrwt>
<pdfrwt beam="2">  1        4 0.79087972E-02 0.12499989E+03</pdfrwt>
<pdfrwt beam="1">  1       -4 0.11690205E-01 0.12499989E+03</pdfrwt>
<totfact> 0.10400633E+04</totfact>
</mgrwt>
</event>
<event>
 5    1  0.3239419E-002  0.1249820E+03  0.7818608E-02  0.1235097E+00
         -4   -1    0    0    0  501 -0.00000000000E+00  0.00000000000E+00  0.16811598510E+03  0.16812078201E+03  0.12700000000E+01 0.  1.
          4   -1    0    0  501    0  0.00000000000E+00 -0.00000000000E+00 -0.23206278235E+02  0.23241003626E+02  0.12700000000E+01 0.  1.
         25    2    1    2    0    0  0.00000000000E+00  0.00000000000E+00  0.14490970686E+03  0.19136178564E+03  0.12498203815E+03 0.  0.
    9000005    1    3    3    0    0 -0.57227924898E+02  0.12669388029E+02  0.39311314686E+02  0.70582775828E+02  0.10000000000E+01 0.  0.
    9000005    1    3    3    0    0  0.57227924898E+02 -0.12669388029E+02  0.10559839217E+03  0.12077900981E+03  0.10000000000E+01 0.  0.
<mgrwt>
<rscale>  0 0.12498204E+03</rscale>
<asrwt>0</asrwt>
<pdfrwt beam="2">  1        4 0.35732370E-02 0.12498204E+03</pdfrwt>
<pdfrwt beam="1">  1       -4 0.25867037E-01 0.12498204E+03</pdfrwt>
<totfact> 0.91647771E+03</totfact>
</mgrwt>
</event>
<event>
 5    1  0.3239419E-002  0.1250093E+03  0.7818608E-02  0.1235055E+00
          4   -1    0    0  501    0  0.00000000000E+00  0.00000000000E+00  0.48872416920E+02  0.48888915264E+02  0.12700000000E+01 0. -1.
         -4   -1    0    0    0  501 -0.00000000000E+00 -0.00000000000E+00 -0.79904417189E+02  0.79914509236E+02  0.12700000000E+01 0. -1.
         25    2    1    2    0    0  0.00000000000E+00  0.00000000000E+00 -0.31032000269E+02  0.12880342450E+03  0.12500934814E+03 0.  0.
    9000005    1    3    3    0    0  0.45490378773E+02 -0.42584900437E+02 -0.10576120369E+02  0.63211570366E+02  0.10000000000E+01 0.  0.
    9000005    1    3    3    0    0 -0.45490378773E+02  0.42584900437E+02 -0.20455879900E+02  0.65591854133E+02  0.10000000000E+01 0.  0.
<mgrwt>
<rscale>  0 0.12500935E+03</rscale>
<asrwt>0</asrwt>
<pdfrwt beam="1">  1        4 0.75208788E-02 0.12500935E+03</pdfrwt>
<pdfrwt beam="2">  1       -4 0.12295033E-01 0.12500935E+03</pdfrwt>
<totfact> 0.10367985E+04</totfact>
</mgrwt>
</event>
<event>
 5    1  0.3239419E-002  0.1250336E+03  0.7818608E-02  0.1235017E+00
         -4   -1    0    0    0  501 -0.00000000000E+00  0.00000000000E+00  0.35144513654E+02  0.35167452851E+02  0.12700000000E+01 0.  1.
          4   -1    0    0  501    0  0.00000000000E+00 -0.00000000000E+00 -0.11114512455E+03  0.11115238014E+03  0.12700000000E+01 0.  1.
         25    2    1    2    0    0  0.00000000000E+00  0.00000000000E+00 -0.76000610892E+02  0.14631983299E+03  0.12503359816E+03 0.  0.
    9000005    1    3    3    0    0  0.38272651341E+02  0.27503166865E+02 -0.86053472171E+02  0.98119417553E+02  0.10000000000E+01 0.  0.
    9000005    1    3    3    0    0 -0.38272651341E+02 -0.27503166865E+02  0.10052861279E+02  0.48200415436E+02  0.10000000000E+01 0.  0.
<mgrwt>
<rscale>  0 0.12503360E+03</rscale>
<asrwt>0</asrwt>
<pdfrwt beam="2">  1        4 0.17101572E-01 0.12503360E+03</pdfrwt>
<pdfrwt beam="1">  1       -4 0.54091710E-02 0.12503360E+03</pdfrwt>
<totfact> 0.99966771E+03</totfact>
</mgrwt>
</event>
<event>
 5    1  0.3239419E-002  0.1250012E+03  0.7818608E-02  0.1235067E+00
         -4   -1    0    0    0  501 -0.00000000000E+00  0.00000000000E+00  0.82493492788E+03  0.82493590547E+03  0.12700000000E+01 0.  1.
          4   -1    0    0  501    0  0.00000000000E+00 -0.00000000000E+00 -0.46491611206E+01  0.48195019582E+01  0.12700000000E+01 0.  1.
         25    2    1    2    0    0  0.00000000000E+00  0.00000000000E+00  0.82028576676E+03  0.82975540743E+03  0.12500118804E+03 0.  0.
    9000005    1    3    3    0    0  0.24938656231E+02 -0.48867500651E+02  0.60876773987E+03  0.61123574037E+03  0.10000000000E+01 0.  0.
    9000005    1    3    3    0    0 -0.24938656231E+02  0.48867500651E+02  0.21151802689E+03  0.21851966706E+03  0.10000000000E+01 0.  0.
<mgrwt>
<rscale>  0 0.12500119E+03</rscale>
<asrwt>0</asrwt>
<pdfrwt beam="2">  1        4 0.72843489E-03 0.12500119E+03</pdfrwt>
<pdfrwt beam="1">  1       -4 0.12692607E+00 0.12500119E+03</pdfrwt>
<totfact> 0.36969453E+03</totfact>
</mgrwt>
</event>
<event>
 5    1  0.3239419E-002  0.1249927E+03  0.7818608E-02  0.1235081E+00
          4   -1    0    0  501    0  0.00000000000E+00  0.00000000000E+00  0.15334590142E+02  0.15387090525E+02  0.12700000000E+01 0.  1.
         -4   -1    0    0    0  501 -0.00000000000E+00 -0.00000000000E+00 -0.25421559814E+03  0.25421877043E+03  0.12700000000E+01 0.  1.
         25    2    1    2    0    0  0.00000000000E+00  0.00000000000E+00 -0.23888100800E+03  0.26960586095E+03  0.12499273690E+03 0.  0.
    9000005    1    3    3    0    0 -0.43136741619E+02 -0.17082612849E+02 -0.29151132775E+02  0.54803126565E+02  0.10000000000E+01 0.  0.
    9000005    1    3    3    0    0  0.43136741619E+02  0.17082612849E+02 -0.20972987522E+03  0.21480273439E+03  0.10000000000E+01 0.  0.
<mgrwt>
<rscale>  0 0.12499274E+03</rscale>
<asrwt>0</asrwt>
<pdfrwt beam="1">  1        4 0.23634504E-02 0.12499274E+03</pdfrwt>
<pdfrwt beam="2">  1       -4 0.39114371E-01 0.12499274E+03</pdfrwt>
<totfact> 0.79589492E+03</totfact>
</mgrwt>
</event>
<event>
 5    1  0.3239419E-002  0.1250001E+03  0.7818608E-02  0.1235069E+00
          4   -1    0    0  501    0  0.00000000000E+00  0.00000000000E+00  0.16133923817E+02  0.16183831368E+02  0.12700000000E+01 0. -1.
         -4   -1    0    0    0  501 -0.00000000000E+00 -0.00000000000E+00 -0.24168880586E+03  0.24169214257E+03  0.12700000000E+01 0. -1.
         25    2    1    2    0    0  0.00000000000E+00  0.00000000000E+00 -0.22555488205E+03  0.25787597394E+03  0.12500005248E+03 0.  0.
    9000005    1    3    3    0    0  0.21888850051E+02 -0.58532524036E+02 -0.11334299527E+03  0.12943265702E+03  0.10000000000E+01 0.  0.
    9000005    1    3    3    0    0 -0.21888850051E+02  0.58532524036E+02 -0.11221188677E+03  0.12844331691E+03  0.10000000000E+01 0.  0.
<mgrwt>
<rscale>  0 0.12500005E+03</rscale>
<asrwt>0</asrwt>
<pdfrwt beam="1">  1        4 0.24862380E-02 0.12500005E+03</pdfrwt>
<pdfrwt beam="2">  1       -4 0.37186986E-01 0.12500005E+03</pdfrwt>
<totfact> 0.81204971E+03</totfact>
</mgrwt>
</event>
<event>
 5    1  0.3239419E-002  0.1250040E+03  0.7818608E-02  0.1235063E+00
          4   -1    0    0  501    0  0.00000000000E+00  0.00000000000E+00  0.18703167570E+03  0.18703598748E+03  0.12700000000E+01 0.  1.
         -4   -1    0    0    0  501 -0.00000000000E+00 -0.00000000000E+00 -0.20862974038E+02  0.20901592899E+02  0.12700000000E+01 0.  1.
         25    2    1    2    0    0  0.00000000000E+00  0.00000000000E+00  0.16616870166E+03  0.20793758038E+03  0.12500399963E+03 0.  0.
    9000005    1    3    3    0    0  0.28614056605E+02  0.87043654260E+00 -0.93227821463E+01  0.30123681085E+02  0.10000000000E+01 0.  0.
    9000005    1    3    3    0    0 -0.28614056605E+02 -0.87043654260E+00  0.17549148380E+03  0.17781389930E+03  0.10000000000E+01 0.  0.
<mgrwt>
<rscale>  0 0.12500400E+03</rscale>
<asrwt>0</asrwt>
<pdfrwt beam="1">  1        4 0.28777406E-01 0.12500400E+03</pdfrwt>
<pdfrwt beam="2">  1       -4 0.32129907E-02 0.12500400E+03</pdfrwt>
<totfact> 0.88805870E+03</totfact>
</mgrwt>
</event>
<event>
 5    1  0.3239419E-002  0.1250029E+03  0.7818608E-02  0.1235065E+00
          4   -1    0    0  501    0  0.00000000000E+00  0.00000000000E+00  0.41717411321E+01  0.43607710411E+01  0.12700000000E+01 0. -1.
         -4   -1    0    0    0  501 -0.00000000000E+00 -0.00000000000E+00 -0.91546856507E+03  0.91546944599E+03  0.12700000000E+01 0. -1.
         25    2    1    2    0    0  0.00000000000E+00  0.00000000000E+00 -0.91129682394E+03  0.91983021703E+03  0.12500290730E+03 0.  0.
    9000005    1    3    3    0    0 -0.11261600275E+02 -0.57417685171E+02 -0.61716935525E+03  0.61993759950E+03  0.10000000000E+01 0.  0.
    9000005    1    3    3    0    0  0.11261600275E+02  0.57417685171E+02 -0.29412746869E+03  0.29989261753E+03  0.10000000000E+01 0.  0.
<mgrwt>
<rscale>  0 0.12500291E+03</rscale>
<asrwt>0</asrwt>
<pdfrwt beam="1">  1        4 0.65641558E-03 0.12500291E+03</pdfrwt>
<pdfrwt beam="2">  1       -4 0.14085577E+00 0.12500291E+03</pdfrwt>
<totfact> 0.33409803E+03</totfact>
</mgrwt>
</event>
<event>
 5    1  0.3239419E-002  0.1250057E+03  0.7818608E-02  0.1235060E+00
          4   -1    0    0  501    0  0.00000000000E+00  0.00000000000E+00  0.58284441482E+02  0.58298276294E+02  0.12700000000E+01 0. -1.
         -4   -1    0    0    0  501 -0.00000000000E+00 -0.00000000000E+00 -0.66998801834E+02  0.67010837536E+02  0.12700000000E+01 0. -1.
         25    2    1    2    0    0  0.00000000000E+00  0.00000000000E+00 -0.87143603525E+01  0.12530911383E+03  0.12500573560E+03 0.  0.
    9000005    1    3    3    0    0 -0.11537700515E+01 -0.36238281044E+02  0.46668853658E+02  0.59106058066E+02  0.10000000000E+01 0.  0.
    9000005    1    3    3    0    0  0.11537700515E+01  0.36238281044E+02 -0.55383214010E+02  0.66203055764E+02  0.10000000000E+01 0.  0.
<mgrwt>
<rscale>  0 0.12500574E+03</rscale>
<asrwt>0</asrwt>
<pdfrwt beam="1">  1        4 0.89688271E-02 0.12500574E+03</pdfrwt>
<pdfrwt beam="2">  1       -4 0.10309498E-01 0.12500574E+03</pdfrwt>
<totfact> 0.10444798E+04</totfact>
</mgrwt>
</event>
<event>
 5    1  0.3239419E-002  0.1249995E+03  0.7818608E-02  0.1235070E+00
         -4   -1    0    0    0  501 -0.00000000000E+00  0.00000000000E+00  0.10077881777E+03  0.10078681963E+03  0.12700000000E+01 0. -1.
          4   -1    0    0  501    0  0.00000000000E+00 -0.00000000000E+00 -0.38740343248E+02  0.38761154458E+02  0.12700000000E+01 0. -1.
         25    2    1    2    0    0  0.00000000000E+00  0.00000000000E+00  0.62038474526E+02  0.13954797409E+03  0.12499945901E+03 0.  0.
    9000005    1    3    3    0    0 -0.41785800168E+02  0.46392776328E+02  0.28092382896E+02  0.68472803125E+02  0.10000000000E+01 0.  0.
    9000005    1    3    3    0    0  0.41785800168E+02 -0.46392776328E+02  0.33946091630E+02  0.71075170967E+02  0.10000000000E+01 0.  0.
<mgrwt>
<rscale>  0 0.12499946E+03</rscale>
<asrwt>0</asrwt>
<pdfrwt beam="2">  1        4 0.59622693E-02 0.12499946E+03</pdfrwt>
<pdfrwt beam="1">  1       -4 0.15506650E-01 0.12499946E+03</pdfrwt>
<totfact> 0.10143086E+04</totfact>
</mgrwt>
</event>
<event>
 5    1  0.3239419E-002  0.1249963E+03  0.7818608E-02  0.1235075E+00
          4   -1    0    0  501    0  0.00000000000E+00  0.00000000000E+00  0.16429034178E+03  0.16429525040E+03  0.12700000000E+01 0.  1.
         -4   -1    0    0    0  501 -0.00000000000E+00 -0.00000000000E+00 -0.23752885389E+02  0.23786812823E+02  0.12700000000E+01 0.  1.
         25    2    1    2    0    0  0.00000000000E+00  0.00000000000E+00  0.14053745639E+03  0.18808206322E+03  0.12499634337E+03 0.  0.
    9000005    1    3    3    0    0  0.49113516047E+02  0.19357060111E+02  0.19952563497E+02  0.56444114173E+02  0.10000000000E+01 0.  0.
    9000005    1    3    3    0    0 -0.49113516047E+02 -0.19357060111E+02  0.12058489289E+03  0.13163794905E+03  0.10000000000E+01 0.  0.
<mgrwt>
<rscale>  0 0.12499634E+03</rscale>
<asrwt>0</asrwt>
<pdfrwt beam="1">  1        4 0.25278423E-01 0.12499634E+03</pdfrwt>
<pdfrwt beam="2">  1       -4 0.36572777E-02 0.12499634E+03</pdfrwt>
<totfact> 0.92189658E+03</totfact>
</mgrwt>
</event>
<event>
 5    1  0.3239419E-002  0.1250009E+03  0.7818608E-02  0.1235068E+00
         -4   -1    0    0    0  501 -0.00000000000E+00  0.00000000000E+00  0.72697899172E+03  0.72698010103E+03  0.12700000000E+01 0.  1.
          4   -1    0    0  501    0  0.00000000000E+00 -0.00000000000E+00 -0.52971685174E+01  0.54472832037E+01  0.12700000000E+01 0.  1.
         25    2    1    2    0    0  0.00000000000E+00  0.00000000000E+00  0.72168182320E+03  0.73242738424E+03  0.12500087697E+03 0.  0.
    9000005    1    3    3    0    0 -0.50091753798E+02 -0.36936939184E+02  0.39387426159E+03  0.39876240447E+03  0.10000000000E+01 0.  0.
    9000005    1    3    3    0    0  0.50091753798E+02  0.36936939184E+02  0.32780756161E+03  0.33366497977E+03  0.10000000000E+01 0.  0.
<mgrwt>
<rscale>  0 0.12500088E+03</rscale>
<asrwt>0</asrwt>
<pdfrwt beam="2">  1        4 0.82658131E-03 0.12500088E+03</pdfrwt>
<pdfrwt beam="1">  1       -4 0.11185460E+00 0.12500088E+03</pdfrwt>
<totfact> 0.41428260E+03</totfact>
</mgrwt>
</event>
<event>
 5    1  0.3239419E-002  0.1249981E+03  0.7818608E-02  0.1235072E+00
          4   -1    0    0  501    0  0.00000000000E+00  0.00000000000E+00  0.30631258438E+03  0.30631521714E+03  0.12700000000E+01 0. -1.
         -4   -1    0    0    0  501 -0.00000000000E+00 -0.00000000000E+00 -0.12717796308E+02  0.12781050150E+02  0.12700000000E+01 0. -1.
         25    2    1    2    0    0  0.00000000000E+00  0.00000000000E+00  0.29359478808E+03  0.31909626729E+03  0.12499811284E+03 0.  0.
    9000005    1    3    3    0    0  0.42068838352E+02 -0.28915556096E+02  0.54781635964E+02  0.74886074697E+02  0.10000000000E+01 0.  0.
    9000005    1    3    3    0    0 -0.42068838352E+02  0.28915556096E+02  0.23881315211E+03  0.24421019259E+03  0.10000000000E+01 0.  0.
<mgrwt>
<rscale>  0 0.12499811E+03</rscale>
<asrwt>0</asrwt>
<pdfrwt beam="1">  1        4 0.47130080E-01 0.12499811E+03</pdfrwt>
<pdfrwt beam="2">  1       -4 0.19616523E-02 0.12499811E+03</pdfrwt>
<totfact> 0.73266805E+03</totfact>
</mgrwt>
</event>
<event>
 5    1  0.3239419E-002  0.1250095E+03  0.7818608E-02  0.1235055E+00
          4   -1    0    0  501    0  0.00000000000E+00  0.00000000000E+00  0.66171708340E+01  0.67379410688E+01  0.12700000000E+01 0.  1.
         -4   -1    0    0    0  501 -0.00000000000E+00 -0.00000000000E+00 -0.58494903865E+03  0.58495041731E+03  0.12700000000E+01 0.  1.
         25    2    1    2    0    0  0.00000000000E+00  0.00000000000E+00 -0.57833186781E+03  0.59168835838E+03  0.12500945611E+03 0.  0.
    9000005    1    3    3    0    0 -0.62316931416E+02  0.45642398536E+01 -0.29516939244E+03  0.30171211852E+03  0.10000000000E+01 0.  0.
    9000005    1    3    3    0    0  0.62316931416E+02 -0.45642398536E+01 -0.28316247537E+03  0.28997623987E+03  0.10000000000E+01 0.  0.
<mgrwt>
<rscale>  0 0.12500946E+03</rscale>
<asrwt>0</asrwt>
<pdfrwt beam="1">  1        4 0.10274228E-02 0.12500946E+03</pdfrwt>
<pdfrwt beam="2">  1       -4 0.90001515E-01 0.12500946E+03</pdfrwt>
<totfact> 0.49386277E+03</totfact>
</mgrwt>
</event>
<event>
 5    1  0.3239419E-002  0.1249996E+03  0.7818608E-02  0.1235070E+00
          4   -1    0    0  501    0  0.00000000000E+00  0.00000000000E+00  0.47125228958E+02  0.47142338766E+02  0.12700000000E+01 0.  1.
         -4   -1    0    0    0  501 -0.00000000000E+00 -0.00000000000E+00 -0.82853352826E+02  0.82863085717E+02  0.12700000000E+01 0.  1.
         25    2    1    2    0    0  0.00000000000E+00  0.00000000000E+00 -0.35728123868E+02  0.13000542448E+03  0.12499964624E+03 0.  0.
    9000005    1    3    3    0    0  0.53412427339E+02  0.29447571378E+01  0.15735534498E+02  0.55768862592E+02  0.10000000000E+01 0.  0.
    9000005    1    3    3    0    0 -0.53412427339E+02 -0.29447571378E+01 -0.51463658366E+02  0.74236561890E+02  0.10000000000E+01 0.  0.
<mgrwt>
<rscale>  0 0.12499965E+03</rscale>
<asrwt>0</asrwt>
<pdfrwt beam="1">  1        4 0.72521000E-02 0.12499965E+03</pdfrwt>
<pdfrwt beam="2">  1       -4 0.12748735E-01 0.12499965E+03</pdfrwt>
<totfact> 0.10344474E+04</totfact>
</mgrwt>
</event>
<event>
 5    1  0.3239419E-002  0.1249943E+03  0.7818608E-02  0.1235078E+00
          4   -1    0    0  501    0  0.00000000000E+00  0.00000000000E+00  0.28567024074E+02  0.28595240241E+02  0.12700000000E+01 0. -1.
         -4   -1    0    0    0  501 -0.00000000000E+00 -0.00000000000E+00 -0.13662876567E+03  0.13663466803E+03  0.12700000000E+01 0. -1.
         25    2    1    2    0    0  0.00000000000E+00  0.00000000000E+00 -0.10806174159E+03  0.16522990827E+03  0.12499433024E+03 0.  0.
    9000005    1    3    3    0    0  0.46071545211E+02  0.42211774348E+02 -0.53120317159E+02  0.82019444443E+02  0.10000000000E+01 0.  0.
    9000005    1    3    3    0    0 -0.46071545211E+02 -0.42211774348E+02 -0.54941424434E+02  0.83210463829E+02  0.10000000000E+01 0.  0.
<mgrwt>
<rscale>  0 0.12499433E+03</rscale>
<asrwt>0</asrwt>
<pdfrwt beam="1">  1        4 0.43975514E-02 0.12499433E+03</pdfrwt>
<pdfrwt beam="2">  1       -4 0.21022434E-01 0.12499433E+03</pdfrwt>
<totfact> 0.96356141E+03</totfact>
</mgrwt>
</event>
<event>
 5    1  0.3239419E-002  0.1249995E+03  0.7818608E-02  0.1235070E+00
         -4   -1    0    0    0  501 -0.00000000000E+00  0.00000000000E+00  0.99735285462E+01  0.10054062446E+02  0.12700000000E+01 0. -1.
          4   -1    0    0  501    0  0.00000000000E+00 -0.00000000000E+00 -0.39000216930E+03  0.39000423710E+03  0.12700000000E+01 0. -1.
         25    2    1    2    0    0  0.00000000000E+00  0.00000000000E+00 -0.38002864075E+03  0.40005829955E+03  0.12499950098E+03 0.  0.
    9000005    1    3    3    0    0 -0.33434940747E+02 -0.43428920096E+02 -0.93933161188E+02  0.10875847155E+03  0.10000000000E+01 0.  0.
    9000005    1    3    3    0    0  0.33434940747E+02  0.43428920096E+02 -0.28609547956E+03  0.29129982800E+03  0.10000000000E+01 0.  0.
<mgrwt>
<rscale>  0 0.12499950E+03</rscale>
<asrwt>0</asrwt>
<pdfrwt beam="2">  1        4 0.60006676E-01 0.12499950E+03</pdfrwt>
<pdfrwt beam="1">  1       -4 0.15407433E-02 0.12499950E+03</pdfrwt>
<totfact> 0.64547836E+03</totfact>
</mgrwt>
</event>
<event>
 5    1  0.3239419E-002  0.1249879E+03  0.7818608E-02  0.1235088E+00
          4   -1    0    0  501    0  0.00000000000E+00  0.00000000000E+00  0.32558859558E+02  0.32583619131E+02  0.12700000000E+01 0.  1.
         -4   -1    0    0    0  501 -0.00000000000E+00 -0.00000000000E+00 -0.11987815073E+03  0.11988487779E+03  0.12700000000E+01 0.  1.
         25    2    1    2    0    0  0.00000000000E+00  0.00000000000E+00 -0.87319291175E+02  0.15246849692E+03  0.12498793519E+03 0.  0.
    9000005    1    3    3    0    0  0.47528854346E+02  0.26554932306E+02 -0.81066774739E+02  0.97657454358E+02  0.10000000000E+01 0.  0.
    9000005    1    3    3    0    0 -0.47528854346E+02 -0.26554932306E+02 -0.62525164362E+01  0.54811042564E+02  0.10000000000E+01 0.  0.
<mgrwt>
<rscale>  0 0.12498794E+03</rscale>
<asrwt>0</asrwt>
<pdfrwt beam="1">  1        4 0.50114774E-02 0.12498794E+03</pdfrwt>
<pdfrwt beam="2">  1       -4 0.18445214E-01 0.12498794E+03</pdfrwt>
<totfact> 0.98840725E+03</totfact>
</mgrwt>
</event>
<event>
 5    1  0.3239419E-002  0.1249984E+03  0.7818608E-02  0.1235072E+00
          4   -1    0    0  501    0  0.00000000000E+00  0.00000000000E+00  0.47891165653E+01  0.49546480679E+01  0.12700000000E+01 0.  1.
         -4   -1    0    0    0  501 -0.00000000000E+00 -0.00000000000E+00 -0.80160876489E+03  0.80160977093E+03  0.12700000000E+01 0.  1.
         25    2    1    2    0    0  0.00000000000E+00  0.00000000000E+00 -0.79681964833E+03  0.80656441900E+03  0.12499844013E+03 0.  0.
    9000005    1    3    3    0    0 -0.50119152441E+02 -0.13263214983E+02 -0.17327893023E+03  0.18087130777E+03  0.10000000000E+01 0.  0.
    9000005    1    3    3    0    0  0.50119152441E+02  0.13263214983E+02 -0.62354071810E+03  0.62569311123E+03  0.10000000000E+01 0.  0.
<mgrwt>
<rscale>  0 0.12499844E+03</rscale>
<asrwt>0</asrwt>
<pdfrwt beam="1">  1        4 0.74959838E-03 0.12499844E+03</pdfrwt>
<pdfrwt beam="2">  1       -4 0.12333713E+00 0.12499844E+03</pdfrwt>
<totfact> 0.37974670E+03</totfact>
</mgrwt>
</event>
<event>
 5    1  0.3239419E-002  0.1249960E+03  0.7818608E-02  0.1235076E+00
          4   -1    0    0  501    0  0.00000000000E+00  0.00000000000E+00  0.10356766650E+03  0.10357545290E+03  0.12700000000E+01 0. -1.
         -4   -1    0    0    0  501 -0.00000000000E+00 -0.00000000000E+00 -0.37694550770E+02  0.37715939041E+02  0.12700000000E+01 0. -1.
         25    2    1    2    0    0  0.00000000000E+00  0.00000000000E+00  0.65873115728E+02  0.14129139194E+03  0.12499596018E+03 0.  0.
    9000005    1    3    3    0    0  0.44098269833E+02  0.25114725427E+02  0.74153778941E+02  0.89862059662E+02  0.10000000000E+01 0.  0.
    9000005    1    3    3    0    0 -0.44098269833E+02 -0.25114725427E+02 -0.82806632131E+01  0.51429332280E+02  0.10000000000E+01 0.  0.
<mgrwt>
<rscale>  0 0.12499596E+03</rscale>
<asrwt>0</asrwt>
<pdfrwt beam="1">  1        4 0.15935731E-01 0.12499596E+03</pdfrwt>
<pdfrwt beam="2">  1       -4 0.58014060E-02 0.12499596E+03</pdfrwt>
<totfact> 0.10107811E+04</totfact>
</mgrwt>
</event>
<event>
 5    1  0.3239419E-002  0.1249992E+03  0.7818608E-02  0.1235071E+00
         -4   -1    0    0    0  501 -0.00000000000E+00  0.00000000000E+00  0.64022123417E+02  0.64034718605E+02  0.12700000000E+01 0.  1.
          4   -1    0    0  501    0  0.00000000000E+00 -0.00000000000E+00 -0.60988041639E+02  0.61001263290E+02  0.12700000000E+01 0.  1.
         25    2    1    2    0    0  0.00000000000E+00  0.00000000000E+00  0.30340817782E+01  0.12503598190E+03  0.12499916446E+03 0.  0.
    9000005    1    3    3    0    0  0.19751231523E+02 -0.15519650415E+02 -0.55720675335E+02  0.61129079458E+02  0.10000000000E+01 0.  0.
    9000005    1    3    3    0    0 -0.19751231523E+02  0.15519650415E+02  0.58754757113E+02  0.63906902437E+02  0.10000000000E+01 0.  0.
<mgrwt>
<rscale>  0 0.12499916E+03</rscale>
<asrwt>0</asrwt>
<pdfrwt beam="2">  1        4 0.93847616E-02 0.12499916E+03</pdfrwt>
<pdfrwt beam="1">  1       -4 0.98515433E-02 0.12499916E+03</pdfrwt>
<totfact> 0.10452278E+04</totfact>
</mgrwt>
</event>
<event>
 5    1  0.3239419E-002  0.1249748E+03  0.7818608E-02  0.1235109E+00
         -4   -1    0    0    0  501 -0.00000000000E+00  0.00000000000E+00  0.11251787296E+02  0.11323233520E+02  0.12700000000E+01 0.  1.
          4   -1    0    0  501    0  0.00000000000E+00 -0.00000000000E+00 -0.34585633676E+03  0.34585866850E+03  0.12700000000E+01 0.  1.
         25    2    1    2    0    0  0.00000000000E+00  0.00000000000E+00 -0.33460454946E+03  0.35718190202E+03  0.12497482390E+03 0.  0.
    9000005    1    3    3    0    0 -0.48990119714E+02 -0.25202766773E+02 -0.83076858703E+02  0.99689396300E+02  0.10000000000E+01 0.  0.
    9000005    1    3    3    0    0  0.48990119714E+02  0.25202766773E+02 -0.25152769076E+03  0.25749250572E+03  0.10000000000E+01 0.  0.
<mgrwt>
<rscale>  0 0.12497482E+03</rscale>
<asrwt>0</asrwt>
<pdfrwt beam="2">  1        4 0.53214334E-01 0.12497482E+03</pdfrwt>
<pdfrwt beam="1">  1       -4 0.17367197E-02 0.12497482E+03</pdfrwt>
<totfact> 0.68980034E+03</totfact>
</mgrwt>
</event>
<event>
 4    1  0.3239419E-002  0.1249078E+03  0.7818608E-02  0.1235213E+00
          4   -1    0    0  501    0  0.00000000000E+00  0.00000000000E+00  0.20348116568E+03  0.20348512891E+03  0.12700000000E+01 0. -1.
         -4   -1    0    0    0  501 -0.00000000000E+00 -0.00000000000E+00 -0.19143611533E+02  0.19185691609E+02  0.12700000000E+01 0. -1.
    9000005    1    1    2    0    0 -0.58685424758E+02 -0.97109307425E+01  0.58288034714E+02  0.83287311433E+02  0.10000000000E+01 0.  0.
    9000005    1    1    2    0    0  0.58685424758E+02  0.97109307425E+01  0.12604951943E+03  0.13938350908E+03  0.10000000000E+01 0.  0.
<mgrwt>
<rscale>  0 0.12490781E+03</rscale>
<asrwt>0</asrwt>
<pdfrwt beam="1">  1        4 0.31308336E-01 0.12490781E+03</pdfrwt>
<pdfrwt beam="2">  1       -4 0.29487128E-02 0.12490781E+03</pdfrwt>
<totfact> 0.86625701E+03</totfact>
</mgrwt>
</event>
<event>
 5    1  0.3239419E-002  0.1250093E+03  0.7818608E-02  0.1235055E+00
         -4   -1    0    0    0  501 -0.00000000000E+00  0.00000000000E+00  0.19192168878E+03  0.19192589071E+03  0.12700000000E+01 0.  1.
          4   -1    0    0  501    0  0.00000000000E+00 -0.00000000000E+00 -0.20332140562E+02  0.20371765752E+02  0.12700000000E+01 0.  1.
         25    2    1    2    0    0  0.00000000000E+00  0.00000000000E+00  0.17158954822E+03  0.21229765646E+03  0.12500928718E+03 0.  0.
    9000005    1    3    3    0    0  0.16565910685E+02 -0.34407401470E+02  0.16981175912E+03  0.17405554346E+03  0.10000000000E+01 0.  0.
    9000005    1    3    3    0    0 -0.16565910685E+02  0.34407401470E+02  0.17777890958E+01  0.38242113001E+02  0.10000000000E+01 0.  0.
<mgrwt>
<rscale>  0 0.12500929E+03</rscale>
<asrwt>0</asrwt>
<pdfrwt beam="2">  1        4 0.31313929E-02 0.12500929E+03</pdfrwt>
<pdfrwt beam="1">  1       -4 0.29529786E-01 0.12500929E+03</pdfrwt>
<totfact> 0.88083725E+03</totfact>
</mgrwt>
</event>
<event>
 5    1  0.3239419E-002  0.1250026E+03  0.7818608E-02  0.1235065E+00
          4   -1    0    0  501    0  0.00000000000E+00  0.00000000000E+00  0.76434955528E+01  0.77482852468E+01  0.12700000000E+01 0. -1.
         -4   -1    0    0    0  501 -0.00000000000E+00 -0.00000000000E+00 -0.50749158223E+03  0.50749317132E+03  0.12700000000E+01 0. -1.
         25    2    1    2    0    0  0.00000000000E+00  0.00000000000E+00 -0.49984808668E+03  0.51524145656E+03  0.12500259521E+03 0.  0.
    9000005    1    3    3    0    0  0.49517700623E+01 -0.78788848075E+01  0.47918824176E+01  0.10514703499E+02  0.10000000000E+01 0.  0.
    9000005    1    3    3    0    0 -0.49517700623E+01  0.78788848075E+01 -0.50463996909E+03  0.50472675307E+03  0.10000000000E+01 0.  0.
<mgrwt>
<rscale>  0 0.12500260E+03</rscale>
<asrwt>0</asrwt>
<pdfrwt beam="1">  1        4 0.11841058E-02 0.12500260E+03</pdfrwt>
<pdfrwt beam="2">  1       -4 0.78083785E-01 0.12500260E+03</pdfrwt>
<totfact> 0.54697801E+03</totfact>
</mgrwt>
</event>
<event>
 5    1  0.3239419E-002  0.1250350E+03  0.7818608E-02  0.1235015E+00
          4   -1    0    0  501    0  0.00000000000E+00  0.00000000000E+00  0.26893864127E+03  0.26894163989E+03  0.12700000000E+01 0.  1.
         -4   -1    0    0    0  501 -0.00000000000E+00 -0.00000000000E+00 -0.14502002199E+02  0.14557505548E+02  0.12700000000E+01 0.  1.
         25    2    1    2    0    0  0.00000000000E+00  0.00000000000E+00  0.25443663907E+03  0.28349914544E+03  0.12503504374E+03 0.  0.
    9000005    1    3    3    0    0 -0.27645991430E+02  0.43879001777E+01  0.49177465104E+00  0.28014216970E+02  0.10000000000E+01 0.  0.
    9000005    1    3    3    0    0  0.27645991430E+02 -0.43879001777E+01  0.25394486442E+03  0.25548492847E+03  0.10000000000E+01 0.  0.
<mgrwt>
<rscale>  0 0.12503504E+03</rscale>
<asrwt>0</asrwt>
<pdfrwt beam="1">  1        4 0.41379673E-01 0.12503504E+03</pdfrwt>
<pdfrwt beam="2">  1       -4 0.22355776E-02 0.12503504E+03</pdfrwt>
<totfact> 0.77655928E+03</totfact>
</mgrwt>
</event>
<event>
 5    1  0.3239419E-002  0.1250049E+03  0.7818608E-02  0.1235062E+00
          4   -1    0    0  501    0  0.00000000000E+00  0.00000000000E+00  0.26037459878E+02  0.26068414162E+02  0.12700000000E+01 0. -1.
         -4   -1    0    0    0  501 -0.00000000000E+00 -0.00000000000E+00 -0.14991311070E+03  0.14991849005E+03  0.12700000000E+01 0. -1.
         25    2    1    2    0    0  0.00000000000E+00  0.00000000000E+00 -0.12387565082E+03  0.17598690422E+03  0.12500485426E+03 0.  0.
    9000005    1    3    3    0    0  0.41930278542E+02  0.13015932388E+02  0.67532988264E+00  0.43920596819E+02  0.10000000000E+01 0.  0.
    9000005    1    3    3    0    0 -0.41930278542E+02 -0.13015932388E+02 -0.12455098071E+03  0.13206630740E+03  0.10000000000E+01 0.  0.
<mgrwt>
<rscale>  0 0.12500485E+03</rscale>
<asrwt>0</asrwt>
<pdfrwt beam="1">  1        4 0.40085580E-02 0.12500485E+03</pdfrwt>
<pdfrwt beam="2">  1       -4 0.23066350E-01 0.12500485E+03</pdfrwt>
<totfact> 0.94334130E+03</totfact>
</mgrwt>
</event>
<event>
 5    1  0.3239419E-002  0.1249991E+03  0.7818608E-02  0.1235071E+00
         -4   -1    0    0    0  501 -0.00000000000E+00  0.00000000000E+00  0.13430250568E+04  0.13430256573E+04  0.12700000000E+01 0.  1.
          4   -1    0    0  501    0  0.00000000000E+00 -0.00000000000E+00 -0.27692396882E+01  0.30465699485E+01  0.12700000000E+01 0.  1.
         25    2    1    2    0    0  0.00000000000E+00  0.00000000000E+00  0.13402558171E+04  0.13460722272E+04  0.12499914237E+03 0.  0.
    9000005    1    3    3    0    0  0.11431980660E+01 -0.41715346817E+02  0.11710403211E+04  0.11717840717E+04  0.10000000000E+01 0.  0.
    9000005    1    3    3    0    0 -0.11431980660E+01  0.41715346817E+02  0.16921549597E+03  0.17428815547E+03  0.10000000000E+01 0.  0.
<mgrwt>
<rscale>  0 0.12499914E+03</rscale>
<asrwt>0</asrwt>
<pdfrwt beam="2">  1        4 0.44741775E-03 0.12499914E+03</pdfrwt>
<pdfrwt beam="1">  1       -4 0.20663988E+00 0.12499914E+03</pdfrwt>
<totfact> 0.21167023E+03</totfact>
</mgrwt>
</event>
<event>
 5    1  0.3239419E-002  0.1250035E+03  0.7818608E-02  0.1235064E+00
          4   -1    0    0  501    0  0.00000000000E+00  0.00000000000E+00  0.21618795134E+02  0.21656066195E+02  0.12700000000E+01 0. -1.
         -4   -1    0    0    0  501 -0.00000000000E+00 -0.00000000000E+00 -0.18050255178E+03  0.18050701953E+03  0.12700000000E+01 0. -1.
         25    2    1    2    0    0  0.00000000000E+00  0.00000000000E+00 -0.15888375664E+03  0.20216308572E+03  0.12500346036E+03 0.  0.
    9000005    1    3    3    0    0 -0.43500664157E+02 -0.37945098443E+02 -0.11816598410E+03  0.13151554310E+03  0.10000000000E+01 0.  0.
    9000005    1    3    3    0    0  0.43500664157E+02  0.37945098443E+02 -0.40717772547E+02  0.70647542626E+02  0.10000000000E+01 0.  0.
<mgrwt>
<rscale>  0 0.12500346E+03</rscale>
<asrwt>0</asrwt>
<pdfrwt beam="1">  1        4 0.33291793E-02 0.12500346E+03</pdfrwt>
<pdfrwt beam="2">  1       -4 0.27772833E-01 0.12500346E+03</pdfrwt>
<totfact> 0.89765013E+03</totfact>
</mgrwt>
</event>
<event>
 5    1  0.3239419E-002  0.1250016E+03  0.7818608E-02  0.1235067E+00
         -4   -1    0    0    0  501 -0.00000000000E+00  0.00000000000E+00  0.85000623796E+02  0.85010110844E+02  0.12700000000E+01 0. -1.
          4   -1    0    0  501    0  0.00000000000E+00 -0.00000000000E+00 -0.45935870953E+02  0.45953423597E+02  0.12700000000E+01 0. -1.
         25    2    1    2    0    0  0.00000000000E+00  0.00000000000E+00  0.39064752842E+02  0.13096353444E+03  0.12500156974E+03 0.  0.
    9000005    1    3    3    0    0 -0.51968901863E+02  0.20942406783E+02 -0.94643145268E+01  0.56832423951E+02  0.10000000000E+01 0.  0.
    9000005    1    3    3    0    0  0.51968901863E+02 -0.20942406783E+02  0.48529067369E+02  0.74131110489E+02  0.10000000000E+01 0.  0.
<mgrwt>
<rscale>  0 0.12500157E+03</rscale>
<asrwt>0</asrwt>
<pdfrwt beam="2">  1        4 0.70691371E-02 0.12500157E+03</pdfrwt>
<pdfrwt beam="1">  1       -4 0.13079099E-01 0.12500157E+03</pdfrwt>
<totfact> 0.10323505E+04</totfact>
</mgrwt>
</event>
<event>
 5    1  0.3239419E-002  0.1250040E+03  0.7818608E-02  0.1235063E+00
          4   -1    0    0  501    0  0.00000000000E+00  0.00000000000E+00  0.23362696662E+03  0.23363041847E+03  0.12700000000E+01 0.  1.
         -4   -1    0    0    0  501 -0.00000000000E+00 -0.00000000000E+00 -0.16693393366E+02  0.16741633196E+02  0.12700000000E+01 0.  1.
         25    2    1    2    0    0  0.00000000000E+00  0.00000000000E+00  0.21693357325E+03  0.25037205166E+03  0.12500395613E+03 0.  0.
    9000005    1    3    3    0    0 -0.21919547304E+02  0.54578541393E+02  0.66157718837E+02  0.88527552188E+02  0.10000000000E+01 0.  0.
    9000005    1    3    3    0    0  0.21919547304E+02 -0.54578541393E+02  0.15077585442E+03  0.16184449947E+03  0.10000000000E+01 0.  0.
<mgrwt>
<rscale>  0 0.12500396E+03</rscale>
<asrwt>0</asrwt>
<pdfrwt beam="1">  1        4 0.35946586E-01 0.12500396E+03</pdfrwt>
<pdfrwt beam="2">  1       -4 0.25721907E-02 0.12500396E+03</pdfrwt>
<totfact> 0.82269234E+03</totfact>
</mgrwt>
</event>
<event>
 5    1  0.3239419E-002  0.1250002E+03  0.7818608E-02  0.1235069E+00
          4   -1    0    0  501    0  0.00000000000E+00  0.00000000000E+00  0.44320545187E+03  0.44320727145E+03  0.12700000000E+01 0.  1.
         -4   -1    0    0    0  501 -0.00000000000E+00 -0.00000000000E+00 -0.87660692997E+01  0.88575883268E+01  0.12700000000E+01 0.  1.
         25    2    1    2    0    0  0.00000000000E+00  0.00000000000E+00  0.43443938257E+03  0.45206485978E+03  0.12500024127E+03 0.  0.
    9000005    1    3    3    0    0 -0.18317265323E+02 -0.21332656753E+02  0.41905412691E+03  0.41999757825E+03  0.10000000000E+01 0.  0.
    9000005    1    3    3    0    0  0.18317265323E+02  0.21332656753E+02  0.15385255660E+02  0.32067281531E+02  0.10000000000E+01 0.  0.
<mgrwt>
<rscale>  0 0.12500024E+03</rscale>
<asrwt>0</asrwt>
<pdfrwt beam="1">  1        4 0.68192625E-01 0.12500024E+03</pdfrwt>
<pdfrwt beam="2">  1       -4 0.13558061E-02 0.12500024E+03</pdfrwt>
<totfact> 0.59785018E+03</totfact>
</mgrwt>
</event>
<event>
 5    1  0.3239419E-002  0.1249974E+03  0.7818608E-02  0.1235073E+00
         -4   -1    0    0    0  501 -0.00000000000E+00  0.00000000000E+00  0.14444120646E+03  0.14444678960E+03  0.12700000000E+01 0.  1.
          4   -1    0    0  501    0  0.00000000000E+00 -0.00000000000E+00 -0.27021743254E+02  0.27051571276E+02  0.12700000000E+01 0.  1.
         25    2    1    2    0    0  0.00000000000E+00  0.00000000000E+00  0.11741946321E+03  0.17149836087E+03  0.12499742974E+03 0.  0.
    9000005    1    3    3    0    0  0.25065904141E+02  0.10001057711E+02 -0.18620922744E+02  0.32803345402E+02  0.10000000000E+01 0.  0.
    9000005    1    3    3    0    0 -0.25065904141E+02 -0.10001057711E+02  0.13604038595E+03  0.13869501547E+03  0.10000000000E+01 0.  0.
<mgrwt>
<rscale>  0 0.12499743E+03</rscale>
<asrwt>0</asrwt>
<pdfrwt beam="2">  1        4 0.41599152E-02 0.12499743E+03</pdfrwt>
<pdfrwt beam="1">  1       -4 0.22224448E-01 0.12499743E+03</pdfrwt>
<totfact> 0.95175587E+03</totfact>
</mgrwt>
</event>
<event>
 5    1  0.3239419E-002  0.1250004E+03  0.7818608E-02  0.1235069E+00
         -4   -1    0    0    0  501 -0.00000000000E+00  0.00000000000E+00  0.68727925659E+02  0.68739658607E+02  0.12700000000E+01 0. -1.
          4   -1    0    0  501    0  0.00000000000E+00 -0.00000000000E+00 -0.56813144692E+02  0.56827337698E+02  0.12700000000E+01 0. -1.
         25    2    1    2    0    0  0.00000000000E+00  0.00000000000E+00  0.11914780967E+02  0.12556699630E+03  0.12500043422E+03 0.  0.
    9000005    1    3    3    0    0 -0.13763784756E+02  0.12502439216E+02 -0.53974774996E+02  0.57096664466E+02  0.10000000000E+01 0.  0.
    9000005    1    3    3    0    0  0.13763784756E+02 -0.12502439216E+02  0.65889555963E+02  0.68470331839E+02  0.10000000000E+01 0.  0.
<mgrwt>
<rscale>  0 0.12500043E+03</rscale>
<asrwt>0</asrwt>
<pdfrwt beam="2">  1        4 0.87424781E-02 0.12500043E+03</pdfrwt>
<pdfrwt beam="1">  1       -4 0.10575521E-01 0.12500043E+03</pdfrwt>
<totfact> 0.10440373E+04</totfact>
</mgrwt>
</event>
<event>
 5    1  0.3239419E-002  0.1250026E+03  0.7818608E-02  0.1235065E+00
         -4   -1    0    0    0  501 -0.00000000000E+00  0.00000000000E+00  0.13246361322E+03  0.13246970117E+03  0.12700000000E+01 0. -1.
          4   -1    0    0  501    0  0.00000000000E+00 -0.00000000000E+00 -0.29469997224E+02  0.29497349650E+02  0.12700000000E+01 0. -1.
         25    2    1    2    0    0  0.00000000000E+00  0.00000000000E+00  0.10299361600E+03  0.16196705082E+03  0.12500256243E+03 0.  0.
    9000005    1    3    3    0    0 -0.31941319757E+01 -0.13759976381E+02  0.13037426333E+03  0.13114109946E+03  0.10000000000E+01 0.  0.
    9000005    1    3    3    0    0  0.31941319757E+01  0.13759976381E+02 -0.27380647329E+02  0.30825951360E+02  0.10000000000E+01 0.  0.
<mgrwt>
<rscale>  0 0.12500256E+03</rscale>
<asrwt>0</asrwt>
<pdfrwt beam="2">  1        4 0.45364179E-02 0.12500256E+03</pdfrwt>
<pdfrwt beam="1">  1       -4 0.20381590E-01 0.12500256E+03</pdfrwt>
<totfact> 0.96959304E+03</totfact>
</mgrwt>
</event>
<event>
 5    1  0.3239419E-002  0.1249728E+03  0.7818608E-02  0.1235112E+00
         -4   -1    0    0    0  501 -0.00000000000E+00  0.00000000000E+00  0.11723841480E+03  0.11724529332E+03  0.12700000000E+01 0. -1.
          4   -1    0    0  501    0  0.00000000000E+00 -0.00000000000E+00 -0.33284408251E+02  0.33308628501E+02  0.12700000000E+01 0. -1.
         25    2    1    2    0    0  0.00000000000E+00  0.00000000000E+00  0.83954006552E+02  0.15055392182E+03  0.12497282969E+03 0.  0.
    9000005    1    3    3    0    0 -0.43592663591E+02  0.40444971846E+02  0.18884697149E+02  0.62399902668E+02  0.10000000000E+01 0.  0.
    9000005    1    3    3    0    0  0.43592663591E+02 -0.40444971846E+02  0.65069309403E+02  0.88154019153E+02  0.10000000000E+01 0.  0.
<mgrwt>
<rscale>  0 0.12497283E+03</rscale>
<asrwt>0</asrwt>
<pdfrwt beam="2">  1        4 0.51230703E-02 0.12497283E+03</pdfrwt>
<pdfrwt beam="1">  1       -4 0.18039072E-01 0.12497283E+03</pdfrwt>
<totfact> 0.99254072E+03</totfact>
</mgrwt>
</event>
<event>
 5    1  0.3239419E-002  0.1250015E+03  0.7818608E-02  0.1235067E+00
         -4   -1    0    0    0  501 -0.00000000000E+00  0.00000000000E+00  0.38578389124E+03  0.38578598165E+03  0.12700000000E+01 0.  1.
          4   -1    0    0  501    0  0.00000000000E+00 -0.00000000000E+00 -0.10083777908E+02  0.10163438241E+02  0.12700000000E+01 0.  1.
         25    2    1    2    0    0  0.00000000000E+00  0.00000000000E+00  0.37570011333E+03  0.39594941989E+03  0.12500147182E+03 0.  0.
    9000005    1    3    3    0    0  0.31356507398E+02 -0.14393478180E+02  0.22804194754E+02  0.41369482335E+02  0.10000000000E+01 0.  0.
    9000005    1    3    3    0    0 -0.31356507398E+02  0.14393478180E+02  0.35289591858E+03  0.35457993756E+03  0.10000000000E+01 0.  0.
<mgrwt>
<rscale>  0 0.12500147E+03</rscale>
<asrwt>0</asrwt>
<pdfrwt beam="2">  1        4 0.15576392E-02 0.12500147E+03</pdfrwt>
<pdfrwt beam="1">  1       -4 0.59357646E-01 0.12500147E+03</pdfrwt>
<totfact> 0.64946553E+03</totfact>
</mgrwt>
</event>
<event>
 5    1  0.3239419E-002  0.1250010E+03  0.7818608E-02  0.1235068E+00
         -4   -1    0    0    0  501 -0.00000000000E+00  0.00000000000E+00  0.84015048635E+02  0.84024646962E+02  0.12700000000E+01 0.  1.
          4   -1    0    0  501    0  0.00000000000E+00 -0.00000000000E+00 -0.46474436196E+02  0.46491785508E+02  0.12700000000E+01 0.  1.
         25    2    1    2    0    0  0.00000000000E+00  0.00000000000E+00  0.37540612439E+02  0.13051643247E+03  0.12500096625E+03 0.  0.
    9000005    1    3    3    0    0  0.34985441272E+02 -0.33447849647E+02 -0.22503227608E+02  0.53386655635E+02  0.10000000000E+01 0.  0.
    9000005    1    3    3    0    0 -0.34985441272E+02  0.33447849647E+02  0.60043840047E+02  0.77129776835E+02  0.10000000000E+01 0.  0.
<mgrwt>
<rscale>  0 0.12500097E+03</rscale>
<asrwt>0</asrwt>
<pdfrwt beam="2">  1        4 0.71519862E-02 0.12500097E+03</pdfrwt>
<pdfrwt beam="1">  1       -4 0.12927465E-01 0.12500097E+03</pdfrwt>
<totfact> 0.10333242E+04</totfact>
</mgrwt>
</event>
<event>
 5    1  0.3239419E-002  0.1250272E+03  0.7818608E-02  0.1235027E+00
         -4   -1    0    0    0  501 -0.00000000000E+00  0.00000000000E+00  0.54939212732E+02  0.54953889722E+02  0.12700000000E+01 0.  1.
          4   -1    0    0  501    0  0.00000000000E+00 -0.00000000000E+00 -0.71102420515E+02  0.71113761700E+02  0.12700000000E+01 0.  1.
         25    2    1    2    0    0  0.00000000000E+00  0.00000000000E+00 -0.16163207784E+02  0.12606765142E+03  0.12502721083E+03 0.  0.
    9000005    1    3    3    0    0 -0.61068647518E+02 -0.13231109988E+02 -0.64844779867E+01  0.62829057259E+02  0.10000000000E+01 0.  0.
    9000005    1    3    3    0    0  0.61068647518E+02  0.13231109988E+02 -0.96787297968E+01  0.63238594163E+02  0.10000000000E+01 0.  0.
<mgrwt>
<rscale>  0 0.12502721E+03</rscale>
<asrwt>0</asrwt>
<pdfrwt beam="2">  1        4 0.10940835E-01 0.12502721E+03</pdfrwt>
<pdfrwt beam="1">  1       -4 0.84541879E-02 0.12502721E+03</pdfrwt>
<totfact> 0.10423073E+04</totfact>
</mgrwt>
</event>
<event>
 5    1  0.3239419E-002  0.1249985E+03  0.7818608E-02  0.1235072E+00
         -4   -1    0    0    0  501 -0.00000000000E+00  0.00000000000E+00  0.11564135146E+04  0.11564142120E+04  0.12700000000E+01 0.  1.
          4   -1    0    0  501    0  0.00000000000E+00 -0.00000000000E+00 -0.32577225405E+01  0.34965205778E+01  0.12700000000E+01 0.  1.
         25    2    1    2    0    0  0.00000000000E+00  0.00000000000E+00  0.11531557921E+04  0.11599107326E+04  0.12499850688E+03 0.  0.
    9000005    1    3    3    0    0  0.54675146860E+02  0.13884110788E-01  0.85739041029E+03  0.85913252035E+03  0.10000000000E+01 0.  0.
    9000005    1    3    3    0    0 -0.54675146860E+02 -0.13884110788E-01  0.29576538181E+03  0.30077821223E+03  0.10000000000E+01 0.  0.
<mgrwt>
<rscale>  0 0.12499851E+03</rscale>
<asrwt>0</asrwt>
<pdfrwt beam="2">  1        4 0.51961142E-03 0.12499851E+03</pdfrwt>
<pdfrwt beam="1">  1       -4 0.17792799E+00 0.12499851E+03</pdfrwt>
<totfact> 0.25787719E+03</totfact>
</mgrwt>
</event>
<event>
 5    1  0.3239419E-002  0.1249943E+03  0.7818608E-02  0.1235078E+00
         -4   -1    0    0    0  501 -0.00000000000E+00  0.00000000000E+00  0.70522618345E+02  0.70534052756E+02  0.12700000000E+01 0. -1.
          4   -1    0    0  501    0  0.00000000000E+00 -0.00000000000E+00 -0.55361763958E+02  0.55376328955E+02  0.12700000000E+01 0. -1.
         25    2    1    2    0    0  0.00000000000E+00  0.00000000000E+00  0.15160854387E+02  0.12591038171E+03  0.12499429074E+03 0.  0.
    9000005    1    3    3    0    0  0.17467683960E+02  0.24393722395E+02  0.62797493915E+02  0.69603871424E+02  0.10000000000E+01 0.  0.
    9000005    1    3    3    0    0 -0.17467683960E+02 -0.24393722395E+02 -0.47636639528E+02  0.56306510287E+02  0.10000000000E+01 0.  0.
<mgrwt>
<rscale>  0 0.12499429E+03</rscale>
<asrwt>0</asrwt>
<pdfrwt beam="2">  1        4 0.85191944E-02 0.12499429E+03</pdfrwt>
<pdfrwt beam="1">  1       -4 0.10851634E-01 0.12499429E+03</pdfrwt>
<totfact> 0.10434266E+04</totfact>
</mgrwt>
</event>
<event>
 5    1  0.3239419E-002  0.1249992E+03  0.7818608E-02  0.1235070E+00
          4   -1    0    0  501    0  0.00000000000E+00  0.00000000000E+00  0.13536488029E+03  0.13537083776E+03  0.12700000000E+01 0.  1.
         -4   -1    0    0    0  501 -0.00000000000E+00 -0.00000000000E+00 -0.28836269268E+02  0.28864222236E+02  0.12700000000E+01 0.  1.
         25    2    1    2    0    0  0.00000000000E+00  0.00000000000E+00  0.10652861103E+03  0.16423506000E+03  0.12499923986E+03 0.  0.
    9000005    1    3    3    0    0 -0.62036572886E+02 -0.43192064204E+01  0.45163826447E+02  0.76863275619E+02  0.10000000000E+01 0.  0.
    9000005    1    3    3    0    0  0.62036572886E+02  0.43192064204E+01  0.61364784579E+02  0.87371784381E+02  0.10000000000E+01 0.  0.
<mgrwt>
<rscale>  0 0.12499924E+03</rscale>
<asrwt>0</asrwt>
<pdfrwt beam="1">  1        4 0.20827975E-01 0.12499924E+03</pdfrwt>
<pdfrwt beam="2">  1       -4 0.44389575E-02 0.12499924E+03</pdfrwt>
<totfact> 0.96534104E+03</totfact>
</mgrwt>
</event>
<event>
 5    1  0.3239419E-002  0.1249890E+03  0.7818608E-02  0.1235086E+00
         -4   -1    0    0    0  501 -0.00000000000E+00  0.00000000000E+00  0.45727560002E+02  0.45745192575E+02  0.12700000000E+01 0.  1.
          4   -1    0    0  501    0  0.00000000000E+00 -0.00000000000E+00 -0.85370584694E+02  0.85380030634E+02  0.12700000000E+01 0.  1.
         25    2    1    2    0    0  0.00000000000E+00  0.00000000000E+00 -0.39643024692E+02  0.13112522321E+03  0.12498901854E+03 0.  0.
    9000005    1    3    3    0    0 -0.38643584012E+02  0.21332405460E+02  0.26578403107E+02  0.51534547827E+02  0.10000000000E+01 0.  0.
    9000005    1    3    3    0    0  0.38643584012E+02 -0.21332405460E+02 -0.66221427799E+02  0.79590675382E+02  0.10000000000E+01 0.  0.
<mgrwt>
<rscale>  0 0.12498902E+03</rscale>
<asrwt>0</asrwt>
<pdfrwt beam="2">  1        4 0.13136019E-01 0.12498902E+03</pdfrwt>
<pdfrwt beam="1">  1       -4 0.70370922E-02 0.12498902E+03</pdfrwt>
<totfact> 0.10322963E+04</totfact>
</mgrwt>
</event>
<event>
 5    1  0.3239419E-002  0.1250001E+03  0.7818608E-02  0.1235069E+00
         -4   -1    0    0    0  501 -0.00000000000E+00  0.00000000000E+00  0.25572312030E+02  0.25603828670E+02  0.12700000000E+01 0.  1.
          4   -1    0    0  501    0  0.00000000000E+00 -0.00000000000E+00 -0.15262514997E+03  0.15263043374E+03  0.12700000000E+01 0.  1.
         25    2    1    2    0    0  0.00000000000E+00  0.00000000000E+00 -0.12705283794E+03  0.17823426241E+03  0.12500011467E+03 0.  0.
    9000005    1    3    3    0    0  0.21466292225E+02  0.26785225429E+02 -0.13798657144E+03  0.14219544262E+03  0.10000000000E+01 0.  0.
    9000005    1    3    3    0    0 -0.21466292225E+02 -0.26785225429E+02  0.10933733506E+02  0.36038819786E+02  0.10000000000E+01 0.  0.
<mgrwt>
<rscale>  0 0.12500011E+03</rscale>
<asrwt>0</asrwt>
<pdfrwt beam="2">  1        4 0.23483623E-01 0.12500011E+03</pdfrwt>
<pdfrwt beam="1">  1       -4 0.39370327E-02 0.12500011E+03</pdfrwt>
<totfact> 0.93935569E+03</totfact>
</mgrwt>
</event>
<event>
 5    1  0.3239419E-002  0.1250011E+03  0.7818608E-02  0.1235067E+00
          4   -1    0    0  501    0  0.00000000000E+00  0.00000000000E+00  0.20627878321E+03  0.20628269269E+03  0.12700000000E+01 0. -1.
         -4   -1    0    0    0  501 -0.00000000000E+00 -0.00000000000E+00 -0.18911712036E+02  0.18954306955E+02  0.12700000000E+01 0. -1.
         25    2    1    2    0    0  0.00000000000E+00  0.00000000000E+00  0.18736707117E+03  0.22523699964E+03  0.12500114659E+03 0.  0.
    9000005    1    3    3    0    0 -0.53399416343E+02  0.30154906331E+02  0.72023054102E+02  0.94599875072E+02  0.10000000000E+01 0.  0.
    9000005    1    3    3    0    0  0.53399416343E+02 -0.30154906331E+02  0.11534401707E+03  0.13063712457E+03  0.10000000000E+01 0.  0.
<mgrwt>
<rscale>  0 0.12500115E+03</rscale>
<asrwt>0</asrwt>
<pdfrwt beam="1">  1        4 0.31738775E-01 0.12500115E+03</pdfrwt>
<pdfrwt beam="2">  1       -4 0.29130714E-02 0.12500115E+03</pdfrwt>
<totfact> 0.86044164E+03</totfact>
</mgrwt>
</event>
<event>
 5    1  0.3239419E-002  0.1250039E+03  0.7818608E-02  0.1235063E+00
          4   -1    0    0  501    0  0.00000000000E+00  0.00000000000E+00  0.74343674940E+02  0.74354521743E+02  0.12700000000E+01 0. -1.
         -4   -1    0    0    0  501 -0.00000000000E+00 -0.00000000000E+00 -0.52524088389E+02  0.52539440053E+02  0.12700000000E+01 0. -1.
         25    2    1    2    0    0  0.00000000000E+00  0.00000000000E+00  0.21819586551E+02  0.12689396180E+03  0.12500393267E+03 0.  0.
    9000005    1    3    3    0    0  0.53853547922E+02  0.26031366696E+02  0.29284838250E+02  0.66606594472E+02  0.10000000000E+01 0.  0.
    9000005    1    3    3    0    0 -0.53853547922E+02 -0.26031366696E+02 -0.74652516987E+01  0.60287367324E+02  0.10000000000E+01 0.  0.
<mgrwt>
<rscale>  0 0.12500393E+03</rscale>
<asrwt>0</asrwt>
<pdfrwt beam="1">  1        4 0.11439504E-01 0.12500393E+03</pdfrwt>
<pdfrwt beam="2">  1       -4 0.80826443E-02 0.12500393E+03</pdfrwt>
<totfact> 0.10410526E+04</totfact>
</mgrwt>
</event>
<event>
 5    1  0.3239419E-002  0.1250007E+03  0.7818608E-02  0.1235068E+00
         -4   -1    0    0    0  501 -0.00000000000E+00  0.00000000000E+00  0.13985395297E+03  0.13985971922E+03  0.12700000000E+01 0. -1.
          4   -1    0    0  501    0  0.00000000000E+00 -0.00000000000E+00 -0.27910461477E+02  0.27939340720E+02  0.12700000000E+01 0. -1.
         25    2    1    2    0    0  0.00000000000E+00  0.00000000000E+00  0.11194349149E+03  0.16779905994E+03  0.12500071692E+03 0.  0.
    9000005    1    3    3    0    0  0.51269231769E+01 -0.22819446882E+02  0.13376386815E+03  0.13579685166E+03  0.10000000000E+01 0.  0.
    9000005    1    3    3    0    0 -0.51269231769E+01  0.22819446882E+02 -0.21820376662E+02  0.32002208282E+02  0.10000000000E+01 0.  0.
<mgrwt>
<rscale>  0 0.12500072E+03</rscale>
<asrwt>0</asrwt>
<pdfrwt beam="2">  1        4 0.42965822E-02 0.12500072E+03</pdfrwt>
<pdfrwt beam="1">  1       -4 0.21518658E-01 0.12500072E+03</pdfrwt>
<totfact> 0.95858362E+03</totfact>
</mgrwt>
</event>
<event>
 5    1  0.3239419E-002  0.1249951E+03  0.7818608E-02  0.1235077E+00
          4   -1    0    0  501    0  0.00000000000E+00  0.00000000000E+00  0.28382011150E+02  0.28410411066E+02  0.12700000000E+01 0.  1.
         -4   -1    0    0    0  501 -0.00000000000E+00 -0.00000000000E+00 -0.13752031648E+03  0.13752618058E+03  0.12700000000E+01 0.  1.
         25    2    1    2    0    0  0.00000000000E+00  0.00000000000E+00 -0.10913830533E+03  0.16593659164E+03  0.12499513093E+03 0.  0.
    9000005    1    3    3    0    0 -0.39522742700E+02 -0.46395124312E+02 -0.36251399311E+02  0.70920509745E+02  0.10000000000E+01 0.  0.
    9000005    1    3    3    0    0  0.39522742700E+02  0.46395124312E+02 -0.72886906015E+02  0.95016081896E+02  0.10000000000E+01 0.  0.
<mgrwt>
<rscale>  0 0.12499513E+03</rscale>
<asrwt>0</asrwt>
<pdfrwt beam="1">  1        4 0.43690990E-02 0.12499513E+03</pdfrwt>
<pdfrwt beam="2">  1       -4 0.21159607E-01 0.12499513E+03</pdfrwt>
<totfact> 0.96220834E+03</totfact>
</mgrwt>
</event>
<event>
 5    1  0.3239419E-002  0.1249996E+03  0.7818608E-02  0.1235070E+00
         -4   -1    0    0    0  501 -0.00000000000E+00  0.00000000000E+00  0.12611063578E+02  0.12674850081E+02  0.12700000000E+01 0.  1.
          4   -1    0    0  501    0  0.00000000000E+00 -0.00000000000E+00 -0.30889933501E+03  0.30890194573E+03  0.12700000000E+01 0.  1.
         25    2    1    2    0    0  0.00000000000E+00  0.00000000000E+00 -0.29628827144E+03  0.32157679581E+03  0.12499958324E+03 0.  0.
    9000005    1    3    3    0    0  0.15022170563E+02  0.31253764555E+02 -0.14398406250E+02  0.37560318287E+02  0.10000000000E+01 0.  0.
    9000005    1    3    3    0    0 -0.15022170563E+02 -0.31253764555E+02 -0.28188986519E+03  0.28401647752E+03  0.10000000000E+01 0.  0.
<mgrwt>
<rscale>  0 0.12499958E+03</rscale>
<asrwt>0</asrwt>
<pdfrwt beam="2">  1        4 0.47528076E-01 0.12499958E+03</pdfrwt>
<pdfrwt beam="1">  1       -4 0.19452713E-02 0.12499958E+03</pdfrwt>
<totfact> 0.72969654E+03</totfact>
</mgrwt>
</event>
<event>
 5    1  0.3239419E-002  0.1250038E+03  0.7818608E-02  0.1235063E+00
         -4   -1    0    0    0  501 -0.00000000000E+00  0.00000000000E+00  0.10056463117E+03  0.10057265007E+03  0.12700000000E+01 0.  1.
          4   -1    0    0  501    0  0.00000000000E+00 -0.00000000000E+00 -0.38825565867E+02  0.38846331422E+02  0.12700000000E+01 0.  1.
         25    2    1    2    0    0  0.00000000000E+00  0.00000000000E+00  0.61739065306E+02  0.13941898150E+03  0.12500376081E+03 0.  0.
    9000005    1    3    3    0    0  0.13485860933E+02  0.22452957187E+02  0.94153220767E+02  0.97733477951E+02  0.10000000000E+01 0.  0.
    9000005    1    3    3    0    0 -0.13485860933E+02 -0.22452957187E+02 -0.32414155461E+02  0.41685503545E+02  0.10000000000E+01 0.  0.
<mgrwt>
<rscale>  0 0.12500376E+03</rscale>
<asrwt>0</asrwt>
<pdfrwt beam="2">  1        4 0.59753783E-02 0.12500376E+03</pdfrwt>
<pdfrwt beam="1">  1       -4 0.15473696E-01 0.12500376E+03</pdfrwt>
<totfact> 0.10144782E+04</totfact>
</mgrwt>
</event>
<event>
 5    1  0.3239419E-002  0.1249986E+03  0.7818608E-02  0.1235071E+00
         -4   -1    0    0    0  501 -0.00000000000E+00  0.00000000000E+00  0.17559112351E+04  0.17559116944E+04  0.12700000000E+01 0. -1.
          4   -1    0    0  501    0  0.00000000000E+00 -0.00000000000E+00 -0.20428227102E+01  0.24054156866E+01  0.12700000000E+01 0. -1.
         25    2    1    2    0    0  0.00000000000E+00  0.00000000000E+00  0.17538684124E+04  0.17583171101E+04  0.12499860625E+03 0.  0.
    9000005    1    3    3    0    0 -0.96457251625E+01  0.40800270047E+02  0.22507371696E+03  0.22894733044E+03  0.10000000000E+01 0.  0.
    9000005    1    3    3    0    0  0.96457251625E+01 -0.40800270047E+02  0.15287946954E+04  0.15293697796E+04  0.10000000000E+01 0.  0.
<mgrwt>
<rscale>  0 0.12499861E+03</rscale>
<asrwt>0</asrwt>
<pdfrwt beam="2">  1        4 0.34220720E-03 0.12499861E+03</pdfrwt>
<pdfrwt beam="1">  1       -4 0.27016836E+00 0.12499861E+03</pdfrwt>
<totfact> 0.13357128E+03</totfact>
</mgrwt>
</event>
<event>
 5    1  0.3239419E-002  0.1250003E+03  0.7818608E-02  0.1235069E+00
         -4   -1    0    0    0  501 -0.00000000000E+00  0.00000000000E+00  0.10209905057E+03  0.10210694896E+03  0.12700000000E+01 0.  1.
          4   -1    0    0  501    0  0.00000000000E+00 -0.00000000000E+00 -0.38239699263E+02  0.38260782791E+02  0.12700000000E+01 0.  1.
         25    2    1    2    0    0  0.00000000000E+00  0.00000000000E+00  0.63859351305E+02  0.14036773176E+03  0.12500033348E+03 0.  0.
    9000005    1    3    3    0    0  0.25103856496E+02 -0.98597139321E+01  0.95232491822E+02  0.98983054450E+02  0.10000000000E+01 0.  0.
    9000005    1    3    3    0    0 -0.25103856496E+02  0.98597139321E+01 -0.31373140517E+02  0.41384677305E+02  0.10000000000E+01 0.  0.
<mgrwt>
<rscale>  0 0.12500033E+03</rscale>
<asrwt>0</asrwt>
<pdfrwt beam="2">  1        4 0.58852601E-02 0.12500033E+03</pdfrwt>
<pdfrwt beam="1">  1       -4 0.15709776E-01 0.12500033E+03</pdfrwt>
<totfact> 0.10125894E+04</totfact>
</mgrwt>
</event>
<event>
 5    1  0.3239419E-002  0.1250027E+03  0.7818608E-02  0.1235065E+00
         -4   -1    0    0    0  501 -0.00000000000E+00  0.00000000000E+00  0.16624234892E+03  0.16624719990E+03  0.12700000000E+01 0. -1.
          4   -1    0    0  501    0  0.00000000000E+00 -0.00000000000E+00 -0.23475974463E+02  0.23510301508E+02  0.12700000000E+01 0. -1.
         25    2    1    2    0    0  0.00000000000E+00  0.00000000000E+00  0.14276637445E+03  0.18975750140E+03  0.12500268663E+03 0.  0.
    9000005    1    3    3    0    0  0.95149008332E+01  0.59641297376E+02  0.47009498950E+02  0.76540908553E+02  0.10000000000E+01 0.  0.
    9000005    1    3    3    0    0 -0.95149008332E+01 -0.59641297376E+02  0.95756875505E+02  0.11321659285E+03  0.10000000000E+01 0.  0.
<mgrwt>
<rscale>  0 0.12500269E+03</rscale>
<asrwt>0</asrwt>
<pdfrwt beam="2">  1        4 0.36147021E-02 0.12500269E+03</pdfrwt>
<pdfrwt beam="1">  1       -4 0.25578759E-01 0.12500269E+03</pdfrwt>
<totfact> 0.91883996E+03</totfact>
</mgrwt>
</event>
<event>
 5    1  0.3239419E-002  0.1249998E+03  0.7818608E-02  0.1235070E+00
          4   -1    0    0  501    0  0.00000000000E+00  0.00000000000E+00  0.42209904619E+01  0.44079088556E+01  0.12700000000E+01 0. -1.
         -4   -1    0    0    0  501 -0.00000000000E+00 -0.00000000000E+00 -0.90519707690E+03  0.90519796781E+03  0.12700000000E+01 0. -1.
         25    2    1    2    0    0  0.00000000000E+00  0.00000000000E+00 -0.90097608643E+03  0.90960587666E+03  0.12499977013E+03 0.  0.
    9000005    1    3    3    0    0 -0.24530285092E+02 -0.83531899877E+01 -0.86429289922E+03  0.86468186422E+03  0.10000000000E+01 0.  0.
    9000005    1    3    3    0    0  0.24530285092E+02  0.83531899877E+01 -0.36683187214E+02  0.44924012442E+02  0.10000000000E+01 0.  0.
<mgrwt>
<rscale>  0 0.12499977E+03</rscale>
<asrwt>0</asrwt>
<pdfrwt beam="1">  1        4 0.66383074E-03 0.12499977E+03</pdfrwt>
<pdfrwt beam="2">  1       -4 0.13927538E+00 0.12499977E+03</pdfrwt>
<totfact> 0.33794966E+03</totfact>
</mgrwt>
</event>
<event>
 5    1  0.3239419E-002  0.1249982E+03  0.7818608E-02  0.1235072E+00
          4   -1    0    0  501    0  0.00000000000E+00  0.00000000000E+00  0.59611949262E+01  0.60949770261E+01  0.12700000000E+01 0.  1.
         -4   -1    0    0    0  501 -0.00000000000E+00 -0.00000000000E+00 -0.64785525284E+03  0.64785649764E+03  0.12700000000E+01 0.  1.
         25    2    1    2    0    0  0.00000000000E+00  0.00000000000E+00 -0.64189405792E+03  0.65395147467E+03  0.12499819851E+03 0.  0.
    9000005    1    3    3    0    0  0.51401814138E+02  0.34403693958E+02 -0.36755803048E+03  0.37272733523E+03  0.10000000000E+01 0.  0.
    9000005    1    3    3    0    0 -0.51401814138E+02 -0.34403693958E+02 -0.27433602743E+03  0.28122413944E+03  0.10000000000E+01 0.  0.
<mgrwt>
<rscale>  0 0.12499820E+03</rscale>
<asrwt>0</asrwt>
<pdfrwt beam="1">  1        4 0.92749411E-03 0.12499820E+03</pdfrwt>
<pdfrwt beam="2">  1       -4 0.99680371E-01 0.12499820E+03</pdfrwt>
<totfact> 0.45631602E+03</totfact>
</mgrwt>
</event>
<event>
 5    1  0.3239419E-002  0.1250034E+03  0.7818608E-02  0.1235064E+00
          4   -1    0    0  501    0  0.00000000000E+00  0.00000000000E+00  0.34222859628E+02  0.34246416179E+02  0.12700000000E+01 0.  1.
         -4   -1    0    0    0  501 -0.00000000000E+00 -0.00000000000E+00 -0.11408135511E+03  0.11408842397E+03  0.12700000000E+01 0.  1.
         25    2    1    2    0    0  0.00000000000E+00  0.00000000000E+00 -0.79858495482E+02  0.14833484015E+03  0.12500338196E+03 0.  0.
    9000005    1    3    3    0    0 -0.21642200260E+02 -0.24147778126E+02  0.23464357189E+02  0.40038432522E+02  0.10000000000E+01 0.  0.
    9000005    1    3    3    0    0  0.21642200260E+02  0.24147778126E+02 -0.10332285267E+03  0.10829640763E+03  0.10000000000E+01 0.  0.
<mgrwt>
<rscale>  0 0.12500338E+03</rscale>
<asrwt>0</asrwt>
<pdfrwt beam="1">  1        4 0.52674112E-02 0.12500338E+03</pdfrwt>
<pdfrwt beam="2">  1       -4 0.17553333E-01 0.12500338E+03</pdfrwt>
<totfact> 0.99629079E+03</totfact>
</mgrwt>
</event>
<event>
 5    1  0.3239419E-002  0.1250012E+03  0.7818608E-02  0.1235067E+00
          4   -1    0    0  501    0  0.00000000000E+00  0.00000000000E+00  0.30814956255E+02  0.30841115884E+02  0.12700000000E+01 0.  1.
         -4   -1    0    0    0  501 -0.00000000000E+00 -0.00000000000E+00 -0.12668404155E+03  0.12669040723E+03  0.12700000000E+01 0.  1.
         25    2    1    2    0    0  0.00000000000E+00  0.00000000000E+00 -0.95869085297E+02  0.15753152311E+03  0.12500119703E+03 0.  0.
    9000005    1    3    3    0    0 -0.26015254638E+01  0.60337866789E+02 -0.68173022379E+02  0.91082309389E+02  0.10000000000E+01 0.  0.
    9000005    1    3    3    0    0  0.26015254638E+01 -0.60337866789E+02 -0.27696062918E+02  0.66449213724E+02  0.10000000000E+01 0.  0.
<mgrwt>
<rscale>  0 0.12500120E+03</rscale>
<asrwt>0</asrwt>
<pdfrwt beam="1">  1        4 0.47432645E-02 0.12500120E+03</pdfrwt>
<pdfrwt beam="2">  1       -4 0.19492354E-01 0.12500120E+03</pdfrwt>
<totfact> 0.97818177E+03</totfact>
</mgrwt>
</event>
<event>
 5    1  0.3239419E-002  0.1250026E+03  0.7818608E-02  0.1235065E+00
         -4   -1    0    0    0  501 -0.00000000000E+00  0.00000000000E+00  0.56560919403E+02  0.56575175684E+02  0.12700000000E+01 0. -1.
          4   -1    0    0  501    0  0.00000000000E+00 -0.00000000000E+00 -0.69036794324E+02  0.69048474788E+02  0.12700000000E+01 0. -1.
         25    2    1    2    0    0  0.00000000000E+00  0.00000000000E+00 -0.12475874921E+02  0.12562365047E+03  0.12500261638E+03 0.  0.
    9000005    1    3    3    0    0  0.39414866641E+02 -0.90077594769E+01  0.41651111290E+02  0.58055891301E+02  0.10000000000E+01 0.  0.
    9000005    1    3    3    0    0 -0.39414866641E+02  0.90077594769E+01 -0.54126986211E+02  0.67567759171E+02  0.10000000000E+01 0.  0.
<mgrwt>
<rscale>  0 0.12500262E+03</rscale>
<asrwt>0</asrwt>
<pdfrwt beam="2">  1        4 0.10623040E-01 0.12500262E+03</pdfrwt>
<pdfrwt beam="1">  1       -4 0.87036750E-02 0.12500262E+03</pdfrwt>
<totfact> 0.10438610E+04</totfact>
</mgrwt>
</event>
<event>
 5    1  0.3239419E-002  0.1250059E+03  0.7818608E-02  0.1235060E+00
         -4   -1    0    0    0  501 -0.00000000000E+00  0.00000000000E+00  0.66761290334E+02  0.66773368846E+02  0.12700000000E+01 0. -1.
          4   -1    0    0  501    0  0.00000000000E+00 -0.00000000000E+00 -0.58492001565E+02  0.58505787296E+02  0.12700000000E+01 0. -1.
         25    2    1    2    0    0  0.00000000000E+00  0.00000000000E+00  0.82692887692E+01  0.12527915614E+03  0.12500594317E+03 0.  0.
    9000005    1    3    3    0    0 -0.33776047962E+02  0.52535253199E+02  0.63410947894E+01  0.62785219023E+02  0.10000000000E+01 0.  0.
    9000005    1    3    3    0    0  0.33776047962E+02 -0.52535253199E+02  0.19281939798E+01  0.62493937119E+02  0.10000000000E+01 0.  0.
<mgrwt>
<rscale>  0 0.12500594E+03</rscale>
<asrwt>0</asrwt>
<pdfrwt beam="2">  1        4 0.90007590E-02 0.12500594E+03</pdfrwt>
<pdfrwt beam="1">  1       -4 0.10272957E-01 0.12500594E+03</pdfrwt>
<totfact> 0.10445399E+04</totfact>
</mgrwt>
</event>
<event>
 5    1  0.3239419E-002  0.1250021E+03  0.7818608E-02  0.1235066E+00
          4   -1    0    0  501    0  0.00000000000E+00  0.00000000000E+00  0.36496027087E+02  0.36518117327E+02  0.12700000000E+01 0.  1.
         -4   -1    0    0    0  501 -0.00000000000E+00 -0.00000000000E+00 -0.10697761106E+03  0.10698514928E+03  0.12700000000E+01 0.  1.
         25    2    1    2    0    0  0.00000000000E+00  0.00000000000E+00 -0.70481583970E+02  0.14350326661E+03  0.12500213538E+03 0.  0.
    9000005    1    3    3    0    0  0.12829711473E+02 -0.53276396402E+01  0.34706617208E+02  0.37396985422E+02  0.10000000000E+01 0.  0.
    9000005    1    3    3    0    0 -0.12829711473E+02  0.53276396402E+01 -0.10518820118E+03  0.10610628119E+03  0.10000000000E+01 0.  0.
<mgrwt>
<rscale>  0 0.12500214E+03</rscale>
<asrwt>0</asrwt>
<pdfrwt beam="1">  1        4 0.56170526E-02 0.12500214E+03</pdfrwt>
<pdfrwt beam="2">  1       -4 0.16460373E-01 0.12500214E+03</pdfrwt>
<totfact> 0.10061004E+04</totfact>
</mgrwt>
</event>
<event>
 5    1  0.3239419E-002  0.1250004E+03  0.7818608E-02  0.1235069E+00
         -4   -1    0    0    0  501 -0.00000000000E+00  0.00000000000E+00  0.22454147793E+03  0.22454506944E+03  0.12700000000E+01 0. -1.
          4   -1    0    0  501    0  0.00000000000E+00 -0.00000000000E+00 -0.17369759648E+02  0.17416126154E+02  0.12700000000E+01 0. -1.
         25    2    1    2    0    0  0.00000000000E+00  0.00000000000E+00  0.20717171828E+03  0.24196119560E+03  0.12500039727E+03 0.  0.
    9000005    1    3    3    0    0 -0.19361512264E+02 -0.29249737137E+02  0.34741628402E+01  0.35263083915E+02  0.10000000000E+01 0.  0.
    9000005    1    3    3    0    0  0.19361512264E+02  0.29249737137E+02  0.20369755544E+03  0.20669811168E+03  0.10000000000E+01 0.  0.
<mgrwt>
<rscale>  0 0.12500040E+03</rscale>
<asrwt>0</asrwt>
<pdfrwt beam="2">  1        4 0.26761136E-02 0.12500040E+03</pdfrwt>
<pdfrwt beam="1">  1       -4 0.34548686E-01 0.12500040E+03</pdfrwt>
<totfact> 0.83505406E+03</totfact>
</mgrwt>
</event>
<event>
 5    1  0.3239419E-002  0.1249802E+03  0.7818608E-02  0.1235100E+00
         -4   -1    0    0    0  501 -0.00000000000E+00  0.00000000000E+00  0.10868615047E+03  0.10869357021E+03  0.12700000000E+01 0. -1.
          4   -1    0    0  501    0  0.00000000000E+00 -0.00000000000E+00 -0.35909356160E+02  0.35931807077E+02  0.12700000000E+01 0. -1.
         25    2    1    2    0    0  0.00000000000E+00  0.00000000000E+00  0.72776794311E+02  0.14462537728E+03  0.12498015028E+03 0.  0.
    9000005    1    3    3    0    0 -0.47977523177E+02 -0.27874362754E+02  0.69629816738E+02  0.89040070800E+02  0.10000000000E+01 0.  0.
    9000005    1    3    3    0    0  0.47977523177E+02  0.27874362754E+02  0.31469775729E+01  0.55585306484E+02  0.10000000000E+01 0.  0.
<mgrwt>
<rscale>  0 0.12498015E+03</rscale>
<asrwt>0</asrwt>
<pdfrwt beam="2">  1        4 0.55268142E-02 0.12498015E+03</pdfrwt>
<pdfrwt beam="1">  1       -4 0.16723244E-01 0.12498015E+03</pdfrwt>
<totfact> 0.10043094E+04</totfact>
</mgrwt>
</event>
<event>
 5    1  0.3239419E-002  0.1249964E+03  0.7818608E-02  0.1235075E+00
          4   -1    0    0  501    0  0.00000000000E+00  0.00000000000E+00  0.15241979476E+02  0.15294797755E+02  0.12700000000E+01 0.  1.
         -4   -1    0    0    0  501 -0.00000000000E+00 -0.00000000000E+00 -0.25576971612E+03  0.25577286913E+03  0.12700000000E+01 0.  1.
         25    2    1    2    0    0  0.00000000000E+00  0.00000000000E+00 -0.24052773664E+03  0.27106766688E+03  0.12499635169E+03 0.  0.
    9000005    1    3    3    0    0 -0.41165584437E+02 -0.29154550850E+02 -0.20025066237E+03  0.20650888832E+03  0.10000000000E+01 0.  0.
    9000005    1    3    3    0    0  0.41165584437E+02  0.29154550850E+02 -0.40277074270E+02  0.64558778559E+02  0.10000000000E+01 0.  0.
<mgrwt>
<rscale>  0 0.12499635E+03</rscale>
<asrwt>0</asrwt>
<pdfrwt beam="1">  1        4 0.23492256E-02 0.12499635E+03</pdfrwt>
<pdfrwt beam="2">  1       -4 0.39353489E-01 0.12499635E+03</pdfrwt>
<totfact> 0.79383973E+03</totfact>
</mgrwt>
</event>
<event>
 5    1  0.3239419E-002  0.1250001E+03  0.7818608E-02  0.1235069E+00
          4   -1    0    0  501    0  0.00000000000E+00  0.00000000000E+00  0.34470868120E+03  0.34471102071E+03  0.12700000000E+01 0.  1.
         -4   -1    0    0    0  501 -0.00000000000E+00 -0.00000000000E+00 -0.11294089184E+02  0.11365269487E+02  0.12700000000E+01 0.  1.
         25    2    1    2    0    0  0.00000000000E+00  0.00000000000E+00  0.33341459202E+03  0.35607629019E+03  0.12500013707E+03 0.  0.
    9000005    1    3    3    0    0  0.16329771852E+02  0.56839517781E+02  0.22423691508E+03  0.23190641715E+03  0.10000000000E+01 0.  0.
    9000005    1    3    3    0    0 -0.16329771852E+02 -0.56839517781E+02  0.10917767694E+03  0.12416987305E+03  0.10000000000E+01 0.  0.
<mgrwt>
<rscale>  0 0.12500014E+03</rscale>
<asrwt>0</asrwt>
<pdfrwt beam="1">  1        4 0.53037769E-01 0.12500014E+03</pdfrwt>
<pdfrwt beam="2">  1       -4 0.17432073E-02 0.12500014E+03</pdfrwt>
<totfact> 0.69061005E+03</totfact>
</mgrwt>
</event>
<event>
 5    1  0.3239419E-002  0.1250018E+03  0.7818608E-02  0.1235066E+00
          4   -1    0    0  501    0  0.00000000000E+00  0.00000000000E+00  0.23291854844E+02  0.23326452839E+02  0.12700000000E+01 0. -1.
         -4   -1    0    0    0  501 -0.00000000000E+00 -0.00000000000E+00 -0.16755216337E+03  0.16755697642E+03  0.12700000000E+01 0. -1.
         25    2    1    2    0    0  0.00000000000E+00  0.00000000000E+00 -0.14426030852E+03  0.19088342926E+03  0.12500178780E+03 0.  0.
    9000005    1    3    3    0    0  0.28324380483E+02  0.55638950528E+02 -0.76283716171E+02  0.98580772459E+02  0.10000000000E+01 0.  0.
    9000005    1    3    3    0    0 -0.28324380483E+02 -0.55638950528E+02 -0.67976592350E+02  0.92302656805E+02  0.10000000000E+01 0.  0.
<mgrwt>
<rscale>  0 0.12500179E+03</rscale>
<asrwt>0</asrwt>
<pdfrwt beam="1">  1        4 0.35863940E-02 0.12500179E+03</pdfrwt>
<pdfrwt beam="2">  1       -4 0.25780287E-01 0.12500179E+03</pdfrwt>
<totfact> 0.91690156E+03</totfact>
</mgrwt>
</event>
<event>
 5    1  0.3239419E-002  0.1250012E+03  0.7818608E-02  0.1235067E+00
          4   -1    0    0  501    0  0.00000000000E+00  0.00000000000E+00  0.16352098882E+03  0.16352592052E+03  0.12700000000E+01 0. -1.
         -4   -1    0    0    0  501 -0.00000000000E+00 -0.00000000000E+00 -0.23866663094E+02  0.23900429018E+02  0.12700000000E+01 0. -1.
         25    2    1    2    0    0  0.00000000000E+00  0.00000000000E+00  0.13965432572E+03  0.18742634954E+03  0.12500122323E+03 0.  0.
    9000005    1    3    3    0    0  0.27168044250E+02 -0.54731617939E+02  0.50181421523E+02  0.79074823406E+02  0.10000000000E+01 0.  0.
    9000005    1    3    3    0    0 -0.27168044250E+02  0.54731617939E+02  0.89472904198E+02  0.10835152614E+03  0.10000000000E+01 0.  0.
<mgrwt>
<rscale>  0 0.12500122E+03</rscale>
<asrwt>0</asrwt>
<pdfrwt beam="1">  1        4 0.25160052E-01 0.12500122E+03</pdfrwt>
<pdfrwt beam="2">  1       -4 0.36747711E-02 0.12500122E+03</pdfrwt>
<totfact> 0.92294529E+03</totfact>
</mgrwt>
</event>
<event>
 5    1  0.3239419E-002  0.1249941E+03  0.7818608E-02  0.1235079E+00
         -4   -1    0    0    0  501 -0.00000000000E+00  0.00000000000E+00  0.10968465019E+02  0.11041744648E+02  0.12700000000E+01 0. -1.
          4   -1    0    0  501    0  0.00000000000E+00 -0.00000000000E+00 -0.35484082409E+03  0.35484309679E+03  0.12700000000E+01 0. -1.
         25    2    1    2    0    0  0.00000000000E+00  0.00000000000E+00 -0.34387235907E+03  0.36588484144E+03  0.12499407131E+03 0.  0.
    9000005    1    3    3    0    0  0.20638824703E+02 -0.56317321662E+02 -0.12062399586E+03  0.13471729726E+03  0.10000000000E+01 0.  0.
    9000005    1    3    3    0    0 -0.20638824703E+02  0.56317321662E+02 -0.22324836321E+03  0.23116754418E+03  0.10000000000E+01 0.  0.
<mgrwt>
<rscale>  0 0.12499407E+03</rscale>
<asrwt>0</asrwt>
<pdfrwt beam="2">  1        4 0.54596699E-01 0.12499407E+03</pdfrwt>
<pdfrwt beam="1">  1       -4 0.16932681E-02 0.12499407E+03</pdfrwt>
<totfact> 0.68020589E+03</totfact>
</mgrwt>
</event>
<event>
 5    1  0.3239419E-002  0.1250049E+03  0.7818608E-02  0.1235062E+00
         -4   -1    0    0    0  501 -0.00000000000E+00  0.00000000000E+00  0.44957925255E+02  0.44975859561E+02  0.12700000000E+01 0. -1.
          4   -1    0    0  501    0  0.00000000000E+00 -0.00000000000E+00 -0.86853710048E+02  0.86862994704E+02  0.12700000000E+01 0. -1.
         25    2    1    2    0    0  0.00000000000E+00  0.00000000000E+00 -0.41895784792E+02  0.13183885427E+03  0.12500490675E+03 0.  0.
    9000005    1    3    3    0    0 -0.98910250043E+01  0.23891855895E+01  0.44083542277E+02  0.45253721207E+02  0.10000000000E+01 0.  0.
    9000005    1    3    3    0    0  0.98910250043E+01 -0.23891855895E+01 -0.85979327069E+02  0.86585133058E+02  0.10000000000E+01 0.  0.
<mgrwt>
<rscale>  0 0.12500491E+03</rscale>
<asrwt>0</asrwt>
<pdfrwt beam="2">  1        4 0.13364203E-01 0.12500491E+03</pdfrwt>
<pdfrwt beam="1">  1       -4 0.69186977E-02 0.12500491E+03</pdfrwt>
<totfact> 0.10303998E+04</totfact>
</mgrwt>
</event>
<event>
 5    1  0.3239419E-002  0.1249972E+03  0.7818608E-02  0.1235074E+00
         -4   -1    0    0    0  501 -0.00000000000E+00  0.00000000000E+00  0.41751905266E+02  0.41771216086E+02  0.12700000000E+01 0. -1.
          4   -1    0    0  501    0  0.00000000000E+00 -0.00000000000E+00 -0.93509111175E+02  0.93517735071E+02  0.12700000000E+01 0. -1.
         25    2    1    2    0    0  0.00000000000E+00  0.00000000000E+00 -0.51757205910E+02  0.13528895116E+03  0.12499716773E+03 0.  0.
    9000005    1    3    3    0    0  0.79805896815E+01 -0.58797309204E+02 -0.47095141114E+02  0.75761241395E+02  0.10000000000E+01 0.  0.
    9000005    1    3    3    0    0 -0.79805896815E+01  0.58797309204E+02 -0.46620647959E+01  0.59527709761E+02  0.10000000000E+01 0.  0.
<mgrwt>
<rscale>  0 0.12499717E+03</rscale>
<asrwt>0</asrwt>
<pdfrwt beam="2">  1        4 0.14388166E-01 0.12499717E+03</pdfrwt>
<pdfrwt beam="1">  1       -4 0.64255189E-02 0.12499717E+03</pdfrwt>
<totfact> 0.10232638E+04</totfact>
</mgrwt>
</event>
<event>
 5    1  0.3239419E-002  0.1249990E+03  0.7818608E-02  0.1235071E+00
         -4   -1    0    0    0  501 -0.00000000000E+00  0.00000000000E+00  0.15102199635E+02  0.15155505066E+02  0.12700000000E+01 0.  1.
          4   -1    0    0  501    0  0.00000000000E+00 -0.00000000000E+00 -0.25813964925E+03  0.25814277332E+03  0.12700000000E+01 0.  1.
         25    2    1    2    0    0  0.00000000000E+00  0.00000000000E+00 -0.24303744962E+03  0.27329827839E+03  0.12499898820E+03 0.  0.
    9000005    1    3    3    0    0 -0.20610275574E+02  0.58135388735E+02 -0.14345696279E+03  0.15615827565E+03  0.10000000000E+01 0.  0.
    9000005    1    3    3    0    0  0.20610275574E+02 -0.58135388735E+02 -0.99580486832E+02  0.11714000273E+03  0.10000000000E+01 0.  0.
<mgrwt>
<rscale>  0 0.12499899E+03</rscale>
<asrwt>0</asrwt>
<pdfrwt beam="2">  1        4 0.39718130E-01 0.12499899E+03</pdfrwt>
<pdfrwt beam="1">  1       -4 0.23277563E-02 0.12499899E+03</pdfrwt>
<totfact> 0.79076960E+03</totfact>
</mgrwt>
</event>
<event>
 5    1  0.3239419E-002  0.1249947E+03  0.7818608E-02  0.1235078E+00
          4   -1    0    0  501    0  0.00000000000E+00  0.00000000000E+00  0.32263976851E+03  0.32264226803E+03  0.12700000000E+01 0.  1.
         -4   -1    0    0    0  501 -0.00000000000E+00 -0.00000000000E+00 -0.12070275913E+02  0.12136904903E+02  0.12700000000E+01 0.  1.
         25    2    1    2    0    0  0.00000000000E+00  0.00000000000E+00  0.31056949259E+03  0.33477917294E+03  0.12499473950E+03 0.  0.
    9000005    1    3    3    0    0  0.35049441253E+01 -0.44212150781E+02  0.27319046725E+03  0.27676891138E+03  0.10000000000E+01 0.  0.
    9000005    1    3    3    0    0 -0.35049441253E+01  0.44212150781E+02  0.37379025338E+02  0.58010261551E+02  0.10000000000E+01 0.  0.
<mgrwt>
<rscale>  0 0.12499474E+03</rscale>
<asrwt>0</asrwt>
<pdfrwt beam="1">  1        4 0.49642204E-01 0.12499474E+03</pdfrwt>
<pdfrwt beam="2">  1       -4 0.18622831E-02 0.12499474E+03</pdfrwt>
<totfact> 0.71440466E+03</totfact>
</mgrwt>
</event>
<event>
 5    1  0.3239419E-002  0.1250063E+03  0.7818608E-02  0.1235059E+00
         -4   -1    0    0    0  501 -0.00000000000E+00  0.00000000000E+00  0.65554829300E+02  0.65567130062E+02  0.12700000000E+01 0.  1.
          4   -1    0    0  501    0  0.00000000000E+00 -0.00000000000E+00 -0.59568848069E+02  0.59582384647E+02  0.12700000000E+01 0.  1.
         25    2    1    2    0    0  0.00000000000E+00  0.00000000000E+00  0.59859812312E+01  0.12514951471E+03  0.12500627608E+03 0.  0.
    9000005    1    3    3    0    0 -0.22635250400E+01 -0.34903257324E+02  0.54843080890E+02  0.65054780293E+02  0.10000000000E+01 0.  0.
    9000005    1    3    3    0    0  0.22635250400E+01  0.34903257324E+02 -0.48857099658E+02  0.60094734416E+02  0.10000000000E+01 0.  0.
<mgrwt>
<rscale>  0 0.12500628E+03</rscale>
<asrwt>0</asrwt>
<pdfrwt beam="2">  1        4 0.91664257E-02 0.12500628E+03</pdfrwt>
<pdfrwt beam="1">  1       -4 0.10087346E-01 0.12500628E+03</pdfrwt>
<totfact> 0.10448134E+04</totfact>
</mgrwt>
</event>
<event>
 4    1  0.3239419E-002  0.1255327E+03  0.7818608E-02  0.1234239E+00
         -4   -1    0    0    0  501 -0.00000000000E+00  0.00000000000E+00  0.12805235200E+03  0.12805864966E+03  0.12700000000E+01 0. -1.
          4   -1    0    0  501    0  0.00000000000E+00 -0.00000000000E+00 -0.30745489939E+02  0.30771708623E+02  0.12700000000E+01 0. -1.
    9000005    1    1    2    0    0 -0.59541876056E+02  0.22234358772E+01  0.23716890116E+02  0.64137894791E+02  0.10000000000E+01 0.  0.
    9000005    1    1    2    0    0  0.59541876056E+02 -0.22234358772E+01  0.73589971946E+02  0.94692463493E+02  0.10000000000E+01 0.  0.
<mgrwt>
<rscale>  0 0.12553269E+03</rscale>
<asrwt>0</asrwt>
<pdfrwt beam="2">  1        4 0.47325768E-02 0.12553269E+03</pdfrwt>
<pdfrwt beam="1">  1       -4 0.19702863E-01 0.12553269E+03</pdfrwt>
<totfact> 0.96409495E+03</totfact>
</mgrwt>
</event>
<event>
 5    1  0.3239419E-002  0.1250219E+03  0.7818608E-02  0.1235035E+00
         -4   -1    0    0    0  501 -0.00000000000E+00  0.00000000000E+00  0.56422555973E+02  0.56436847206E+02  0.12700000000E+01 0.  1.
          4   -1    0    0  501    0  0.00000000000E+00 -0.00000000000E+00 -0.69227477540E+02  0.69239125836E+02  0.12700000000E+01 0.  1.
         25    2    1    2    0    0  0.00000000000E+00  0.00000000000E+00 -0.12804921567E+02  0.12567597304E+03  0.12502193481E+03 0.  0.
    9000005    1    3    3    0    0 -0.59591516670E+01  0.43268154422E+02  0.38541347672E+02  0.58258734590E+02  0.10000000000E+01 0.  0.
    9000005    1    3    3    0    0  0.59591516670E+01 -0.43268154422E+02 -0.51346269239E+02  0.67417238452E+02  0.10000000000E+01 0.  0.
<mgrwt>
<rscale>  0 0.12502193E+03</rscale>
<asrwt>0</asrwt>
<pdfrwt beam="2">  1        4 0.10652376E-01 0.12502193E+03</pdfrwt>
<pdfrwt beam="1">  1       -4 0.86823886E-02 0.12502193E+03</pdfrwt>
<totfact> 0.10432910E+04</totfact>
</mgrwt>
</event>
<event>
 5    1  0.3239419E-002  0.1249979E+03  0.7818608E-02  0.1235073E+00
         -4   -1    0    0    0  501 -0.00000000000E+00  0.00000000000E+00  0.40017592615E+03  0.40017794138E+03  0.12700000000E+01 0.  1.
          4   -1    0    0  501    0  0.00000000000E+00 -0.00000000000E+00 -0.97176388545E+01  0.98002757566E+01  0.12700000000E+01 0.  1.
         25    2    1    2    0    0  0.00000000000E+00  0.00000000000E+00  0.39045828730E+03  0.40997821714E+03  0.12499785763E+03 0.  0.
    9000005    1    3    3    0    0  0.48846089113E+02  0.28498513387E+01  0.32272562799E+03  0.32641521569E+03  0.10000000000E+01 0.  0.
    9000005    1    3    3    0    0 -0.48846089113E+02 -0.28498513387E+01  0.67732659305E+02  0.83563001446E+02  0.10000000000E+01 0.  0.
<mgrwt>
<rscale>  0 0.12499786E+03</rscale>
<asrwt>0</asrwt>
<pdfrwt beam="2">  1        4 0.15015331E-02 0.12499786E+03</pdfrwt>
<pdfrwt beam="1">  1       -4 0.61572039E-01 0.12499786E+03</pdfrwt>
<totfact> 0.63596758E+03</totfact>
</mgrwt>
</event>
<event>
 5    1  0.3239419E-002  0.1249997E+03  0.7818608E-02  0.1235070E+00
         -4   -1    0    0    0  501 -0.00000000000E+00  0.00000000000E+00  0.12908696661E+03  0.12909321380E+03  0.12700000000E+01 0. -1.
          4   -1    0    0  501    0  0.00000000000E+00 -0.00000000000E+00 -0.30240141719E+02  0.30266798165E+02  0.12700000000E+01 0. -1.
         25    2    1    2    0    0  0.00000000000E+00  0.00000000000E+00  0.98846824894E+02  0.15936001196E+03  0.12499967449E+03 0.  0.
    9000005    1    3    3    0    0  0.31448491667E+02  0.44534838053E+02  0.88362080147E+02  0.10383263763E+03  0.10000000000E+01 0.  0.
    9000005    1    3    3    0    0 -0.31448491667E+02 -0.44534838053E+02  0.10484744746E+02  0.55527374339E+02  0.10000000000E+01 0.  0.
<mgrwt>
<rscale>  0 0.12499967E+03</rscale>
<asrwt>0</asrwt>
<pdfrwt beam="2">  1        4 0.46548605E-02 0.12499967E+03</pdfrwt>
<pdfrwt beam="1">  1       -4 0.19862064E-01 0.12499967E+03</pdfrwt>
<totfact> 0.97467025E+03</totfact>
</mgrwt>
</event>
<event>
 5    1  0.3239419E-002  0.1250199E+03  0.7818608E-02  0.1235038E+00
         -4   -1    0    0    0  501 -0.00000000000E+00  0.00000000000E+00  0.14050320069E+03  0.14050894030E+03  0.12700000000E+01 0.  1.
          4   -1    0    0  501    0  0.00000000000E+00 -0.00000000000E+00 -0.27789904232E+02  0.27818908627E+02  0.12700000000E+01 0.  1.
         25    2    1    2    0    0  0.00000000000E+00  0.00000000000E+00  0.11271329646E+03  0.16832784893E+03  0.12501990852E+03 0.  0.
    9000005    1    3    3    0    0  0.49812136425E+02 -0.10354654093E+02  0.10523751315E+03  0.11689483295E+03  0.10000000000E+01 0.  0.
    9000005    1    3    3    0    0 -0.49812136425E+02  0.10354654093E+02  0.74757833119E+01  0.51433015980E+02  0.10000000000E+01 0.  0.
<mgrwt>
<rscale>  0 0.12501991E+03</rscale>
<asrwt>0</asrwt>
<pdfrwt beam="2">  1        4 0.42780426E-02 0.12501991E+03</pdfrwt>
<pdfrwt beam="1">  1       -4 0.21618549E-01 0.12501991E+03</pdfrwt>
<totfact> 0.95718037E+03</totfact>
</mgrwt>
</event>
<event>
 5    1  0.3239419E-002  0.1250009E+03  0.7818608E-02  0.1235068E+00
          4   -1    0    0  501    0  0.00000000000E+00  0.00000000000E+00  0.24695471620E+04  0.24695474885E+04  0.12700000000E+01 0.  1.
         -4   -1    0    0    0  501 -0.00000000000E+00 -0.00000000000E+00 -0.13264946071E+01  0.18364334844E+01  0.12700000000E+01 0.  1.
         25    2    1    2    0    0  0.00000000000E+00  0.00000000000E+00  0.24682206674E+04  0.24713839220E+04  0.12500090873E+03 0.  0.
    9000005    1    3    3    0    0 -0.55494256433E+01  0.93794961191E+01  0.24507110727E+04  0.24507355086E+04  0.10000000000E+01 0.  0.
    9000005    1    3    3    0    0  0.55494256433E+01 -0.93794961191E+01  0.17509594610E+02  0.20648413397E+02  0.10000000000E+01 0.  0.
<mgrwt>
<rscale>  0 0.12500091E+03</rscale>
<asrwt>0</asrwt>
<pdfrwt beam="1">  1        4 0.37996946E+00 0.12500091E+03</pdfrwt>
<pdfrwt beam="2">  1       -4 0.24332736E-03 0.12500091E+03</pdfrwt>
<totfact> 0.48980036E+02</totfact>
</mgrwt>
</event>
<event>
 5    1  0.3239419E-002  0.1250008E+03  0.7818608E-02  0.1235068E+00
          4   -1    0    0  501    0  0.00000000000E+00  0.00000000000E+00  0.18055905126E+02  0.18100514079E+02  0.12700000000E+01 0. -1.
         -4   -1    0    0    0  501 -0.00000000000E+00 -0.00000000000E+00 -0.21603137500E+03  0.21603510799E+03  0.12700000000E+01 0. -1.
         25    2    1    2    0    0  0.00000000000E+00  0.00000000000E+00 -0.19797546988E+03  0.23413562207E+03  0.12500081140E+03 0.  0.
    9000005    1    3    3    0    0  0.61469482571E+02 -0.11153302427E+02 -0.10189387848E+03  0.11952512671E+03  0.10000000000E+01 0.  0.
    9000005    1    3    3    0    0 -0.61469482571E+02  0.11153302427E+02 -0.96081591393E+02  0.11461049536E+03  0.10000000000E+01 0.  0.
<mgrwt>
<rscale>  0 0.12500081E+03</rscale>
<asrwt>0</asrwt>
<pdfrwt beam="1">  1        4 0.27815503E-02 0.12500081E+03</pdfrwt>
<pdfrwt beam="2">  1       -4 0.33239313E-01 0.12500081E+03</pdfrwt>
<totfact> 0.84677056E+03</totfact>
</mgrwt>
</event>
<event>
 5    1  0.3239419E-002  0.1250133E+03  0.7818608E-02  0.1235048E+00
         -4   -1    0    0    0  501 -0.00000000000E+00  0.00000000000E+00  0.44803436847E+02  0.44821432968E+02  0.12700000000E+01 0.  1.
          4   -1    0    0  501    0  0.00000000000E+00 -0.00000000000E+00 -0.87164876669E+02  0.87174128184E+02  0.12700000000E+01 0.  1.
         25    2    1    2    0    0  0.00000000000E+00  0.00000000000E+00 -0.42361439822E+02  0.13199556115E+03  0.12501334561E+03 0.  0.
    9000005    1    3    3    0    0 -0.10882417819E+02 -0.15294864383E+02  0.41761899388E+02  0.45797555989E+02  0.10000000000E+01 0.  0.
    9000005    1    3    3    0    0  0.10882417819E+02  0.15294864383E+02 -0.84123339210E+02  0.86198005162E+02  0.10000000000E+01 0.  0.
<mgrwt>
<rscale>  0 0.12501335E+03</rscale>
<asrwt>0</asrwt>
<pdfrwt beam="2">  1        4 0.13412077E-01 0.12501335E+03</pdfrwt>
<pdfrwt beam="1">  1       -4 0.68949324E-02 0.12501335E+03</pdfrwt>
<totfact> 0.10298692E+04</totfact>
</mgrwt>
</event>
<event>
 5    1  0.3239419E-002  0.1250018E+03  0.7818608E-02  0.1235067E+00
         -4   -1    0    0    0  501 -0.00000000000E+00  0.00000000000E+00  0.42209699698E+02  0.42228801174E+02  0.12700000000E+01 0.  1.
          4   -1    0    0  501    0  0.00000000000E+00 -0.00000000000E+00 -0.92502125375E+02  0.92510843143E+02  0.12700000000E+01 0.  1.
         25    2    1    2    0    0  0.00000000000E+00  0.00000000000E+00 -0.50292425678E+02  0.13473964432E+03  0.12500177467E+03 0.  0.
    9000005    1    3    3    0    0  0.50068247330E+02 -0.29825426823E+02 -0.82822529404E+00  0.58292979278E+02  0.10000000000E+01 0.  0.
    9000005    1    3    3    0    0 -0.50068247330E+02  0.29825426823E+02 -0.49464200384E+02  0.76446665039E+02  0.10000000000E+01 0.  0.
<mgrwt>
<rscale>  0 0.12500177E+03</rscale>
<asrwt>0</asrwt>
<pdfrwt beam="2">  1        4 0.14233236E-01 0.12500177E+03</pdfrwt>
<pdfrwt beam="1">  1       -4 0.64959399E-02 0.12500177E+03</pdfrwt>
<totfact> 0.10243151E+04</totfact>
</mgrwt>
</event>
<event>
 5    1  0.3239419E-002  0.1249998E+03  0.7818608E-02  0.1235070E+00
          4   -1    0    0  501    0  0.00000000000E+00  0.00000000000E+00  0.28438832147E+02  0.28467175375E+02  0.12700000000E+01 0. -1.
         -4   -1    0    0    0  501 -0.00000000000E+00 -0.00000000000E+00 -0.13725602134E+03  0.13726189673E+03  0.12700000000E+01 0. -1.
         25    2    1    2    0    0  0.00000000000E+00  0.00000000000E+00 -0.10881718919E+03  0.16572907210E+03  0.12499977871E+03 0.  0.
    9000005    1    3    3    0    0 -0.15087711956E+02 -0.67934597239E+01 -0.13430536991E+03  0.13532450825E+03  0.10000000000E+01 0.  0.
    9000005    1    3    3    0    0  0.15087711956E+02  0.67934597239E+01  0.25488180715E+02  0.30404563855E+02  0.10000000000E+01 0.  0.
<mgrwt>
<rscale>  0 0.12499978E+03</rscale>
<asrwt>0</asrwt>
<pdfrwt beam="1">  1        4 0.43778372E-02 0.12499978E+03</pdfrwt>
<pdfrwt beam="2">  1       -4 0.21118943E-01 0.12499978E+03</pdfrwt>
<totfact> 0.96249974E+03</totfact>
</mgrwt>
</event>
<event>
 5    1  0.3239419E-002  0.1249979E+03  0.7818608E-02  0.1235073E+00
         -4   -1    0    0    0  501 -0.00000000000E+00  0.00000000000E+00  0.59377083746E+02  0.59390664033E+02  0.12700000000E+01 0. -1.
          4   -1    0    0  501    0  0.00000000000E+00 -0.00000000000E+00 -0.65757670188E+02  0.65769933013E+02  0.12700000000E+01 0. -1.
         25    2    1    2    0    0  0.00000000000E+00  0.00000000000E+00 -0.63805864419E+01  0.12516059705E+03  0.12499785266E+03 0.  0.
    9000005    1    3    3    0    0 -0.96325768944E+01 -0.17465763210E+02 -0.62489661726E+02  0.65603332574E+02  0.10000000000E+01 0.  0.
    9000005    1    3    3    0    0  0.96325768944E+01  0.17465763210E+02  0.56109075285E+02  0.59557264472E+02  0.10000000000E+01 0.  0.
<mgrwt>
<rscale>  0 0.12499785E+03</rscale>
<asrwt>0</asrwt>
<pdfrwt beam="2">  1        4 0.10118553E-01 0.12499785E+03</pdfrwt>
<pdfrwt beam="1">  1       -4 0.91369238E-02 0.12499785E+03</pdfrwt>
<totfact> 0.10449883E+04</totfact>
</mgrwt>
</event>
<event>
 5    1  0.3239419E-002  0.1249974E+03  0.7818608E-02  0.1235073E+00
         -4   -1    0    0    0  501 -0.00000000000E+00  0.00000000000E+00  0.44842237033E+02  0.44860217589E+02  0.12700000000E+01 0.  1.
          4   -1    0    0  501    0  0.00000000000E+00 -0.00000000000E+00 -0.87067292124E+02  0.87076554007E+02  0.12700000000E+01 0.  1.
         25    2    1    2    0    0  0.00000000000E+00  0.00000000000E+00 -0.42225055090E+02  0.13193677160E+03  0.12499742566E+03 0.  0.
    9000005    1    3    3    0    0  0.47744438590E+01  0.28356871081E+02  0.37448933983E+02  0.47226370897E+02  0.10000000000E+01 0.  0.
    9000005    1    3    3    0    0 -0.47744438590E+01 -0.28356871081E+02 -0.79673989073E+02  0.84710400699E+02  0.10000000000E+01 0.  0.
<mgrwt>
<rscale>  0 0.12499743E+03</rscale>
<asrwt>0</asrwt>
<pdfrwt beam="2">  1        4 0.13397064E-01 0.12499743E+03</pdfrwt>
<pdfrwt beam="1">  1       -4 0.69009013E-02 0.12499743E+03</pdfrwt>
<totfact> 0.10303646E+04</totfact>
</mgrwt>
</event>
<event>
 5    1  0.3239419E-002  0.1249999E+03  0.7818608E-02  0.1235069E+00
         -4   -1    0    0    0  501 -0.00000000000E+00  0.00000000000E+00  0.45918842231E+01  0.47642733673E+01  0.12700000000E+01 0. -1.
          4   -1    0    0  501    0  0.00000000000E+00 -0.00000000000E+00 -0.83483778138E+03  0.83483874737E+03  0.12700000000E+01 0. -1.
         25    2    1    2    0    0  0.00000000000E+00  0.00000000000E+00 -0.83024589715E+03  0.83960302074E+03  0.12499993078E+03 0.  0.
    9000005    1    3    3    0    0  0.40094124646E+02 -0.36078159413E+02 -0.20313564063E+03  0.21017673732E+03  0.10000000000E+01 0.  0.
    9000005    1    3    3    0    0 -0.40094124646E+02  0.36078159413E+02 -0.62711025653E+03  0.62942628342E+03  0.10000000000E+01 0.  0.
<mgrwt>
<rscale>  0 0.12499993E+03</rscale>
<asrwt>0</asrwt>
<pdfrwt beam="2">  1        4 0.12844980E+00 0.12499993E+03</pdfrwt>
<pdfrwt beam="1">  1       -4 0.71977940E-03 0.12499993E+03</pdfrwt>
<totfact> 0.36556683E+03</totfact>
</mgrwt>
</event>
<event>
 5    1  0.3239419E-002  0.1250001E+03  0.7818608E-02  0.1235069E+00
          4   -1    0    0  501    0  0.00000000000E+00  0.00000000000E+00  0.86257796231E+01  0.87187713645E+01  0.12700000000E+01 0. -1.
         -4   -1    0    0    0  501 -0.00000000000E+00 -0.00000000000E+00 -0.45033643821E+03  0.45033822898E+03  0.12700000000E+01 0. -1.
         25    2    1    2    0    0  0.00000000000E+00  0.00000000000E+00 -0.44171065859E+03  0.45905700034E+03  0.12500009462E+03 0.  0.
    9000005    1    3    3    0    0  0.28589457424E+02  0.46464726738E+02 -0.10892512376E+03  0.12182779031E+03  0.10000000000E+01 0.  0.
    9000005    1    3    3    0    0 -0.28589457424E+02 -0.46464726738E+02 -0.33278553483E+03  0.33722921003E+03  0.10000000000E+01 0.  0.
<mgrwt>
<rscale>  0 0.12500009E+03</rscale>
<asrwt>0</asrwt>
<pdfrwt beam="1">  1        4 0.13343343E-02 0.12500009E+03</pdfrwt>
<pdfrwt beam="2">  1       -4 0.69289802E-01 0.12500009E+03</pdfrwt>
<totfact> 0.59187025E+03</totfact>
</mgrwt>
</event>
<event>
 5    1  0.3239419E-002  0.1250001E+03  0.7818608E-02  0.1235069E+00
          4   -1    0    0  501    0  0.00000000000E+00  0.00000000000E+00  0.11330612799E+02  0.11401565085E+02  0.12700000000E+01 0.  1.
         -4   -1    0    0    0  501 -0.00000000000E+00 -0.00000000000E+00 -0.34360443445E+03  0.34360678148E+03  0.12700000000E+01 0.  1.
         25    2    1    2    0    0  0.00000000000E+00  0.00000000000E+00 -0.33227382166E+03  0.35500834656E+03  0.12500013428E+03 0.  0.
    9000005    1    3    3    0    0 -0.46350275216E+02 -0.38471424907E+02 -0.21339303191E+03  0.22173404027E+03  0.10000000000E+01 0.  0.
    9000005    1    3    3    0    0  0.46350275216E+02  0.38471424907E+02 -0.11888078975E+03  0.13327430629E+03  0.10000000000E+01 0.  0.
<mgrwt>
<rscale>  0 0.12500013E+03</rscale>
<asrwt>0</asrwt>
<pdfrwt beam="1">  1        4 0.17488099E-02 0.12500013E+03</pdfrwt>
<pdfrwt beam="2">  1       -4 0.52867851E-01 0.12500013E+03</pdfrwt>
<totfact> 0.69176866E+03</totfact>
</mgrwt>
</event>
<event>
 5    1  0.3239419E-002  0.1249993E+03  0.7818608E-02  0.1235070E+00
         -4   -1    0    0    0  501 -0.00000000000E+00  0.00000000000E+00  0.14865293167E+02  0.14919445061E+02  0.12700000000E+01 0.  1.
          4   -1    0    0  501    0  0.00000000000E+00 -0.00000000000E+00 -0.26224026292E+03  0.26224333814E+03  0.12700000000E+01 0.  1.
         25    2    1    2    0    0  0.00000000000E+00  0.00000000000E+00 -0.24737496976E+03  0.27716278320E+03  0.12499933091E+03 0.  0.
    9000005    1    3    3    0    0 -0.11551740915E+02  0.61414698057E+02 -0.12364740995E+03  0.13854562368E+03  0.10000000000E+01 0.  0.
    9000005    1    3    3    0    0  0.11551740915E+02 -0.61414698057E+02 -0.12372755981E+03  0.13861715952E+03  0.10000000000E+01 0.  0.
<mgrwt>
<rscale>  0 0.12499933E+03</rscale>
<asrwt>0</asrwt>
<pdfrwt beam="2">  1        4 0.40349055E-01 0.12499933E+03</pdfrwt>
<pdfrwt beam="1">  1       -4 0.22913705E-02 0.12499933E+03</pdfrwt>
<totfact> 0.78556980E+03</totfact>
</mgrwt>
</event>
<event>
 5    1  0.3239419E-002  0.1249861E+03  0.7818608E-02  0.1235091E+00
          4   -1    0    0  501    0  0.00000000000E+00  0.00000000000E+00  0.62802627708E+03  0.62802756118E+03  0.12700000000E+01 0. -1.
         -4   -1    0    0    0  501 -0.00000000000E+00 -0.00000000000E+00 -0.61523489923E+01  0.62820616141E+01  0.12700000000E+01 0. -1.
         25    2    1    2    0    0  0.00000000000E+00  0.00000000000E+00  0.62187392809E+03  0.63430962279E+03  0.12498605976E+03 0.  0.
    9000005    1    3    3    0    0 -0.12123050888E+02  0.87408928025E+01  0.30274862073E+01  0.15281925355E+02  0.10000000000E+01 0.  0.
    9000005    1    3    3    0    0  0.12123050888E+02 -0.87408928025E+01  0.61884644188E+03  0.61902769744E+03  0.10000000000E+01 0.  0.
<mgrwt>
<rscale>  0 0.12498606E+03</rscale>
<asrwt>0</asrwt>
<pdfrwt beam="1">  1        4 0.96629488E-01 0.12498606E+03</pdfrwt>
<pdfrwt beam="2">  1       -4 0.95659206E-03 0.12498606E+03</pdfrwt>
<totfact> 0.46785411E+03</totfact>
</mgrwt>
</event>
<event>
 5    1  0.3239419E-002  0.1249942E+03  0.7818608E-02  0.1235078E+00
          4   -1    0    0  501    0  0.00000000000E+00  0.00000000000E+00  0.64387674214E+01  0.65628214898E+01  0.12700000000E+01 0. -1.
         -4   -1    0    0    0  501 -0.00000000000E+00 -0.00000000000E+00 -0.60070771300E+03  0.60070905550E+03  0.12700000000E+01 0. -1.
         25    2    1    2    0    0  0.00000000000E+00  0.00000000000E+00 -0.59426894558E+03  0.60727187699E+03  0.12499421147E+03 0.  0.
    9000005    1    3    3    0    0 -0.29352071577E+02 -0.53144368208E+02 -0.36903555061E+03  0.37399746736E+03  0.10000000000E+01 0.  0.
    9000005    1    3    3    0    0  0.29352071577E+02  0.53144368208E+02 -0.22523339497E+03  0.23327440963E+03  0.10000000000E+01 0.  0.
<mgrwt>
<rscale>  0 0.12499421E+03</rscale>
<asrwt>0</asrwt>
<pdfrwt beam="1">  1        4 0.10002260E-02 0.12499421E+03</pdfrwt>
<pdfrwt beam="2">  1       -4 0.92426174E-01 0.12499421E+03</pdfrwt>
<totfact> 0.48417944E+03</totfact>
</mgrwt>
</event>
<event>
 5    1  0.3239419E-002  0.1249999E+03  0.7818608E-02  0.1235069E+00
          4   -1    0    0  501    0  0.00000000000E+00  0.00000000000E+00  0.12376396448E+02  0.12441386139E+02  0.12700000000E+01 0. -1.
         -4   -1    0    0    0  501 -0.00000000000E+00 -0.00000000000E+00 -0.31472780427E+03  0.31473036663E+03  0.12700000000E+01 0. -1.
         25    2    1    2    0    0  0.00000000000E+00  0.00000000000E+00 -0.30235140782E+03  0.32717175277E+03  0.12499992800E+03 0.  0.
    9000005    1    3    3    0    0  0.50060464799E+02  0.35413143230E+02 -0.18270445034E+03  0.19272274651E+03  0.10000000000E+01 0.  0.
    9000005    1    3    3    0    0 -0.50060464799E+02 -0.35413143230E+02 -0.11964695748E+03  0.13444900626E+03  0.10000000000E+01 0.  0.
<mgrwt>
<rscale>  0 0.12499993E+03</rscale>
<asrwt>0</asrwt>
<pdfrwt beam="1">  1        4 0.19092575E-02 0.12499993E+03</pdfrwt>
<pdfrwt beam="2">  1       -4 0.48424853E-01 0.12499993E+03</pdfrwt>
<totfact> 0.72311300E+03</totfact>
</mgrwt>
</event>
<event>
 5    1  0.3239419E-002  0.1250002E+03  0.7818608E-02  0.1235069E+00
          4   -1    0    0  501    0  0.00000000000E+00  0.00000000000E+00  0.31571132377E+02  0.31596665956E+02  0.12700000000E+01 0.  1.
         -4   -1    0    0    0  501 -0.00000000000E+00 -0.00000000000E+00 -0.12365010944E+03  0.12365663131E+03  0.12700000000E+01 0.  1.
         25    2    1    2    0    0  0.00000000000E+00  0.00000000000E+00 -0.92078977068E+02  0.15525329726E+03  0.12500019317E+03 0.  0.
    9000005    1    3    3    0    0  0.15273902028E+02  0.55447383488E+02 -0.76400767009E+02  0.95633579973E+02  0.10000000000E+01 0.  0.
    9000005    1    3    3    0    0 -0.15273902028E+02 -0.55447383488E+02 -0.15678210059E+02  0.59619717288E+02  0.10000000000E+01 0.  0.
<mgrwt>
<rscale>  0 0.12500019E+03</rscale>
<asrwt>0</asrwt>
<pdfrwt beam="1">  1        4 0.48595632E-02 0.12500019E+03</pdfrwt>
<pdfrwt beam="2">  1       -4 0.19025559E-01 0.12500019E+03</pdfrwt>
<totfact> 0.98265370E+03</totfact>
</mgrwt>
</event>
<event>
 5    1  0.3239419E-002  0.1249895E+03  0.7818608E-02  0.1235086E+00
          4   -1    0    0  501    0  0.00000000000E+00  0.00000000000E+00  0.36782427313E+02  0.36804345654E+02  0.12700000000E+01 0.  1.
         -4   -1    0    0    0  501 -0.00000000000E+00 -0.00000000000E+00 -0.10612356718E+03  0.10613116607E+03  0.12700000000E+01 0.  1.
         25    2    1    2    0    0  0.00000000000E+00  0.00000000000E+00 -0.69341139869E+02  0.14293551172E+03  0.12498946689E+03 0.  0.
    9000005    1    3    3    0    0 -0.11465636441E+02  0.26643083297E+02  0.28623039135E+02  0.40762643141E+02  0.10000000000E+01 0.  0.
    9000005    1    3    3    0    0  0.11465636441E+02 -0.26643083297E+02 -0.97964179004E+02  0.10217286858E+03  0.10000000000E+01 0.  0.
<mgrwt>
<rscale>  0 0.12498947E+03</rscale>
<asrwt>0</asrwt>
<pdfrwt beam="1">  1        4 0.56611056E-02 0.12498947E+03</pdfrwt>
<pdfrwt beam="2">  1       -4 0.16328973E-01 0.12498947E+03</pdfrwt>
<totfact> 0.10075494E+04</totfact>
</mgrwt>
</event>
<event>
 5    1  0.3239419E-002  0.1249973E+03  0.7818608E-02  0.1235073E+00
          4   -1    0    0  501    0  0.00000000000E+00  0.00000000000E+00  0.44856947866E+02  0.44874922527E+02  0.12700000000E+01 0.  1.
         -4   -1    0    0    0  501 -0.00000000000E+00 -0.00000000000E+00 -0.87038634145E+02  0.87047899077E+02  0.12700000000E+01 0.  1.
         25    2    1    2    0    0  0.00000000000E+00  0.00000000000E+00 -0.42181686279E+02  0.13192282160E+03  0.12499734478E+03 0.  0.
    9000005    1    3    3    0    0  0.50702610955E+02  0.33082696755E+01 -0.59484739605E+02  0.78237674121E+02  0.10000000000E+01 0.  0.
    9000005    1    3    3    0    0 -0.50702610955E+02 -0.33082696755E+01  0.17303053326E+02  0.53685147484E+02  0.10000000000E+01 0.  0.
<mgrwt>
<rscale>  0 0.12499734E+03</rscale>
<asrwt>0</asrwt>
<pdfrwt beam="1">  1        4 0.69031643E-02 0.12499734E+03</pdfrwt>
<pdfrwt beam="2">  1       -4 0.13392654E-01 0.12499734E+03</pdfrwt>
<totfact> 0.10303963E+04</totfact>
</mgrwt>
</event>
<event>
 5    1  0.3239419E-002  0.1250006E+03  0.7818608E-02  0.1235068E+00
         -4   -1    0    0    0  501 -0.00000000000E+00  0.00000000000E+00  0.27524896018E+03  0.27525189006E+03  0.12700000000E+01 0.  1.
          4   -1    0    0  501    0  0.00000000000E+00 -0.00000000000E+00 -0.14160415460E+02  0.14217252407E+02  0.12700000000E+01 0.  1.
         25    2    1    2    0    0  0.00000000000E+00  0.00000000000E+00  0.26108854472E+03  0.28946914247E+03  0.12500062502E+03 0.  0.
    9000005    1    3    3    0    0 -0.21754876204E+02  0.46986538532E+02  0.49517152807E+02  0.71651642437E+02  0.10000000000E+01 0.  0.
    9000005    1    3    3    0    0  0.21754876204E+02 -0.46986538532E+02  0.21157139192E+03  0.21781750003E+03  0.10000000000E+01 0.  0.
<mgrwt>
<rscale>  0 0.12500063E+03</rscale>
<asrwt>0</asrwt>
<pdfrwt beam="2">  1        4 0.21831231E-02 0.12500063E+03</pdfrwt>
<pdfrwt beam="1">  1       -4 0.42350587E-01 0.12500063E+03</pdfrwt>
<totfact> 0.76938021E+03</totfact>
</mgrwt>
</event>
<event>
 5    1  0.3239419E-002  0.1250026E+03  0.7818608E-02  0.1235065E+00
         -4   -1    0    0    0  501 -0.00000000000E+00  0.00000000000E+00  0.48496921301E+01  0.50132238886E+01  0.12700000000E+01 0.  1.
          4   -1    0    0  501    0  0.00000000000E+00 -0.00000000000E+00 -0.79197805635E+03  0.79197907462E+03  0.12700000000E+01 0.  1.
         25    2    1    2    0    0  0.00000000000E+00  0.00000000000E+00 -0.78712836422E+03  0.79699229851E+03  0.12500264848E+03 0.  0.
    9000005    1    3    3    0    0  0.42101514450E+02  0.37776344443E+02 -0.56295258713E+03  0.56578812737E+03  0.10000000000E+01 0.  0.
    9000005    1    3    3    0    0 -0.42101514450E+02 -0.37776344443E+02 -0.22417577709E+03  0.23120417114E+03  0.10000000000E+01 0.  0.
<mgrwt>
<rscale>  0 0.12500265E+03</rscale>
<asrwt>0</asrwt>
<pdfrwt beam="2">  1        4 0.12185533E+00 0.12500265E+03</pdfrwt>
<pdfrwt beam="1">  1       -4 0.75876481E-03 0.12500265E+03</pdfrwt>
<totfact> 0.38397156E+03</totfact>
</mgrwt>
</event>
<event>
 5    1  0.3239419E-002  0.1250009E+03  0.7818608E-02  0.1235068E+00
         -4   -1    0    0    0  501 -0.00000000000E+00  0.00000000000E+00  0.24304499164E+02  0.24337657645E+02  0.12700000000E+01 0.  1.
          4   -1    0    0  501    0  0.00000000000E+00 -0.00000000000E+00 -0.16057829451E+03  0.16058331659E+03  0.12700000000E+01 0.  1.
         25    2    1    2    0    0  0.00000000000E+00  0.00000000000E+00 -0.13627379535E+03  0.18492097424E+03  0.12500087766E+03 0.  0.
    9000005    1    3    3    0    0  0.33500841064E+02  0.48834880770E+02 -0.97655654552E+02  0.11421374172E+03  0.10000000000E+01 0.  0.
    9000005    1    3    3    0    0 -0.33500841064E+02 -0.48834880770E+02 -0.38618140794E+02  0.70707232517E+02  0.10000000000E+01 0.  0.
<mgrwt>
<rscale>  0 0.12500088E+03</rscale>
<asrwt>0</asrwt>
<pdfrwt beam="2">  1        4 0.24707289E-01 0.12500088E+03</pdfrwt>
<pdfrwt beam="1">  1       -4 0.37420908E-02 0.12500088E+03</pdfrwt>
<totfact> 0.92736813E+03</totfact>
</mgrwt>
</event>
<event>
 5    1  0.3239419E-002  0.1249822E+03  0.7818608E-02  0.1235097E+00
          4   -1    0    0  501    0  0.00000000000E+00  0.00000000000E+00  0.66931625131E+02  0.66943672910E+02  0.12700000000E+01 0.  1.
         -4   -1    0    0    0  501 -0.00000000000E+00 -0.00000000000E+00 -0.58320968095E+02  0.58334794245E+02  0.12700000000E+01 0.  1.
         25    2    1    2    0    0  0.00000000000E+00  0.00000000000E+00  0.86106570363E+01  0.12527846716E+03  0.12498220241E+03 0.  0.
    9000005    1    3    3    0    0  0.71566438802E+01  0.42585423813E+02  0.49572114783E+02  0.65750516630E+02  0.10000000000E+01 0.  0.
    9000005    1    3    3    0    0 -0.71566438802E+01 -0.42585423813E+02 -0.40961457747E+02  0.59527950525E+02  0.10000000000E+01 0.  0.
<mgrwt>
<rscale>  0 0.12498220E+03</rscale>
<asrwt>0</asrwt>
<pdfrwt beam="1">  1        4 0.10299163E-01 0.12498220E+03</pdfrwt>
<pdfrwt beam="2">  1       -4 0.89744469E-02 0.12498220E+03</pdfrwt>
<totfact> 0.10451020E+04</totfact>
</mgrwt>
</event>
<event>
 5    1  0.3239419E-002  0.1250004E+03  0.7818608E-02  0.1235069E+00
          4   -1    0    0  501    0  0.00000000000E+00  0.00000000000E+00  0.70584356556E+01  0.71717789916E+01  0.12700000000E+01 0.  1.
         -4   -1    0    0    0  501 -0.00000000000E+00 -0.00000000000E+00 -0.54889710494E+03  0.54889857416E+03  0.12700000000E+01 0.  1.
         25    2    1    2    0    0  0.00000000000E+00  0.00000000000E+00 -0.54183866929E+03  0.55607035315E+03  0.12500037647E+03 0.  0.
    9000005    1    3    3    0    0 -0.19467843871E+02 -0.58045568495E+02 -0.21518120042E+03  0.22372356600E+03  0.10000000000E+01 0.  0.
    9000005    1    3    3    0    0  0.19467843871E+02  0.58045568495E+02 -0.32665746886E+03  0.33234678715E+03  0.10000000000E+01 0.  0.
<mgrwt>
<rscale>  0 0.12500038E+03</rscale>
<asrwt>0</asrwt>
<pdfrwt beam="1">  1        4 0.10947453E-02 0.12500038E+03</pdfrwt>
<pdfrwt beam="2">  1       -4 0.84454507E-01 0.12500038E+03</pdfrwt>
<totfact> 0.51763012E+03</totfact>
</mgrwt>
</event>
<event>
 5    1  0.3239419E-002  0.1249863E+03  0.7818608E-02  0.1235091E+00
          4   -1    0    0  501    0  0.00000000000E+00  0.00000000000E+00  0.39964831509E+02  0.39985005409E+02  0.12700000000E+01 0. -1.
         -4   -1    0    0    0  501 -0.00000000000E+00 -0.00000000000E+00 -0.97671837521E+02  0.97680093902E+02  0.12700000000E+01 0. -1.
         25    2    1    2    0    0  0.00000000000E+00  0.00000000000E+00 -0.57707006012E+02  0.13766509931E+03  0.12498632335E+03 0.  0.
    9000005    1    3    3    0    0  0.22325372894E+02 -0.55177591400E+02 -0.49792663819E+02  0.77609910693E+02  0.10000000000E+01 0.  0.
    9000005    1    3    3    0    0 -0.22325372894E+02  0.55177591400E+02 -0.79143421935E+01  0.60055188618E+02  0.10000000000E+01 0.  0.
<mgrwt>
<rscale>  0 0.12498632E+03</rscale>
<asrwt>0</asrwt>
<pdfrwt beam="1">  1        4 0.61506226E-02 0.12498632E+03</pdfrwt>
<pdfrwt beam="2">  1       -4 0.15028623E-01 0.12498632E+03</pdfrwt>
<totfact> 0.10185338E+04</totfact>
</mgrwt>
</event>
<event>
 4    1  0.3239419E-002  0.1248924E+03  0.7818608E-02  0.1235238E+00
          4   -1    0    0  501    0  0.00000000000E+00  0.00000000000E+00  0.12676579903E+02  0.12740038384E+02  0.12700000000E+01 0. -1.
         -4   -1    0    0    0  501 -0.00000000000E+00 -0.00000000000E+00 -0.30678397577E+03  0.30678660449E+03  0.12700000000E+01 0. -1.
    9000005    1    1    2    0    0  0.19899009874E+02  0.34150388864E+02 -0.23391725500E+02  0.45939008210E+02  0.10000000000E+01 0.  0.
    9000005    1    1    2    0    0 -0.19899009874E+02 -0.34150388864E+02 -0.27071567037E+03  0.27358763466E+03  0.10000000000E+01 0.  0.
<mgrwt>
<rscale>  0 0.12489241E+03</rscale>
<asrwt>0</asrwt>
<pdfrwt beam="1">  1        4 0.19553269E-02 0.12489241E+03</pdfrwt>
<pdfrwt beam="2">  1       -4 0.47202613E-01 0.12489241E+03</pdfrwt>
<totfact> 0.73387344E+03</totfact>
</mgrwt>
</event>
<event>
 5    1  0.3239419E-002  0.1250001E+03  0.7818608E-02  0.1235069E+00
         -4   -1    0    0    0  501 -0.00000000000E+00  0.00000000000E+00  0.42387234958E+03  0.42387425215E+03  0.12700000000E+01 0.  1.
          4   -1    0    0  501    0  0.00000000000E+00 -0.00000000000E+00 -0.91699626883E+01  0.92574897086E+01  0.12700000000E+01 0.  1.
         25    2    1    2    0    0  0.00000000000E+00  0.00000000000E+00  0.41470238689E+03  0.43313174186E+03  0.12500014446E+03 0.  0.
    9000005    1    3    3    0    0 -0.33672132716E+02  0.69119800687E-01  0.24935426710E+02  0.41911726335E+02  0.10000000000E+01 0.  0.
    9000005    1    3    3    0    0  0.33672132716E+02 -0.69119800687E-01  0.38976696018E+03  0.39122001553E+03  0.10000000000E+01 0.  0.
<mgrwt>
<rscale>  0 0.12500014E+03</rscale>
<asrwt>0</asrwt>
<pdfrwt beam="2">  1        4 0.14176428E-02 0.12500014E+03</pdfrwt>
<pdfrwt beam="1">  1       -4 0.65218003E-01 0.12500014E+03</pdfrwt>
<totfact> 0.61452947E+03</totfact>
</mgrwt>
</event>
<event>
 5    1  0.3239419E-002  0.1250039E+03  0.7818608E-02  0.1235063E+00
         -4   -1    0    0    0  501 -0.00000000000E+00  0.00000000000E+00  0.36937089953E+01  0.39059424141E+01  0.12700000000E+01 0.  1.
          4   -1    0    0  501    0  0.00000000000E+00 -0.00000000000E+00 -0.10278587051E+04  0.10278594897E+04  0.12700000000E+01 0.  1.
         25    2    1    2    0    0  0.00000000000E+00  0.00000000000E+00 -0.10241649961E+04  0.10317654321E+04  0.12500387051E+03 0.  0.
    9000005    1    3    3    0    0 -0.33775972696E+02  0.31116935186E+02 -0.16224973717E+03  0.16862697649E+03  0.10000000000E+01 0.  0.
    9000005    1    3    3    0    0  0.33775972696E+02 -0.31116935186E+02 -0.86191525897E+03  0.86313845566E+03  0.10000000000E+01 0.  0.
<mgrwt>
<rscale>  0 0.12500387E+03</rscale>
<asrwt>0</asrwt>
<pdfrwt beam="2">  1        4 0.15814827E+00 0.12500387E+03</pdfrwt>
<pdfrwt beam="1">  1       -4 0.58464974E-03 0.12500387E+03</pdfrwt>
<totfact> 0.29568569E+03</totfact>
</mgrwt>
</event>
<event>
 5    1  0.3239419E-002  0.1249997E+03  0.7818608E-02  0.1235070E+00
         -4   -1    0    0    0  501 -0.00000000000E+00  0.00000000000E+00  0.50744655034E+02  0.50760544860E+02  0.12700000000E+01 0. -1.
          4   -1    0    0  501    0  0.00000000000E+00 -0.00000000000E+00 -0.76945054753E+02  0.76955534895E+02  0.12700000000E+01 0. -1.
         25    2    1    2    0    0  0.00000000000E+00  0.00000000000E+00 -0.26200399720E+02  0.12771607975E+03  0.12499974433E+03 0.  0.
    9000005    1    3    3    0    0 -0.52068765015E+02  0.12410496123E+02  0.19850534000E+02  0.57098339769E+02  0.10000000000E+01 0.  0.
    9000005    1    3    3    0    0  0.52068765015E+02 -0.12410496123E+02 -0.46050933720E+02  0.70617739986E+02  0.10000000000E+01 0.  0.
<mgrwt>
<rscale>  0 0.12499974E+03</rscale>
<asrwt>0</asrwt>
<pdfrwt beam="2">  1        4 0.11839729E-01 0.12499974E+03</pdfrwt>
<pdfrwt beam="1">  1       -4 0.78088985E-02 0.12499974E+03</pdfrwt>
<totfact> 0.10393684E+04</totfact>
</mgrwt>
</event>
<event>
 5    1  0.3239419E-002  0.1249997E+03  0.7818608E-02  0.1235070E+00
          4   -1    0    0  501    0  0.00000000000E+00  0.00000000000E+00  0.14610526320E+04  0.14610531839E+04  0.12700000000E+01 0.  1.
         -4   -1    0    0    0  501 -0.00000000000E+00 -0.00000000000E+00 -0.25221728385E+01  0.28238724878E+01  0.12700000000E+01 0.  1.
         25    2    1    2    0    0  0.00000000000E+00  0.00000000000E+00  0.14585304591E+04  0.14638770564E+04  0.12499974443E+03 0.  0.
    9000005    1    3    3    0    0 -0.50237643231E+02 -0.31416078660E+02  0.49667700009E+03  0.50019979330E+03  0.10000000000E+01 0.  0.
    9000005    1    3    3    0    0  0.50237643231E+02  0.31416078660E+02  0.96185345903E+03  0.96367726312E+03  0.10000000000E+01 0.  0.
<mgrwt>
<rscale>  0 0.12499974E+03</rscale>
<asrwt>0</asrwt>
<pdfrwt beam="1">  1        4 0.22480040E+00 0.12499974E+03</pdfrwt>
<pdfrwt beam="2">  1       -4 0.41127705E-03 0.12499974E+03</pdfrwt>
<totfact> 0.18650417E+03</totfact>
</mgrwt>
</event>
<event>
 5    1  0.3239419E-002  0.1249895E+03  0.7818608E-02  0.1235086E+00
         -4   -1    0    0    0  501 -0.00000000000E+00  0.00000000000E+00  0.26681454095E+02  0.26711662109E+02  0.12700000000E+01 0. -1.
          4   -1    0    0  501    0  0.00000000000E+00 -0.00000000000E+00 -0.14626291069E+03  0.14626842429E+03  0.12700000000E+01 0. -1.
         25    2    1    2    0    0  0.00000000000E+00  0.00000000000E+00 -0.11958145660E+03  0.17298008640E+03  0.12498954168E+03 0.  0.
    9000005    1    3    3    0    0 -0.16274889574E+02  0.23075259367E+02 -0.13693630051E+03  0.13982092126E+03  0.10000000000E+01 0.  0.
    9000005    1    3    3    0    0  0.16274889574E+02 -0.23075259367E+02  0.17354843910E+02  0.33159165138E+02  0.10000000000E+01 0.  0.
<mgrwt>
<rscale>  0 0.12498954E+03</rscale>
<asrwt>0</asrwt>
<pdfrwt beam="2">  1        4 0.22504734E-01 0.12498954E+03</pdfrwt>
<pdfrwt beam="1">  1       -4 0.41075870E-02 0.12498954E+03</pdfrwt>
<totfact> 0.94918363E+03</totfact>
</mgrwt>
</event>
<event>
 5    1  0.3239419E-002  0.1250035E+03  0.7818608E-02  0.1235064E+00
         -4   -1    0    0    0  501 -0.00000000000E+00  0.00000000000E+00  0.27235378176E+02  0.27264972481E+02  0.12700000000E+01 0. -1.
          4   -1    0    0  501    0  0.00000000000E+00 -0.00000000000E+00 -0.14332321806E+03  0.14332884474E+03  0.12700000000E+01 0. -1.
         25    2    1    2    0    0  0.00000000000E+00  0.00000000000E+00 -0.11608783988E+03  0.17059381722E+03  0.12500345557E+03 0.  0.
    9000005    1    3    3    0    0  0.12375331629E+02 -0.42342829187E+02 -0.11845311341E+03  0.12640492115E+03  0.10000000000E+01 0.  0.
    9000005    1    3    3    0    0 -0.12375331629E+02  0.42342829187E+02  0.23652735262E+01  0.44188896064E+02  0.10000000000E+01 0.  0.
<mgrwt>
<rscale>  0 0.12500346E+03</rscale>
<asrwt>0</asrwt>
<pdfrwt beam="2">  1        4 0.22052435E-01 0.12500346E+03</pdfrwt>
<pdfrwt beam="1">  1       -4 0.41927676E-02 0.12500346E+03</pdfrwt>
<totfact> 0.95330679E+03</totfact>
</mgrwt>
</event>
<event>
 5    1  0.3239419E-002  0.1249963E+03  0.7818608E-02  0.1235075E+00
          4   -1    0    0  501    0  0.00000000000E+00  0.00000000000E+00  0.63458616461E+02  0.63471323471E+02  0.12700000000E+01 0.  1.
         -4   -1    0    0    0  501 -0.00000000000E+00 -0.00000000000E+00 -0.61526768616E+02  0.61539874523E+02  0.12700000000E+01 0.  1.
         25    2    1    2    0    0  0.00000000000E+00  0.00000000000E+00  0.19318478450E+01  0.12501119799E+03  0.12499627029E+03 0.  0.
    9000005    1    3    3    0    0  0.44564565898E+02 -0.20400314524E+02 -0.37805231679E+02  0.61906452883E+02  0.10000000000E+01 0.  0.
    9000005    1    3    3    0    0 -0.44564565898E+02  0.20400314524E+02  0.39737079524E+02  0.63104745110E+02  0.10000000000E+01 0.  0.
<mgrwt>
<rscale>  0 0.12499627E+03</rscale>
<asrwt>0</asrwt>
<pdfrwt beam="1">  1        4 0.97648496E-02 0.12499627E+03</pdfrwt>
<pdfrwt beam="2">  1       -4 0.94676424E-02 0.12499627E+03</pdfrwt>
<totfact> 0.10453500E+04</totfact>
</mgrwt>
</event>
<event>
 5    1  0.3239419E-002  0.1250028E+03  0.7818608E-02  0.1235065E+00
         -4   -1    0    0    0  501 -0.00000000000E+00  0.00000000000E+00  0.41234107019E+02  0.41253660221E+02  0.12700000000E+01 0.  1.
          4   -1    0    0  501    0  0.00000000000E+00 -0.00000000000E+00 -0.94691460928E+02  0.94699977152E+02  0.12700000000E+01 0.  1.
         25    2    1    2    0    0  0.00000000000E+00  0.00000000000E+00 -0.53457353909E+02  0.13595363737E+03  0.12500281128E+03 0.  0.
    9000005    1    3    3    0    0  0.61282739195E+02 -0.11492904816E+02 -0.31312736679E+02  0.69779283908E+02  0.10000000000E+01 0.  0.
    9000005    1    3    3    0    0 -0.61282739195E+02  0.11492904816E+02 -0.22144617230E+02  0.66174353466E+02  0.10000000000E+01 0.  0.
<mgrwt>
<rscale>  0 0.12500281E+03</rscale>
<asrwt>0</asrwt>
<pdfrwt beam="2">  1        4 0.14570076E-01 0.12500281E+03</pdfrwt>
<pdfrwt beam="1">  1       -4 0.63458680E-02 0.12500281E+03</pdfrwt>
<totfact> 0.10217362E+04</totfact>
</mgrwt>
</event>
<event>
 5    1  0.3239419E-002  0.1250021E+03  0.7818608E-02  0.1235066E+00
          4   -1    0    0  501    0  0.00000000000E+00  0.00000000000E+00  0.11435253038E+03  0.11435958247E+03  0.12700000000E+01 0.  1.
         -4   -1    0    0    0  501 -0.00000000000E+00 -0.00000000000E+00 -0.34140926079E+02  0.34164539124E+02  0.12700000000E+01 0.  1.
         25    2    1    2    0    0  0.00000000000E+00  0.00000000000E+00  0.80211604297E+02  0.14852412160E+03  0.12500205291E+03 0.  0.
    9000005    1    3    3    0    0 -0.32673925614E+02 -0.45105326775E+02  0.64298893329E+01  0.56075122785E+02  0.10000000000E+01 0.  0.
    9000005    1    3    3    0    0  0.32673925614E+02  0.45105326775E+02  0.73781714964E+02  0.92448998813E+02  0.10000000000E+01 0.  0.
<mgrwt>
<rscale>  0 0.12500205E+03</rscale>
<asrwt>0</asrwt>
<pdfrwt beam="1">  1        4 0.17595056E-01 0.12500205E+03</pdfrwt>
<pdfrwt beam="2">  1       -4 0.52548090E-02 0.12500205E+03</pdfrwt>
<totfact> 0.99594107E+03</totfact>
</mgrwt>
</event>
<event>
 5    1  0.3239419E-002  0.1249939E+03  0.7818608E-02  0.1235079E+00
          4   -1    0    0  501    0  0.00000000000E+00  0.00000000000E+00  0.92967289131E+02  0.92975963283E+02  0.12700000000E+01 0. -1.
         -4   -1    0    0    0  501 -0.00000000000E+00 -0.00000000000E+00 -0.41993103542E+02  0.42012303497E+02  0.12700000000E+01 0. -1.
         25    2    1    2    0    0  0.00000000000E+00  0.00000000000E+00  0.50974185589E+02  0.13498826678E+03  0.12499385814E+03 0.  0.
    9000005    1    3    3    0    0  0.43474237152E+02 -0.25484054186E+02  0.65393299747E+02  0.82563490512E+02  0.10000000000E+01 0.  0.
    9000005    1    3    3    0    0 -0.43474237152E+02  0.25484054186E+02 -0.14419114157E+02  0.52424776269E+02  0.10000000000E+01 0.  0.
<mgrwt>
<rscale>  0 0.12499386E+03</rscale>
<asrwt>0</asrwt>
<pdfrwt beam="1">  1        4 0.14304804E-01 0.12499386E+03</pdfrwt>
<pdfrwt beam="2">  1       -4 0.64626217E-02 0.12499386E+03</pdfrwt>
<totfact> 0.10239737E+04</totfact>
</mgrwt>
</event>
<event>
 5    1  0.3239419E-002  0.1249680E+03  0.7818608E-02  0.1235119E+00
          4   -1    0    0  501    0  0.00000000000E+00  0.00000000000E+00  0.32350959165E+03  0.32351208446E+03  0.12700000000E+01 0. -1.
         -4   -1    0    0    0  501 -0.00000000000E+00 -0.00000000000E+00 -0.12032458650E+02  0.12099295895E+02  0.12700000000E+01 0. -1.
         25    2    1    2    0    0  0.00000000000E+00  0.00000000000E+00  0.31147713300E+03  0.33561138035E+03  0.12496797286E+03 0.  0.
    9000005    1    3    3    0    0 -0.61372724842E+02  0.30827131093E+01  0.18601947879E+03  0.19590906300E+03  0.10000000000E+01 0.  0.
    9000005    1    3    3    0    0  0.61372724842E+02 -0.30827131093E+01  0.12545765421E+03  0.13970231735E+03  0.10000000000E+01 0.  0.
<mgrwt>
<rscale>  0 0.12496797E+03</rscale>
<asrwt>0</asrwt>
<pdfrwt beam="1">  1        4 0.49776036E-01 0.12496797E+03</pdfrwt>
<pdfrwt beam="2">  1       -4 0.18564807E-02 0.12496797E+03</pdfrwt>
<totfact> 0.71387662E+03</totfact>
</mgrwt>
</event>
<event>
 5    1  0.3239419E-002  0.1250042E+03  0.7818608E-02  0.1235063E+00
          4   -1    0    0  501    0  0.00000000000E+00  0.00000000000E+00  0.22505834103E+03  0.22506192430E+03  0.12700000000E+01 0. -1.
         -4   -1    0    0    0  501 -0.00000000000E+00 -0.00000000000E+00 -0.17330833266E+02  0.17377303637E+02  0.12700000000E+01 0. -1.
         25    2    1    2    0    0  0.00000000000E+00  0.00000000000E+00  0.20772750777E+03  0.24243922794E+03  0.12500424696E+03 0.  0.
    9000005    1    3    3    0    0  0.27570191967E+02  0.26579691614E+02  0.80832986178E+01  0.39152716482E+02  0.10000000000E+01 0.  0.
    9000005    1    3    3    0    0 -0.27570191967E+02 -0.26579691614E+02  0.19964420915E+03  0.20328651145E+03  0.10000000000E+01 0.  0.
<mgrwt>
<rscale>  0 0.12500425E+03</rscale>
<asrwt>0</asrwt>
<pdfrwt beam="1">  1        4 0.34628212E-01 0.12500425E+03</pdfrwt>
<pdfrwt beam="2">  1       -4 0.26701322E-02 0.12500425E+03</pdfrwt>
<totfact> 0.83427524E+03</totfact>
</mgrwt>
</event>
<event>
 5    1  0.3239419E-002  0.1250013E+03  0.7818608E-02  0.1235067E+00
          4   -1    0    0  501    0  0.00000000000E+00  0.00000000000E+00  0.34406837119E+02  0.34430267796E+02  0.12700000000E+01 0.  1.
         -4   -1    0    0    0  501 -0.00000000000E+00 -0.00000000000E+00 -0.11346798132E+03  0.11347508839E+03  0.12700000000E+01 0.  1.
         25    2    1    2    0    0  0.00000000000E+00  0.00000000000E+00 -0.79061144201E+02  0.14790535618E+03  0.12500131946E+03 0.  0.
    9000005    1    3    3    0    0  0.51241222020E+02  0.35647583258E+02 -0.35996803543E+02  0.72063741865E+02  0.10000000000E+01 0.  0.
    9000005    1    3    3    0    0 -0.51241222020E+02 -0.35647583258E+02 -0.43064340657E+02  0.75841614319E+02  0.10000000000E+01 0.  0.
<mgrwt>
<rscale>  0 0.12500132E+03</rscale>
<asrwt>0</asrwt>
<pdfrwt beam="1">  1        4 0.52957087E-02 0.12500132E+03</pdfrwt>
<pdfrwt beam="2">  1       -4 0.17458961E-01 0.12500132E+03</pdfrwt>
<totfact> 0.99719922E+03</totfact>
</mgrwt>
</event>
<event>
 5    1  0.3239419E-002  0.1249989E+03  0.7818608E-02  0.1235071E+00
          4   -1    0    0  501    0  0.00000000000E+00  0.00000000000E+00  0.39309910296E+03  0.39310115447E+03  0.12700000000E+01 0.  1.
         -4   -1    0    0    0  501 -0.00000000000E+00 -0.00000000000E+00 -0.98942225466E+01  0.99753967240E+01  0.12700000000E+01 0.  1.
         25    2    1    2    0    0  0.00000000000E+00  0.00000000000E+00  0.38320488041E+03  0.40307655120E+03  0.12499890300E+03 0.  0.
    9000005    1    3    3    0    0  0.37548763981E+02  0.49821022509E+02  0.20329036287E+03  0.21264998376E+03  0.10000000000E+01 0.  0.
    9000005    1    3    3    0    0 -0.37548763981E+02 -0.49821022509E+02  0.17991451754E+03  0.19042656743E+03  0.10000000000E+01 0.  0.
<mgrwt>
<rscale>  0 0.12499890E+03</rscale>
<asrwt>0</asrwt>
<pdfrwt beam="1">  1        4 0.60483190E-01 0.12499890E+03</pdfrwt>
<pdfrwt beam="2">  1       -4 0.15285900E-02 0.12499890E+03</pdfrwt>
<totfact> 0.64256216E+03</totfact>
</mgrwt>
</event>
<event>
 5    1  0.3239419E-002  0.1250000E+03  0.7818608E-02  0.1235069E+00
         -4   -1    0    0    0  501 -0.00000000000E+00  0.00000000000E+00  0.85623563023E+01  0.86560294274E+01  0.12700000000E+01 0.  1.
          4   -1    0    0  501    0  0.00000000000E+00 -0.00000000000E+00 -0.45363574208E+03  0.45363751983E+03  0.12700000000E+01 0.  1.
         25    2    1    2    0    0  0.00000000000E+00  0.00000000000E+00 -0.44507338578E+03  0.46229354926E+03  0.12500002781E+03 0.  0.
    9000005    1    3    3    0    0  0.96134930837E+01  0.26706024737E+02 -0.42843937427E+03  0.42937970194E+03  0.10000000000E+01 0.  0.
    9000005    1    3    3    0    0 -0.96134930837E+01 -0.26706024737E+02 -0.16634011507E+02  0.32913847319E+02  0.10000000000E+01 0.  0.
<mgrwt>
<rscale>  0 0.12500003E+03</rscale>
<asrwt>0</asrwt>
<pdfrwt beam="2">  1        4 0.69797438E-01 0.12500003E+03</pdfrwt>
<pdfrwt beam="1">  1       -4 0.13246283E-02 0.12500003E+03</pdfrwt>
<totfact> 0.58913379E+03</totfact>
</mgrwt>
</event>
<event>
 5    1  0.3239419E-002  0.1250005E+03  0.7818608E-02  0.1235069E+00
          4   -1    0    0  501    0  0.00000000000E+00  0.00000000000E+00  0.25102106625E+03  0.25102427891E+03  0.12700000000E+01 0. -1.
         -4   -1    0    0    0  501 -0.00000000000E+00 -0.00000000000E+00 -0.15532328489E+02  0.15584162740E+02  0.12700000000E+01 0. -1.
         25    2    1    2    0    0  0.00000000000E+00  0.00000000000E+00  0.23548873776E+03  0.26660844165E+03  0.12500046218E+03 0.  0.
    9000005    1    3    3    0    0 -0.30912109644E+02  0.52509354429E+02  0.14733567785E+03  0.15944150273E+03  0.10000000000E+01 0.  0.
    9000005    1    3    3    0    0  0.30912109644E+02 -0.52509354429E+02  0.88153059905E+02  0.10716693891E+03  0.10000000000E+01 0.  0.
<mgrwt>
<rscale>  0 0.12500046E+03</rscale>
<asrwt>0</asrwt>
<pdfrwt beam="1">  1        4 0.38622856E-01 0.12500046E+03</pdfrwt>
<pdfrwt beam="2">  1       -4 0.23938236E-02 0.12500046E+03</pdfrwt>
<totfact> 0.79986692E+03</totfact>
</mgrwt>
</event>
<event>
 5    1  0.3239419E-002  0.1249995E+03  0.7818608E-02  0.1235070E+00
         -4   -1    0    0    0  501 -0.00000000000E+00  0.00000000000E+00  0.50563511534E+02  0.50579458268E+02  0.12700000000E+01 0.  1.
          4   -1    0    0  501    0  0.00000000000E+00 -0.00000000000E+00 -0.77220364204E+02  0.77230806987E+02  0.12700000000E+01 0.  1.
         25    2    1    2    0    0  0.00000000000E+00  0.00000000000E+00 -0.26656852670E+02  0.12781026525E+03  0.12499950444E+03 0.  0.
    9000005    1    3    3    0    0  0.77958617257E+01  0.51545729241E+02 -0.48563148096E+02  0.71253891234E+02  0.10000000000E+01 0.  0.
    9000005    1    3    3    0    0 -0.77958617257E+01 -0.51545729241E+02  0.21906295426E+02  0.56556374020E+02  0.10000000000E+01 0.  0.
<mgrwt>
<rscale>  0 0.12499950E+03</rscale>
<asrwt>0</asrwt>
<pdfrwt beam="2">  1        4 0.11882086E-01 0.12499950E+03</pdfrwt>
<pdfrwt beam="1">  1       -4 0.77810318E-02 0.12499950E+03</pdfrwt>
<totfact> 0.10391703E+04</totfact>
</mgrwt>
</event>
<event>
 5    1  0.3239419E-002  0.1249948E+03  0.7818608E-02  0.1235077E+00
          4   -1    0    0  501    0  0.00000000000E+00  0.00000000000E+00  0.37694787355E+02  0.37716175491E+02  0.12700000000E+01 0. -1.
         -4   -1    0    0    0  501 -0.00000000000E+00 -0.00000000000E+00 -0.10356507407E+03  0.10357286067E+03  0.12700000000E+01 0. -1.
         25    2    1    2    0    0  0.00000000000E+00  0.00000000000E+00 -0.65870286717E+02  0.14128903616E+03  0.12499478816E+03 0.  0.
    9000005    1    3    3    0    0 -0.41249084400E+02 -0.30246728853E+02 -0.73511310434E+02  0.89561511442E+02  0.10000000000E+01 0.  0.
    9000005    1    3    3    0    0  0.41249084400E+02  0.30246728853E+02  0.76410237169E+01  0.51727524719E+02  0.10000000000E+01 0.  0.
<mgrwt>
<rscale>  0 0.12499479E+03</rscale>
<asrwt>0</asrwt>
<pdfrwt beam="1">  1        4 0.58014423E-02 0.12499479E+03</pdfrwt>
<pdfrwt beam="2">  1       -4 0.15935333E-01 0.12499479E+03</pdfrwt>
<totfact> 0.10108126E+04</totfact>
</mgrwt>
</event>
<event>
 5    1  0.3239419E-002  0.1249795E+03  0.7818608E-02  0.1235101E+00
          4   -1    0    0  501    0  0.00000000000E+00  0.00000000000E+00  0.15388948137E+03  0.15389472173E+03  0.12700000000E+01 0.  1.
         -4   -1    0    0    0  501 -0.00000000000E+00 -0.00000000000E+00 -0.25353603314E+02  0.25385391488E+02  0.12700000000E+01 0.  1.
         25    2    1    2    0    0  0.00000000000E+00  0.00000000000E+00  0.12853587806E+03  0.17928011322E+03  0.12497954652E+03 0.  0.
    9000005    1    3    3    0    0 -0.37021814937E+01 -0.58849714442E+02  0.93909104367E+02  0.11089145558E+03  0.10000000000E+01 0.  0.
    9000005    1    3    3    0    0  0.37021814937E+01  0.58849714442E+02  0.34626773693E+02  0.68388657642E+02  0.10000000000E+01 0.  0.
<mgrwt>
<rscale>  0 0.12497955E+03</rscale>
<asrwt>0</asrwt>
<pdfrwt beam="1">  1        4 0.23678153E-01 0.12497955E+03</pdfrwt>
<pdfrwt beam="2">  1       -4 0.39034028E-02 0.12497955E+03</pdfrwt>
<totfact> 0.93789755E+03</totfact>
</mgrwt>
</event>
<event>
 5    1  0.3239419E-002  0.1249986E+03  0.7818608E-02  0.1235071E+00
          4   -1    0    0  501    0  0.00000000000E+00  0.00000000000E+00  0.19952942291E+03  0.19953346463E+03  0.12700000000E+01 0. -1.
         -4   -1    0    0    0  501 -0.00000000000E+00 -0.00000000000E+00 -0.19552048393E+02  0.19593251297E+02  0.12700000000E+01 0. -1.
         25    2    1    2    0    0  0.00000000000E+00  0.00000000000E+00  0.17997737451E+03  0.21912671592E+03  0.12499864917E+03 0.  0.
    9000005    1    3    3    0    0 -0.78709854178E+01  0.60305941973E+02  0.11517425360E+03  0.13024925236E+03  0.10000000000E+01 0.  0.
    9000005    1    3    3    0    0  0.78709854178E+01 -0.60305941973E+02  0.64803120913E+02  0.88877463560E+02  0.10000000000E+01 0.  0.
<mgrwt>
<rscale>  0 0.12499865E+03</rscale>
<asrwt>0</asrwt>
<pdfrwt beam="1">  1        4 0.30700313E-01 0.12499865E+03</pdfrwt>
<pdfrwt beam="2">  1       -4 0.30114879E-02 0.12499865E+03</pdfrwt>
<totfact> 0.87009350E+03</totfact>
</mgrwt>
</event>
<event>
 5    1  0.3239419E-002  0.1250029E+03  0.7818608E-02  0.1235065E+00
          4   -1    0    0  501    0  0.00000000000E+00  0.00000000000E+00  0.35027386524E+03  0.35027616757E+03  0.12700000000E+01 0.  1.
         -4   -1    0    0    0  501 -0.00000000000E+00 -0.00000000000E+00 -0.11113998310E+02  0.11186324617E+02  0.12700000000E+01 0.  1.
         25    2    1    2    0    0  0.00000000000E+00  0.00000000000E+00  0.33915986693E+03  0.36146249219E+03  0.12500287167E+03 0.  0.
    9000005    1    3    3    0    0 -0.78973910901E+01 -0.46947416728E+02  0.52513381845E+02  0.70887826855E+02  0.10000000000E+01 0.  0.
    9000005    1    3    3    0    0  0.78973910901E+01  0.46947416728E+02  0.28664648509E+03  0.29057466534E+03  0.10000000000E+01 0.  0.
<mgrwt>
<rscale>  0 0.12500287E+03</rscale>
<asrwt>0</asrwt>
<pdfrwt beam="1">  1        4 0.53894032E-01 0.12500287E+03</pdfrwt>
<pdfrwt beam="2">  1       -4 0.17155864E-02 0.12500287E+03</pdfrwt>
<totfact> 0.68477326E+03</totfact>
</mgrwt>
</event>
<event>
 5    1  0.3239419E-002  0.1249980E+03  0.7818608E-02  0.1235072E+00
          4   -1    0    0  501    0  0.00000000000E+00  0.00000000000E+00  0.85434869587E+02  0.85444308420E+02  0.12700000000E+01 0. -1.
         -4   -1    0    0    0  501 -0.00000000000E+00 -0.00000000000E+00 -0.45699725383E+02  0.45717368692E+02  0.12700000000E+01 0. -1.
         25    2    1    2    0    0  0.00000000000E+00  0.00000000000E+00  0.39735144204E+02  0.13116167711E+03  0.12499801542E+03 0.  0.
    9000005    1    3    3    0    0  0.30110033258E+02 -0.10854916300E+02  0.76186133432E+02  0.82642423960E+02  0.10000000000E+01 0.  0.
    9000005    1    3    3    0    0 -0.30110033258E+02  0.10854916300E+02 -0.36450989228E+02  0.48519253152E+02  0.10000000000E+01 0.  0.
<mgrwt>
<rscale>  0 0.12499802E+03</rscale>
<asrwt>0</asrwt>
<pdfrwt beam="1">  1        4 0.13145909E-01 0.12499802E+03</pdfrwt>
<pdfrwt beam="2">  1       -4 0.70328103E-02 0.12499802E+03</pdfrwt>
<totfact> 0.10320087E+04</totfact>
</mgrwt>
</event>
<event>
 5    1  0.3239419E-002  0.1249997E+03  0.7818608E-02  0.1235070E+00
          4   -1    0    0  501    0  0.00000000000E+00  0.00000000000E+00  0.14752681823E+03  0.14753228459E+03  0.12700000000E+01 0. -1.
         -4   -1    0    0    0  501 -0.00000000000E+00 -0.00000000000E+00 -0.26456940627E+02  0.26487404693E+02  0.12700000000E+01 0. -1.
         25    2    1    2    0    0  0.00000000000E+00  0.00000000000E+00  0.12106987760E+03  0.17401968928E+03  0.12499974798E+03 0.  0.
    9000005    1    3    3    0    0 -0.25824131485E+02  0.22645152580E+02 -0.12145237721E+02  0.36444416605E+02  0.10000000000E+01 0.  0.
    9000005    1    3    3    0    0  0.25824131485E+02 -0.22645152580E+02  0.13321511532E+03  0.13757527268E+03  0.10000000000E+01 0.  0.
<mgrwt>
<rscale>  0 0.12499975E+03</rscale>
<asrwt>0</asrwt>
<pdfrwt beam="1">  1        4 0.22699197E-01 0.12499975E+03</pdfrwt>
<pdfrwt beam="2">  1       -4 0.40730625E-02 0.12499975E+03</pdfrwt>
<totfact> 0.94705225E+03</totfact>
</mgrwt>
</event>
<event>
 5    1  0.3239419E-002  0.1250042E+03  0.7818608E-02  0.1235063E+00
          4   -1    0    0  501    0  0.00000000000E+00  0.00000000000E+00  0.42310331266E+03  0.42310521869E+03  0.12700000000E+01 0.  1.
         -4   -1    0    0    0  501 -0.00000000000E+00 -0.00000000000E+00 -0.91873895700E+01  0.92747521321E+01  0.12700000000E+01 0.  1.
         25    2    1    2    0    0  0.00000000000E+00  0.00000000000E+00  0.41391592309E+03  0.43237997082E+03  0.12500419106E+03 0.  0.
    9000005    1    3    3    0    0 -0.57570820170E+02  0.17040438688E+02  0.14697419311E+03  0.15876772130E+03  0.10000000000E+01 0.  0.
    9000005    1    3    3    0    0  0.57570820170E+02 -0.17040438688E+02  0.26694172998E+03  0.27361224953E+03  0.10000000000E+01 0.  0.
<mgrwt>
<rscale>  0 0.12500419E+03</rscale>
<asrwt>0</asrwt>
<pdfrwt beam="1">  1        4 0.65099668E-01 0.12500419E+03</pdfrwt>
<pdfrwt beam="2">  1       -4 0.14203117E-02 0.12500419E+03</pdfrwt>
<totfact> 0.61515176E+03</totfact>
</mgrwt>
</event>
<event>
 5    1  0.3239419E-002  0.1250043E+03  0.7818608E-02  0.1235063E+00
          4   -1    0    0  501    0  0.00000000000E+00  0.00000000000E+00  0.10567270771E+03  0.10568033902E+03  0.12700000000E+01 0.  1.
         -4   -1    0    0    0  501 -0.00000000000E+00 -0.00000000000E+00 -0.36948208973E+02  0.36970029028E+02  0.12700000000E+01 0.  1.
         25    2    1    2    0    0  0.00000000000E+00  0.00000000000E+00  0.68724498736E+02  0.14265036804E+03  0.12500428303E+03 0.  0.
    9000005    1    3    3    0    0 -0.20393613682E+02  0.57672829165E+02  0.48952331070E+02  0.78354230391E+02  0.10000000000E+01 0.  0.
    9000005    1    3    3    0    0  0.20393613682E+02 -0.57672829165E+02  0.19772167666E+02  0.64296137653E+02  0.10000000000E+01 0.  0.
<mgrwt>
<rscale>  0 0.12500428E+03</rscale>
<asrwt>0</asrwt>
<pdfrwt beam="1">  1        4 0.16259605E-01 0.12500428E+03</pdfrwt>
<pdfrwt beam="2">  1       -4 0.56866054E-02 0.12500428E+03</pdfrwt>
<totfact> 0.10077976E+04</totfact>
</mgrwt>
</event>
<event>
 5    1  0.3239419E-002  0.1250012E+03  0.7818608E-02  0.1235067E+00
          4   -1    0    0  501    0  0.00000000000E+00  0.00000000000E+00  0.27518778527E+03  0.27519071580E+03  0.12700000000E+01 0.  1.
         -4   -1    0    0    0  501 -0.00000000000E+00 -0.00000000000E+00 -0.14163701429E+02  0.14220525243E+02  0.12700000000E+01 0.  1.
         25    2    1    2    0    0  0.00000000000E+00  0.00000000000E+00  0.26102408384E+03  0.28941124104E+03  0.12500117638E+03 0.  0.
    9000005    1    3    3    0    0 -0.61037608338E+02  0.33443008582E+01  0.10045369541E+03  0.11759557347E+03  0.10000000000E+01 0.  0.
    9000005    1    3    3    0    0  0.61037608338E+02 -0.33443008582E+01  0.16057038844E+03  0.17181566757E+03  0.10000000000E+01 0.  0.
<mgrwt>
<rscale>  0 0.12500118E+03</rscale>
<asrwt>0</asrwt>
<pdfrwt beam="1">  1        4 0.42341176E-01 0.12500118E+03</pdfrwt>
<pdfrwt beam="2">  1       -4 0.21836276E-02 0.12500118E+03</pdfrwt>
<totfact> 0.76944555E+03</totfact>
</mgrwt>
</event>
<event>
 5    1  0.3239419E-002  0.1249976E+03  0.7818608E-02  0.1235073E+00
         -4   -1    0    0    0  501 -0.00000000000E+00  0.00000000000E+00  0.10857884604E+03  0.10858627311E+03  0.12700000000E+01 0.  1.
          4   -1    0    0  501    0  0.00000000000E+00 -0.00000000000E+00 -0.35954907280E+02  0.35977329772E+02  0.12700000000E+01 0.  1.
         25    2    1    2    0    0  0.00000000000E+00  0.00000000000E+00  0.72623938761E+02  0.14456360288E+03  0.12499759516E+03 0.  0.
    9000005    1    3    3    0    0  0.40396312387E+02  0.25915926472E+02  0.82596371826E+02  0.95533543524E+02  0.10000000000E+01 0.  0.
    9000005    1    3    3    0    0 -0.40396312387E+02 -0.25915926472E+02 -0.99724330648E+01  0.49030059358E+02  0.10000000000E+01 0.  0.
<mgrwt>
<rscale>  0 0.12499760E+03</rscale>
<asrwt>0</asrwt>
<pdfrwt beam="2">  1        4 0.55338204E-02 0.12499760E+03</pdfrwt>
<pdfrwt beam="1">  1       -4 0.16706734E-01 0.12499760E+03</pdfrwt>
<totfact> 0.10040406E+04</totfact>
</mgrwt>
</event>
<event>
 5    1  0.3239419E-002  0.1250006E+03  0.7818608E-02  0.1235068E+00
         -4   -1    0    0    0  501 -0.00000000000E+00  0.00000000000E+00  0.19671964743E+03  0.19672374688E+03  0.12700000000E+01 0. -1.
          4   -1    0    0  501    0  0.00000000000E+00 -0.00000000000E+00 -0.19832522359E+02  0.19873143766E+02  0.12700000000E+01 0. -1.
         25    2    1    2    0    0  0.00000000000E+00  0.00000000000E+00  0.17688712508E+03  0.21659689065E+03  0.12500063208E+03 0.  0.
    9000005    1    3    3    0    0 -0.44172045102E+02  0.41974365295E+02  0.64416609343E+02  0.88676470778E+02  0.10000000000E+01 0.  0.
    9000005    1    3    3    0    0  0.44172045102E+02 -0.41974365295E+02  0.11247051573E+03  0.12792041987E+03  0.10000000000E+01 0.  0.
<mgrwt>
<rscale>  0 0.12500063E+03</rscale>
<asrwt>0</asrwt>
<pdfrwt beam="2">  1        4 0.30545973E-02 0.12500063E+03</pdfrwt>
<pdfrwt beam="1">  1       -4 0.30268002E-01 0.12500063E+03</pdfrwt>
<totfact> 0.87408492E+03</totfact>
</mgrwt>
</event>
<event>
 5    1  0.3239419E-002  0.1250346E+03  0.7818608E-02  0.1235015E+00
         -4   -1    0    0    0  501 -0.00000000000E+00  0.00000000000E+00  0.69289210825E+01  0.70443486121E+01  0.12700000000E+01 0. -1.
          4   -1    0    0  501    0  0.00000000000E+00 -0.00000000000E+00 -0.55929653917E+03  0.55929798107E+03  0.12700000000E+01 0. -1.
         25    2    1    2    0    0  0.00000000000E+00  0.00000000000E+00 -0.55236761809E+03  0.56634232968E+03  0.12503459072E+03 0.  0.
    9000005    1    3    3    0    0 -0.44852937439E+02 -0.36868437285E+02 -0.17128494533E+03  0.18086072034E+03  0.10000000000E+01 0.  0.
    9000005    1    3    3    0    0  0.44852937439E+02  0.36868437285E+02 -0.38108267276E+03  0.38548160934E+03  0.10000000000E+01 0.  0.
<mgrwt>
<rscale>  0 0.12503459E+03</rscale>
<asrwt>0</asrwt>
<pdfrwt beam="2">  1        4 0.86054576E-01 0.12503459E+03</pdfrwt>
<pdfrwt beam="1">  1       -4 0.10749783E-02 0.12503459E+03</pdfrwt>
<totfact> 0.51024791E+03</totfact>
</mgrwt>
</event>
<event>
 4    1  0.3239419E-002  0.1249085E+03  0.7818608E-02  0.1235212E+00
          4   -1    0    0  501    0  0.00000000000E+00  0.00000000000E+00  0.79222461810E+01  0.80233960735E+01  0.12700000000E+01 0.  1.
         -4   -1    0    0    0  501 -0.00000000000E+00 -0.00000000000E+00 -0.48912649343E+03  0.48912814218E+03  0.12700000000E+01 0.  1.
    9000005    1    1    2    0    0 -0.60925129582E+02 -0.13238556735E+02 -0.25461776967E+03  0.26214183076E+03  0.10000000000E+01 0.  0.
    9000005    1    1    2    0    0  0.60925129582E+02  0.13238556735E+02 -0.22658647758E+03  0.23500970750E+03  0.10000000000E+01 0.  0.
<mgrwt>
<rscale>  0 0.12490846E+03</rscale>
<asrwt>0</asrwt>
<pdfrwt beam="1">  1        4 0.12267151E-02 0.12490846E+03</pdfrwt>
<pdfrwt beam="2">  1       -4 0.75258114E-01 0.12490846E+03</pdfrwt>
<totfact> 0.56199108E+03</totfact>
</mgrwt>
</event>
<event>
 5    1  0.3239419E-002  0.1249998E+03  0.7818608E-02  0.1235070E+00
          4   -1    0    0  501    0  0.00000000000E+00  0.00000000000E+00  0.10732733074E+02  0.10807611172E+02  0.12700000000E+01 0.  1.
         -4   -1    0    0    0  501 -0.00000000000E+00 -0.00000000000E+00 -0.36261414528E+03  0.36261636927E+03  0.12700000000E+01 0.  1.
         25    2    1    2    0    0  0.00000000000E+00  0.00000000000E+00 -0.35188141221E+03  0.37342398044E+03  0.12499976363E+03 0.  0.
    9000005    1    3    3    0    0  0.39820064623E+02 -0.15868984269E+02 -0.31178595199E+03  0.31472041889E+03  0.10000000000E+01 0.  0.
    9000005    1    3    3    0    0 -0.39820064623E+02  0.15868984269E+02 -0.40095460226E+02  0.58703561553E+02  0.10000000000E+01 0.  0.
<mgrwt>
<rscale>  0 0.12499976E+03</rscale>
<asrwt>0</asrwt>
<pdfrwt beam="1">  1        4 0.16571209E-02 0.12499976E+03</pdfrwt>
<pdfrwt beam="2">  1       -4 0.55792713E-01 0.12499976E+03</pdfrwt>
<totfact> 0.67222595E+03</totfact>
</mgrwt>
</event>
<event>
 5    1  0.3239419E-002  0.1250005E+03  0.7818608E-02  0.1235068E+00
         -4   -1    0    0    0  501 -0.00000000000E+00  0.00000000000E+00  0.11656715177E+02  0.11725694381E+02  0.12700000000E+01 0.  1.
          4   -1    0    0  501    0  0.00000000000E+00 -0.00000000000E+00 -0.33405140549E+03  0.33405381963E+03  0.12700000000E+01 0.  1.
         25    2    1    2    0    0  0.00000000000E+00  0.00000000000E+00 -0.32239469032E+03  0.34577951401E+03  0.12500054387E+03 0.  0.
    9000005    1    3    3    0    0  0.11449697425E+02 -0.46218385097E+02 -0.49240451215E+02  0.68504428528E+02  0.10000000000E+01 0.  0.
    9000005    1    3    3    0    0 -0.11449697425E+02  0.46218385097E+02 -0.27315423910E+03  0.27727508549E+03  0.10000000000E+01 0.  0.
<mgrwt>
<rscale>  0 0.12500054E+03</rscale>
<asrwt>0</asrwt>
<pdfrwt beam="2">  1        4 0.51398008E-01 0.12500054E+03</pdfrwt>
<pdfrwt beam="1">  1       -4 0.17988328E-02 0.12500054E+03</pdfrwt>
<totfact> 0.70190528E+03</totfact>
</mgrwt>
</event>
<event>
 5    1  0.3239419E-002  0.1250014E+03  0.7818608E-02  0.1235067E+00
          4   -1    0    0  501    0  0.00000000000E+00  0.00000000000E+00  0.49506178824E+02  0.49522466031E+02  0.12700000000E+01 0.  1.
         -4   -1    0    0    0  501 -0.00000000000E+00 -0.00000000000E+00 -0.78871683603E+02  0.78881907776E+02  0.12700000000E+01 0.  1.
         25    2    1    2    0    0  0.00000000000E+00  0.00000000000E+00 -0.29365504779E+02  0.12840437381E+03  0.12500140136E+03 0.  0.
    9000005    1    3    3    0    0 -0.39456066835E+02 -0.48373186646E+02 -0.11671885385E+02  0.63513615114E+02  0.10000000000E+01 0.  0.
    9000005    1    3    3    0    0  0.39456066835E+02  0.48373186646E+02 -0.17693619394E+02  0.64890758693E+02  0.10000000000E+01 0.  0.
<mgrwt>
<rscale>  0 0.12500140E+03</rscale>
<asrwt>0</asrwt>
<pdfrwt beam="1">  1        4 0.76183746E-02 0.12500140E+03</pdfrwt>
<pdfrwt beam="2">  1       -4 0.12136144E-01 0.12500140E+03</pdfrwt>
<totfact> 0.10378436E+04</totfact>
</mgrwt>
</event>
<event>
 5    1  0.3239419E-002  0.1249992E+03  0.7818608E-02  0.1235070E+00
         -4   -1    0    0    0  501 -0.00000000000E+00  0.00000000000E+00  0.81327700145E+02  0.81337615597E+02  0.12700000000E+01 0.  1.
          4   -1    0    0  501    0  0.00000000000E+00 -0.00000000000E+00 -0.48009169682E+02  0.48025964577E+02  0.12700000000E+01 0.  1.
         25    2    1    2    0    0  0.00000000000E+00  0.00000000000E+00  0.33318530464E+02  0.12936358017E+03  0.12499924561E+03 0.  0.
    9000005    1    3    3    0    0  0.24061886560E+02 -0.46207422861E+02  0.52376613577E+02  0.73881052795E+02  0.10000000000E+01 0.  0.
    9000005    1    3    3    0    0 -0.24061886560E+02  0.46207422861E+02 -0.19058083113E+02  0.55482527378E+02  0.10000000000E+01 0.  0.
<mgrwt>
<rscale>  0 0.12499925E+03</rscale>
<asrwt>0</asrwt>
<pdfrwt beam="2">  1        4 0.73880808E-02 0.12499925E+03</pdfrwt>
<pdfrwt beam="1">  1       -4 0.12514008E-01 0.12499925E+03</pdfrwt>
<totfact> 0.10358317E+04</totfact>
</mgrwt>
</event>
<event>
 5    1  0.3239419E-002  0.1249996E+03  0.7818608E-02  0.1235070E+00
          4   -1    0    0  501    0  0.00000000000E+00  0.00000000000E+00  0.18088157176E+02  0.18132686785E+02  0.12700000000E+01 0. -1.
         -4   -1    0    0    0  501 -0.00000000000E+00 -0.00000000000E+00 -0.21564288634E+03  0.21564662605E+03  0.12700000000E+01 0. -1.
         25    2    1    2    0    0  0.00000000000E+00  0.00000000000E+00 -0.19755472916E+03  0.23377931284E+03  0.12499958439E+03 0.  0.
    9000005    1    3    3    0    0 -0.55540943099E+01 -0.54734728590E+00 -0.21518503639E+03  0.21525972090E+03  0.10000000000E+01 0.  0.
    9000005    1    3    3    0    0  0.55540943099E+01  0.54734728590E+00  0.17630307231E+02  0.18519591942E+02  0.10000000000E+01 0.  0.
<mgrwt>
<rscale>  0 0.12499958E+03</rscale>
<asrwt>0</asrwt>
<pdfrwt beam="1">  1        4 0.27865066E-02 0.12499958E+03</pdfrwt>
<pdfrwt beam="2">  1       -4 0.33179540E-01 0.12499958E+03</pdfrwt>
<totfact> 0.84733425E+03</totfact>
</mgrwt>
</event>
<event>
 5    1  0.3239419E-002  0.1250108E+03  0.7818608E-02  0.1235052E+00
          4   -1    0    0  501    0  0.00000000000E+00  0.00000000000E+00  0.74451951521E+01  0.75527366466E+01  0.12700000000E+01 0.  1.
         -4   -1    0    0    0  501 -0.00000000000E+00 -0.00000000000E+00 -0.52088651969E+03  0.52088806791E+03  0.12700000000E+01 0.  1.
         25    2    1    2    0    0  0.00000000000E+00  0.00000000000E+00 -0.51344132454E+03  0.52844080456E+03  0.12501076026E+03 0.  0.
    9000005    1    3    3    0    0  0.52400047339E+02 -0.30924683141E+02 -0.19637111647E+03  0.20558384268E+03  0.10000000000E+01 0.  0.
    9000005    1    3    3    0    0 -0.52400047339E+02  0.30924683141E+02 -0.31707020807E+03  0.32285696188E+03  0.10000000000E+01 0.  0.
<mgrwt>
<rscale>  0 0.12501076E+03</rscale>
<asrwt>0</asrwt>
<pdfrwt beam="1">  1        4 0.11538066E-02 0.12501076E+03</pdfrwt>
<pdfrwt beam="2">  1       -4 0.80144751E-01 0.12501076E+03</pdfrwt>
<totfact> 0.53710628E+03</totfact>
</mgrwt>
</event>
<event>
 5    1  0.3239419E-002  0.1249950E+03  0.7818608E-02  0.1235077E+00
         -4   -1    0    0    0  501 -0.00000000000E+00  0.00000000000E+00  0.14992160122E+04  0.14992165501E+04  0.12700000000E+01 0.  1.
          4   -1    0    0  501    0  0.00000000000E+00 -0.00000000000E+00 -0.24499799368E+01  0.27595836082E+01  0.12700000000E+01 0.  1.
         25    2    1    2    0    0  0.00000000000E+00  0.00000000000E+00  0.14967660322E+04  0.15019761337E+04  0.12499500364E+03 0.  0.
    9000005    1    3    3    0    0 -0.61208921349E+02  0.11358904177E+02  0.81351637792E+03  0.81589549202E+03  0.10000000000E+01 0.  0.
    9000005    1    3    3    0    0  0.61208921349E+02 -0.11358904177E+02  0.68324965432E+03  0.68608064168E+03  0.10000000000E+01 0.  0.
<mgrwt>
<rscale>  0 0.12499500E+03</rscale>
<asrwt>0</asrwt>
<pdfrwt beam="2">  1        4 0.40077634E-03 0.12499500E+03</pdfrwt>
<pdfrwt beam="1">  1       -4 0.23067288E+00 0.12499500E+03</pdfrwt>
<totfact> 0.17893524E+03</totfact>
</mgrwt>
</event>
<event>
 5    1  0.3239419E-002  0.1249964E+03  0.7818608E-02  0.1235075E+00
          4   -1    0    0  501    0  0.00000000000E+00  0.00000000000E+00  0.13597264749E+03  0.13597857833E+03  0.12700000000E+01 0. -1.
         -4   -1    0    0    0  501 -0.00000000000E+00 -0.00000000000E+00 -0.28705963231E+02  0.28734042964E+02  0.12700000000E+01 0. -1.
         25    2    1    2    0    0  0.00000000000E+00  0.00000000000E+00  0.10726668426E+03  0.16471262129E+03  0.12499642420E+03 0.  0.
    9000005    1    3    3    0    0 -0.45501274232E+02  0.20995894374E+02  0.44367910747E+01  0.50317776703E+02  0.10000000000E+01 0.  0.
    9000005    1    3    3    0    0  0.45501274232E+02 -0.20995894374E+02  0.10282989318E+03  0.11439484459E+03  0.10000000000E+01 0.  0.
<mgrwt>
<rscale>  0 0.12499642E+03</rscale>
<asrwt>0</asrwt>
<pdfrwt beam="1">  1        4 0.20921485E-01 0.12499642E+03</pdfrwt>
<pdfrwt beam="2">  1       -4 0.44189182E-02 0.12499642E+03</pdfrwt>
<totfact> 0.96449592E+03</totfact>
</mgrwt>
</event>
<event>
 5    1  0.3239419E-002  0.1250020E+03  0.7818608E-02  0.1235066E+00
          4   -1    0    0  501    0  0.00000000000E+00  0.00000000000E+00  0.10980910900E+03  0.10981645286E+03  0.12700000000E+01 0. -1.
         -4   -1    0    0    0  501 -0.00000000000E+00 -0.00000000000E+00 -0.35554390180E+02  0.35577065099E+02  0.12700000000E+01 0. -1.
         25    2    1    2    0    0  0.00000000000E+00  0.00000000000E+00  0.74254718820E+02  0.14539351796E+03  0.12500204718E+03 0.  0.
    9000005    1    3    3    0    0  0.55715951259E+02 -0.28178611413E+02  0.34033220940E+02  0.71116534599E+02  0.10000000000E+01 0.  0.
    9000005    1    3    3    0    0 -0.55715951259E+02  0.28178611413E+02  0.40221497880E+02  0.74276983363E+02  0.10000000000E+01 0.  0.
<mgrwt>
<rscale>  0 0.12500205E+03</rscale>
<asrwt>0</asrwt>
<pdfrwt beam="1">  1        4 0.16896018E-01 0.12500205E+03</pdfrwt>
<pdfrwt beam="2">  1       -4 0.54722153E-02 0.12500205E+03</pdfrwt>
<totfact> 0.10022537E+04</totfact>
</mgrwt>
</event>
<event>
 5    1  0.3239419E-002  0.1250028E+03  0.7818608E-02  0.1235065E+00
          4   -1    0    0  501    0  0.00000000000E+00  0.00000000000E+00  0.35606315149E+02  0.35628957022E+02  0.12700000000E+01 0. -1.
         -4   -1    0    0    0  501 -0.00000000000E+00 -0.00000000000E+00 -0.10965031799E+03  0.10965767249E+03  0.12700000000E+01 0. -1.
         25    2    1    2    0    0  0.00000000000E+00  0.00000000000E+00 -0.74044002841E+02  0.14528662951E+03  0.12500276140E+03 0.  0.
    9000005    1    3    3    0    0  0.48694127579E+02  0.73630532515E+00 -0.82540201745E+02  0.95841249523E+02  0.10000000000E+01 0.  0.
    9000005    1    3    3    0    0 -0.48694127579E+02 -0.73630532515E+00  0.84961989030E+01  0.49445379986E+02  0.10000000000E+01 0.  0.
<mgrwt>
<rscale>  0 0.12500276E+03</rscale>
<asrwt>0</asrwt>
<pdfrwt beam="1">  1        4 0.54802021E-02 0.12500276E+03</pdfrwt>
<pdfrwt beam="2">  1       -4 0.16871587E-01 0.12500276E+03</pdfrwt>
<totfact> 0.10024545E+04</totfact>
</mgrwt>
</event>
<event>
 5    1  0.3239419E-002  0.1250026E+03  0.7818608E-02  0.1235065E+00
          4   -1    0    0  501    0  0.00000000000E+00  0.00000000000E+00  0.13177134728E+03  0.13177746721E+03  0.12700000000E+01 0. -1.
         -4   -1    0    0    0  501 -0.00000000000E+00 -0.00000000000E+00 -0.29624953764E+02  0.29652163252E+02  0.12700000000E+01 0. -1.
         25    2    1    2    0    0  0.00000000000E+00  0.00000000000E+00  0.10214639351E+03  0.16142963046E+03  0.12500255950E+03 0.  0.
    9000005    1    3    3    0    0 -0.59425116008E+02 -0.14113844735E+02  0.33996033724E+02  0.69909050450E+02  0.10000000000E+01 0.  0.
    9000005    1    3    3    0    0  0.59425116008E+02  0.14113844735E+02  0.68150359788E+02  0.91520580008E+02  0.10000000000E+01 0.  0.
<mgrwt>
<rscale>  0 0.12500256E+03</rscale>
<asrwt>0</asrwt>
<pdfrwt beam="1">  1        4 0.20275079E-01 0.12500256E+03</pdfrwt>
<pdfrwt beam="2">  1       -4 0.45602489E-02 0.12500256E+03</pdfrwt>
<totfact> 0.97062286E+03</totfact>
</mgrwt>
</event>
<event>
 5    1  0.3239419E-002  0.1249988E+03  0.7818608E-02  0.1235071E+00
          4   -1    0    0  501    0  0.00000000000E+00  0.00000000000E+00  0.47210485731E+01  0.48888853157E+01  0.12700000000E+01 0. -1.
         -4   -1    0    0    0  501 -0.00000000000E+00 -0.00000000000E+00 -0.81277736996E+03  0.81277836217E+03  0.12700000000E+01 0. -1.
         25    2    1    2    0    0  0.00000000000E+00  0.00000000000E+00 -0.80805632138E+03  0.81766724749E+03  0.12499883633E+03 0.  0.
    9000005    1    3    3    0    0 -0.30206826471E+02  0.51689007738E+02 -0.28683458911E+03  0.29301755476E+03  0.10000000000E+01 0.  0.
    9000005    1    3    3    0    0  0.30206826471E+02 -0.51689007738E+02 -0.52122173227E+03  0.52464969273E+03  0.10000000000E+01 0.  0.
<mgrwt>
<rscale>  0 0.12499884E+03</rscale>
<asrwt>0</asrwt>
<pdfrwt beam="1">  1        4 0.73930265E-03 0.12499884E+03</pdfrwt>
<pdfrwt beam="2">  1       -4 0.12505555E+00 0.12499884E+03</pdfrwt>
<totfact> 0.37489065E+03</totfact>
</mgrwt>
</event>
<event>
 5    1  0.3239419E-002  0.1249975E+03  0.7818608E-02  0.1235073E+00
         -4   -1    0    0    0  501 -0.00000000000E+00  0.00000000000E+00  0.66436944761E+01  0.67639911511E+01  0.12700000000E+01 0. -1.
          4   -1    0    0  501    0  0.00000000000E+00 -0.00000000000E+00 -0.58254350548E+03  0.58254488984E+03  0.12700000000E+01 0. -1.
         25    2    1    2    0    0  0.00000000000E+00  0.00000000000E+00 -0.57589981101E+03  0.58930888099E+03  0.12499745957E+03 0.  0.
    9000005    1    3    3    0    0  0.41670107782E+02 -0.24201978819E+02 -0.47552554494E+03  0.47796200430E+03  0.10000000000E+01 0.  0.
    9000005    1    3    3    0    0 -0.41670107782E+02  0.24201978819E+02 -0.10037426607E+03  0.11134687670E+03  0.10000000000E+01 0.  0.
<mgrwt>
<rscale>  0 0.12499746E+03</rscale>
<asrwt>0</asrwt>
<pdfrwt beam="2">  1        4 0.89631398E-01 0.12499746E+03</pdfrwt>
<pdfrwt beam="1">  1       -4 0.10314674E-02 0.12499746E+03</pdfrwt>
<totfact> 0.49552271E+03</totfact>
</mgrwt>
</event>
<event>
 5    1  0.3239419E-002  0.1249986E+03  0.7818608E-02  0.1235071E+00
         -4   -1    0    0    0  501 -0.00000000000E+00  0.00000000000E+00  0.52129196399E+02  0.52144664321E+02  0.12700000000E+01 0. -1.
          4   -1    0    0  501    0  0.00000000000E+00 -0.00000000000E+00 -0.74900350294E+02  0.74911116493E+02  0.12700000000E+01 0. -1.
         25    2    1    2    0    0  0.00000000000E+00  0.00000000000E+00 -0.22771153895E+02  0.12705578081E+03  0.12499858395E+03 0.  0.
    9000005    1    3    3    0    0  0.18092463052E+02 -0.58815077438E+02 -0.22455681361E+02  0.65511893414E+02  0.10000000000E+01 0.  0.
    9000005    1    3    3    0    0 -0.18092463052E+02  0.58815077438E+02 -0.31547253386E+00  0.61543887399E+02  0.10000000000E+01 0.  0.
<mgrwt>
<rscale>  0 0.12499858E+03</rscale>
<asrwt>0</asrwt>
<pdfrwt beam="2">  1        4 0.11525149E-01 0.12499858E+03</pdfrwt>
<pdfrwt beam="1">  1       -4 0.80218944E-02 0.12499858E+03</pdfrwt>
<totfact> 0.10408267E+04</totfact>
</mgrwt>
</event>
<event>
 5    1  0.3239419E-002  0.1250003E+03  0.7818608E-02  0.1235069E+00
         -4   -1    0    0    0  501 -0.00000000000E+00  0.00000000000E+00  0.18217392053E+03  0.18217834729E+03  0.12700000000E+01 0.  1.
          4   -1    0    0  501    0  0.00000000000E+00 -0.00000000000E+00 -0.21419030148E+02  0.21456648212E+02  0.12700000000E+01 0.  1.
         25    2    1    2    0    0  0.00000000000E+00  0.00000000000E+00  0.16075489038E+03  0.20363499550E+03  0.12500030644E+03 0.  0.
    9000005    1    3    3    0    0 -0.57479824309E+02 -0.76970156429E+01  0.42447780927E+02  0.71874810317E+02  0.10000000000E+01 0.  0.
    9000005    1    3    3    0    0  0.57479824309E+02  0.76970156429E+01  0.11830710946E+03  0.13176018519E+03  0.10000000000E+01 0.  0.
<mgrwt>
<rscale>  0 0.12500031E+03</rscale>
<asrwt>0</asrwt>
<pdfrwt beam="2">  1        4 0.32984696E-02 0.12500031E+03</pdfrwt>
<pdfrwt beam="1">  1       -4 0.28029992E-01 0.12500031E+03</pdfrwt>
<totfact> 0.89525421E+03</totfact>
</mgrwt>
</event>
<event>
 5    1  0.3239419E-002  0.1249667E+03  0.7818608E-02  0.1235121E+00
         -4   -1    0    0    0  501 -0.00000000000E+00  0.00000000000E+00  0.45056267169E+03  0.45056446156E+03  0.12700000000E+01 0. -1.
          4   -1    0    0  501    0  0.00000000000E+00 -0.00000000000E+00 -0.86167383204E+01  0.87098265931E+01  0.12700000000E+01 0. -1.
         25    2    1    2    0    0  0.00000000000E+00  0.00000000000E+00  0.44194593337E+03  0.45927428815E+03  0.12496665050E+03 0.  0.
    9000005    1    3    3    0    0  0.28831032698E+02  0.55424853843E+02  0.22041482328E+03  0.22910005935E+03  0.10000000000E+01 0.  0.
    9000005    1    3    3    0    0 -0.28831032698E+02 -0.55424853843E+02  0.22153111008E+03  0.23017422880E+03  0.10000000000E+01 0.  0.
<mgrwt>
<rscale>  0 0.12496665E+03</rscale>
<asrwt>0</asrwt>
<pdfrwt beam="2">  1        4 0.13329504E-02 0.12496665E+03</pdfrwt>
<pdfrwt beam="1">  1       -4 0.69324632E-01 0.12496665E+03</pdfrwt>
<totfact> 0.59212170E+03</totfact>
</mgrwt>
</event>
<event>
 5    1  0.3239419E-002  0.1249969E+03  0.7818608E-02  0.1235074E+00
          4   -1    0    0  501    0  0.00000000000E+00  0.00000000000E+00  0.61370394017E+03  0.61370525423E+03  0.12700000000E+01 0.  1.
         -4   -1    0    0    0  501 -0.00000000000E+00 -0.00000000000E+00 -0.63000351967E+01  0.64267677319E+01  0.12700000000E+01 0.  1.
         25    2    1    2    0    0  0.00000000000E+00  0.00000000000E+00  0.60740390497E+03  0.62013202197E+03  0.12499688355E+03 0.  0.
    9000005    1    3    3    0    0  0.30293647443E+02 -0.49718931049E+02  0.19107354874E+03  0.19974928838E+03  0.10000000000E+01 0.  0.
    9000005    1    3    3    0    0 -0.30293647443E+02  0.49718931049E+02  0.41633035623E+03  0.42038273359E+03  0.10000000000E+01 0.  0.
<mgrwt>
<rscale>  0 0.12499688E+03</rscale>
<asrwt>0</asrwt>
<pdfrwt beam="1">  1        4 0.94425887E-01 0.12499688E+03</pdfrwt>
<pdfrwt beam="2">  1       -4 0.97908545E-03 0.12499688E+03</pdfrwt>
<totfact> 0.47624222E+03</totfact>
</mgrwt>
</event>
<event>
 5    1  0.3239419E-002  0.1250081E+03  0.7818608E-02  0.1235057E+00
          4   -1    0    0  501    0  0.00000000000E+00  0.00000000000E+00  0.40896771377E+02  0.40916485786E+02  0.12700000000E+01 0.  1.
         -4   -1    0    0    0  501 -0.00000000000E+00 -0.00000000000E+00 -0.95480249744E+02  0.95488695620E+02  0.12700000000E+01 0.  1.
         25    2    1    2    0    0  0.00000000000E+00  0.00000000000E+00 -0.54583478367E+02  0.13640518141E+03  0.12500806935E+03 0.  0.
    9000005    1    3    3    0    0  0.28682641357E+02 -0.29147338821E+02  0.24276835113E+02  0.47567068426E+02  0.10000000000E+01 0.  0.
    9000005    1    3    3    0    0 -0.28682641357E+02  0.29147338821E+02 -0.78860313480E+02  0.88838112980E+02  0.10000000000E+01 0.  0.
<mgrwt>
<rscale>  0 0.12500807E+03</rscale>
<asrwt>0</asrwt>
<pdfrwt beam="1">  1        4 0.62939772E-02 0.12500807E+03</pdfrwt>
<pdfrwt beam="2">  1       -4 0.14691435E-01 0.12500807E+03</pdfrwt>
<totfact> 0.10206680E+04</totfact>
</mgrwt>
</event>
<event>
 5    1  0.3239419E-002  0.1249996E+03  0.7818608E-02  0.1235070E+00
         -4   -1    0    0    0  501 -0.00000000000E+00  0.00000000000E+00  0.20604896103E+03  0.20605287487E+03  0.12700000000E+01 0. -1.
          4   -1    0    0  501    0  0.00000000000E+00 -0.00000000000E+00 -0.18932394912E+02  0.18974943402E+02  0.12700000000E+01 0. -1.
         25    2    1    2    0    0  0.00000000000E+00  0.00000000000E+00  0.18711656612E+03  0.22502781827E+03  0.12499963872E+03 0.  0.
    9000005    1    3    3    0    0  0.29361615971E+01 -0.30145612799E+02  0.19196091877E+03  0.19433829615E+03  0.10000000000E+01 0.  0.
    9000005    1    3    3    0    0 -0.29361615971E+01  0.30145612799E+02 -0.48443526425E+01  0.30689522128E+02  0.10000000000E+01 0.  0.
<mgrwt>
<rscale>  0 0.12499964E+03</rscale>
<asrwt>0</asrwt>
<pdfrwt beam="2">  1        4 0.29162501E-02 0.12499964E+03</pdfrwt>
<pdfrwt beam="1">  1       -4 0.31703415E-01 0.12499964E+03</pdfrwt>
<totfact> 0.86079655E+03</totfact>
</mgrwt>
</event>
<event>
 5    1  0.3239419E-002  0.1250112E+03  0.7818608E-02  0.1235052E+00
         -4   -1    0    0    0  501 -0.00000000000E+00  0.00000000000E+00  0.52371963896E+03  0.52372117881E+03  0.12700000000E+01 0. -1.
          4   -1    0    0  501    0  0.00000000000E+00 -0.00000000000E+00 -0.74043900377E+01  0.75125156792E+01  0.12700000000E+01 0. -1.
         25    2    1    2    0    0  0.00000000000E+00  0.00000000000E+00  0.51631524892E+03  0.53123369449E+03  0.12501120705E+03 0.  0.
    9000005    1    3    3    0    0 -0.31696392975E+01  0.25230576422E+02  0.50076292773E+03  0.50140915267E+03  0.10000000000E+01 0.  0.
    9000005    1    3    3    0    0  0.31696392975E+01 -0.25230576422E+02  0.15552321197E+02  0.29824541815E+02  0.10000000000E+01 0.  0.
<mgrwt>
<rscale>  0 0.12501121E+03</rscale>
<asrwt>0</asrwt>
<pdfrwt beam="2">  1        4 0.11475722E-02 0.12501121E+03</pdfrwt>
<pdfrwt beam="1">  1       -4 0.80580725E-01 0.12501121E+03</pdfrwt>
<totfact> 0.53506726E+03</totfact>
</mgrwt>
</event>
<event>
 5    1  0.3239419E-002  0.1249982E+03  0.7818608E-02  0.1235072E+00
         -4   -1    0    0    0  501 -0.00000000000E+00  0.00000000000E+00  0.88192700709E+02  0.88201844416E+02  0.12700000000E+01 0.  1.
          4   -1    0    0  501    0  0.00000000000E+00 -0.00000000000E+00 -0.44270373349E+02  0.44288586075E+02  0.12700000000E+01 0.  1.
         25    2    1    2    0    0  0.00000000000E+00  0.00000000000E+00  0.43922327360E+02  0.13249043049E+03  0.12499817331E+03 0.  0.
    9000005    1    3    3    0    0 -0.59348791696E+02  0.15399321467E+02  0.91662626163E+01  0.62003536575E+02  0.10000000000E+01 0.  0.
    9000005    1    3    3    0    0  0.59348791696E+02 -0.15399321467E+02  0.34756064744E+02  0.70486893916E+02  0.10000000000E+01 0.  0.
<mgrwt>
<rscale>  0 0.12499817E+03</rscale>
<asrwt>0</asrwt>
<pdfrwt beam="2">  1        4 0.68129311E-02 0.12499817E+03</pdfrwt>
<pdfrwt beam="1">  1       -4 0.13570212E-01 0.12499817E+03</pdfrwt>
<totfact> 0.10291666E+04</totfact>
</mgrwt>
</event>
<event>
 5    1  0.3239419E-002  0.1250250E+03  0.7818608E-02  0.1235030E+00
         -4   -1    0    0    0  501 -0.00000000000E+00  0.00000000000E+00  0.69115591887E+01  0.70272719044E+01  0.12700000000E+01 0. -1.
          4   -1    0    0  501    0  0.00000000000E+00 -0.00000000000E+00 -0.56059221614E+03  0.56059365471E+03  0.12700000000E+01 0. -1.
         25    2    1    2    0    0  0.00000000000E+00  0.00000000000E+00 -0.55368065695E+03  0.56762092661E+03  0.12502498328E+03 0.  0.
    9000005    1    3    3    0    0 -0.54368290160E+02  0.12904254420E+02 -0.14968777521E+03  0.15978066467E+03  0.10000000000E+01 0.  0.
    9000005    1    3    3    0    0  0.54368290160E+02 -0.12904254420E+02 -0.40399288174E+03  0.40784026194E+03  0.10000000000E+01 0.  0.
<mgrwt>
<rscale>  0 0.12502498E+03</rscale>
<asrwt>0</asrwt>
<pdfrwt beam="2">  1        4 0.86253932E-01 0.12502498E+03</pdfrwt>
<pdfrwt beam="1">  1       -4 0.10723289E-02 0.12502498E+03</pdfrwt>
<totfact> 0.50949482E+03</totfact>
</mgrwt>
</event>
<event>
 5    1  0.3239419E-002  0.1250009E+03  0.7818608E-02  0.1235068E+00
          4   -1    0    0  501    0  0.00000000000E+00  0.00000000000E+00  0.30789489666E+02  0.30815670914E+02  0.12700000000E+01 0.  1.
         -4   -1    0    0    0  501 -0.00000000000E+00 -0.00000000000E+00 -0.12678817721E+03  0.12679453766E+03  0.12700000000E+01 0.  1.
         25    2    1    2    0    0  0.00000000000E+00  0.00000000000E+00 -0.95998687547E+02  0.15761020858E+03  0.12500091934E+03 0.  0.
    9000005    1    3    3    0    0  0.46282871262E+01  0.61726968726E+02 -0.58821401279E+02  0.85396703439E+02  0.10000000000E+01 0.  0.
    9000005    1    3    3    0    0 -0.46282871262E+01 -0.61726968726E+02 -0.37177286268E+02  0.72213505137E+02  0.10000000000E+01 0.  0.
<mgrwt>
<rscale>  0 0.12500092E+03</rscale>
<asrwt>0</asrwt>
<pdfrwt beam="1">  1        4 0.47393478E-02 0.12500092E+03</pdfrwt>
<pdfrwt beam="2">  1       -4 0.19508376E-01 0.12500092E+03</pdfrwt>
<totfact> 0.97803485E+03</totfact>
</mgrwt>
</event>
<event>
 5    1  0.3239419E-002  0.1250017E+03  0.7818608E-02  0.1235067E+00
          4   -1    0    0  501    0  0.00000000000E+00  0.00000000000E+00  0.16408197078E+03  0.16408688563E+03  0.12700000000E+01 0. -1.
         -4   -1    0    0    0  501 -0.00000000000E+00 -0.00000000000E+00 -0.23785133527E+02  0.23819015028E+02  0.12700000000E+01 0. -1.
         25    2    1    2    0    0  0.00000000000E+00  0.00000000000E+00  0.14029683725E+03  0.18790590065E+03  0.12500169982E+03 0.  0.
    9000005    1    3    3    0    0 -0.33894741882E+02 -0.36211114425E+02  0.13000926562E+02  0.51284719231E+02  0.10000000000E+01 0.  0.
    9000005    1    3    3    0    0  0.33894741882E+02  0.36211114425E+02  0.12729591069E+03  0.13662118142E+03  0.10000000000E+01 0.  0.
<mgrwt>
<rscale>  0 0.12500170E+03</rscale>
<asrwt>0</asrwt>
<pdfrwt beam="1">  1        4 0.25246365E-01 0.12500170E+03</pdfrwt>
<pdfrwt beam="2">  1       -4 0.36622356E-02 0.12500170E+03</pdfrwt>
<totfact> 0.92209450E+03</totfact>
</mgrwt>
</event>
<event>
 5    1  0.3239419E-002  0.1249982E+03  0.7818608E-02  0.1235072E+00
         -4   -1    0    0    0  501 -0.00000000000E+00  0.00000000000E+00  0.23555067522E+02  0.23589279471E+02  0.12700000000E+01 0.  1.
          4   -1    0    0  501    0  0.00000000000E+00 -0.00000000000E+00 -0.16567306681E+03  0.16567793446E+03  0.12700000000E+01 0.  1.
         25    2    1    2    0    0  0.00000000000E+00  0.00000000000E+00 -0.14211799929E+03  0.18926721393E+03  0.12499821018E+03 0.  0.
    9000005    1    3    3    0    0  0.14909169137E+02 -0.54294969079E+02 -0.11210671703E+03  0.12545574118E+03  0.10000000000E+01 0.  0.
    9000005    1    3    3    0    0 -0.14909169137E+02  0.54294969079E+02 -0.30011282258E+02  0.63811472749E+02  0.10000000000E+01 0.  0.
<mgrwt>
<rscale>  0 0.12499821E+03</rscale>
<asrwt>0</asrwt>
<pdfrwt beam="2">  1        4 0.25491170E-01 0.12499821E+03</pdfrwt>
<pdfrwt beam="1">  1       -4 0.36268628E-02 0.12499821E+03</pdfrwt>
<totfact> 0.91978661E+03</totfact>
</mgrwt>
</event>
<event>
 5    1  0.3239419E-002  0.1250011E+03  0.7818608E-02  0.1235068E+00
         -4   -1    0    0    0  501 -0.00000000000E+00  0.00000000000E+00  0.30551590921E+03  0.30551854883E+03  0.12700000000E+01 0.  1.
          4   -1    0    0  501    0  0.00000000000E+00 -0.00000000000E+00 -0.12751744496E+02  0.12814830771E+02  0.12700000000E+01 0.  1.
         25    2    1    2    0    0  0.00000000000E+00  0.00000000000E+00  0.29276416471E+03  0.31833337960E+03  0.12500113771E+03 0.  0.
    9000005    1    3    3    0    0  0.16813355490E+02  0.64919814490E+01 -0.60018673540E+01  0.19022543408E+02  0.10000000000E+01 0.  0.
    9000005    1    3    3    0    0 -0.16813355490E+02 -0.64919814490E+01  0.29876603207E+03  0.29931083619E+03  0.10000000000E+01 0.  0.
<mgrwt>
<rscale>  0 0.12500114E+03</rscale>
<asrwt>0</asrwt>
<pdfrwt beam="2">  1        4 0.19668627E-02 0.12500114E+03</pdfrwt>
<pdfrwt beam="1">  1       -4 0.47007502E-01 0.12500114E+03</pdfrwt>
<totfact> 0.73352936E+03</totfact>
</mgrwt>
</event>
<event>
 5    1  0.3239419E-002  0.1250210E+03  0.7818608E-02  0.1235036E+00
          4   -1    0    0  501    0  0.00000000000E+00  0.00000000000E+00  0.97547448600E+02  0.97555715508E+02  0.12700000000E+01 0.  1.
         -4   -1    0    0    0  501 -0.00000000000E+00 -0.00000000000E+00 -0.40038038733E+02  0.40058175764E+02  0.12700000000E+01 0.  1.
         25    2    1    2    0    0  0.00000000000E+00  0.00000000000E+00  0.57509409867E+02  0.13761389127E+03  0.12502100163E+03 0.  0.
    9000005    1    3    3    0    0 -0.19730177776E+02  0.54778951001E+02  0.37377065634E+01  0.58352239359E+02  0.10000000000E+01 0.  0.
    9000005    1    3    3    0    0  0.19730177776E+02 -0.54778951001E+02  0.53771703304E+02  0.79261651913E+02  0.10000000000E+01 0.  0.
<mgrwt>
<rscale>  0 0.12502100E+03</rscale>
<asrwt>0</asrwt>
<pdfrwt beam="1">  1        4 0.15009485E-01 0.12502100E+03</pdfrwt>
<pdfrwt beam="2">  1       -4 0.61618832E-02 0.12502100E+03</pdfrwt>
<totfact> 0.10178445E+04</totfact>
</mgrwt>
</event>
<event>
 5    1  0.3239419E-002  0.1250015E+03  0.7818608E-02  0.1235067E+00
         -4   -1    0    0    0  501 -0.00000000000E+00  0.00000000000E+00  0.45282804385E+02  0.45300610073E+02  0.12700000000E+01 0. -1.
          4   -1    0    0  501    0  0.00000000000E+00 -0.00000000000E+00 -0.86226103937E+02  0.86235456166E+02  0.12700000000E+01 0. -1.
         25    2    1    2    0    0  0.00000000000E+00  0.00000000000E+00 -0.40943299552E+02  0.13153606624E+03  0.12500153176E+03 0.  0.
    9000005    1    3    3    0    0 -0.49320966322E+02 -0.28233058719E+02  0.68810892575E+01  0.57253931856E+02  0.10000000000E+01 0.  0.
    9000005    1    3    3    0    0  0.49320966322E+02  0.28233058719E+02 -0.47824388810E+02  0.74282134384E+02  0.10000000000E+01 0.  0.
<mgrwt>
<rscale>  0 0.12500153E+03</rscale>
<asrwt>0</asrwt>
<pdfrwt beam="2">  1        4 0.13267643E-01 0.12500153E+03</pdfrwt>
<pdfrwt beam="1">  1       -4 0.69686744E-02 0.12500153E+03</pdfrwt>
<totfact> 0.10311254E+04</totfact>
</mgrwt>
</event>
<event>
 5    1  0.3239419E-002  0.1249999E+03  0.7818608E-02  0.1235069E+00
          4   -1    0    0  501    0  0.00000000000E+00  0.00000000000E+00  0.11775389336E+04  0.11775396185E+04  0.12700000000E+01 0.  1.
         -4   -1    0    0    0  501 -0.00000000000E+00 -0.00000000000E+00 -0.31950309734E+01  0.34381859928E+01  0.12700000000E+01 0.  1.
         25    2    1    2    0    0  0.00000000000E+00  0.00000000000E+00  0.11743439027E+04  0.11809778045E+04  0.12499989190E+03 0.  0.
    9000005    1    3    3    0    0  0.37487424142E+02 -0.33588091424E+02  0.93709597529E+03  0.93844729940E+03  0.10000000000E+01 0.  0.
    9000005    1    3    3    0    0 -0.37487424142E+02  0.33588091424E+02  0.23724792738E+03  0.24253050509E+03  0.10000000000E+01 0.  0.
<mgrwt>
<rscale>  0 0.12499989E+03</rscale>
<asrwt>0</asrwt>
<pdfrwt beam="1">  1        4 0.18117893E+00 0.12499989E+03</pdfrwt>
<pdfrwt beam="2">  1       -4 0.51029919E-03 0.12499989E+03</pdfrwt>
<totfact> 0.25216155E+03</totfact>
</mgrwt>
</event>
<event>
 5    1  0.3239419E-002  0.1250023E+03  0.7818608E-02  0.1235066E+00
          4   -1    0    0  501    0  0.00000000000E+00  0.00000000000E+00  0.76533722421E+02  0.76544258881E+02  0.12700000000E+01 0.  1.
         -4   -1    0    0    0  501 -0.00000000000E+00 -0.00000000000E+00 -0.51019492633E+02  0.51035296889E+02  0.12700000000E+01 0.  1.
         25    2    1    2    0    0  0.00000000000E+00  0.00000000000E+00  0.25514229788E+02  0.12757955577E+03  0.12500226849E+03 0.  0.
    9000005    1    3    3    0    0 -0.80307525548E+01 -0.41058368504E+02  0.60137417342E+02  0.73265213952E+02  0.10000000000E+01 0.  0.
    9000005    1    3    3    0    0  0.80307525548E+01  0.41058368504E+02 -0.34623187553E+02  0.54314341819E+02  0.10000000000E+01 0.  0.
<mgrwt>
<rscale>  0 0.12500227E+03</rscale>
<asrwt>0</asrwt>
<pdfrwt beam="1">  1        4 0.11776445E-01 0.12500227E+03</pdfrwt>
<pdfrwt beam="2">  1       -4 0.78511790E-02 0.12500227E+03</pdfrwt>
<totfact> 0.10396046E+04</totfact>
</mgrwt>
</event>
<event>
 5    1  0.3239419E-002  0.1249995E+03  0.7818608E-02  0.1235070E+00
         -4   -1    0    0    0  501 -0.00000000000E+00  0.00000000000E+00  0.59348084976E+02  0.59361671897E+02  0.12700000000E+01 0.  1.
          4   -1    0    0  501    0  0.00000000000E+00 -0.00000000000E+00 -0.65791494263E+02  0.65803750785E+02  0.12700000000E+01 0.  1.
         25    2    1    2    0    0  0.00000000000E+00  0.00000000000E+00 -0.64434092862E+01  0.12516542268E+03  0.12499946205E+03 0.  0.
    9000005    1    3    3    0    0 -0.35125413600E+02  0.32863776501E+02  0.36723538562E+02  0.60526364264E+02  0.10000000000E+01 0.  0.
    9000005    1    3    3    0    0  0.35125413600E+02 -0.32863776501E+02 -0.43166947849E+02  0.64639058417E+02  0.10000000000E+01 0.  0.
<mgrwt>
<rscale>  0 0.12499946E+03</rscale>
<asrwt>0</asrwt>
<pdfrwt beam="2">  1        4 0.10123756E-01 0.12499946E+03</pdfrwt>
<pdfrwt beam="1">  1       -4 0.91324626E-02 0.12499946E+03</pdfrwt>
<totfact> 0.10449398E+04</totfact>
</mgrwt>
</event>
<event>
 5    1  0.3239419E-002  0.1249996E+03  0.7818608E-02  0.1235070E+00
         -4   -1    0    0    0  501 -0.00000000000E+00  0.00000000000E+00  0.14153348764E+04  0.14153354462E+04  0.12700000000E+01 0. -1.
          4   -1    0    0  501    0  0.00000000000E+00 -0.00000000000E+00 -0.26132277111E+01  0.29054877508E+01  0.12700000000E+01 0. -1.
         25    2    1    2    0    0  0.00000000000E+00  0.00000000000E+00  0.14127216487E+04  0.14182409339E+04  0.12499956017E+03 0.  0.
    9000005    1    3    3    0    0  0.10518615759E+02  0.53093497229E+02  0.10607587560E+04  0.10621392089E+04  0.10000000000E+01 0.  0.
    9000005    1    3    3    0    0 -0.10518615759E+02 -0.53093497229E+02  0.35196289269E+03  0.35610172501E+03  0.10000000000E+01 0.  0.
<mgrwt>
<rscale>  0 0.12499956E+03</rscale>
<asrwt>0</asrwt>
<pdfrwt beam="2">  1        4 0.42456194E-03 0.12499956E+03</pdfrwt>
<pdfrwt beam="1">  1       -4 0.21776557E+00 0.12499956E+03</pdfrwt>
<totfact> 0.19593133E+03</totfact>
</mgrwt>
</event>
<event>
 5    1  0.3239419E-002  0.1249891E+03  0.7818608E-02  0.1235086E+00
          4   -1    0    0  501    0  0.00000000000E+00  0.00000000000E+00  0.23161083435E+02  0.23195876484E+02  0.12700000000E+01 0.  1.
         -4   -1    0    0    0  501 -0.00000000000E+00 -0.00000000000E+00 -0.16846251115E+03  0.16846729820E+03  0.12700000000E+01 0.  1.
         25    2    1    2    0    0  0.00000000000E+00  0.00000000000E+00 -0.14530142772E+03  0.19166317469E+03  0.12498907006E+03 0.  0.
    9000005    1    3    3    0    0  0.31945969839E+02  0.10339797167E+02  0.81589354364E+01  0.34569128162E+02  0.10000000000E+01 0.  0.
    9000005    1    3    3    0    0 -0.31945969839E+02 -0.10339797167E+02 -0.15346036316E+03  0.15709404653E+03  0.10000000000E+01 0.  0.
<mgrwt>
<rscale>  0 0.12498907E+03</rscale>
<asrwt>0</asrwt>
<pdfrwt beam="1">  1        4 0.35662883E-02 0.12498907E+03</pdfrwt>
<pdfrwt beam="2">  1       -4 0.25920353E-01 0.12498907E+03</pdfrwt>
<totfact> 0.91581147E+03</totfact>
</mgrwt>
</event>
<event>
 5    1  0.3239419E-002  0.1250017E+03  0.7818608E-02  0.1235067E+00
          4   -1    0    0  501    0  0.00000000000E+00  0.00000000000E+00  0.96138651052E+03  0.96138734936E+03  0.12700000000E+01 0. -1.
         -4   -1    0    0    0  501 -0.00000000000E+00 -0.00000000000E+00 -0.39631514411E+01  0.41616666547E+01  0.12700000000E+01 0. -1.
         25    2    1    2    0    0  0.00000000000E+00  0.00000000000E+00  0.95742335908E+03  0.96554901602E+03  0.12500165526E+03 0.  0.
    9000005    1    3    3    0    0 -0.37421779510E+02 -0.44614310595E+02  0.65392322288E+03  0.65651154424E+03  0.10000000000E+01 0.  0.
    9000005    1    3    3    0    0  0.37421779510E+02  0.44614310595E+02  0.30350013620E+03  0.30903747178E+03  0.10000000000E+01 0.  0.
<mgrwt>
<rscale>  0 0.12500166E+03</rscale>
<asrwt>0</asrwt>
<pdfrwt beam="1">  1        4 0.14792103E+00 0.12500166E+03</pdfrwt>
<pdfrwt beam="2">  1       -4 0.62505022E-03 0.12500166E+03</pdfrwt>
<totfact> 0.31769108E+03</totfact>
</mgrwt>
</event>
<event>
 5    1  0.3239419E-002  0.1249957E+03  0.7818608E-02  0.1235076E+00
         -4   -1    0    0    0  501 -0.00000000000E+00  0.00000000000E+00  0.99087190514E+01  0.99897754349E+01  0.12700000000E+01 0.  1.
          4   -1    0    0  501    0  0.00000000000E+00 -0.00000000000E+00 -0.39250885145E+03  0.39251090605E+03  0.12700000000E+01 0.  1.
         25    2    1    2    0    0  0.00000000000E+00  0.00000000000E+00 -0.38260013240E+03  0.40250068149E+03  0.12499574906E+03 0.  0.
    9000005    1    3    3    0    0 -0.24455644830E+02 -0.54592979313E+02 -0.13311370564E+03  0.14594084618E+03  0.10000000000E+01 0.  0.
    9000005    1    3    3    0    0  0.24455644830E+02  0.54592979313E+02 -0.24948642676E+03  0.25655983531E+03  0.10000000000E+01 0.  0.
<mgrwt>
<rscale>  0 0.12499575E+03</rscale>
<asrwt>0</asrwt>
<pdfrwt beam="2">  1        4 0.60392358E-01 0.12499575E+03</pdfrwt>
<pdfrwt beam="1">  1       -4 0.15308118E-02 0.12499575E+03</pdfrwt>
<totfact> 0.64316341E+03</totfact>
</mgrwt>
</event>
<event>
 5    1  0.3239419E-002  0.1249996E+03  0.7818608E-02  0.1235070E+00
         -4   -1    0    0    0  501 -0.00000000000E+00  0.00000000000E+00  0.16402294362E+02  0.16451387794E+02  0.12700000000E+01 0. -1.
          4   -1    0    0  501    0  0.00000000000E+00 -0.00000000000E+00 -0.23774463273E+03  0.23774802479E+03  0.12700000000E+01 0. -1.
         25    2    1    2    0    0  0.00000000000E+00  0.00000000000E+00 -0.22134233836E+03  0.25419941258E+03  0.12499964242E+03 0.  0.
    9000005    1    3    3    0    0 -0.20756172257E+02 -0.11927147481E+02  0.67180412816E+01  0.24883882584E+02  0.10000000000E+01 0.  0.
    9000005    1    3    3    0    0  0.20756172257E+02  0.11927147481E+02 -0.22806037965E+03  0.22931553000E+03  0.10000000000E+01 0.  0.
<mgrwt>
<rscale>  0 0.12499964E+03</rscale>
<asrwt>0</asrwt>
<pdfrwt beam="2">  1        4 0.36580132E-01 0.12499964E+03</pdfrwt>
<pdfrwt beam="1">  1       -4 0.25274674E-02 0.12499964E+03</pdfrwt>
<totfact> 0.81727697E+03</totfact>
</mgrwt>
</event>
<event>
 5    1  0.3239419E-002  0.1250045E+03  0.7818608E-02  0.1235062E+00
          4   -1    0    0  501    0  0.00000000000E+00  0.00000000000E+00  0.97413239161E+02  0.97421517458E+02  0.12700000000E+01 0.  1.
         -4   -1    0    0    0  501 -0.00000000000E+00 -0.00000000000E+00 -0.40082640501E+02  0.40102755137E+02  0.12700000000E+01 0.  1.
         25    2    1    2    0    0  0.00000000000E+00  0.00000000000E+00  0.57330598660E+02  0.13752427259E+03  0.12500451196E+03 0.  0.
    9000005    1    3    3    0    0 -0.41217037306E+02 -0.46965685505E+02  0.29716061051E+02  0.69200173870E+02  0.10000000000E+01 0.  0.
    9000005    1    3    3    0    0  0.41217037306E+02  0.46965685505E+02  0.27614537609E+02  0.68324098725E+02  0.10000000000E+01 0.  0.
<mgrwt>
<rscale>  0 0.12500451E+03</rscale>
<asrwt>0</asrwt>
<pdfrwt beam="1">  1        4 0.14988836E-01 0.12500451E+03</pdfrwt>
<pdfrwt beam="2">  1       -4 0.61687442E-02 0.12500451E+03</pdfrwt>
<totfact> 0.10184099E+04</totfact>
</mgrwt>
</event>
<event>
 5    1  0.3239419E-002  0.1250008E+03  0.7818608E-02  0.1235068E+00
         -4   -1    0    0    0  501 -0.00000000000E+00  0.00000000000E+00  0.21366732658E+03  0.21367110088E+03  0.12700000000E+01 0.  1.
          4   -1    0    0  501    0  0.00000000000E+00 -0.00000000000E+00 -0.18256149606E+02  0.18300270447E+02  0.12700000000E+01 0.  1.
         25    2    1    2    0    0  0.00000000000E+00  0.00000000000E+00  0.19541117698E+03  0.23197137132E+03  0.12500075610E+03 0.  0.
    9000005    1    3    3    0    0 -0.31131729702E+02  0.52249086068E+02  0.12435016706E+03  0.13843090564E+03  0.10000000000E+01 0.  0.
    9000005    1    3    3    0    0  0.31131729702E+02 -0.52249086068E+02  0.71061009920E+02  0.93540465683E+02  0.10000000000E+01 0.  0.
<mgrwt>
<rscale>  0 0.12500076E+03</rscale>
<asrwt>0</asrwt>
<pdfrwt beam="2">  1        4 0.28123226E-02 0.12500076E+03</pdfrwt>
<pdfrwt beam="1">  1       -4 0.32875581E-01 0.12500076E+03</pdfrwt>
<totfact> 0.85006373E+03</totfact>
</mgrwt>
</event>
<event>
 5    1  0.3239419E-002  0.1249992E+03  0.7818608E-02  0.1235071E+00
         -4   -1    0    0    0  501 -0.00000000000E+00  0.00000000000E+00  0.50403461654E+02  0.50419459008E+02  0.12700000000E+01 0. -1.
          4   -1    0    0  501    0  0.00000000000E+00 -0.00000000000E+00 -0.77465154323E+02  0.77475564111E+02  0.12700000000E+01 0. -1.
         25    2    1    2    0    0  0.00000000000E+00  0.00000000000E+00 -0.27061692670E+02  0.12789502312E+03  0.12499920691E+03 0.  0.
    9000005    1    3    3    0    0  0.61538418654E+02  0.21072829309E+01 -0.24444866065E+02  0.66256841825E+02  0.10000000000E+01 0.  0.
    9000005    1    3    3    0    0 -0.61538418654E+02 -0.21072829309E+01 -0.26168266054E+01  0.61638181294E+02  0.10000000000E+01 0.  0.
<mgrwt>
<rscale>  0 0.12499921E+03</rscale>
<asrwt>0</asrwt>
<pdfrwt beam="2">  1        4 0.11919747E-01 0.12499921E+03</pdfrwt>
<pdfrwt beam="1">  1       -4 0.77564101E-02 0.12499921E+03</pdfrwt>
<totfact> 0.10389941E+04</totfact>
</mgrwt>
</event>
<event>
 5    1  0.3239419E-002  0.1249993E+03  0.7818608E-02  0.1235070E+00
          4   -1    0    0  501    0  0.00000000000E+00  0.00000000000E+00  0.15643162890E+02  0.15694631095E+02  0.12700000000E+01 0.  1.
         -4   -1    0    0    0  501 -0.00000000000E+00 -0.00000000000E+00 -0.24924367801E+03  0.24924691357E+03  0.12700000000E+01 0.  1.
         25    2    1    2    0    0  0.00000000000E+00  0.00000000000E+00 -0.23360051512E+03  0.26494154467E+03  0.12499928571E+03 0.  0.
    9000005    1    3    3    0    0  0.44103450537E+02  0.21785784285E+02 -0.35109191288E+02  0.60443279685E+02  0.10000000000E+01 0.  0.
    9000005    1    3    3    0    0 -0.44103450537E+02 -0.21785784285E+02 -0.19849132383E+03  0.20449826498E+03  0.10000000000E+01 0.  0.
<mgrwt>
<rscale>  0 0.12499929E+03</rscale>
<asrwt>0</asrwt>
<pdfrwt beam="1">  1        4 0.24108486E-02 0.12499929E+03</pdfrwt>
<pdfrwt beam="2">  1       -4 0.38349387E-01 0.12499929E+03</pdfrwt>
<totfact> 0.80218824E+03</totfact>
</mgrwt>
</event>
<event>
 5    1  0.3239419E-002  0.1249997E+03  0.7818608E-02  0.1235070E+00
          4   -1    0    0  501    0  0.00000000000E+00  0.00000000000E+00  0.23638699066E+02  0.23672790151E+02  0.12700000000E+01 0. -1.
         -4   -1    0    0    0  501 -0.00000000000E+00 -0.00000000000E+00 -0.16509169367E+03  0.16509657846E+03  0.12700000000E+01 0. -1.
         25    2    1    2    0    0  0.00000000000E+00  0.00000000000E+00 -0.14145299460E+03  0.18876936861E+03  0.12499969937E+03 0.  0.
    9000005    1    3    3    0    0  0.80240918276E+01  0.28918321513E+02 -0.15350434692E+03  0.15641368192E+03  0.10000000000E+01 0.  0.
    9000005    1    3    3    0    0 -0.80240918276E+01 -0.28918321513E+02  0.12051352312E+02  0.32355686693E+02  0.10000000000E+01 0.  0.
<mgrwt>
<rscale>  0 0.12499970E+03</rscale>
<asrwt>0</asrwt>
<pdfrwt beam="1">  1        4 0.36397212E-02 0.12499970E+03</pdfrwt>
<pdfrwt beam="2">  1       -4 0.25401719E-01 0.12499970E+03</pdfrwt>
<totfact> 0.92062502E+03</totfact>
</mgrwt>
</event>
<event>
 5    1  0.3239419E-002  0.1250025E+03  0.7818608E-02  0.1235065E+00
          4   -1    0    0  501    0  0.00000000000E+00  0.00000000000E+00  0.21160685100E+01  0.24679234062E+01  0.12700000000E+01 0. -1.
         -4   -1    0    0    0  501 -0.00000000000E+00 -0.00000000000E+00 -0.17040172385E+04  0.17040177118E+04  0.12700000000E+01 0. -1.
         25    2    1    2    0    0  0.00000000000E+00  0.00000000000E+00 -0.17019011700E+04  0.17064856352E+04  0.12500252249E+03 0.  0.
    9000005    1    3    3    0    0 -0.52987816360E+02  0.29227471330E+02 -0.10639567743E+04  0.10656767668E+04  0.10000000000E+01 0.  0.
    9000005    1    3    3    0    0  0.52987816360E+02 -0.29227471330E+02 -0.63794439574E+03  0.64080886840E+03  0.10000000000E+01 0.  0.
<mgrwt>
<rscale>  0 0.12500252E+03</rscale>
<asrwt>0</asrwt>
<pdfrwt beam="1">  1        4 0.35265253E-03 0.12500252E+03</pdfrwt>
<pdfrwt beam="2">  1       -4 0.26218259E+00 0.12500252E+03</pdfrwt>
<totfact> 0.14199319E+03</totfact>
</mgrwt>
</event>
<event>
 5    1  0.3239419E-002  0.1250038E+03  0.7818608E-02  0.1235063E+00
         -4   -1    0    0    0  501 -0.00000000000E+00  0.00000000000E+00  0.30235991580E+02  0.30262651682E+02  0.12700000000E+01 0. -1.
          4   -1    0    0  501    0  0.00000000000E+00 -0.00000000000E+00 -0.12911313310E+03  0.12911937902E+03  0.12700000000E+01 0. -1.
         25    2    1    2    0    0  0.00000000000E+00  0.00000000000E+00 -0.98877141517E+02  0.15938203070E+03  0.12500377032E+03 0.  0.
    9000005    1    3    3    0    0  0.23346528652E+02  0.41998388833E+02  0.15072948066E+01  0.48085309631E+02  0.10000000000E+01 0.  0.
    9000005    1    3    3    0    0 -0.23346528652E+02 -0.41998388833E+02 -0.10038443632E+03  0.11129672107E+03  0.10000000000E+01 0.  0.
<mgrwt>
<rscale>  0 0.12500377E+03</rscale>
<asrwt>0</asrwt>
<pdfrwt beam="2">  1        4 0.19866090E-01 0.12500377E+03</pdfrwt>
<pdfrwt beam="1">  1       -4 0.46542223E-02 0.12500377E+03</pdfrwt>
<totfact> 0.97453797E+03</totfact>
</mgrwt>
</event>
<event>
 5    1  0.3239419E-002  0.1249979E+03  0.7818608E-02  0.1235073E+00
          4   -1    0    0  501    0  0.00000000000E+00  0.00000000000E+00  0.22675506656E+02  0.22711043615E+02  0.12700000000E+01 0.  1.
         -4   -1    0    0    0  501 -0.00000000000E+00 -0.00000000000E+00 -0.17208875835E+03  0.17209344453E+03  0.12700000000E+01 0.  1.
         25    2    1    2    0    0  0.00000000000E+00  0.00000000000E+00 -0.14941325170E+03  0.19480448815E+03  0.12499787526E+03 0.  0.
    9000005    1    3    3    0    0  0.23168584849E+02 -0.57076204433E+02 -0.91099455275E+02  0.10997539356E+03  0.10000000000E+01 0.  0.
    9000005    1    3    3    0    0 -0.23168584849E+02  0.57076204433E+02 -0.58313796423E+02  0.84829094594E+02  0.10000000000E+01 0.  0.
<mgrwt>
<rscale>  0 0.12499788E+03</rscale>
<asrwt>0</asrwt>
<pdfrwt beam="1">  1        4 0.34916337E-02 0.12499788E+03</pdfrwt>
<pdfrwt beam="2">  1       -4 0.26478287E-01 0.12499788E+03</pdfrwt>
<totfact> 0.91022335E+03</totfact>
</mgrwt>
</event>
<event>
 5    1  0.3239419E-002  0.1250016E+03  0.7818608E-02  0.1235067E+00
          4   -1    0    0  501    0  0.00000000000E+00  0.00000000000E+00  0.56582475850E+03  0.56582618377E+03  0.12700000000E+01 0.  1.
         -4   -1    0    0    0  501 -0.00000000000E+00 -0.00000000000E+00 -0.68439680464E+01  0.69608044521E+01  0.12700000000E+01 0.  1.
         25    2    1    2    0    0  0.00000000000E+00  0.00000000000E+00  0.55898079046E+03  0.57278698822E+03  0.12500163908E+03 0.  0.
    9000005    1    3    3    0    0  0.37021836955E+02 -0.50259650787E+02  0.26597199627E+03  0.27320093651E+03  0.10000000000E+01 0.  0.
    9000005    1    3    3    0    0 -0.37021836955E+02  0.50259650787E+02  0.29300879419E+03  0.29958605171E+03  0.10000000000E+01 0.  0.
<mgrwt>
<rscale>  0 0.12500164E+03</rscale>
<asrwt>0</asrwt>
<pdfrwt beam="1">  1        4 0.87059077E-01 0.12500164E+03</pdfrwt>
<pdfrwt beam="2">  1       -4 0.10620150E-02 0.12500164E+03</pdfrwt>
<totfact> 0.50629870E+03</totfact>
</mgrwt>
</event>
<event>
 5    1  0.3239419E-002  0.1250025E+03  0.7818608E-02  0.1235065E+00
         -4   -1    0    0    0  501 -0.00000000000E+00  0.00000000000E+00  0.51285701654E+02  0.51301423900E+02  0.12700000000E+01 0.  1.
          4   -1    0    0  501    0  0.00000000000E+00 -0.00000000000E+00 -0.76136835374E+02  0.76147426751E+02  0.12700000000E+01 0.  1.
         25    2    1    2    0    0  0.00000000000E+00  0.00000000000E+00 -0.24851133719E+02  0.12744885065E+03  0.12500252271E+03 0.  0.
    9000005    1    3    3    0    0  0.52707636359E+02  0.27209435984E+02  0.76306865886E+01  0.59813674983E+02  0.10000000000E+01 0.  0.
    9000005    1    3    3    0    0 -0.52707636359E+02 -0.27209435984E+02 -0.32481820308E+02  0.67635175668E+02  0.10000000000E+01 0.  0.
<mgrwt>
<rscale>  0 0.12500252E+03</rscale>
<asrwt>0</asrwt>
<pdfrwt beam="2">  1        4 0.11715383E-01 0.12500252E+03</pdfrwt>
<pdfrwt beam="1">  1       -4 0.78921321E-02 0.12500252E+03</pdfrwt>
<totfact> 0.10398816E+04</totfact>
</mgrwt>
</event>
<event>
 5    1  0.3239419E-002  0.1250143E+03  0.7818608E-02  0.1235047E+00
         -4   -1    0    0    0  501 -0.00000000000E+00  0.00000000000E+00  0.14855076418E+03  0.14855619287E+03  0.12700000000E+01 0. -1.
          4   -1    0    0  501    0  0.00000000000E+00 -0.00000000000E+00 -0.26280484028E+02  0.26311152403E+02  0.12700000000E+01 0. -1.
         25    2    1    2    0    0  0.00000000000E+00  0.00000000000E+00  0.12227028016E+03  0.17486734527E+03  0.12501426732E+03 0.  0.
    9000005    1    3    3    0    0  0.15442645339E+02 -0.60561237130E+02  0.61058265245E+02  0.87379920419E+02  0.10000000000E+01 0.  0.
    9000005    1    3    3    0    0 -0.15442645339E+02  0.60561237130E+02  0.61212014911E+02  0.87487424852E+02  0.10000000000E+01 0.  0.
<mgrwt>
<rscale>  0 0.12501427E+03</rscale>
<asrwt>0</asrwt>
<pdfrwt beam="2">  1        4 0.40459281E-02 0.12501427E+03</pdfrwt>
<pdfrwt beam="1">  1       -4 0.22856740E-01 0.12501427E+03</pdfrwt>
<totfact> 0.94518886E+03</totfact>
</mgrwt>
</event>
<event>
 5    1  0.3239419E-002  0.1249980E+03  0.7818608E-02  0.1235072E+00
          4   -1    0    0  501    0  0.00000000000E+00  0.00000000000E+00  0.16138781923E+03  0.16139281612E+03  0.12700000000E+01 0.  1.
         -4   -1    0    0    0  501 -0.00000000000E+00 -0.00000000000E+00 -0.24181301453E+02  0.24214628636E+02  0.12700000000E+01 0.  1.
         25    2    1    2    0    0  0.00000000000E+00  0.00000000000E+00  0.13720651778E+03  0.18560744476E+03  0.12499798010E+03 0.  0.
    9000005    1    3    3    0    0  0.33435939339E+02 -0.93857944880E+01 -0.85402442434E+01  0.35776961153E+02  0.10000000000E+01 0.  0.
    9000005    1    3    3    0    0 -0.33435939339E+02  0.93857944880E+01  0.14574676202E+03  0.14983048360E+03  0.10000000000E+01 0.  0.
<mgrwt>
<rscale>  0 0.12499798E+03</rscale>
<asrwt>0</asrwt>
<pdfrwt beam="1">  1        4 0.24831842E-01 0.12499798E+03</pdfrwt>
<pdfrwt beam="2">  1       -4 0.37231484E-02 0.12499798E+03</pdfrwt>
<totfact> 0.92621465E+03</totfact>
</mgrwt>
</event>
<event>
 5    1  0.3239419E-002  0.1249874E+03  0.7818608E-02  0.1235089E+00
          4   -1    0    0  501    0  0.00000000000E+00  0.00000000000E+00  0.46504395307E+03  0.46504568721E+03  0.12700000000E+01 0.  1.
         -4   -1    0    0    0  501 -0.00000000000E+00 -0.00000000000E+00 -0.83482807236E+01  0.84443289277E+01  0.12700000000E+01 0.  1.
         25    2    1    2    0    0  0.00000000000E+00  0.00000000000E+00  0.45669567235E+03  0.47349001614E+03  0.12498743231E+03 0.  0.
    9000005    1    3    3    0    0 -0.29238669984E+02 -0.52859190403E+02  0.16779771014E+03  0.17834255062E+03  0.10000000000E+01 0.  0.
    9000005    1    3    3    0    0  0.29238669984E+02  0.52859190403E+02  0.28889796221E+03  0.29514746552E+03  0.10000000000E+01 0.  0.
<mgrwt>
<rscale>  0 0.12498743E+03</rscale>
<asrwt>0</asrwt>
<pdfrwt beam="1">  1        4 0.71552723E-01 0.12498743E+03</pdfrwt>
<pdfrwt beam="2">  1       -4 0.12918730E-02 0.12498743E+03</pdfrwt>
<totfact> 0.57997576E+03</totfact>
</mgrwt>
</event>
<event>
 5    1  0.3239419E-002  0.1250051E+03  0.7818608E-02  0.1235061E+00
          4   -1    0    0  501    0  0.00000000000E+00  0.00000000000E+00  0.12147907941E+02  0.12214113449E+02  0.12700000000E+01 0.  1.
         -4   -1    0    0    0  501 -0.00000000000E+00 -0.00000000000E+00 -0.32064213999E+03  0.32064465509E+03  0.12700000000E+01 0.  1.
         25    2    1    2    0    0  0.00000000000E+00  0.00000000000E+00 -0.30849423205E+03  0.33285876854E+03  0.12500507424E+03 0.  0.
    9000005    1    3    3    0    0 -0.92377728232E+00  0.55175793166E+02 -0.76143914137E+02  0.94043166557E+02  0.10000000000E+01 0.  0.
    9000005    1    3    3    0    0  0.92377728232E+00 -0.55175793166E+02 -0.23235031791E+03  0.23881560198E+03  0.10000000000E+01 0.  0.
<mgrwt>
<rscale>  0 0.12500507E+03</rscale>
<asrwt>0</asrwt>
<pdfrwt beam="1">  1        4 0.18741954E-02 0.12500507E+03</pdfrwt>
<pdfrwt beam="2">  1       -4 0.49334840E-01 0.12500507E+03</pdfrwt>
<totfact> 0.71644351E+03</totfact>
</mgrwt>
</event>
<event>
 5    1  0.3239419E-002  0.1250265E+03  0.7818608E-02  0.1235028E+00
         -4   -1    0    0    0  501 -0.00000000000E+00  0.00000000000E+00  0.25814930871E+02  0.25846151665E+02  0.12700000000E+01 0.  1.
          4   -1    0    0  501    0  0.00000000000E+00 -0.00000000000E+00 -0.15125618611E+03  0.15126151769E+03  0.12700000000E+01 0.  1.
         25    2    1    2    0    0  0.00000000000E+00  0.00000000000E+00 -0.12544125523E+03  0.17710766936E+03  0.12502646932E+03 0.  0.
    9000005    1    3    3    0    0 -0.52917040692E+02 -0.29943252687E+02 -0.83253094005E+02  0.10309650449E+03  0.10000000000E+01 0.  0.
    9000005    1    3    3    0    0  0.52917040692E+02  0.29943252687E+02 -0.42188161228E+02  0.74011164867E+02  0.10000000000E+01 0.  0.
<mgrwt>
<rscale>  0 0.12502647E+03</rscale>
<asrwt>0</asrwt>
<pdfrwt beam="2">  1        4 0.23272994E-01 0.12502647E+03</pdfrwt>
<pdfrwt beam="1">  1       -4 0.39743396E-02 0.12502647E+03</pdfrwt>
<totfact> 0.94084372E+03</totfact>
</mgrwt>
</event>
<event>
 5    1  0.3239419E-002  0.1250040E+03  0.7818608E-02  0.1235063E+00
         -4   -1    0    0    0  501 -0.00000000000E+00  0.00000000000E+00  0.21978437799E+04  0.21978441468E+04  0.12700000000E+01 0. -1.
          4   -1    0    0  501    0  0.00000000000E+00 -0.00000000000E+00 -0.15501498648E+01  0.20039622260E+01  0.12700000000E+01 0. -1.
         25    2    1    2    0    0  0.00000000000E+00  0.00000000000E+00  0.21962936300E+04  0.21998481090E+04  0.12500397423E+03 0.  0.
    9000005    1    3    3    0    0 -0.44198710008E+01  0.14468041125E+02  0.31073240619E+02  0.34574640363E+02  0.10000000000E+01 0.  0.
    9000005    1    3    3    0    0  0.44198710008E+01 -0.14468041125E+02  0.21652203894E+04  0.21652734687E+04  0.10000000000E+01 0.  0.
<mgrwt>
<rscale>  0 0.12500397E+03</rscale>
<asrwt>0</asrwt>
<pdfrwt beam="2">  1        4 0.27342240E-03 0.12500397E+03</pdfrwt>
<pdfrwt beam="1">  1       -4 0.33816359E+00 0.12500397E+03</pdfrwt>
<totfact> 0.74725916E+02</totfact>
</mgrwt>
</event>
<event>
 5    1  0.3239419E-002  0.1250001E+03  0.7818608E-02  0.1235069E+00
         -4   -1    0    0    0  501 -0.00000000000E+00  0.00000000000E+00  0.21645070334E+02  0.21682296229E+02  0.12700000000E+01 0.  1.
          4   -1    0    0  501    0  0.00000000000E+00 -0.00000000000E+00 -0.18027406483E+03  0.18027853824E+03  0.12700000000E+01 0.  1.
         25    2    1    2    0    0  0.00000000000E+00  0.00000000000E+00 -0.15862899450E+03  0.20196083447E+03  0.12500008306E+03 0.  0.
    9000005    1    3    3    0    0  0.65814688619E+01 -0.55729250939E+02 -0.34884904359E+02  0.66083444937E+02  0.10000000000E+01 0.  0.
    9000005    1    3    3    0    0 -0.65814688619E+01  0.55729250939E+02 -0.12374409014E+03  0.13587738953E+03  0.10000000000E+01 0.  0.
<mgrwt>
<rscale>  0 0.12500008E+03</rscale>
<asrwt>0</asrwt>
<pdfrwt beam="2">  1        4 0.27737678E-01 0.12500008E+03</pdfrwt>
<pdfrwt beam="1">  1       -4 0.33332186E-02 0.12500008E+03</pdfrwt>
<totfact> 0.89805680E+03</totfact>
</mgrwt>
</event>
<event>
 5    1  0.3239419E-002  0.1250014E+03  0.7818608E-02  0.1235067E+00
         -4   -1    0    0    0  501 -0.00000000000E+00  0.00000000000E+00  0.74485140284E+02  0.74495966489E+02  0.12700000000E+01 0.  1.
          4   -1    0    0  501    0  0.00000000000E+00 -0.00000000000E+00 -0.52422207821E+02  0.52437589312E+02  0.12700000000E+01 0.  1.
         25    2    1    2    0    0  0.00000000000E+00  0.00000000000E+00  0.22062932463E+02  0.12693355580E+03  0.12500141839E+03 0.  0.
    9000005    1    3    3    0    0  0.24687563616E+02 -0.45514956056E+02  0.46561600627E+02  0.69642441621E+02  0.10000000000E+01 0.  0.
    9000005    1    3    3    0    0 -0.24687563616E+02  0.45514956056E+02 -0.24498668165E+02  0.57291114179E+02  0.10000000000E+01 0.  0.
<mgrwt>
<rscale>  0 0.12500142E+03</rscale>
<asrwt>0</asrwt>
<pdfrwt beam="2">  1        4 0.80669710E-02 0.12500142E+03</pdfrwt>
<pdfrwt beam="1">  1       -4 0.11461268E-01 0.12500142E+03</pdfrwt>
<totfact> 0.10410256E+04</totfact>
</mgrwt>
</event>
<event>
 5    1  0.3239419E-002  0.1249553E+03  0.7818608E-02  0.1235139E+00
         -4   -1    0    0    0  501 -0.00000000000E+00  0.00000000000E+00  0.52050153523E+01  0.53577126479E+01  0.12700000000E+01 0.  1.
          4   -1    0    0  501    0  0.00000000000E+00 -0.00000000000E+00 -0.73894731961E+03  0.73894841096E+03  0.12700000000E+01 0.  1.
         25    2    1    2    0    0  0.00000000000E+00  0.00000000000E+00 -0.73374230426E+03  0.74430612361E+03  0.12495533835E+03 0.  0.
    9000005    1    3    3    0    0  0.38778604073E+02 -0.44446368888E+02 -0.24433358608E+03  0.25135465209E+03  0.10000000000E+01 0.  0.
    9000005    1    3    3    0    0 -0.38778604073E+02  0.44446368888E+02 -0.48940871818E+03  0.49295147152E+03  0.10000000000E+01 0.  0.
<mgrwt>
<rscale>  0 0.12495534E+03</rscale>
<asrwt>0</asrwt>
<pdfrwt beam="2">  1        4 0.11369595E+00 0.12495534E+03</pdfrwt>
<pdfrwt beam="1">  1       -4 0.81260207E-03 0.12495534E+03</pdfrwt>
<totfact> 0.40887904E+03</totfact>
</mgrwt>
</event>
<event>
 5    1  0.3239419E-002  0.1249973E+03  0.7818608E-02  0.1235073E+00
         -4   -1    0    0    0  501 -0.00000000000E+00  0.00000000000E+00  0.17593634090E+02  0.17639412136E+02  0.12700000000E+01 0.  1.
          4   -1    0    0  501    0  0.00000000000E+00 -0.00000000000E+00 -0.22168071965E+03  0.22168435751E+03  0.12700000000E+01 0.  1.
         25    2    1    2    0    0  0.00000000000E+00  0.00000000000E+00 -0.20408708556E+03  0.23932376964E+03  0.12499731287E+03 0.  0.
    9000005    1    3    3    0    0  0.56894969027E+02 -0.43741579795E+01 -0.15081635816E+03  0.16125366553E+03  0.10000000000E+01 0.  0.
    9000005    1    3    3    0    0 -0.56894969027E+02  0.43741579795E+01 -0.53270727398E+02  0.78070104112E+02  0.10000000000E+01 0.  0.
<mgrwt>
<rscale>  0 0.12499731E+03</rscale>
<asrwt>0</asrwt>
<pdfrwt beam="2">  1        4 0.34108525E-01 0.12499731E+03</pdfrwt>
<pdfrwt beam="1">  1       -4 0.27105143E-02 0.12499731E+03</pdfrwt>
<totfact> 0.83903210E+03</totfact>
</mgrwt>
</event>
<event>
 5    1  0.3239419E-002  0.1250104E+03  0.7818608E-02  0.1235053E+00
         -4   -1    0    0    0  501 -0.00000000000E+00  0.00000000000E+00  0.18534141019E+03  0.18534576130E+03  0.12700000000E+01 0. -1.
          4   -1    0    0  501    0  0.00000000000E+00 -0.00000000000E+00 -0.21055743438E+02  0.21094009380E+02  0.12700000000E+01 0. -1.
         25    2    1    2    0    0  0.00000000000E+00  0.00000000000E+00  0.16428566675E+03  0.20643977068E+03  0.12501039404E+03 0.  0.
    9000005    1    3    3    0    0  0.20529215309E+01 -0.55700572050E+01 -0.20597207777E+02  0.21458914052E+02  0.10000000000E+01 0.  0.
    9000005    1    3    3    0    0 -0.20529215309E+01  0.55700572050E+01  0.18488287453E+03  0.18498085663E+03  0.10000000000E+01 0.  0.
<mgrwt>
<rscale>  0 0.12501039E+03</rscale>
<asrwt>0</asrwt>
<pdfrwt beam="2">  1        4 0.32426234E-02 0.12501039E+03</pdfrwt>
<pdfrwt beam="1">  1       -4 0.28517341E-01 0.12501039E+03</pdfrwt>
<totfact> 0.89039934E+03</totfact>
</mgrwt>
</event>
<event>
 5    1  0.3239419E-002  0.1250047E+03  0.7818608E-02  0.1235062E+00
         -4   -1    0    0    0  501 -0.00000000000E+00  0.00000000000E+00  0.12978696670E+04  0.12978702883E+04  0.12700000000E+01 0.  1.
          4   -1    0    0  501    0  0.00000000000E+00 -0.00000000000E+00 -0.28753549976E+01  0.31433368197E+01  0.12700000000E+01 0.  1.
         25    2    1    2    0    0  0.00000000000E+00  0.00000000000E+00  0.12949943120E+04  0.13010136251E+04  0.12500473909E+03 0.  0.
    9000005    1    3    3    0    0 -0.10656575938E+02 -0.20801411090E+02  0.12507213957E+04  0.12509401549E+04  0.10000000000E+01 0.  0.
    9000005    1    3    3    0    0  0.10656575938E+02  0.20801411090E+02  0.44272916224E+02  0.50073470271E+02  0.10000000000E+01 0.  0.
<mgrwt>
<rscale>  0 0.12500474E+03</rscale>
<asrwt>0</asrwt>
<pdfrwt beam="2">  1        4 0.46302392E-03 0.12500474E+03</pdfrwt>
<pdfrwt beam="1">  1       -4 0.19969299E+00 0.12500474E+03</pdfrwt>
<totfact> 0.22202296E+03</totfact>
</mgrwt>
</event>
<event>
 5    1  0.3239419E-002  0.1249970E+03  0.7818608E-02  0.1235074E+00
         -4   -1    0    0    0  501 -0.00000000000E+00  0.00000000000E+00  0.30942643454E+03  0.30942904080E+03  0.12700000000E+01 0. -1.
          4   -1    0    0  501    0  0.00000000000E+00 -0.00000000000E+00 -0.12588947050E+02  0.12652845049E+02  0.12700000000E+01 0. -1.
         25    2    1    2    0    0  0.00000000000E+00  0.00000000000E+00  0.29683748749E+03  0.32208188585E+03  0.12499698882E+03 0.  0.
    9000005    1    3    3    0    0 -0.61538109081E+02  0.10850679718E+02  0.14681851342E+03  0.15956613676E+03  0.10000000000E+01 0.  0.
    9000005    1    3    3    0    0  0.61538109081E+02 -0.10850679718E+02  0.15001897407E+03  0.16251574909E+03  0.10000000000E+01 0.  0.
<mgrwt>
<rscale>  0 0.12499699E+03</rscale>
<asrwt>0</asrwt>
<pdfrwt beam="2">  1        4 0.19418768E-02 0.12499699E+03</pdfrwt>
<pdfrwt beam="1">  1       -4 0.47609182E-01 0.12499699E+03</pdfrwt>
<totfact> 0.72914060E+03</totfact>
</mgrwt>
</event>
<event>
 5    1  0.3239419E-002  0.1249998E+03  0.7818608E-02  0.1235070E+00
          4   -1    0    0  501    0  0.00000000000E+00  0.00000000000E+00  0.37935309794E+02  0.37956562399E+02  0.12700000000E+01 0.  1.
         -4   -1    0    0    0  501 -0.00000000000E+00 -0.00000000000E+00 -0.10291700912E+03  0.10292484475E+03  0.12700000000E+01 0.  1.
         25    2    1    2    0    0  0.00000000000E+00  0.00000000000E+00 -0.64981699328E+02  0.14088140715E+03  0.12499979853E+03 0.  0.
    9000005    1    3    3    0    0  0.46297715689E+02  0.13038945901E+02 -0.77456521886E+02  0.91181167852E+02  0.10000000000E+01 0.  0.
    9000005    1    3    3    0    0 -0.46297715689E+02 -0.13038945901E+02  0.12474822558E+02  0.49700239296E+02  0.10000000000E+01 0.  0.
<mgrwt>
<rscale>  0 0.12499980E+03</rscale>
<asrwt>0</asrwt>
<pdfrwt beam="1">  1        4 0.58384391E-02 0.12499980E+03</pdfrwt>
<pdfrwt beam="2">  1       -4 0.15835623E-01 0.12499980E+03</pdfrwt>
<totfact> 0.10115397E+04</totfact>
</mgrwt>
</event>
<event>
 5    1  0.3239419E-002  0.1250024E+03  0.7818608E-02  0.1235066E+00
          4   -1    0    0  501    0  0.00000000000E+00  0.00000000000E+00  0.17797111134E+03  0.17797564263E+03  0.12700000000E+01 0.  1.
         -4   -1    0    0    0  501 -0.00000000000E+00 -0.00000000000E+00 -0.21926432398E+02  0.21963181412E+02  0.12700000000E+01 0.  1.
         25    2    1    2    0    0  0.00000000000E+00  0.00000000000E+00  0.15604467894E+03  0.19993882405E+03  0.12500236612E+03 0.  0.
    9000005    1    3    3    0    0  0.34460876220E+02  0.36360394734E+02  0.18265797922E+02  0.53331694787E+02  0.10000000000E+01 0.  0.
    9000005    1    3    3    0    0 -0.34460876220E+02 -0.36360394734E+02  0.13777888102E+03  0.14660712926E+03  0.10000000000E+01 0.  0.
<mgrwt>
<rscale>  0 0.12500237E+03</rscale>
<asrwt>0</asrwt>
<pdfrwt beam="1">  1        4 0.27383346E-01 0.12500237E+03</pdfrwt>
<pdfrwt beam="2">  1       -4 0.33764728E-02 0.12500237E+03</pdfrwt>
<totfact> 0.90141052E+03</totfact>
</mgrwt>
</event>
<event>
 5    1  0.3239419E-002  0.1249923E+03  0.7818608E-02  0.1235081E+00
         -4   -1    0    0    0  501 -0.00000000000E+00  0.00000000000E+00  0.26323886898E+03  0.26324193253E+03  0.12700000000E+01 0. -1.
          4   -1    0    0  501    0  0.00000000000E+00 -0.00000000000E+00 -0.14807023160E+02  0.14861387380E+02  0.12700000000E+01 0. -1.
         25    2    1    2    0    0  0.00000000000E+00  0.00000000000E+00  0.24843184582E+03  0.27810331991E+03  0.12499229787E+03 0.  0.
    9000005    1    3    3    0    0  0.53621350464E+02 -0.10602673483E+02  0.19159606340E+03  0.19924286040E+03  0.10000000000E+01 0.  0.
    9000005    1    3    3    0    0 -0.53621350464E+02  0.10602673483E+02  0.56835782422E+02  0.78860459510E+02  0.10000000000E+01 0.  0.
<mgrwt>
<rscale>  0 0.12499230E+03</rscale>
<asrwt>0</asrwt>
<pdfrwt beam="2">  1        4 0.22824211E-02 0.12499230E+03</pdfrwt>
<pdfrwt beam="1">  1       -4 0.40502705E-01 0.12499230E+03</pdfrwt>
<totfact> 0.78443695E+03</totfact>
</mgrwt>
</event>
<event>
 5    1  0.3239419E-002  0.1249994E+03  0.7818608E-02  0.1235070E+00
         -4   -1    0    0    0  501 -0.00000000000E+00  0.00000000000E+00  0.22432501117E+03  0.22432860615E+03  0.12700000000E+01 0.  1.
          4   -1    0    0  501    0  0.00000000000E+00 -0.00000000000E+00 -0.17386286887E+02  0.17432609435E+02  0.12700000000E+01 0.  1.
         25    2    1    2    0    0  0.00000000000E+00  0.00000000000E+00  0.20693872428E+03  0.24176121558E+03  0.12499939901E+03 0.  0.
    9000005    1    3    3    0    0  0.34661709243E+02  0.47656263768E+02  0.14369949933E+03  0.15531612818E+03  0.10000000000E+01 0.  0.
    9000005    1    3    3    0    0 -0.34661709243E+02 -0.47656263768E+02  0.63239224950E+02  0.86445087404E+02  0.10000000000E+01 0.  0.
<mgrwt>
<rscale>  0 0.12499940E+03</rscale>
<asrwt>0</asrwt>
<pdfrwt beam="2">  1        4 0.26786531E-02 0.12499940E+03</pdfrwt>
<pdfrwt beam="1">  1       -4 0.34515381E-01 0.12499940E+03</pdfrwt>
<totfact> 0.83536880E+03</totfact>
</mgrwt>
</event>
<event>
 5    1  0.3239419E-002  0.1250000E+03  0.7818608E-02  0.1235069E+00
          4   -1    0    0  501    0  0.00000000000E+00  0.00000000000E+00  0.31533108362E+03  0.31533364108E+03  0.12700000000E+01 0.  1.
         -4   -1    0    0    0  501 -0.00000000000E+00 -0.00000000000E+00 -0.12352614878E+02  0.12417729033E+02  0.12700000000E+01 0.  1.
         25    2    1    2    0    0  0.00000000000E+00  0.00000000000E+00  0.30297846874E+03  0.32775137011E+03  0.12500003236E+03 0.  0.
    9000005    1    3    3    0    0  0.13713364331E+02 -0.45113092471E+02  0.43954696413E+02  0.64469084144E+02  0.10000000000E+01 0.  0.
    9000005    1    3    3    0    0 -0.13713364331E+02  0.45113092471E+02  0.25902377233E+03  0.26328228597E+03  0.10000000000E+01 0.  0.
<mgrwt>
<rscale>  0 0.12500003E+03</rscale>
<asrwt>0</asrwt>
<pdfrwt beam="1">  1        4 0.48517687E-01 0.12500003E+03</pdfrwt>
<pdfrwt beam="2">  1       -4 0.19056075E-02 0.12500003E+03</pdfrwt>
<totfact> 0.72243531E+03</totfact>
</mgrwt>
</event>
<event>
 5    1  0.3239419E-002  0.1250033E+03  0.7818608E-02  0.1235064E+00
         -4   -1    0    0    0  501 -0.00000000000E+00  0.00000000000E+00  0.28789243249E+03  0.28789523370E+03  0.12700000000E+01 0. -1.
          4   -1    0    0  501    0  0.00000000000E+00 -0.00000000000E+00 -0.13536551950E+02  0.13595997157E+02  0.12700000000E+01 0. -1.
         25    2    1    2    0    0  0.00000000000E+00  0.00000000000E+00  0.27435588055E+03  0.30149123086E+03  0.12500325234E+03 0.  0.
    9000005    1    3    3    0    0 -0.46156001569E+02  0.25258831262E+02  0.55848714863E+02  0.76736327704E+02  0.10000000000E+01 0.  0.
    9000005    1    3    3    0    0  0.46156001569E+02 -0.25258831262E+02  0.21850716568E+03  0.22475490315E+03  0.10000000000E+01 0.  0.
<mgrwt>
<rscale>  0 0.12500325E+03</rscale>
<asrwt>0</asrwt>
<pdfrwt beam="2">  1        4 0.20873347E-02 0.12500325E+03</pdfrwt>
<pdfrwt beam="1">  1       -4 0.44295929E-01 0.12500325E+03</pdfrwt>
<totfact> 0.75406718E+03</totfact>
</mgrwt>
</event>
<event>
 5    1  0.3239419E-002  0.1249981E+03  0.7818608E-02  0.1235072E+00
          4   -1    0    0  501    0  0.00000000000E+00  0.00000000000E+00  0.40116137752E+02  0.40136235600E+02  0.12700000000E+01 0. -1.
         -4   -1    0    0    0  501 -0.00000000000E+00 -0.00000000000E+00 -0.97321955231E+02  0.97330241292E+02  0.12700000000E+01 0. -1.
         25    2    1    2    0    0  0.00000000000E+00  0.00000000000E+00 -0.57205817479E+02  0.13746647689E+03  0.12499810685E+03 0.  0.
    9000005    1    3    3    0    0 -0.50676164747E+02 -0.33919971164E+02 -0.13584452670E+02  0.62483401568E+02  0.10000000000E+01 0.  0.
    9000005    1    3    3    0    0  0.50676164747E+02  0.33919971164E+02 -0.43621364809E+02  0.74983075324E+02  0.10000000000E+01 0.  0.
<mgrwt>
<rscale>  0 0.12499811E+03</rscale>
<asrwt>0</asrwt>
<pdfrwt beam="1">  1        4 0.61738969E-02 0.12499811E+03</pdfrwt>
<pdfrwt beam="2">  1       -4 0.14974792E-01 0.12499811E+03</pdfrwt>
<totfact> 0.10186776E+04</totfact>
</mgrwt>
</event>
<event>
 5    1  0.3239419E-002  0.1250083E+03  0.7818608E-02  0.1235056E+00
          4   -1    0    0  501    0  0.00000000000E+00  0.00000000000E+00  0.69492950969E+03  0.69493067016E+03  0.12700000000E+01 0.  1.
         -4   -1    0    0    0  501 -0.00000000000E+00 -0.00000000000E+00 -0.55489153337E+01  0.56923950478E+01  0.12700000000E+01 0.  1.
         25    2    1    2    0    0  0.00000000000E+00  0.00000000000E+00  0.68938059435E+03  0.70062306521E+03  0.12500830226E+03 0.  0.
    9000005    1    3    3    0    0  0.34314190821E+02 -0.67844664913E+01  0.63495706978E+03  0.63592057141E+03  0.10000000000E+01 0.  0.
    9000005    1    3    3    0    0 -0.34314190821E+02  0.67844664913E+01  0.54423524573E+02  0.64702493802E+02  0.10000000000E+01 0.  0.
<mgrwt>
<rscale>  0 0.12500830E+03</rscale>
<asrwt>0</asrwt>
<pdfrwt beam="1">  1        4 0.10692330E+00 0.12500830E+03</pdfrwt>
<pdfrwt beam="2">  1       -4 0.86480590E-03 0.12500830E+03</pdfrwt>
<totfact> 0.43046018E+03</totfact>
</mgrwt>
</event>
<event>
 5    1  0.3239419E-002  0.1250014E+03  0.7818608E-02  0.1235067E+00
         -4   -1    0    0    0  501 -0.00000000000E+00  0.00000000000E+00  0.44084176324E+01  0.45877059650E+01  0.12700000000E+01 0.  1.
          4   -1    0    0  501    0  0.00000000000E+00 -0.00000000000E+00 -0.86826893513E+03  0.86826986394E+03  0.12700000000E+01 0.  1.
         25    2    1    2    0    0  0.00000000000E+00  0.00000000000E+00 -0.86386051750E+03  0.87285756990E+03  0.12500137453E+03 0.  0.
    9000005    1    3    3    0    0 -0.72598532687E+00  0.42291023527E+02 -0.11070109176E+03  0.11851071447E+03  0.10000000000E+01 0.  0.
    9000005    1    3    3    0    0  0.72598532687E+00 -0.42291023527E+02 -0.75315942574E+03  0.75434685544E+03  0.10000000000E+01 0.  0.
<mgrwt>
<rscale>  0 0.12500137E+03</rscale>
<asrwt>0</asrwt>
<pdfrwt beam="2">  1        4 0.13359357E+00 0.12500137E+03</pdfrwt>
<pdfrwt beam="1">  1       -4 0.69208165E-03 0.12500137E+03</pdfrwt>
<totfact> 0.35208769E+03</totfact>
</mgrwt>
</event>
<event>
 5    1  0.3239419E-002  0.1249995E+03  0.7818608E-02  0.1235070E+00
         -4   -1    0    0    0  501 -0.00000000000E+00  0.00000000000E+00  0.72044832656E+01  0.73155641699E+01  0.12700000000E+01 0.  1.
          4   -1    0    0  501    0  0.00000000000E+00 -0.00000000000E+00 -0.53793326660E+03  0.53793476576E+03  0.12700000000E+01 0.  1.
         25    2    1    2    0    0  0.00000000000E+00  0.00000000000E+00 -0.53072878333E+03  0.54525032993E+03  0.12499952332E+03 0.  0.
    9000005    1    3    3    0    0 -0.40806979168E+02 -0.21644002977E+02 -0.44896073068E+03  0.45133181818E+03  0.10000000000E+01 0.  0.
    9000005    1    3    3    0    0  0.40806979168E+02  0.21644002977E+02 -0.81768052651E+02  0.93918511743E+02  0.10000000000E+01 0.  0.
<mgrwt>
<rscale>  0 0.12499952E+03</rscale>
<asrwt>0</asrwt>
<pdfrwt beam="2">  1        4 0.82767593E-01 0.12499952E+03</pdfrwt>
<pdfrwt beam="1">  1       -4 0.11170425E-02 0.12499952E+03</pdfrwt>
<totfact> 0.52517396E+03</totfact>
</mgrwt>
</event>
<event>
 5    1  0.3239419E-002  0.1250019E+03  0.7818608E-02  0.1235066E+00
         -4   -1    0    0    0  501 -0.00000000000E+00  0.00000000000E+00  0.10433700110E+03  0.10434473010E+03  0.12700000000E+01 0.  1.
          4   -1    0    0  501    0  0.00000000000E+00 -0.00000000000E+00 -0.37420036517E+02  0.37441581603E+02  0.12700000000E+01 0.  1.
         25    2    1    2    0    0  0.00000000000E+00  0.00000000000E+00  0.66916964585E+02  0.14178631170E+03  0.12500191213E+03 0.  0.
    9000005    1    3    3    0    0 -0.11280457473E+02  0.61078842052E+02  0.25641386327E+02  0.67203826974E+02  0.10000000000E+01 0.  0.
    9000005    1    3    3    0    0  0.11280457473E+02 -0.61078842052E+02  0.41275578257E+02  0.74582484725E+02  0.10000000000E+01 0.  0.
<mgrwt>
<rscale>  0 0.12500191E+03</rscale>
<asrwt>0</asrwt>
<pdfrwt beam="2">  1        4 0.57591807E-02 0.12500191E+03</pdfrwt>
<pdfrwt beam="1">  1       -4 0.16054098E-01 0.12500191E+03</pdfrwt>
<totfact> 0.10096262E+04</totfact>
</mgrwt>
</event>
<event>
 5    1  0.3239419E-002  0.1250003E+03  0.7818608E-02  0.1235069E+00
         -4   -1    0    0    0  501 -0.00000000000E+00  0.00000000000E+00  0.31610974273E+03  0.31611229389E+03  0.12700000000E+01 0. -1.
          4   -1    0    0  501    0  0.00000000000E+00 -0.00000000000E+00 -0.12322081670E+02  0.12387356324E+02  0.12700000000E+01 0. -1.
         25    2    1    2    0    0  0.00000000000E+00  0.00000000000E+00  0.30378766106E+03  0.32849965021E+03  0.12500030871E+03 0.  0.
    9000005    1    3    3    0    0  0.42400468763E+02  0.18997869708E+02  0.26172216517E+03  0.26581612168E+03  0.10000000000E+01 0.  0.
    9000005    1    3    3    0    0 -0.42400468763E+02 -0.18997869708E+02  0.42065495888E+02  0.62683528531E+02  0.10000000000E+01 0.  0.
<mgrwt>
<rscale>  0 0.12500031E+03</rscale>
<asrwt>0</asrwt>
<pdfrwt beam="2">  1        4 0.19009222E-02 0.12500031E+03</pdfrwt>
<pdfrwt beam="1">  1       -4 0.48637486E-01 0.12500031E+03</pdfrwt>
<totfact> 0.72155984E+03</totfact>
</mgrwt>
</event>
<event>
 5    1  0.3239419E-002  0.1249990E+03  0.7818608E-02  0.1235071E+00
         -4   -1    0    0    0  501 -0.00000000000E+00  0.00000000000E+00  0.66785833156E+02  0.66797907230E+02  0.12700000000E+01 0.  1.
          4   -1    0    0  501    0  0.00000000000E+00 -0.00000000000E+00 -0.58464000768E+02  0.58477793099E+02  0.12700000000E+01 0.  1.
         25    2    1    2    0    0  0.00000000000E+00  0.00000000000E+00  0.83218323881E+01  0.12527570033E+03  0.12499899279E+03 0.  0.
    9000005    1    3    3    0    0  0.45567168331E+02 -0.40341758637E+02  0.18382562416E+02  0.63582567742E+02  0.10000000000E+01 0.  0.
    9000005    1    3    3    0    0 -0.45567168331E+02  0.40341758637E+02 -0.10060730028E+02  0.61693132587E+02  0.10000000000E+01 0.  0.
<mgrwt>
<rscale>  0 0.12499899E+03</rscale>
<asrwt>0</asrwt>
<pdfrwt beam="2">  1        4 0.89964514E-02 0.12499899E+03</pdfrwt>
<pdfrwt beam="1">  1       -4 0.10276733E-01 0.12499899E+03</pdfrwt>
<totfact> 0.10447115E+04</totfact>
</mgrwt>
</event>
<event>
 5    1  0.3239419E-002  0.1250007E+03  0.7818608E-02  0.1235068E+00
          4   -1    0    0  501    0  0.00000000000E+00  0.00000000000E+00  0.52128013421E+02  0.52143481694E+02  0.12700000000E+01 0.  1.
         -4   -1    0    0    0  501 -0.00000000000E+00 -0.00000000000E+00 -0.74904643464E+02  0.74915409045E+02  0.12700000000E+01 0.  1.
         25    2    1    2    0    0  0.00000000000E+00  0.00000000000E+00 -0.22776630043E+02  0.12705889074E+03  0.12500074736E+03 0.  0.
    9000005    1    3    3    0    0  0.28372654303E+02 -0.36330064866E+02  0.31501398310E+02  0.55841017370E+02  0.10000000000E+01 0.  0.
    9000005    1    3    3    0    0 -0.28372654303E+02  0.36330064866E+02 -0.54278028353E+02  0.71217873370E+02  0.10000000000E+01 0.  0.
<mgrwt>
<rscale>  0 0.12500075E+03</rscale>
<asrwt>0</asrwt>
<pdfrwt beam="1">  1        4 0.80217124E-02 0.12500075E+03</pdfrwt>
<pdfrwt beam="2">  1       -4 0.11525809E-01 0.12500075E+03</pdfrwt>
<totfact> 0.10407691E+04</totfact>
</mgrwt>
</event>
<event>
 5    1  0.3239419E-002  0.1250013E+03  0.7818608E-02  0.1235067E+00
          4   -1    0    0  501    0  0.00000000000E+00  0.00000000000E+00  0.16112909243E+03  0.16113409735E+03  0.12700000000E+01 0. -1.
         -4   -1    0    0    0  501 -0.00000000000E+00 -0.00000000000E+00 -0.24221468457E+02  0.24254740448E+02  0.12700000000E+01 0. -1.
         25    2    1    2    0    0  0.00000000000E+00  0.00000000000E+00  0.13690762398E+03  0.18538883780E+03  0.12500129470E+03 0.  0.
    9000005    1    3    3    0    0  0.34296642942E+02  0.28703736002E+02  0.13318827747E+03  0.14050011186E+03  0.10000000000E+01 0.  0.
    9000005    1    3    3    0    0 -0.34296642942E+02 -0.28703736002E+02  0.37193465038E+01  0.44888725934E+02  0.10000000000E+01 0.  0.
<mgrwt>
<rscale>  0 0.12500129E+03</rscale>
<asrwt>0</asrwt>
<pdfrwt beam="1">  1        4 0.24792035E-01 0.12500129E+03</pdfrwt>
<pdfrwt beam="2">  1       -4 0.37293243E-02 0.12500129E+03</pdfrwt>
<totfact> 0.92653202E+03</totfact>
</mgrwt>
</event>
<event>
 5    1  0.3239419E-002  0.1250068E+03  0.7818608E-02  0.1235059E+00
          4   -1    0    0  501    0  0.00000000000E+00  0.00000000000E+00  0.31372404787E+03  0.31372661843E+03  0.12700000000E+01 0.  1.
         -4   -1    0    0    0  501 -0.00000000000E+00 -0.00000000000E+00 -0.12417575761E+02  0.12482351052E+02  0.12700000000E+01 0.  1.
         25    2    1    2    0    0  0.00000000000E+00  0.00000000000E+00  0.30130647211E+03  0.32620896948E+03  0.12500680636E+03 0.  0.
    9000005    1    3    3    0    0 -0.47149988814E+02 -0.25472233889E+02  0.23455354174E+03  0.24059991706E+03  0.10000000000E+01 0.  0.
    9000005    1    3    3    0    0  0.47149988814E+02  0.25472233889E+02  0.66752930363E+02  0.85609052422E+02  0.10000000000E+01 0.  0.
<mgrwt>
<rscale>  0 0.12500681E+03</rscale>
<asrwt>0</asrwt>
<pdfrwt beam="1">  1        4 0.48270413E-01 0.12500681E+03</pdfrwt>
<pdfrwt beam="2">  1       -4 0.19155769E-02 0.12500681E+03</pdfrwt>
<totfact> 0.72412766E+03</totfact>
</mgrwt>
</event>
<event>
 5    1  0.3239419E-002  0.1249989E+03  0.7818608E-02  0.1235071E+00
          4   -1    0    0  501    0  0.00000000000E+00  0.00000000000E+00  0.37974751957E+03  0.37974964321E+03  0.12700000000E+01 0. -1.
         -4   -1    0    0    0  501 -0.00000000000E+00 -0.00000000000E+00 -0.10244898589E+02  0.10323315703E+02  0.12700000000E+01 0. -1.
         25    2    1    2    0    0  0.00000000000E+00  0.00000000000E+00  0.36950262098E+03  0.39007295891E+03  0.12499890546E+03 0.  0.
    9000005    1    3    3    0    0  0.23826809081E+02 -0.57085701585E+02  0.15706963785E+03  0.16881458850E+03  0.10000000000E+01 0.  0.
    9000005    1    3    3    0    0 -0.23826809081E+02  0.57085701585E+02  0.21243298313E+03  0.22125837041E+03  0.10000000000E+01 0.  0.
<mgrwt>
<rscale>  0 0.12499891E+03</rscale>
<asrwt>0</asrwt>
<pdfrwt beam="1">  1        4 0.58428887E-01 0.12499891E+03</pdfrwt>
<pdfrwt beam="2">  1       -4 0.15823338E-02 0.12499891E+03</pdfrwt>
<totfact> 0.65531454E+03</totfact>
</mgrwt>
</event>
<event>
 5    1  0.3239419E-002  0.1249989E+03  0.7818608E-02  0.1235071E+00
          4   -1    0    0  501    0  0.00000000000E+00  0.00000000000E+00  0.15998152113E+03  0.15998656195E+03  0.12700000000E+01 0. -1.
         -4   -1    0    0    0  501 -0.00000000000E+00 -0.00000000000E+00 -0.24394498356E+02  0.24427534670E+02  0.12700000000E+01 0. -1.
         25    2    1    2    0    0  0.00000000000E+00  0.00000000000E+00  0.13558702278E+03  0.18441409662E+03  0.12499887314E+03 0.  0.
    9000005    1    3    3    0    0  0.17749455316E+02  0.58523594362E+02  0.86751612758E+02  0.10614563852E+03  0.10000000000E+01 0.  0.
    9000005    1    3    3    0    0 -0.17749455316E+02 -0.58523594362E+02  0.48835410019E+02  0.78268458097E+02  0.10000000000E+01 0.  0.
<mgrwt>
<rscale>  0 0.12499887E+03</rscale>
<asrwt>0</asrwt>
<pdfrwt beam="1">  1        4 0.24615471E-01 0.12499887E+03</pdfrwt>
<pdfrwt beam="2">  1       -4 0.37559288E-02 0.12499887E+03</pdfrwt>
<totfact> 0.92830776E+03</totfact>
</mgrwt>
</event>
<event>
 5    1  0.3239419E-002  0.1250043E+03  0.7818608E-02  0.1235063E+00
          4   -1    0    0  501    0  0.00000000000E+00  0.00000000000E+00  0.93409727566E+02  0.93418360636E+02  0.12700000000E+01 0.  1.
         -4   -1    0    0    0  501 -0.00000000000E+00 -0.00000000000E+00 -0.41801105330E+02  0.41820393432E+02  0.12700000000E+01 0.  1.
         25    2    1    2    0    0  0.00000000000E+00  0.00000000000E+00  0.51608622236E+02  0.13523875407E+03  0.12500428278E+03 0.  0.
    9000005    1    3    3    0    0  0.31713014878E+02  0.41498391998E+02  0.62931408115E+02  0.81787492800E+02  0.10000000000E+01 0.  0.
    9000005    1    3    3    0    0 -0.31713014878E+02 -0.41498391998E+02 -0.11322785879E+02  0.53451261268E+02  0.10000000000E+01 0.  0.
<mgrwt>
<rscale>  0 0.12500428E+03</rscale>
<asrwt>0</asrwt>
<pdfrwt beam="1">  1        4 0.14372875E-01 0.12500428E+03</pdfrwt>
<pdfrwt beam="2">  1       -4 0.64330870E-02 0.12500428E+03</pdfrwt>
<totfact> 0.10232053E+04</totfact>
</mgrwt>
</event>
<event>
 5    1  0.3239419E-002  0.1250001E+03  0.7818608E-02  0.1235069E+00
          4   -1    0    0  501    0  0.00000000000E+00  0.00000000000E+00  0.13265784893E+03  0.13266392796E+03  0.12700000000E+01 0. -1.
         -4   -1    0    0    0  501 -0.00000000000E+00 -0.00000000000E+00 -0.29425648256E+02  0.29453041868E+02  0.12700000000E+01 0. -1.
         25    2    1    2    0    0  0.00000000000E+00  0.00000000000E+00  0.10323220067E+03  0.16211696983E+03  0.12500009860E+03 0.  0.
    9000005    1    3    3    0    0 -0.77071795068E+01 -0.75563386733E+01  0.13144617118E+03  0.13189236062E+03  0.10000000000E+01 0.  0.
    9000005    1    3    3    0    0  0.77071795068E+01  0.75563386733E+01 -0.28213970512E+02  0.30224609214E+02  0.10000000000E+01 0.  0.
<mgrwt>
<rscale>  0 0.12500010E+03</rscale>
<asrwt>0</asrwt>
<pdfrwt beam="1">  1        4 0.20411475E-01 0.12500010E+03</pdfrwt>
<pdfrwt beam="2">  1       -4 0.45295976E-02 0.12500010E+03</pdfrwt>
<totfact> 0.96935981E+03</totfact>
</mgrwt>
</event>
<event>
 5    1  0.3239419E-002  0.1250179E+03  0.7818608E-02  0.1235041E+00
         -4   -1    0    0    0  501 -0.00000000000E+00  0.00000000000E+00  0.44189820853E+02  0.44208066764E+02  0.12700000000E+01 0. -1.
          4   -1    0    0  501    0  0.00000000000E+00 -0.00000000000E+00 -0.88381294822E+02  0.88390419020E+02  0.12700000000E+01 0. -1.
         25    2    1    2    0    0  0.00000000000E+00  0.00000000000E+00 -0.44191473969E+02  0.13259848578E+03  0.12501788696E+03 0.  0.
    9000005    1    3    3    0    0  0.20154044302E+02 -0.56126493518E+02 -0.22530738131E+01  0.59686222179E+02  0.10000000000E+01 0.  0.
    9000005    1    3    3    0    0 -0.20154044302E+02  0.56126493518E+02 -0.41938400156E+02  0.72912263605E+02  0.10000000000E+01 0.  0.
<mgrwt>
<rscale>  0 0.12501789E+03</rscale>
<asrwt>0</asrwt>
<pdfrwt beam="2">  1        4 0.13599228E-01 0.12501789E+03</pdfrwt>
<pdfrwt beam="1">  1       -4 0.68005394E-02 0.12501789E+03</pdfrwt>
<totfact> 0.10284790E+04</totfact>
</mgrwt>
</event>
<event>
 5    1  0.3239419E-002  0.1249957E+03  0.7818608E-02  0.1235076E+00
          4   -1    0    0  501    0  0.00000000000E+00  0.00000000000E+00  0.27011244003E+02  0.27041083606E+02  0.12700000000E+01 0.  1.
         -4   -1    0    0    0  501 -0.00000000000E+00 -0.00000000000E+00 -0.14449333373E+03  0.14449891485E+03  0.12700000000E+01 0.  1.
         25    2    1    2    0    0  0.00000000000E+00  0.00000000000E+00 -0.11748208973E+03  0.17153999846E+03  0.12499571858E+03 0.  0.
    9000005    1    3    3    0    0  0.61649334221E+02  0.60855091052E+01 -0.70000191992E+02  0.93481017912E+02  0.10000000000E+01 0.  0.
    9000005    1    3    3    0    0 -0.61649334221E+02 -0.60855091052E+01 -0.47481897737E+02  0.78058980545E+02  0.10000000000E+01 0.  0.
<mgrwt>
<rscale>  0 0.12499572E+03</rscale>
<asrwt>0</asrwt>
<pdfrwt beam="1">  1        4 0.41583008E-02 0.12499572E+03</pdfrwt>
<pdfrwt beam="2">  1       -4 0.22232468E-01 0.12499572E+03</pdfrwt>
<totfact> 0.95171523E+03</totfact>
</mgrwt>
</event>
<event>
 5    1  0.3239419E-002  0.1250110E+03  0.7818608E-02  0.1235052E+00
          4   -1    0    0  501    0  0.00000000000E+00  0.00000000000E+00  0.13398998838E+02  0.13459051596E+02  0.12700000000E+01 0.  1.
         -4   -1    0    0    0  501 -0.00000000000E+00 -0.00000000000E+00 -0.29087109426E+03  0.29087386678E+03  0.12700000000E+01 0.  1.
         25    2    1    2    0    0  0.00000000000E+00  0.00000000000E+00 -0.27747209542E+03  0.30433291838E+03  0.12501104539E+03 0.  0.
    9000005    1    3    3    0    0 -0.58965331464E+01  0.36049684693E+02 -0.26218901538E+03  0.26472330584E+03  0.10000000000E+01 0.  0.
    9000005    1    3    3    0    0  0.58965331464E+01 -0.36049684693E+02 -0.15283080042E+02  0.39609612535E+02  0.10000000000E+01 0.  0.
<mgrwt>
<rscale>  0 0.12501105E+03</rscale>
<asrwt>0</asrwt>
<pdfrwt beam="1">  1        4 0.20662174E-02 0.12501105E+03</pdfrwt>
<pdfrwt beam="2">  1       -4 0.44754227E-01 0.12501105E+03</pdfrwt>
<totfact> 0.75040126E+03</totfact>
</mgrwt>
</event>
<event>
 5    1  0.3239419E-002  0.1249827E+03  0.7818608E-02  0.1235096E+00
          4   -1    0    0  501    0  0.00000000000E+00  0.00000000000E+00  0.10502803576E+04  0.10502811255E+04  0.12700000000E+01 0.  1.
         -4   -1    0    0    0  501 -0.00000000000E+00 -0.00000000000E+00 -0.36089801272E+01  0.38259165645E+01  0.12700000000E+01 0.  1.
         25    2    1    2    0    0  0.00000000000E+00  0.00000000000E+00  0.10466713775E+04  0.10541070420E+04  0.12498273316E+03 0.  0.
    9000005    1    3    3    0    0  0.28424935675E+02 -0.36869673993E+02  0.17184628556E+03  0.17804352190E+03  0.10000000000E+01 0.  0.
    9000005    1    3    3    0    0 -0.28424935675E+02  0.36869673993E+02  0.87482509193E+03  0.87606352013E+03  0.10000000000E+01 0.  0.
<mgrwt>
<rscale>  0 0.12498273E+03</rscale>
<asrwt>0</asrwt>
<pdfrwt beam="1">  1        4 0.16159836E+00 0.12498273E+03</pdfrwt>
<pdfrwt beam="2">  1       -4 0.57197411E-03 0.12498273E+03</pdfrwt>
<totfact> 0.28877745E+03</totfact>
</mgrwt>
</event>
<event>
 5    1  0.3239419E-002  0.1250007E+03  0.7818608E-02  0.1235068E+00
          4   -1    0    0  501    0  0.00000000000E+00  0.00000000000E+00  0.19799575267E+03  0.19799982569E+03  0.12700000000E+01 0. -1.
         -4   -1    0    0    0  501 -0.00000000000E+00 -0.00000000000E+00 -0.19704450925E+02  0.19745335810E+02  0.12700000000E+01 0. -1.
         25    2    1    2    0    0  0.00000000000E+00  0.00000000000E+00  0.17829130174E+03  0.21774516150E+03  0.12500066832E+03 0.  0.
    9000005    1    3    3    0    0 -0.20245941727E+02 -0.27451860452E+02 -0.20666037609E+01  0.34187331715E+02  0.10000000000E+01 0.  0.
    9000005    1    3    3    0    0  0.20245941727E+02  0.27451860452E+02  0.18035790551E+03  0.18355782979E+03  0.10000000000E+01 0.  0.
<mgrwt>
<rscale>  0 0.12500067E+03</rscale>
<asrwt>0</asrwt>
<pdfrwt beam="1">  1        4 0.30464343E-01 0.12500067E+03</pdfrwt>
<pdfrwt beam="2">  1       -4 0.30349123E-02 0.12500067E+03</pdfrwt>
<totfact> 0.87225108E+03</totfact>
</mgrwt>
</event>
<event>
 5    1  0.3239419E-002  0.1250008E+03  0.7818608E-02  0.1235068E+00
         -4   -1    0    0    0  501 -0.00000000000E+00  0.00000000000E+00  0.12464724750E+02  0.12529256287E+02  0.12700000000E+01 0. -1.
          4   -1    0    0  501    0  0.00000000000E+00 -0.00000000000E+00 -0.31251320144E+03  0.31251578196E+03  0.12700000000E+01 0. -1.
         25    2    1    2    0    0  0.00000000000E+00  0.00000000000E+00 -0.30004847669E+03  0.32504503825E+03  0.12500075410E+03 0.  0.
    9000005    1    3    3    0    0  0.49600212882E+02  0.33675429248E+02 -0.19588782187E+03  0.20485910868E+03  0.10000000000E+01 0.  0.
    9000005    1    3    3    0    0 -0.49600212882E+02 -0.33675429248E+02 -0.10416065482E+03  0.12018592956E+03  0.10000000000E+01 0.  0.
<mgrwt>
<rscale>  0 0.12500075E+03</rscale>
<asrwt>0</asrwt>
<pdfrwt beam="2">  1        4 0.48084111E-01 0.12500075E+03</pdfrwt>
<pdfrwt beam="1">  1       -4 0.19228127E-02 0.12500075E+03</pdfrwt>
<totfact> 0.72558866E+03</totfact>
</mgrwt>
</event>
<event>
 5    1  0.3239419E-002  0.1250203E+03  0.7818608E-02  0.1235037E+00
          4   -1    0    0  501    0  0.00000000000E+00  0.00000000000E+00  0.93526975344E+01  0.94385301382E+01  0.12700000000E+01 0. -1.
         -4   -1    0    0    0  501 -0.00000000000E+00 -0.00000000000E+00 -0.41580101472E+03  0.41580295422E+03  0.12700000000E+01 0. -1.
         25    2    1    2    0    0  0.00000000000E+00  0.00000000000E+00 -0.40644831719E+03  0.42524148436E+03  0.12502034027E+03 0.  0.
    9000005    1    3    3    0    0  0.16121829533E+01 -0.41355079362E+02 -0.36253361356E+03  0.36488965823E+03  0.10000000000E+01 0.  0.
    9000005    1    3    3    0    0 -0.16121829533E+01  0.41355079362E+02 -0.43914703624E+02  0.60351826131E+02  0.10000000000E+01 0.  0.
<mgrwt>
<rscale>  0 0.12502034E+03</rscale>
<asrwt>0</asrwt>
<pdfrwt beam="1">  1        4 0.14456286E-02 0.12502034E+03</pdfrwt>
<pdfrwt beam="2">  1       -4 0.63976124E-01 0.12502034E+03</pdfrwt>
<totfact> 0.62141830E+03</totfact>
</mgrwt>
</event>
<event>
 5    1  0.3239419E-002  0.1250016E+03  0.7818608E-02  0.1235067E+00
          4   -1    0    0  501    0  0.00000000000E+00  0.00000000000E+00  0.31591136366E+03  0.31591391642E+03  0.12700000000E+01 0. -1.
         -4   -1    0    0    0  501 -0.00000000000E+00 -0.00000000000E+00 -0.12330118282E+02  0.12395350614E+02  0.12700000000E+01 0. -1.
         25    2    1    2    0    0  0.00000000000E+00  0.00000000000E+00  0.30358124538E+03  0.32830926703E+03  0.12500160910E+03 0.  0.
    9000005    1    3    3    0    0 -0.50563106173E+01 -0.45442452962E+02  0.39904025526E+02  0.60695255675E+02  0.10000000000E+01 0.  0.
    9000005    1    3    3    0    0  0.50563106173E+01  0.45442452962E+02  0.26367721985E+03  0.26761401136E+03  0.10000000000E+01 0.  0.
<mgrwt>
<rscale>  0 0.12500161E+03</rscale>
<asrwt>0</asrwt>
<pdfrwt beam="1">  1        4 0.48606964E-01 0.12500161E+03</pdfrwt>
<pdfrwt beam="2">  1       -4 0.19021554E-02 0.12500161E+03</pdfrwt>
<totfact> 0.72176050E+03</totfact>
</mgrwt>
</event>
<event>
 4    1  0.3239419E-002  0.1250973E+03  0.7818608E-02  0.1234917E+00
          4   -1    0    0  501    0  0.00000000000E+00  0.00000000000E+00  0.10342506205E+03  0.10343285919E+03  0.12700000000E+01 0. -1.
         -4   -1    0    0    0  501 -0.00000000000E+00 -0.00000000000E+00 -0.37807808883E+02  0.37829133119E+02  0.12700000000E+01 0. -1.
    9000005    1    1    2    0    0  0.22314447717E+02  0.49248170806E+02 -0.26857220940E+01  0.54143605419E+02  0.10000000000E+01 0.  0.
    9000005    1    1    2    0    0 -0.22314447717E+02 -0.49248170806E+02  0.68302975262E+02  0.87118386889E+02  0.10000000000E+01 0.  0.
<mgrwt>
<rscale>  0 0.12509727E+03</rscale>
<asrwt>0</asrwt>
<pdfrwt beam="1">  1        4 0.15913788E-01 0.12509727E+03</pdfrwt>
<pdfrwt beam="2">  1       -4 0.58188261E-02 0.12509727E+03</pdfrwt>
<totfact> 0.10085382E+04</totfact>
</mgrwt>
</event>
<event>
 5    1  0.3239419E-002  0.1250041E+03  0.7818608E-02  0.1235063E+00
          4   -1    0    0  501    0  0.00000000000E+00  0.00000000000E+00  0.12869745030E+02  0.12932255686E+02  0.12700000000E+01 0.  1.
         -4   -1    0    0    0  501 -0.00000000000E+00 -0.00000000000E+00 -0.30274250992E+03  0.30274517373E+03  0.12700000000E+01 0.  1.
         25    2    1    2    0    0  0.00000000000E+00  0.00000000000E+00 -0.28987276489E+03  0.31567742941E+03  0.12500407839E+03 0.  0.
    9000005    1    3    3    0    0  0.53274043117E+02 -0.29683966152E+01 -0.62772848581E+02  0.82391538203E+02  0.10000000000E+01 0.  0.
    9000005    1    3    3    0    0 -0.53274043117E+02  0.29683966152E+01 -0.22709991631E+03  0.23328589121E+03  0.10000000000E+01 0.  0.
<mgrwt>
<rscale>  0 0.12500408E+03</rscale>
<asrwt>0</asrwt>
<pdfrwt beam="1">  1        4 0.19849744E-02 0.12500408E+03</pdfrwt>
<pdfrwt beam="2">  1       -4 0.46580779E-01 0.12500408E+03</pdfrwt>
<totfact> 0.73666544E+03</totfact>
</mgrwt>
</event>
<event>
 5    1  0.3239419E-002  0.1249980E+03  0.7818608E-02  0.1235072E+00
         -4   -1    0    0    0  501 -0.00000000000E+00  0.00000000000E+00  0.15251036146E+03  0.15251564921E+03  0.12700000000E+01 0.  1.
          4   -1    0    0  501    0  0.00000000000E+00 -0.00000000000E+00 -0.25590733587E+02  0.25622227567E+02  0.12700000000E+01 0.  1.
         25    2    1    2    0    0  0.00000000000E+00  0.00000000000E+00  0.12691962788E+03  0.17813787678E+03  0.12499804479E+03 0.  0.
    9000005    1    3    3    0    0  0.30772737254E+02  0.48547032851E+02  0.28512206600E+02  0.64169476248E+02  0.10000000000E+01 0.  0.
    9000005    1    3    3    0    0 -0.30772737254E+02 -0.48547032851E+02  0.98407421278E+02  0.11396840053E+03  0.10000000000E+01 0.  0.
<mgrwt>
<rscale>  0 0.12499804E+03</rscale>
<asrwt>0</asrwt>
<pdfrwt beam="2">  1        4 0.39398654E-02 0.12499804E+03</pdfrwt>
<pdfrwt beam="1">  1       -4 0.23465961E-01 0.12499804E+03</pdfrwt>
<totfact> 0.93957389E+03</totfact>
</mgrwt>
</event>
<event>
 5    1  0.3239419E-002  0.1249987E+03  0.7818608E-02  0.1235071E+00
         -4   -1    0    0    0  501 -0.00000000000E+00  0.00000000000E+00  0.43241091063E+03  0.43241277563E+03  0.12700000000E+01 0. -1.
          4   -1    0    0  501    0  0.00000000000E+00 -0.00000000000E+00 -0.89869331623E+01  0.90762254084E+01  0.12700000000E+01 0. -1.
         25    2    1    2    0    0  0.00000000000E+00  0.00000000000E+00  0.42342397747E+03  0.44148900104E+03  0.12499869338E+03 0.  0.
    9000005    1    3    3    0    0 -0.20637481377E+02  0.56653250652E+02  0.26971255775E+03  0.27637177905E+03  0.10000000000E+01 0.  0.
    9000005    1    3    3    0    0  0.20637481377E+02 -0.56653250652E+02  0.15371141971E+03  0.16511722199E+03  0.10000000000E+01 0.  0.
<mgrwt>
<rscale>  0 0.12499869E+03</rscale>
<asrwt>0</asrwt>
<pdfrwt beam="2">  1        4 0.13896171E-02 0.12499869E+03</pdfrwt>
<pdfrwt beam="1">  1       -4 0.66531770E-01 0.12499869E+03</pdfrwt>
<totfact> 0.60709957E+03</totfact>
</mgrwt>
</event>
<event>
 5    1  0.3239419E-002  0.1249999E+03  0.7818608E-02  0.1235069E+00
         -4   -1    0    0    0  501 -0.00000000000E+00  0.00000000000E+00  0.63926966734E+02  0.63939580667E+02  0.12700000000E+01 0.  1.
          4   -1    0    0  501    0  0.00000000000E+00 -0.00000000000E+00 -0.61079572416E+02  0.61092774258E+02  0.12700000000E+01 0.  1.
         25    2    1    2    0    0  0.00000000000E+00  0.00000000000E+00  0.28473943185E+01  0.12503235492E+03  0.12499992849E+03 0.  0.
    9000005    1    3    3    0    0 -0.39187440923E+02 -0.72478471928E+01  0.49572020241E+02  0.63612671739E+02  0.10000000000E+01 0.  0.
    9000005    1    3    3    0    0  0.39187440923E+02  0.72478471928E+01 -0.46724625922E+02  0.61419683186E+02  0.10000000000E+01 0.  0.
<mgrwt>
<rscale>  0 0.12499993E+03</rscale>
<asrwt>0</asrwt>
<pdfrwt beam="2">  1        4 0.93988432E-02 0.12499993E+03</pdfrwt>
<pdfrwt beam="1">  1       -4 0.98369038E-02 0.12499993E+03</pdfrwt>
<totfact> 0.10452177E+04</totfact>
</mgrwt>
</event>
<event>
 5    1  0.3239419E-002  0.1250006E+03  0.7818608E-02  0.1235068E+00
         -4   -1    0    0    0  501 -0.00000000000E+00  0.00000000000E+00  0.91376212867E+02  0.91385038042E+02  0.12700000000E+01 0. -1.
          4   -1    0    0  501    0  0.00000000000E+00 -0.00000000000E+00 -0.42729195082E+02  0.42748064429E+02  0.12700000000E+01 0. -1.
         25    2    1    2    0    0  0.00000000000E+00  0.00000000000E+00  0.48647017785E+02  0.13413310247E+03  0.12500062735E+03 0.  0.
    9000005    1    3    3    0    0  0.50084566696E+02  0.34211392760E+02  0.40469612592E+02  0.72922374887E+02  0.10000000000E+01 0.  0.
    9000005    1    3    3    0    0 -0.50084566696E+02 -0.34211392760E+02  0.81774051929E+01  0.61210727584E+02  0.10000000000E+01 0.  0.
<mgrwt>
<rscale>  0 0.12500063E+03</rscale>
<asrwt>0</asrwt>
<pdfrwt beam="2">  1        4 0.65758526E-02 0.12500063E+03</pdfrwt>
<pdfrwt beam="1">  1       -4 0.14060009E-01 0.12500063E+03</pdfrwt>
<totfact> 0.10256230E+04</totfact>
</mgrwt>
</event>
<event>
 5    1  0.3239419E-002  0.1249965E+03  0.7818608E-02  0.1235075E+00
         -4   -1    0    0    0  501 -0.00000000000E+00  0.00000000000E+00  0.14795858936E+03  0.14796403978E+03  0.12700000000E+01 0.  1.
          4   -1    0    0  501    0  0.00000000000E+00 -0.00000000000E+00 -0.26378263587E+02  0.26408818411E+02  0.12700000000E+01 0.  1.
         25    2    1    2    0    0  0.00000000000E+00  0.00000000000E+00  0.12158032578E+03  0.17437285819E+03  0.12499647217E+03 0.  0.
    9000005    1    3    3    0    0 -0.47882130823E+02 -0.40153366486E+02  0.60517431205E+02  0.86996268724E+02  0.10000000000E+01 0.  0.
    9000005    1    3    3    0    0  0.47882130823E+02  0.40153366486E+02  0.61062894572E+02  0.87376589462E+02  0.10000000000E+01 0.  0.
<mgrwt>
<rscale>  0 0.12499647E+03</rscale>
<asrwt>0</asrwt>
<pdfrwt beam="2">  1        4 0.40609641E-02 0.12499647E+03</pdfrwt>
<pdfrwt beam="1">  1       -4 0.22765629E-01 0.12499647E+03</pdfrwt>
<totfact> 0.94647317E+03</totfact>
</mgrwt>
</event>
<event>
 5    1  0.3239419E-002  0.1250066E+03  0.7818608E-02  0.1235059E+00
         -4   -1    0    0    0  501 -0.00000000000E+00  0.00000000000E+00  0.19365155463E+01  0.23158135635E+01  0.12700000000E+01 0.  1.
          4   -1    0    0  501    0  0.00000000000E+00 -0.00000000000E+00 -0.18370425394E+04  0.18370429784E+04  0.12700000000E+01 0.  1.
         25    2    1    2    0    0  0.00000000000E+00  0.00000000000E+00 -0.18351060239E+04  0.18393587920E+04  0.12500658689E+03 0.  0.
    9000005    1    3    3    0    0  0.40474855598E+02  0.12189342192E+01 -0.21713087767E+03  0.22087670265E+03  0.10000000000E+01 0.  0.
    9000005    1    3    3    0    0 -0.40474855598E+02 -0.12189342192E+01 -0.16179751462E+04  0.16184820893E+04  0.10000000000E+01 0.  0.
<mgrwt>
<rscale>  0 0.12500659E+03</rscale>
<asrwt>0</asrwt>
<pdfrwt beam="2">  1        4 0.28264987E+00 0.12500659E+03</pdfrwt>
<pdfrwt beam="1">  1       -4 0.32713748E-03 0.12500659E+03</pdfrwt>
<totfact> 0.12105187E+03</totfact>
</mgrwt>
</event>
<event>
 5    1  0.3239419E-002  0.1249951E+03  0.7818608E-02  0.1235077E+00
          4   -1    0    0  501    0  0.00000000000E+00  0.00000000000E+00  0.35610050066E+03  0.35610276532E+03  0.12700000000E+01 0.  1.
         -4   -1    0    0    0  501 -0.00000000000E+00 -0.00000000000E+00 -0.10929594540E+02  0.11003133045E+02  0.12700000000E+01 0.  1.
         25    2    1    2    0    0  0.00000000000E+00  0.00000000000E+00  0.34517090612E+03  0.36710589836E+03  0.12499514464E+03 0.  0.
    9000005    1    3    3    0    0 -0.25266486132E+02  0.55724501476E+02  0.13528128604E+03  0.14847774829E+03  0.10000000000E+01 0.  0.
    9000005    1    3    3    0    0  0.25266486132E+02 -0.55724501476E+02  0.20988962008E+03  0.21862815007E+03  0.10000000000E+01 0.  0.
<mgrwt>
<rscale>  0 0.12499514E+03</rscale>
<asrwt>0</asrwt>
<pdfrwt beam="1">  1        4 0.54790536E-01 0.12499514E+03</pdfrwt>
<pdfrwt beam="2">  1       -4 0.16873067E-02 0.12499514E+03</pdfrwt>
<totfact> 0.67890083E+03</totfact>
</mgrwt>
</event>
<event>
 5    1  0.3239419E-002  0.1249992E+03  0.7818608E-02  0.1235071E+00
          4   -1    0    0  501    0  0.00000000000E+00  0.00000000000E+00  0.12437423937E+02  0.12502096391E+02  0.12700000000E+01 0. -1.
         -4   -1    0    0    0  501 -0.00000000000E+00 -0.00000000000E+00 -0.31318776297E+03  0.31319033793E+03  0.12700000000E+01 0. -1.
         25    2    1    2    0    0  0.00000000000E+00  0.00000000000E+00 -0.30075033903E+03  0.32569243432E+03  0.12499918139E+03 0.  0.
    9000005    1    3    3    0    0  0.34491365419E+02  0.51453146540E+02 -0.17187981426E+03  0.18270399866E+03  0.10000000000E+01 0.  0.
    9000005    1    3    3    0    0 -0.34491365419E+02 -0.51453146540E+02 -0.12887052477E+03  0.14298843566E+03  0.10000000000E+01 0.  0.
<mgrwt>
<rscale>  0 0.12499918E+03</rscale>
<asrwt>0</asrwt>
<pdfrwt beam="1">  1        4 0.19186229E-02 0.12499918E+03</pdfrwt>
<pdfrwt beam="2">  1       -4 0.48187900E-01 0.12499918E+03</pdfrwt>
<totfact> 0.72485479E+03</totfact>
</mgrwt>
</event>
<event>
 5    1  0.3239419E-002  0.1249981E+03  0.7818608E-02  0.1235072E+00
         -4   -1    0    0    0  501 -0.00000000000E+00  0.00000000000E+00  0.23278426584E+02  0.23313044508E+02  0.12700000000E+01 0. -1.
          4   -1    0    0  501    0  0.00000000000E+00 -0.00000000000E+00 -0.16763891403E+03  0.16764372459E+03  0.12700000000E+01 0. -1.
         25    2    1    2    0    0  0.00000000000E+00  0.00000000000E+00 -0.14436048744E+03  0.19095676910E+03  0.12499814931E+03 0.  0.
    9000005    1    3    3    0    0 -0.49690028185E+02  0.57036033755E+01 -0.14948318546E+02  0.52211897302E+02  0.10000000000E+01 0.  0.
    9000005    1    3    3    0    0  0.49690028185E+02 -0.57036033755E+01 -0.12941216890E+03  0.13874487180E+03  0.10000000000E+01 0.  0.
<mgrwt>
<rscale>  0 0.12499815E+03</rscale>
<asrwt>0</asrwt>
<pdfrwt beam="2">  1        4 0.25793634E-01 0.12499815E+03</pdfrwt>
<pdfrwt beam="1">  1       -4 0.35843295E-02 0.12499815E+03</pdfrwt>
<totfact> 0.91684907E+03</totfact>
</mgrwt>
</event>
<event>
 5    1  0.3239419E-002  0.1250019E+03  0.7818608E-02  0.1235066E+00
         -4   -1    0    0    0  501 -0.00000000000E+00  0.00000000000E+00  0.24207152014E+03  0.24207485157E+03  0.12700000000E+01 0.  1.
          4   -1    0    0  501    0  0.00000000000E+00 -0.00000000000E+00 -0.16108815138E+02  0.16158800239E+02  0.12700000000E+01 0.  1.
         25    2    1    2    0    0  0.00000000000E+00  0.00000000000E+00  0.22596270501E+03  0.25823365181E+03  0.12500189949E+03 0.  0.
    9000005    1    3    3    0    0  0.19121630414E+02 -0.55560906848E+02  0.69026187632E+02  0.90654650727E+02  0.10000000000E+01 0.  0.
    9000005    1    3    3    0    0 -0.19121630414E+02  0.55560906848E+02  0.15693651737E+03  0.16757900109E+03  0.10000000000E+01 0.  0.
<mgrwt>
<rscale>  0 0.12500190E+03</rscale>
<asrwt>0</asrwt>
<pdfrwt beam="2">  1        4 0.24823806E-02 0.12500190E+03</pdfrwt>
<pdfrwt beam="1">  1       -4 0.37245873E-01 0.12500190E+03</pdfrwt>
<totfact> 0.81151151E+03</totfact>
</mgrwt>
</event>
<event>
 5    1  0.3239419E-002  0.1249996E+03  0.7818608E-02  0.1235070E+00
          4   -1    0    0  501    0  0.00000000000E+00  0.00000000000E+00  0.24478311483E+03  0.24478640936E+03  0.12700000000E+01 0. -1.
         -4   -1    0    0    0  501 -0.00000000000E+00 -0.00000000000E+00 -0.15929231764E+02  0.15979778615E+02  0.12700000000E+01 0. -1.
         25    2    1    2    0    0  0.00000000000E+00  0.00000000000E+00  0.22885388307E+03  0.26076618797E+03  0.12499961998E+03 0.  0.
    9000005    1    3    3    0    0  0.92248514965E+01  0.31545827300E+02  0.22530636962E+03  0.22769320872E+03  0.10000000000E+01 0.  0.
    9000005    1    3    3    0    0 -0.92248514965E+01 -0.31545827300E+02  0.35475134478E+01  0.33072979256E+02  0.10000000000E+01 0.  0.
<mgrwt>
<rscale>  0 0.12499962E+03</rscale>
<asrwt>0</asrwt>
<pdfrwt beam="1">  1        4 0.37663080E-01 0.12499962E+03</pdfrwt>
<pdfrwt beam="2">  1       -4 0.24547928E-02 0.12499962E+03</pdfrwt>
<totfact> 0.80799342E+03</totfact>
</mgrwt>
</event>
<event>
 5    1  0.3239419E-002  0.1250006E+03  0.7818608E-02  0.1235068E+00
          4   -1    0    0  501    0  0.00000000000E+00  0.00000000000E+00  0.71534566451E+01  0.72653177476E+01  0.12700000000E+01 0. -1.
         -4   -1    0    0    0  501 -0.00000000000E+00 -0.00000000000E+00 -0.54172088534E+03  0.54172237402E+03  0.12700000000E+01 0. -1.
         25    2    1    2    0    0  0.00000000000E+00  0.00000000000E+00 -0.53456742869E+03  0.54898769177E+03  0.12500059956E+03 0.  0.
    9000005    1    3    3    0    0 -0.37595780375E+02 -0.38066492364E+02 -0.12546018095E+03  0.13639559211E+03  0.10000000000E+01 0.  0.
    9000005    1    3    3    0    0  0.37595780375E+02  0.38066492364E+02 -0.40910724774E+03  0.41259209965E+03  0.10000000000E+01 0.  0.
<mgrwt>
<rscale>  0 0.12500060E+03</rscale>
<asrwt>0</asrwt>
<pdfrwt beam="1">  1        4 0.11092514E-02 0.12500060E+03</pdfrwt>
<pdfrwt beam="2">  1       -4 0.83350362E-01 0.12500060E+03</pdfrwt>
<totfact> 0.52253886E+03</totfact>
</mgrwt>
</event>
<event>
 5    1  0.3239419E-002  0.1250006E+03  0.7818608E-02  0.1235068E+00
          4   -1    0    0  501    0  0.00000000000E+00  0.00000000000E+00  0.57404918131E+01  0.58792981092E+01  0.12700000000E+01 0. -1.
         -4   -1    0    0    0  501 -0.00000000000E+00 -0.00000000000E+00 -0.67221099294E+03  0.67221219264E+03  0.12700000000E+01 0. -1.
         25    2    1    2    0    0  0.00000000000E+00  0.00000000000E+00 -0.66647050113E+03  0.67809149075E+03  0.12500056380E+03 0.  0.
    9000005    1    3    3    0    0  0.28593037719E+02 -0.33700600858E+00 -0.31804515824E+02  0.42780867287E+02  0.10000000000E+01 0.  0.
    9000005    1    3    3    0    0 -0.28593037719E+02  0.33700600858E+00 -0.63466598531E+03  0.63531062346E+03  0.10000000000E+01 0.  0.
<mgrwt>
<rscale>  0 0.12500056E+03</rscale>
<asrwt>0</asrwt>
<pdfrwt beam="1">  1        4 0.89392281E-03 0.12500056E+03</pdfrwt>
<pdfrwt beam="2">  1       -4 0.10342778E+00 0.12500056E+03</pdfrwt>
<totfact> 0.44268202E+03</totfact>
</mgrwt>
</event>
<event>
 5    1  0.3239419E-002  0.1250004E+03  0.7818608E-02  0.1235069E+00
         -4   -1    0    0    0  501 -0.00000000000E+00  0.00000000000E+00  0.20160188654E+01  0.23826942871E+01  0.12700000000E+01 0.  1.
          4   -1    0    0  501    0  0.00000000000E+00 -0.00000000000E+00 -0.17757319308E+04  0.17757323849E+04  0.12700000000E+01 0.  1.
         25    2    1    2    0    0  0.00000000000E+00  0.00000000000E+00 -0.17737159119E+04  0.17781150792E+04  0.12500039505E+03 0.  0.
    9000005    1    3    3    0    0 -0.50320236250E+02 -0.36299183334E+02 -0.78086802284E+03  0.78332983218E+03  0.10000000000E+01 0.  0.
    9000005    1    3    3    0    0  0.50320236250E+02  0.36299183334E+02 -0.99284788909E+03  0.99478524705E+03  0.10000000000E+01 0.  0.
<mgrwt>
<rscale>  0 0.12500040E+03</rscale>
<asrwt>0</asrwt>
<pdfrwt beam="2">  1        4 0.27321662E+00 0.12500040E+03</pdfrwt>
<pdfrwt beam="1">  1       -4 0.33839890E-03 0.12500040E+03</pdfrwt>
<totfact> 0.13043696E+03</totfact>
</mgrwt>
</event>
<event>
 5    1  0.3239419E-002  0.1250008E+03  0.7818608E-02  0.1235068E+00
          4   -1    0    0  501    0  0.00000000000E+00  0.00000000000E+00  0.14065712941E+03  0.14066286274E+03  0.12700000000E+01 0.  1.
         -4   -1    0    0    0  501 -0.00000000000E+00 -0.00000000000E+00 -0.27750979325E+02  0.27780024361E+02  0.12700000000E+01 0.  1.
         25    2    1    2    0    0  0.00000000000E+00  0.00000000000E+00  0.11290615008E+03  0.16844288710E+03  0.12500082995E+03 0.  0.
    9000005    1    3    3    0    0 -0.32078523324E+02 -0.93228992450E+01  0.12762219226E+03  0.13192563082E+03  0.10000000000E+01 0.  0.
    9000005    1    3    3    0    0  0.32078523324E+02  0.93228992450E+01 -0.14716042177E+02  0.36517256282E+02  0.10000000000E+01 0.  0.
<mgrwt>
<rscale>  0 0.12500083E+03</rscale>
<asrwt>0</asrwt>
<pdfrwt beam="1">  1        4 0.21642234E-01 0.12500083E+03</pdfrwt>
<pdfrwt beam="2">  1       -4 0.42720566E-02 0.12500083E+03</pdfrwt>
<totfact> 0.95737523E+03</totfact>
</mgrwt>
</event>
<event>
 5    1  0.3239419E-002  0.1250163E+03  0.7818608E-02  0.1235044E+00
          4   -1    0    0  501    0  0.00000000000E+00  0.00000000000E+00  0.14280147794E+02  0.14336510071E+02  0.12700000000E+01 0. -1.
         -4   -1    0    0    0  501 -0.00000000000E+00 -0.00000000000E+00 -0.27301850331E+03  0.27302145712E+03  0.12700000000E+01 0. -1.
         25    2    1    2    0    0  0.00000000000E+00  0.00000000000E+00 -0.25873835552E+03  0.28735796720E+03  0.12501625772E+03 0.  0.
    9000005    1    3    3    0    0 -0.43320798629E+02  0.42299550502E+02 -0.16500231509E+03  0.17576321445E+03  0.10000000000E+01 0.  0.
    9000005    1    3    3    0    0  0.43320798629E+02 -0.42299550502E+02 -0.93736040423E+02  0.11159475275E+03  0.10000000000E+01 0.  0.
<mgrwt>
<rscale>  0 0.12501626E+03</rscale>
<asrwt>0</asrwt>
<pdfrwt beam="1">  1        4 0.22015088E-02 0.12501626E+03</pdfrwt>
<pdfrwt beam="2">  1       -4 0.42007406E-01 0.12501626E+03</pdfrwt>
<totfact> 0.77184618E+03</totfact>
</mgrwt>
</event>
<event>
 5    1  0.3239419E-002  0.1250039E+03  0.7818608E-02  0.1235063E+00
         -4   -1    0    0    0  501 -0.00000000000E+00  0.00000000000E+00  0.25313270684E+02  0.25345109444E+02  0.12700000000E+01 0. -1.
          4   -1    0    0  501    0  0.00000000000E+00 -0.00000000000E+00 -0.15419435672E+03  0.15419958672E+03  0.12700000000E+01 0. -1.
         25    2    1    2    0    0  0.00000000000E+00  0.00000000000E+00 -0.12888108603E+03  0.17954469616E+03  0.12500385427E+03 0.  0.
    9000005    1    3    3    0    0 -0.53723557711E+02  0.10825440176E+02 -0.21301379014E+02  0.58806118355E+02  0.10000000000E+01 0.  0.
    9000005    1    3    3    0    0  0.53723557711E+02 -0.10825440176E+02 -0.10757970702E+03  0.12073857781E+03  0.10000000000E+01 0.  0.
<mgrwt>
<rscale>  0 0.12500385E+03</rscale>
<asrwt>0</asrwt>
<pdfrwt beam="2">  1        4 0.23725060E-01 0.12500385E+03</pdfrwt>
<pdfrwt beam="1">  1       -4 0.38972009E-02 0.12500385E+03</pdfrwt>
<totfact> 0.93690926E+03</totfact>
</mgrwt>
</event>
<event>
 5    1  0.3239419E-002  0.1249974E+03  0.7818608E-02  0.1235073E+00
         -4   -1    0    0    0  501 -0.00000000000E+00  0.00000000000E+00  0.21701705694E+02  0.21738834607E+02  0.12700000000E+01 0. -1.
          4   -1    0    0  501    0  0.00000000000E+00 -0.00000000000E+00 -0.17979663436E+03  0.17980111965E+03  0.12700000000E+01 0. -1.
         25    2    1    2    0    0  0.00000000000E+00  0.00000000000E+00 -0.15809492867E+03  0.20153995426E+03  0.12499738674E+03 0.  0.
    9000005    1    3    3    0    0  0.56794412922E+02 -0.17668040569E+02 -0.48145684005E+02  0.76529549097E+02  0.10000000000E+01 0.  0.
    9000005    1    3    3    0    0 -0.56794412922E+02  0.17668040569E+02 -0.10994924466E+03  0.12501040516E+03  0.10000000000E+01 0.  0.
<mgrwt>
<rscale>  0 0.12499739E+03</rscale>
<asrwt>0</asrwt>
<pdfrwt beam="2">  1        4 0.27664221E-01 0.12499739E+03</pdfrwt>
<pdfrwt beam="1">  1       -4 0.33419252E-02 0.12499739E+03</pdfrwt>
<totfact> 0.89881685E+03</totfact>
</mgrwt>
</event>
<event>
 5    1  0.3239419E-002  0.1249982E+03  0.7818608E-02  0.1235072E+00
         -4   -1    0    0    0  501 -0.00000000000E+00  0.00000000000E+00  0.24473769335E+02  0.24506698788E+02  0.12700000000E+01 0. -1.
          4   -1    0    0  501    0  0.00000000000E+00 -0.00000000000E+00 -0.15946226803E+03  0.15946732526E+03  0.12700000000E+01 0. -1.
         25    2    1    2    0    0  0.00000000000E+00  0.00000000000E+00 -0.13498849870E+03  0.18397402405E+03  0.12499818697E+03 0.  0.
    9000005    1    3    3    0    0 -0.23092776281E+02 -0.10210251101E+02  0.16639061165E+02  0.30255311937E+02  0.10000000000E+01 0.  0.
    9000005    1    3    3    0    0  0.23092776281E+02  0.10210251101E+02 -0.15162755986E+03  0.15371871211E+03  0.10000000000E+01 0.  0.
<mgrwt>
<rscale>  0 0.12499819E+03</rscale>
<asrwt>0</asrwt>
<pdfrwt beam="2">  1        4 0.24535578E-01 0.12499819E+03</pdfrwt>
<pdfrwt beam="1">  1       -4 0.37681174E-02 0.12499819E+03</pdfrwt>
<totfact> 0.92910293E+03</totfact>
</mgrwt>
</event>
<event>
 5    1  0.3239419E-002  0.1249915E+03  0.7818608E-02  0.1235083E+00
          4   -1    0    0  501    0  0.00000000000E+00  0.00000000000E+00  0.67887181636E+01  0.69064892894E+01  0.12700000000E+01 0.  1.
         -4   -1    0    0    0  501 -0.00000000000E+00 -0.00000000000E+00 -0.57025899468E+03  0.57026040886E+03  0.12700000000E+01 0.  1.
         25    2    1    2    0    0  0.00000000000E+00  0.00000000000E+00 -0.56347027652E+03  0.57716689815E+03  0.12499150292E+03 0.  0.
    9000005    1    3    3    0    0  0.40141596478E+02 -0.17555243280E+02 -0.48747638904E+03  0.48944229916E+03  0.10000000000E+01 0.  0.
    9000005    1    3    3    0    0 -0.40141596478E+02  0.17555243280E+02 -0.75993887481E+02  0.87724598995E+02  0.10000000000E+01 0.  0.
<mgrwt>
<rscale>  0 0.12499150E+03</rscale>
<asrwt>0</asrwt>
<pdfrwt beam="1">  1        4 0.10535867E-02 0.12499150E+03</pdfrwt>
<pdfrwt beam="2">  1       -4 0.87741283E-01 0.12499150E+03</pdfrwt>
<totfact> 0.50350768E+03</totfact>
</mgrwt>
</event>
<event>
 5    1  0.3239419E-002  0.1250041E+03  0.7818608E-02  0.1235063E+00
          4   -1    0    0  501    0  0.00000000000E+00  0.00000000000E+00  0.34863222006E+02  0.34886346163E+02  0.12700000000E+01 0. -1.
         -4   -1    0    0    0  501 -0.00000000000E+00 -0.00000000000E+00 -0.11198846284E+03  0.11199566380E+03  0.12700000000E+01 0. -1.
         25    2    1    2    0    0  0.00000000000E+00  0.00000000000E+00 -0.77125240838E+02  0.14688200996E+03  0.12500408824E+03 0.  0.
    9000005    1    3    3    0    0  0.36381951409E+02 -0.34896004386E+02 -0.81960844023E+02  0.96228672772E+02  0.10000000000E+01 0.  0.
    9000005    1    3    3    0    0 -0.36381951409E+02  0.34896004386E+02  0.48356031849E+01  0.50653337192E+02  0.10000000000E+01 0.  0.
<mgrwt>
<rscale>  0 0.12500409E+03</rscale>
<asrwt>0</asrwt>
<pdfrwt beam="1">  1        4 0.53659054E-02 0.12500409E+03</pdfrwt>
<pdfrwt beam="2">  1       -4 0.17231327E-01 0.12500409E+03</pdfrwt>
<totfact> 0.99919697E+03</totfact>
</mgrwt>
</event>
<event>
 5    1  0.3239419E-002  0.1250084E+03  0.7818608E-02  0.1235056E+00
          4   -1    0    0  501    0  0.00000000000E+00  0.00000000000E+00  0.36556169991E+03  0.36556390596E+03  0.12700000000E+01 0. -1.
         -4   -1    0    0    0  501 -0.00000000000E+00 -0.00000000000E+00 -0.10647062783E+02  0.10722539154E+02  0.12700000000E+01 0. -1.
         25    2    1    2    0    0  0.00000000000E+00  0.00000000000E+00  0.35491463712E+03  0.37628644511E+03  0.12500835624E+03 0.  0.
    9000005    1    3    3    0    0 -0.23084026638E+02 -0.24019030615E+02  0.18292514641E+02  0.38018445646E+02  0.10000000000E+01 0.  0.
    9000005    1    3    3    0    0  0.23084026638E+02  0.24019030615E+02  0.33662212248E+03  0.33826799946E+03  0.10000000000E+01 0.  0.
<mgrwt>
<rscale>  0 0.12500836E+03</rscale>
<asrwt>0</asrwt>
<pdfrwt beam="1">  1        4 0.56246242E-01 0.12500836E+03</pdfrwt>
<pdfrwt beam="2">  1       -4 0.16439851E-02 0.12500836E+03</pdfrwt>
<totfact> 0.66913982E+03</totfact>
</mgrwt>
</event>
<event>
 5    1  0.3239419E-002  0.1249993E+03  0.7818608E-02  0.1235070E+00
         -4   -1    0    0    0  501 -0.00000000000E+00  0.00000000000E+00  0.46856547082E+03  0.46856719192E+03  0.12700000000E+01 0.  1.
          4   -1    0    0  501    0  0.00000000000E+00 -0.00000000000E+00 -0.82864018180E+01  0.83831590161E+01  0.12700000000E+01 0.  1.
         25    2    1    2    0    0  0.00000000000E+00  0.00000000000E+00  0.46027906900E+03  0.47695035094E+03  0.12499926359E+03 0.  0.
    9000005    1    3    3    0    0 -0.25739923757E+02 -0.56240093809E+02  0.26420607039E+03  0.27135095256E+03  0.10000000000E+01 0.  0.
    9000005    1    3    3    0    0  0.25739923757E+02  0.56240093809E+02  0.19607299861E+03  0.20559939837E+03  0.10000000000E+01 0.  0.
<mgrwt>
<rscale>  0 0.12499926E+03</rscale>
<asrwt>0</asrwt>
<pdfrwt beam="2">  1        4 0.12824059E-02 0.12499926E+03</pdfrwt>
<pdfrwt beam="1">  1       -4 0.72094595E-01 0.12499926E+03</pdfrwt>
<totfact> 0.57699083E+03</totfact>
</mgrwt>
</event>
<event>
 5    1  0.3239419E-002  0.1250004E+03  0.7818608E-02  0.1235069E+00
         -4   -1    0    0    0  501 -0.00000000000E+00  0.00000000000E+00  0.41667427667E+03  0.41667621211E+03  0.12700000000E+01 0.  1.
          4   -1    0    0  501    0  0.00000000000E+00 -0.00000000000E+00 -0.93299083214E+01  0.94159486662E+01  0.12700000000E+01 0.  1.
         25    2    1    2    0    0  0.00000000000E+00  0.00000000000E+00  0.40734436835E+03  0.42609216078E+03  0.12500038020E+03 0.  0.
    9000005    1    3    3    0    0  0.44438261816E+02 -0.16366014457E+02  0.64678518693E+02  0.80168050511E+02  0.10000000000E+01 0.  0.
    9000005    1    3    3    0    0 -0.44438261816E+02  0.16366014457E+02  0.34266584965E+03  0.34592411026E+03  0.10000000000E+01 0.  0.
<mgrwt>
<rscale>  0 0.12500038E+03</rscale>
<asrwt>0</asrwt>
<pdfrwt beam="2">  1        4 0.14421376E-02 0.12500038E+03</pdfrwt>
<pdfrwt beam="1">  1       -4 0.64110516E-01 0.12500038E+03</pdfrwt>
<totfact> 0.62091286E+03</totfact>
</mgrwt>
</event>
<event>
 5    1  0.3239419E-002  0.1249997E+03  0.7818608E-02  0.1235070E+00
          4   -1    0    0  501    0  0.00000000000E+00  0.00000000000E+00  0.35297934467E+02  0.35320774024E+02  0.12700000000E+01 0. -1.
         -4   -1    0    0    0  501 -0.00000000000E+00 -0.00000000000E+00 -0.11060236344E+03  0.11060965463E+03  0.12700000000E+01 0. -1.
         25    2    1    2    0    0  0.00000000000E+00  0.00000000000E+00 -0.75304428971E+02  0.14593042866E+03  0.12499973194E+03 0.  0.
    9000005    1    3    3    0    0  0.25497466295E+02 -0.56603513961E+02 -0.46002078522E+02  0.77273991799E+02  0.10000000000E+01 0.  0.
    9000005    1    3    3    0    0 -0.25497466295E+02  0.56603513961E+02 -0.29302350449E+02  0.68656436858E+02  0.10000000000E+01 0.  0.
<mgrwt>
<rscale>  0 0.12499973E+03</rscale>
<asrwt>0</asrwt>
<pdfrwt beam="1">  1        4 0.54327692E-02 0.12499973E+03</pdfrwt>
<pdfrwt beam="2">  1       -4 0.17018066E-01 0.12499973E+03</pdfrwt>
<totfact> 0.10012179E+04</totfact>
</mgrwt>
</event>
<event>
 5    1  0.3239419E-002  0.1249980E+03  0.7818608E-02  0.1235072E+00
          4   -1    0    0  501    0  0.00000000000E+00  0.00000000000E+00  0.14455040695E+02  0.14510723672E+02  0.12700000000E+01 0. -1.
         -4   -1    0    0    0  501 -0.00000000000E+00 -0.00000000000E+00 -0.26964894322E+03  0.26965193394E+03  0.12700000000E+01 0. -1.
         25    2    1    2    0    0  0.00000000000E+00  0.00000000000E+00 -0.25519390252E+03  0.28416265761E+03  0.12499795237E+03 0.  0.
    9000005    1    3    3    0    0 -0.23281306210E+02 -0.32159194448E+02 -0.23730500322E+03  0.24060527334E+03  0.10000000000E+01 0.  0.
    9000005    1    3    3    0    0  0.23281306210E+02  0.32159194448E+02 -0.17888899301E+02  0.43557384271E+02  0.10000000000E+01 0.  0.
<mgrwt>
<rscale>  0 0.12499795E+03</rscale>
<asrwt>0</asrwt>
<pdfrwt beam="1">  1        4 0.22283660E-02 0.12499795E+03</pdfrwt>
<pdfrwt beam="2">  1       -4 0.41488962E-01 0.12499795E+03</pdfrwt>
<totfact> 0.77632919E+03</totfact>
</mgrwt>
</event>
<event>
 5    1  0.3239419E-002  0.1250021E+03  0.7818608E-02  0.1235066E+00
          4   -1    0    0  501    0  0.00000000000E+00  0.00000000000E+00  0.30213718567E+02  0.30240398305E+02  0.12700000000E+01 0.  1.
         -4   -1    0    0    0  501 -0.00000000000E+00 -0.00000000000E+00 -0.12920484159E+03  0.12921108308E+03  0.12700000000E+01 0.  1.
         25    2    1    2    0    0  0.00000000000E+00  0.00000000000E+00 -0.98991123023E+02  0.15945148138E+03  0.12500212990E+03 0.  0.
    9000005    1    3    3    0    0 -0.21276350722E+02 -0.47339966577E+02 -0.93896865160E+02  0.10729108454E+03  0.10000000000E+01 0.  0.
    9000005    1    3    3    0    0  0.21276350722E+02  0.47339966577E+02 -0.50942578636E+01  0.52160396842E+02  0.10000000000E+01 0.  0.
<mgrwt>
<rscale>  0 0.12500213E+03</rscale>
<asrwt>0</asrwt>
<pdfrwt beam="1">  1        4 0.46507969E-02 0.12500213E+03</pdfrwt>
<pdfrwt beam="2">  1       -4 0.19880200E-01 0.12500213E+03</pdfrwt>
<totfact> 0.97443974E+03</totfact>
</mgrwt>
</event>
<event>
 5    1  0.3239419E-002  0.1250077E+03  0.7818608E-02  0.1235057E+00
          4   -1    0    0  501    0  0.00000000000E+00  0.00000000000E+00  0.10969651774E+04  0.10969659125E+04  0.12700000000E+01 0. -1.
         -4   -1    0    0    0  501 -0.00000000000E+00 -0.00000000000E+00 -0.34474181347E+01  0.36739068844E+01  0.12700000000E+01 0. -1.
         25    2    1    2    0    0  0.00000000000E+00  0.00000000000E+00  0.10935177592E+04  0.11006398194E+04  0.12500768907E+03 0.  0.
    9000005    1    3    3    0    0  0.58774395568E+02  0.26861459951E+01  0.73230071690E+03  0.73466113612E+03  0.10000000000E+01 0.  0.
    9000005    1    3    3    0    0 -0.58774395568E+02 -0.26861459951E+01  0.36121704232E+03  0.36597868329E+03  0.10000000000E+01 0.  0.
<mgrwt>
<rscale>  0 0.12500769E+03</rscale>
<asrwt>0</asrwt>
<pdfrwt beam="1">  1        4 0.16878154E+00 0.12500769E+03</pdfrwt>
<pdfrwt beam="2">  1       -4 0.54785019E-03 0.12500769E+03</pdfrwt>
<totfact> 0.27460030E+03</totfact>
</mgrwt>
</event>
<event>
 5    1  0.3239419E-002  0.1249979E+03  0.7818608E-02  0.1235073E+00
         -4   -1    0    0    0  501 -0.00000000000E+00  0.00000000000E+00  0.47267452508E+03  0.47267623122E+03  0.12700000000E+01 0.  1.
          4   -1    0    0  501    0  0.00000000000E+00 -0.00000000000E+00 -0.82133358750E+01  0.83109437608E+01  0.12700000000E+01 0.  1.
         25    2    1    2    0    0  0.00000000000E+00  0.00000000000E+00  0.46446118921E+03  0.48098717498E+03  0.12499786485E+03 0.  0.
    9000005    1    3    3    0    0  0.16387371722E+02 -0.34731813116E+02  0.42192665958E+03  0.42367198498E+03  0.10000000000E+01 0.  0.
    9000005    1    3    3    0    0 -0.16387371722E+02  0.34731813116E+02  0.42534529631E+02  0.57315190004E+02  0.10000000000E+01 0.  0.
<mgrwt>
<rscale>  0 0.12499786E+03</rscale>
<asrwt>0</asrwt>
<pdfrwt beam="2">  1        4 0.12712297E-02 0.12499786E+03</pdfrwt>
<pdfrwt beam="1">  1       -4 0.72726798E-01 0.12499786E+03</pdfrwt>
<totfact> 0.57372998E+03</totfact>
</mgrwt>
</event>
<event>
 5    1  0.3239419E-002  0.1249966E+03  0.7818608E-02  0.1235075E+00
          4   -1    0    0  501    0  0.00000000000E+00  0.00000000000E+00  0.38040642650E+03  0.38040854646E+03  0.12700000000E+01 0. -1.
         -4   -1    0    0    0  501 -0.00000000000E+00 -0.00000000000E+00 -0.10226637036E+02  0.10305193111E+02  0.12700000000E+01 0. -1.
         25    2    1    2    0    0  0.00000000000E+00  0.00000000000E+00  0.37017978946E+03  0.39071373957E+03  0.12499659901E+03 0.  0.
    9000005    1    3    3    0    0 -0.27270902311E+02 -0.18078302871E+02  0.18672198276E+02  0.37685250908E+02  0.10000000000E+01 0.  0.
    9000005    1    3    3    0    0  0.27270902311E+02  0.18078302871E+02  0.35150759119E+03  0.35302848866E+03  0.10000000000E+01 0.  0.
<mgrwt>
<rscale>  0 0.12499660E+03</rscale>
<asrwt>0</asrwt>
<pdfrwt beam="1">  1        4 0.58530265E-01 0.12499660E+03</pdfrwt>
<pdfrwt beam="2">  1       -4 0.15795348E-02 0.12499660E+03</pdfrwt>
<totfact> 0.65471012E+03</totfact>
</mgrwt>
</event>
<event>
 5    1  0.3239419E-002  0.1249992E+03  0.7818608E-02  0.1235070E+00
         -4   -1    0    0    0  501 -0.00000000000E+00  0.00000000000E+00  0.94039841866E+02  0.94048417096E+02  0.12700000000E+01 0.  1.
          4   -1    0    0  501    0  0.00000000000E+00 -0.00000000000E+00 -0.41517555822E+02  0.41536975593E+02  0.12700000000E+01 0.  1.
         25    2    1    2    0    0  0.00000000000E+00  0.00000000000E+00  0.52522286045E+02  0.13558539269E+03  0.12499923271E+03 0.  0.
    9000005    1    3    3    0    0  0.10733220511E+02 -0.43786826866E+02  0.73200946096E+02  0.85975966054E+02  0.10000000000E+01 0.  0.
    9000005    1    3    3    0    0 -0.10733220511E+02  0.43786826866E+02 -0.20678660052E+02  0.49609426635E+02  0.10000000000E+01 0.  0.
<mgrwt>
<rscale>  0 0.12499923E+03</rscale>
<asrwt>0</asrwt>
<pdfrwt beam="2">  1        4 0.63894698E-02 0.12499923E+03</pdfrwt>
<pdfrwt beam="1">  1       -4 0.14469821E-01 0.12499923E+03</pdfrwt>
<totfact> 0.10225924E+04</totfact>
</mgrwt>
</event>
<event>
 5    1  0.3239419E-002  0.1250074E+03  0.7818608E-02  0.1235058E+00
          4   -1    0    0  501    0  0.00000000000E+00  0.00000000000E+00  0.78137141138E+01  0.79162508963E+01  0.12700000000E+01 0.  1.
         -4   -1    0    0    0  501 -0.00000000000E+00 -0.00000000000E+00 -0.49661889416E+03  0.49662051804E+03  0.12700000000E+01 0.  1.
         25    2    1    2    0    0  0.00000000000E+00  0.00000000000E+00 -0.48880518005E+03  0.50453676894E+03  0.12500738845E+03 0.  0.
    9000005    1    3    3    0    0 -0.30639057540E+02 -0.39987738334E+02 -0.39367886160E+03  0.39689018271E+03  0.10000000000E+01 0.  0.
    9000005    1    3    3    0    0  0.30639057540E+02  0.39987738334E+02 -0.95126318451E+02  0.10764658623E+03  0.10000000000E+01 0.  0.
<mgrwt>
<rscale>  0 0.12500739E+03</rscale>
<asrwt>0</asrwt>
<pdfrwt beam="1">  1        4 0.12101226E-02 0.12500739E+03</pdfrwt>
<pdfrwt beam="2">  1       -4 0.76410894E-01 0.12500739E+03</pdfrwt>
<totfact> 0.55505074E+03</totfact>
</mgrwt>
</event>
<event>
 5    1  0.3239419E-002  0.1250058E+03  0.7818608E-02  0.1235060E+00
          4   -1    0    0  501    0  0.00000000000E+00  0.00000000000E+00  0.27608979564E+02  0.27638173828E+02  0.12700000000E+01 0.  1.
         -4   -1    0    0    0  501 -0.00000000000E+00 -0.00000000000E+00 -0.14139104883E+03  0.14139675240E+03  0.12700000000E+01 0.  1.
         25    2    1    2    0    0  0.00000000000E+00  0.00000000000E+00 -0.11378206927E+03  0.16903492623E+03  0.12500578786E+03 0.  0.
    9000005    1    3    3    0    0  0.68026962500E+01 -0.25026433839E+02  0.19995454633E+02  0.32763047370E+02  0.10000000000E+01 0.  0.
    9000005    1    3    3    0    0 -0.68026962500E+01  0.25026433839E+02 -0.13377752390E+03  0.13627187886E+03  0.10000000000E+01 0.  0.
<mgrwt>
<rscale>  0 0.12500579E+03</rscale>
<asrwt>0</asrwt>
<pdfrwt beam="1">  1        4 0.42502198E-02 0.12500579E+03</pdfrwt>
<pdfrwt beam="2">  1       -4 0.21755153E-01 0.12500579E+03</pdfrwt>
<totfact> 0.95616224E+03</totfact>
</mgrwt>
</event>
<event>
 5    1  0.3239419E-002  0.1250004E+03  0.7818608E-02  0.1235069E+00
         -4   -1    0    0    0  501 -0.00000000000E+00  0.00000000000E+00  0.64393386874E+02  0.64405909458E+02  0.12700000000E+01 0. -1.
          4   -1    0    0  501    0  0.00000000000E+00 -0.00000000000E+00 -0.60637592446E+02  0.60650890494E+02  0.12700000000E+01 0. -1.
         25    2    1    2    0    0  0.00000000000E+00  0.00000000000E+00  0.37557944278E+01  0.12505679995E+03  0.12500038889E+03 0.  0.
    9000005    1    3    3    0    0 -0.30134471949E+02 -0.17639894085E+02 -0.49972338310E+02  0.60971196963E+02  0.10000000000E+01 0.  0.
    9000005    1    3    3    0    0  0.30134471949E+02  0.17639894085E+02  0.53728132738E+02  0.64085602989E+02  0.10000000000E+01 0.  0.
<mgrwt>
<rscale>  0 0.12500039E+03</rscale>
<asrwt>0</asrwt>
<pdfrwt beam="2">  1        4 0.93308466E-02 0.12500039E+03</pdfrwt>
<pdfrwt beam="1">  1       -4 0.99086611E-02 0.12500039E+03</pdfrwt>
<totfact> 0.10451537E+04</totfact>
</mgrwt>
</event>
<event>
 5    1  0.3239419E-002  0.1249985E+03  0.7818608E-02  0.1235072E+00
          4   -1    0    0  501    0  0.00000000000E+00  0.00000000000E+00  0.29217138289E+02  0.29244727214E+02  0.12700000000E+01 0.  1.
         -4   -1    0    0    0  501 -0.00000000000E+00 -0.00000000000E+00 -0.13360025124E+03  0.13360628739E+03  0.12700000000E+01 0.  1.
         25    2    1    2    0    0  0.00000000000E+00  0.00000000000E+00 -0.10438311295E+03  0.16285101460E+03  0.12499847475E+03 0.  0.
    9000005    1    3    3    0    0  0.13772202266E+02  0.27712840744E+02 -0.12292277779E+03  0.12676231458E+03  0.10000000000E+01 0.  0.
    9000005    1    3    3    0    0 -0.13772202266E+02 -0.27712840744E+02  0.18539664842E+02  0.36088700029E+02  0.10000000000E+01 0.  0.
<mgrwt>
<rscale>  0 0.12499847E+03</rscale>
<asrwt>0</asrwt>
<pdfrwt beam="1">  1        4 0.44975310E-02 0.12499847E+03</pdfrwt>
<pdfrwt beam="2">  1       -4 0.20556471E-01 0.12499847E+03</pdfrwt>
<totfact> 0.96799248E+03</totfact>
</mgrwt>
</event>
<event>
 5    1  0.3239419E-002  0.1250023E+03  0.7818608E-02  0.1235066E+00
          4   -1    0    0  501    0  0.00000000000E+00  0.00000000000E+00  0.95055466579E+02  0.95063950195E+02  0.12700000000E+01 0. -1.
         -4   -1    0    0    0  501 -0.00000000000E+00 -0.00000000000E+00 -0.41075826058E+02  0.41095454571E+02  0.12700000000E+01 0. -1.
         25    2    1    2    0    0  0.00000000000E+00  0.00000000000E+00  0.53979640521E+02  0.13615940477E+03  0.12500232764E+03 0.  0.
    9000005    1    3    3    0    0  0.57273689134E+02 -0.22496655758E+02  0.15106428522E+02  0.63368597664E+02  0.10000000000E+01 0.  0.
    9000005    1    3    3    0    0 -0.57273689134E+02  0.22496655758E+02  0.38873211999E+02  0.72790807101E+02  0.10000000000E+01 0.  0.
<mgrwt>
<rscale>  0 0.12500233E+03</rscale>
<asrwt>0</asrwt>
<pdfrwt beam="1">  1        4 0.14626080E-01 0.12500233E+03</pdfrwt>
<pdfrwt beam="2">  1       -4 0.63215204E-02 0.12500233E+03</pdfrwt>
<totfact> 0.10213155E+04</totfact>
</mgrwt>
</event>
<event>
 5    1  0.3239419E-002  0.1249969E+03  0.7818608E-02  0.1235074E+00
          4   -1    0    0  501    0  0.00000000000E+00  0.00000000000E+00  0.28517900374E+03  0.28518183160E+03  0.12700000000E+01 0. -1.
         -4   -1    0    0    0  501 -0.00000000000E+00 -0.00000000000E+00 -0.13664517092E+02  0.13723408008E+02  0.12700000000E+01 0. -1.
         25    2    1    2    0    0  0.00000000000E+00  0.00000000000E+00  0.27151448665E+03  0.29890523961E+03  0.12499690318E+03 0.  0.
    9000005    1    3    3    0    0 -0.57969878991E+02 -0.85625921634E+01  0.18766729675E+03  0.19660579626E+03  0.10000000000E+01 0.  0.
    9000005    1    3    3    0    0  0.57969878991E+02  0.85625921634E+01  0.83847189906E+02  0.10229944335E+03  0.10000000000E+01 0.  0.
<mgrwt>
<rscale>  0 0.12499690E+03</rscale>
<asrwt>0</asrwt>
<pdfrwt beam="1">  1        4 0.43878436E-01 0.12499690E+03</pdfrwt>
<pdfrwt beam="2">  1       -4 0.21069812E-02 0.12499690E+03</pdfrwt>
<totfact> 0.75741578E+03</totfact>
</mgrwt>
</event>
<event>
 5    1  0.3239419E-002  0.1249992E+03  0.7818608E-02  0.1235071E+00
         -4   -1    0    0    0  501 -0.00000000000E+00  0.00000000000E+00  0.23112360077E+02  0.23147226364E+02  0.12700000000E+01 0. -1.
          4   -1    0    0  501    0  0.00000000000E+00 -0.00000000000E+00 -0.16884441430E+03  0.16884919052E+03  0.12700000000E+01 0. -1.
         25    2    1    2    0    0  0.00000000000E+00  0.00000000000E+00 -0.14573205422E+03  0.19199641689E+03  0.12499916987E+03 0.  0.
    9000005    1    3    3    0    0  0.58163620451E+02 -0.20687660630E+02 -0.87774709766E+02  0.10731442457E+03  0.10000000000E+01 0.  0.
    9000005    1    3    3    0    0 -0.58163620451E+02  0.20687660630E+02 -0.57957344455E+02  0.84681992316E+02  0.10000000000E+01 0.  0.
<mgrwt>
<rscale>  0 0.12499917E+03</rscale>
<asrwt>0</asrwt>
<pdfrwt beam="2">  1        4 0.25979112E-01 0.12499917E+03</pdfrwt>
<pdfrwt beam="1">  1       -4 0.35587972E-02 0.12499917E+03</pdfrwt>
<totfact> 0.91502802E+03</totfact>
</mgrwt>
</event>
<event>
 5    1  0.3239419E-002  0.1250041E+03  0.7818608E-02  0.1235063E+00
          4   -1    0    0  501    0  0.00000000000E+00  0.00000000000E+00  0.21015632119E+03  0.21016015854E+03  0.12700000000E+01 0. -1.
         -4   -1    0    0    0  501 -0.00000000000E+00 -0.00000000000E+00 -0.18562883770E+02  0.18606277270E+02  0.12700000000E+01 0. -1.
         25    2    1    2    0    0  0.00000000000E+00  0.00000000000E+00  0.19159343742E+03  0.22876643581E+03  0.12500414749E+03 0.  0.
    9000005    1    3    3    0    0  0.42802738090E+02 -0.25369860076E+02  0.16499675054E+03  0.17233871265E+03  0.10000000000E+01 0.  0.
    9000005    1    3    3    0    0 -0.42802738090E+02  0.25369860076E+02  0.26596686886E+02  0.56427723165E+02  0.10000000000E+01 0.  0.
<mgrwt>
<rscale>  0 0.12500415E+03</rscale>
<asrwt>0</asrwt>
<pdfrwt beam="1">  1        4 0.32335376E-01 0.12500415E+03</pdfrwt>
<pdfrwt beam="2">  1       -4 0.28594614E-02 0.12500415E+03</pdfrwt>
<totfact> 0.85491459E+03</totfact>
</mgrwt>
</event>
<event>
 5    1  0.3239419E-002  0.1249836E+03  0.7818608E-02  0.1235095E+00
          4   -1    0    0  501    0  0.00000000000E+00  0.00000000000E+00  0.21152945440E+02  0.21191035859E+02  0.12700000000E+01 0. -1.
         -4   -1    0    0    0  501 -0.00000000000E+00 -0.00000000000E+00 -0.18441206430E+03  0.18441643734E+03  0.12700000000E+01 0. -1.
         25    2    1    2    0    0  0.00000000000E+00  0.00000000000E+00 -0.16325911886E+03  0.20560747320E+03  0.12498357149E+03 0.  0.
    9000005    1    3    3    0    0 -0.48465496156E+02 -0.13229085635E+02 -0.14274828972E+03  0.15133402539E+03  0.10000000000E+01 0.  0.
    9000005    1    3    3    0    0  0.48465496156E+02  0.13229085635E+02 -0.20510829145E+02  0.54273447804E+02  0.10000000000E+01 0.  0.
<mgrwt>
<rscale>  0 0.12498357E+03</rscale>
<asrwt>0</asrwt>
<pdfrwt beam="1">  1        4 0.32575658E-02 0.12498357E+03</pdfrwt>
<pdfrwt beam="2">  1       -4 0.28374352E-01 0.12498357E+03</pdfrwt>
<totfact> 0.89231083E+03</totfact>
</mgrwt>
</event>
<event>
 5    1  0.3239419E-002  0.1249986E+03  0.7818608E-02  0.1235071E+00
         -4   -1    0    0    0  501 -0.00000000000E+00  0.00000000000E+00  0.43446726161E+03  0.43446911779E+03  0.12700000000E+01 0. -1.
          4   -1    0    0  501    0  0.00000000000E+00 -0.00000000000E+00 -0.89439646451E+01  0.90336816178E+01  0.12700000000E+01 0. -1.
         25    2    1    2    0    0  0.00000000000E+00  0.00000000000E+00  0.42552329697E+03  0.44350279941E+03  0.12499862727E+03 0.  0.
    9000005    1    3    3    0    0  0.57083164557E+01 -0.49821820688E+02  0.34506036016E+03  0.34868675175E+03  0.10000000000E+01 0.  0.
    9000005    1    3    3    0    0 -0.57083164557E+01  0.49821820688E+02  0.80462936807E+02  0.94816047656E+02  0.10000000000E+01 0.  0.
<mgrwt>
<rscale>  0 0.12499863E+03</rscale>
<asrwt>0</asrwt>
<pdfrwt beam="2">  1        4 0.13830391E-02 0.12499863E+03</pdfrwt>
<pdfrwt beam="1">  1       -4 0.66848140E-01 0.12499863E+03</pdfrwt>
<totfact> 0.60532650E+03</totfact>
</mgrwt>
</event>
<event>
 5    1  0.3239419E-002  0.1250004E+03  0.7818608E-02  0.1235069E+00
         -4   -1    0    0    0  501 -0.00000000000E+00  0.00000000000E+00  0.71654580963E+01  0.72771347198E+01  0.12700000000E+01 0.  1.
          4   -1    0    0  501    0  0.00000000000E+00 -0.00000000000E+00 -0.54082614066E+03  0.54082763180E+03  0.12700000000E+01 0.  1.
         25    2    1    2    0    0  0.00000000000E+00  0.00000000000E+00 -0.53366068256E+03  0.54810476652E+03  0.12500044388E+03 0.  0.
    9000005    1    3    3    0    0 -0.40327665669E+02 -0.15588757831E+02 -0.46468001488E+03  0.46668816808E+03  0.10000000000E+01 0.  0.
    9000005    1    3    3    0    0  0.40327665669E+02  0.15588757831E+02 -0.68980667678E+02  0.81416598445E+02  0.10000000000E+01 0.  0.
<mgrwt>
<rscale>  0 0.12500044E+03</rscale>
<asrwt>0</asrwt>
<pdfrwt beam="2">  1        4 0.83212695E-01 0.12500044E+03</pdfrwt>
<pdfrwt beam="1">  1       -4 0.11110838E-02 0.12500044E+03</pdfrwt>
<totfact> 0.52315787E+03</totfact>
</mgrwt>
</event>
<event>
 5    1  0.3239419E-002  0.1250090E+03  0.7818608E-02  0.1235055E+00
         -4   -1    0    0    0  501 -0.00000000000E+00  0.00000000000E+00  0.27017005352E+02  0.27046838599E+02  0.12700000000E+01 0.  1.
          4   -1    0    0  501    0  0.00000000000E+00 -0.00000000000E+00 -0.14449322629E+03  0.14449880741E+03  0.12700000000E+01 0.  1.
         25    2    1    2    0    0  0.00000000000E+00  0.00000000000E+00 -0.11747622094E+03  0.17154564601E+03  0.12500898440E+03 0.  0.
    9000005    1    3    3    0    0 -0.33476210213E+02 -0.51340385763E+02 -0.41969502776E+02  0.74289508168E+02  0.10000000000E+01 0.  0.
    9000005    1    3    3    0    0  0.33476210213E+02  0.51340385763E+02 -0.75506718162E+02  0.97256137843E+02  0.10000000000E+01 0.  0.
<mgrwt>
<rscale>  0 0.12500898E+03</rscale>
<asrwt>0</asrwt>
<pdfrwt beam="2">  1        4 0.22232451E-01 0.12500898E+03</pdfrwt>
<pdfrwt beam="1">  1       -4 0.41591866E-02 0.12500898E+03</pdfrwt>
<totfact> 0.95142148E+03</totfact>
</mgrwt>
</event>
<event>
 5    1  0.3239419E-002  0.1249988E+03  0.7818608E-02  0.1235071E+00
         -4   -1    0    0    0  501 -0.00000000000E+00  0.00000000000E+00  0.28628349570E+02  0.28656505354E+02  0.12700000000E+01 0. -1.
          4   -1    0    0  501    0  0.00000000000E+00 -0.00000000000E+00 -0.13634604522E+03  0.13635195982E+03  0.12700000000E+01 0. -1.
         25    2    1    2    0    0  0.00000000000E+00  0.00000000000E+00 -0.10771769565E+03  0.16500846518E+03  0.12499876649E+03 0.  0.
    9000005    1    3    3    0    0  0.61472121950E+02  0.67594472803E+01 -0.65714687066E+02  0.90243736628E+02  0.10000000000E+01 0.  0.
    9000005    1    3    3    0    0 -0.61472121950E+02 -0.67594472803E+01 -0.42003008585E+02  0.74764728547E+02  0.10000000000E+01 0.  0.
<mgrwt>
<rscale>  0 0.12499877E+03</rscale>
<asrwt>0</asrwt>
<pdfrwt beam="2">  1        4 0.20978935E-01 0.12499877E+03</pdfrwt>
<pdfrwt beam="1">  1       -4 0.44069824E-02 0.12499877E+03</pdfrwt>
<totfact> 0.96388460E+03</totfact>
</mgrwt>
</event>
<event>
 5    1  0.3239419E-002  0.1250044E+03  0.7818608E-02  0.1235062E+00
          4   -1    0    0  501    0  0.00000000000E+00  0.00000000000E+00  0.70674991155E+02  0.70686400918E+02  0.12700000000E+01 0.  1.
         -4   -1    0    0    0  501 -0.00000000000E+00 -0.00000000000E+00 -0.55251333347E+02  0.55265927448E+02  0.12700000000E+01 0.  1.
         25    2    1    2    0    0  0.00000000000E+00  0.00000000000E+00  0.15423657807E+02  0.12595232837E+03  0.12500439912E+03 0.  0.
    9000005    1    3    3    0    0 -0.19947403071E+02 -0.52963163188E+02  0.34418094090E+02  0.66246514964E+02  0.10000000000E+01 0.  0.
    9000005    1    3    3    0    0  0.19947403071E+02  0.52963163188E+02 -0.18994436282E+02  0.59705813401E+02  0.10000000000E+01 0.  0.
<mgrwt>
<rscale>  0 0.12500440E+03</rscale>
<asrwt>0</asrwt>
<pdfrwt beam="1">  1        4 0.10875076E-01 0.12500440E+03</pdfrwt>
<pdfrwt beam="2">  1       -4 0.85022055E-02 0.12500440E+03</pdfrwt>
<totfact> 0.10430966E+04</totfact>
</mgrwt>
</event>
<event>
 5    1  0.3239419E-002  0.1250053E+03  0.7818608E-02  0.1235061E+00
         -4   -1    0    0    0  501 -0.00000000000E+00  0.00000000000E+00  0.13526237087E+03  0.13526833286E+03  0.12700000000E+01 0.  1.
          4   -1    0    0  501    0  0.00000000000E+00 -0.00000000000E+00 -0.28860961769E+02  0.28888890844E+02  0.12700000000E+01 0.  1.
         25    2    1    2    0    0  0.00000000000E+00  0.00000000000E+00  0.10640140910E+03  0.16415722370E+03  0.12500533682E+03 0.  0.
    9000005    1    3    3    0    0  0.36453783243E+02 -0.49722168603E+02  0.39782173437E+02  0.73381153484E+02  0.10000000000E+01 0.  0.
    9000005    1    3    3    0    0 -0.36453783243E+02  0.49722168603E+02  0.66619235664E+02  0.90776070215E+02  0.10000000000E+01 0.  0.
<mgrwt>
<rscale>  0 0.12500534E+03</rscale>
<asrwt>0</asrwt>
<pdfrwt beam="2">  1        4 0.44427550E-02 0.12500534E+03</pdfrwt>
<pdfrwt beam="1">  1       -4 0.20812202E-01 0.12500534E+03</pdfrwt>
<totfact> 0.96535664E+03</totfact>
</mgrwt>
</event>
<event>
 5    1  0.3239419E-002  0.1250091E+03  0.7818608E-02  0.1235055E+00
         -4   -1    0    0    0  501 -0.00000000000E+00  0.00000000000E+00  0.69860676732E+02  0.69872219469E+02  0.12700000000E+01 0.  1.
          4   -1    0    0  501    0  0.00000000000E+00 -0.00000000000E+00 -0.55899661572E+02  0.55914086452E+02  0.12700000000E+01 0.  1.
         25    2    1    2    0    0  0.00000000000E+00  0.00000000000E+00  0.13961015161E+02  0.12578630592E+03  0.12500913892E+03 0.  0.
    9000005    1    3    3    0    0 -0.47045489118E+02 -0.15884959699E+02  0.45166553732E+02  0.67131420118E+02  0.10000000000E+01 0.  0.
    9000005    1    3    3    0    0  0.47045489118E+02  0.15884959699E+02 -0.31205538572E+02  0.58654885803E+02  0.10000000000E+01 0.  0.
<mgrwt>
<rscale>  0 0.12500914E+03</rscale>
<asrwt>0</asrwt>
<pdfrwt beam="2">  1        4 0.86019454E-02 0.12500914E+03</pdfrwt>
<pdfrwt beam="1">  1       -4 0.10749794E-01 0.12500914E+03</pdfrwt>
<totfact> 0.10433495E+04</totfact>
</mgrwt>
</event>
<event>
 5    1  0.3239419E-002  0.1250001E+03  0.7818608E-02  0.1235069E+00
          4   -1    0    0  501    0  0.00000000000E+00  0.00000000000E+00  0.34761679673E+03  0.34761911666E+03  0.12700000000E+01 0.  1.
         -4   -1    0    0    0  501 -0.00000000000E+00 -0.00000000000E+00 -0.11198995205E+02  0.11270776087E+02  0.12700000000E+01 0.  1.
         25    2    1    2    0    0  0.00000000000E+00  0.00000000000E+00  0.33641780153E+03  0.35888989275E+03  0.12500007174E+03 0.  0.
    9000005    1    3    3    0    0  0.50992162062E+02 -0.34371561244E+02  0.20013511663E+03  0.20937208439E+03  0.10000000000E+01 0.  0.
    9000005    1    3    3    0    0 -0.50992162062E+02  0.34371561244E+02  0.13628268490E+03  0.14951780836E+03  0.10000000000E+01 0.  0.
<mgrwt>
<rscale>  0 0.12500007E+03</rscale>
<asrwt>0</asrwt>
<pdfrwt beam="1">  1        4 0.53485204E-01 0.12500007E+03</pdfrwt>
<pdfrwt beam="2">  1       -4 0.17286225E-02 0.12500007E+03</pdfrwt>
<totfact> 0.68757396E+03</totfact>
</mgrwt>
</event>
<event>
 5    1  0.3239419E-002  0.1249972E+03  0.7818608E-02  0.1235074E+00
          4   -1    0    0  501    0  0.00000000000E+00  0.00000000000E+00  0.51181329620E+02  0.51197083918E+02  0.12700000000E+01 0.  1.
         -4   -1    0    0    0  501 -0.00000000000E+00 -0.00000000000E+00 -0.76285621050E+02  0.76296191773E+02  0.12700000000E+01 0.  1.
         25    2    1    2    0    0  0.00000000000E+00  0.00000000000E+00 -0.25104291430E+02  0.12749327569E+03  0.12499723956E+03 0.  0.
    9000005    1    3    3    0    0  0.14253318654E+02 -0.12835723475E+02 -0.73213833780E+02  0.75691336007E+02  0.10000000000E+01 0.  0.
    9000005    1    3    3    0    0 -0.14253318654E+02  0.12835723475E+02  0.48109542350E+02  0.51801939683E+02  0.10000000000E+01 0.  0.
<mgrwt>
<rscale>  0 0.12499724E+03</rscale>
<asrwt>0</asrwt>
<pdfrwt beam="1">  1        4 0.78760757E-02 0.12499724E+03</pdfrwt>
<pdfrwt beam="2">  1       -4 0.11738274E-01 0.12499724E+03</pdfrwt>
<totfact> 0.10399094E+04</totfact>
</mgrwt>
</event>
<event>
 5    1  0.3239419E-002  0.1249968E+03  0.7818608E-02  0.1235074E+00
         -4   -1    0    0    0  501 -0.00000000000E+00  0.00000000000E+00  0.82402882776E+01  0.83375806382E+01  0.12700000000E+01 0.  1.
          4   -1    0    0  501    0  0.00000000000E+00 -0.00000000000E+00 -0.47113830425E+03  0.47114001596E+03  0.12700000000E+01 0.  1.
         25    2    1    2    0    0  0.00000000000E+00  0.00000000000E+00 -0.46289801598E+03  0.47947759659E+03  0.12499676972E+03 0.  0.
    9000005    1    3    3    0    0  0.46600405767E+02 -0.12794227781E+02 -0.38342881420E+03  0.38646338202E+03  0.10000000000E+01 0.  0.
    9000005    1    3    3    0    0 -0.46600405767E+02  0.12794227781E+02 -0.79469201771E+02  0.93014214571E+02  0.10000000000E+01 0.  0.
<mgrwt>
<rscale>  0 0.12499677E+03</rscale>
<asrwt>0</asrwt>
<pdfrwt beam="2">  1        4 0.72490411E-01 0.12499677E+03</pdfrwt>
<pdfrwt beam="1">  1       -4 0.12753527E-02 0.12499677E+03</pdfrwt>
<totfact> 0.57496663E+03</totfact>
</mgrwt>
</event>
<event>
 5    1  0.3239419E-002  0.1249882E+03  0.7818608E-02  0.1235088E+00
         -4   -1    0    0    0  501 -0.00000000000E+00  0.00000000000E+00  0.96941786256E+03  0.96941869445E+03  0.12700000000E+01 0.  1.
          4   -1    0    0  501    0  0.00000000000E+00 -0.00000000000E+00 -0.39277760781E+01  0.41279928439E+01  0.12700000000E+01 0.  1.
         25    2    1    2    0    0  0.00000000000E+00  0.00000000000E+00  0.96549008648E+03  0.97354668729E+03  0.12498818043E+03 0.  0.
    9000005    1    3    3    0    0  0.20998921502E+02 -0.11748222670E+02  0.33566858122E+02  0.41312339614E+02  0.10000000000E+01 0.  0.
    9000005    1    3    3    0    0 -0.20998921502E+02  0.11748222670E+02  0.93192322836E+03  0.93223434768E+03  0.10000000000E+01 0.  0.
<mgrwt>
<rscale>  0 0.12498818E+03</rscale>
<asrwt>0</asrwt>
<pdfrwt beam="2">  1        4 0.61973807E-03 0.12498818E+03</pdfrwt>
<pdfrwt beam="1">  1       -4 0.14915678E+00 0.12498818E+03</pdfrwt>
<totfact> 0.31502544E+03</totfact>
</mgrwt>
</event>
<event>
 5    1  0.3239419E-002  0.1249984E+03  0.7818608E-02  0.1235072E+00
          4   -1    0    0  501    0  0.00000000000E+00  0.00000000000E+00  0.12654092905E+02  0.12717663592E+02  0.12700000000E+01 0. -1.
         -4   -1    0    0    0  501 -0.00000000000E+00 -0.00000000000E+00 -0.30784854598E+03  0.30785116560E+03  0.12700000000E+01 0. -1.
         25    2    1    2    0    0  0.00000000000E+00  0.00000000000E+00 -0.29519445307E+03  0.32056882919E+03  0.12499843649E+03 0.  0.
    9000005    1    3    3    0    0 -0.57597349020E+02  0.19469706888E+01 -0.85626221330E+02  0.10321867606E+03  0.10000000000E+01 0.  0.
    9000005    1    3    3    0    0  0.57597349020E+02 -0.19469706888E+01 -0.20956823174E+03  0.21735015313E+03  0.10000000000E+01 0.  0.
<mgrwt>
<rscale>  0 0.12499844E+03</rscale>
<asrwt>0</asrwt>
<pdfrwt beam="1">  1        4 0.19518753E-02 0.12499844E+03</pdfrwt>
<pdfrwt beam="2">  1       -4 0.47366401E-01 0.12499844E+03</pdfrwt>
<totfact> 0.73091057E+03</totfact>
</mgrwt>
</event>
<event>
 5    1  0.3239419E-002  0.1250012E+03  0.7818608E-02  0.1235067E+00
         -4   -1    0    0    0  501 -0.00000000000E+00  0.00000000000E+00  0.23874953294E+02  0.23908707510E+02  0.12700000000E+01 0.  1.
          4   -1    0    0  501    0  0.00000000000E+00 -0.00000000000E+00 -0.16346411277E+03  0.16346904619E+03  0.12700000000E+01 0.  1.
         25    2    1    2    0    0  0.00000000000E+00  0.00000000000E+00 -0.13958915948E+03  0.18737775370E+03  0.12500115656E+03 0.  0.
    9000005    1    3    3    0    0  0.16753076608E+02 -0.35031062314E+02 -0.14319213907E+03  0.14836721199E+03  0.10000000000E+01 0.  0.
    9000005    1    3    3    0    0 -0.16753076608E+02  0.35031062314E+02  0.36029795955E+01  0.39010541712E+02  0.10000000000E+01 0.  0.
<mgrwt>
<rscale>  0 0.12500116E+03</rscale>
<asrwt>0</asrwt>
<pdfrwt beam="2">  1        4 0.25151300E-01 0.12500116E+03</pdfrwt>
<pdfrwt beam="1">  1       -4 0.36760458E-02 0.12500116E+03</pdfrwt>
<totfact> 0.92303197E+03</totfact>
</mgrwt>
</event>
