<event>
 4    1  0.3217852E-002  0.1251205E+03  0.7818608E-02  0.1234881E+00
         -4   -1    0    0    0  501 -0.00000000000E+00  0.00000000000E+00  0.74765601203E+02  0.74776386802E+02  0.12700000000E+01 0.  1.
          4   -1    0    0  501    0  0.00000000000E+00 -0.00000000000E+00 -0.52325095766E+02  0.52340505796E+02  0.12700000000E+01 0.  1.
    9000005    1    1    2    0    0 -0.52146917302E+01 -0.53846956909E+02 -0.20682941485E+02  0.57926434783E+02  0.10000000000E+01 0.  0.
    9000005    1    1    2    0    0  0.52146917302E+01  0.53846956909E+02  0.43123446921E+02  0.69190457815E+02  0.10000000000E+01 0.  0.
<mgrwt>
<rscale>  0 0.12512045E+03</rscale>
<asrwt>0</asrwt>
<pdfrwt beam="2">  1        4 0.80520297E-02 0.12512045E+03</pdfrwt>
<pdfrwt beam="1">  1       -4 0.11504415E-01 0.12512045E+03</pdfrwt>
<totfact> 0.10378361E+04</totfact>
</mgrwt>
</event>
<event>
 5    1  0.3217852E-002  0.1249663E+03  0.7818608E-02  0.1235122E+00
         -4   -1    0    0    0  501 -0.00000000000E+00  0.00000000000E+00  0.63920782977E+02  0.63933398129E+02  0.12700000000E+01 0. -1.
          4   -1    0    0  501    0  0.00000000000E+00 -0.00000000000E+00 -0.61052573992E+02  0.61065781671E+02  0.12700000000E+01 0. -1.
         25    2    1    2    0    0  0.00000000000E+00  0.00000000000E+00  0.28682089847E+01  0.12499917980E+03  0.12496626876E+03 0.  0.
    9000005    1    3    3    0    0  0.49052337386E+02 -0.35474603232E+02  0.16883650649E+02  0.62854092443E+02  0.10000000000E+01 0.  0.
    9000005    1    3    3    0    0 -0.49052337386E+02  0.35474603232E+02 -0.14015441664E+02  0.62145087357E+02  0.10000000000E+01 0.  0.
<mgrwt>
<rscale>  0 0.12496627E+03</rscale>
<asrwt>0</asrwt>
<pdfrwt beam="2">  1        4 0.93946900E-02 0.12496627E+03</pdfrwt>
<pdfrwt beam="1">  1       -4 0.98359530E-02 0.12496627E+03</pdfrwt>
<totfact> 0.10460853E+04</totfact>
</mgrwt>
</event>
<event>
 5    1  0.3217852E-002  0.1249974E+03  0.7818608E-02  0.1235073E+00
          4   -1    0    0  501    0  0.00000000000E+00  0.00000000000E+00  0.42257980674E+03  0.42258171513E+03  0.12700000000E+01 0. -1.
         -4   -1    0    0    0  501 -0.00000000000E+00 -0.00000000000E+00 -0.91978747724E+01  0.92851386812E+01  0.12700000000E+01 0. -1.
         25    2    1    2    0    0  0.00000000000E+00  0.00000000000E+00  0.41338193196E+03  0.43186685381E+03  0.12499743096E+03 0.  0.
    9000005    1    3    3    0    0  0.33321166426E+02  0.51584428296E+02  0.16672085446E+03  0.17767413061E+03  0.10000000000E+01 0.  0.
    9000005    1    3    3    0    0 -0.33321166426E+02 -0.51584428296E+02  0.24666107750E+03  0.25419272320E+03  0.10000000000E+01 0.  0.
<mgrwt>
<rscale>  0 0.12499743E+03</rscale>
<asrwt>0</asrwt>
<pdfrwt beam="1">  1        4 0.65019151E-01 0.12499743E+03</pdfrwt>
<pdfrwt beam="2">  1       -4 0.14219168E-02 0.12499743E+03</pdfrwt>
<totfact> 0.61570614E+03</totfact>
</mgrwt>
</event>
<event>
 5    1  0.3217852E-002  0.1250026E+03  0.7818608E-02  0.1235065E+00
          4   -1    0    0  501    0  0.00000000000E+00  0.00000000000E+00  0.90932848309E+03  0.90932936996E+03  0.12700000000E+01 0.  1.
         -4   -1    0    0    0  501 -0.00000000000E+00 -0.00000000000E+00 -0.42011595249E+01  0.43889225732E+01  0.12700000000E+01 0.  1.
         25    2    1    2    0    0  0.00000000000E+00  0.00000000000E+00  0.90512732357E+03  0.91371829253E+03  0.12500258490E+03 0.  0.
    9000005    1    3    3    0    0  0.14913777339E+01  0.33448609454E+02  0.83827056602E+03  0.83893955416E+03  0.10000000000E+01 0.  0.
    9000005    1    3    3    0    0 -0.14913777339E+01 -0.33448609454E+02  0.66856757549E+02  0.74778738368E+02  0.10000000000E+01 0.  0.
<mgrwt>
<rscale>  0 0.12500258E+03</rscale>
<asrwt>0</asrwt>
<pdfrwt beam="1">  1        4 0.13991117E+00 0.12500258E+03</pdfrwt>
<pdfrwt beam="2">  1       -4 0.66084393E-03 0.12500258E+03</pdfrwt>
<totfact> 0.33638161E+03</totfact>
</mgrwt>
</event>
<event>
 5    1  0.3217852E-002  0.1249986E+03  0.7818608E-02  0.1235071E+00
         -4   -1    0    0    0  501 -0.00000000000E+00  0.00000000000E+00  0.40821693769E+01  0.42751616136E+01  0.12700000000E+01 0. -1.
          4   -1    0    0  501    0  0.00000000000E+00 -0.00000000000E+00 -0.93459355604E+03  0.93459441892E+03  0.12700000000E+01 0. -1.
         25    2    1    2    0    0  0.00000000000E+00  0.00000000000E+00 -0.93051138666E+03  0.93886958054E+03  0.12499859422E+03 0.  0.
    9000005    1    3    3    0    0  0.39867789607E+02 -0.13007481972E+02 -0.81324692997E+03  0.81432806924E+03  0.10000000000E+01 0.  0.
    9000005    1    3    3    0    0 -0.39867789607E+02  0.13007481972E+02 -0.11726445669E+03  0.12454151130E+03  0.10000000000E+01 0.  0.
<mgrwt>
<rscale>  0 0.12499859E+03</rscale>
<asrwt>0</asrwt>
<pdfrwt beam="2">  1        4 0.14379837E+00 0.12499859E+03</pdfrwt>
<pdfrwt beam="1">  1       -4 0.64293873E-03 0.12499859E+03</pdfrwt>
<totfact> 0.32715514E+03</totfact>
</mgrwt>
</event>
<event>
 5    1  0.3217852E-002  0.1250028E+03  0.7818608E-02  0.1235065E+00
         -4   -1    0    0    0  501 -0.00000000000E+00  0.00000000000E+00  0.27633500562E+01  0.30412174426E+01  0.12700000000E+01 0. -1.
          4   -1    0    0  501    0  0.00000000000E+00 -0.00000000000E+00 -0.13457048220E+04  0.13457054213E+04  0.12700000000E+01 0. -1.
         25    2    1    2    0    0  0.00000000000E+00  0.00000000000E+00 -0.13429414719E+04  0.13487466387E+04  0.12500279353E+03 0.  0.
    9000005    1    3    3    0    0 -0.51446958463E+02  0.57629283272E+01 -0.10491766613E+04  0.10504535532E+04  0.10000000000E+01 0.  0.
    9000005    1    3    3    0    0  0.51446958463E+02 -0.57629283272E+01 -0.29376481065E+03  0.29829308549E+03  0.10000000000E+01 0.  0.
<mgrwt>
<rscale>  0 0.12500279E+03</rscale>
<asrwt>0</asrwt>
<pdfrwt beam="2">  1        4 0.20705243E+00 0.12500279E+03</pdfrwt>
<pdfrwt beam="1">  1       -4 0.44655237E-03 0.12500279E+03</pdfrwt>
<totfact> 0.21105166E+03</totfact>
</mgrwt>
</event>
<event>
 5    1  0.3217852E-002  0.1250007E+03  0.7818608E-02  0.1235068E+00
          4   -1    0    0  501    0  0.00000000000E+00  0.00000000000E+00  0.53605469198E+02  0.53620511261E+02  0.12700000000E+01 0.  1.
         -4   -1    0    0    0  501 -0.00000000000E+00 -0.00000000000E+00 -0.72840388601E+02  0.72851459228E+02  0.12700000000E+01 0.  1.
         25    2    1    2    0    0  0.00000000000E+00  0.00000000000E+00 -0.19234919403E+02  0.12647197049E+03  0.12500070878E+03 0.  0.
    9000005    1    3    3    0    0 -0.51518122355E+02 -0.86416746682E+01  0.25086382406E+02  0.57957933489E+02  0.10000000000E+01 0.  0.
    9000005    1    3    3    0    0  0.51518122355E+02  0.86416746682E+01 -0.44321301809E+02  0.68514037000E+02  0.10000000000E+01 0.  0.
<mgrwt>
<rscale>  0 0.12500071E+03</rscale>
<asrwt>0</asrwt>
<pdfrwt beam="1">  1        4 0.82490039E-02 0.12500071E+03</pdfrwt>
<pdfrwt beam="2">  1       -4 0.11208222E-01 0.12500071E+03</pdfrwt>
<totfact> 0.10420473E+04</totfact>
</mgrwt>
</event>
<event>
 5    1  0.3217852E-002  0.1250299E+03  0.7818608E-02  0.1235023E+00
         -4   -1    0    0    0  501 -0.00000000000E+00  0.00000000000E+00  0.60990666099E+02  0.61003887181E+02  0.12700000000E+01 0. -1.
          4   -1    0    0  501    0  0.00000000000E+00 -0.00000000000E+00 -0.64050862780E+02  0.64063452318E+02  0.12700000000E+01 0. -1.
         25    2    1    2    0    0  0.00000000000E+00  0.00000000000E+00 -0.30601966814E+01  0.12506733950E+03  0.12502989485E+03 0.  0.
    9000005    1    3    3    0    0 -0.23341935157E+02 -0.47497161944E+01  0.56277458275E+02  0.61119211797E+02  0.10000000000E+01 0.  0.
    9000005    1    3    3    0    0  0.23341935157E+02  0.47497161944E+01 -0.59337654957E+02  0.63948127702E+02  0.10000000000E+01 0.  0.
<mgrwt>
<rscale>  0 0.12502989E+03</rscale>
<asrwt>0</asrwt>
<pdfrwt beam="2">  1        4 0.98559643E-02 0.12502989E+03</pdfrwt>
<pdfrwt beam="1">  1       -4 0.93851648E-02 0.12502989E+03</pdfrwt>
<totfact> 0.10444342E+04</totfact>
</mgrwt>
</event>
<event>
 5    1  0.3217852E-002  0.1249997E+03  0.7818608E-02  0.1235070E+00
         -4   -1    0    0    0  501 -0.00000000000E+00  0.00000000000E+00  0.59059640678E+02  0.59073293941E+02  0.12700000000E+01 0.  1.
          4   -1    0    0  501    0  0.00000000000E+00 -0.00000000000E+00 -0.66113040512E+02  0.66125237435E+02  0.12700000000E+01 0.  1.
         25    2    1    2    0    0  0.00000000000E+00  0.00000000000E+00 -0.70533998339E+01  0.12519853138E+03  0.12499968724E+03 0.  0.
    9000005    1    3    3    0    0  0.12804925714E+02 -0.35456674869E+02 -0.53446615641E+02  0.65411639934E+02  0.10000000000E+01 0.  0.
    9000005    1    3    3    0    0 -0.12804925714E+02  0.35456674869E+02  0.46393215807E+02  0.59786891442E+02  0.10000000000E+01 0.  0.
<mgrwt>
<rscale>  0 0.12499969E+03</rscale>
<asrwt>0</asrwt>
<pdfrwt beam="2">  1        4 0.10173225E-01 0.12499969E+03</pdfrwt>
<pdfrwt beam="1">  1       -4 0.90880871E-02 0.12499969E+03</pdfrwt>
<totfact> 0.10448626E+04</totfact>
</mgrwt>
</event>
<event>
 5    1  0.3217852E-002  0.1250008E+03  0.7818608E-02  0.1235068E+00
         -4   -1    0    0    0  501 -0.00000000000E+00  0.00000000000E+00  0.43161802241E+02  0.43180482543E+02  0.12700000000E+01 0. -1.
          4   -1    0    0  501    0  0.00000000000E+00 -0.00000000000E+00 -0.90460949335E+02  0.90469863793E+02  0.12700000000E+01 0. -1.
         25    2    1    2    0    0  0.00000000000E+00  0.00000000000E+00 -0.47299147095E+02  0.13365034634E+03  0.12500082304E+03 0.  0.
    9000005    1    3    3    0    0 -0.28668741608E+02 -0.33329380961E+02 -0.71136274991E+02  0.83630819679E+02  0.10000000000E+01 0.  0.
    9000005    1    3    3    0    0  0.28668741608E+02  0.33329380961E+02  0.23837127896E+02  0.50019526657E+02  0.10000000000E+01 0.  0.
<mgrwt>
<rscale>  0 0.12500082E+03</rscale>
<asrwt>0</asrwt>
<pdfrwt beam="2">  1        4 0.13919192E-01 0.12500082E+03</pdfrwt>
<pdfrwt beam="1">  1       -4 0.66424000E-02 0.12500082E+03</pdfrwt>
<totfact> 0.10266406E+04</totfact>
</mgrwt>
</event>
<event>
 5    1  0.3217852E-002  0.1249993E+03  0.7818608E-02  0.1235070E+00
          4   -1    0    0  501    0  0.00000000000E+00  0.00000000000E+00  0.12085806805E+03  0.12086474057E+03  0.12700000000E+01 0. -1.
         -4   -1    0    0    0  501 -0.00000000000E+00 -0.00000000000E+00 -0.32300565820E+02  0.32325523233E+02  0.12700000000E+01 0. -1.
         25    2    1    2    0    0  0.00000000000E+00  0.00000000000E+00  0.88557502232E+02  0.15319026380E+03  0.12499930289E+03 0.  0.
    9000005    1    3    3    0    0  0.41437220372E+02  0.28913136016E+02  0.89344131115E+02  0.10264690171E+03  0.10000000000E+01 0.  0.
    9000005    1    3    3    0    0 -0.41437220372E+02 -0.28913136016E+02 -0.78662888308E+00  0.50543362091E+02  0.10000000000E+01 0.  0.
<mgrwt>
<rscale>  0 0.12499930E+03</rscale>
<asrwt>0</asrwt>
<pdfrwt beam="1">  1        4 0.18595982E-01 0.12499930E+03</pdfrwt>
<pdfrwt beam="2">  1       -4 0.49717509E-02 0.12499930E+03</pdfrwt>
<totfact> 0.98673074E+03</totfact>
</mgrwt>
</event>
<event>
 5    1  0.3217852E-002  0.1250017E+03  0.7818608E-02  0.1235067E+00
         -4   -1    0    0    0  501 -0.00000000000E+00  0.00000000000E+00  0.65885710276E+02  0.65897949275E+02  0.12700000000E+01 0. -1.
          4   -1    0    0  501    0  0.00000000000E+00 -0.00000000000E+00 -0.59265333065E+02  0.59278938952E+02  0.12700000000E+01 0. -1.
         25    2    1    2    0    0  0.00000000000E+00  0.00000000000E+00  0.66203772119E+01  0.12517688823E+03  0.12500169580E+03 0.  0.
    9000005    1    3    3    0    0  0.38116597514E+02 -0.48728786202E+02 -0.55331777989E+01  0.62120734600E+02  0.10000000000E+01 0.  0.
    9000005    1    3    3    0    0 -0.38116597514E+02  0.48728786202E+02  0.12153555011E+02  0.63056153626E+02  0.10000000000E+01 0.  0.
<mgrwt>
<rscale>  0 0.12500170E+03</rscale>
<asrwt>0</asrwt>
<pdfrwt beam="2">  1        4 0.91197317E-02 0.12500170E+03</pdfrwt>
<pdfrwt beam="1">  1       -4 0.10138251E-01 0.12500170E+03</pdfrwt>
<totfact> 0.10448621E+04</totfact>
</mgrwt>
</event>
<event>
 5    1  0.3217852E-002  0.1250060E+03  0.7818608E-02  0.1235060E+00
         -4   -1    0    0    0  501 -0.00000000000E+00  0.00000000000E+00  0.41022095359E+03  0.41022291947E+03  0.12700000000E+01 0. -1.
          4   -1    0    0  501    0  0.00000000000E+00 -0.00000000000E+00 -0.94788884253E+01  0.95635885409E+01  0.12700000000E+01 0. -1.
         25    2    1    2    0    0  0.00000000000E+00  0.00000000000E+00  0.40074206516E+03  0.41978650802E+03  0.12500603794E+03 0.  0.
    9000005    1    3    3    0    0 -0.24901499591E+02  0.24755361813E+02  0.26761410473E+02  0.44159774805E+02  0.10000000000E+01 0.  0.
    9000005    1    3    3    0    0  0.24901499591E+02 -0.24755361813E+02  0.37398065469E+03  0.37562673321E+03  0.10000000000E+01 0.  0.
<mgrwt>
<rscale>  0 0.12500604E+03</rscale>
<asrwt>0</asrwt>
<pdfrwt beam="2">  1        4 0.14649573E-02 0.12500604E+03</pdfrwt>
<pdfrwt beam="1">  1       -4 0.63117575E-01 0.12500604E+03</pdfrwt>
<totfact> 0.62664477E+03</totfact>
</mgrwt>
</event>
<event>
 5    1  0.3217852E-002  0.1250011E+03  0.7818608E-02  0.1235068E+00
          4   -1    0    0  501    0  0.00000000000E+00  0.00000000000E+00  0.69218641226E+02  0.69230291009E+02  0.12700000000E+01 0. -1.
         -4   -1    0    0    0  501 -0.00000000000E+00 -0.00000000000E+00 -0.56410928962E+02  0.56425223139E+02  0.12700000000E+01 0. -1.
         25    2    1    2    0    0  0.00000000000E+00  0.00000000000E+00  0.12807712265E+02  0.12565551415E+03  0.12500108297E+03 0.  0.
    9000005    1    3    3    0    0  0.13846459101E+02  0.17588344355E+02 -0.52247502650E+02  0.56849589444E+02  0.10000000000E+01 0.  0.
    9000005    1    3    3    0    0 -0.13846459101E+02 -0.17588344355E+02  0.65055214915E+02  0.68805924704E+02  0.10000000000E+01 0.  0.
<mgrwt>
<rscale>  0 0.12500108E+03</rscale>
<asrwt>0</asrwt>
<pdfrwt beam="1">  1        4 0.10651017E-01 0.12500108E+03</pdfrwt>
<pdfrwt beam="2">  1       -4 0.86806002E-02 0.12500108E+03</pdfrwt>
<totfact> 0.10438269E+04</totfact>
</mgrwt>
</event>
<event>
 5    1  0.3217852E-002  0.1249996E+03  0.7818608E-02  0.1235070E+00
          4   -1    0    0  501    0  0.00000000000E+00  0.00000000000E+00  0.17866355585E+03  0.17866806958E+03  0.12700000000E+01 0. -1.
         -4   -1    0    0    0  501 -0.00000000000E+00 -0.00000000000E+00 -0.21840342625E+02  0.21877236251E+02  0.12700000000E+01 0. -1.
         25    2    1    2    0    0  0.00000000000E+00  0.00000000000E+00  0.15682321322E+03  0.20054530584E+03  0.12499959794E+03 0.  0.
    9000005    1    3    3    0    0  0.47231866830E+02  0.23844841275E+02  0.25060674077E+02  0.58553079209E+02  0.10000000000E+01 0.  0.
    9000005    1    3    3    0    0 -0.47231866830E+02 -0.23844841275E+02  0.13176253915E+03  0.14199222663E+03  0.10000000000E+01 0.  0.
<mgrwt>
<rscale>  0 0.12499960E+03</rscale>
<asrwt>0</asrwt>
<pdfrwt beam="1">  1        4 0.27489886E-01 0.12499960E+03</pdfrwt>
<pdfrwt beam="2">  1       -4 0.33632379E-02 0.12499960E+03</pdfrwt>
<totfact> 0.90044427E+03</totfact>
</mgrwt>
</event>
<event>
 5    1  0.3217852E-002  0.1250018E+03  0.7818608E-02  0.1235067E+00
         -4   -1    0    0    0  501 -0.00000000000E+00  0.00000000000E+00  0.73411333974E+02  0.73422318513E+02  0.12700000000E+01 0.  1.
          4   -1    0    0  501    0  0.00000000000E+00 -0.00000000000E+00 -0.53189399954E+02  0.53204559649E+02  0.12700000000E+01 0.  1.
         25    2    1    2    0    0  0.00000000000E+00  0.00000000000E+00  0.20221934020E+02  0.12662687816E+03  0.12500175862E+03 0.  0.
    9000005    1    3    3    0    0 -0.29615252970E+02  0.33147788845E+02 -0.34386420037E+02  0.56207339349E+02  0.10000000000E+01 0.  0.
    9000005    1    3    3    0    0  0.29615252970E+02 -0.33147788845E+02  0.54608354057E+02  0.70419538813E+02  0.10000000000E+01 0.  0.
<mgrwt>
<rscale>  0 0.12500176E+03</rscale>
<asrwt>0</asrwt>
<pdfrwt beam="2">  1        4 0.81849957E-02 0.12500176E+03</pdfrwt>
<pdfrwt beam="1">  1       -4 0.11296062E-01 0.12500176E+03</pdfrwt>
<totfact> 0.10416849E+04</totfact>
</mgrwt>
</event>
<event>
 5    1  0.3217852E-002  0.1249992E+03  0.7818608E-02  0.1235071E+00
         -4   -1    0    0    0  501 -0.00000000000E+00  0.00000000000E+00  0.11109529131E+03  0.11110255015E+03  0.12700000000E+01 0. -1.
          4   -1    0    0  501    0  0.00000000000E+00 -0.00000000000E+00 -0.35140907445E+02  0.35163848993E+02  0.12700000000E+01 0. -1.
         25    2    1    2    0    0  0.00000000000E+00  0.00000000000E+00  0.75954383864E+02  0.14626639915E+03  0.12499916436E+03 0.  0.
    9000005    1    3    3    0    0 -0.48220663292E+02  0.36050456409E+02  0.57568897552E+02  0.83306936932E+02  0.10000000000E+01 0.  0.
    9000005    1    3    3    0    0  0.48220663292E+02 -0.36050456409E+02  0.18385486312E+02  0.62959462216E+02  0.10000000000E+01 0.  0.
<mgrwt>
<rscale>  0 0.12499916E+03</rscale>
<asrwt>0</asrwt>
<pdfrwt beam="2">  1        4 0.54086166E-02 0.12499916E+03</pdfrwt>
<pdfrwt beam="1">  1       -4 0.17093906E-01 0.12499916E+03</pdfrwt>
<totfact> 0.10005509E+04</totfact>
</mgrwt>
</event>
<event>
 5    1  0.3217852E-002  0.1249977E+03  0.7818608E-02  0.1235073E+00
          4   -1    0    0  501    0  0.00000000000E+00  0.00000000000E+00  0.18317823837E+02  0.18361796484E+02  0.12700000000E+01 0. -1.
         -4   -1    0    0    0  501 -0.00000000000E+00 -0.00000000000E+00 -0.21293929059E+03  0.21294307779E+03  0.12700000000E+01 0. -1.
         25    2    1    2    0    0  0.00000000000E+00  0.00000000000E+00 -0.19462146676E+03  0.23130487427E+03  0.12499771814E+03 0.  0.
    9000005    1    3    3    0    0  0.15866490112E+02 -0.45750757998E+02 -0.17040393994E+03  0.17715354954E+03  0.10000000000E+01 0.  0.
    9000005    1    3    3    0    0 -0.15866490112E+02  0.45750757998E+02 -0.24217526817E+02  0.54151324739E+02  0.10000000000E+01 0.  0.
<mgrwt>
<rscale>  0 0.12499772E+03</rscale>
<asrwt>0</asrwt>
<pdfrwt beam="1">  1        4 0.28218007E-02 0.12499772E+03</pdfrwt>
<pdfrwt beam="2">  1       -4 0.32763563E-01 0.12499772E+03</pdfrwt>
<totfact> 0.85113968E+03</totfact>
</mgrwt>
</event>
<event>
 5    1  0.3217852E-002  0.1250031E+03  0.7818608E-02  0.1235064E+00
         -4   -1    0    0    0  501 -0.00000000000E+00  0.00000000000E+00  0.20776876176E+03  0.20777264320E+03  0.12700000000E+01 0. -1.
          4   -1    0    0  501    0  0.00000000000E+00 -0.00000000000E+00 -0.18776367789E+02  0.18819269044E+02  0.12700000000E+01 0. -1.
         25    2    1    2    0    0  0.00000000000E+00  0.00000000000E+00  0.18899239397E+03  0.22659191225E+03  0.12500307883E+03 0.  0.
    9000005    1    3    3    0    0  0.20423998904E+02 -0.49800187524E+00 -0.12560869191E+02  0.24003399175E+02  0.10000000000E+01 0.  0.
    9000005    1    3    3    0    0 -0.20423998904E+02  0.49800187524E+00  0.20155326316E+03  0.20258851307E+03  0.10000000000E+01 0.  0.
<mgrwt>
<rscale>  0 0.12500308E+03</rscale>
<asrwt>0</asrwt>
<pdfrwt beam="2">  1        4 0.28922708E-02 0.12500308E+03</pdfrwt>
<pdfrwt beam="1">  1       -4 0.31968022E-01 0.12500308E+03</pdfrwt>
<totfact> 0.85829777E+03</totfact>
</mgrwt>
</event>
<event>
 5    1  0.3217852E-002  0.1250035E+03  0.7818608E-02  0.1235064E+00
          4   -1    0    0  501    0  0.00000000000E+00  0.00000000000E+00  0.41064789731E+02  0.41084423516E+02  0.12700000000E+01 0.  1.
         -4   -1    0    0    0  501 -0.00000000000E+00 -0.00000000000E+00 -0.95082853489E+02  0.95091334661E+02  0.12700000000E+01 0.  1.
         25    2    1    2    0    0  0.00000000000E+00  0.00000000000E+00 -0.54018063757E+02  0.13617575818E+03  0.12500354356E+03 0.  0.
    9000005    1    3    3    0    0  0.58842114114E+02  0.10207735799E+02 -0.47062982531E+02  0.76042860206E+02  0.10000000000E+01 0.  0.
    9000005    1    3    3    0    0 -0.58842114114E+02 -0.10207735799E+02 -0.69550812264E+01  0.60132897971E+02  0.10000000000E+01 0.  0.
<mgrwt>
<rscale>  0 0.12500354E+03</rscale>
<asrwt>0</asrwt>
<pdfrwt beam="1">  1        4 0.63198227E-02 0.12500354E+03</pdfrwt>
<pdfrwt beam="2">  1       -4 0.14630294E-01 0.12500354E+03</pdfrwt>
<totfact> 0.10212532E+04</totfact>
</mgrwt>
</event>
<event>
 5    1  0.3217852E-002  0.1249995E+03  0.7818608E-02  0.1235070E+00
          4   -1    0    0  501    0  0.00000000000E+00  0.00000000000E+00  0.27895196564E+03  0.27895485662E+03  0.12700000000E+01 0.  1.
         -4   -1    0    0    0  501 -0.00000000000E+00 -0.00000000000E+00 -0.13971425117E+02  0.14029027757E+02  0.12700000000E+01 0.  1.
         25    2    1    2    0    0  0.00000000000E+00  0.00000000000E+00  0.26498054052E+03  0.29298388438E+03  0.12499947860E+03 0.  0.
    9000005    1    3    3    0    0 -0.50826112700E+02 -0.35787175329E+02  0.14753531310E+03  0.16009898270E+03  0.10000000000E+01 0.  0.
    9000005    1    3    3    0    0  0.50826112700E+02  0.35787175329E+02  0.11744522742E+03  0.13288490167E+03  0.10000000000E+01 0.  0.
<mgrwt>
<rscale>  0 0.12499948E+03</rscale>
<asrwt>0</asrwt>
<pdfrwt beam="1">  1        4 0.42920337E-01 0.12499948E+03</pdfrwt>
<pdfrwt beam="2">  1       -4 0.21541035E-02 0.12499948E+03</pdfrwt>
<totfact> 0.76488327E+03</totfact>
</mgrwt>
</event>
<event>
 5    1  0.3217852E-002  0.1249992E+03  0.7818608E-02  0.1235071E+00
          4   -1    0    0  501    0  0.00000000000E+00  0.00000000000E+00  0.15814240295E+03  0.15814750239E+03  0.12700000000E+01 0. -1.
         -4   -1    0    0    0  501 -0.00000000000E+00 -0.00000000000E+00 -0.24678683066E+02  0.24711339460E+02  0.12700000000E+01 0. -1.
         25    2    1    2    0    0  0.00000000000E+00  0.00000000000E+00  0.13346371988E+03  0.18285884185E+03  0.12499916606E+03 0.  0.
    9000005    1    3    3    0    0  0.36464128238E+02  0.48074290440E+02  0.42943613487E+02  0.74067023625E+02  0.10000000000E+01 0.  0.
    9000005    1    3    3    0    0 -0.36464128238E+02 -0.48074290440E+02  0.90520106398E+02  0.10879181822E+03  0.10000000000E+01 0.  0.
<mgrwt>
<rscale>  0 0.12499917E+03</rscale>
<asrwt>0</asrwt>
<pdfrwt beam="1">  1        4 0.24332504E-01 0.12499917E+03</pdfrwt>
<pdfrwt beam="2">  1       -4 0.37996249E-02 0.12499917E+03</pdfrwt>
<totfact> 0.93106660E+03</totfact>
</mgrwt>
</event>
<event>
 5    1  0.3217852E-002  0.1250000E+03  0.7818608E-02  0.1235069E+00
          4   -1    0    0  501    0  0.00000000000E+00  0.00000000000E+00  0.79507674743E+02  0.79517817142E+02  0.12700000000E+01 0.  1.
         -4   -1    0    0    0  501 -0.00000000000E+00 -0.00000000000E+00 -0.49108984177E+02  0.49125403071E+02  0.12700000000E+01 0.  1.
         25    2    1    2    0    0  0.00000000000E+00  0.00000000000E+00  0.30398690566E+02  0.12864322021E+03  0.12499999087E+03 0.  0.
    9000005    1    3    3    0    0 -0.23642102886E+02 -0.39471445401E+02 -0.28321544445E+02  0.54037523174E+02  0.10000000000E+01 0.  0.
    9000005    1    3    3    0    0  0.23642102886E+02  0.39471445401E+02  0.58720235011E+02  0.74605697039E+02  0.10000000000E+01 0.  0.
<mgrwt>
<rscale>  0 0.12499999E+03</rscale>
<asrwt>0</asrwt>
<pdfrwt beam="1">  1        4 0.12233993E-01 0.12499999E+03</pdfrwt>
<pdfrwt beam="2">  1       -4 0.75572716E-02 0.12499999E+03</pdfrwt>
<totfact> 0.10373622E+04</totfact>
</mgrwt>
</event>
<event>
 5    1  0.3217852E-002  0.1250017E+03  0.7818608E-02  0.1235067E+00
         -4   -1    0    0    0  501 -0.00000000000E+00  0.00000000000E+00  0.54802281028E+02  0.54816994682E+02  0.12700000000E+01 0. -1.
          4   -1    0    0  501    0  0.00000000000E+00 -0.00000000000E+00 -0.71250960521E+02  0.71262278066E+02  0.12700000000E+01 0. -1.
         25    2    1    2    0    0  0.00000000000E+00  0.00000000000E+00 -0.16448679492E+02  0.12607927275E+03  0.12500169583E+03 0.  0.
    9000005    1    3    3    0    0 -0.15487600514E+02 -0.23149591061E+02  0.48200622960E+02  0.55678266763E+02  0.10000000000E+01 0.  0.
    9000005    1    3    3    0    0  0.15487600514E+02  0.23149591061E+02 -0.64649302452E+02  0.70401005984E+02  0.10000000000E+01 0.  0.
<mgrwt>
<rscale>  0 0.12500170E+03</rscale>
<asrwt>0</asrwt>
<pdfrwt beam="2">  1        4 0.10963689E-01 0.12500170E+03</pdfrwt>
<pdfrwt beam="1">  1       -4 0.84331225E-02 0.12500170E+03</pdfrwt>
<totfact> 0.10428821E+04</totfact>
</mgrwt>
</event>
<event>
 5    1  0.3217852E-002  0.1250002E+03  0.7818608E-02  0.1235069E+00
         -4   -1    0    0    0  501 -0.00000000000E+00  0.00000000000E+00  0.55344270087E+03  0.55344415802E+03  0.12700000000E+01 0. -1.
          4   -1    0    0  501    0  0.00000000000E+00 -0.00000000000E+00 -0.69995085953E+01  0.71137908724E+01  0.12700000000E+01 0. -1.
         25    2    1    2    0    0  0.00000000000E+00  0.00000000000E+00  0.54644319227E+03  0.56055794889E+03  0.12500020673E+03 0.  0.
    9000005    1    3    3    0    0  0.11291189443E+02  0.60906302033E+02  0.31025417287E+03  0.31637907701E+03  0.10000000000E+01 0.  0.
    9000005    1    3    3    0    0 -0.11291189443E+02 -0.60906302033E+02  0.23618901940E+03  0.24417887188E+03  0.10000000000E+01 0.  0.
<mgrwt>
<rscale>  0 0.12500021E+03</rscale>
<asrwt>0</asrwt>
<pdfrwt beam="2">  1        4 0.10857507E-02 0.12500021E+03</pdfrwt>
<pdfrwt beam="1">  1       -4 0.85153922E-01 0.12500021E+03</pdfrwt>
<totfact> 0.51455642E+03</totfact>
</mgrwt>
</event>
<event>
 5    1  0.3217852E-002  0.1250104E+03  0.7818608E-02  0.1235053E+00
          4   -1    0    0  501    0  0.00000000000E+00  0.00000000000E+00  0.61508361759E+02  0.61521471587E+02  0.12700000000E+01 0. -1.
         -4   -1    0    0    0  501 -0.00000000000E+00 -0.00000000000E+00 -0.63491959324E+02  0.63504659662E+02  0.12700000000E+01 0. -1.
         25    2    1    2    0    0  0.00000000000E+00  0.00000000000E+00 -0.19835975648E+01  0.12502613125E+03  0.12501039491E+03 0.  0.
    9000005    1    3    3    0    0  0.17353603956E+02  0.27731905320E+02 -0.54249732712E+02  0.63358027450E+02  0.10000000000E+01 0.  0.
    9000005    1    3    3    0    0 -0.17353603956E+02 -0.27731905320E+02  0.52266135147E+02  0.61668103799E+02  0.10000000000E+01 0.  0.
<mgrwt>
<rscale>  0 0.12501039E+03</rscale>
<asrwt>0</asrwt>
<pdfrwt beam="1">  1        4 0.94648103E-02 0.12501039E+03</pdfrwt>
<pdfrwt beam="2">  1       -4 0.97699791E-02 0.12501039E+03</pdfrwt>
<totfact> 0.10449840E+04</totfact>
</mgrwt>
</event>
<event>
 5    1  0.3217852E-002  0.1250001E+03  0.7818608E-02  0.1235069E+00
          4   -1    0    0  501    0  0.00000000000E+00  0.00000000000E+00  0.10839431218E+04  0.10839438658E+04  0.12700000000E+01 0. -1.
         -4   -1    0    0    0  501 -0.00000000000E+00 -0.00000000000E+00 -0.34910891262E+01  0.37149163231E+01  0.12700000000E+01 0. -1.
         25    2    1    2    0    0  0.00000000000E+00  0.00000000000E+00  0.10804520327E+04  0.10876587821E+04  0.12500012565E+03 0.  0.
    9000005    1    3    3    0    0 -0.34632566009E+02  0.33246402007E+02  0.19211900467E+03  0.19802891160E+03  0.10000000000E+01 0.  0.
    9000005    1    3    3    0    0  0.34632566009E+02 -0.33246402007E+02  0.88833302798E+03  0.88962987050E+03  0.10000000000E+01 0.  0.
<mgrwt>
<rscale>  0 0.12500013E+03</rscale>
<asrwt>0</asrwt>
<pdfrwt beam="1">  1        4 0.16677756E+00 0.12500013E+03</pdfrwt>
<pdfrwt beam="2">  1       -4 0.55436598E-03 0.12500013E+03</pdfrwt>
<totfact> 0.27847374E+03</totfact>
</mgrwt>
</event>
<event>
 5    1  0.3217852E-002  0.1249983E+03  0.7818608E-02  0.1235072E+00
         -4   -1    0    0    0  501 -0.00000000000E+00  0.00000000000E+00  0.16716472186E+02  0.16764645607E+02  0.12700000000E+01 0.  1.
          4   -1    0    0  501    0  0.00000000000E+00 -0.00000000000E+00 -0.23328425727E+03  0.23328771418E+03  0.12700000000E+01 0.  1.
         25    2    1    2    0    0  0.00000000000E+00  0.00000000000E+00 -0.21656778508E+03  0.25005235979E+03  0.12499830839E+03 0.  0.
    9000005    1    3    3    0    0  0.41092882144E+02 -0.21984670938E+02 -0.19156574075E+03  0.19715573475E+03  0.10000000000E+01 0.  0.
    9000005    1    3    3    0    0 -0.41092882144E+02  0.21984670938E+02 -0.25002044336E+02  0.52896625036E+02  0.10000000000E+01 0.  0.
<mgrwt>
<rscale>  0 0.12499831E+03</rscale>
<asrwt>0</asrwt>
<pdfrwt beam="2">  1        4 0.35893855E-01 0.12499831E+03</pdfrwt>
<pdfrwt beam="1">  1       -4 0.25757367E-02 0.12499831E+03</pdfrwt>
<totfact> 0.82325764E+03</totfact>
</mgrwt>
</event>
<event>
 5    1  0.3217852E-002  0.1250016E+03  0.7818608E-02  0.1235067E+00
          4   -1    0    0  501    0  0.00000000000E+00  0.00000000000E+00  0.37611431538E+01  0.39697730191E+01  0.12700000000E+01 0. -1.
         -4   -1    0    0    0  501 -0.00000000000E+00 -0.00000000000E+00 -0.10103697197E+04  0.10103705178E+04  0.12700000000E+01 0. -1.
         25    2    1    2    0    0  0.00000000000E+00  0.00000000000E+00 -0.10066085765E+04  0.10143402909E+04  0.12500159739E+03 0.  0.
    9000005    1    3    3    0    0 -0.32849252338E+01  0.49026492790E+01 -0.10081433460E+04  0.10081611145E+04  0.10000000000E+01 0.  0.
    9000005    1    3    3    0    0  0.32849252338E+01 -0.49026492790E+01  0.15347694457E+01  0.61791764011E+01  0.10000000000E+01 0.  0.
<mgrwt>
<rscale>  0 0.12500160E+03</rscale>
<asrwt>0</asrwt>
<pdfrwt beam="1">  1        4 0.59474806E-03 0.12500160E+03</pdfrwt>
<pdfrwt beam="2">  1       -4 0.15545739E+00 0.12500160E+03</pdfrwt>
<totfact> 0.30133803E+03</totfact>
</mgrwt>
</event>
<event>
 5    1  0.3217852E-002  0.1250025E+03  0.7818608E-02  0.1235065E+00
          4   -1    0    0  501    0  0.00000000000E+00  0.00000000000E+00  0.20266756348E+02  0.20306509126E+02  0.12700000000E+01 0.  1.
         -4   -1    0    0    0  501 -0.00000000000E+00 -0.00000000000E+00 -0.19251871424E+03  0.19252290314E+03  0.12700000000E+01 0.  1.
         25    2    1    2    0    0  0.00000000000E+00  0.00000000000E+00 -0.17225195789E+03  0.21282941226E+03  0.12500248688E+03 0.  0.
    9000005    1    3    3    0    0  0.44900003114E+02  0.42910719083E+02 -0.97929973519E+02  0.11596818445E+03  0.10000000000E+01 0.  0.
    9000005    1    3    3    0    0 -0.44900003114E+02 -0.42910719083E+02 -0.74321984372E+02  0.96861227810E+02  0.10000000000E+01 0.  0.
<mgrwt>
<rscale>  0 0.12500249E+03</rscale>
<asrwt>0</asrwt>
<pdfrwt beam="1">  1        4 0.31213428E-02 0.12500249E+03</pdfrwt>
<pdfrwt beam="2">  1       -4 0.29621643E-01 0.12500249E+03</pdfrwt>
<totfact> 0.88010984E+03</totfact>
</mgrwt>
</event>
<event>
 5    1  0.3217852E-002  0.1250017E+03  0.7818608E-02  0.1235067E+00
          4   -1    0    0  501    0  0.00000000000E+00  0.00000000000E+00  0.42624765133E+01  0.44476517430E+01  0.12700000000E+01 0.  1.
         -4   -1    0    0    0  501 -0.00000000000E+00 -0.00000000000E+00 -0.89678329899E+03  0.89678419826E+03  0.12700000000E+01 0.  1.
         25    2    1    2    0    0  0.00000000000E+00  0.00000000000E+00 -0.89252082248E+03  0.90123185000E+03  0.12500171560E+03 0.  0.
    9000005    1    3    3    0    0  0.26146548135E+02 -0.24230978640E+02 -0.76197266902E+02  0.84129696235E+02  0.10000000000E+01 0.  0.
    9000005    1    3    3    0    0 -0.26146548135E+02  0.24230978640E+02 -0.81632355558E+03  0.81710215377E+03  0.10000000000E+01 0.  0.
<mgrwt>
<rscale>  0 0.12500172E+03</rscale>
<asrwt>0</asrwt>
<pdfrwt beam="1">  1        4 0.67007975E-03 0.12500172E+03</pdfrwt>
<pdfrwt beam="2">  1       -4 0.13798083E+00 0.12500172E+03</pdfrwt>
<totfact> 0.34111549E+03</totfact>
</mgrwt>
</event>
<event>
 5    1  0.3217852E-002  0.1249957E+03  0.7818608E-02  0.1235076E+00
         -4   -1    0    0    0  501 -0.00000000000E+00  0.00000000000E+00  0.45353754953E+02  0.45371532797E+02  0.12700000000E+01 0.  1.
          4   -1    0    0  501    0  0.00000000000E+00 -0.00000000000E+00 -0.86083262669E+02  0.86092630414E+02  0.12700000000E+01 0.  1.
         25    2    1    2    0    0  0.00000000000E+00  0.00000000000E+00 -0.40729507716E+02  0.13146416321E+03  0.12499573357E+03 0.  0.
    9000005    1    3    3    0    0  0.48780158868E+02  0.30555439146E+02  0.52220496219E+01  0.57804918155E+02  0.10000000000E+01 0.  0.
    9000005    1    3    3    0    0 -0.48780158868E+02 -0.30555439146E+02 -0.45951557337E+02  0.73659245057E+02  0.10000000000E+01 0.  0.
<mgrwt>
<rscale>  0 0.12499573E+03</rscale>
<asrwt>0</asrwt>
<pdfrwt beam="2">  1        4 0.13245667E-01 0.12499573E+03</pdfrwt>
<pdfrwt beam="1">  1       -4 0.69795889E-02 0.12499573E+03</pdfrwt>
<totfact> 0.10314141E+04</totfact>
</mgrwt>
</event>
<event>
 5    1  0.3217852E-002  0.1249997E+03  0.7818608E-02  0.1235070E+00
          4   -1    0    0  501    0  0.00000000000E+00  0.00000000000E+00  0.23062932939E+02  0.23097873836E+02  0.12700000000E+01 0. -1.
         -4   -1    0    0    0  501 -0.00000000000E+00 -0.00000000000E+00 -0.16920716230E+03  0.16921192828E+03  0.12700000000E+01 0. -1.
         25    2    1    2    0    0  0.00000000000E+00  0.00000000000E+00 -0.14614422936E+03  0.19230980212E+03  0.12499969686E+03 0.  0.
    9000005    1    3    3    0    0 -0.54425386518E+02  0.54202699158E+01 -0.26566951478E+02  0.60813690354E+02  0.10000000000E+01 0.  0.
    9000005    1    3    3    0    0  0.54425386518E+02 -0.54202699158E+01 -0.11957727788E+03  0.13149611176E+03  0.10000000000E+01 0.  0.
<mgrwt>
<rscale>  0 0.12499970E+03</rscale>
<asrwt>0</asrwt>
<pdfrwt beam="1">  1        4 0.35511980E-02 0.12499970E+03</pdfrwt>
<pdfrwt beam="2">  1       -4 0.26034925E-01 0.12499970E+03</pdfrwt>
<totfact> 0.91447584E+03</totfact>
</mgrwt>
</event>
<event>
 5    1  0.3217852E-002  0.1250026E+03  0.7818608E-02  0.1235065E+00
         -4   -1    0    0    0  501 -0.00000000000E+00  0.00000000000E+00  0.47858630605E+03  0.47858799111E+03  0.12700000000E+01 0. -1.
          4   -1    0    0  501    0  0.00000000000E+00 -0.00000000000E+00 -0.81112926838E+01  0.82101138240E+01  0.12700000000E+01 0. -1.
         25    2    1    2    0    0  0.00000000000E+00  0.00000000000E+00  0.47047501337E+03  0.48679810494E+03  0.12500262705E+03 0.  0.
    9000005    1    3    3    0    0  0.32868941141E+02  0.48505648318E+01  0.29114476331E+02  0.44187645366E+02  0.10000000000E+01 0.  0.
    9000005    1    3    3    0    0 -0.32868941141E+02 -0.48505648318E+01  0.44136053704E+03  0.44261045957E+03  0.10000000000E+01 0.  0.
<mgrwt>
<rscale>  0 0.12500263E+03</rscale>
<asrwt>0</asrwt>
<pdfrwt beam="2">  1        4 0.12556226E-02 0.12500263E+03</pdfrwt>
<pdfrwt beam="1">  1       -4 0.73636386E-01 0.12500263E+03</pdfrwt>
<totfact> 0.56900133E+03</totfact>
</mgrwt>
</event>
<event>
 5    1  0.3217852E-002  0.1249987E+03  0.7818608E-02  0.1235071E+00
         -4   -1    0    0    0  501 -0.00000000000E+00  0.00000000000E+00  0.54362352311E+02  0.54377185002E+02  0.12700000000E+01 0. -1.
          4   -1    0    0  501    0  0.00000000000E+00 -0.00000000000E+00 -0.71824068674E+02  0.71835295927E+02  0.12700000000E+01 0. -1.
         25    2    1    2    0    0  0.00000000000E+00  0.00000000000E+00 -0.17461716363E+02  0.12621248093E+03  0.12499871521E+03 0.  0.
    9000005    1    3    3    0    0  0.13526742181E+02  0.52347316729E+02 -0.40371306690E+02  0.67483751574E+02  0.10000000000E+01 0.  0.
    9000005    1    3    3    0    0 -0.13526742181E+02 -0.52347316729E+02  0.22909590326E+02  0.58728729355E+02  0.10000000000E+01 0.  0.
<mgrwt>
<rscale>  0 0.12499872E+03</rscale>
<asrwt>0</asrwt>
<pdfrwt beam="2">  1        4 0.11051861E-01 0.12499872E+03</pdfrwt>
<pdfrwt beam="1">  1       -4 0.83654434E-02 0.12499872E+03</pdfrwt>
<totfact> 0.10426608E+04</totfact>
</mgrwt>
</event>
<event>
 5    1  0.3217852E-002  0.1250090E+03  0.7818608E-02  0.1235055E+00
          4   -1    0    0  501    0  0.00000000000E+00  0.00000000000E+00  0.25821890838E+03  0.25822203149E+03  0.12700000000E+01 0.  1.
         -4   -1    0    0    0  501 -0.00000000000E+00 -0.00000000000E+00 -0.15099986777E+02  0.15153299993E+02  0.12700000000E+01 0.  1.
         25    2    1    2    0    0  0.00000000000E+00  0.00000000000E+00  0.24311892161E+03  0.27337533148E+03  0.12500904695E+03 0.  0.
    9000005    1    3    3    0    0  0.21367661408E+02 -0.27415054590E+02  0.23514183540E+03  0.23769906379E+03  0.10000000000E+01 0.  0.
    9000005    1    3    3    0    0 -0.21367661408E+02  0.27415054590E+02  0.79770862097E+01  0.35676267695E+02  0.10000000000E+01 0.  0.
<mgrwt>
<rscale>  0 0.12500905E+03</rscale>
<asrwt>0</asrwt>
<pdfrwt beam="1">  1        4 0.39730327E-01 0.12500905E+03</pdfrwt>
<pdfrwt beam="2">  1       -4 0.23274161E-02 0.12500905E+03</pdfrwt>
<totfact> 0.79048861E+03</totfact>
</mgrwt>
</event>
<event>
 5    1  0.3217852E-002  0.1250003E+03  0.7818608E-02  0.1235069E+00
         -4   -1    0    0    0  501 -0.00000000000E+00  0.00000000000E+00  0.78166992371E+01  0.79191973687E+01  0.12700000000E+01 0.  1.
          4   -1    0    0  501    0  0.00000000000E+00 -0.00000000000E+00 -0.49637501722E+03  0.49637664190E+03  0.12700000000E+01 0.  1.
         25    2    1    2    0    0  0.00000000000E+00  0.00000000000E+00 -0.48855831799E+03  0.50429583927E+03  0.12500025372E+03 0.  0.
    9000005    1    3    3    0    0  0.34400826122E+02  0.49009364882E+02 -0.17211812129E+03  0.18223880585E+03  0.10000000000E+01 0.  0.
    9000005    1    3    3    0    0 -0.34400826122E+02 -0.49009364882E+02 -0.31644019670E+03  0.32205703342E+03  0.10000000000E+01 0.  0.
<mgrwt>
<rscale>  0 0.12500025E+03</rscale>
<asrwt>0</asrwt>
<pdfrwt beam="2">  1        4 0.76373372E-01 0.12500025E+03</pdfrwt>
<pdfrwt beam="1">  1       -4 0.12105790E-02 0.12500025E+03</pdfrwt>
<totfact> 0.55532297E+03</totfact>
</mgrwt>
</event>
<event>
 5    1  0.3217852E-002  0.1250003E+03  0.7818608E-02  0.1235069E+00
          4   -1    0    0  501    0  0.00000000000E+00  0.00000000000E+00  0.36153357390E+01  0.38319123824E+01  0.12700000000E+01 0.  1.
         -4   -1    0    0    0  501 -0.00000000000E+00 -0.00000000000E+00 -0.10488328984E+04  0.10488336673E+04  0.12700000000E+01 0.  1.
         25    2    1    2    0    0  0.00000000000E+00  0.00000000000E+00 -0.10452175627E+04  0.10526655797E+04  0.12500027743E+03 0.  0.
    9000005    1    3    3    0    0 -0.21070516014E+02 -0.55636790672E+02 -0.68368444060E+03  0.68626877638E+03  0.10000000000E+01 0.  0.
    9000005    1    3    3    0    0  0.21070516014E+02  0.55636790672E+02 -0.36153312206E+03  0.36639680330E+03  0.10000000000E+01 0.  0.
<mgrwt>
<rscale>  0 0.12500028E+03</rscale>
<asrwt>0</asrwt>
<pdfrwt beam="1">  1        4 0.57292522E-03 0.12500028E+03</pdfrwt>
<pdfrwt beam="2">  1       -4 0.16137539E+00 0.12500028E+03</pdfrwt>
<totfact> 0.28911555E+03</totfact>
</mgrwt>
</event>
<event>
 5    1  0.3217852E-002  0.1249968E+03  0.7818608E-02  0.1235074E+00
          4   -1    0    0  501    0  0.00000000000E+00  0.00000000000E+00  0.13344510658E+03  0.13345114975E+03  0.12700000000E+01 0.  1.
         -4   -1    0    0    0  501 -0.00000000000E+00 -0.00000000000E+00 -0.29250356377E+02  0.29277914000E+02  0.12700000000E+01 0.  1.
         25    2    1    2    0    0  0.00000000000E+00  0.00000000000E+00  0.10419475020E+03  0.16272906375E+03  0.12499680884E+03 0.  0.
    9000005    1    3    3    0    0 -0.13242789315E+02  0.41313808839E+02  0.11065020046E+03  0.11885566512E+03  0.10000000000E+01 0.  0.
    9000005    1    3    3    0    0  0.13242789315E+02 -0.41313808839E+02 -0.64554502545E+01  0.43873398633E+02  0.10000000000E+01 0.  0.
<mgrwt>
<rscale>  0 0.12499681E+03</rscale>
<asrwt>0</asrwt>
<pdfrwt beam="1">  1        4 0.20532601E-01 0.12499681E+03</pdfrwt>
<pdfrwt beam="2">  1       -4 0.45026394E-02 0.12499681E+03</pdfrwt>
<totfact> 0.96826151E+03</totfact>
</mgrwt>
</event>
<event>
 4    1  0.3217852E-002  0.1251687E+03  0.7818608E-02  0.1234806E+00
          4   -1    0    0  501    0  0.00000000000E+00  0.00000000000E+00  0.55566685426E+02  0.55581196723E+02  0.12700000000E+01 0.  1.
         -4   -1    0    0    0  501 -0.00000000000E+00 -0.00000000000E+00 -0.70458857757E+02  0.70470302514E+02  0.12700000000E+01 0.  1.
    9000005    1    1    2    0    0  0.48845565331E+02 -0.23652900707E+02 -0.38817875486E+02  0.66732124360E+02  0.10000000000E+01 0.  0.
    9000005    1    1    2    0    0 -0.48845565331E+02  0.23652900707E+02  0.23925703154E+02  0.59319374877E+02  0.10000000000E+01 0.  0.
<mgrwt>
<rscale>  0 0.12516870E+03</rscale>
<asrwt>0</asrwt>
<pdfrwt beam="1">  1        4 0.85507175E-02 0.12516870E+03</pdfrwt>
<pdfrwt beam="2">  1       -4 0.10841821E-01 0.12516870E+03</pdfrwt>
<totfact> 0.10390223E+04</totfact>
</mgrwt>
</event>
<event>
 5    1  0.3217852E-002  0.1249998E+03  0.7818608E-02  0.1235070E+00
         -4   -1    0    0    0  501 -0.00000000000E+00  0.00000000000E+00  0.88363990224E+03  0.88364081489E+03  0.12700000000E+01 0.  1.
          4   -1    0    0  501    0  0.00000000000E+00 -0.00000000000E+00 -0.43284721134E+01  0.45109390193E+01  0.12700000000E+01 0.  1.
         25    2    1    2    0    0  0.00000000000E+00  0.00000000000E+00  0.87931143013E+03  0.88815175391E+03  0.12499978725E+03 0.  0.
    9000005    1    3    3    0    0 -0.42812353727E+02 -0.64655079388E+01  0.75982766467E+03  0.76106095710E+03  0.10000000000E+01 0.  0.
    9000005    1    3    3    0    0  0.42812353727E+02  0.64655079388E+01  0.11948376546E+03  0.12709079680E+03  0.10000000000E+01 0.  0.
<mgrwt>
<rscale>  0 0.12499979E+03</rscale>
<asrwt>0</asrwt>
<pdfrwt beam="2">  1        4 0.68002587E-03 0.12499979E+03</pdfrwt>
<pdfrwt beam="1">  1       -4 0.13595851E+00 0.12499979E+03</pdfrwt>
<totfact> 0.34615080E+03</totfact>
</mgrwt>
</event>
<event>
 5    1  0.3217852E-002  0.1250017E+03  0.7818608E-02  0.1235067E+00
         -4   -1    0    0    0  501 -0.00000000000E+00  0.00000000000E+00  0.12032771271E+04  0.12032777973E+04  0.12700000000E+01 0. -1.
          4   -1    0    0  501    0  0.00000000000E+00 -0.00000000000E+00 -0.31215280786E+01  0.33699907337E+01  0.12700000000E+01 0. -1.
         25    2    1    2    0    0  0.00000000000E+00  0.00000000000E+00  0.12001555991E+04  0.12066477881E+04  0.12500169011E+03 0.  0.
    9000005    1    3    3    0    0  0.41430532722E+02 -0.34377490866E+02  0.29374664392E+03  0.29864090767E+03  0.10000000000E+01 0.  0.
    9000005    1    3    3    0    0 -0.41430532722E+02  0.34377490866E+02  0.90640895513E+03  0.90800688040E+03  0.10000000000E+01 0.  0.
<mgrwt>
<rscale>  0 0.12500169E+03</rscale>
<asrwt>0</asrwt>
<pdfrwt beam="2">  1        4 0.49939821E-03 0.12500169E+03</pdfrwt>
<pdfrwt beam="1">  1       -4 0.18513907E+00 0.12500169E+03</pdfrwt>
<totfact> 0.24538440E+03</totfact>
</mgrwt>
</event>
<event>
 5    1  0.3217852E-002  0.1249926E+03  0.7818608E-02  0.1235081E+00
          4   -1    0    0  501    0  0.00000000000E+00  0.00000000000E+00  0.26595021374E+02  0.26625327452E+02  0.12700000000E+01 0.  1.
         -4   -1    0    0    0  501 -0.00000000000E+00 -0.00000000000E+00 -0.14674480485E+03  0.14675030035E+03  0.12700000000E+01 0.  1.
         25    2    1    2    0    0  0.00000000000E+00  0.00000000000E+00 -0.12014978348E+03  0.17337562780E+03  0.12499255115E+03 0.  0.
    9000005    1    3    3    0    0 -0.95893535339E+01  0.35581514419E+02  0.99254275897E+01  0.38177401462E+02  0.10000000000E+01 0.  0.
    9000005    1    3    3    0    0  0.95893535339E+01 -0.35581514419E+02 -0.13007521107E+03  0.13519822633E+03  0.10000000000E+01 0.  0.
<mgrwt>
<rscale>  0 0.12499255E+03</rscale>
<asrwt>0</asrwt>
<pdfrwt beam="1">  1        4 0.40942958E-02 0.12499255E+03</pdfrwt>
<pdfrwt beam="2">  1       -4 0.22578877E-01 0.12499255E+03</pdfrwt>
<totfact> 0.94839035E+03</totfact>
</mgrwt>
</event>
<event>
 5    1  0.3217852E-002  0.1250008E+03  0.7818608E-02  0.1235068E+00
         -4   -1    0    0    0  501 -0.00000000000E+00  0.00000000000E+00  0.74892215904E+02  0.74902983272E+02  0.12700000000E+01 0.  1.
          4   -1    0    0  501    0  0.00000000000E+00 -0.00000000000E+00 -0.52136686011E+02  0.52152151712E+02  0.12700000000E+01 0.  1.
         25    2    1    2    0    0  0.00000000000E+00  0.00000000000E+00  0.22755529893E+02  0.12705513498E+03  0.12500077274E+03 0.  0.
    9000005    1    3    3    0    0 -0.41091574790E+02  0.45859939571E+02  0.22213490013E+02  0.65468242032E+02  0.10000000000E+01 0.  0.
    9000005    1    3    3    0    0  0.41091574790E+02 -0.45859939571E+02  0.54203988023E+00  0.61586892952E+02  0.10000000000E+01 0.  0.
<mgrwt>
<rscale>  0 0.12500077E+03</rscale>
<asrwt>0</asrwt>
<pdfrwt beam="2">  1        4 0.80230466E-02 0.12500077E+03</pdfrwt>
<pdfrwt beam="1">  1       -4 0.11523897E-01 0.12500077E+03</pdfrwt>
<totfact> 0.10407766E+04</totfact>
</mgrwt>
</event>
<event>
 5    1  0.3217852E-002  0.1249958E+03  0.7818608E-02  0.1235076E+00
          4   -1    0    0  501    0  0.00000000000E+00  0.00000000000E+00  0.23256541874E+03  0.23256888634E+03  0.12700000000E+01 0. -1.
         -4   -1    0    0    0  501 -0.00000000000E+00 -0.00000000000E+00 -0.16767616124E+02  0.16815643029E+02  0.12700000000E+01 0. -1.
         25    2    1    2    0    0  0.00000000000E+00  0.00000000000E+00  0.21579780262E+03  0.24938452937E+03  0.12499580743E+03 0.  0.
    9000005    1    3    3    0    0  0.26528237437E+02 -0.18418473791E+02  0.21463440601E+03  0.21705279496E+03  0.10000000000E+01 0.  0.
    9000005    1    3    3    0    0 -0.26528237437E+02  0.18418473791E+02  0.11633966110E+01  0.32331734411E+02  0.10000000000E+01 0.  0.
<mgrwt>
<rscale>  0 0.12499581E+03</rscale>
<asrwt>0</asrwt>
<pdfrwt beam="1">  1        4 0.35783253E-01 0.12499581E+03</pdfrwt>
<pdfrwt beam="2">  1       -4 0.25835946E-02 0.12499581E+03</pdfrwt>
<totfact> 0.82426964E+03</totfact>
</mgrwt>
</event>
<event>
 5    1  0.3217852E-002  0.1249950E+03  0.7818608E-02  0.1235077E+00
         -4   -1    0    0    0  501 -0.00000000000E+00  0.00000000000E+00  0.31523176000E+03  0.31523431826E+03  0.12700000000E+01 0. -1.
          4   -1    0    0  501    0  0.00000000000E+00 -0.00000000000E+00 -0.12355518971E+02  0.12420617901E+02  0.12700000000E+01 0. -1.
         25    2    1    2    0    0  0.00000000000E+00  0.00000000000E+00  0.30287624103E+03  0.32765493616E+03  0.12499495916E+03 0.  0.
    9000005    1    3    3    0    0  0.18467901896E+01 -0.40224575971E+01 -0.11956954804E+02  0.12789040907E+02  0.10000000000E+01 0.  0.
    9000005    1    3    3    0    0 -0.18467901896E+01  0.40224575971E+01  0.31483319583E+03  0.31486589526E+03  0.10000000000E+01 0.  0.
<mgrwt>
<rscale>  0 0.12499496E+03</rscale>
<asrwt>0</asrwt>
<pdfrwt beam="2">  1        4 0.19060535E-02 0.12499496E+03</pdfrwt>
<pdfrwt beam="1">  1       -4 0.48502398E-01 0.12499496E+03</pdfrwt>
<totfact> 0.72262898E+03</totfact>
</mgrwt>
</event>
<event>
 5    1  0.3217852E-002  0.1249988E+03  0.7818608E-02  0.1235071E+00
         -4   -1    0    0    0  501 -0.00000000000E+00  0.00000000000E+00  0.27817338334E+03  0.27817628241E+03  0.12700000000E+01 0.  1.
          4   -1    0    0  501    0  0.00000000000E+00 -0.00000000000E+00 -0.14010544819E+02  0.14067987280E+02  0.12700000000E+01 0.  1.
         25    2    1    2    0    0  0.00000000000E+00  0.00000000000E+00  0.26416283852E+03  0.29224426969E+03  0.12499883165E+03 0.  0.
    9000005    1    3    3    0    0  0.30382608768E+02  0.52683208279E+02  0.16568274903E+03  0.17649474971E+03  0.10000000000E+01 0.  0.
    9000005    1    3    3    0    0 -0.30382608768E+02 -0.52683208279E+02  0.98480089489E+02  0.11574951998E+03  0.10000000000E+01 0.  0.
<mgrwt>
<rscale>  0 0.12499883E+03</rscale>
<asrwt>0</asrwt>
<pdfrwt beam="2">  1        4 0.21601100E-02 0.12499883E+03</pdfrwt>
<pdfrwt beam="1">  1       -4 0.42800549E-01 0.12499883E+03</pdfrwt>
<totfact> 0.76584101E+03</totfact>
</mgrwt>
</event>
<event>
 5    1  0.3217852E-002  0.1250020E+03  0.7818608E-02  0.1235066E+00
         -4   -1    0    0    0  501 -0.00000000000E+00  0.00000000000E+00  0.54604987479E+02  0.54619754279E+02  0.12700000000E+01 0.  1.
          4   -1    0    0  501    0  0.00000000000E+00 -0.00000000000E+00 -0.71508724802E+02  0.71520001557E+02  0.12700000000E+01 0.  1.
         25    2    1    2    0    0  0.00000000000E+00  0.00000000000E+00 -0.16903737323E+02  0.12613975584E+03  0.12500200665E+03 0.  0.
    9000005    1    3    3    0    0  0.50767394880E+02 -0.21190780815E+02 -0.38369617074E+02  0.67079095767E+02  0.10000000000E+01 0.  0.
    9000005    1    3    3    0    0 -0.50767394880E+02  0.21190780815E+02  0.21465879751E+02  0.59060660070E+02  0.10000000000E+01 0.  0.
<mgrwt>
<rscale>  0 0.12500201E+03</rscale>
<asrwt>0</asrwt>
<pdfrwt beam="2">  1        4 0.11003346E-01 0.12500201E+03</pdfrwt>
<pdfrwt beam="1">  1       -4 0.84027707E-02 0.12500201E+03</pdfrwt>
<totfact> 0.10427424E+04</totfact>
</mgrwt>
</event>
<event>
 5    1  0.3217852E-002  0.1249989E+03  0.7818608E-02  0.1235071E+00
          4   -1    0    0  501    0  0.00000000000E+00  0.00000000000E+00  0.49640577180E+03  0.49640739637E+03  0.12700000000E+01 0. -1.
         -4   -1    0    0    0  501 -0.00000000000E+00 -0.00000000000E+00 -0.78160324283E+01  0.79185391910E+01  0.12700000000E+01 0. -1.
         25    2    1    2    0    0  0.00000000000E+00  0.00000000000E+00  0.48858973937E+03  0.50432593556E+03  0.12499886346E+03 0.  0.
    9000005    1    3    3    0    0 -0.26732652174E+02  0.52435938075E+02  0.32902399881E+03  0.33424834194E+03  0.10000000000E+01 0.  0.
    9000005    1    3    3    0    0  0.26732652174E+02 -0.52435938075E+02  0.15956574056E+03  0.17007759362E+03  0.10000000000E+01 0.  0.
<mgrwt>
<rscale>  0 0.12499886E+03</rscale>
<asrwt>0</asrwt>
<pdfrwt beam="1">  1        4 0.76378139E-01 0.12499886E+03</pdfrwt>
<pdfrwt beam="2">  1       -4 0.12104765E-02 0.12499886E+03</pdfrwt>
<totfact> 0.55531664E+03</totfact>
</mgrwt>
</event>
<event>
 5    1  0.3217852E-002  0.1249987E+03  0.7818608E-02  0.1235071E+00
          4   -1    0    0  501    0  0.00000000000E+00  0.00000000000E+00  0.76252025631E+01  0.77302402374E+01  0.12700000000E+01 0. -1.
         -4   -1    0    0    0  501 -0.00000000000E+00 -0.00000000000E+00 -0.50866096982E+03  0.50866255525E+03  0.12700000000E+01 0. -1.
         25    2    1    2    0    0  0.00000000000E+00  0.00000000000E+00 -0.50103576725E+03  0.51639279549E+03  0.12499871665E+03 0.  0.
    9000005    1    3    3    0    0 -0.22780646465E+02  0.57116603925E+02 -0.20453249065E+03  0.21357856640E+03  0.10000000000E+01 0.  0.
    9000005    1    3    3    0    0  0.22780646465E+02 -0.57116603925E+02 -0.29650327661E+03  0.30281422908E+03  0.10000000000E+01 0.  0.
<mgrwt>
<rscale>  0 0.12499872E+03</rscale>
<asrwt>0</asrwt>
<pdfrwt beam="1">  1        4 0.11813103E-02 0.12499872E+03</pdfrwt>
<pdfrwt beam="2">  1       -4 0.78263709E-01 0.12499872E+03</pdfrwt>
<totfact> 0.54616099E+03</totfact>
</mgrwt>
</event>
<event>
 5    1  0.3217852E-002  0.1249947E+03  0.7818608E-02  0.1235078E+00
          4   -1    0    0  501    0  0.00000000000E+00  0.00000000000E+00  0.13664435619E+02  0.13723326885E+02  0.12700000000E+01 0.  1.
         -4   -1    0    0    0  501 -0.00000000000E+00 -0.00000000000E+00 -0.28517042292E+03  0.28517325086E+03  0.12700000000E+01 0.  1.
         25    2    1    2    0    0  0.00000000000E+00  0.00000000000E+00 -0.27150598730E+03  0.29889657774E+03  0.12499465208E+03 0.  0.
    9000005    1    3    3    0    0 -0.48253502317E+02  0.26273289927E+02 -0.64565678308E+02  0.84784509580E+02  0.10000000000E+01 0.  0.
    9000005    1    3    3    0    0  0.48253502317E+02 -0.26273289927E+02 -0.20694030899E+03  0.21411206816E+03  0.10000000000E+01 0.  0.
<mgrwt>
<rscale>  0 0.12499465E+03</rscale>
<asrwt>0</asrwt>
<pdfrwt beam="1">  1        4 0.21069687E-02 0.12499465E+03</pdfrwt>
<pdfrwt beam="2">  1       -4 0.43877116E-01 0.12499465E+03</pdfrwt>
<totfact> 0.75746453E+03</totfact>
</mgrwt>
</event>
<event>
 5    1  0.3217852E-002  0.1250013E+03  0.7818608E-02  0.1235067E+00
          4   -1    0    0  501    0  0.00000000000E+00  0.00000000000E+00  0.48274470717E+01  0.49917076467E+01  0.12700000000E+01 0.  1.
         -4   -1    0    0    0  501 -0.00000000000E+00 -0.00000000000E+00 -0.79549081575E+03  0.79549182953E+03  0.12700000000E+01 0.  1.
         25    2    1    2    0    0  0.00000000000E+00  0.00000000000E+00 -0.79066336868E+03  0.80048353717E+03  0.12500132285E+03 0.  0.
    9000005    1    3    3    0    0  0.43653222217E+02  0.13699713736E+02 -0.66792957444E+03  0.66949548347E+03  0.10000000000E+01 0.  0.
    9000005    1    3    3    0    0 -0.43653222217E+02 -0.13699713736E+02 -0.12273379424E+03  0.13098805371E+03  0.10000000000E+01 0.  0.
<mgrwt>
<rscale>  0 0.12500132E+03</rscale>
<asrwt>0</asrwt>
<pdfrwt beam="1">  1        4 0.75539821E-03 0.12500132E+03</pdfrwt>
<pdfrwt beam="2">  1       -4 0.12239581E+00 0.12500132E+03</pdfrwt>
<totfact> 0.38242070E+03</totfact>
</mgrwt>
</event>
<event>
 5    1  0.3217852E-002  0.1250093E+03  0.7818608E-02  0.1235055E+00
         -4   -1    0    0    0  501 -0.00000000000E+00  0.00000000000E+00  0.10040193502E+04  0.10040201534E+04  0.12700000000E+01 0.  1.
          4   -1    0    0  501    0  0.00000000000E+00 -0.00000000000E+00 -0.37867420190E+01  0.39940349420E+01  0.12700000000E+01 0.  1.
         25    2    1    2    0    0  0.00000000000E+00  0.00000000000E+00  0.10002326081E+04  0.10080141883E+04  0.12500933354E+03 0.  0.
    9000005    1    3    3    0    0  0.26622171936E+02  0.55391206167E+02  0.40856522206E+03  0.41316276022E+03  0.10000000000E+01 0.  0.
    9000005    1    3    3    0    0 -0.26622171936E+02 -0.55391206167E+02  0.59166738609E+03  0.59485142810E+03  0.10000000000E+01 0.  0.
<mgrwt>
<rscale>  0 0.12500933E+03</rscale>
<asrwt>0</asrwt>
<pdfrwt beam="2">  1        4 0.59858267E-03 0.12500933E+03</pdfrwt>
<pdfrwt beam="1">  1       -4 0.15448063E+00 0.12500933E+03</pdfrwt>
<totfact> 0.30335123E+03</totfact>
</mgrwt>
</event>
<event>
 5    1  0.3217852E-002  0.1250001E+03  0.7818608E-02  0.1235069E+00
         -4   -1    0    0    0  501 -0.00000000000E+00  0.00000000000E+00  0.49840058594E+01  0.51432688445E+01  0.12700000000E+01 0.  1.
          4   -1    0    0  501    0  0.00000000000E+00 -0.00000000000E+00 -0.77127342541E+03  0.77127447102E+03  0.12700000000E+01 0.  1.
         25    2    1    2    0    0  0.00000000000E+00  0.00000000000E+00 -0.76628941955E+03  0.77641773986E+03  0.12500012903E+03 0.  0.
    9000005    1    3    3    0    0 -0.25796194620E+02 -0.56912038997E+02 -0.37747153024E+03  0.38260969666E+03  0.10000000000E+01 0.  0.
    9000005    1    3    3    0    0  0.25796194620E+02  0.56912038997E+02 -0.38881788931E+03  0.39380804320E+03  0.10000000000E+01 0.  0.
<mgrwt>
<rscale>  0 0.12500013E+03</rscale>
<asrwt>0</asrwt>
<pdfrwt beam="2">  1        4 0.11866969E+00 0.12500013E+03</pdfrwt>
<pdfrwt beam="1">  1       -4 0.77910217E-03 0.12500013E+03</pdfrwt>
<totfact> 0.39339328E+03</totfact>
</mgrwt>
</event>
<event>
 5    1  0.3217852E-002  0.1250226E+03  0.7818608E-02  0.1235034E+00
         -4   -1    0    0    0  501 -0.00000000000E+00  0.00000000000E+00  0.34004138020E+01  0.36298366388E+01  0.12700000000E+01 0.  1.
          4   -1    0    0  501    0  0.00000000000E+00 -0.00000000000E+00 -0.11114407495E+04  0.11114414751E+04  0.12700000000E+01 0.  1.
         25    2    1    2    0    0  0.00000000000E+00  0.00000000000E+00 -0.11080403357E+04  0.11150713117E+04  0.12502257678E+03 0.  0.
    9000005    1    3    3    0    0 -0.40783294952E+02 -0.47342603039E+02 -0.54121294314E+03  0.54480918589E+03  0.10000000000E+01 0.  0.
    9000005    1    3    3    0    0  0.40783294952E+02  0.47342603039E+02 -0.56682739254E+03  0.57026212581E+03  0.10000000000E+01 0.  0.
<mgrwt>
<rscale>  0 0.12502258E+03</rscale>
<asrwt>0</asrwt>
<pdfrwt beam="2">  1        4 0.17100831E+00 0.12502258E+03</pdfrwt>
<pdfrwt beam="1">  1       -4 0.54084519E-03 0.12502258E+03</pdfrwt>
<totfact> 0.27033176E+03</totfact>
</mgrwt>
</event>
<event>
 5    1  0.3217852E-002  0.1250000E+03  0.7818608E-02  0.1235069E+00
         -4   -1    0    0    0  501 -0.00000000000E+00  0.00000000000E+00  0.12921262744E+01  0.18117644188E+01  0.12700000000E+01 0.  1.
          4   -1    0    0  501    0  0.00000000000E+00 -0.00000000000E+00 -0.25164805289E+04  0.25164808493E+04  0.12700000000E+01 0.  1.
         25    2    1    2    0    0  0.00000000000E+00  0.00000000000E+00 -0.25151884026E+04  0.25182926138E+04  0.12499995179E+03 0.  0.
    9000005    1    3    3    0    0  0.43200779714E+02 -0.20971362449E+02 -0.45195645947E+03  0.45450164650E+03  0.10000000000E+01 0.  0.
    9000005    1    3    3    0    0 -0.43200779714E+02  0.20971362449E+02 -0.20632319431E+04  0.20637909673E+04  0.10000000000E+01 0.  0.
<mgrwt>
<rscale>  0 0.12499995E+03</rscale>
<asrwt>0</asrwt>
<pdfrwt beam="2">  1        4 0.38718758E+00 0.12499995E+03</pdfrwt>
<pdfrwt beam="1">  1       -4 0.23878749E-03 0.12499995E+03</pdfrwt>
<totfact> 0.45273836E+02</totfact>
</mgrwt>
</event>
<event>
 5    1  0.3217852E-002  0.1250102E+03  0.7818608E-02  0.1235053E+00
         -4   -1    0    0    0  501 -0.00000000000E+00  0.00000000000E+00  0.20317824435E+03  0.20318221348E+03  0.12700000000E+01 0. -1.
          4   -1    0    0  501    0  0.00000000000E+00 -0.00000000000E+00 -0.19203736454E+02  0.19245685070E+02  0.12700000000E+01 0. -1.
         25    2    1    2    0    0  0.00000000000E+00  0.00000000000E+00  0.18397450789E+03  0.22242789855E+03  0.12501020158E+03 0.  0.
    9000005    1    3    3    0    0  0.50093063624E+02 -0.43690421043E+01  0.15802421758E+03  0.16583442614E+03  0.10000000000E+01 0.  0.
    9000005    1    3    3    0    0 -0.50093063624E+02  0.43690421043E+01  0.25950290313E+02  0.56593472410E+02  0.10000000000E+01 0.  0.
<mgrwt>
<rscale>  0 0.12501020E+03</rscale>
<asrwt>0</asrwt>
<pdfrwt beam="2">  1        4 0.29579531E-02 0.12501020E+03</pdfrwt>
<pdfrwt beam="1">  1       -4 0.31261724E-01 0.12501020E+03</pdfrwt>
<totfact> 0.86465917E+03</totfact>
</mgrwt>
</event>
<event>
 5    1  0.3217852E-002  0.1249993E+03  0.7818608E-02  0.1235070E+00
         -4   -1    0    0    0  501 -0.00000000000E+00  0.00000000000E+00  0.18736786720E+02  0.18779778395E+02  0.12700000000E+01 0.  1.
          4   -1    0    0  501    0  0.00000000000E+00 -0.00000000000E+00 -0.20819400094E+03  0.20819787445E+03  0.12700000000E+01 0.  1.
         25    2    1    2    0    0  0.00000000000E+00  0.00000000000E+00 -0.18945721422E+03  0.22697765285E+03  0.12499927549E+03 0.  0.
    9000005    1    3    3    0    0  0.55770697971E+02  0.25309546829E+01 -0.14571528187E+03  0.15604717188E+03  0.10000000000E+01 0.  0.
    9000005    1    3    3    0    0 -0.55770697971E+02 -0.25309546829E+01 -0.43741932350E+02  0.70930480962E+02  0.10000000000E+01 0.  0.
<mgrwt>
<rscale>  0 0.12499928E+03</rscale>
<asrwt>0</asrwt>
<pdfrwt beam="2">  1        4 0.32033450E-01 0.12499928E+03</pdfrwt>
<pdfrwt beam="1">  1       -4 0.28861877E-02 0.12499928E+03</pdfrwt>
<totfact> 0.85777240E+03</totfact>
</mgrwt>
</event>
<event>
 5    1  0.3217852E-002  0.1249891E+03  0.7818608E-02  0.1235086E+00
         -4   -1    0    0    0  501 -0.00000000000E+00  0.00000000000E+00  0.38901526648E+01  0.40922106196E+01  0.12700000000E+01 0.  1.
          4   -1    0    0  501    0  0.00000000000E+00 -0.00000000000E+00 -0.97834677695E+03  0.97834760125E+03  0.12700000000E+01 0.  1.
         25    2    1    2    0    0  0.00000000000E+00  0.00000000000E+00 -0.97445662428E+03  0.98243981187E+03  0.12498908484E+03 0.  0.
    9000005    1    3    3    0    0  0.58955048080E+01  0.13072339272E+02 -0.91801903870E+01  0.17056345638E+02  0.10000000000E+01 0.  0.
    9000005    1    3    3    0    0 -0.58955048080E+01 -0.13072339272E+02 -0.96527643390E+03  0.96538346623E+03  0.10000000000E+01 0.  0.
<mgrwt>
<rscale>  0 0.12498908E+03</rscale>
<asrwt>0</asrwt>
<pdfrwt beam="2">  1        4 0.15053030E+00 0.12498908E+03</pdfrwt>
<pdfrwt beam="1">  1       -4 0.61409213E-03 0.12498908E+03</pdfrwt>
<totfact> 0.31198962E+03</totfact>
</mgrwt>
</event>
<event>
 5    1  0.3217852E-002  0.1249983E+03  0.7818608E-02  0.1235072E+00
         -4   -1    0    0    0  501 -0.00000000000E+00  0.00000000000E+00  0.37722768353E+02  0.37744140634E+02  0.12700000000E+01 0. -1.
          4   -1    0    0  501    0  0.00000000000E+00 -0.00000000000E+00 -0.10349408386E+03  0.10350187580E+03  0.12700000000E+01 0. -1.
         25    2    1    2    0    0  0.00000000000E+00  0.00000000000E+00 -0.65771315512E+02  0.14124601644E+03  0.12499828485E+03 0.  0.
    9000005    1    3    3    0    0  0.47767068353E+01  0.62259898879E+02 -0.30110663826E+02  0.69330830174E+02  0.10000000000E+01 0.  0.
    9000005    1    3    3    0    0 -0.47767068353E+01 -0.62259898879E+02 -0.35660651686E+02  0.71915186263E+02  0.10000000000E+01 0.  0.
<mgrwt>
<rscale>  0 0.12499828E+03</rscale>
<asrwt>0</asrwt>
<pdfrwt beam="2">  1        4 0.15924410E-01 0.12499828E+03</pdfrwt>
<pdfrwt beam="1">  1       -4 0.58057463E-02 0.12499828E+03</pdfrwt>
<totfact> 0.10108217E+04</totfact>
</mgrwt>
</event>
<event>
 5    1  0.3217852E-002  0.1250087E+03  0.7818608E-02  0.1235056E+00
         -4   -1    0    0    0  501 -0.00000000000E+00  0.00000000000E+00  0.72609957882E+01  0.73712251245E+01  0.12700000000E+01 0.  1.
          4   -1    0    0  501    0  0.00000000000E+00 -0.00000000000E+00 -0.53388773880E+03  0.53388924933E+03  0.12700000000E+01 0.  1.
         25    2    1    2    0    0  0.00000000000E+00  0.00000000000E+00 -0.52662674302E+03  0.54126047445E+03  0.12500869867E+03 0.  0.
    9000005    1    3    3    0    0 -0.60214056406E+02  0.13428523894E+02 -0.30655397142E+03  0.31270176724E+03  0.10000000000E+01 0.  0.
    9000005    1    3    3    0    0  0.60214056406E+02 -0.13428523894E+02 -0.22007277160E+03  0.22855870721E+03  0.10000000000E+01 0.  0.
<mgrwt>
<rscale>  0 0.12500870E+03</rscale>
<asrwt>0</asrwt>
<pdfrwt beam="2">  1        4 0.82145140E-01 0.12500870E+03</pdfrwt>
<pdfrwt beam="1">  1       -4 0.11256721E-02 0.12500870E+03</pdfrwt>
<totfact> 0.52789324E+03</totfact>
</mgrwt>
</event>
<event>
 5    1  0.3217852E-002  0.1249988E+03  0.7818608E-02  0.1235071E+00
          4   -1    0    0  501    0  0.00000000000E+00  0.00000000000E+00  0.45897538363E+01  0.47622200997E+01  0.12700000000E+01 0.  1.
         -4   -1    0    0    0  501 -0.00000000000E+00 -0.00000000000E+00 -0.83519611193E+03  0.83519707751E+03  0.12700000000E+01 0.  1.
         25    2    1    2    0    0  0.00000000000E+00  0.00000000000E+00 -0.83060635809E+03  0.83995929761E+03  0.12499879814E+03 0.  0.
    9000005    1    3    3    0    0  0.54565337190E+02 -0.91764547058E+01 -0.61047562841E+03  0.61297885464E+03  0.10000000000E+01 0.  0.
    9000005    1    3    3    0    0 -0.54565337190E+02  0.91764547058E+01 -0.22013072967E+03  0.22698044297E+03  0.10000000000E+01 0.  0.
<mgrwt>
<rscale>  0 0.12499880E+03</rscale>
<asrwt>0</asrwt>
<pdfrwt beam="1">  1        4 0.71945755E-03 0.12499880E+03</pdfrwt>
<pdfrwt beam="2">  1       -4 0.12850493E+00 0.12499880E+03</pdfrwt>
<totfact> 0.36542749E+03</totfact>
</mgrwt>
</event>
<event>
 5    1  0.3217852E-002  0.1249810E+03  0.7818608E-02  0.1235099E+00
          4   -1    0    0  501    0  0.00000000000E+00  0.00000000000E+00  0.84165437897E+01  0.85118217417E+01  0.12700000000E+01 0.  1.
         -4   -1    0    0    0  501 -0.00000000000E+00 -0.00000000000E+00 -0.46126740058E+03  0.46126914891E+03  0.12700000000E+01 0.  1.
         25    2    1    2    0    0  0.00000000000E+00  0.00000000000E+00 -0.45285085679E+03  0.46978097065E+03  0.12498104613E+03 0.  0.
    9000005    1    3    3    0    0  0.47818143327E+02 -0.39557716158E+02 -0.25370671253E+03  0.26118859799E+03  0.10000000000E+01 0.  0.
    9000005    1    3    3    0    0 -0.47818143327E+02  0.39557716158E+02 -0.19914414426E+03  0.20859237266E+03  0.10000000000E+01 0.  0.
<mgrwt>
<rscale>  0 0.12498105E+03</rscale>
<asrwt>0</asrwt>
<pdfrwt beam="1">  1        4 0.13023168E-02 0.12498105E+03</pdfrwt>
<pdfrwt beam="2">  1       -4 0.70971659E-01 0.12498105E+03</pdfrwt>
<totfact> 0.58312002E+03</totfact>
</mgrwt>
</event>
<event>
 5    1  0.3217852E-002  0.1250203E+03  0.7818608E-02  0.1235037E+00
         -4   -1    0    0    0  501 -0.00000000000E+00  0.00000000000E+00  0.56580773085E+02  0.56595024365E+02  0.12700000000E+01 0.  1.
          4   -1    0    0  501    0  0.00000000000E+00 -0.00000000000E+00 -0.69032160311E+02  0.69043841559E+02  0.12700000000E+01 0.  1.
         25    2    1    2    0    0  0.00000000000E+00  0.00000000000E+00 -0.12451387226E+02  0.12563886592E+03  0.12502034869E+03 0.  0.
    9000005    1    3    3    0    0  0.48466904267E+02 -0.19327835257E+02 -0.40804000401E+02  0.66246301585E+02  0.10000000000E+01 0.  0.
    9000005    1    3    3    0    0 -0.48466904267E+02  0.19327835257E+02  0.28352613175E+02  0.59392564339E+02  0.10000000000E+01 0.  0.
<mgrwt>
<rscale>  0 0.12502035E+03</rscale>
<asrwt>0</asrwt>
<pdfrwt beam="2">  1        4 0.10622327E-01 0.12502035E+03</pdfrwt>
<pdfrwt beam="1">  1       -4 0.87067291E-02 0.12502035E+03</pdfrwt>
<totfact> 0.10434100E+04</totfact>
</mgrwt>
</event>
<event>
 5    1  0.3217852E-002  0.1249837E+03  0.7818608E-02  0.1235095E+00
          4   -1    0    0  501    0  0.00000000000E+00  0.00000000000E+00  0.75536699180E+02  0.75547374693E+02  0.12700000000E+01 0.  1.
         -4   -1    0    0    0  501 -0.00000000000E+00 -0.00000000000E+00 -0.51677694371E+02  0.51693297394E+02  0.12700000000E+01 0.  1.
         25    2    1    2    0    0  0.00000000000E+00  0.00000000000E+00  0.23859004809E+02  0.12724067209E+03  0.12498374503E+03 0.  0.
    9000005    1    3    3    0    0  0.50788391808E+02 -0.29743858317E+02  0.33286313258E+02  0.67624969503E+02  0.10000000000E+01 0.  0.
    9000005    1    3    3    0    0 -0.50788391808E+02  0.29743858317E+02 -0.94273084484E+01  0.59615702584E+02  0.10000000000E+01 0.  0.
<mgrwt>
<rscale>  0 0.12498375E+03</rscale>
<asrwt>0</asrwt>
<pdfrwt beam="1">  1        4 0.11623052E-01 0.12498375E+03</pdfrwt>
<pdfrwt beam="2">  1       -4 0.79524360E-02 0.12498375E+03</pdfrwt>
<totfact> 0.10407740E+04</totfact>
</mgrwt>
</event>
<event>
 5    1  0.3217852E-002  0.1249679E+03  0.7818608E-02  0.1235119E+00
         -4   -1    0    0    0  501 -0.00000000000E+00  0.00000000000E+00  0.53717843109E+03  0.53717993236E+03  0.12700000000E+01 0. -1.
          4   -1    0    0  501    0  0.00000000000E+00 -0.00000000000E+00 -0.72110603724E+01  0.73220414978E+01  0.12700000000E+01 0. -1.
         25    2    1    2    0    0  0.00000000000E+00  0.00000000000E+00  0.52996737072E+03  0.54450197386E+03  0.12496793792E+03 0.  0.
    9000005    1    3    3    0    0  0.38480808705E+02  0.41171443127E+02  0.38249598535E+03  0.38662648536E+03  0.10000000000E+01 0.  0.
    9000005    1    3    3    0    0 -0.38480808705E+02 -0.41171443127E+02  0.14747138537E+03  0.15787548850E+03  0.10000000000E+01 0.  0.
<mgrwt>
<rscale>  0 0.12496794E+03</rscale>
<asrwt>0</asrwt>
<pdfrwt beam="2">  1        4 0.11180459E-02 0.12496794E+03</pdfrwt>
<pdfrwt beam="1">  1       -4 0.82651522E-01 0.12496794E+03</pdfrwt>
<totfact> 0.52606667E+03</totfact>
</mgrwt>
</event>
<event>
 5    1  0.3217852E-002  0.1249983E+03  0.7818608E-02  0.1235072E+00
         -4   -1    0    0    0  501 -0.00000000000E+00  0.00000000000E+00  0.24351978408E+03  0.24352309569E+03  0.12700000000E+01 0. -1.
          4   -1    0    0  501    0  0.00000000000E+00 -0.00000000000E+00 -0.16011781612E+02  0.16062068684E+02  0.12700000000E+01 0. -1.
         25    2    1    2    0    0  0.00000000000E+00  0.00000000000E+00  0.22750800246E+03  0.25958516438E+03  0.12499826551E+03 0.  0.
    9000005    1    3    3    0    0  0.42231489777E+02  0.37158164923E+02  0.17028148818E+03  0.17933491898E+03  0.10000000000E+01 0.  0.
    9000005    1    3    3    0    0 -0.42231489777E+02 -0.37158164923E+02  0.57226514286E+02  0.80250245398E+02  0.10000000000E+01 0.  0.
<mgrwt>
<rscale>  0 0.12499827E+03</rscale>
<asrwt>0</asrwt>
<pdfrwt beam="2">  1        4 0.24674739E-02 0.12499827E+03</pdfrwt>
<pdfrwt beam="1">  1       -4 0.37468706E-01 0.12499827E+03</pdfrwt>
<totfact> 0.80967437E+03</totfact>
</mgrwt>
</event>
<event>
 5    1  0.3217852E-002  0.1249998E+03  0.7818608E-02  0.1235070E+00
         -4   -1    0    0    0  501 -0.00000000000E+00  0.00000000000E+00  0.15102431160E+03  0.15102965137E+03  0.12700000000E+01 0.  1.
          4   -1    0    0  501    0  0.00000000000E+00 -0.00000000000E+00 -0.25843561386E+02  0.25874747634E+02  0.12700000000E+01 0.  1.
         25    2    1    2    0    0  0.00000000000E+00  0.00000000000E+00  0.12518075021E+03  0.17690439901E+03  0.12499978466E+03 0.  0.
    9000005    1    3    3    0    0  0.15469978553E+02 -0.60453957917E+02  0.57846630981E+02  0.85095440419E+02  0.10000000000E+01 0.  0.
    9000005    1    3    3    0    0 -0.15469978553E+02  0.60453957917E+02  0.67334119230E+02  0.91808958586E+02  0.10000000000E+01 0.  0.
<mgrwt>
<rscale>  0 0.12499978E+03</rscale>
<asrwt>0</asrwt>
<pdfrwt beam="2">  1        4 0.39787422E-02 0.12499978E+03</pdfrwt>
<pdfrwt beam="1">  1       -4 0.23237319E-01 0.12499978E+03</pdfrwt>
<totfact> 0.94177662E+03</totfact>
</mgrwt>
</event>
<event>
 5    1  0.3217852E-002  0.1250008E+03  0.7818608E-02  0.1235068E+00
          4   -1    0    0  501    0  0.00000000000E+00  0.00000000000E+00  0.25561401033E+02  0.25592931110E+02  0.12700000000E+01 0.  1.
         -4   -1    0    0    0  501 -0.00000000000E+00 -0.00000000000E+00 -0.15269188294E+03  0.15269716440E+03  0.12700000000E+01 0.  1.
         25    2    1    2    0    0  0.00000000000E+00  0.00000000000E+00 -0.12713048190E+03  0.17829009551E+03  0.12500079490E+03 0.  0.
    9000005    1    3    3    0    0  0.39767337108E+02 -0.31635244686E+01 -0.13217440198E+03  0.13806709068E+03  0.10000000000E+01 0.  0.
    9000005    1    3    3    0    0 -0.39767337108E+02  0.31635244686E+01  0.50439200821E+01  0.40223004829E+02  0.10000000000E+01 0.  0.
<mgrwt>
<rscale>  0 0.12500079E+03</rscale>
<asrwt>0</asrwt>
<pdfrwt beam="1">  1        4 0.39353550E-02 0.12500079E+03</pdfrwt>
<pdfrwt beam="2">  1       -4 0.23493890E-01 0.12500079E+03</pdfrwt>
<totfact> 0.93924026E+03</totfact>
</mgrwt>
</event>
<event>
 5    1  0.3217852E-002  0.1249925E+03  0.7818608E-02  0.1235081E+00
         -4   -1    0    0    0  501 -0.00000000000E+00  0.00000000000E+00  0.83769597860E+02  0.83779224308E+02  0.12700000000E+01 0. -1.
          4   -1    0    0  501    0  0.00000000000E+00 -0.00000000000E+00 -0.46604337653E+02  0.46621638625E+02  0.12700000000E+01 0. -1.
         25    2    1    2    0    0  0.00000000000E+00  0.00000000000E+00  0.37165260207E+02  0.13040086293E+03  0.12499251373E+03 0.  0.
    9000005    1    3    3    0    0  0.12598281127E+02  0.54567935043E+02  0.47502198586E+02  0.73442733423E+02  0.10000000000E+01 0.  0.
    9000005    1    3    3    0    0 -0.12598281127E+02 -0.54567935043E+02 -0.10336938379E+02  0.56958129510E+02  0.10000000000E+01 0.  0.
<mgrwt>
<rscale>  0 0.12499251E+03</rscale>
<asrwt>0</asrwt>
<pdfrwt beam="2">  1        4 0.71719696E-02 0.12499251E+03</pdfrwt>
<pdfrwt beam="1">  1       -4 0.12889702E-01 0.12499251E+03</pdfrwt>
<totfact> 0.10337686E+04</totfact>
</mgrwt>
</event>
<event>
 5    1  0.3217852E-002  0.1249999E+03  0.7818608E-02  0.1235069E+00
          4   -1    0    0  501    0  0.00000000000E+00  0.00000000000E+00  0.20015483172E+02  0.20055734008E+02  0.12700000000E+01 0. -1.
         -4   -1    0    0    0  501 -0.00000000000E+00 -0.00000000000E+00 -0.19492285874E+03  0.19492699597E+03  0.12700000000E+01 0. -1.
         25    2    1    2    0    0  0.00000000000E+00  0.00000000000E+00 -0.17490737557E+03  0.21498272998E+03  0.12499993665E+03 0.  0.
    9000005    1    3    3    0    0 -0.45845476109E+01 -0.46203494229E+01 -0.19434672275E+03  0.19445825863E+03  0.10000000000E+01 0.  0.
    9000005    1    3    3    0    0  0.45845476109E+01  0.46203494229E+01  0.19439347180E+02  0.20524471354E+02  0.10000000000E+01 0.  0.
<mgrwt>
<rscale>  0 0.12499994E+03</rscale>
<asrwt>0</asrwt>
<pdfrwt beam="1">  1        4 0.30827197E-02 0.12499994E+03</pdfrwt>
<pdfrwt beam="2">  1       -4 0.29991545E-01 0.12499994E+03</pdfrwt>
<totfact> 0.87668671E+03</totfact>
</mgrwt>
</event>
<event>
 5    1  0.3217852E-002  0.1249979E+03  0.7818608E-02  0.1235073E+00
          4   -1    0    0  501    0  0.00000000000E+00  0.00000000000E+00  0.14277302061E+02  0.14333675528E+02  0.12700000000E+01 0.  1.
         -4   -1    0    0    0  501 -0.00000000000E+00 -0.00000000000E+00 -0.27299252637E+03  0.27299548046E+03  0.12700000000E+01 0.  1.
         25    2    1    2    0    0  0.00000000000E+00  0.00000000000E+00 -0.25871522431E+03  0.28732915599E+03  0.12499790636E+03 0.  0.
    9000005    1    3    3    0    0 -0.51139523511E+02  0.30436196504E+02 -0.17318371817E+03  0.18312622194E+03  0.10000000000E+01 0.  0.
    9000005    1    3    3    0    0  0.51139523511E+02 -0.30436196504E+02 -0.85531506134E+02  0.10420293405E+03  0.10000000000E+01 0.  0.
<mgrwt>
<rscale>  0 0.12499791E+03</rscale>
<asrwt>0</asrwt>
<pdfrwt beam="1">  1        4 0.22010719E-02 0.12499791E+03</pdfrwt>
<pdfrwt beam="2">  1       -4 0.42003410E-01 0.12499791E+03</pdfrwt>
<totfact> 0.77219835E+03</totfact>
</mgrwt>
</event>
<event>
 5    1  0.3217852E-002  0.1249960E+03  0.7818608E-02  0.1235076E+00
         -4   -1    0    0    0  501 -0.00000000000E+00  0.00000000000E+00  0.37871068227E+02  0.37892356863E+02  0.12700000000E+01 0. -1.
          4   -1    0    0  501    0  0.00000000000E+00 -0.00000000000E+00 -0.10308522949E+03  0.10309305233E+03  0.12700000000E+01 0. -1.
         25    2    1    2    0    0  0.00000000000E+00  0.00000000000E+00 -0.65214161262E+02  0.14098540919E+03  0.12499599504E+03 0.  0.
    9000005    1    3    3    0    0  0.44118915026E+02 -0.10990298920E+02 -0.80959636875E+02  0.92858645997E+02  0.10000000000E+01 0.  0.
    9000005    1    3    3    0    0 -0.44118915026E+02  0.10990298920E+02  0.15745475613E+02  0.48126763196E+02  0.10000000000E+01 0.  0.
<mgrwt>
<rscale>  0 0.12499600E+03</rscale>
<asrwt>0</asrwt>
<pdfrwt beam="2">  1        4 0.15861505E-01 0.12499600E+03</pdfrwt>
<pdfrwt beam="1">  1       -4 0.58285576E-02 0.12499600E+03</pdfrwt>
<totfact> 0.10114116E+04</totfact>
</mgrwt>
</event>
<event>
 5    1  0.3217852E-002  0.1250020E+03  0.7818608E-02  0.1235066E+00
          4   -1    0    0  501    0  0.00000000000E+00  0.00000000000E+00  0.10642745399E+03  0.10643503118E+03  0.12700000000E+01 0. -1.
         -4   -1    0    0    0  501 -0.00000000000E+00 -0.00000000000E+00 -0.36684707295E+02  0.36706683987E+02  0.12700000000E+01 0. -1.
         25    2    1    2    0    0  0.00000000000E+00  0.00000000000E+00  0.69742746694E+02  0.14314171517E+03  0.12500199960E+03 0.  0.
    9000005    1    3    3    0    0 -0.52282978208E+02  0.14337539694E+02  0.70467707384E+02  0.88914411873E+02  0.10000000000E+01 0.  0.
    9000005    1    3    3    0    0  0.52282978208E+02 -0.14337539694E+02 -0.72496068966E+00  0.54227303296E+02  0.10000000000E+01 0.  0.
<mgrwt>
<rscale>  0 0.12500200E+03</rscale>
<asrwt>0</asrwt>
<pdfrwt beam="1">  1        4 0.16375728E-01 0.12500200E+03</pdfrwt>
<pdfrwt beam="2">  1       -4 0.56460745E-02 0.12500200E+03</pdfrwt>
<totfact> 0.10068429E+04</totfact>
</mgrwt>
</event>
<event>
 5    1  0.3217852E-002  0.1249991E+03  0.7818608E-02  0.1235071E+00
         -4   -1    0    0    0  501 -0.00000000000E+00  0.00000000000E+00  0.89902789231E+01  0.90795382655E+01  0.12700000000E+01 0. -1.
          4   -1    0    0  501    0  0.00000000000E+00 -0.00000000000E+00 -0.43225468003E+03  0.43225654571E+03  0.12700000000E+01 0. -1.
         25    2    1    2    0    0  0.00000000000E+00  0.00000000000E+00 -0.42326440111E+03  0.44133608397E+03  0.12499914309E+03 0.  0.
    9000005    1    3    3    0    0 -0.13735670972E+02  0.17942539690E+02 -0.41734260620E+03  0.41795508651E+03  0.10000000000E+01 0.  0.
    9000005    1    3    3    0    0  0.13735670972E+02 -0.17942539690E+02 -0.59217949065E+01  0.23380997466E+02  0.10000000000E+01 0.  0.
<mgrwt>
<rscale>  0 0.12499914E+03</rscale>
<asrwt>0</asrwt>
<pdfrwt beam="2">  1        4 0.66507714E-01 0.12499914E+03</pdfrwt>
<pdfrwt beam="1">  1       -4 0.13901298E-02 0.12499914E+03</pdfrwt>
<totfact> 0.60722869E+03</totfact>
</mgrwt>
</event>
<event>
 5    1  0.3217852E-002  0.1249996E+03  0.7818608E-02  0.1235070E+00
          4   -1    0    0  501    0  0.00000000000E+00  0.00000000000E+00  0.34922840655E+03  0.34923071578E+03  0.12700000000E+01 0. -1.
         -4   -1    0    0    0  501 -0.00000000000E+00 -0.00000000000E+00 -0.11146902903E+02  0.11219017084E+02  0.12700000000E+01 0. -1.
         25    2    1    2    0    0  0.00000000000E+00  0.00000000000E+00  0.33808150365E+03  0.36044973286E+03  0.12499962724E+03 0.  0.
    9000005    1    3    3    0    0  0.10336011757E+02  0.56757306387E+01 -0.79238918698E+01  0.14242019509E+02  0.10000000000E+01 0.  0.
    9000005    1    3    3    0    0 -0.10336011757E+02 -0.56757306387E+01  0.34600539552E+03  0.34620771335E+03  0.10000000000E+01 0.  0.
<mgrwt>
<rscale>  0 0.12499963E+03</rscale>
<asrwt>0</asrwt>
<pdfrwt beam="1">  1        4 0.53733164E-01 0.12499963E+03</pdfrwt>
<pdfrwt beam="2">  1       -4 0.17206333E-02 0.12499963E+03</pdfrwt>
<totfact> 0.68590621E+03</totfact>
</mgrwt>
</event>
<event>
 5    1  0.3217852E-002  0.1249918E+03  0.7818608E-02  0.1235082E+00
          4   -1    0    0  501    0  0.00000000000E+00  0.00000000000E+00  0.11447345801E+02  0.11517578994E+02  0.12700000000E+01 0. -1.
         -4   -1    0    0    0  501 -0.00000000000E+00 -0.00000000000E+00 -0.34007655127E+03  0.34007892264E+03  0.12700000000E+01 0. -1.
         25    2    1    2    0    0  0.00000000000E+00  0.00000000000E+00 -0.32862920547E+03  0.35159650163E+03  0.12499178083E+03 0.  0.
    9000005    1    3    3    0    0  0.35979423225E+02  0.46904520251E+01 -0.30742244682E+03  0.30955787834E+03  0.10000000000E+01 0.  0.
    9000005    1    3    3    0    0 -0.35979423225E+02 -0.46904520251E+01 -0.21206758650E+02  0.42038623292E+02  0.10000000000E+01 0.  0.
<mgrwt>
<rscale>  0 0.12499178E+03</rscale>
<asrwt>0</asrwt>
<pdfrwt beam="1">  1        4 0.17667154E-02 0.12499178E+03</pdfrwt>
<pdfrwt beam="2">  1       -4 0.52325047E-01 0.12499178E+03</pdfrwt>
<totfact> 0.69561932E+03</totfact>
</mgrwt>
</event>
<event>
 5    1  0.3217852E-002  0.1249999E+03  0.7818608E-02  0.1235069E+00
         -4   -1    0    0    0  501 -0.00000000000E+00  0.00000000000E+00  0.18275214727E+02  0.18319289651E+02  0.12700000000E+01 0. -1.
          4   -1    0    0  501    0  0.00000000000E+00 -0.00000000000E+00 -0.21344204541E+03  0.21344582368E+03  0.12700000000E+01 0. -1.
         25    2    1    2    0    0  0.00000000000E+00  0.00000000000E+00 -0.19516683068E+03  0.23176511333E+03  0.12499990384E+03 0.  0.
    9000005    1    3    3    0    0  0.38146986982E+02 -0.23698802897E+02 -0.17815603127E+03  0.18373186265E+03  0.10000000000E+01 0.  0.
    9000005    1    3    3    0    0 -0.38146986982E+02  0.23698802897E+02 -0.17010799408E+02  0.48033250682E+02  0.10000000000E+01 0.  0.
<mgrwt>
<rscale>  0 0.12499990E+03</rscale>
<asrwt>0</asrwt>
<pdfrwt beam="2">  1        4 0.32840917E-01 0.12499990E+03</pdfrwt>
<pdfrwt beam="1">  1       -4 0.28152527E-02 0.12499990E+03</pdfrwt>
<totfact> 0.85039480E+03</totfact>
</mgrwt>
</event>
<event>
 5    1  0.3217852E-002  0.1249659E+03  0.7818608E-02  0.1235123E+00
          4   -1    0    0  501    0  0.00000000000E+00  0.00000000000E+00  0.90927075064E+01  0.91809710704E+01  0.12700000000E+01 0.  1.
         -4   -1    0    0    0  501 -0.00000000000E+00 -0.00000000000E+00 -0.42720530942E+03  0.42720719715E+03  0.12700000000E+01 0.  1.
         25    2    1    2    0    0  0.00000000000E+00  0.00000000000E+00 -0.41811260192E+03  0.43638816822E+03  0.12496593729E+03 0.  0.
    9000005    1    3    3    0    0 -0.32582266271E+02 -0.37826820289E+02 -0.34021309520E+03  0.34385814307E+03  0.10000000000E+01 0.  0.
    9000005    1    3    3    0    0  0.32582266271E+02  0.37826820289E+02 -0.77899506714E+02  0.92530025153E+02  0.10000000000E+01 0.  0.
<mgrwt>
<rscale>  0 0.12496594E+03</rscale>
<asrwt>0</asrwt>
<pdfrwt beam="1">  1        4 0.14058131E-02 0.12496594E+03</pdfrwt>
<pdfrwt beam="2">  1       -4 0.65730813E-01 0.12496594E+03</pdfrwt>
<totfact> 0.61207133E+03</totfact>
</mgrwt>
</event>
<event>
 5    1  0.3217852E-002  0.1250009E+03  0.7818608E-02  0.1235068E+00
         -4   -1    0    0    0  501 -0.00000000000E+00  0.00000000000E+00  0.12696490665E+03  0.12697125825E+03  0.12700000000E+01 0. -1.
          4   -1    0    0  501    0  0.00000000000E+00 -0.00000000000E+00 -0.30746572096E+02  0.30772789858E+02  0.12700000000E+01 0. -1.
         25    2    1    2    0    0  0.00000000000E+00  0.00000000000E+00  0.96218334554E+02  0.15774404811E+03  0.12500086723E+03 0.  0.
    9000005    1    3    3    0    0  0.26147352400E+02  0.23888770624E+02 -0.16864961072E+02  0.39240085517E+02  0.10000000000E+01 0.  0.
    9000005    1    3    3    0    0 -0.26147352400E+02 -0.23888770624E+02  0.11308329563E+03  0.11850396259E+03  0.10000000000E+01 0.  0.
<mgrwt>
<rscale>  0 0.12500087E+03</rscale>
<asrwt>0</asrwt>
<pdfrwt beam="2">  1        4 0.47327472E-02 0.12500087E+03</pdfrwt>
<pdfrwt beam="1">  1       -4 0.19535568E-01 0.12500087E+03</pdfrwt>
<totfact> 0.97777579E+03</totfact>
</mgrwt>
</event>
<event>
 5    1  0.3217852E-002  0.1250047E+03  0.7818608E-02  0.1235062E+00
         -4   -1    0    0    0  501 -0.00000000000E+00  0.00000000000E+00  0.26836564689E+02  0.26866598302E+02  0.12700000000E+01 0. -1.
          4   -1    0    0  501    0  0.00000000000E+00 -0.00000000000E+00 -0.14545374998E+03  0.14545929425E+03  0.12700000000E+01 0. -1.
         25    2    1    2    0    0  0.00000000000E+00  0.00000000000E+00 -0.11861718529E+03  0.17232589255E+03  0.12500470630E+03 0.  0.
    9000005    1    3    3    0    0 -0.82994000145E+00  0.62418485160E+02 -0.63395272939E+02  0.88975933381E+02  0.10000000000E+01 0.  0.
    9000005    1    3    3    0    0  0.82994000145E+00 -0.62418485160E+02 -0.55221912356E+02  0.83349959174E+02  0.10000000000E+01 0.  0.
<mgrwt>
<rscale>  0 0.12500471E+03</rscale>
<asrwt>0</asrwt>
<pdfrwt beam="2">  1        4 0.22380236E-01 0.12500471E+03</pdfrwt>
<pdfrwt beam="1">  1       -4 0.41314391E-02 0.12500471E+03</pdfrwt>
<totfact> 0.95006858E+03</totfact>
</mgrwt>
</event>
<event>
 5    1  0.3217852E-002  0.1249996E+03  0.7818608E-02  0.1235070E+00
         -4   -1    0    0    0  501 -0.00000000000E+00  0.00000000000E+00  0.14161369969E+03  0.14161939429E+03  0.12700000000E+01 0.  1.
          4   -1    0    0  501    0  0.00000000000E+00 -0.00000000000E+00 -0.27562797147E+02  0.27592040276E+02  0.12700000000E+01 0.  1.
         25    2    1    2    0    0  0.00000000000E+00  0.00000000000E+00  0.11405090254E+03  0.16921143457E+03  0.12499960487E+03 0.  0.
    9000005    1    3    3    0    0 -0.24809105973E+02  0.55840124755E+02  0.39291828521E+02  0.72653004483E+02  0.10000000000E+01 0.  0.
    9000005    1    3    3    0    0  0.24809105973E+02 -0.55840124755E+02  0.74759074020E+02  0.96558430084E+02  0.10000000000E+01 0.  0.
<mgrwt>
<rscale>  0 0.12499960E+03</rscale>
<asrwt>0</asrwt>
<pdfrwt beam="2">  1        4 0.42431178E-02 0.12499960E+03</pdfrwt>
<pdfrwt beam="1">  1       -4 0.21789411E-01 0.12499960E+03</pdfrwt>
<totfact> 0.95596552E+03</totfact>
</mgrwt>
</event>
<event>
 5    1  0.3217852E-002  0.1249989E+03  0.7818608E-02  0.1235071E+00
         -4   -1    0    0    0  501 -0.00000000000E+00  0.00000000000E+00  0.27898957518E+01  0.30653577778E+01  0.12700000000E+01 0. -1.
          4   -1    0    0  501    0  0.00000000000E+00 -0.00000000000E+00 -0.13339717446E+04  0.13339723491E+04  0.12700000000E+01 0. -1.
         25    2    1    2    0    0  0.00000000000E+00  0.00000000000E+00 -0.13311818488E+04  0.13370377069E+04  0.12499886015E+03 0.  0.
    9000005    1    3    3    0    0  0.25915247123E+02 -0.52512028666E+02 -0.89897487656E+03  0.90088064796E+03  0.10000000000E+01 0.  0.
    9000005    1    3    3    0    0 -0.25915247123E+02  0.52512028666E+02 -0.43220697224E+03  0.43615705892E+03  0.10000000000E+01 0.  0.
<mgrwt>
<rscale>  0 0.12499886E+03</rscale>
<asrwt>0</asrwt>
<pdfrwt beam="2">  1        4 0.20524717E+00 0.12499886E+03</pdfrwt>
<pdfrwt beam="1">  1       -4 0.45045169E-03 0.12499886E+03</pdfrwt>
<totfact> 0.21371474E+03</totfact>
</mgrwt>
</event>
<event>
 4    1  0.3217852E-002  0.1256219E+03  0.7818608E-02  0.1234101E+00
         -4   -1    0    0    0  501 -0.00000000000E+00  0.00000000000E+00  0.15968048857E+04  0.15968053907E+04  0.12700000000E+01 0.  1.
          4   -1    0    0  501    0  0.00000000000E+00 -0.00000000000E+00 -0.23069518147E+01  0.26334248945E+01  0.12700000000E+01 0.  1.
    9000005    1    1    2    0    0 -0.91824982678E+01 -0.61547472116E+02  0.90513958257E+03  0.90727673482E+03  0.10000000000E+01 0.  0.
    9000005    1    1    2    0    0  0.91824982678E+01  0.61547472116E+02  0.68935835130E+03  0.69216208080E+03  0.10000000000E+01 0.  0.
<mgrwt>
<rscale>  0 0.12562191E+03</rscale>
<asrwt>0</asrwt>
<pdfrwt beam="2">  1        4 0.38006746E-03 0.12562191E+03</pdfrwt>
<pdfrwt beam="1">  1       -4 0.24568768E+00 0.12562191E+03</pdfrwt>
<totfact> 0.15839671E+03</totfact>
</mgrwt>
</event>
<event>
 5    1  0.3217852E-002  0.1250019E+03  0.7818608E-02  0.1235066E+00
         -4   -1    0    0    0  501 -0.00000000000E+00  0.00000000000E+00  0.74517900598E+03  0.74518008820E+03  0.12700000000E+01 0. -1.
          4   -1    0    0  501    0  0.00000000000E+00 -0.00000000000E+00 -0.51641646459E+01  0.53180350215E+01  0.12700000000E+01 0. -1.
         25    2    1    2    0    0  0.00000000000E+00  0.00000000000E+00  0.74001484133E+03  0.75049812322E+03  0.12500187026E+03 0.  0.
    9000005    1    3    3    0    0 -0.10751769460E+02  0.52138159855E+02  0.17348840059E+03  0.18147510407E+03  0.10000000000E+01 0.  0.
    9000005    1    3    3    0    0  0.10751769460E+02 -0.52138159855E+02  0.56652644074E+03  0.56902301915E+03  0.10000000000E+01 0.  0.
<mgrwt>
<rscale>  0 0.12500187E+03</rscale>
<asrwt>0</asrwt>
<pdfrwt beam="2">  1        4 0.80640708E-03 0.12500187E+03</pdfrwt>
<pdfrwt beam="1">  1       -4 0.11465473E+00 0.12500187E+03</pdfrwt>
<totfact> 0.40548697E+03</totfact>
</mgrwt>
</event>
<event>
 5    1  0.3217852E-002  0.1249967E+03  0.7818608E-02  0.1235075E+00
         -4   -1    0    0    0  501 -0.00000000000E+00  0.00000000000E+00  0.80163793350E+02  0.80173852747E+02  0.12700000000E+01 0.  1.
          4   -1    0    0  501    0  0.00000000000E+00 -0.00000000000E+00 -0.48704353811E+02  0.48720909065E+02  0.12700000000E+01 0.  1.
         25    2    1    2    0    0  0.00000000000E+00  0.00000000000E+00  0.31459439539E+02  0.12889476181E+03  0.12499665310E+03 0.  0.
    9000005    1    3    3    0    0 -0.25468702756E+01 -0.52001521680E+02 -0.19908094234E+02  0.55749233369E+02  0.10000000000E+01 0.  0.
    9000005    1    3    3    0    0  0.25468702756E+01  0.52001521680E+02  0.51367533774E+02  0.73145528443E+02  0.10000000000E+01 0.  0.
<mgrwt>
<rscale>  0 0.12499665E+03</rscale>
<asrwt>0</asrwt>
<pdfrwt beam="2">  1        4 0.74950249E-02 0.12499665E+03</pdfrwt>
<pdfrwt beam="1">  1       -4 0.12334938E-01 0.12499665E+03</pdfrwt>
<totfact> 0.10368992E+04</totfact>
</mgrwt>
</event>
<event>
 5    1  0.3217852E-002  0.1250008E+03  0.7818608E-02  0.1235068E+00
         -4   -1    0    0    0  501 -0.00000000000E+00  0.00000000000E+00  0.79983125459E+03  0.79983226287E+03  0.12700000000E+01 0.  1.
          4   -1    0    0  501    0  0.00000000000E+00 -0.00000000000E+00 -0.48003177654E+01  0.49654758733E+01  0.12700000000E+01 0.  1.
         25    2    1    2    0    0  0.00000000000E+00  0.00000000000E+00  0.79503093683E+03  0.80479773874E+03  0.12500083907E+03 0.  0.
    9000005    1    3    3    0    0  0.12202564020E+02 -0.34303806715E+02  0.72452025095E+03  0.72543521265E+03  0.10000000000E+01 0.  0.
    9000005    1    3    3    0    0 -0.12202564020E+02  0.34303806715E+02  0.70510685882E+02  0.79362526090E+02  0.10000000000E+01 0.  0.
<mgrwt>
<rscale>  0 0.12500084E+03</rscale>
<asrwt>0</asrwt>
<pdfrwt beam="2">  1        4 0.75129270E-03 0.12500084E+03</pdfrwt>
<pdfrwt beam="1">  1       -4 0.12306370E+00 0.12500084E+03</pdfrwt>
<totfact> 0.38050749E+03</totfact>
</mgrwt>
</event>
<event>
 5    1  0.3217852E-002  0.1249996E+03  0.7818608E-02  0.1235070E+00
         -4   -1    0    0    0  501 -0.00000000000E+00  0.00000000000E+00  0.14601928294E+02  0.14657053248E+02  0.12700000000E+01 0.  1.
          4   -1    0    0  501    0  0.00000000000E+00 -0.00000000000E+00 -0.26695368256E+03  0.26695670348E+03  0.12700000000E+01 0.  1.
         25    2    1    2    0    0  0.00000000000E+00  0.00000000000E+00 -0.25235175427E+03  0.28161375673E+03  0.12499960039E+03 0.  0.
    9000005    1    3    3    0    0  0.24123348067E+02  0.48125921402E+02 -0.54676901261E+02  0.76737238445E+02  0.10000000000E+01 0.  0.
    9000005    1    3    3    0    0 -0.24123348067E+02 -0.48125921402E+02 -0.19767485300E+03  0.20487651828E+03  0.10000000000E+01 0.  0.
<mgrwt>
<rscale>  0 0.12499960E+03</rscale>
<asrwt>0</asrwt>
<pdfrwt beam="2">  1        4 0.41074266E-01 0.12499960E+03</pdfrwt>
<pdfrwt beam="1">  1       -4 0.22509235E-02 0.12499960E+03</pdfrwt>
<totfact> 0.77965313E+03</totfact>
</mgrwt>
</event>
<event>
 5    1  0.3217852E-002  0.1250010E+03  0.7818608E-02  0.1235068E+00
         -4   -1    0    0    0  501 -0.00000000000E+00  0.00000000000E+00  0.57740233292E+02  0.57754198467E+02  0.12700000000E+01 0. -1.
          4   -1    0    0  501    0  0.00000000000E+00 -0.00000000000E+00 -0.67625085699E+02  0.67637009956E+02  0.12700000000E+01 0. -1.
         25    2    1    2    0    0  0.00000000000E+00  0.00000000000E+00 -0.98848524071E+01  0.12539120842E+03  0.12500097937E+03 0.  0.
    9000005    1    3    3    0    0 -0.16365582431E+02  0.67258063865E+01  0.55179999247E+02  0.57956027096E+02  0.10000000000E+01 0.  0.
    9000005    1    3    3    0    0  0.16365582431E+02 -0.67258063865E+01 -0.65064851654E+02  0.67435181327E+02  0.10000000000E+01 0.  0.
<mgrwt>
<rscale>  0 0.12500098E+03</rscale>
<asrwt>0</asrwt>
<pdfrwt beam="2">  1        4 0.10405851E-01 0.12500098E+03</pdfrwt>
<pdfrwt beam="1">  1       -4 0.88851043E-02 0.12500098E+03</pdfrwt>
<totfact> 0.10444131E+04</totfact>
</mgrwt>
</event>
<event>
 5    1  0.3217852E-002  0.1249973E+03  0.7818608E-02  0.1235073E+00
         -4   -1    0    0    0  501 -0.00000000000E+00  0.00000000000E+00  0.16549529797E+03  0.16550017084E+03  0.12700000000E+01 0. -1.
          4   -1    0    0  501    0  0.00000000000E+00 -0.00000000000E+00 -0.23580067265E+02  0.23614242995E+02  0.12700000000E+01 0. -1.
         25    2    1    2    0    0  0.00000000000E+00  0.00000000000E+00  0.14191523070E+03  0.18911441384E+03  0.12499731524E+03 0.  0.
    9000005    1    3    3    0    0 -0.69075076762E+00 -0.73701413040E+00  0.16549036540E+03  0.16549646934E+03  0.10000000000E+01 0.  0.
    9000005    1    3    3    0    0  0.69075076762E+00  0.73701413040E+00 -0.23575134692E+02  0.23617944496E+02  0.10000000000E+01 0.  0.
<mgrwt>
<rscale>  0 0.12499732E+03</rscale>
<asrwt>0</asrwt>
<pdfrwt beam="2">  1        4 0.36307064E-02 0.12499732E+03</pdfrwt>
<pdfrwt beam="1">  1       -4 0.25463818E-01 0.12499732E+03</pdfrwt>
<totfact> 0.92007166E+03</totfact>
</mgrwt>
</event>
<event>
 5    1  0.3217852E-002  0.1250015E+03  0.7818608E-02  0.1235067E+00
          4   -1    0    0  501    0  0.00000000000E+00  0.00000000000E+00  0.24439873783E+02  0.24472848843E+02  0.12700000000E+01 0.  1.
         -4   -1    0    0    0  501 -0.00000000000E+00 -0.00000000000E+00 -0.15969172843E+03  0.15969677839E+03  0.12700000000E+01 0.  1.
         25    2    1    2    0    0  0.00000000000E+00  0.00000000000E+00 -0.13525185465E+03  0.18416962724E+03  0.12500154963E+03 0.  0.
    9000005    1    3    3    0    0 -0.36394728330E+02 -0.50658222384E+02 -0.62012698609E+02  0.87962529148E+02  0.10000000000E+01 0.  0.
    9000005    1    3    3    0    0  0.36394728330E+02  0.50658222384E+02 -0.73239156038E+02  0.96207098088E+02  0.10000000000E+01 0.  0.
<mgrwt>
<rscale>  0 0.12500155E+03</rscale>
<asrwt>0</asrwt>
<pdfrwt beam="1">  1        4 0.37629057E-02 0.12500155E+03</pdfrwt>
<pdfrwt beam="2">  1       -4 0.24570883E-01 0.12500155E+03</pdfrwt>
<totfact> 0.92868570E+03</totfact>
</mgrwt>
</event>
<event>
 5    1  0.3217852E-002  0.1250017E+03  0.7818608E-02  0.1235067E+00
          4   -1    0    0  501    0  0.00000000000E+00  0.00000000000E+00  0.17704357052E+02  0.17749849538E+02  0.12700000000E+01 0.  1.
         -4   -1    0    0    0  501 -0.00000000000E+00 -0.00000000000E+00 -0.22031344725E+03  0.22031710769E+03  0.12700000000E+01 0.  1.
         25    2    1    2    0    0  0.00000000000E+00  0.00000000000E+00 -0.20260909020E+03  0.23806695723E+03  0.12500173075E+03 0.  0.
    9000005    1    3    3    0    0  0.47796934191E+02  0.30051322951E+01 -0.17776485163E+03  0.18410573107E+03  0.10000000000E+01 0.  0.
    9000005    1    3    3    0    0 -0.47796934191E+02 -0.30051322951E+01 -0.24844238570E+02  0.53961226156E+02  0.10000000000E+01 0.  0.
<mgrwt>
<rscale>  0 0.12500173E+03</rscale>
<asrwt>0</asrwt>
<pdfrwt beam="1">  1        4 0.27275284E-02 0.12500173E+03</pdfrwt>
<pdfrwt beam="2">  1       -4 0.33898155E-01 0.12500173E+03</pdfrwt>
<totfact> 0.84082861E+03</totfact>
</mgrwt>
</event>
<event>
 5    1  0.3217852E-002  0.1250001E+03  0.7818608E-02  0.1235069E+00
          4   -1    0    0  501    0  0.00000000000E+00  0.00000000000E+00  0.48510561498E+02  0.48527182865E+02  0.12700000000E+01 0. -1.
         -4   -1    0    0    0  501 -0.00000000000E+00 -0.00000000000E+00 -0.80488370672E+02  0.80498389509E+02  0.12700000000E+01 0. -1.
         25    2    1    2    0    0  0.00000000000E+00  0.00000000000E+00 -0.31977809175E+02  0.12902557237E+03  0.12500007219E+03 0.  0.
    9000005    1    3    3    0    0 -0.22456671563E+02 -0.44874971612E+02 -0.54433332395E+02  0.74040886343E+02  0.10000000000E+01 0.  0.
    9000005    1    3    3    0    0  0.22456671563E+02  0.44874971612E+02  0.22455523220E+02  0.54984686031E+02  0.10000000000E+01 0.  0.
<mgrwt>
<rscale>  0 0.12500007E+03</rscale>
<asrwt>0</asrwt>
<pdfrwt beam="1">  1        4 0.74652126E-02 0.12500007E+03</pdfrwt>
<pdfrwt beam="2">  1       -4 0.12384875E-01 0.12500007E+03</pdfrwt>
<totfact> 0.10365380E+04</totfact>
</mgrwt>
</event>
<event>
 5    1  0.3217852E-002  0.1249972E+03  0.7818608E-02  0.1235074E+00
         -4   -1    0    0    0  501 -0.00000000000E+00  0.00000000000E+00  0.71482466665E+01  0.72601880420E+01  0.12700000000E+01 0. -1.
          4   -1    0    0  501    0  0.00000000000E+00 -0.00000000000E+00 -0.54208010051E+03  0.54208158820E+03  0.12700000000E+01 0. -1.
         25    2    1    2    0    0  0.00000000000E+00  0.00000000000E+00 -0.53493185384E+03  0.54934177624E+03  0.12499719546E+03 0.  0.
    9000005    1    3    3    0    0 -0.30007479153E+02  0.13648816346E+02 -0.50077881057E+03  0.50186368280E+03  0.10000000000E+01 0.  0.
    9000005    1    3    3    0    0  0.30007479153E+02 -0.13648816346E+02 -0.34153043271E+02  0.47478093448E+02  0.10000000000E+01 0.  0.
<mgrwt>
<rscale>  0 0.12499720E+03</rscale>
<asrwt>0</asrwt>
<pdfrwt beam="2">  1        4 0.83405632E-01 0.12499720E+03</pdfrwt>
<pdfrwt beam="1">  1       -4 0.11084560E-02 0.12499720E+03</pdfrwt>
<totfact> 0.52233068E+03</totfact>
</mgrwt>
</event>
<event>
 5    1  0.3217852E-002  0.1249941E+03  0.7818608E-02  0.1235078E+00
          4   -1    0    0  501    0  0.00000000000E+00  0.00000000000E+00  0.90421064393E+01  0.91308591523E+01  0.12700000000E+01 0.  1.
         -4   -1    0    0    0  501 -0.00000000000E+00 -0.00000000000E+00 -0.42976660776E+03  0.42976848424E+03  0.12700000000E+01 0.  1.
         25    2    1    2    0    0  0.00000000000E+00  0.00000000000E+00 -0.42072450132E+03  0.43889934339E+03  0.12499411033E+03 0.  0.
    9000005    1    3    3    0    0 -0.23888180315E+02  0.31419092405E+02 -0.40248631136E+02  0.56380465009E+02  0.10000000000E+01 0.  0.
    9000005    1    3    3    0    0  0.23888180315E+02 -0.31419092405E+02 -0.38047587019E+03  0.38251887839E+03  0.10000000000E+01 0.  0.
<mgrwt>
<rscale>  0 0.12499411E+03</rscale>
<asrwt>0</asrwt>
<pdfrwt beam="1">  1        4 0.13980651E-02 0.12499411E+03</pdfrwt>
<pdfrwt beam="2">  1       -4 0.66124895E-01 0.12499411E+03</pdfrwt>
<totfact> 0.60945440E+03</totfact>
</mgrwt>
</event>
<event>
 5    1  0.3217852E-002  0.1250002E+03  0.7818608E-02  0.1235069E+00
          4   -1    0    0  501    0  0.00000000000E+00  0.00000000000E+00  0.25333596873E+02  0.25365410120E+02  0.12700000000E+01 0.  1.
         -4   -1    0    0    0  501 -0.00000000000E+00 -0.00000000000E+00 -0.15406174371E+03  0.15406697821E+03  0.12700000000E+01 0.  1.
         25    2    1    2    0    0  0.00000000000E+00  0.00000000000E+00 -0.12872814683E+03  0.17943238833E+03  0.12500018477E+03 0.  0.
    9000005    1    3    3    0    0 -0.26085164918E+02 -0.54545356736E+02 -0.41684317401E+02  0.73445313584E+02  0.10000000000E+01 0.  0.
    9000005    1    3    3    0    0  0.26085164918E+02  0.54545356736E+02 -0.87043829433E+02  0.10598707474E+03  0.10000000000E+01 0.  0.
<mgrwt>
<rscale>  0 0.12500018E+03</rscale>
<asrwt>0</asrwt>
<pdfrwt beam="1">  1        4 0.39003264E-02 0.12500018E+03</pdfrwt>
<pdfrwt beam="2">  1       -4 0.23704656E-01 0.12500018E+03</pdfrwt>
<totfact> 0.93718887E+03</totfact>
</mgrwt>
</event>
<event>
 5    1  0.3217852E-002  0.1250001E+03  0.7818608E-02  0.1235069E+00
         -4   -1    0    0    0  501 -0.00000000000E+00  0.00000000000E+00  0.28729775339E+03  0.28730056040E+03  0.12700000000E+01 0.  1.
          4   -1    0    0  501    0  0.00000000000E+00 -0.00000000000E+00 -0.13564000856E+02  0.13623326291E+02  0.12700000000E+01 0.  1.
         25    2    1    2    0    0  0.00000000000E+00  0.00000000000E+00  0.27373375254E+03  0.30092388669E+03  0.12500007321E+03 0.  0.
    9000005    1    3    3    0    0  0.47887740768E+02  0.40105548901E+02  0.13232219455E+03  0.14632789870E+03  0.10000000000E+01 0.  0.
    9000005    1    3    3    0    0 -0.47887740768E+02 -0.40105548901E+02  0.14141155799E+03  0.15459598798E+03  0.10000000000E+01 0.  0.
<mgrwt>
<rscale>  0 0.12500007E+03</rscale>
<asrwt>0</asrwt>
<pdfrwt beam="2">  1        4 0.20915489E-02 0.12500007E+03</pdfrwt>
<pdfrwt beam="1">  1       -4 0.44204432E-01 0.12500007E+03</pdfrwt>
<totfact> 0.75482971E+03</totfact>
</mgrwt>
</event>
<event>
 5    1  0.3217852E-002  0.1249982E+03  0.7818608E-02  0.1235072E+00
         -4   -1    0    0    0  501 -0.00000000000E+00  0.00000000000E+00  0.33408867507E+02  0.33432997594E+02  0.12700000000E+01 0. -1.
          4   -1    0    0  501    0  0.00000000000E+00 -0.00000000000E+00 -0.11684935800E+03  0.11685625941E+03  0.12700000000E+01 0. -1.
         25    2    1    2    0    0  0.00000000000E+00  0.00000000000E+00 -0.83440490490E+02  0.15028925701E+03  0.12499818126E+03 0.  0.
    9000005    1    3    3    0    0 -0.61648548457E+02 -0.95890074553E+01 -0.45995500042E+02  0.77518246981E+02  0.10000000000E+01 0.  0.
    9000005    1    3    3    0    0  0.61648548457E+02  0.95890074553E+01 -0.37444990448E+02  0.72771010028E+02  0.10000000000E+01 0.  0.
<mgrwt>
<rscale>  0 0.12499818E+03</rscale>
<asrwt>0</asrwt>
<pdfrwt beam="2">  1        4 0.17979211E-01 0.12499818E+03</pdfrwt>
<pdfrwt beam="1">  1       -4 0.51422129E-02 0.12499818E+03</pdfrwt>
<totfact> 0.99250133E+03</totfact>
</mgrwt>
</event>
<event>
 5    1  0.3217852E-002  0.1249979E+03  0.7818608E-02  0.1235073E+00
         -4   -1    0    0    0  501 -0.00000000000E+00  0.00000000000E+00  0.16604906686E+03  0.16605392348E+03  0.12700000000E+01 0. -1.
          4   -1    0    0  501    0  0.00000000000E+00 -0.00000000000E+00 -0.23501543799E+02  0.23535833551E+02  0.12700000000E+01 0. -1.
         25    2    1    2    0    0  0.00000000000E+00  0.00000000000E+00  0.14254752306E+03  0.18958975703E+03  0.12499791855E+03 0.  0.
    9000005    1    3    3    0    0 -0.33204366093E+02  0.33399746086E+02  0.13357198647E+03  0.14163526587E+03  0.10000000000E+01 0.  0.
    9000005    1    3    3    0    0  0.33204366093E+02 -0.33399746086E+02  0.89755365836E+01  0.47954491168E+02  0.10000000000E+01 0.  0.
<mgrwt>
<rscale>  0 0.12499792E+03</rscale>
<asrwt>0</asrwt>
<pdfrwt beam="2">  1        4 0.36186335E-02 0.12499792E+03</pdfrwt>
<pdfrwt beam="1">  1       -4 0.25549021E-01 0.12499792E+03</pdfrwt>
<totfact> 0.91923031E+03</totfact>
</mgrwt>
</event>
<event>
 5    1  0.3217852E-002  0.1250005E+03  0.7818608E-02  0.1235069E+00
          4   -1    0    0  501    0  0.00000000000E+00  0.00000000000E+00  0.50689818829E+02  0.50705725840E+02  0.12700000000E+01 0.  1.
         -4   -1    0    0    0  501 -0.00000000000E+00 -0.00000000000E+00 -0.77029190928E+02  0.77039659625E+02  0.12700000000E+01 0.  1.
         25    2    1    2    0    0  0.00000000000E+00  0.00000000000E+00 -0.26339372099E+02  0.12774538546E+03  0.12500048394E+03 0.  0.
    9000005    1    3    3    0    0 -0.17812372476E+02 -0.54221990270E+02 -0.39184024571E+02  0.69236497771E+02  0.10000000000E+01 0.  0.
    9000005    1    3    3    0    0  0.17812372476E+02  0.54221990270E+02  0.12844652472E+02  0.58508887694E+02  0.10000000000E+01 0.  0.
<mgrwt>
<rscale>  0 0.12500048E+03</rscale>
<asrwt>0</asrwt>
<pdfrwt beam="1">  1        4 0.78004626E-02 0.12500048E+03</pdfrwt>
<pdfrwt beam="2">  1       -4 0.11852674E-01 0.12500048E+03</pdfrwt>
<totfact> 0.10392876E+04</totfact>
</mgrwt>
</event>
<event>
 5    1  0.3217852E-002  0.1250053E+03  0.7818608E-02  0.1235061E+00
         -4   -1    0    0    0  501 -0.00000000000E+00  0.00000000000E+00  0.14085643264E+02  0.14142780708E+02  0.12700000000E+01 0. -1.
          4   -1    0    0  501    0  0.00000000000E+00 -0.00000000000E+00 -0.27672478690E+03  0.27672770115E+03  0.12700000000E+01 0. -1.
         25    2    1    2    0    0  0.00000000000E+00  0.00000000000E+00 -0.26263914364E+03  0.29087048186E+03  0.12500526968E+03 0.  0.
    9000005    1    3    3    0    0 -0.28958834648E+02  0.54130325020E+02 -0.15854222770E+03  0.17001571738E+03  0.10000000000E+01 0.  0.
    9000005    1    3    3    0    0  0.28958834648E+02 -0.54130325020E+02 -0.10409691593E+03  0.12085476448E+03  0.10000000000E+01 0.  0.
<mgrwt>
<rscale>  0 0.12500527E+03</rscale>
<asrwt>0</asrwt>
<pdfrwt beam="2">  1        4 0.42577659E-01 0.12500527E+03</pdfrwt>
<pdfrwt beam="1">  1       -4 0.21716416E-02 0.12500527E+03</pdfrwt>
<totfact> 0.76749505E+03</totfact>
</mgrwt>
</event>
<event>
 5    1  0.3217852E-002  0.1250010E+03  0.7818608E-02  0.1235068E+00
          4   -1    0    0  501    0  0.00000000000E+00  0.00000000000E+00  0.23565950546E+02  0.23600146718E+02  0.12700000000E+01 0. -1.
         -4   -1    0    0    0  501 -0.00000000000E+00 -0.00000000000E+00 -0.16560403147E+03  0.16560890114E+03  0.12700000000E+01 0. -1.
         25    2    1    2    0    0  0.00000000000E+00  0.00000000000E+00 -0.14203808092E+03  0.18920904786E+03  0.12500098944E+03 0.  0.
    9000005    1    3    3    0    0  0.30399524814E+02 -0.50072904533E+02 -0.10396976084E+03  0.11934042922E+03  0.10000000000E+01 0.  0.
    9000005    1    3    3    0    0 -0.30399524814E+02  0.50072904533E+02 -0.38068320085E+02  0.69868618645E+02  0.10000000000E+01 0.  0.
<mgrwt>
<rscale>  0 0.12500099E+03</rscale>
<asrwt>0</asrwt>
<pdfrwt beam="1">  1        4 0.36285360E-02 0.12500099E+03</pdfrwt>
<pdfrwt beam="2">  1       -4 0.25480548E-01 0.12500099E+03</pdfrwt>
<totfact> 0.91983081E+03</totfact>
</mgrwt>
</event>
<event>
 5    1  0.3217852E-002  0.1250026E+03  0.7818608E-02  0.1235065E+00
          4   -1    0    0  501    0  0.00000000000E+00  0.00000000000E+00  0.10192195099E+02  0.10271014601E+02  0.12700000000E+01 0. -1.
         -4   -1    0    0    0  501 -0.00000000000E+00 -0.00000000000E+00 -0.38171891190E+03  0.38172102457E+03  0.12700000000E+01 0. -1.
         25    2    1    2    0    0  0.00000000000E+00  0.00000000000E+00 -0.37152671680E+03  0.39199203917E+03  0.12500262989E+03 0.  0.
    9000005    1    3    3    0    0 -0.29229111119E+02  0.11487426170E+02 -0.35519070578E+03  0.35657781671E+03  0.10000000000E+01 0.  0.
    9000005    1    3    3    0    0  0.29229111119E+02 -0.11487426170E+02 -0.16336011022E+02  0.35414222467E+02  0.10000000000E+01 0.  0.
<mgrwt>
<rscale>  0 0.12500263E+03</rscale>
<asrwt>0</asrwt>
<pdfrwt beam="1">  1        4 0.15742559E-02 0.12500263E+03</pdfrwt>
<pdfrwt beam="2">  1       -4 0.58732201E-01 0.12500263E+03</pdfrwt>
<totfact> 0.65335367E+03</totfact>
</mgrwt>
</event>
<event>
 5    1  0.3217852E-002  0.1249966E+03  0.7818608E-02  0.1235075E+00
         -4   -1    0    0    0  501 -0.00000000000E+00  0.00000000000E+00  0.16550087587E+02  0.16598743902E+02  0.12700000000E+01 0.  1.
          4   -1    0    0  501    0  0.00000000000E+00 -0.00000000000E+00 -0.23561620175E+03  0.23561962445E+03  0.12700000000E+01 0.  1.
         25    2    1    2    0    0  0.00000000000E+00  0.00000000000E+00 -0.21906611416E+03  0.25221836835E+03  0.12499657180E+03 0.  0.
    9000005    1    3    3    0    0  0.57991177494E+02  0.63703404177E+01 -0.64346996384E+02  0.86862499664E+02  0.10000000000E+01 0.  0.
    9000005    1    3    3    0    0 -0.57991177494E+02 -0.63703404177E+01 -0.15471911778E+03  0.16535586869E+03  0.10000000000E+01 0.  0.
<mgrwt>
<rscale>  0 0.12499657E+03</rscale>
<asrwt>0</asrwt>
<pdfrwt beam="2">  1        4 0.36252650E-01 0.12499657E+03</pdfrwt>
<pdfrwt beam="1">  1       -4 0.25501736E-02 0.12499657E+03</pdfrwt>
<totfact> 0.82016921E+03</totfact>
</mgrwt>
</event>
<event>
 5    1  0.3217852E-002  0.1249953E+03  0.7818608E-02  0.1235077E+00
         -4   -1    0    0    0  501 -0.00000000000E+00  0.00000000000E+00  0.21307065274E+03  0.21307443760E+03  0.12700000000E+01 0. -1.
          4   -1    0    0  501    0  0.00000000000E+00 -0.00000000000E+00 -0.18305803405E+02  0.18349804858E+02  0.12700000000E+01 0. -1.
         25    2    1    2    0    0  0.00000000000E+00  0.00000000000E+00  0.19476484934E+03  0.23142424246E+03  0.12499533376E+03 0.  0.
    9000005    1    3    3    0    0 -0.60071434607E+02  0.16392249184E+02  0.10712247124E+03  0.12390926895E+03  0.10000000000E+01 0.  0.
    9000005    1    3    3    0    0  0.60071434607E+02 -0.16392249184E+02  0.87642378103E+02  0.10751497351E+03  0.10000000000E+01 0.  0.
<mgrwt>
<rscale>  0 0.12499533E+03</rscale>
<asrwt>0</asrwt>
<pdfrwt beam="2">  1        4 0.28199534E-02 0.12499533E+03</pdfrwt>
<pdfrwt beam="1">  1       -4 0.32783775E-01 0.12499533E+03</pdfrwt>
<totfact> 0.85100241E+03</totfact>
</mgrwt>
</event>
<event>
 5    1  0.3217852E-002  0.1249987E+03  0.7818608E-02  0.1235071E+00
         -4   -1    0    0    0  501 -0.00000000000E+00  0.00000000000E+00  0.57038375826E+02  0.57052512801E+02  0.12700000000E+01 0.  1.
          4   -1    0    0  501    0  0.00000000000E+00 -0.00000000000E+00 -0.68454664143E+02  0.68466443919E+02  0.12700000000E+01 0.  1.
         25    2    1    2    0    0  0.00000000000E+00  0.00000000000E+00 -0.11416288317E+02  0.12551895672E+03  0.12499870742E+03 0.  0.
    9000005    1    3    3    0    0  0.61253633902E+02  0.12365155217E+02 -0.62245651934E+01  0.62806448248E+02  0.10000000000E+01 0.  0.
    9000005    1    3    3    0    0 -0.61253633902E+02 -0.12365155217E+02 -0.51917231233E+01  0.62712508471E+02  0.10000000000E+01 0.  0.
<mgrwt>
<rscale>  0 0.12499871E+03</rscale>
<asrwt>0</asrwt>
<pdfrwt beam="2">  1        4 0.10533480E-01 0.12499871E+03</pdfrwt>
<pdfrwt beam="1">  1       -4 0.87771284E-02 0.12499871E+03</pdfrwt>
<totfact> 0.10441840E+04</totfact>
</mgrwt>
</event>
<event>
 5    1  0.3217852E-002  0.1249954E+03  0.7818608E-02  0.1235077E+00
          4   -1    0    0  501    0  0.00000000000E+00  0.00000000000E+00  0.65743364936E+02  0.65755630429E+02  0.12700000000E+01 0.  1.
         -4   -1    0    0    0  501 -0.00000000000E+00 -0.00000000000E+00 -0.59387652866E+02  0.59401230736E+02  0.12700000000E+01 0.  1.
         25    2    1    2    0    0  0.00000000000E+00  0.00000000000E+00  0.63557120699E+01  0.12515686117E+03  0.12499537920E+03 0.  0.
    9000005    1    3    3    0    0 -0.13526986887E+02 -0.31027182902E+02  0.55774717586E+02  0.65249402870E+02  0.10000000000E+01 0.  0.
    9000005    1    3    3    0    0  0.13526986887E+02  0.31027182902E+02 -0.49419005516E+02  0.59907458295E+02  0.10000000000E+01 0.  0.
<mgrwt>
<rscale>  0 0.12499538E+03</rscale>
<asrwt>0</asrwt>
<pdfrwt beam="1">  1        4 0.10116352E-01 0.12499538E+03</pdfrwt>
<pdfrwt beam="2">  1       -4 0.91385500E-02 0.12499538E+03</pdfrwt>
<totfact> 0.10450548E+04</totfact>
</mgrwt>
</event>
<event>
 5    1  0.3217852E-002  0.1250020E+03  0.7818608E-02  0.1235066E+00
         -4   -1    0    0    0  501 -0.00000000000E+00  0.00000000000E+00  0.31680439593E+02  0.31705885145E+02  0.12700000000E+01 0.  1.
          4   -1    0    0  501    0  0.00000000000E+00 -0.00000000000E+00 -0.12322731345E+03  0.12323385768E+03  0.12700000000E+01 0.  1.
         25    2    1    2    0    0  0.00000000000E+00  0.00000000000E+00 -0.91546873854E+02  0.15493974283E+03  0.12500197516E+03 0.  0.
    9000005    1    3    3    0    0  0.16966774368E+02 -0.60073849141E+02 -0.49415678253E+02  0.79621906787E+02  0.10000000000E+01 0.  0.
    9000005    1    3    3    0    0 -0.16966774368E+02  0.60073849141E+02 -0.42131195601E+02  0.75317836041E+02  0.10000000000E+01 0.  0.
<mgrwt>
<rscale>  0 0.12500198E+03</rscale>
<asrwt>0</asrwt>
<pdfrwt beam="2">  1        4 0.18960509E-01 0.12500198E+03</pdfrwt>
<pdfrwt beam="1">  1       -4 0.48763746E-02 0.12500198E+03</pdfrwt>
<totfact> 0.98322962E+03</totfact>
</mgrwt>
</event>
<event>
 5    1  0.3217852E-002  0.1250020E+03  0.7818608E-02  0.1235066E+00
          4   -1    0    0  501    0  0.00000000000E+00  0.00000000000E+00  0.15387763728E+03  0.15388287805E+03  0.12700000000E+01 0.  1.
         -4   -1    0    0    0  501 -0.00000000000E+00 -0.00000000000E+00 -0.25364677327E+02  0.25396451640E+02  0.12700000000E+01 0.  1.
         25    2    1    2    0    0  0.00000000000E+00  0.00000000000E+00  0.12851295996E+03  0.17927932969E+03  0.12500198869E+03 0.  0.
    9000005    1    3    3    0    0 -0.32925252465E+02  0.44181322736E+02  0.10654293960E+03  0.11995190497E+03  0.10000000000E+01 0.  0.
    9000005    1    3    3    0    0  0.32925252465E+02 -0.44181322736E+02  0.21970020359E+02  0.59327424714E+02  0.10000000000E+01 0.  0.
<mgrwt>
<rscale>  0 0.12500199E+03</rscale>
<asrwt>0</asrwt>
<pdfrwt beam="1">  1        4 0.23676330E-01 0.12500199E+03</pdfrwt>
<pdfrwt beam="2">  1       -4 0.39051053E-02 0.12500199E+03</pdfrwt>
<totfact> 0.93742706E+03</totfact>
</mgrwt>
</event>
<event>
 5    1  0.3217852E-002  0.1249981E+03  0.7818608E-02  0.1235072E+00
          4   -1    0    0  501    0  0.00000000000E+00  0.00000000000E+00  0.81596449222E+02  0.81606332020E+02  0.12700000000E+01 0.  1.
         -4   -1    0    0    0  501 -0.00000000000E+00 -0.00000000000E+00 -0.47850100747E+02  0.47866951454E+02  0.12700000000E+01 0.  1.
         25    2    1    2    0    0  0.00000000000E+00  0.00000000000E+00  0.33746348475E+02  0.12947328347E+03  0.12499806038E+03 0.  0.
    9000005    1    3    3    0    0  0.40475914472E+02 -0.37464128116E+02  0.47306524630E+02  0.72668891696E+02  0.10000000000E+01 0.  0.
    9000005    1    3    3    0    0 -0.40475914472E+02  0.37464128116E+02 -0.13560176154E+02  0.56804391777E+02  0.10000000000E+01 0.  0.
<mgrwt>
<rscale>  0 0.12499806E+03</rscale>
<asrwt>0</asrwt>
<pdfrwt beam="1">  1        4 0.12555356E-01 0.12499806E+03</pdfrwt>
<pdfrwt beam="2">  1       -4 0.73636104E-02 0.12499806E+03</pdfrwt>
<totfact> 0.10356241E+04</totfact>
</mgrwt>
</event>
<event>
 5    1  0.3217852E-002  0.1249820E+03  0.7818608E-02  0.1235097E+00
         -4   -1    0    0    0  501 -0.00000000000E+00  0.00000000000E+00  0.51336663176E+02  0.51352369819E+02  0.12700000000E+01 0.  1.
          4   -1    0    0  501    0  0.00000000000E+00 -0.00000000000E+00 -0.76036238723E+02  0.76046844110E+02  0.12700000000E+01 0.  1.
         25    2    1    2    0    0  0.00000000000E+00  0.00000000000E+00 -0.24699575547E+02  0.12739921393E+03  0.12498196141E+03 0.  0.
    9000005    1    3    3    0    0  0.35593782231E+01  0.26182807501E+02  0.45366096281E+02  0.52509915957E+02  0.10000000000E+01 0.  0.
    9000005    1    3    3    0    0 -0.35593782231E+01 -0.26182807501E+02 -0.70065671828E+02  0.74889297972E+02  0.10000000000E+01 0.  0.
<mgrwt>
<rscale>  0 0.12498196E+03</rscale>
<asrwt>0</asrwt>
<pdfrwt beam="2">  1        4 0.11699907E-01 0.12498196E+03</pdfrwt>
<pdfrwt beam="1">  1       -4 0.78999722E-02 0.12498196E+03</pdfrwt>
<totfact> 0.10404720E+04</totfact>
</mgrwt>
</event>
<event>
 5    1  0.3217852E-002  0.1250040E+03  0.7818608E-02  0.1235063E+00
         -4   -1    0    0    0  501 -0.00000000000E+00  0.00000000000E+00  0.13437389998E+03  0.13437990138E+03  0.12700000000E+01 0. -1.
          4   -1    0    0  501    0  0.00000000000E+00 -0.00000000000E+00 -0.29051345642E+02  0.29079091864E+02  0.12700000000E+01 0. -1.
         25    2    1    2    0    0  0.00000000000E+00  0.00000000000E+00  0.10532255434E+03  0.16345899325E+03  0.12500400802E+03 0.  0.
    9000005    1    3    3    0    0  0.57645695902E+01 -0.54945516606E+02  0.14464590778E+02  0.57117987045E+02  0.10000000000E+01 0.  0.
    9000005    1    3    3    0    0 -0.57645695902E+01  0.54945516606E+02  0.90857963559E+02  0.10634100620E+03  0.10000000000E+01 0.  0.
<mgrwt>
<rscale>  0 0.12500401E+03</rscale>
<asrwt>0</asrwt>
<pdfrwt beam="2">  1        4 0.44720337E-02 0.12500401E+03</pdfrwt>
<pdfrwt beam="1">  1       -4 0.20675504E-01 0.12500401E+03</pdfrwt>
<totfact> 0.96671327E+03</totfact>
</mgrwt>
</event>
<event>
 5    1  0.3217852E-002  0.1249892E+03  0.7818608E-02  0.1235086E+00
          4   -1    0    0  501    0  0.00000000000E+00  0.00000000000E+00  0.10782694822E+02  0.10857228358E+02  0.12700000000E+01 0.  1.
         -4   -1    0    0    0  501 -0.00000000000E+00 -0.00000000000E+00 -0.36088464274E+03  0.36088687738E+03  0.12700000000E+01 0.  1.
         25    2    1    2    0    0  0.00000000000E+00  0.00000000000E+00 -0.35010194791E+03  0.37174410573E+03  0.12498922440E+03 0.  0.
    9000005    1    3    3    0    0 -0.23372360875E+02 -0.11484671111E+02 -0.61113958231E+01  0.26767780676E+02  0.10000000000E+01 0.  0.
    9000005    1    3    3    0    0  0.23372360875E+02  0.11484671111E+02 -0.34399055209E+03  0.34497632506E+03  0.10000000000E+01 0.  0.
<mgrwt>
<rscale>  0 0.12498922E+03</rscale>
<asrwt>0</asrwt>
<pdfrwt beam="1">  1        4 0.16647817E-02 0.12498922E+03</pdfrwt>
<pdfrwt beam="2">  1       -4 0.55526610E-01 0.12498922E+03</pdfrwt>
<totfact> 0.67412926E+03</totfact>
</mgrwt>
</event>
<event>
 5    1  0.3217852E-002  0.1249996E+03  0.7818608E-02  0.1235070E+00
         -4   -1    0    0    0  501 -0.00000000000E+00  0.00000000000E+00  0.28898365001E+02  0.28926257963E+02  0.12700000000E+01 0.  1.
          4   -1    0    0  501    0  0.00000000000E+00 -0.00000000000E+00 -0.13507512103E+03  0.13508109128E+03  0.12700000000E+01 0.  1.
         25    2    1    2    0    0  0.00000000000E+00  0.00000000000E+00 -0.10617675603E+03  0.16400734924E+03  0.12499962834E+03 0.  0.
    9000005    1    3    3    0    0  0.59013938672E+02  0.20541215534E+02 -0.54138256141E+02  0.82683355467E+02  0.10000000000E+01 0.  0.
    9000005    1    3    3    0    0 -0.59013938672E+02 -0.20541215534E+02 -0.52038499889E+02  0.81323993777E+02  0.10000000000E+01 0.  0.
<mgrwt>
<rscale>  0 0.12499963E+03</rscale>
<asrwt>0</asrwt>
<pdfrwt beam="2">  1        4 0.20783392E-01 0.12499963E+03</pdfrwt>
<pdfrwt beam="1">  1       -4 0.44485073E-02 0.12499963E+03</pdfrwt>
<totfact> 0.96576522E+03</totfact>
</mgrwt>
</event>
<event>
 5    1  0.3217852E-002  0.1250066E+03  0.7818608E-02  0.1235059E+00
          4   -1    0    0  501    0  0.00000000000E+00  0.00000000000E+00  0.22126434367E+02  0.22162851752E+02  0.12700000000E+01 0.  1.
         -4   -1    0    0    0  501 -0.00000000000E+00 -0.00000000000E+00 -0.17637697479E+03  0.17638154703E+03  0.12700000000E+01 0.  1.
         25    2    1    2    0    0  0.00000000000E+00  0.00000000000E+00 -0.15425054042E+03  0.19854439879E+03  0.12500659611E+03 0.  0.
    9000005    1    3    3    0    0 -0.12186848230E+02 -0.41621214549E+02 -0.14859426148E+03  0.15479696159E+03  0.10000000000E+01 0.  0.
    9000005    1    3    3    0    0  0.12186848230E+02  0.41621214549E+02 -0.56562789346E+01  0.43747437201E+02  0.10000000000E+01 0.  0.
<mgrwt>
<rscale>  0 0.12500660E+03</rscale>
<asrwt>0</asrwt>
<pdfrwt beam="1">  1        4 0.34072200E-02 0.12500660E+03</pdfrwt>
<pdfrwt beam="2">  1       -4 0.27138071E-01 0.12500660E+03</pdfrwt>
<totfact> 0.90368163E+03</totfact>
</mgrwt>
</event>
<event>
 5    1  0.3217852E-002  0.1249991E+03  0.7818608E-02  0.1235071E+00
          4   -1    0    0  501    0  0.00000000000E+00  0.00000000000E+00  0.27497022724E+02  0.27526335730E+02  0.12700000000E+01 0.  1.
         -4   -1    0    0    0  501 -0.00000000000E+00 -0.00000000000E+00 -0.14195105913E+03  0.14195674020E+03  0.12700000000E+01 0.  1.
         25    2    1    2    0    0  0.00000000000E+00  0.00000000000E+00 -0.11445403640E+03  0.16948307593E+03  0.12499914630E+03 0.  0.
    9000005    1    3    3    0    0 -0.60999809823E+01 -0.54935622083E+02 -0.96758689883E+02  0.11143776922E+03  0.10000000000E+01 0.  0.
    9000005    1    3    3    0    0  0.60999809823E+01  0.54935622083E+02 -0.17695346519E+02  0.58045306702E+02  0.10000000000E+01 0.  0.
<mgrwt>
<rscale>  0 0.12499915E+03</rscale>
<asrwt>0</asrwt>
<pdfrwt beam="1">  1        4 0.42330031E-02 0.12499915E+03</pdfrwt>
<pdfrwt beam="2">  1       -4 0.21841316E-01 0.12499915E+03</pdfrwt>
<totfact> 0.95546872E+03</totfact>
</mgrwt>
</event>
<event>
 5    1  0.3217852E-002  0.1249989E+03  0.7818608E-02  0.1235071E+00
         -4   -1    0    0    0  501 -0.00000000000E+00  0.00000000000E+00  0.18736937590E+03  0.18737367992E+03  0.12700000000E+01 0.  1.
          4   -1    0    0  501    0  0.00000000000E+00 -0.00000000000E+00 -0.20823611721E+02  0.20862303447E+02  0.12700000000E+01 0.  1.
         25    2    1    2    0    0  0.00000000000E+00  0.00000000000E+00  0.16654576418E+03  0.20823598337E+03  0.12499893280E+03 0.  0.
    9000005    1    3    3    0    0  0.36481588018E+02  0.32269500008E+02  0.14849792526E+03  0.15628455042E+03  0.10000000000E+01 0.  0.
    9000005    1    3    3    0    0 -0.36481588018E+02 -0.32269500008E+02  0.18047838926E+02  0.51951432944E+02  0.10000000000E+01 0.  0.
<mgrwt>
<rscale>  0 0.12499893E+03</rscale>
<asrwt>0</asrwt>
<pdfrwt beam="2">  1        4 0.32069401E-02 0.12499893E+03</pdfrwt>
<pdfrwt beam="1">  1       -4 0.28829364E-01 0.12499893E+03</pdfrwt>
<totfact> 0.88766899E+03</totfact>
</mgrwt>
</event>
<event>
 5    1  0.3217852E-002  0.1250024E+03  0.7818608E-02  0.1235066E+00
          4   -1    0    0  501    0  0.00000000000E+00  0.00000000000E+00  0.16258933390E+03  0.16259429386E+03  0.12700000000E+01 0.  1.
         -4   -1    0    0    0  501 -0.00000000000E+00 -0.00000000000E+00 -0.24004050941E+02  0.24037623875E+02  0.12700000000E+01 0.  1.
         25    2    1    2    0    0  0.00000000000E+00  0.00000000000E+00  0.13858528296E+03  0.18663191774E+03  0.12500236825E+03 0.  0.
    9000005    1    3    3    0    0  0.15480805750E+01 -0.58181936544E+02  0.10326888982E+03  0.11854534111E+03  0.10000000000E+01 0.  0.
    9000005    1    3    3    0    0 -0.15480805750E+01  0.58181936544E+02  0.35316393137E+02  0.68086576633E+02  0.10000000000E+01 0.  0.
<mgrwt>
<rscale>  0 0.12500237E+03</rscale>
<asrwt>0</asrwt>
<pdfrwt beam="1">  1        4 0.25016708E-01 0.12500237E+03</pdfrwt>
<pdfrwt beam="2">  1       -4 0.36958950E-02 0.12500237E+03</pdfrwt>
<totfact> 0.92431769E+03</totfact>
</mgrwt>
</event>
<event>
 5    1  0.3217852E-002  0.1250014E+03  0.7818608E-02  0.1235067E+00
          4   -1    0    0  501    0  0.00000000000E+00  0.00000000000E+00  0.78805933139E+03  0.78806035472E+03  0.12700000000E+01 0. -1.
         -4   -1    0    0    0  501 -0.00000000000E+00 -0.00000000000E+00 -0.48745179479E+01  0.50372438122E+01  0.12700000000E+01 0. -1.
         25    2    1    2    0    0  0.00000000000E+00  0.00000000000E+00  0.78318481344E+03  0.79309759853E+03  0.12500139519E+03 0.  0.
    9000005    1    3    3    0    0 -0.32093449020E+02 -0.30439036029E+02  0.67168191295E+03  0.67313751684E+03  0.10000000000E+01 0.  0.
    9000005    1    3    3    0    0  0.32093449020E+02  0.30439036029E+02  0.11150290048E+03  0.11996008170E+03  0.10000000000E+01 0.  0.
<mgrwt>
<rscale>  0 0.12500140E+03</rscale>
<asrwt>0</asrwt>
<pdfrwt beam="1">  1        4 0.12125246E+00 0.12500140E+03</pdfrwt>
<pdfrwt beam="2">  1       -4 0.76252213E-03 0.12500140E+03</pdfrwt>
<totfact> 0.38573564E+03</totfact>
</mgrwt>
</event>
<event>
 5    1  0.3217852E-002  0.1249979E+03  0.7818608E-02  0.1235073E+00
          4   -1    0    0  501    0  0.00000000000E+00  0.00000000000E+00  0.39189536321E+02  0.39210109118E+02  0.12700000000E+01 0. -1.
         -4   -1    0    0    0  501 -0.00000000000E+00 -0.00000000000E+00 -0.99621653082E+02  0.99629747881E+02  0.12700000000E+01 0. -1.
         25    2    1    2    0    0  0.00000000000E+00  0.00000000000E+00 -0.60432116761E+02  0.13883985700E+03  0.12499786060E+03 0.  0.
    9000005    1    3    3    0    0  0.11541084048E+02  0.60338513422E+02 -0.17494183262E+02  0.63882542771E+02  0.10000000000E+01 0.  0.
    9000005    1    3    3    0    0 -0.11541084048E+02 -0.60338513422E+02 -0.42937933499E+02  0.74957314227E+02  0.10000000000E+01 0.  0.
<mgrwt>
<rscale>  0 0.12499786E+03</rscale>
<asrwt>0</asrwt>
<pdfrwt beam="1">  1        4 0.60313647E-02 0.12499786E+03</pdfrwt>
<pdfrwt beam="2">  1       -4 0.15328613E-01 0.12499786E+03</pdfrwt>
<totfact> 0.10158177E+04</totfact>
</mgrwt>
</event>
<event>
 5    1  0.3217852E-002  0.1250000E+03  0.7818608E-02  0.1235069E+00
         -4   -1    0    0    0  501 -0.00000000000E+00  0.00000000000E+00  0.47807733552E+01  0.49465840611E+01  0.12700000000E+01 0. -1.
          4   -1    0    0  501    0  0.00000000000E+00 -0.00000000000E+00 -0.80298112049E+03  0.80298212481E+03  0.12700000000E+01 0. -1.
         25    2    1    2    0    0  0.00000000000E+00  0.00000000000E+00 -0.79820034713E+03  0.80792870887E+03  0.12500001780E+03 0.  0.
    9000005    1    3    3    0    0  0.13033408099E+02  0.56295679354E+02 -0.55289418033E+03  0.55590651002E+03  0.10000000000E+01 0.  0.
    9000005    1    3    3    0    0 -0.13033408099E+02 -0.56295679354E+02 -0.24530616680E+03  0.25202219885E+03  0.10000000000E+01 0.  0.
<mgrwt>
<rscale>  0 0.12500002E+03</rscale>
<asrwt>0</asrwt>
<pdfrwt beam="2">  1        4 0.12354828E+00 0.12500002E+03</pdfrwt>
<pdfrwt beam="1">  1       -4 0.74833616E-03 0.12500002E+03</pdfrwt>
<totfact> 0.37913223E+03</totfact>
</mgrwt>
</event>
<event>
 5    1  0.3217852E-002  0.1249994E+03  0.7818608E-02  0.1235070E+00
          4   -1    0    0  501    0  0.00000000000E+00  0.00000000000E+00  0.41333122609E+03  0.41333317718E+03  0.12700000000E+01 0.  1.
         -4   -1    0    0    0  501 -0.00000000000E+00 -0.00000000000E+00 -0.94059173644E+01  0.94912686964E+01  0.12700000000E+01 0.  1.
         25    2    1    2    0    0  0.00000000000E+00  0.00000000000E+00  0.40392530872E+03  0.42282444588E+03  0.12499942802E+03 0.  0.
    9000005    1    3    3    0    0 -0.35821119492E+02 -0.48188116493E+02  0.26054798149E+03  0.26737894051E+03  0.10000000000E+01 0.  0.
    9000005    1    3    3    0    0  0.35821119492E+02  0.48188116493E+02  0.14337732724E+03  0.15544550536E+03  0.10000000000E+01 0.  0.
<mgrwt>
<rscale>  0 0.12499943E+03</rscale>
<asrwt>0</asrwt>
<pdfrwt beam="1">  1        4 0.63596138E-01 0.12499943E+03</pdfrwt>
<pdfrwt beam="2">  1       -4 0.14537797E-02 0.12499943E+03</pdfrwt>
<totfact> 0.62392624E+03</totfact>
</mgrwt>
</event>
<event>
 5    1  0.3217852E-002  0.1250022E+03  0.7818608E-02  0.1235066E+00
          4   -1    0    0  501    0  0.00000000000E+00  0.00000000000E+00  0.46578701633E+01  0.48279037333E+01  0.12700000000E+01 0.  1.
         -4   -1    0    0    0  501 -0.00000000000E+00 -0.00000000000E+00 -0.82345996603E+03  0.82346094537E+03  0.12700000000E+01 0.  1.
         25    2    1    2    0    0  0.00000000000E+00  0.00000000000E+00 -0.81880209587E+03  0.82828884911E+03  0.12500218141E+03 0.  0.
    9000005    1    3    3    0    0  0.24497231345E+02 -0.32682385680E+02 -0.95992967774E+02  0.10432594375E+03  0.10000000000E+01 0.  0.
    9000005    1    3    3    0    0 -0.24497231345E+02  0.32682385680E+02 -0.72280912809E+03  0.72396290536E+03  0.10000000000E+01 0.  0.
<mgrwt>
<rscale>  0 0.12500218E+03</rscale>
<asrwt>0</asrwt>
<pdfrwt beam="1">  1        4 0.72975090E-03 0.12500218E+03</pdfrwt>
<pdfrwt beam="2">  1       -4 0.12669919E+00 0.12500218E+03</pdfrwt>
<totfact> 0.37030861E+03</totfact>
</mgrwt>
</event>
<event>
 5    1  0.3217852E-002  0.1250037E+03  0.7818608E-02  0.1235063E+00
         -4   -1    0    0    0  501 -0.00000000000E+00  0.00000000000E+00  0.56827346870E+01  0.58229179561E+01  0.12700000000E+01 0. -1.
          4   -1    0    0  501    0  0.00000000000E+00 -0.00000000000E+00 -0.67891366825E+03  0.67891485610E+03  0.12700000000E+01 0. -1.
         25    2    1    2    0    0  0.00000000000E+00  0.00000000000E+00 -0.67323093356E+03  0.68473777406E+03  0.12500371721E+03 0.  0.
    9000005    1    3    3    0    0 -0.33239779586E+02 -0.41182016245E+02 -0.15455656337E+03  0.16336943621E+03  0.10000000000E+01 0.  0.
    9000005    1    3    3    0    0  0.33239779586E+02  0.41182016245E+02 -0.51867437020E+03  0.52136833784E+03  0.10000000000E+01 0.  0.
<mgrwt>
<rscale>  0 0.12500372E+03</rscale>
<asrwt>0</asrwt>
<pdfrwt beam="2">  1        4 0.10445907E+00 0.12500372E+03</pdfrwt>
<pdfrwt beam="1">  1       -4 0.88514211E-03 0.12500372E+03</pdfrwt>
<totfact> 0.43901156E+03</totfact>
</mgrwt>
</event>
<event>
 5    1  0.3217852E-002  0.1250257E+03  0.7818608E-02  0.1235029E+00
          4   -1    0    0  501    0  0.00000000000E+00  0.00000000000E+00  0.37183265847E+02  0.37204948045E+02  0.12700000000E+01 0. -1.
         -4   -1    0    0    0  501 -0.00000000000E+00 -0.00000000000E+00 -0.10504107433E+03  0.10504875152E+03  0.12700000000E+01 0. -1.
         25    2    1    2    0    0  0.00000000000E+00  0.00000000000E+00 -0.67857808486E+02  0.14225369957E+03  0.12502572883E+03 0.  0.
    9000005    1    3    3    0    0  0.60977253652E+01  0.43738069283E+02 -0.84258281184E+02  0.95134951029E+02  0.10000000000E+01 0.  0.
    9000005    1    3    3    0    0 -0.60977253652E+01 -0.43738069283E+02  0.16400472698E+02  0.47118748540E+02  0.10000000000E+01 0.  0.
<mgrwt>
<rscale>  0 0.12502573E+03</rscale>
<asrwt>0</asrwt>
<pdfrwt beam="1">  1        4 0.57227609E-02 0.12502573E+03</pdfrwt>
<pdfrwt beam="2">  1       -4 0.16162424E-01 0.12502573E+03</pdfrwt>
<totfact> 0.10081245E+04</totfact>
</mgrwt>
</event>
<event>
 5    1  0.3217852E-002  0.1249968E+03  0.7818608E-02  0.1235074E+00
         -4   -1    0    0    0  501 -0.00000000000E+00  0.00000000000E+00  0.24260609803E+03  0.24260942212E+03  0.12700000000E+01 0.  1.
          4   -1    0    0  501    0  0.00000000000E+00 -0.00000000000E+00 -0.16071891927E+02  0.16121991506E+02  0.12700000000E+01 0.  1.
         25    2    1    2    0    0  0.00000000000E+00  0.00000000000E+00  0.22653420610E+03  0.25873141362E+03  0.12499679140E+03 0.  0.
    9000005    1    3    3    0    0  0.42262898509E+02 -0.37138007104E+02  0.56972349809E+02  0.80076418531E+02  0.10000000000E+01 0.  0.
    9000005    1    3    3    0    0 -0.42262898509E+02  0.37138007104E+02  0.16956185629E+03  0.17865499509E+03  0.10000000000E+01 0.  0.
<mgrwt>
<rscale>  0 0.12499679E+03</rscale>
<asrwt>0</asrwt>
<pdfrwt beam="2">  1        4 0.24767084E-02 0.12499679E+03</pdfrwt>
<pdfrwt beam="1">  1       -4 0.37328122E-01 0.12499679E+03</pdfrwt>
<totfact> 0.81090212E+03</totfact>
</mgrwt>
</event>
<event>
 5    1  0.3217852E-002  0.1249993E+03  0.7818608E-02  0.1235070E+00
          4   -1    0    0  501    0  0.00000000000E+00  0.00000000000E+00  0.43188748155E+02  0.43207416807E+02  0.12700000000E+01 0.  1.
         -4   -1    0    0    0  501 -0.00000000000E+00 -0.00000000000E+00 -0.90402389673E+02  0.90411309905E+02  0.12700000000E+01 0.  1.
         25    2    1    2    0    0  0.00000000000E+00  0.00000000000E+00 -0.47213641519E+02  0.13361872671E+03  0.12499934473E+03 0.  0.
    9000005    1    3    3    0    0  0.49654109814E+02  0.36011504424E+02 -0.10830680397E+02  0.62294965368E+02  0.10000000000E+01 0.  0.
    9000005    1    3    3    0    0 -0.49654109814E+02 -0.36011504424E+02 -0.36382961122E+02  0.71323761344E+02  0.10000000000E+01 0.  0.
<mgrwt>
<rscale>  0 0.12499934E+03</rscale>
<asrwt>0</asrwt>
<pdfrwt beam="1">  1        4 0.66465450E-02 0.12499934E+03</pdfrwt>
<pdfrwt beam="2">  1       -4 0.13910182E-01 0.12499934E+03</pdfrwt>
<totfact> 0.10267419E+04</totfact>
</mgrwt>
</event>
<event>
 5    1  0.3217852E-002  0.1250004E+03  0.7818608E-02  0.1235069E+00
          4   -1    0    0  501    0  0.00000000000E+00  0.00000000000E+00  0.11575076365E+03  0.11575773056E+03  0.12700000000E+01 0.  1.
         -4   -1    0    0    0  501 -0.00000000000E+00 -0.00000000000E+00 -0.33727355773E+02  0.33751258161E+02  0.12700000000E+01 0.  1.
         25    2    1    2    0    0  0.00000000000E+00  0.00000000000E+00  0.82023407877E+02  0.14950898873E+03  0.12500039308E+03 0.  0.
    9000005    1    3    3    0    0  0.13826998699E+02 -0.35613882698E+02  0.10016256506E+03  0.10720575531E+03  0.10000000000E+01 0.  0.
    9000005    1    3    3    0    0 -0.13826998699E+02  0.35613882698E+02 -0.18139157179E+02  0.42303233411E+02  0.10000000000E+01 0.  0.
<mgrwt>
<rscale>  0 0.12500039E+03</rscale>
<asrwt>0</asrwt>
<pdfrwt beam="1">  1        4 0.17810184E-01 0.12500039E+03</pdfrwt>
<pdfrwt beam="2">  1       -4 0.51911985E-02 0.12500039E+03</pdfrwt>
<totfact> 0.99400784E+03</totfact>
</mgrwt>
</event>
<event>
 5    1  0.3217852E-002  0.1250144E+03  0.7818608E-02  0.1235047E+00
          4   -1    0    0  501    0  0.00000000000E+00  0.00000000000E+00  0.12936346995E+04  0.12936353229E+04  0.12700000000E+01 0. -1.
         -4   -1    0    0    0  501 -0.00000000000E+00 -0.00000000000E+00 -0.28861289931E+01  0.31531952944E+01  0.12700000000E+01 0. -1.
         25    2    1    2    0    0  0.00000000000E+00  0.00000000000E+00  0.12907485705E+04  0.12967885181E+04  0.12501435378E+03 0.  0.
    9000005    1    3    3    0    0 -0.48069353442E+01 -0.59379472936E+02  0.44934742223E+03  0.45328041464E+03  0.10000000000E+01 0.  0.
    9000005    1    3    3    0    0  0.48069353442E+01  0.59379472936E+02  0.84140114823E+03  0.84350810350E+03  0.10000000000E+01 0.  0.
<mgrwt>
<rscale>  0 0.12501435E+03</rscale>
<asrwt>0</asrwt>
<pdfrwt beam="1">  1        4 0.19904089E+00 0.12501435E+03</pdfrwt>
<pdfrwt beam="2">  1       -4 0.46461236E-03 0.12501435E+03</pdfrwt>
<totfact> 0.22297518E+03</totfact>
</mgrwt>
</event>
<event>
 5    1  0.3217852E-002  0.1250004E+03  0.7818608E-02  0.1235069E+00
          4   -1    0    0  501    0  0.00000000000E+00  0.00000000000E+00  0.15254520041E+02  0.15307295048E+02  0.12700000000E+01 0.  1.
         -4   -1    0    0    0  501 -0.00000000000E+00 -0.00000000000E+00 -0.25557692363E+03  0.25558007902E+03  0.12700000000E+01 0.  1.
         25    2    1    2    0    0  0.00000000000E+00  0.00000000000E+00 -0.24032240359E+03  0.27088737407E+03  0.12500044705E+03 0.  0.
    9000005    1    3    3    0    0 -0.49908466567E+02 -0.36469014158E+02 -0.14007415406E+03  0.15310980590E+03  0.10000000000E+01 0.  0.
    9000005    1    3    3    0    0  0.49908466567E+02  0.36469014158E+02 -0.10024824953E+03  0.11777756817E+03  0.10000000000E+01 0.  0.
<mgrwt>
<rscale>  0 0.12500045E+03</rscale>
<asrwt>0</asrwt>
<pdfrwt beam="1">  1        4 0.23511518E-02 0.12500045E+03</pdfrwt>
<pdfrwt beam="2">  1       -4 0.39323826E-01 0.12500045E+03</pdfrwt>
<totfact> 0.79401253E+03</totfact>
</mgrwt>
</event>
<event>
 5    1  0.3217852E-002  0.1249987E+03  0.7818608E-02  0.1235071E+00
         -4   -1    0    0    0  501 -0.00000000000E+00  0.00000000000E+00  0.17977885088E+02  0.18022687153E+02  0.12700000000E+01 0.  1.
          4   -1    0    0  501    0  0.00000000000E+00 -0.00000000000E+00 -0.21695926501E+03  0.21696298204E+03  0.12700000000E+01 0.  1.
         25    2    1    2    0    0  0.00000000000E+00  0.00000000000E+00 -0.19898137993E+03  0.23498566919E+03  0.12499870067E+03 0.  0.
    9000005    1    3    3    0    0  0.55071157917E+02  0.15596537152E+02 -0.14664162742E+03  0.15741934855E+03  0.10000000000E+01 0.  0.
    9000005    1    3    3    0    0 -0.55071157917E+02 -0.15596537152E+02 -0.52339752503E+02  0.77566320640E+02  0.10000000000E+01 0.  0.
<mgrwt>
<rscale>  0 0.12499870E+03</rscale>
<asrwt>0</asrwt>
<pdfrwt beam="2">  1        4 0.33382079E-01 0.12499870E+03</pdfrwt>
<pdfrwt beam="1">  1       -4 0.27695609E-02 0.12499870E+03</pdfrwt>
<totfact> 0.84552327E+03</totfact>
</mgrwt>
</event>
<event>
 5    1  0.3217852E-002  0.1249987E+03  0.7818608E-02  0.1235071E+00
         -4   -1    0    0    0  501 -0.00000000000E+00  0.00000000000E+00  0.10762767320E+03  0.10763516590E+03  0.12700000000E+01 0. -1.
          4   -1    0    0  501    0  0.00000000000E+00 -0.00000000000E+00 -0.36273474787E+02  0.36295700477E+02  0.12700000000E+01 0. -1.
         25    2    1    2    0    0  0.00000000000E+00  0.00000000000E+00  0.71354198413E+02  0.14393086638E+03  0.12499869065E+03 0.  0.
    9000005    1    3    3    0    0  0.50899584250E+02  0.36183461980E+02  0.33062103484E+02  0.70669040495E+02  0.10000000000E+01 0.  0.
    9000005    1    3    3    0    0 -0.50899584250E+02 -0.36183461980E+02  0.38292094929E+02  0.73261825883E+02  0.10000000000E+01 0.  0.
<mgrwt>
<rscale>  0 0.12499869E+03</rscale>
<asrwt>0</asrwt>
<pdfrwt beam="2">  1        4 0.55828207E-02 0.12499869E+03</pdfrwt>
<pdfrwt beam="1">  1       -4 0.16560389E-01 0.12499869E+03</pdfrwt>
<totfact> 0.10053053E+04</totfact>
</mgrwt>
</event>
<event>
 5    1  0.3217852E-002  0.1250032E+03  0.7818608E-02  0.1235064E+00
          4   -1    0    0  501    0  0.00000000000E+00  0.00000000000E+00  0.10084393536E+03  0.10085193205E+03  0.12700000000E+01 0.  1.
         -4   -1    0    0    0  501 -0.00000000000E+00 -0.00000000000E+00 -0.38717653467E+02  0.38738476867E+02  0.12700000000E+01 0.  1.
         25    2    1    2    0    0  0.00000000000E+00  0.00000000000E+00  0.62126281892E+02  0.13959040892E+03  0.12500322940E+03 0.  0.
    9000005    1    3    3    0    0 -0.15499445618E+02  0.60409560867E+02  0.35516495549E+02  0.71777220026E+02  0.10000000000E+01 0.  0.
    9000005    1    3    3    0    0  0.15499445618E+02 -0.60409560867E+02  0.26609786343E+02  0.67813188893E+02  0.10000000000E+01 0.  0.
<mgrwt>
<rscale>  0 0.12500323E+03</rscale>
<asrwt>0</asrwt>
<pdfrwt beam="1">  1        4 0.15516668E-01 0.12500323E+03</pdfrwt>
<pdfrwt beam="2">  1       -4 0.59587791E-02 0.12500323E+03</pdfrwt>
<totfact> 0.10141344E+04</totfact>
</mgrwt>
</event>
<event>
 5    1  0.3217852E-002  0.1250008E+03  0.7818608E-02  0.1235068E+00
         -4   -1    0    0    0  501 -0.00000000000E+00  0.00000000000E+00  0.63461015208E+02  0.63473721738E+02  0.12700000000E+01 0.  1.
          4   -1    0    0  501    0  0.00000000000E+00 -0.00000000000E+00 -0.61528926573E+02  0.61542032020E+02  0.12700000000E+01 0.  1.
         25    2    1    2    0    0  0.00000000000E+00  0.00000000000E+00  0.19320886354E+01  0.12501575376E+03  0.12500082288E+03 0.  0.
    9000005    1    3    3    0    0 -0.28662530930E+02  0.13862972852E+02 -0.52813780452E+02  0.61676722524E+02  0.10000000000E+01 0.  0.
    9000005    1    3    3    0    0  0.28662530930E+02 -0.13862972852E+02  0.54745869087E+02  0.63339031235E+02  0.10000000000E+01 0.  0.
<mgrwt>
<rscale>  0 0.12500082E+03</rscale>
<asrwt>0</asrwt>
<pdfrwt beam="2">  1        4 0.94679743E-02 0.12500082E+03</pdfrwt>
<pdfrwt beam="1">  1       -4 0.97652186E-02 0.12500082E+03</pdfrwt>
<totfact> 0.10452326E+04</totfact>
</mgrwt>
</event>
<event>
 5    1  0.3217852E-002  0.1249994E+03  0.7818608E-02  0.1235070E+00
         -4   -1    0    0    0  501 -0.00000000000E+00  0.00000000000E+00  0.16505162774E+02  0.16553951135E+02  0.12700000000E+01 0.  1.
          4   -1    0    0  501    0  0.00000000000E+00 -0.00000000000E+00 -0.23626627538E+03  0.23626968866E+03  0.12700000000E+01 0.  1.
         25    2    1    2    0    0  0.00000000000E+00  0.00000000000E+00 -0.21976111260E+03  0.25282363980E+03  0.12499938491E+03 0.  0.
    9000005    1    3    3    0    0 -0.73148973608E+01  0.21635103929E+02 -0.22753300954E+03  0.22867849893E+03  0.10000000000E+01 0.  0.
    9000005    1    3    3    0    0  0.73148973608E+01 -0.21635103929E+02  0.77718969336E+01  0.24145140864E+02  0.10000000000E+01 0.  0.
<mgrwt>
<rscale>  0 0.12499938E+03</rscale>
<asrwt>0</asrwt>
<pdfrwt beam="2">  1        4 0.36352671E-01 0.12499938E+03</pdfrwt>
<pdfrwt beam="1">  1       -4 0.25432715E-02 0.12499938E+03</pdfrwt>
<totfact> 0.81924953E+03</totfact>
</mgrwt>
</event>
<event>
 5    1  0.3217852E-002  0.1249994E+03  0.7818608E-02  0.1235070E+00
          4   -1    0    0  501    0  0.00000000000E+00  0.00000000000E+00  0.15097319959E+03  0.15097854117E+03  0.12700000000E+01 0.  1.
         -4   -1    0    0    0  501 -0.00000000000E+00 -0.00000000000E+00 -0.25852168721E+02  0.25883344598E+02  0.12700000000E+01 0.  1.
         25    2    1    2    0    0  0.00000000000E+00  0.00000000000E+00  0.12512103087E+03  0.17686188577E+03  0.12499941709E+03 0.  0.
    9000005    1    3    3    0    0 -0.42412722556E+02 -0.39239521253E+02  0.96240956662E+02  0.11225818813E+03  0.10000000000E+01 0.  0.
    9000005    1    3    3    0    0  0.42412722556E+02  0.39239521253E+02  0.28880074208E+02  0.64603697642E+02  0.10000000000E+01 0.  0.
<mgrwt>
<rscale>  0 0.12499942E+03</rscale>
<asrwt>0</asrwt>
<pdfrwt beam="1">  1        4 0.23229455E-01 0.12499942E+03</pdfrwt>
<pdfrwt beam="2">  1       -4 0.39800657E-02 0.12499942E+03</pdfrwt>
<totfact> 0.94186174E+03</totfact>
</mgrwt>
</event>
<event>
 5    1  0.3217852E-002  0.1249960E+03  0.7818608E-02  0.1235076E+00
          4   -1    0    0  501    0  0.00000000000E+00  0.00000000000E+00  0.40023763868E+02  0.40043908078E+02  0.12700000000E+01 0. -1.
         -4   -1    0    0    0  501 -0.00000000000E+00 -0.00000000000E+00 -0.97543148732E+02  0.97551416005E+02  0.12700000000E+01 0. -1.
         25    2    1    2    0    0  0.00000000000E+00  0.00000000000E+00 -0.57519384864E+02  0.13759532408E+03  0.12499597423E+03 0.  0.
    9000005    1    3    3    0    0 -0.29466594172E+02 -0.37494116823E+02 -0.73214892685E+02  0.87381402365E+02  0.10000000000E+01 0.  0.
    9000005    1    3    3    0    0  0.29466594172E+02  0.37494116823E+02  0.15695507821E+02  0.50213921717E+02  0.10000000000E+01 0.  0.
<mgrwt>
<rscale>  0 0.12499597E+03</rscale>
<asrwt>0</asrwt>
<pdfrwt beam="1">  1        4 0.61596877E-02 0.12499597E+03</pdfrwt>
<pdfrwt beam="2">  1       -4 0.15008824E-01 0.12499597E+03</pdfrwt>
<totfact> 0.10184577E+04</totfact>
</mgrwt>
</event>
<event>
 5    1  0.3217852E-002  0.1249987E+03  0.7818608E-02  0.1235071E+00
          4   -1    0    0  501    0  0.00000000000E+00  0.00000000000E+00  0.99414484731E+02  0.99422596397E+02  0.12700000000E+01 0. -1.
         -4   -1    0    0    0  501 -0.00000000000E+00 -0.00000000000E+00 -0.39271767635E+02  0.39292297377E+02  0.12700000000E+01 0. -1.
         25    2    1    2    0    0  0.00000000000E+00  0.00000000000E+00  0.60142717096E+02  0.13871489377E+03  0.12499870133E+03 0.  0.
    9000005    1    3    3    0    0  0.31252221249E+02 -0.53567721357E+02  0.21549759178E+02  0.65662730868E+02  0.10000000000E+01 0.  0.
    9000005    1    3    3    0    0 -0.31252221249E+02  0.53567721357E+02  0.38592957918E+02  0.73052162906E+02  0.10000000000E+01 0.  0.
<mgrwt>
<rscale>  0 0.12499870E+03</rscale>
<asrwt>0</asrwt>
<pdfrwt beam="1">  1        4 0.15296739E-01 0.12499870E+03</pdfrwt>
<pdfrwt beam="2">  1       -4 0.60440135E-02 0.12499870E+03</pdfrwt>
<totfact> 0.10160587E+04</totfact>
</mgrwt>
</event>
<event>
 5    1  0.3217852E-002  0.1249983E+03  0.7818608E-02  0.1235072E+00
         -4   -1    0    0    0  501 -0.00000000000E+00  0.00000000000E+00  0.24818772019E+03  0.24819096953E+03  0.12700000000E+01 0.  1.
          4   -1    0    0  501    0  0.00000000000E+00 -0.00000000000E+00 -0.15709684166E+02  0.15760935144E+02  0.12700000000E+01 0.  1.
         25    2    1    2    0    0  0.00000000000E+00  0.00000000000E+00  0.23247803603E+03  0.26395190467E+03  0.12499828297E+03 0.  0.
    9000005    1    3    3    0    0 -0.15844554407E+02  0.34499386692E+02  0.11422198318E+02  0.39657586927E+02  0.10000000000E+01 0.  0.
    9000005    1    3    3    0    0  0.15844554407E+02 -0.34499386692E+02  0.22105583771E+03  0.22429431774E+03  0.10000000000E+01 0.  0.
<mgrwt>
<rscale>  0 0.12499828E+03</rscale>
<asrwt>0</asrwt>
<pdfrwt beam="2">  1        4 0.24210669E-02 0.12499828E+03</pdfrwt>
<pdfrwt beam="1">  1       -4 0.38186917E-01 0.12499828E+03</pdfrwt>
<totfact> 0.80357716E+03</totfact>
</mgrwt>
</event>
<event>
 5    1  0.3217852E-002  0.1249959E+03  0.7818608E-02  0.1235076E+00
         -4   -1    0    0    0  501 -0.00000000000E+00  0.00000000000E+00  0.83626794731E+02  0.83636437615E+02  0.12700000000E+01 0. -1.
          4   -1    0    0  501    0  0.00000000000E+00 -0.00000000000E+00 -0.46686497905E+02  0.46703768441E+02  0.12700000000E+01 0. -1.
         25    2    1    2    0    0  0.00000000000E+00  0.00000000000E+00  0.36940296826E+02  0.13034020606E+03  0.12499593507E+03 0.  0.
    9000005    1    3    3    0    0  0.29202734980E+02 -0.55242516066E+02  0.17762429488E+02  0.64969525264E+02  0.10000000000E+01 0.  0.
    9000005    1    3    3    0    0 -0.29202734980E+02  0.55242516066E+02  0.19177867338E+02  0.65370680793E+02  0.10000000000E+01 0.  0.
<mgrwt>
<rscale>  0 0.12499594E+03</rscale>
<asrwt>0</asrwt>
<pdfrwt beam="2">  1        4 0.71846084E-02 0.12499594E+03</pdfrwt>
<pdfrwt beam="1">  1       -4 0.12867731E-01 0.12499594E+03</pdfrwt>
<totfact> 0.10338184E+04</totfact>
</mgrwt>
</event>
<event>
 5    1  0.3217852E-002  0.1250019E+03  0.7818608E-02  0.1235066E+00
         -4   -1    0    0    0  501 -0.00000000000E+00  0.00000000000E+00  0.14820159011E+02  0.14874475222E+02  0.12700000000E+01 0. -1.
          4   -1    0    0  501    0  0.00000000000E+00 -0.00000000000E+00 -0.26304665264E+03  0.26304971843E+03  0.12700000000E+01 0. -1.
         25    2    1    2    0    0  0.00000000000E+00  0.00000000000E+00 -0.24822649363E+03  0.27792419365E+03  0.12500186109E+03 0.  0.
    9000005    1    3    3    0    0 -0.12088167081E+02  0.86880517837E+01  0.10831367488E+02  0.18437042844E+02  0.10000000000E+01 0.  0.
    9000005    1    3    3    0    0  0.12088167081E+02 -0.86880517837E+01 -0.25905786112E+03  0.25948715081E+03  0.10000000000E+01 0.  0.
<mgrwt>
<rscale>  0 0.12500186E+03</rscale>
<asrwt>0</asrwt>
<pdfrwt beam="2">  1        4 0.40473126E-01 0.12500186E+03</pdfrwt>
<pdfrwt beam="1">  1       -4 0.22844387E-02 0.12500186E+03</pdfrwt>
<totfact> 0.78450905E+03</totfact>
</mgrwt>
</event>
<event>
 5    1  0.3217852E-002  0.1250017E+03  0.7818608E-02  0.1235067E+00
         -4   -1    0    0    0  501 -0.00000000000E+00  0.00000000000E+00  0.60550786817E+03  0.60550920003E+03  0.12700000000E+01 0.  1.
          4   -1    0    0  501    0  0.00000000000E+00 -0.00000000000E+00 -0.63875135443E+01  0.65125439943E+01  0.12700000000E+01 0.  1.
         25    2    1    2    0    0  0.00000000000E+00  0.00000000000E+00  0.59912035463E+03  0.61202174402E+03  0.12500166330E+03 0.  0.
    9000005    1    3    3    0    0  0.19685797185E+02  0.40680783693E+01  0.58927059674E+03  0.58961420951E+03  0.10000000000E+01 0.  0.
    9000005    1    3    3    0    0 -0.19685797185E+02 -0.40680783693E+01  0.98497578842E+01  0.22407534510E+02  0.10000000000E+01 0.  0.
<mgrwt>
<rscale>  0 0.12500166E+03</rscale>
<asrwt>0</asrwt>
<pdfrwt beam="2">  1        4 0.99241480E-03 0.12500166E+03</pdfrwt>
<pdfrwt beam="1">  1       -4 0.93164755E-01 0.12500166E+03</pdfrwt>
<totfact> 0.48115705E+03</totfact>
</mgrwt>
</event>
<event>
 5    1  0.3217852E-002  0.1249990E+03  0.7818608E-02  0.1235071E+00
          4   -1    0    0  501    0  0.00000000000E+00  0.00000000000E+00  0.38987095356E+01  0.41003458443E+01  0.12700000000E+01 0.  1.
         -4   -1    0    0    0  501 -0.00000000000E+00 -0.00000000000E+00 -0.97645970599E+03  0.97646053188E+03  0.12700000000E+01 0.  1.
         25    2    1    2    0    0  0.00000000000E+00  0.00000000000E+00 -0.97256099645E+03  0.98056087773E+03  0.12499897240E+03 0.  0.
    9000005    1    3    3    0    0  0.27995668641E+02  0.50613734022E+02 -0.67186313058E+03  0.67434899997E+03  0.10000000000E+01 0.  0.
    9000005    1    3    3    0    0 -0.27995668641E+02 -0.50613734022E+02 -0.30069786588E+03  0.30621187776E+03  0.10000000000E+01 0.  0.
<mgrwt>
<rscale>  0 0.12499897E+03</rscale>
<asrwt>0</asrwt>
<pdfrwt beam="1">  1        4 0.61537626E-03 0.12499897E+03</pdfrwt>
<pdfrwt beam="2">  1       -4 0.15023995E+00 0.12499897E+03</pdfrwt>
<totfact> 0.31255918E+03</totfact>
</mgrwt>
</event>
<event>
 5    1  0.3217852E-002  0.1249932E+03  0.7818608E-02  0.1235080E+00
          4   -1    0    0  501    0  0.00000000000E+00  0.00000000000E+00  0.45210197888E+02  0.45228032160E+02  0.12700000000E+01 0.  1.
         -4   -1    0    0    0  501 -0.00000000000E+00 -0.00000000000E+00 -0.86353017484E+02  0.86362355969E+02  0.12700000000E+01 0.  1.
         25    2    1    2    0    0  0.00000000000E+00  0.00000000000E+00 -0.41142819596E+02  0.13159038813E+03  0.12499319439E+03 0.  0.
    9000005    1    3    3    0    0  0.37041047674E+02 -0.55266733415E+00 -0.73551270655E+02  0.82359784294E+02  0.10000000000E+01 0.  0.
    9000005    1    3    3    0    0 -0.37041047674E+02  0.55266733415E+00  0.32408451058E+02  0.49230603835E+02  0.10000000000E+01 0.  0.
<mgrwt>
<rscale>  0 0.12499319E+03</rscale>
<asrwt>0</asrwt>
<pdfrwt beam="1">  1        4 0.69575053E-02 0.12499319E+03</pdfrwt>
<pdfrwt beam="2">  1       -4 0.13287170E-01 0.12499319E+03</pdfrwt>
<totfact> 0.10312032E+04</totfact>
</mgrwt>
</event>
<event>
 5    1  0.3217852E-002  0.1250049E+03  0.7818608E-02  0.1235062E+00
         -4   -1    0    0    0  501 -0.00000000000E+00  0.00000000000E+00  0.10092802529E+03  0.10093601532E+03  0.12700000000E+01 0.  1.
          4   -1    0    0  501    0  0.00000000000E+00 -0.00000000000E+00 -0.38686426523E+02  0.38707266722E+02  0.12700000000E+01 0.  1.
         25    2    1    2    0    0  0.00000000000E+00  0.00000000000E+00  0.62241598763E+02  0.13964328204E+03  0.12500491831E+03 0.  0.
    9000005    1    3    3    0    0 -0.31140147673E+02  0.38002203068E+02  0.74265846732E+02  0.89052188215E+02  0.10000000000E+01 0.  0.
    9000005    1    3    3    0    0  0.31140147673E+02 -0.38002203068E+02 -0.12024247968E+02  0.50591093824E+02  0.10000000000E+01 0.  0.
<mgrwt>
<rscale>  0 0.12500492E+03</rscale>
<asrwt>0</asrwt>
<pdfrwt beam="2">  1        4 0.59539757E-02 0.12500492E+03</pdfrwt>
<pdfrwt beam="1">  1       -4 0.15529606E-01 0.12500492E+03</pdfrwt>
<totfact> 0.10139861E+04</totfact>
</mgrwt>
</event>
<event>
 5    1  0.3217852E-002  0.1250018E+03  0.7818608E-02  0.1235066E+00
         -4   -1    0    0    0  501 -0.00000000000E+00  0.00000000000E+00  0.28623751976E+01  0.31314679899E+01  0.12700000000E+01 0.  1.
          4   -1    0    0  501    0  0.00000000000E+00 -0.00000000000E+00 -0.13031885223E+04  0.13031891411E+04  0.12700000000E+01 0.  1.
         25    2    1    2    0    0  0.00000000000E+00  0.00000000000E+00 -0.13003261471E+04  0.13063206091E+04  0.12500177986E+03 0.  0.
    9000005    1    3    3    0    0 -0.48176734101E+02 -0.20929979687E+02 -0.10039832788E+04  0.10053568948E+04  0.10000000000E+01 0.  0.
    9000005    1    3    3    0    0  0.48176734101E+02  0.20929979687E+02 -0.29634286828E+03  0.30096371433E+03  0.10000000000E+01 0.  0.
<mgrwt>
<rscale>  0 0.12500178E+03</rscale>
<asrwt>0</asrwt>
<pdfrwt beam="2">  1        4 0.20051084E+00 0.12500178E+03</pdfrwt>
<pdfrwt beam="1">  1       -4 0.46111350E-03 0.12500178E+03</pdfrwt>
<totfact> 0.22079039E+03</totfact>
</mgrwt>
</event>
<event>
 5    1  0.3217852E-002  0.1250007E+03  0.7818608E-02  0.1235068E+00
         -4   -1    0    0    0  501 -0.00000000000E+00  0.00000000000E+00  0.19604309583E+03  0.19604720942E+03  0.12700000000E+01 0.  1.
          4   -1    0    0  501    0  0.00000000000E+00 -0.00000000000E+00 -0.19901133569E+02  0.19941615214E+02  0.12700000000E+01 0.  1.
         25    2    1    2    0    0  0.00000000000E+00  0.00000000000E+00  0.17614196226E+03  0.21598882464E+03  0.12500072599E+03 0.  0.
    9000005    1    3    3    0    0  0.18577714652E+02 -0.28462426784E+02 -0.25417809412E+01  0.34098414486E+02  0.10000000000E+01 0.  0.
    9000005    1    3    3    0    0 -0.18577714652E+02  0.28462426784E+02  0.17868374320E+03  0.18189041015E+03  0.10000000000E+01 0.  0.
<mgrwt>
<rscale>  0 0.12500073E+03</rscale>
<asrwt>0</asrwt>
<pdfrwt beam="2">  1        4 0.30651433E-02 0.12500073E+03</pdfrwt>
<pdfrwt beam="1">  1       -4 0.30163906E-01 0.12500073E+03</pdfrwt>
<totfact> 0.87505653E+03</totfact>
</mgrwt>
</event>
<event>
 5    1  0.3217852E-002  0.1250008E+03  0.7818608E-02  0.1235068E+00
         -4   -1    0    0    0  501 -0.00000000000E+00  0.00000000000E+00  0.16961686981E+03  0.16962162428E+03  0.12700000000E+01 0.  1.
          4   -1    0    0  501    0  0.00000000000E+00 -0.00000000000E+00 -0.23007558439E+02  0.23042583304E+02  0.12700000000E+01 0.  1.
         25    2    1    2    0    0  0.00000000000E+00  0.00000000000E+00  0.14660931137E+03  0.19266420759E+03  0.12500082681E+03 0.  0.
    9000005    1    3    3    0    0  0.71495437351E+01 -0.34995114027E+02 -0.57317223047E+01  0.36188763752E+02  0.10000000000E+01 0.  0.
    9000005    1    3    3    0    0 -0.71495437351E+01  0.34995114027E+02  0.15234103368E+03  0.15647544384E+03  0.10000000000E+01 0.  0.
<mgrwt>
<rscale>  0 0.12500083E+03</rscale>
<asrwt>0</asrwt>
<pdfrwt beam="2">  1        4 0.35426844E-02 0.12500083E+03</pdfrwt>
<pdfrwt beam="1">  1       -4 0.26097963E-01 0.12500083E+03</pdfrwt>
<totfact> 0.91384115E+03</totfact>
</mgrwt>
</event>
<event>
 5    1  0.3217852E-002  0.1250006E+03  0.7818608E-02  0.1235068E+00
         -4   -1    0    0    0  501 -0.00000000000E+00  0.00000000000E+00  0.15818101286E+03  0.15818611105E+03  0.12700000000E+01 0.  1.
          4   -1    0    0  501    0  0.00000000000E+00 -0.00000000000E+00 -0.24673225052E+02  0.24705888660E+02  0.12700000000E+01 0.  1.
         25    2    1    2    0    0  0.00000000000E+00  0.00000000000E+00  0.13350778781E+03  0.18289199971E+03  0.12500061661E+03 0.  0.
    9000005    1    3    3    0    0 -0.34400924797E+02  0.10778991831E+02 -0.79327503772E+01  0.36926126528E+02  0.10000000000E+01 0.  0.
    9000005    1    3    3    0    0  0.34400924797E+02 -0.10778991831E+02  0.14144053818E+03  0.14596587318E+03  0.10000000000E+01 0.  0.
<mgrwt>
<rscale>  0 0.12500062E+03</rscale>
<asrwt>0</asrwt>
<pdfrwt beam="2">  1        4 0.37987856E-02 0.12500062E+03</pdfrwt>
<pdfrwt beam="1">  1       -4 0.24338445E-01 0.12500062E+03</pdfrwt>
<totfact> 0.93097722E+03</totfact>
</mgrwt>
</event>
<event>
 5    1  0.3217852E-002  0.1249991E+03  0.7818608E-02  0.1235071E+00
          4   -1    0    0  501    0  0.00000000000E+00  0.00000000000E+00  0.27774217514E+03  0.27774507872E+03  0.12700000000E+01 0.  1.
         -4   -1    0    0    0  501 -0.00000000000E+00 -0.00000000000E+00 -0.14032456098E+02  0.14089809230E+02  0.12700000000E+01 0.  1.
         25    2    1    2    0    0  0.00000000000E+00  0.00000000000E+00  0.26370971904E+03  0.29183488795E+03  0.12499914362E+03 0.  0.
    9000005    1    3    3    0    0 -0.42195804314E+02 -0.45995560042E+02  0.13890510959E+03  0.15228823630E+03  0.10000000000E+01 0.  0.
    9000005    1    3    3    0    0  0.42195804314E+02  0.45995560042E+02  0.12480460945E+03  0.13954665165E+03  0.10000000000E+01 0.  0.
<mgrwt>
<rscale>  0 0.12499914E+03</rscale>
<asrwt>0</asrwt>
<pdfrwt beam="1">  1        4 0.42734199E-01 0.12499914E+03</pdfrwt>
<pdfrwt beam="2">  1       -4 0.21634746E-02 0.12499914E+03</pdfrwt>
<totfact> 0.76636062E+03</totfact>
</mgrwt>
</event>
<event>
 5    1  0.3217852E-002  0.1249998E+03  0.7818608E-02  0.1235070E+00
          4   -1    0    0  501    0  0.00000000000E+00  0.00000000000E+00  0.22677624552E+03  0.22677980164E+03  0.12700000000E+01 0. -1.
         -4   -1    0    0    0  501 -0.00000000000E+00 -0.00000000000E+00 -0.17197971751E+02  0.17244800154E+02  0.12700000000E+01 0. -1.
         25    2    1    2    0    0  0.00000000000E+00  0.00000000000E+00  0.20957827377E+03  0.24402460179E+03  0.12499981378E+03 0.  0.
    9000005    1    3    3    0    0 -0.30667021890E+02 -0.13635817568E+02  0.20769870429E+03  0.21039523169E+03  0.10000000000E+01 0.  0.
    9000005    1    3    3    0    0  0.30667021890E+02  0.13635817568E+02  0.18795694764E+01  0.33629370106E+02  0.10000000000E+01 0.  0.
<mgrwt>
<rscale>  0 0.12499981E+03</rscale>
<asrwt>0</asrwt>
<pdfrwt beam="1">  1        4 0.34892526E-01 0.12499981E+03</pdfrwt>
<pdfrwt beam="2">  1       -4 0.26497177E-02 0.12499981E+03</pdfrwt>
<totfact> 0.83201949E+03</totfact>
</mgrwt>
</event>
<event>
 5    1  0.3217852E-002  0.1250005E+03  0.7818608E-02  0.1235068E+00
         -4   -1    0    0    0  501 -0.00000000000E+00  0.00000000000E+00  0.52060014243E+03  0.52060169151E+03  0.12700000000E+01 0.  1.
          4   -1    0    0  501    0  0.00000000000E+00 -0.00000000000E+00 -0.74481094322E+01  0.75556094469E+01  0.12700000000E+01 0.  1.
         25    2    1    2    0    0  0.00000000000E+00  0.00000000000E+00  0.51315203300E+03  0.52815730095E+03  0.12500050232E+03 0.  0.
    9000005    1    3    3    0    0 -0.18239274567E+02  0.19912618676E+02  0.49469743886E+03  0.49543489939E+03  0.10000000000E+01 0.  0.
    9000005    1    3    3    0    0  0.18239274567E+02 -0.19912618676E+02  0.18454594141E+02  0.32722401565E+02  0.10000000000E+01 0.  0.
<mgrwt>
<rscale>  0 0.12500050E+03</rscale>
<asrwt>0</asrwt>
<pdfrwt beam="2">  1        4 0.11542513E-02 0.12500050E+03</pdfrwt>
<pdfrwt beam="1">  1       -4 0.80100721E-01 0.12500050E+03</pdfrwt>
<totfact> 0.53743432E+03</totfact>
</mgrwt>
</event>
<event>
 5    1  0.3217852E-002  0.1250114E+03  0.7818608E-02  0.1235051E+00
         -4   -1    0    0    0  501 -0.00000000000E+00  0.00000000000E+00  0.62860923676E+02  0.62873751482E+02  0.12700000000E+01 0.  1.
          4   -1    0    0  501    0  0.00000000000E+00 -0.00000000000E+00 -0.62126835891E+02  0.62139815239E+02  0.12700000000E+01 0.  1.
         25    2    1    2    0    0  0.00000000000E+00  0.00000000000E+00  0.73408778484E+00  0.12501356672E+03  0.12501141140E+03 0.  0.
    9000005    1    3    3    0    0 -0.52490213806E+01  0.51640507820E+02  0.35176679808E+02  0.62711187804E+02  0.10000000000E+01 0.  0.
    9000005    1    3    3    0    0  0.52490213806E+01 -0.51640507820E+02 -0.34442592024E+02  0.62302378917E+02  0.10000000000E+01 0.  0.
<mgrwt>
<rscale>  0 0.12501141E+03</rscale>
<asrwt>0</asrwt>
<pdfrwt beam="2">  1        4 0.95599600E-02 0.12501141E+03</pdfrwt>
<pdfrwt beam="1">  1       -4 0.96728964E-02 0.12501141E+03</pdfrwt>
<totfact> 0.10449873E+04</totfact>
</mgrwt>
</event>
<event>
 5    1  0.3217852E-002  0.1249983E+03  0.7818608E-02  0.1235072E+00
         -4   -1    0    0    0  501 -0.00000000000E+00  0.00000000000E+00  0.19993520827E+03  0.19993924179E+03  0.12700000000E+01 0. -1.
          4   -1    0    0  501    0  0.00000000000E+00 -0.00000000000E+00 -0.19512181246E+02  0.19553468158E+02  0.12700000000E+01 0. -1.
         25    2    1    2    0    0  0.00000000000E+00  0.00000000000E+00  0.18042302703E+03  0.21949270995E+03  0.12499832414E+03 0.  0.
    9000005    1    3    3    0    0 -0.17738635952E+02 -0.72193055299E+01  0.19466366500E+03  0.19560603275E+03  0.10000000000E+01 0.  0.
    9000005    1    3    3    0    0  0.17738635952E+02  0.72193055299E+01 -0.14240637970E+02  0.23886677198E+02  0.10000000000E+01 0.  0.
<mgrwt>
<rscale>  0 0.12499832E+03</rscale>
<asrwt>0</asrwt>
<pdfrwt beam="2">  1        4 0.30053603E-02 0.12499832E+03</pdfrwt>
<pdfrwt beam="1">  1       -4 0.30762748E-01 0.12499832E+03</pdfrwt>
<totfact> 0.86951940E+03</totfact>
</mgrwt>
</event>
<event>
 5    1  0.3217852E-002  0.1249989E+03  0.7818608E-02  0.1235071E+00
          4   -1    0    0  501    0  0.00000000000E+00  0.00000000000E+00  0.75030181501E+02  0.75040929072E+02  0.12700000000E+01 0. -1.
         -4   -1    0    0    0  501 -0.00000000000E+00 -0.00000000000E+00 -0.52039226742E+02  0.52054721398E+02  0.12700000000E+01 0. -1.
         25    2    1    2    0    0  0.00000000000E+00  0.00000000000E+00  0.22990954759E+02  0.12709565047E+03  0.12499888147E+03 0.  0.
    9000005    1    3    3    0    0  0.47282589344E+02 -0.40802118212E+02  0.92855455722E+01  0.63148059846E+02  0.10000000000E+01 0.  0.
    9000005    1    3    3    0    0 -0.47282589344E+02  0.40802118212E+02  0.13705409187E+02  0.63947590625E+02  0.10000000000E+01 0.  0.
<mgrwt>
<rscale>  0 0.12499888E+03</rscale>
<asrwt>0</asrwt>
<pdfrwt beam="1">  1        4 0.11545123E-01 0.12499888E+03</pdfrwt>
<pdfrwt beam="2">  1       -4 0.80080536E-02 0.12499888E+03</pdfrwt>
<totfact> 0.10407331E+04</totfact>
</mgrwt>
</event>
<event>
 5    1  0.3217852E-002  0.1250008E+03  0.7818608E-02  0.1235068E+00
         -4   -1    0    0    0  501 -0.00000000000E+00  0.00000000000E+00  0.18491577415E+03  0.18492013527E+03  0.12700000000E+01 0. -1.
          4   -1    0    0  501    0  0.00000000000E+00 -0.00000000000E+00 -0.21101066908E+02  0.21139250806E+02  0.12700000000E+01 0. -1.
         25    2    1    2    0    0  0.00000000000E+00  0.00000000000E+00  0.16381470724E+03  0.20605938608E+03  0.12500084913E+03 0.  0.
    9000005    1    3    3    0    0  0.61718675823E+02 -0.95073669164E+01  0.85849250808E+02  0.10616345339E+03  0.10000000000E+01 0.  0.
    9000005    1    3    3    0    0 -0.61718675823E+02  0.95073669164E+01  0.77965456429E+02  0.99895932687E+02  0.10000000000E+01 0.  0.
<mgrwt>
<rscale>  0 0.12500085E+03</rscale>
<asrwt>0</asrwt>
<pdfrwt beam="2">  1        4 0.32495907E-02 0.12500085E+03</pdfrwt>
<pdfrwt beam="1">  1       -4 0.28451853E-01 0.12500085E+03</pdfrwt>
<totfact> 0.89121813E+03</totfact>
</mgrwt>
</event>
<event>
 5    1  0.3217852E-002  0.1250000E+03  0.7818608E-02  0.1235069E+00
         -4   -1    0    0    0  501 -0.00000000000E+00  0.00000000000E+00  0.52264203338E+02  0.52279631316E+02  0.12700000000E+01 0. -1.
          4   -1    0    0  501    0  0.00000000000E+00 -0.00000000000E+00 -0.74708582085E+02  0.74719375916E+02  0.12700000000E+01 0. -1.
         25    2    1    2    0    0  0.00000000000E+00  0.00000000000E+00 -0.22444378748E+02  0.12699900723E+03  0.12499999080E+03 0.  0.
    9000005    1    3    3    0    0  0.38566248002E+02  0.48904013078E+02 -0.60126710110E+01  0.62578831826E+02  0.10000000000E+01 0.  0.
    9000005    1    3    3    0    0 -0.38566248002E+02 -0.48904013078E+02 -0.16431707737E+02  0.64420175405E+02  0.10000000000E+01 0.  0.
<mgrwt>
<rscale>  0 0.12499999E+03</rscale>
<asrwt>0</asrwt>
<pdfrwt beam="2">  1        4 0.11495645E-01 0.12499999E+03</pdfrwt>
<pdfrwt beam="1">  1       -4 0.80426637E-02 0.12499999E+03</pdfrwt>
<totfact> 0.10409169E+04</totfact>
</mgrwt>
</event>
<event>
 5    1  0.3217852E-002  0.1250180E+03  0.7818608E-02  0.1235041E+00
          4   -1    0    0  501    0  0.00000000000E+00  0.00000000000E+00  0.71665023644E+01  0.72781629646E+01  0.12700000000E+01 0.  1.
         -4   -1    0    0    0  501 -0.00000000000E+00 -0.00000000000E+00 -0.54090018520E+03  0.54090167614E+03  0.12700000000E+01 0.  1.
         25    2    1    2    0    0  0.00000000000E+00  0.00000000000E+00 -0.53373368284E+03  0.54817983910E+03  0.12501796593E+03 0.  0.
    9000005    1    3    3    0    0  0.33490035080E+01  0.39193857513E+02 -0.53898780024E+02  0.66734194978E+02  0.10000000000E+01 0.  0.
    9000005    1    3    3    0    0 -0.33490035080E+01 -0.39193857513E+02 -0.47983490281E+03  0.48144564413E+03  0.10000000000E+01 0.  0.
<mgrwt>
<rscale>  0 0.12501797E+03</rscale>
<asrwt>0</asrwt>
<pdfrwt beam="1">  1        4 0.11112432E-02 0.12501797E+03</pdfrwt>
<pdfrwt beam="2">  1       -4 0.83224085E-01 0.12501797E+03</pdfrwt>
<totfact> 0.52290415E+03</totfact>
</mgrwt>
</event>
<event>
 5    1  0.3217852E-002  0.1250007E+03  0.7818608E-02  0.1235068E+00
          4   -1    0    0  501    0  0.00000000000E+00  0.00000000000E+00  0.16920180036E+03  0.16920656650E+03  0.12700000000E+01 0.  1.
         -4   -1    0    0    0  501 -0.00000000000E+00 -0.00000000000E+00 -0.23064042031E+02  0.23098981251E+02  0.12700000000E+01 0.  1.
         25    2    1    2    0    0  0.00000000000E+00  0.00000000000E+00  0.14613775833E+03  0.19230554775E+03  0.12500071714E+03 0.  0.
    9000005    1    3    3    0    0  0.90274127552E+01 -0.51368542603E+01 -0.21734375250E+02  0.24109428037E+02  0.10000000000E+01 0.  0.
    9000005    1    3    3    0    0 -0.90274127552E+01  0.51368542603E+01  0.16787213358E+03  0.16819611971E+03  0.10000000000E+01 0.  0.
<mgrwt>
<rscale>  0 0.12500072E+03</rscale>
<asrwt>0</asrwt>
<pdfrwt beam="1">  1        4 0.26034100E-01 0.12500072E+03</pdfrwt>
<pdfrwt beam="2">  1       -4 0.35513685E-02 0.12500072E+03</pdfrwt>
<totfact> 0.91446229E+03</totfact>
</mgrwt>
</event>
<event>
 5    1  0.3217852E-002  0.1250027E+03  0.7818608E-02  0.1235065E+00
          4   -1    0    0  501    0  0.00000000000E+00  0.00000000000E+00  0.46251886177E+03  0.46252060537E+03  0.12700000000E+01 0. -1.
         -4   -1    0    0    0  501 -0.00000000000E+00 -0.00000000000E+00 -0.83964574062E+01  0.84919607262E+01  0.12700000000E+01 0. -1.
         25    2    1    2    0    0  0.00000000000E+00  0.00000000000E+00  0.45412240437E+03  0.47101256610E+03  0.12500271708E+03 0.  0.
    9000005    1    3    3    0    0  0.58673024133E+02  0.17616030855E+01  0.30785799648E+03  0.31340576415E+03  0.10000000000E+01 0.  0.
    9000005    1    3    3    0    0 -0.58673024133E+02 -0.17616030855E+01  0.14626440789E+03  0.15760680195E+03  0.10000000000E+01 0.  0.
<mgrwt>
<rscale>  0 0.12500272E+03</rscale>
<asrwt>0</asrwt>
<pdfrwt beam="1">  1        4 0.71164227E-01 0.12500272E+03</pdfrwt>
<pdfrwt beam="2">  1       -4 0.12992432E-02 0.12500272E+03</pdfrwt>
<totfact> 0.58182255E+03</totfact>
</mgrwt>
</event>
<event>
 5    1  0.3217852E-002  0.1250003E+03  0.7818608E-02  0.1235069E+00
          4   -1    0    0  501    0  0.00000000000E+00  0.00000000000E+00  0.14983566406E+03  0.14984104619E+03  0.12700000000E+01 0. -1.
         -4   -1    0    0    0  501 -0.00000000000E+00 -0.00000000000E+00 -0.26049051193E+02  0.26079991718E+02  0.12700000000E+01 0. -1.
         25    2    1    2    0    0  0.00000000000E+00  0.00000000000E+00  0.12378661286E+03  0.17592103791E+03  0.12500034422E+03 0.  0.
    9000005    1    3    3    0    0 -0.37007891986E+02  0.41282231245E+02  0.10247484524E+03  0.11651566673E+03  0.10000000000E+01 0.  0.
    9000005    1    3    3    0    0  0.37007891986E+02 -0.41282231245E+02  0.21311767620E+02  0.59405371179E+02  0.10000000000E+01 0.  0.
<mgrwt>
<rscale>  0 0.12500034E+03</rscale>
<asrwt>0</asrwt>
<pdfrwt beam="1">  1        4 0.23054435E-01 0.12500034E+03</pdfrwt>
<pdfrwt beam="2">  1       -4 0.40103403E-02 0.12500034E+03</pdfrwt>
<totfact> 0.94355696E+03</totfact>
</mgrwt>
</event>
<event>
 5    1  0.3217852E-002  0.1249985E+03  0.7818608E-02  0.1235072E+00
         -4   -1    0    0    0  501 -0.00000000000E+00  0.00000000000E+00  0.20464702628E+03  0.20465096693E+03  0.12700000000E+01 0.  1.
          4   -1    0    0  501    0  0.00000000000E+00 -0.00000000000E+00 -0.19062022982E+02  0.19104282770E+02  0.12700000000E+01 0.  1.
         25    2    1    2    0    0  0.00000000000E+00  0.00000000000E+00  0.18558500330E+03  0.22375524970E+03  0.12499847327E+03 0.  0.
    9000005    1    3    3    0    0  0.56303114642E+01  0.25180604649E+02 -0.90901482385E+01  0.27375062605E+02  0.10000000000E+01 0.  0.
    9000005    1    3    3    0    0 -0.56303114642E+01 -0.25180604649E+02  0.19467515154E+03  0.19638018710E+03  0.10000000000E+01 0.  0.
<mgrwt>
<rscale>  0 0.12499847E+03</rscale>
<asrwt>0</asrwt>
<pdfrwt beam="2">  1        4 0.29361730E-02 0.12499847E+03</pdfrwt>
<pdfrwt beam="1">  1       -4 0.31487710E-01 0.12499847E+03</pdfrwt>
<totfact> 0.86280539E+03</totfact>
</mgrwt>
</event>
<event>
 5    1  0.3217852E-002  0.1249964E+03  0.7818608E-02  0.1235075E+00
         -4   -1    0    0    0  501 -0.00000000000E+00  0.00000000000E+00  0.34383984555E+02  0.34407430794E+02  0.12700000000E+01 0.  1.
          4   -1    0    0  501    0  0.00000000000E+00 -0.00000000000E+00 -0.11353436805E+03  0.11354147097E+03  0.12700000000E+01 0.  1.
         25    2    1    2    0    0  0.00000000000E+00  0.00000000000E+00 -0.79150383499E+02  0.14794890176E+03  0.12499637724E+03 0.  0.
    9000005    1    3    3    0    0  0.26219432459E+02  0.24466978075E+02  0.20997437405E+02  0.41569027318E+02  0.10000000000E+01 0.  0.
    9000005    1    3    3    0    0 -0.26219432459E+02 -0.24466978075E+02 -0.10014782090E+03  0.10637987444E+03  0.10000000000E+01 0.  0.
<mgrwt>
<rscale>  0 0.12499638E+03</rscale>
<asrwt>0</asrwt>
<pdfrwt beam="2">  1        4 0.17469176E-01 0.12499638E+03</pdfrwt>
<pdfrwt beam="1">  1       -4 0.52921938E-02 0.12499638E+03</pdfrwt>
<totfact> 0.99722268E+03</totfact>
</mgrwt>
</event>
<event>
 5    1  0.3217852E-002  0.1249967E+03  0.7818608E-02  0.1235074E+00
         -4   -1    0    0    0  501 -0.00000000000E+00  0.00000000000E+00  0.20452776516E+02  0.20492168436E+02  0.12700000000E+01 0. -1.
          4   -1    0    0  501    0  0.00000000000E+00 -0.00000000000E+00 -0.19075349984E+03  0.19075772750E+03  0.12700000000E+01 0. -1.
         25    2    1    2    0    0  0.00000000000E+00  0.00000000000E+00 -0.17030072333E+03  0.21124989594E+03  0.12499672863E+03 0.  0.
    9000005    1    3    3    0    0  0.22233007147E+02 -0.12311439575E+02 -0.18163344857E+03  0.18340552824E+03  0.10000000000E+01 0.  0.
    9000005    1    3    3    0    0 -0.22233007147E+02  0.12311439575E+02  0.11332725239E+02  0.27844367699E+02  0.10000000000E+01 0.  0.
<mgrwt>
<rscale>  0 0.12499673E+03</rscale>
<asrwt>0</asrwt>
<pdfrwt beam="2">  1        4 0.29350046E-01 0.12499673E+03</pdfrwt>
<pdfrwt beam="1">  1       -4 0.31499365E-02 0.12499673E+03</pdfrwt>
<totfact> 0.88278619E+03</totfact>
</mgrwt>
</event>
<event>
 5    1  0.3217852E-002  0.1250136E+03  0.7818608E-02  0.1235048E+00
         -4   -1    0    0    0  501 -0.00000000000E+00  0.00000000000E+00  0.36909773529E+02  0.36931616292E+02  0.12700000000E+01 0. -1.
          4   -1    0    0  501    0  0.00000000000E+00 -0.00000000000E+00 -0.10579838958E+03  0.10580601182E+03  0.12700000000E+01 0. -1.
         25    2    1    2    0    0  0.00000000000E+00  0.00000000000E+00 -0.68888616053E+02  0.14273762812E+03  0.12501355550E+03 0.  0.
    9000005    1    3    3    0    0  0.54900787158E+02  0.92001025598E+00 -0.35973560944E+00  0.54918778748E+02  0.10000000000E+01 0.  0.
    9000005    1    3    3    0    0 -0.54900787158E+02 -0.92001025598E+00 -0.68528880444E+02  0.87818849368E+02  0.10000000000E+01 0.  0.
<mgrwt>
<rscale>  0 0.12501356E+03</rscale>
<asrwt>0</asrwt>
<pdfrwt beam="2">  1        4 0.16278942E-01 0.12501356E+03</pdfrwt>
<pdfrwt beam="1">  1       -4 0.56806933E-02 0.12501356E+03</pdfrwt>
<totfact> 0.10074083E+04</totfact>
</mgrwt>
</event>
<event>
 5    1  0.3217852E-002  0.1249894E+03  0.7818608E-02  0.1235086E+00
         -4   -1    0    0    0  501 -0.00000000000E+00  0.00000000000E+00  0.50951914391E+02  0.50967739601E+02  0.12700000000E+01 0. -1.
          4   -1    0    0  501    0  0.00000000000E+00 -0.00000000000E+00 -0.76619435246E+02  0.76629959921E+02  0.12700000000E+01 0. -1.
         25    2    1    2    0    0  0.00000000000E+00  0.00000000000E+00 -0.25667520856E+02  0.12759769952E+03  0.12498940474E+03 0.  0.
    9000005    1    3    3    0    0  0.38885765733E+02 -0.48737127130E+02 -0.17064823058E+02  0.64649969246E+02  0.10000000000E+01 0.  0.
    9000005    1    3    3    0    0 -0.38885765733E+02  0.48737127130E+02 -0.86026977973E+01  0.62947730276E+02  0.10000000000E+01 0.  0.
<mgrwt>
<rscale>  0 0.12498940E+03</rscale>
<asrwt>0</asrwt>
<pdfrwt beam="2">  1        4 0.11789632E-01 0.12498940E+03</pdfrwt>
<pdfrwt beam="1">  1       -4 0.78407830E-02 0.12498940E+03</pdfrwt>
<totfact> 0.10398672E+04</totfact>
</mgrwt>
</event>
<event>
 5    1  0.3217852E-002  0.1250099E+03  0.7818608E-02  0.1235054E+00
         -4   -1    0    0    0  501 -0.00000000000E+00  0.00000000000E+00  0.48654300337E+02  0.48670872617E+02  0.12700000000E+01 0.  1.
          4   -1    0    0  501    0  0.00000000000E+00 -0.00000000000E+00 -0.80263315795E+02  0.80273362720E+02  0.12700000000E+01 0.  1.
         25    2    1    2    0    0  0.00000000000E+00  0.00000000000E+00 -0.31609015459E+02  0.12894423534E+03  0.12500994348E+03 0.  0.
    9000005    1    3    3    0    0 -0.12907742225E+02  0.98212001439E+01 -0.78059671023E+02  0.79733167639E+02  0.10000000000E+01 0.  0.
    9000005    1    3    3    0    0  0.12907742225E+02 -0.98212001439E+01  0.46450655564E+02  0.49211067698E+02  0.10000000000E+01 0.  0.
<mgrwt>
<rscale>  0 0.12500994E+03</rscale>
<asrwt>0</asrwt>
<pdfrwt beam="2">  1        4 0.12350250E-01 0.12500994E+03</pdfrwt>
<pdfrwt beam="1">  1       -4 0.74873246E-02 0.12500994E+03</pdfrwt>
<totfact> 0.10364818E+04</totfact>
</mgrwt>
</event>
<event>
 5    1  0.3217852E-002  0.1250003E+03  0.7818608E-02  0.1235069E+00
         -4   -1    0    0    0  501 -0.00000000000E+00  0.00000000000E+00  0.14701996568E+02  0.14756747713E+02  0.12700000000E+01 0.  1.
          4   -1    0    0  501    0  0.00000000000E+00 -0.00000000000E+00 -0.26514645538E+03  0.26514949689E+03  0.12700000000E+01 0.  1.
         25    2    1    2    0    0  0.00000000000E+00  0.00000000000E+00 -0.25044445881E+03  0.27990624460E+03  0.12500031527E+03 0.  0.
    9000005    1    3    3    0    0  0.10355685361E+02  0.20239706805E+01  0.12703823914E+02  0.16544600891E+02  0.10000000000E+01 0.  0.
    9000005    1    3    3    0    0 -0.10355685361E+02 -0.20239706805E+01 -0.26314828272E+03  0.26336164371E+03  0.10000000000E+01 0.  0.
<mgrwt>
<rscale>  0 0.12500032E+03</rscale>
<asrwt>0</asrwt>
<pdfrwt beam="2">  1        4 0.40796204E-01 0.12500032E+03</pdfrwt>
<pdfrwt beam="1">  1       -4 0.22662914E-02 0.12500032E+03</pdfrwt>
<totfact> 0.78189992E+03</totfact>
</mgrwt>
</event>
<event>
 5    1  0.3217852E-002  0.1249981E+03  0.7818608E-02  0.1235072E+00
          4   -1    0    0  501    0  0.00000000000E+00  0.00000000000E+00  0.12370961300E+03  0.12371613172E+03  0.12700000000E+01 0. -1.
         -4   -1    0    0    0  501 -0.00000000000E+00 -0.00000000000E+00 -0.31554883224E+02  0.31580429942E+02  0.12700000000E+01 0. -1.
         25    2    1    2    0    0  0.00000000000E+00  0.00000000000E+00  0.92154729773E+02  0.15529656166E+03  0.12499811136E+03 0.  0.
    9000005    1    3    3    0    0 -0.67703420743E+01 -0.61962409281E+02  0.51627151211E+02  0.80941586578E+02  0.10000000000E+01 0.  0.
    9000005    1    3    3    0    0  0.67703420743E+01  0.61962409281E+02  0.40527578563E+02  0.74354975085E+02  0.10000000000E+01 0.  0.
<mgrwt>
<rscale>  0 0.12499811E+03</rscale>
<asrwt>0</asrwt>
<pdfrwt beam="1">  1        4 0.19034715E-01 0.12499811E+03</pdfrwt>
<pdfrwt beam="2">  1       -4 0.48570638E-02 0.12499811E+03</pdfrwt>
<totfact> 0.98261484E+03</totfact>
</mgrwt>
</event>
<event>
 5    1  0.3217852E-002  0.1250031E+03  0.7818608E-02  0.1235064E+00
         -4   -1    0    0    0  501 -0.00000000000E+00  0.00000000000E+00  0.75097327637E+01  0.76163630547E+01  0.12700000000E+01 0. -1.
          4   -1    0    0  501    0  0.00000000000E+00 -0.00000000000E+00 -0.51640968909E+03  0.51641125074E+03  0.12700000000E+01 0. -1.
         25    2    1    2    0    0  0.00000000000E+00  0.00000000000E+00 -0.50889995633E+03  0.52402761379E+03  0.12500309782E+03 0.  0.
    9000005    1    3    3    0    0 -0.54871954136E+01  0.58914861821E+02 -0.33874941341E+03  0.34387968149E+03  0.10000000000E+01 0.  0.
    9000005    1    3    3    0    0  0.54871954136E+01 -0.58914861821E+02 -0.17015054292E+03  0.18014793230E+03  0.10000000000E+01 0.  0.
<mgrwt>
<rscale>  0 0.12500310E+03</rscale>
<asrwt>0</asrwt>
<pdfrwt beam="2">  1        4 0.79455939E-01 0.12500310E+03</pdfrwt>
<pdfrwt beam="1">  1       -4 0.11636664E-02 0.12500310E+03</pdfrwt>
<totfact> 0.54043484E+03</totfact>
</mgrwt>
</event>
<event>
 5    1  0.3217852E-002  0.1250015E+03  0.7818608E-02  0.1235067E+00
          4   -1    0    0  501    0  0.00000000000E+00  0.00000000000E+00  0.18640292291E+02  0.18683506007E+02  0.12700000000E+01 0.  1.
         -4   -1    0    0    0  501 -0.00000000000E+00 -0.00000000000E+00 -0.20927669319E+03  0.20928054667E+03  0.12700000000E+01 0.  1.
         25    2    1    2    0    0  0.00000000000E+00  0.00000000000E+00 -0.19063640090E+03  0.22796405268E+03  0.12500148785E+03 0.  0.
    9000005    1    3    3    0    0 -0.21025954171E+02 -0.93211960560E+00 -0.20262784715E+03  0.20372040653E+03  0.10000000000E+01 0.  0.
    9000005    1    3    3    0    0  0.21025954171E+02  0.93211960560E+00  0.11991446242E+02  0.24243646152E+02  0.10000000000E+01 0.  0.
<mgrwt>
<rscale>  0 0.12500149E+03</rscale>
<asrwt>0</asrwt>
<pdfrwt beam="1">  1        4 0.28713580E-02 0.12500149E+03</pdfrwt>
<pdfrwt beam="2">  1       -4 0.32200033E-01 0.12500149E+03</pdfrwt>
<totfact> 0.85620360E+03</totfact>
</mgrwt>
</event>
<event>
 5    1  0.3217852E-002  0.1249984E+03  0.7818608E-02  0.1235072E+00
          4   -1    0    0  501    0  0.00000000000E+00  0.00000000000E+00  0.26003119517E+03  0.26003429652E+03  0.12700000000E+01 0.  1.
         -4   -1    0    0    0  501 -0.00000000000E+00 -0.00000000000E+00 -0.14991822709E+02  0.15045519204E+02  0.12700000000E+01 0.  1.
         25    2    1    2    0    0  0.00000000000E+00  0.00000000000E+00  0.24503937247E+03  0.27507981572E+03  0.12499844382E+03 0.  0.
    9000005    1    3    3    0    0  0.15727121136E+02 -0.54135096347E+02  0.63175036039E+02  0.84676066124E+02  0.10000000000E+01 0.  0.
    9000005    1    3    3    0    0 -0.15727121136E+02  0.54135096347E+02  0.18186433643E+03  0.19040374960E+03  0.10000000000E+01 0.  0.
<mgrwt>
<rscale>  0 0.12499844E+03</rscale>
<asrwt>0</asrwt>
<pdfrwt beam="1">  1        4 0.40009168E-01 0.12499844E+03</pdfrwt>
<pdfrwt beam="2">  1       -4 0.23108034E-02 0.12499844E+03</pdfrwt>
<totfact> 0.78837769E+03</totfact>
</mgrwt>
</event>
<event>
 5    1  0.3217852E-002  0.1250082E+03  0.7818608E-02  0.1235057E+00
         -4   -1    0    0    0  501 -0.00000000000E+00  0.00000000000E+00  0.19981460837E+02  0.20021780070E+02  0.12700000000E+01 0. -1.
          4   -1    0    0  501    0  0.00000000000E+00 -0.00000000000E+00 -0.19527978301E+03  0.19528391268E+03  0.12700000000E+01 0. -1.
         25    2    1    2    0    0  0.00000000000E+00  0.00000000000E+00 -0.17529832217E+03  0.21530569275E+03  0.12500815803E+03 0.  0.
    9000005    1    3    3    0    0 -0.49217437358E+02  0.20157626848E+02 -0.14417407303E+03  0.15367449169E+03  0.10000000000E+01 0.  0.
    9000005    1    3    3    0    0  0.49217437358E+02 -0.20157626848E+02 -0.31124249140E+02  0.61631201065E+02  0.10000000000E+01 0.  0.
<mgrwt>
<rscale>  0 0.12500816E+03</rscale>
<asrwt>0</asrwt>
<pdfrwt beam="2">  1        4 0.30046461E-01 0.12500816E+03</pdfrwt>
<pdfrwt beam="1">  1       -4 0.30774902E-02 0.12500816E+03</pdfrwt>
<totfact> 0.87600686E+03</totfact>
</mgrwt>
</event>
<event>
 5    1  0.3217852E-002  0.1250079E+03  0.7818608E-02  0.1235057E+00
          4   -1    0    0  501    0  0.00000000000E+00  0.00000000000E+00  0.58314592065E+02  0.58328419725E+02  0.12700000000E+01 0.  1.
         -4   -1    0    0    0  501 -0.00000000000E+00 -0.00000000000E+00 -0.66966440215E+02  0.66978481732E+02  0.12700000000E+01 0.  1.
         25    2    1    2    0    0  0.00000000000E+00  0.00000000000E+00 -0.86518481508E+01  0.12530690146E+03  0.12500786006E+03 0.  0.
    9000005    1    3    3    0    0 -0.34465289802E+02  0.16257889851E+02 -0.53977901612E+02  0.66081684649E+02  0.10000000000E+01 0.  0.
    9000005    1    3    3    0    0  0.34465289802E+02 -0.16257889851E+02  0.45326053462E+02  0.59225216808E+02  0.10000000000E+01 0.  0.
<mgrwt>
<rscale>  0 0.12500786E+03</rscale>
<asrwt>0</asrwt>
<pdfrwt beam="1">  1        4 0.89734657E-02 0.12500786E+03</pdfrwt>
<pdfrwt beam="2">  1       -4 0.10304519E-01 0.12500786E+03</pdfrwt>
<totfact> 0.10444345E+04</totfact>
</mgrwt>
</event>
<event>
 5    1  0.3217852E-002  0.1249951E+03  0.7818608E-02  0.1235077E+00
          4   -1    0    0  501    0  0.00000000000E+00  0.00000000000E+00  0.49686014556E+02  0.49702242831E+02  0.12700000000E+01 0. -1.
         -4   -1    0    0    0  501 -0.00000000000E+00 -0.00000000000E+00 -0.78578299222E+02  0.78588561563E+02  0.12700000000E+01 0. -1.
         25    2    1    2    0    0  0.00000000000E+00  0.00000000000E+00 -0.28892284666E+02  0.12829080439E+03  0.12499506542E+03 0.  0.
    9000005    1    3    3    0    0 -0.25835651354E+01 -0.35932149831E+02 -0.66852678085E+02  0.75947842415E+02  0.10000000000E+01 0.  0.
    9000005    1    3    3    0    0  0.25835651354E+01  0.35932149831E+02  0.37960393419E+02  0.52342961980E+02  0.10000000000E+01 0.  0.
<mgrwt>
<rscale>  0 0.12499507E+03</rscale>
<asrwt>0</asrwt>
<pdfrwt beam="1">  1        4 0.76460400E-02 0.12499507E+03</pdfrwt>
<pdfrwt beam="2">  1       -4 0.12091007E-01 0.12499507E+03</pdfrwt>
<totfact> 0.10382369E+04</totfact>
</mgrwt>
</event>
<event>
 5    1  0.3217852E-002  0.1249937E+03  0.7818608E-02  0.1235079E+00
         -4   -1    0    0    0  501 -0.00000000000E+00  0.00000000000E+00  0.26228149341E+03  0.26228456815E+03  0.12700000000E+01 0. -1.
          4   -1    0    0  501    0  0.00000000000E+00 -0.00000000000E+00 -0.14861596175E+02  0.14915761491E+02  0.12700000000E+01 0. -1.
         25    2    1    2    0    0  0.00000000000E+00  0.00000000000E+00  0.24741989724E+03  0.27720032964E+03  0.12499366864E+03 0.  0.
    9000005    1    3    3    0    0 -0.18859986393E+02  0.37762836452E+01 -0.81442549797E+01  0.20911439312E+02  0.10000000000E+01 0.  0.
    9000005    1    3    3    0    0  0.18859986393E+02 -0.37762836452E+01  0.25556415222E+03  0.25628889032E+03  0.10000000000E+01 0.  0.
<mgrwt>
<rscale>  0 0.12499367E+03</rscale>
<asrwt>0</asrwt>
<pdfrwt beam="2">  1        4 0.22908026E-02 0.12499367E+03</pdfrwt>
<pdfrwt beam="1">  1       -4 0.40355400E-01 0.12499367E+03</pdfrwt>
<totfact> 0.78561850E+03</totfact>
</mgrwt>
</event>
<event>
 5    1  0.3217852E-002  0.1250001E+03  0.7818608E-02  0.1235069E+00
          4   -1    0    0  501    0  0.00000000000E+00  0.00000000000E+00  0.57825367555E+01  0.59203573650E+01  0.12700000000E+01 0. -1.
         -4   -1    0    0    0  501 -0.00000000000E+00 -0.00000000000E+00 -0.66743248722E+03  0.66743369551E+03  0.12700000000E+01 0. -1.
         25    2    1    2    0    0  0.00000000000E+00  0.00000000000E+00 -0.66164995047E+03  0.67335405287E+03  0.12500009427E+03 0.  0.
    9000005    1    3    3    0    0 -0.44120389467E+02 -0.37787193020E+02 -0.20672021596E+03  0.21472943070E+03  0.10000000000E+01 0.  0.
    9000005    1    3    3    0    0  0.44120389467E+02  0.37787193020E+02 -0.45492973451E+03  0.45862462217E+03  0.10000000000E+01 0.  0.
<mgrwt>
<rscale>  0 0.12500009E+03</rscale>
<asrwt>0</asrwt>
<pdfrwt beam="1">  1        4 0.90031610E-03 0.12500009E+03</pdfrwt>
<pdfrwt beam="2">  1       -4 0.10269256E+00 0.12500009E+03</pdfrwt>
<totfact> 0.44531042E+03</totfact>
</mgrwt>
</event>
<event>
 5    1  0.3217852E-002  0.1249976E+03  0.7818608E-02  0.1235073E+00
          4   -1    0    0  501    0  0.00000000000E+00  0.00000000000E+00  0.92372107851E+02  0.92380837888E+02  0.12700000000E+01 0. -1.
         -4   -1    0    0    0  501 -0.00000000000E+00 -0.00000000000E+00 -0.42266274190E+02  0.42285350110E+02  0.12700000000E+01 0. -1.
         25    2    1    2    0    0  0.00000000000E+00  0.00000000000E+00  0.50105833661E+02  0.13466618800E+03  0.12499755047E+03 0.  0.
    9000005    1    3    3    0    0  0.15657333466E+02  0.35689986506E+02 -0.27573975544E+02  0.47751977502E+02  0.10000000000E+01 0.  0.
    9000005    1    3    3    0    0 -0.15657333466E+02 -0.35689986506E+02  0.77679809205E+02  0.86914210496E+02  0.10000000000E+01 0.  0.
<mgrwt>
<rscale>  0 0.12499755E+03</rscale>
<asrwt>0</asrwt>
<pdfrwt beam="1">  1        4 0.14213232E-01 0.12499755E+03</pdfrwt>
<pdfrwt beam="2">  1       -4 0.65046427E-02 0.12499755E+03</pdfrwt>
<totfact> 0.10245678E+04</totfact>
</mgrwt>
</event>
<event>
 5    1  0.3217852E-002  0.1249978E+03  0.7818608E-02  0.1235073E+00
         -4   -1    0    0    0  501 -0.00000000000E+00  0.00000000000E+00  0.80855710938E+02  0.80865684263E+02  0.12700000000E+01 0. -1.
          4   -1    0    0  501    0  0.00000000000E+00 -0.00000000000E+00 -0.48288399246E+02  0.48305097057E+02  0.12700000000E+01 0. -1.
         25    2    1    2    0    0  0.00000000000E+00  0.00000000000E+00  0.32567311692E+02  0.12917078132E+03  0.12499784381E+03 0.  0.
    9000005    1    3    3    0    0  0.37217342602E+02 -0.50194111958E+02  0.15527254418E+02  0.64394682198E+02  0.10000000000E+01 0.  0.
    9000005    1    3    3    0    0 -0.37217342602E+02  0.50194111958E+02  0.17040057274E+02  0.64776099122E+02  0.10000000000E+01 0.  0.
<mgrwt>
<rscale>  0 0.12499784E+03</rscale>
<asrwt>0</asrwt>
<pdfrwt beam="2">  1        4 0.74310363E-02 0.12499784E+03</pdfrwt>
<pdfrwt beam="1">  1       -4 0.12441392E-01 0.12499784E+03</pdfrwt>
<totfact> 0.10362783E+04</totfact>
</mgrwt>
</event>
<event>
 5    1  0.3217852E-002  0.1249993E+03  0.7818608E-02  0.1235070E+00
         -4   -1    0    0    0  501 -0.00000000000E+00  0.00000000000E+00  0.21590777117E+03  0.21591150630E+03  0.12700000000E+01 0.  1.
          4   -1    0    0  501    0  0.00000000000E+00 -0.00000000000E+00 -0.18065833147E+02  0.18110417646E+02  0.12700000000E+01 0.  1.
         25    2    1    2    0    0  0.00000000000E+00  0.00000000000E+00  0.19784193802E+03  0.23402192395E+03  0.12499931378E+03 0.  0.
    9000005    1    3    3    0    0  0.14441609746E+02  0.49565558958E+02  0.32997103574E+02  0.61278981479E+02  0.10000000000E+01 0.  0.
    9000005    1    3    3    0    0 -0.14441609746E+02 -0.49565558958E+02  0.16484483445E+03  0.17274294247E+03  0.10000000000E+01 0.  0.
<mgrwt>
<rscale>  0 0.12499931E+03</rscale>
<asrwt>0</asrwt>
<pdfrwt beam="2">  1        4 0.27830758E-02 0.12499931E+03</pdfrwt>
<pdfrwt beam="1">  1       -4 0.33220297E-01 0.12499931E+03</pdfrwt>
<totfact> 0.84697124E+03</totfact>
</mgrwt>
</event>
<event>
 5    1  0.3217852E-002  0.1249933E+03  0.7818608E-02  0.1235080E+00
          4   -1    0    0  501    0  0.00000000000E+00  0.00000000000E+00  0.19607190766E+03  0.19607602065E+03  0.12700000000E+01 0. -1.
         -4   -1    0    0    0  501 -0.00000000000E+00 -0.00000000000E+00 -0.19895832790E+02  0.19936325198E+02  0.12700000000E+01 0. -1.
         25    2    1    2    0    0  0.00000000000E+00  0.00000000000E+00  0.17617607487E+03  0.21601234584E+03  0.12499329663E+03 0.  0.
    9000005    1    3    3    0    0 -0.76794055592E+01  0.46612750568E+02  0.15877738981E+03  0.16565923246E+03  0.10000000000E+01 0.  0.
    9000005    1    3    3    0    0  0.76794055592E+01 -0.46612750568E+02  0.17398685055E+02  0.50353113379E+02  0.10000000000E+01 0.  0.
<mgrwt>
<rscale>  0 0.12499330E+03</rscale>
<asrwt>0</asrwt>
<pdfrwt beam="1">  1        4 0.30168340E-01 0.12499330E+03</pdfrwt>
<pdfrwt beam="2">  1       -4 0.30643285E-02 0.12499330E+03</pdfrwt>
<totfact> 0.87516410E+03</totfact>
</mgrwt>
</event>
<event>
 5    1  0.3217852E-002  0.1249993E+03  0.7818608E-02  0.1235070E+00
          4   -1    0    0  501    0  0.00000000000E+00  0.00000000000E+00  0.18547745730E+03  0.18548180521E+03  0.12700000000E+01 0.  1.
         -4   -1    0    0    0  501 -0.00000000000E+00 -0.00000000000E+00 -0.21036524635E+02  0.21074825473E+02  0.12700000000E+01 0.  1.
         25    2    1    2    0    0  0.00000000000E+00  0.00000000000E+00  0.16444093266E+03  0.20655663069E+03  0.12499928538E+03 0.  0.
    9000005    1    3    3    0    0 -0.61100646223E+02  0.12964498375E+02  0.85457837950E+02  0.10585560568E+03  0.10000000000E+01 0.  0.
    9000005    1    3    3    0    0  0.61100646223E+02 -0.12964498375E+02  0.78983094710E+02  0.10070102500E+03  0.10000000000E+01 0.  0.
<mgrwt>
<rscale>  0 0.12499929E+03</rscale>
<asrwt>0</asrwt>
<pdfrwt beam="1">  1        4 0.28538273E-01 0.12499929E+03</pdfrwt>
<pdfrwt beam="2">  1       -4 0.32396692E-02 0.12499929E+03</pdfrwt>
<totfact> 0.89042758E+03</totfact>
</mgrwt>
</event>
<event>
 5    1  0.3217852E-002  0.1249975E+03  0.7818608E-02  0.1235073E+00
         -4   -1    0    0    0  501 -0.00000000000E+00  0.00000000000E+00  0.97909782930E+01  0.98730013640E+01  0.12700000000E+01 0. -1.
          4   -1    0    0  501    0  0.00000000000E+00 -0.00000000000E+00 -0.39720105701E+03  0.39720308734E+03  0.12700000000E+01 0. -1.
         25    2    1    2    0    0  0.00000000000E+00  0.00000000000E+00 -0.38741007872E+03  0.40707608870E+03  0.12499749158E+03 0.  0.
    9000005    1    3    3    0    0  0.43908908709E+02 -0.13781436076E+02 -0.33138083350E+03  0.33456266537E+03  0.10000000000E+01 0.  0.
    9000005    1    3    3    0    0 -0.43908908709E+02  0.13781436076E+02 -0.56029245215E+02  0.72513423335E+02  0.10000000000E+01 0.  0.
<mgrwt>
<rscale>  0 0.12499749E+03</rscale>
<asrwt>0</asrwt>
<pdfrwt beam="2">  1        4 0.61114308E-01 0.12499749E+03</pdfrwt>
<pdfrwt beam="1">  1       -4 0.15127703E-02 0.12499749E+03</pdfrwt>
<totfact> 0.63873889E+03</totfact>
</mgrwt>
</event>
<event>
 5    1  0.3217852E-002  0.1249978E+03  0.7818608E-02  0.1235073E+00
          4   -1    0    0  501    0  0.00000000000E+00  0.00000000000E+00  0.10917357590E+02  0.10990977971E+02  0.12700000000E+01 0.  1.
         -4   -1    0    0    0  501 -0.00000000000E+00 -0.00000000000E+00 -0.35651211428E+03  0.35651437633E+03  0.12700000000E+01 0.  1.
         25    2    1    2    0    0  0.00000000000E+00  0.00000000000E+00 -0.34559475669E+03  0.36750535430E+03  0.12499779833E+03 0.  0.
    9000005    1    3    3    0    0  0.29049779447E+02 -0.50950380023E+02 -0.23621634966E+03  0.24339062176E+03  0.10000000000E+01 0.  0.
    9000005    1    3    3    0    0 -0.29049779447E+02  0.50950380023E+02 -0.10937840702E+03  0.12411473254E+03  0.10000000000E+01 0.  0.
<mgrwt>
<rscale>  0 0.12499780E+03</rscale>
<asrwt>0</asrwt>
<pdfrwt beam="1">  1        4 0.16854309E-02 0.12499780E+03</pdfrwt>
<pdfrwt beam="2">  1       -4 0.54853846E-01 0.12499780E+03</pdfrwt>
<totfact> 0.67844040E+03</totfact>
</mgrwt>
</event>
<event>
 5    1  0.3217852E-002  0.1249983E+03  0.7818608E-02  0.1235072E+00
          4   -1    0    0  501    0  0.00000000000E+00  0.00000000000E+00  0.14335280662E+03  0.14335843215E+03  0.12700000000E+01 0. -1.
         -4   -1    0    0    0  501 -0.00000000000E+00 -0.00000000000E+00 -0.27227507972E+02  0.27257110822E+02  0.12700000000E+01 0. -1.
         25    2    1    2    0    0  0.00000000000E+00  0.00000000000E+00  0.11612529865E+03  0.17061554297E+03  0.12499831405E+03 0.  0.
    9000005    1    3    3    0    0 -0.15579513109E+02 -0.50949474247E+02  0.13485732200E+02  0.54967582516E+02  0.10000000000E+01 0.  0.
    9000005    1    3    3    0    0  0.15579513109E+02  0.50949474247E+02  0.10263956645E+03  0.11564796045E+03  0.10000000000E+01 0.  0.
<mgrwt>
<rscale>  0 0.12499831E+03</rscale>
<asrwt>0</asrwt>
<pdfrwt beam="1">  1        4 0.22056988E-01 0.12499831E+03</pdfrwt>
<pdfrwt beam="2">  1       -4 0.41915572E-02 0.12499831E+03</pdfrwt>
<totfact> 0.95337639E+03</totfact>
</mgrwt>
</event>
<event>
 5    1  0.3217852E-002  0.1249970E+03  0.7818608E-02  0.1235074E+00
          4   -1    0    0  501    0  0.00000000000E+00  0.00000000000E+00  0.51142874890E+02  0.51158641030E+02  0.12700000000E+01 0.  1.
         -4   -1    0    0    0  501 -0.00000000000E+00 -0.00000000000E+00 -0.76342699481E+02  0.76353262301E+02  0.12700000000E+01 0.  1.
         25    2    1    2    0    0  0.00000000000E+00  0.00000000000E+00 -0.25199824591E+02  0.12751190333E+03  0.12499701729E+03 0.  0.
    9000005    1    3    3    0    0  0.40906290730E+02  0.44198021255E+02  0.44172562106E+01  0.60392895745E+02  0.10000000000E+01 0.  0.
    9000005    1    3    3    0    0 -0.40906290730E+02 -0.44198021255E+02 -0.29617080802E+02  0.67119007586E+02  0.10000000000E+01 0.  0.
<mgrwt>
<rscale>  0 0.12499702E+03</rscale>
<asrwt>0</asrwt>
<pdfrwt beam="1">  1        4 0.78701600E-02 0.12499702E+03</pdfrwt>
<pdfrwt beam="2">  1       -4 0.11747056E-01 0.12499702E+03</pdfrwt>
<totfact> 0.10398743E+04</totfact>
</mgrwt>
</event>
<event>
 5    1  0.3217852E-002  0.1249970E+03  0.7818608E-02  0.1235074E+00
          4   -1    0    0  501    0  0.00000000000E+00  0.00000000000E+00  0.81230602867E+02  0.81240530169E+02  0.12700000000E+01 0. -1.
         -4   -1    0    0    0  501 -0.00000000000E+00 -0.00000000000E+00 -0.48064872189E+02  0.48081647627E+02  0.12700000000E+01 0. -1.
         25    2    1    2    0    0  0.00000000000E+00  0.00000000000E+00  0.33165730679E+02  0.12932217780E+03  0.12499703988E+03 0.  0.
    9000005    1    3    3    0    0 -0.35056793767E+02  0.45928918258E+02 -0.80445870989E+01  0.58345177205E+02  0.10000000000E+01 0.  0.
    9000005    1    3    3    0    0  0.35056793767E+02 -0.45928918258E+02  0.41210317778E+02  0.70977000591E+02  0.10000000000E+01 0.  0.
<mgrwt>
<rscale>  0 0.12499704E+03</rscale>
<asrwt>0</asrwt>
<pdfrwt beam="1">  1        4 0.12499070E-01 0.12499704E+03</pdfrwt>
<pdfrwt beam="2">  1       -4 0.73966498E-02 0.12499704E+03</pdfrwt>
<totfact> 0.10359721E+04</totfact>
</mgrwt>
</event>
<event>
 5    1  0.3217852E-002  0.1249962E+03  0.7818608E-02  0.1235075E+00
          4   -1    0    0  501    0  0.00000000000E+00  0.00000000000E+00  0.24814835622E+03  0.24815160607E+03  0.12700000000E+01 0.  1.
         -4   -1    0    0    0  501 -0.00000000000E+00 -0.00000000000E+00 -0.15711657301E+02  0.15762901863E+02  0.12700000000E+01 0.  1.
         25    2    1    2    0    0  0.00000000000E+00  0.00000000000E+00  0.23243669892E+03  0.26391450793E+03  0.12499619391E+03 0.  0.
    9000005    1    3    3    0    0  0.60723632955E+02 -0.14615536674E+02  0.11197525678E+03  0.12822024662E+03  0.10000000000E+01 0.  0.
    9000005    1    3    3    0    0 -0.60723632955E+02  0.14615536674E+02  0.12046144214E+03  0.13569426131E+03  0.10000000000E+01 0.  0.
<mgrwt>
<rscale>  0 0.12499619E+03</rscale>
<asrwt>0</asrwt>
<pdfrwt beam="1">  1        4 0.38180862E-01 0.12499619E+03</pdfrwt>
<pdfrwt beam="2">  1       -4 0.24213700E-02 0.12499619E+03</pdfrwt>
<totfact> 0.80366641E+03</totfact>
</mgrwt>
</event>
<event>
 5    1  0.3217852E-002  0.1250271E+03  0.7818608E-02  0.1235027E+00
          4   -1    0    0  501    0  0.00000000000E+00  0.00000000000E+00  0.12353596985E+03  0.12354249773E+03  0.12700000000E+01 0. -1.
         -4   -1    0    0    0  501 -0.00000000000E+00 -0.00000000000E+00 -0.31613942927E+02  0.31639441957E+02  0.12700000000E+01 0. -1.
         25    2    1    2    0    0  0.00000000000E+00  0.00000000000E+00  0.91922026919E+02  0.15518193969E+03  0.12502709855E+03 0.  0.
    9000005    1    3    3    0    0  0.23561499400E+02 -0.87534771428E+01  0.11699306526E+03  0.11966680799E+03  0.10000000000E+01 0.  0.
    9000005    1    3    3    0    0 -0.23561499400E+02  0.87534771428E+01 -0.25071038340E+02  0.35515131698E+02  0.10000000000E+01 0.  0.
<mgrwt>
<rscale>  0 0.12502710E+03</rscale>
<asrwt>0</asrwt>
<pdfrwt beam="1">  1        4 0.19007998E-01 0.12502710E+03</pdfrwt>
<pdfrwt beam="2">  1       -4 0.48661471E-02 0.12502710E+03</pdfrwt>
<totfact> 0.98219923E+03</totfact>
</mgrwt>
</event>
<event>
 5    1  0.3217852E-002  0.1250028E+03  0.7818608E-02  0.1235065E+00
         -4   -1    0    0    0  501 -0.00000000000E+00  0.00000000000E+00  0.30214618694E+03  0.30214885600E+03  0.12700000000E+01 0. -1.
          4   -1    0    0  501    0  0.00000000000E+00 -0.00000000000E+00 -0.12895010967E+02  0.12957399733E+02  0.12700000000E+01 0. -1.
         25    2    1    2    0    0  0.00000000000E+00  0.00000000000E+00  0.28925117597E+03  0.31510625573E+03  0.12500283837E+03 0.  0.
    9000005    1    3    3    0    0  0.46446922138E+02  0.41217002003E+02  0.12693156709E+03  0.14131093572E+03  0.10000000000E+01 0.  0.
    9000005    1    3    3    0    0 -0.46446922138E+02 -0.41217002003E+02  0.16231960888E+03  0.17379532001E+03  0.10000000000E+01 0.  0.
<mgrwt>
<rscale>  0 0.12500284E+03</rscale>
<asrwt>0</asrwt>
<pdfrwt beam="2">  1        4 0.19888524E-02 0.12500284E+03</pdfrwt>
<pdfrwt beam="1">  1       -4 0.46489030E-01 0.12500284E+03</pdfrwt>
<totfact> 0.73737336E+03</totfact>
</mgrwt>
</event>
<event>
 5    1  0.3217852E-002  0.1249963E+03  0.7818608E-02  0.1235075E+00
          4   -1    0    0  501    0  0.00000000000E+00  0.00000000000E+00  0.45843911261E+03  0.45844087173E+03  0.12700000000E+01 0. -1.
         -4   -1    0    0    0  501 -0.00000000000E+00 -0.00000000000E+00 -0.84711460620E+01  0.85658166922E+01  0.12700000000E+01 0. -1.
         25    2    1    2    0    0  0.00000000000E+00  0.00000000000E+00  0.44996796655E+03  0.46700668842E+03  0.12499630438E+03 0.  0.
    9000005    1    3    3    0    0 -0.13495054943E+02 -0.43676751528E+02  0.65802180067E+02  0.80129283246E+02  0.10000000000E+01 0.  0.
    9000005    1    3    3    0    0  0.13495054943E+02  0.43676751528E+02  0.38416578648E+03  0.38687740517E+03  0.10000000000E+01 0.  0.
<mgrwt>
<rscale>  0 0.12499630E+03</rscale>
<asrwt>0</asrwt>
<pdfrwt beam="1">  1        4 0.70536531E-01 0.12499630E+03</pdfrwt>
<pdfrwt beam="2">  1       -4 0.13106706E-02 0.12499630E+03</pdfrwt>
<totfact> 0.58523056E+03</totfact>
</mgrwt>
</event>
<event>
 5    1  0.3217852E-002  0.1249907E+03  0.7818608E-02  0.1235084E+00
         -4   -1    0    0    0  501 -0.00000000000E+00  0.00000000000E+00  0.59687846160E+01  0.61024003304E+01  0.12700000000E+01 0.  1.
          4   -1    0    0  501    0  0.00000000000E+00 -0.00000000000E+00 -0.64697222081E+03  0.64697346731E+03  0.12700000000E+01 0.  1.
         25    2    1    2    0    0  0.00000000000E+00  0.00000000000E+00 -0.64100343620E+03  0.65307586764E+03  0.12499073437E+03 0.  0.
    9000005    1    3    3    0    0 -0.86867840749E+00 -0.53886380018E+02 -0.48574494834E+03  0.48872656096E+03  0.10000000000E+01 0.  0.
    9000005    1    3    3    0    0  0.86867840749E+00  0.53886380018E+02 -0.15525848786E+03  0.16434930668E+03  0.10000000000E+01 0.  0.
<mgrwt>
<rscale>  0 0.12499073E+03</rscale>
<asrwt>0</asrwt>
<pdfrwt beam="2">  1        4 0.99544507E-01 0.12499073E+03</pdfrwt>
<pdfrwt beam="1">  1       -4 0.92864908E-03 0.12499073E+03</pdfrwt>
<totfact> 0.45689081E+03</totfact>
</mgrwt>
</event>
<event>
 5    1  0.3217852E-002  0.1249945E+03  0.7818608E-02  0.1235078E+00
          4   -1    0    0  501    0  0.00000000000E+00  0.00000000000E+00  0.37329461400E+02  0.37351058732E+02  0.12700000000E+01 0. -1.
         -4   -1    0    0    0  501 -0.00000000000E+00 -0.00000000000E+00 -0.10457760368E+03  0.10458531490E+03  0.12700000000E+01 0. -1.
         25    2    1    2    0    0  0.00000000000E+00  0.00000000000E+00 -0.67248142281E+02  0.14193637363E+03  0.12499448595E+03 0.  0.
    9000005    1    3    3    0    0 -0.37969941217E+02 -0.47636456106E+02 -0.49438575007E+02  0.78460952614E+02  0.10000000000E+01 0.  0.
    9000005    1    3    3    0    0  0.37969941217E+02  0.47636456106E+02 -0.17809567274E+02  0.63475421014E+02  0.10000000000E+01 0.  0.
<mgrwt>
<rscale>  0 0.12499449E+03</rscale>
<asrwt>0</asrwt>
<pdfrwt beam="1">  1        4 0.57452486E-02 0.12499449E+03</pdfrwt>
<pdfrwt beam="2">  1       -4 0.16091117E-01 0.12499449E+03</pdfrwt>
<totfact> 0.10094864E+04</totfact>
</mgrwt>
</event>
<event>
 5    1  0.3217852E-002  0.1249949E+03  0.7818608E-02  0.1235077E+00
          4   -1    0    0  501    0  0.00000000000E+00  0.00000000000E+00  0.12325999499E+02  0.12391253514E+02  0.12700000000E+01 0.  1.
         -4   -1    0    0    0  501 -0.00000000000E+00 -0.00000000000E+00 -0.31598242960E+03  0.31598498178E+03  0.12700000000E+01 0.  1.
         25    2    1    2    0    0  0.00000000000E+00  0.00000000000E+00 -0.30365643010E+03  0.32837623530E+03  0.12499489737E+03 0.  0.
    9000005    1    3    3    0    0 -0.47627174562E+02  0.40104357589E+02 -0.13787136313E+03  0.15128192233E+03  0.10000000000E+01 0.  0.
    9000005    1    3    3    0    0  0.47627174562E+02 -0.40104357589E+02 -0.16578506697E+03  0.17709431297E+03  0.10000000000E+01 0.  0.
<mgrwt>
<rscale>  0 0.12499490E+03</rscale>
<asrwt>0</asrwt>
<pdfrwt beam="1">  1        4 0.19015237E-02 0.12499490E+03</pdfrwt>
<pdfrwt beam="2">  1       -4 0.48617891E-01 0.12499490E+03</pdfrwt>
<totfact> 0.72178998E+03</totfact>
</mgrwt>
</event>
<event>
 5    1  0.3217852E-002  0.1250003E+03  0.7818608E-02  0.1235069E+00
          4   -1    0    0  501    0  0.00000000000E+00  0.00000000000E+00  0.45643789166E+04  0.45643790933E+04  0.12700000000E+01 0. -1.
         -4   -1    0    0    0  501 -0.00000000000E+00 -0.00000000000E+00 -0.38438393706E+00  0.13268952525E+01  0.12700000000E+01 0. -1.
         25    2    1    2    0    0  0.00000000000E+00  0.00000000000E+00  0.45639945326E+04  0.45657059885E+04  0.12500031830E+03 0.  0.
    9000005    1    3    3    0    0  0.63242062974E+01 -0.55734370952E+02  0.32882442874E+04  0.32887228235E+04  0.10000000000E+01 0.  0.
    9000005    1    3    3    0    0 -0.63242062974E+01  0.55734370952E+02  0.12757502452E+04  0.12769831650E+04  0.10000000000E+01 0.  0.
<mgrwt>
<rscale>  0 0.12500032E+03</rscale>
<asrwt>0</asrwt>
<pdfrwt beam="1">  1        4 0.70230396E+00 0.12500032E+03</pdfrwt>
<pdfrwt beam="2">  1       -4 0.13164683E-03 0.12500032E+03</pdfrwt>
<totfact> 0.27717736E+00</totfact>
</mgrwt>
</event>
<event>
 5    1  0.3217852E-002  0.1250024E+03  0.7818608E-02  0.1235066E+00
         -4   -1    0    0    0  501 -0.00000000000E+00  0.00000000000E+00  0.26550898516E+03  0.26551202252E+03  0.12700000000E+01 0. -1.
          4   -1    0    0  501    0  0.00000000000E+00 -0.00000000000E+00 -0.14682331384E+02  0.14737155590E+02  0.12700000000E+01 0. -1.
         25    2    1    2    0    0  0.00000000000E+00  0.00000000000E+00  0.25082665377E+03  0.28024917811E+03  0.12500236632E+03 0.  0.
    9000005    1    3    3    0    0  0.50790367693E+02  0.35063254634E+02  0.10341195941E+03  0.12043307945E+03  0.10000000000E+01 0.  0.
    9000005    1    3    3    0    0 -0.50790367693E+02 -0.35063254634E+02  0.14741469436E+03  0.15981609866E+03  0.10000000000E+01 0.  0.
<mgrwt>
<rscale>  0 0.12500237E+03</rscale>
<asrwt>0</asrwt>
<pdfrwt beam="2">  1        4 0.22632712E-02 0.12500237E+03</pdfrwt>
<pdfrwt beam="1">  1       -4 0.40851985E-01 0.12500237E+03</pdfrwt>
<totfact> 0.78140968E+03</totfact>
</mgrwt>
</event>
<event>
 5    1  0.3217852E-002  0.1250007E+03  0.7818608E-02  0.1235068E+00
         -4   -1    0    0    0  501 -0.00000000000E+00  0.00000000000E+00  0.76262179122E+01  0.77312417919E+01  0.12700000000E+01 0. -1.
          4   -1    0    0  501    0  0.00000000000E+00 -0.00000000000E+00 -0.50861030721E+03  0.50861189280E+03  0.12700000000E+01 0. -1.
         25    2    1    2    0    0  0.00000000000E+00  0.00000000000E+00 -0.50098408929E+03  0.51634313459E+03  0.12500069965E+03 0.  0.
    9000005    1    3    3    0    0 -0.51659489483E+02 -0.24012019957E+02 -0.14437076896E+03  0.15520695502E+03  0.10000000000E+01 0.  0.
    9000005    1    3    3    0    0  0.51659489483E+02  0.24012019957E+02 -0.35661332034E+03  0.36113617957E+03  0.10000000000E+01 0.  0.
<mgrwt>
<rscale>  0 0.12500070E+03</rscale>
<asrwt>0</asrwt>
<pdfrwt beam="2">  1        4 0.78255914E-01 0.12500070E+03</pdfrwt>
<pdfrwt beam="1">  1       -4 0.11814654E-02 0.12500070E+03</pdfrwt>
<totfact> 0.54617440E+03</totfact>
</mgrwt>
</event>
<event>
 5    1  0.3217852E-002  0.1250019E+03  0.7818608E-02  0.1235066E+00
         -4   -1    0    0    0  501 -0.00000000000E+00  0.00000000000E+00  0.19505468997E+03  0.19505882441E+03  0.12700000000E+01 0.  1.
          4   -1    0    0  501    0  0.00000000000E+00 -0.00000000000E+00 -0.20002562797E+02  0.20042839580E+02  0.12700000000E+01 0.  1.
         25    2    1    2    0    0  0.00000000000E+00  0.00000000000E+00  0.17505212717E+03  0.21510166399E+03  0.12500191447E+03 0.  0.
    9000005    1    3    3    0    0  0.46389529424E+02 -0.23238919566E+02  0.14746613546E+03  0.15633072932E+03  0.10000000000E+01 0.  0.
    9000005    1    3    3    0    0 -0.46389529424E+02  0.23238919566E+02  0.27585991714E+02  0.58770934667E+02  0.10000000000E+01 0.  0.
<mgrwt>
<rscale>  0 0.12500191E+03</rscale>
<asrwt>0</asrwt>
<pdfrwt beam="2">  1        4 0.30807336E-02 0.12500191E+03</pdfrwt>
<pdfrwt beam="1">  1       -4 0.30011830E-01 0.12500191E+03</pdfrwt>
<totfact> 0.87645681E+03</totfact>
</mgrwt>
</event>
<event>
 5    1  0.3217852E-002  0.1250007E+03  0.7818608E-02  0.1235068E+00
          4   -1    0    0  501    0  0.00000000000E+00  0.00000000000E+00  0.28268823992E+02  0.28297337506E+02  0.12700000000E+01 0.  1.
         -4   -1    0    0    0  501 -0.00000000000E+00 -0.00000000000E+00 -0.13808280953E+03  0.13808864974E+03  0.12700000000E+01 0.  1.
         25    2    1    2    0    0  0.00000000000E+00  0.00000000000E+00 -0.10981398553E+03  0.16638598724E+03  0.12500074133E+03 0.  0.
    9000005    1    3    3    0    0 -0.41418830646E+02  0.19039181307E+02 -0.11180636402E+03  0.12074631668E+03  0.10000000000E+01 0.  0.
    9000005    1    3    3    0    0  0.41418830646E+02 -0.19039181307E+02  0.19923784870E+01  0.45639670562E+02  0.10000000000E+01 0.  0.
<mgrwt>
<rscale>  0 0.12500074E+03</rscale>
<asrwt>0</asrwt>
<pdfrwt beam="1">  1        4 0.43516925E-02 0.12500074E+03</pdfrwt>
<pdfrwt beam="2">  1       -4 0.21246151E-01 0.12500074E+03</pdfrwt>
<totfact> 0.96123950E+03</totfact>
</mgrwt>
</event>
<event>
 5    1  0.3217852E-002  0.1249631E+03  0.7818608E-02  0.1235127E+00
          4   -1    0    0  501    0  0.00000000000E+00  0.00000000000E+00  0.12686135869E+03  0.12686771547E+03  0.12700000000E+01 0. -1.
         -4   -1    0    0    0  501 -0.00000000000E+00 -0.00000000000E+00 -0.30753064922E+02  0.30779277154E+02  0.12700000000E+01 0. -1.
         25    2    1    2    0    0  0.00000000000E+00  0.00000000000E+00  0.96108293768E+02  0.15764699262E+03  0.12496307516E+03 0.  0.
    9000005    1    3    3    0    0  0.44303314333E+01  0.56824137108E+02  0.15783838635E+02  0.59150147563E+02  0.10000000000E+01 0.  0.
    9000005    1    3    3    0    0 -0.44303314333E+01 -0.56824137108E+02  0.80324455133E+02  0.98496845062E+02  0.10000000000E+01 0.  0.
<mgrwt>
<rscale>  0 0.12496308E+03</rscale>
<asrwt>0</asrwt>
<pdfrwt beam="1">  1        4 0.19519638E-01 0.12496308E+03</pdfrwt>
<pdfrwt beam="2">  1       -4 0.47337460E-02 0.12496308E+03</pdfrwt>
<totfact> 0.97879588E+03</totfact>
</mgrwt>
</event>
<event>
 5    1  0.3217852E-002  0.1249984E+03  0.7818608E-02  0.1235072E+00
          4   -1    0    0  501    0  0.00000000000E+00  0.00000000000E+00  0.12605200956E+02  0.12669016976E+02  0.12700000000E+01 0.  1.
         -4   -1    0    0    0  501 -0.00000000000E+00 -0.00000000000E+00 -0.30903666913E+03  0.30903927868E+03  0.12700000000E+01 0.  1.
         25    2    1    2    0    0  0.00000000000E+00  0.00000000000E+00 -0.29643146818E+03  0.32170829566E+03  0.12499844867E+03 0.  0.
    9000005    1    3    3    0    0 -0.11011851457E+02 -0.60481687691E+02 -0.11934236907E+03  0.13424938165E+03  0.10000000000E+01 0.  0.
    9000005    1    3    3    0    0  0.11011851457E+02  0.60481687691E+02 -0.17708909910E+03  0.18745891401E+03  0.10000000000E+01 0.  0.
<mgrwt>
<rscale>  0 0.12499845E+03</rscale>
<asrwt>0</asrwt>
<pdfrwt beam="1">  1        4 0.19443716E-02 0.12499845E+03</pdfrwt>
<pdfrwt beam="2">  1       -4 0.47549207E-01 0.12499845E+03</pdfrwt>
<totfact> 0.72955916E+03</totfact>
</mgrwt>
</event>
<event>
 5    1  0.3217852E-002  0.1249979E+03  0.7818608E-02  0.1235073E+00
          4   -1    0    0  501    0  0.00000000000E+00  0.00000000000E+00  0.32444862382E+02  0.32469708883E+02  0.12700000000E+01 0.  1.
         -4   -1    0    0    0  501 -0.00000000000E+00 -0.00000000000E+00 -0.12031819605E+03  0.12032489851E+03  0.12700000000E+01 0.  1.
         25    2    1    2    0    0  0.00000000000E+00  0.00000000000E+00 -0.87873333668E+02  0.15279460739E+03  0.12499787709E+03 0.  0.
    9000005    1    3    3    0    0 -0.59725374626E+02 -0.43726070752E+01 -0.22108505282E+02  0.63843762990E+02  0.10000000000E+01 0.  0.
    9000005    1    3    3    0    0  0.59725374626E+02  0.43726070752E+01 -0.65764828386E+02  0.88950844400E+02  0.10000000000E+01 0.  0.
<mgrwt>
<rscale>  0 0.12499788E+03</rscale>
<asrwt>0</asrwt>
<pdfrwt beam="1">  1        4 0.49939442E-02 0.12499788E+03</pdfrwt>
<pdfrwt beam="2">  1       -4 0.18512918E-01 0.12499788E+03</pdfrwt>
<totfact> 0.98754241E+03</totfact>
</mgrwt>
</event>
<event>
 5    1  0.3217852E-002  0.1249983E+03  0.7818608E-02  0.1235072E+00
          4   -1    0    0  501    0  0.00000000000E+00  0.00000000000E+00  0.19064080822E+03  0.19064503838E+03  0.12700000000E+01 0.  1.
         -4   -1    0    0    0  501 -0.00000000000E+00 -0.00000000000E+00 -0.20465421059E+02  0.20504788687E+02  0.12700000000E+01 0.  1.
         25    2    1    2    0    0  0.00000000000E+00  0.00000000000E+00  0.17017538716E+03  0.21114982707E+03  0.12499834829E+03 0.  0.
    9000005    1    3    3    0    0  0.37620852991E+01  0.53671217115E+02  0.13878244318E+03  0.14884998947E+03  0.10000000000E+01 0.  0.
    9000005    1    3    3    0    0 -0.37620852991E+01 -0.53671217115E+02  0.31392943989E+02  0.62299837597E+02  0.10000000000E+01 0.  0.
<mgrwt>
<rscale>  0 0.12499835E+03</rscale>
<asrwt>0</asrwt>
<pdfrwt beam="1">  1        4 0.29332709E-01 0.12499835E+03</pdfrwt>
<pdfrwt beam="2">  1       -4 0.31518800E-02 0.12499835E+03</pdfrwt>
<totfact> 0.88291702E+03</totfact>
</mgrwt>
</event>
<event>
 5    1  0.3217852E-002  0.1249985E+03  0.7818608E-02  0.1235072E+00
         -4   -1    0    0    0  501 -0.00000000000E+00  0.00000000000E+00  0.16472913644E+03  0.16473403198E+03  0.12700000000E+01 0. -1.
          4   -1    0    0  501    0  0.00000000000E+00 -0.00000000000E+00 -0.23690345674E+02  0.23724362545E+02  0.12700000000E+01 0. -1.
         25    2    1    2    0    0  0.00000000000E+00  0.00000000000E+00  0.14103879076E+03  0.18845839452E+03  0.12499850386E+03 0.  0.
    9000005    1    3    3    0    0  0.32882987090E+02  0.48318208648E+02  0.37172058243E+02  0.69272664457E+02  0.10000000000E+01 0.  0.
    9000005    1    3    3    0    0 -0.32882987090E+02 -0.48318208648E+02  0.10386673252E+03  0.11918573007E+03  0.10000000000E+01 0.  0.
<mgrwt>
<rscale>  0 0.12499850E+03</rscale>
<asrwt>0</asrwt>
<pdfrwt beam="2">  1        4 0.36476620E-02 0.12499850E+03</pdfrwt>
<pdfrwt beam="1">  1       -4 0.25345936E-01 0.12499850E+03</pdfrwt>
<totfact> 0.92119331E+03</totfact>
</mgrwt>
</event>
<event>
 5    1  0.3217852E-002  0.1249993E+03  0.7818608E-02  0.1235070E+00
          4   -1    0    0  501    0  0.00000000000E+00  0.00000000000E+00  0.10345167239E+04  0.10345175035E+04  0.12700000000E+01 0. -1.
         -4   -1    0    0    0  501 -0.00000000000E+00 -0.00000000000E+00 -0.36682815451E+01  0.38819053948E+01  0.12700000000E+01 0. -1.
         25    2    1    2    0    0  0.00000000000E+00  0.00000000000E+00  0.10308484424E+04  0.10383994089E+04  0.12499928467E+03 0.  0.
    9000005    1    3    3    0    0 -0.46504995268E+02  0.41664129718E+02  0.49409708091E+03  0.49802764949E+03  0.10000000000E+01 0.  0.
    9000005    1    3    3    0    0  0.46504995268E+02 -0.41664129718E+02  0.53675136146E+03  0.54037175937E+03  0.10000000000E+01 0.  0.
<mgrwt>
<rscale>  0 0.12499928E+03</rscale>
<asrwt>0</asrwt>
<pdfrwt beam="1">  1        4 0.15917296E+00 0.12499928E+03</pdfrwt>
<pdfrwt beam="2">  1       -4 0.58084341E-03 0.12499928E+03</pdfrwt>
<totfact> 0.29360213E+03</totfact>
</mgrwt>
</event>
<event>
 5    1  0.3217852E-002  0.1250014E+03  0.7818608E-02  0.1235067E+00
         -4   -1    0    0    0  501 -0.00000000000E+00  0.00000000000E+00  0.14935743513E+04  0.14935748913E+04  0.12700000000E+01 0.  1.
          4   -1    0    0  501    0  0.00000000000E+00 -0.00000000000E+00 -0.24606834451E+01  0.27690906480E+01  0.12700000000E+01 0.  1.
         25    2    1    2    0    0  0.00000000000E+00  0.00000000000E+00  0.14911136679E+04  0.14963439819E+04  0.12500136674E+03 0.  0.
    9000005    1    3    3    0    0 -0.45999843174E+02  0.42089573932E+02  0.69502774376E+03  0.69781951994E+03  0.10000000000E+01 0.  0.
    9000005    1    3    3    0    0  0.45999843174E+02 -0.42089573932E+02  0.79608592412E+03  0.79852446198E+03  0.10000000000E+01 0.  0.
<mgrwt>
<rscale>  0 0.12500137E+03</rscale>
<asrwt>0</asrwt>
<pdfrwt beam="2">  1        4 0.40233218E-03 0.12500137E+03</pdfrwt>
<pdfrwt beam="1">  1       -4 0.22980425E+00 0.12500137E+03</pdfrwt>
<totfact> 0.18001924E+03</totfact>
</mgrwt>
</event>
<event>
 5    1  0.3217852E-002  0.1250003E+03  0.7818608E-02  0.1235069E+00
          4   -1    0    0  501    0  0.00000000000E+00  0.00000000000E+00  0.23851729018E+03  0.23852067125E+03  0.12700000000E+01 0.  1.
         -4   -1    0    0    0  501 -0.00000000000E+00 -0.00000000000E+00 -0.16349165310E+02  0.16398417800E+02  0.12700000000E+01 0.  1.
         25    2    1    2    0    0  0.00000000000E+00  0.00000000000E+00  0.22216812487E+03  0.25491908905E+03  0.12500026502E+03 0.  0.
    9000005    1    3    3    0    0 -0.26808931710E+02  0.39200568102E+02  0.28248773277E+02  0.55266595251E+02  0.10000000000E+01 0.  0.
    9000005    1    3    3    0    0  0.26808931710E+02 -0.39200568102E+02  0.19391935159E+03  0.19965249380E+03  0.10000000000E+01 0.  0.
<mgrwt>
<rscale>  0 0.12500027E+03</rscale>
<asrwt>0</asrwt>
<pdfrwt beam="1">  1        4 0.36699012E-01 0.12500027E+03</pdfrwt>
<pdfrwt beam="2">  1       -4 0.25193052E-02 0.12500027E+03</pdfrwt>
<totfact> 0.81623945E+03</totfact>
</mgrwt>
</event>
<event>
 5    1  0.3217852E-002  0.1249964E+03  0.7818608E-02  0.1235075E+00
          4   -1    0    0  501    0  0.00000000000E+00  0.00000000000E+00  0.12099340221E+02  0.12165810034E+02  0.12700000000E+01 0. -1.
         -4   -1    0    0    0  501 -0.00000000000E+00 -0.00000000000E+00 -0.32187757018E+03  0.32188007563E+03  0.12700000000E+01 0. -1.
         25    2    1    2    0    0  0.00000000000E+00  0.00000000000E+00 -0.30977822996E+03  0.33404588566E+03  0.12499640783E+03 0.  0.
    9000005    1    3    3    0    0 -0.60468630283E+02  0.15615016483E+02 -0.16070836032E+03  0.17241943355E+03  0.10000000000E+01 0.  0.
    9000005    1    3    3    0    0  0.60468630283E+02 -0.15615016483E+02 -0.14906986964E+03  0.16162645211E+03  0.10000000000E+01 0.  0.
<mgrwt>
<rscale>  0 0.12499641E+03</rscale>
<asrwt>0</asrwt>
<pdfrwt beam="1">  1        4 0.18667430E-02 0.12499641E+03</pdfrwt>
<pdfrwt beam="2">  1       -4 0.49524925E-01 0.12499641E+03</pdfrwt>
<totfact> 0.71521810E+03</totfact>
</mgrwt>
</event>
<event>
 5    1  0.3217852E-002  0.1249993E+03  0.7818608E-02  0.1235070E+00
          4   -1    0    0  501    0  0.00000000000E+00  0.00000000000E+00  0.13632028501E+03  0.13632620072E+03  0.12700000000E+01 0.  1.
         -4   -1    0    0    0  501 -0.00000000000E+00 -0.00000000000E+00 -0.28633993770E+02  0.28662144009E+02  0.12700000000E+01 0.  1.
         25    2    1    2    0    0  0.00000000000E+00  0.00000000000E+00  0.10768629124E+03  0.16498834473E+03  0.12499926631E+03 0.  0.
    9000005    1    3    3    0    0  0.14194491575E+02  0.59559692062E+02  0.37338215862E+02  0.71721564912E+02  0.10000000000E+01 0.  0.
    9000005    1    3    3    0    0 -0.14194491575E+02 -0.59559692062E+02  0.70348075373E+02  0.93266779822E+02  0.10000000000E+01 0.  0.
<mgrwt>
<rscale>  0 0.12499927E+03</rscale>
<asrwt>0</asrwt>
<pdfrwt beam="1">  1        4 0.20974972E-01 0.12499927E+03</pdfrwt>
<pdfrwt beam="2">  1       -4 0.44078503E-02 0.12499927E+03</pdfrwt>
<totfact> 0.96391188E+03</totfact>
</mgrwt>
</event>
<event>
 5    1  0.3217852E-002  0.1250081E+03  0.7818608E-02  0.1235057E+00
          4   -1    0    0  501    0  0.00000000000E+00  0.00000000000E+00  0.60803690895E+02  0.60816952624E+02  0.12700000000E+01 0.  1.
         -4   -1    0    0    0  501 -0.00000000000E+00 -0.00000000000E+00 -0.64225433654E+02  0.64237988978E+02  0.12700000000E+01 0.  1.
         25    2    1    2    0    0  0.00000000000E+00  0.00000000000E+00 -0.34217427585E+01  0.12505494160E+03  0.12500812012E+03 0.  0.
    9000005    1    3    3    0    0 -0.56597835925E+02  0.17819692954E+02  0.17915371691E+02  0.61990459195E+02  0.10000000000E+01 0.  0.
    9000005    1    3    3    0    0  0.56597835925E+02 -0.17819692954E+02 -0.21337114450E+02  0.63064482408E+02  0.10000000000E+01 0.  0.
<mgrwt>
<rscale>  0 0.12500812E+03</rscale>
<asrwt>0</asrwt>
<pdfrwt beam="1">  1        4 0.93563999E-02 0.12500812E+03</pdfrwt>
<pdfrwt beam="2">  1       -4 0.98828219E-02 0.12500812E+03</pdfrwt>
<totfact> 0.10449752E+04</totfact>
</mgrwt>
</event>
<event>
 5    1  0.3217852E-002  0.1249987E+03  0.7818608E-02  0.1235071E+00
         -4   -1    0    0    0  501 -0.00000000000E+00  0.00000000000E+00  0.73318464849E+01  0.74410263323E+01  0.12700000000E+01 0. -1.
          4   -1    0    0  501    0  0.00000000000E+00 -0.00000000000E+00 -0.52871970293E+03  0.52872122821E+03  0.12700000000E+01 0. -1.
         25    2    1    2    0    0  0.00000000000E+00  0.00000000000E+00 -0.52138785644E+03  0.53616225454E+03  0.12499866541E+03 0.  0.
    9000005    1    3    3    0    0 -0.66737851528E+01 -0.98893990637E+01  0.24225117613E+01  0.12215080243E+02  0.10000000000E+01 0.  0.
    9000005    1    3    3    0    0  0.66737851528E+01  0.98893990637E+01 -0.52381036820E+03  0.52394717430E+03  0.10000000000E+01 0.  0.
<mgrwt>
<rscale>  0 0.12499867E+03</rscale>
<asrwt>0</asrwt>
<pdfrwt beam="2">  1        4 0.81349979E-01 0.12499867E+03</pdfrwt>
<pdfrwt beam="1">  1       -4 0.11364926E-02 0.12499867E+03</pdfrwt>
<totfact> 0.53165443E+03</totfact>
</mgrwt>
</event>
<event>
 5    1  0.3217852E-002  0.1249980E+03  0.7818608E-02  0.1235072E+00
          4   -1    0    0  501    0  0.00000000000E+00  0.00000000000E+00  0.83028169470E+02  0.83037881870E+02  0.12700000000E+01 0.  1.
         -4   -1    0    0    0  501 -0.00000000000E+00 -0.00000000000E+00 -0.47024774281E+02  0.47041920626E+02  0.12700000000E+01 0.  1.
         25    2    1    2    0    0  0.00000000000E+00  0.00000000000E+00  0.36003395189E+02  0.13007980250E+03  0.12499804219E+03 0.  0.
    9000005    1    3    3    0    0  0.19322501973E+02 -0.43506935722E+02  0.60131059980E+02  0.76700436196E+02  0.10000000000E+01 0.  0.
    9000005    1    3    3    0    0 -0.19322501973E+02  0.43506935722E+02 -0.24127664791E+02  0.53379366300E+02  0.10000000000E+01 0.  0.
<mgrwt>
<rscale>  0 0.12499804E+03</rscale>
<asrwt>0</asrwt>
<pdfrwt beam="1">  1        4 0.12775630E-01 0.12499804E+03</pdfrwt>
<pdfrwt beam="2">  1       -4 0.72366468E-02 0.12499804E+03</pdfrwt>
<totfact> 0.10343258E+04</totfact>
</mgrwt>
</event>
<event>
 5    1  0.3217852E-002  0.1250037E+03  0.7818608E-02  0.1235063E+00
          4   -1    0    0  501    0  0.00000000000E+00  0.00000000000E+00  0.17846764487E+02  0.17891894888E+02  0.12700000000E+01 0.  1.
         -4   -1    0    0    0  501 -0.00000000000E+00 -0.00000000000E+00 -0.21856688046E+03  0.21857057015E+03  0.12700000000E+01 0.  1.
         25    2    1    2    0    0  0.00000000000E+00  0.00000000000E+00 -0.20072011597E+03  0.23646246503E+03  0.12500372960E+03 0.  0.
    9000005    1    3    3    0    0  0.35618089700E+02 -0.14743671242E+02 -0.73139159619E+01  0.39249427031E+02  0.10000000000E+01 0.  0.
    9000005    1    3    3    0    0 -0.35618089700E+02  0.14743671242E+02 -0.19340620001E+03  0.19721303800E+03  0.10000000000E+01 0.  0.
<mgrwt>
<rscale>  0 0.12500373E+03</rscale>
<asrwt>0</asrwt>
<pdfrwt beam="1">  1        4 0.27494116E-02 0.12500373E+03</pdfrwt>
<pdfrwt beam="2">  1       -4 0.33629427E-01 0.12500373E+03</pdfrwt>
<totfact> 0.84320045E+03</totfact>
</mgrwt>
</event>
<event>
 5    1  0.3217852E-002  0.1250019E+03  0.7818608E-02  0.1235066E+00
          4   -1    0    0  501    0  0.00000000000E+00  0.00000000000E+00  0.24943565498E+03  0.24943888805E+03  0.12700000000E+01 0.  1.
         -4   -1    0    0    0  501 -0.00000000000E+00 -0.00000000000E+00 -0.15631750968E+02  0.15683256624E+02  0.12700000000E+01 0.  1.
         25    2    1    2    0    0  0.00000000000E+00  0.00000000000E+00  0.23380390401E+03  0.26512214468E+03  0.12500194426E+03 0.  0.
    9000005    1    3    3    0    0 -0.16387582168E+02 -0.49237738434E+02  0.43049720318E+02  0.67432826983E+02  0.10000000000E+01 0.  0.
    9000005    1    3    3    0    0  0.16387582168E+02  0.49237738434E+02  0.19075418369E+03  0.19768931770E+03  0.10000000000E+01 0.  0.
<mgrwt>
<rscale>  0 0.12500194E+03</rscale>
<asrwt>0</asrwt>
<pdfrwt beam="1">  1        4 0.38378923E-01 0.12500194E+03</pdfrwt>
<pdfrwt beam="2">  1       -4 0.24090956E-02 0.12500194E+03</pdfrwt>
<totfact> 0.80189104E+03</totfact>
</mgrwt>
</event>
<event>
 5    1  0.3217852E-002  0.1250071E+03  0.7818608E-02  0.1235058E+00
          4   -1    0    0  501    0  0.00000000000E+00  0.00000000000E+00  0.22724050147E+03  0.22724405033E+03  0.12700000000E+01 0.  1.
         -4   -1    0    0    0  501 -0.00000000000E+00 -0.00000000000E+00 -0.17164737556E+02  0.17211656381E+02  0.12700000000E+01 0.  1.
         25    2    1    2    0    0  0.00000000000E+00  0.00000000000E+00  0.21007576392E+03  0.24445570671E+03  0.12500706363E+03 0.  0.
    9000005    1    3    3    0    0  0.11372787968E+02 -0.51827082660E+02  0.16960918725E+03  0.17771793157E+03  0.10000000000E+01 0.  0.
    9000005    1    3    3    0    0 -0.11372787968E+02  0.51827082660E+02  0.40466576672E+02  0.66737775141E+02  0.10000000000E+01 0.  0.
<mgrwt>
<rscale>  0 0.12500706E+03</rscale>
<asrwt>0</asrwt>
<pdfrwt beam="1">  1        4 0.34963961E-01 0.12500706E+03</pdfrwt>
<pdfrwt beam="2">  1       -4 0.26446109E-02 0.12500706E+03</pdfrwt>
<totfact> 0.83125124E+03</totfact>
</mgrwt>
</event>
<event>
 5    1  0.3217852E-002  0.1250003E+03  0.7818608E-02  0.1235069E+00
          4   -1    0    0  501    0  0.00000000000E+00  0.00000000000E+00  0.17786539161E+02  0.17831821986E+02  0.12700000000E+01 0. -1.
         -4   -1    0    0    0  501 -0.00000000000E+00 -0.00000000000E+00 -0.21929289617E+03  0.21929657364E+03  0.12700000000E+01 0. -1.
         25    2    1    2    0    0  0.00000000000E+00  0.00000000000E+00 -0.20150635701E+03  0.23712839563E+03  0.12500025639E+03 0.  0.
    9000005    1    3    3    0    0 -0.49529421710E+02  0.14096181891E+02 -0.16791423444E+03  0.17563614687E+03  0.10000000000E+01 0.  0.
    9000005    1    3    3    0    0  0.49529421710E+02 -0.14096181891E+02 -0.33592122570E+02  0.61492248760E+02  0.10000000000E+01 0.  0.
<mgrwt>
<rscale>  0 0.12500026E+03</rscale>
<asrwt>0</asrwt>
<pdfrwt beam="1">  1        4 0.27401570E-02 0.12500026E+03</pdfrwt>
<pdfrwt beam="2">  1       -4 0.33741133E-01 0.12500026E+03</pdfrwt>
<totfact> 0.84226428E+03</totfact>
</mgrwt>
</event>
<event>
 5    1  0.3217852E-002  0.1249985E+03  0.7818608E-02  0.1235072E+00
         -4   -1    0    0    0  501 -0.00000000000E+00  0.00000000000E+00  0.88055700848E+02  0.88064858779E+02  0.12700000000E+01 0. -1.
          4   -1    0    0  501    0  0.00000000000E+00 -0.00000000000E+00 -0.44339529911E+02  0.44357714242E+02  0.12700000000E+01 0. -1.
         25    2    1    2    0    0  0.00000000000E+00  0.00000000000E+00  0.43716170937E+02  0.13242257302E+03  0.12499853697E+03 0.  0.
    9000005    1    3    3    0    0 -0.17033231228E+02  0.60028351662E+02  0.18246100409E+02  0.65018875333E+02  0.10000000000E+01 0.  0.
    9000005    1    3    3    0    0  0.17033231228E+02 -0.60028351662E+02  0.25470070527E+02  0.67403697688E+02  0.10000000000E+01 0.  0.
<mgrwt>
<rscale>  0 0.12499854E+03</rscale>
<asrwt>0</asrwt>
<pdfrwt beam="2">  1        4 0.68235695E-02 0.12499854E+03</pdfrwt>
<pdfrwt beam="1">  1       -4 0.13549134E-01 0.12499854E+03</pdfrwt>
<totfact> 0.10293027E+04</totfact>
</mgrwt>
</event>
<event>
 5    1  0.3217852E-002  0.1249987E+03  0.7818608E-02  0.1235071E+00
          4   -1    0    0  501    0  0.00000000000E+00  0.00000000000E+00  0.40791583850E+02  0.40811349071E+02  0.12700000000E+01 0.  1.
         -4   -1    0    0    0  501 -0.00000000000E+00 -0.00000000000E+00 -0.95711985647E+02  0.95720411076E+02  0.12700000000E+01 0.  1.
         25    2    1    2    0    0  0.00000000000E+00  0.00000000000E+00 -0.54920401798E+02  0.13653176015E+03  0.12499868397E+03 0.  0.
    9000005    1    3    3    0    0  0.20087463682E+00  0.10407808597E+02 -0.94763660711E+02  0.95338943889E+02  0.10000000000E+01 0.  0.
    9000005    1    3    3    0    0 -0.20087463682E+00 -0.10407808597E+02  0.39843258914E+02  0.41192816258E+02  0.10000000000E+01 0.  0.
<mgrwt>
<rscale>  0 0.12499868E+03</rscale>
<asrwt>0</asrwt>
<pdfrwt beam="1">  1        4 0.62777968E-02 0.12499868E+03</pdfrwt>
<pdfrwt beam="2">  1       -4 0.14727089E-01 0.12499868E+03</pdfrwt>
<totfact> 0.10206188E+04</totfact>
</mgrwt>
</event>
<event>
 5    1  0.3217852E-002  0.1249997E+03  0.7818608E-02  0.1235070E+00
         -4   -1    0    0    0  501 -0.00000000000E+00  0.00000000000E+00  0.32647234143E+03  0.32647481161E+03  0.12700000000E+01 0.  1.
          4   -1    0    0  501    0  0.00000000000E+00 -0.00000000000E+00 -0.11928749034E+02  0.11996164117E+02  0.12700000000E+01 0.  1.
         25    2    1    2    0    0  0.00000000000E+00  0.00000000000E+00  0.31454359239E+03  0.33847097573E+03  0.12499971958E+03 0.  0.
    9000005    1    3    3    0    0 -0.14091191238E+02 -0.42893063214E+02  0.27426692951E+03  0.27795993446E+03  0.10000000000E+01 0.  0.
    9000005    1    3    3    0    0  0.14091191238E+02  0.42893063214E+02  0.40276662880E+02  0.60511041266E+02  0.10000000000E+01 0.  0.
<mgrwt>
<rscale>  0 0.12499972E+03</rscale>
<asrwt>0</asrwt>
<pdfrwt beam="2">  1        4 0.18405679E-02 0.12499972E+03</pdfrwt>
<pdfrwt beam="1">  1       -4 0.50231891E-01 0.12499972E+03</pdfrwt>
<totfact> 0.71012232E+03</totfact>
</mgrwt>
</event>
<event>
 5    1  0.3217852E-002  0.1249976E+03  0.7818608E-02  0.1235073E+00
         -4   -1    0    0    0  501 -0.00000000000E+00  0.00000000000E+00  0.47137354059E+02  0.47154459467E+02  0.12700000000E+01 0. -1.
          4   -1    0    0  501    0  0.00000000000E+00 -0.00000000000E+00 -0.82829383555E+02  0.82839119262E+02  0.12700000000E+01 0. -1.
         25    2    1    2    0    0  0.00000000000E+00  0.00000000000E+00 -0.35692029496E+02  0.12999357873E+03  0.12499763814E+03 0.  0.
    9000005    1    3    3    0    0 -0.34913160384E+02 -0.30470120849E+02 -0.61447177612E+02  0.76968257542E+02  0.10000000000E+01 0.  0.
    9000005    1    3    3    0    0  0.34913160384E+02  0.30470120849E+02  0.25755148116E+02  0.53025321187E+02  0.10000000000E+01 0.  0.
<mgrwt>
<rscale>  0 0.12499764E+03</rscale>
<asrwt>0</asrwt>
<pdfrwt beam="2">  1        4 0.12745047E-01 0.12499764E+03</pdfrwt>
<pdfrwt beam="1">  1       -4 0.72539653E-02 0.12499764E+03</pdfrwt>
<totfact> 0.10345196E+04</totfact>
</mgrwt>
</event>
<event>
 5    1  0.3217852E-002  0.1250002E+03  0.7818608E-02  0.1235069E+00
         -4   -1    0    0    0  501 -0.00000000000E+00  0.00000000000E+00  0.44416041644E+02  0.44434194663E+02  0.12700000000E+01 0.  1.
          4   -1    0    0  501    0  0.00000000000E+00 -0.00000000000E+00 -0.87906393185E+02  0.87915566669E+02  0.12700000000E+01 0.  1.
         25    2    1    2    0    0  0.00000000000E+00  0.00000000000E+00 -0.43490351540E+02  0.13234976133E+03  0.12500019459E+03 0.  0.
    9000005    1    3    3    0    0 -0.54143395803E+01  0.82903760910E+00  0.44166580540E+02  0.44516167996E+02  0.10000000000E+01 0.  0.
    9000005    1    3    3    0    0  0.54143395803E+01 -0.82903760910E+00 -0.87656932081E+02  0.87833593336E+02  0.10000000000E+01 0.  0.
<mgrwt>
<rscale>  0 0.12500019E+03</rscale>
<asrwt>0</asrwt>
<pdfrwt beam="2">  1        4 0.13526162E-01 0.12500019E+03</pdfrwt>
<pdfrwt beam="1">  1       -4 0.68353392E-02 0.12500019E+03</pdfrwt>
<totfact> 0.10294193E+04</totfact>
</mgrwt>
</event>
<event>
 5    1  0.3217852E-002  0.1249990E+03  0.7818608E-02  0.1235071E+00
         -4   -1    0    0    0  501 -0.00000000000E+00  0.00000000000E+00  0.21735858926E+03  0.21736229946E+03  0.12700000000E+01 0. -1.
          4   -1    0    0  501    0  0.00000000000E+00 -0.00000000000E+00 -0.17944867240E+02  0.17989751534E+02  0.12700000000E+01 0. -1.
         25    2    1    2    0    0  0.00000000000E+00  0.00000000000E+00  0.19941372202E+03  0.23535205099E+03  0.12499902150E+03 0.  0.
    9000005    1    3    3    0    0 -0.10326297312E+02  0.46451589496E+02  0.17597445155E+03  0.18229753202E+03  0.10000000000E+01 0.  0.
    9000005    1    3    3    0    0  0.10326297312E+02 -0.46451589496E+02  0.23439270470E+02  0.53054518969E+02  0.10000000000E+01 0.  0.
<mgrwt>
<rscale>  0 0.12499902E+03</rscale>
<asrwt>0</asrwt>
<pdfrwt beam="2">  1        4 0.27644868E-02 0.12499902E+03</pdfrwt>
<pdfrwt beam="1">  1       -4 0.33443522E-01 0.12499902E+03</pdfrwt>
<totfact> 0.84496345E+03</totfact>
</mgrwt>
</event>
<event>
 5    1  0.3217852E-002  0.1250008E+03  0.7818608E-02  0.1235068E+00
         -4   -1    0    0    0  501 -0.00000000000E+00  0.00000000000E+00  0.14815044522E+03  0.14815588857E+03  0.12700000000E+01 0.  1.
          4   -1    0    0  501    0  0.00000000000E+00 -0.00000000000E+00 -0.26345880028E+02  0.26376472366E+02  0.12700000000E+01 0.  1.
         25    2    1    2    0    0  0.00000000000E+00  0.00000000000E+00  0.12180456519E+03  0.17453236094E+03  0.12500077165E+03 0.  0.
    9000005    1    3    3    0    0  0.43405294699E+02  0.27926126666E+02  0.11707289779E+02  0.52933437376E+02  0.10000000000E+01 0.  0.
    9000005    1    3    3    0    0 -0.43405294699E+02 -0.27926126666E+02  0.11009727541E+03  0.12159892356E+03  0.10000000000E+01 0.  0.
<mgrwt>
<rscale>  0 0.12500077E+03</rscale>
<asrwt>0</asrwt>
<pdfrwt beam="2">  1        4 0.40559843E-02 0.12500077E+03</pdfrwt>
<pdfrwt beam="1">  1       -4 0.22795148E-01 0.12500077E+03</pdfrwt>
<totfact> 0.94608919E+03</totfact>
</mgrwt>
</event>
<event>
 5    1  0.3217852E-002  0.1249955E+03  0.7818608E-02  0.1235076E+00
          4   -1    0    0  501    0  0.00000000000E+00  0.00000000000E+00  0.18852998668E+02  0.18895725939E+02  0.12700000000E+01 0. -1.
         -4   -1    0    0    0  501 -0.00000000000E+00 -0.00000000000E+00 -0.20690118909E+03  0.20690508680E+03  0.12700000000E+01 0. -1.
         25    2    1    2    0    0  0.00000000000E+00  0.00000000000E+00 -0.18804819042E+03  0.22580081274E+03  0.12499554038E+03 0.  0.
    9000005    1    3    3    0    0 -0.56336158700E+02  0.26772755633E+02 -0.10088584564E+03  0.11861491083E+03  0.10000000000E+01 0.  0.
    9000005    1    3    3    0    0  0.56336158700E+02 -0.26772755633E+02 -0.87162344781E+02  0.10718590191E+03  0.10000000000E+01 0.  0.
<mgrwt>
<rscale>  0 0.12499554E+03</rscale>
<asrwt>0</asrwt>
<pdfrwt beam="1">  1        4 0.29040480E-02 0.12499554E+03</pdfrwt>
<pdfrwt beam="2">  1       -4 0.31834537E-01 0.12499554E+03</pdfrwt>
<totfact> 0.85967142E+03</totfact>
</mgrwt>
</event>
<event>
 4    1  0.3217852E-002  0.1250984E+03  0.7818608E-02  0.1234916E+00
         -4   -1    0    0    0  501 -0.00000000000E+00  0.00000000000E+00  0.16750715961E+02  0.16798791183E+02  0.12700000000E+01 0.  1.
          4   -1    0    0  501    0  0.00000000000E+00 -0.00000000000E+00 -0.23318167932E+03  0.23318513776E+03  0.12700000000E+01 0.  1.
    9000005    1    1    2    0    0  0.25631287118E+02 -0.12970742083E+02 -0.21922808813E+03  0.22110440442E+03  0.10000000000E+01 0.  0.
    9000005    1    1    2    0    0 -0.25631287118E+02  0.12970742083E+02  0.27971247682E+01  0.28879524520E+02  0.10000000000E+01 0.  0.
<mgrwt>
<rscale>  0 0.12509837E+03</rscale>
<asrwt>0</asrwt>
<pdfrwt beam="2">  1        4 0.35878066E-01 0.12509837E+03</pdfrwt>
<pdfrwt beam="1">  1       -4 0.25809975E-02 0.12509837E+03</pdfrwt>
<totfact> 0.82152389E+03</totfact>
</mgrwt>
</event>
<event>
 5    1  0.3217852E-002  0.1250035E+03  0.7818608E-02  0.1235064E+00
         -4   -1    0    0    0  501 -0.00000000000E+00  0.00000000000E+00  0.32454500594E+02  0.32479339722E+02  0.12700000000E+01 0.  1.
          4   -1    0    0  501    0  0.00000000000E+00 -0.00000000000E+00 -0.12029326878E+03  0.12029997263E+03  0.12700000000E+01 0.  1.
         25    2    1    2    0    0  0.00000000000E+00  0.00000000000E+00 -0.87838768190E+02  0.15277931235E+03  0.12500347629E+03 0.  0.
    9000005    1    3    3    0    0  0.27395069550E+02  0.51283269199E+02 -0.15915152719E+02  0.60288934486E+02  0.10000000000E+01 0.  0.
    9000005    1    3    3    0    0 -0.27395069550E+02 -0.51283269199E+02 -0.71923615470E+02  0.92490377866E+02  0.10000000000E+01 0.  0.
<mgrwt>
<rscale>  0 0.12500348E+03</rscale>
<asrwt>0</asrwt>
<pdfrwt beam="2">  1        4 0.18509083E-01 0.12500348E+03</pdfrwt>
<pdfrwt beam="1">  1       -4 0.49954265E-02 0.12500348E+03</pdfrwt>
<totfact> 0.98744818E+03</totfact>
</mgrwt>
</event>
<event>
 5    1  0.3217852E-002  0.1250074E+03  0.7818608E-02  0.1235058E+00
         -4   -1    0    0    0  501 -0.00000000000E+00  0.00000000000E+00  0.23372141232E+03  0.23372486277E+03  0.12700000000E+01 0. -1.
          4   -1    0    0  501    0  0.00000000000E+00 -0.00000000000E+00 -0.16687551563E+02  0.16735808232E+02  0.12700000000E+01 0. -1.
         25    2    1    2    0    0  0.00000000000E+00  0.00000000000E+00  0.21703386076E+03  0.25046067100E+03  0.12500740379E+03 0.  0.
    9000005    1    3    3    0    0  0.47834689060E+02  0.40207259289E+02  0.10658312643E+03  0.12355461956E+03  0.10000000000E+01 0.  0.
    9000005    1    3    3    0    0 -0.47834689060E+02 -0.40207259289E+02  0.11045073433E+03  0.12690605144E+03  0.10000000000E+01 0.  0.
<mgrwt>
<rscale>  0 0.12500740E+03</rscale>
<asrwt>0</asrwt>
<pdfrwt beam="2">  1        4 0.25712934E-02 0.12500740E+03</pdfrwt>
<pdfrwt beam="1">  1       -4 0.35961114E-01 0.12500740E+03</pdfrwt>
<totfact> 0.82250128E+03</totfact>
</mgrwt>
</event>
<event>
 5    1  0.3217852E-002  0.1249961E+03  0.7818608E-02  0.1235075E+00
         -4   -1    0    0    0  501 -0.00000000000E+00  0.00000000000E+00  0.35897464380E+02  0.35919922730E+02  0.12700000000E+01 0.  1.
          4   -1    0    0  501    0  0.00000000000E+00 -0.00000000000E+00 -0.10874984440E+03  0.10875725979E+03  0.12700000000E+01 0.  1.
         25    2    1    2    0    0  0.00000000000E+00  0.00000000000E+00 -0.72852380024E+02  0.14467718252E+03  0.12499607141E+03 0.  0.
    9000005    1    3    3    0    0 -0.29743094880E+01 -0.51552372189E+02 -0.77159864709E+02  0.92850085176E+02  0.10000000000E+01 0.  0.
    9000005    1    3    3    0    0  0.29743094880E+01  0.51552372189E+02  0.43074846852E+01  0.51827097348E+02  0.10000000000E+01 0.  0.
<mgrwt>
<rscale>  0 0.12499607E+03</rscale>
<asrwt>0</asrwt>
<pdfrwt beam="2">  1        4 0.16733043E-01 0.12499607E+03</pdfrwt>
<pdfrwt beam="1">  1       -4 0.55249849E-02 0.12499607E+03</pdfrwt>
<totfact> 0.10038439E+04</totfact>
</mgrwt>
</event>
<event>
 4    1  0.3217852E-002  0.1258502E+03  0.7818608E-02  0.1233747E+00
         -4   -1    0    0    0  501 -0.00000000000E+00  0.00000000000E+00  0.22651645531E+03  0.22652001551E+03  0.12700000000E+01 0. -1.
          4   -1    0    0  501    0  0.00000000000E+00 -0.00000000000E+00 -0.17453494495E+02  0.17499639141E+02  0.12700000000E+01 0. -1.
    9000005    1    1    2    0    0 -0.39855708579E+02 -0.37548024747E+02  0.16461562774E+03  0.17348670429E+03  0.10000000000E+01 0.  0.
    9000005    1    1    2    0    0  0.39855708579E+02  0.37548024747E+02  0.44447333067E+02  0.70532950353E+02  0.10000000000E+01 0.  0.
<mgrwt>
<rscale>  0 0.12585019E+03</rscale>
<asrwt>0</asrwt>
<pdfrwt beam="2">  1        4 0.26889766E-02 0.12585019E+03</pdfrwt>
<pdfrwt beam="1">  1       -4 0.34852506E-01 0.12585019E+03</pdfrwt>
<totfact> 0.81645294E+03</totfact>
</mgrwt>
</event>
<event>
 5    1  0.3217852E-002  0.1250000E+03  0.7818608E-02  0.1235069E+00
          4   -1    0    0  501    0  0.00000000000E+00  0.00000000000E+00  0.21914782621E+03  0.21915150611E+03  0.12700000000E+01 0. -1.
         -4   -1    0    0    0  501 -0.00000000000E+00 -0.00000000000E+00 -0.17798283350E+02  0.17843536370E+02  0.12700000000E+01 0. -1.
         25    2    1    2    0    0  0.00000000000E+00  0.00000000000E+00  0.20134954286E+03  0.23699504248E+03  0.12500004701E+03 0.  0.
    9000005    1    3    3    0    0  0.26365705606E+02  0.42035832499E+01 -0.64500077214E+01  0.27484962140E+02  0.10000000000E+01 0.  0.
    9000005    1    3    3    0    0 -0.26365705606E+02 -0.42035832499E+01  0.20779955058E+03  0.20951008034E+03  0.10000000000E+01 0.  0.
<mgrwt>
<rscale>  0 0.12500005E+03</rscale>
<asrwt>0</asrwt>
<pdfrwt beam="1">  1        4 0.33718813E-01 0.12500005E+03</pdfrwt>
<pdfrwt beam="2">  1       -4 0.27419616E-02 0.12500005E+03</pdfrwt>
<totfact> 0.84246859E+03</totfact>
</mgrwt>
</event>
<event>
 5    1  0.3217852E-002  0.1249859E+03  0.7818608E-02  0.1235091E+00
         -4   -1    0    0    0  501 -0.00000000000E+00  0.00000000000E+00  0.45371932231E+02  0.45389702955E+02  0.12700000000E+01 0. -1.
          4   -1    0    0  501    0  0.00000000000E+00 -0.00000000000E+00 -0.86035194097E+02  0.86044567076E+02  0.12700000000E+01 0. -1.
         25    2    1    2    0    0  0.00000000000E+00  0.00000000000E+00 -0.40663261866E+02  0.13143427003E+03  0.12498586509E+03 0.  0.
    9000005    1    3    3    0    0 -0.48031348032E+02  0.17342864870E+02 -0.58197470239E+02  0.77432105085E+02  0.10000000000E+01 0.  0.
    9000005    1    3    3    0    0  0.48031348032E+02 -0.17342864870E+02  0.17534208373E+02  0.54002164946E+02  0.10000000000E+01 0.  0.
<mgrwt>
<rscale>  0 0.12498587E+03</rscale>
<asrwt>0</asrwt>
<pdfrwt beam="2">  1        4 0.13238272E-01 0.12498587E+03</pdfrwt>
<pdfrwt beam="1">  1       -4 0.69823853E-02 0.12498587E+03</pdfrwt>
<totfact> 0.10317078E+04</totfact>
</mgrwt>
</event>
<event>
 5    1  0.3217852E-002  0.1250054E+03  0.7818608E-02  0.1235061E+00
          4   -1    0    0  501    0  0.00000000000E+00  0.00000000000E+00  0.18944934154E+03  0.18945359830E+03  0.12700000000E+01 0. -1.
         -4   -1    0    0    0  501 -0.00000000000E+00 -0.00000000000E+00 -0.20596699170E+02  0.20635816356E+02  0.12700000000E+01 0. -1.
         25    2    1    2    0    0  0.00000000000E+00  0.00000000000E+00  0.16885264237E+03  0.21008941466E+03  0.12500538915E+03 0.  0.
    9000005    1    3    3    0    0  0.35390938614E+02 -0.19854721816E+02  0.16430298731E+03  0.16924302099E+03  0.10000000000E+01 0.  0.
    9000005    1    3    3    0    0 -0.35390938614E+02  0.19854721816E+02  0.45496550553E+01  0.40846393666E+02  0.10000000000E+01 0.  0.
<mgrwt>
<rscale>  0 0.12500539E+03</rscale>
<asrwt>0</asrwt>
<pdfrwt beam="1">  1        4 0.29149390E-01 0.12500539E+03</pdfrwt>
<pdfrwt beam="2">  1       -4 0.31720593E-02 0.12500539E+03</pdfrwt>
<totfact> 0.88450622E+03</totfact>
</mgrwt>
</event>
<event>
 5    1  0.3217852E-002  0.1250008E+03  0.7818608E-02  0.1235068E+00
         -4   -1    0    0    0  501 -0.00000000000E+00  0.00000000000E+00  0.17403322528E+02  0.17449599852E+02  0.12700000000E+01 0.  1.
          4   -1    0    0  501    0  0.00000000000E+00 -0.00000000000E+00 -0.22411115760E+03  0.22411475601E+03  0.12700000000E+01 0.  1.
         25    2    1    2    0    0  0.00000000000E+00  0.00000000000E+00 -0.20670783508E+03  0.24156435586E+03  0.12500083577E+03 0.  0.
    9000005    1    3    3    0    0 -0.44095376864E+02  0.18961676749E+02 -0.18068671432E+03  0.18695624135E+03  0.10000000000E+01 0.  0.
    9000005    1    3    3    0    0  0.44095376864E+02 -0.18961676749E+02 -0.26021120754E+02  0.54608114518E+02  0.10000000000E+01 0.  0.
<mgrwt>
<rscale>  0 0.12500084E+03</rscale>
<asrwt>0</asrwt>
<pdfrwt beam="2">  1        4 0.34482474E-01 0.12500084E+03</pdfrwt>
<pdfrwt beam="1">  1       -4 0.26812710E-02 0.12500084E+03</pdfrwt>
<totfact> 0.83563379E+03</totfact>
</mgrwt>
</event>
<event>
 5    1  0.3217852E-002  0.1249984E+03  0.7818608E-02  0.1235072E+00
         -4   -1    0    0    0  501 -0.00000000000E+00  0.00000000000E+00  0.12957251913E+02  0.13019342423E+02  0.12700000000E+01 0. -1.
          4   -1    0    0  501    0  0.00000000000E+00 -0.00000000000E+00 -0.30068033948E+03  0.30068302155E+03  0.12700000000E+01 0. -1.
         25    2    1    2    0    0  0.00000000000E+00  0.00000000000E+00 -0.28772308756E+03  0.31370236397E+03  0.12499839217E+03 0.  0.
    9000005    1    3    3    0    0 -0.43577901741E+02 -0.28907821645E+02 -0.22972146978E+03  0.23560061407E+03  0.10000000000E+01 0.  0.
    9000005    1    3    3    0    0  0.43577901741E+02  0.28907821645E+02 -0.58001617790E+02  0.78101749907E+02  0.10000000000E+01 0.  0.
<mgrwt>
<rscale>  0 0.12499839E+03</rscale>
<asrwt>0</asrwt>
<pdfrwt beam="2">  1        4 0.46263491E-01 0.12499839E+03</pdfrwt>
<pdfrwt beam="1">  1       -4 0.19984061E-02 0.12499839E+03</pdfrwt>
<totfact> 0.73914097E+03</totfact>
</mgrwt>
</event>
<event>
 5    1  0.3217852E-002  0.1249966E+03  0.7818608E-02  0.1235075E+00
          4   -1    0    0  501    0  0.00000000000E+00  0.00000000000E+00  0.54239397108E+02  0.54254263414E+02  0.12700000000E+01 0. -1.
         -4   -1    0    0    0  501 -0.00000000000E+00 -0.00000000000E+00 -0.71984391842E+02  0.71995594094E+02  0.12700000000E+01 0. -1.
         25    2    1    2    0    0  0.00000000000E+00  0.00000000000E+00 -0.17744994735E+02  0.12624985751E+03  0.12499656668E+03 0.  0.
    9000005    1    3    3    0    0  0.17379680797E+02 -0.41788657794E+02  0.34648870272E+02  0.57007801536E+02  0.10000000000E+01 0.  0.
    9000005    1    3    3    0    0 -0.17379680797E+02  0.41788657794E+02 -0.52393865007E+02  0.69242055972E+02  0.10000000000E+01 0.  0.
<mgrwt>
<rscale>  0 0.12499657E+03</rscale>
<asrwt>0</asrwt>
<pdfrwt beam="1">  1        4 0.83465279E-02 0.12499657E+03</pdfrwt>
<pdfrwt beam="2">  1       -4 0.11076527E-01 0.12499657E+03</pdfrwt>
<totfact> 0.10426297E+04</totfact>
</mgrwt>
</event>
<event>
 5    1  0.3217852E-002  0.1249978E+03  0.7818608E-02  0.1235073E+00
          4   -1    0    0  501    0  0.00000000000E+00  0.00000000000E+00  0.77936243751E+02  0.77946590624E+02  0.12700000000E+01 0. -1.
         -4   -1    0    0    0  501 -0.00000000000E+00 -0.00000000000E+00 -0.50097611593E+02  0.50113706581E+02  0.12700000000E+01 0. -1.
         25    2    1    2    0    0  0.00000000000E+00  0.00000000000E+00  0.27838632158E+02  0.12806029721E+03  0.12499780110E+03 0.  0.
    9000005    1    3    3    0    0 -0.29087100667E+02  0.46900663446E+02 -0.16114117378E+02  0.57501273341E+02  0.10000000000E+01 0.  0.
    9000005    1    3    3    0    0  0.29087100667E+02 -0.46900663446E+02  0.43952749536E+02  0.70559023864E+02  0.10000000000E+01 0.  0.
<mgrwt>
<rscale>  0 0.12499780E+03</rscale>
<asrwt>0</asrwt>
<pdfrwt beam="1">  1        4 0.11992225E-01 0.12499780E+03</pdfrwt>
<pdfrwt beam="2">  1       -4 0.77093589E-02 0.12499780E+03</pdfrwt>
<totfact> 0.10386701E+04</totfact>
</mgrwt>
</event>
<event>
 5    1  0.3217852E-002  0.1250075E+03  0.7818608E-02  0.1235058E+00
         -4   -1    0    0    0  501 -0.00000000000E+00  0.00000000000E+00  0.73113551119E+03  0.73113661420E+03  0.12700000000E+01 0. -1.
          4   -1    0    0  501    0  0.00000000000E+00 -0.00000000000E+00 -0.52667731896E+01  0.54177301364E+01  0.12700000000E+01 0. -1.
         25    2    1    2    0    0  0.00000000000E+00  0.00000000000E+00  0.72586873800E+03  0.73655434433E+03  0.12500750919E+03 0.  0.
    9000005    1    3    3    0    0 -0.21808285144E+02 -0.49672968626E+02  0.18011702794E+03  0.18811206465E+03  0.10000000000E+01 0.  0.
    9000005    1    3    3    0    0  0.21808285144E+02  0.49672968626E+02  0.54575171006E+03  0.54844227968E+03  0.10000000000E+01 0.  0.
<mgrwt>
<rscale>  0 0.12500751E+03</rscale>
<asrwt>0</asrwt>
<pdfrwt beam="2">  1        4 0.82197007E-03 0.12500751E+03</pdfrwt>
<pdfrwt beam="1">  1       -4 0.11249403E+00 0.12500751E+03</pdfrwt>
<totfact> 0.41218894E+03</totfact>
</mgrwt>
</event>
<event>
 5    1  0.3217852E-002  0.1249973E+03  0.7818608E-02  0.1235074E+00
         -4   -1    0    0    0  501 -0.00000000000E+00  0.00000000000E+00  0.22803937424E+03  0.22804291067E+03  0.12700000000E+01 0. -1.
          4   -1    0    0  501    0  0.00000000000E+00 -0.00000000000E+00 -0.17101761321E+02  0.17148852448E+02  0.12700000000E+01 0. -1.
         25    2    1    2    0    0  0.00000000000E+00  0.00000000000E+00  0.21093761292E+03  0.24519176311E+03  0.12499729658E+03 0.  0.
    9000005    1    3    3    0    0 -0.18632001352E+02  0.33414420576E+02  0.20239145327E+03  0.20597809430E+03  0.10000000000E+01 0.  0.
    9000005    1    3    3    0    0  0.18632001352E+02 -0.33414420576E+02  0.85461596555E+01  0.39213668812E+02  0.10000000000E+01 0.  0.
<mgrwt>
<rscale>  0 0.12499730E+03</rscale>
<asrwt>0</asrwt>
<pdfrwt beam="2">  1        4 0.26349348E-02 0.12499730E+03</pdfrwt>
<pdfrwt beam="1">  1       -4 0.35086872E-01 0.12499730E+03</pdfrwt>
<totfact> 0.83035176E+03</totfact>
</mgrwt>
</event>
<event>
 5    1  0.3217852E-002  0.1249973E+03  0.7818608E-02  0.1235074E+00
          4   -1    0    0  501    0  0.00000000000E+00  0.00000000000E+00  0.38530922405E+01  0.40569964029E+01  0.12700000000E+01 0.  1.
         -4   -1    0    0    0  501 -0.00000000000E+00 -0.00000000000E+00 -0.98741531992E+03  0.98741613665E+03  0.12700000000E+01 0.  1.
         25    2    1    2    0    0  0.00000000000E+00  0.00000000000E+00 -0.98356222768E+03  0.99147313305E+03  0.12499727135E+03 0.  0.
    9000005    1    3    3    0    0  0.48143752850E+02  0.36552998969E+02 -0.36608102461E+03  0.37103943086E+03  0.10000000000E+01 0.  0.
    9000005    1    3    3    0    0 -0.48143752850E+02 -0.36552998969E+02 -0.61748120307E+03  0.62043370219E+03  0.10000000000E+01 0.  0.
<mgrwt>
<rscale>  0 0.12499727E+03</rscale>
<asrwt>0</asrwt>
<pdfrwt beam="1">  1        4 0.60853197E-03 0.12499727E+03</pdfrwt>
<pdfrwt beam="2">  1       -4 0.15192560E+00 0.12499727E+03</pdfrwt>
<totfact> 0.30889584E+03</totfact>
</mgrwt>
</event>
<event>
 5    1  0.3217852E-002  0.1250003E+03  0.7818608E-02  0.1235069E+00
          4   -1    0    0  501    0  0.00000000000E+00  0.00000000000E+00  0.88399119128E+03  0.88399210357E+03  0.12700000000E+01 0.  1.
         -4   -1    0    0    0  501 -0.00000000000E+00 -0.00000000000E+00 -0.43267178237E+01  0.45092557175E+01  0.12700000000E+01 0.  1.
         25    2    1    2    0    0  0.00000000000E+00  0.00000000000E+00  0.87966447346E+03  0.88850135928E+03  0.12500031832E+03 0.  0.
    9000005    1    3    3    0    0 -0.57676072651E+02  0.22872416001E+02  0.38683447581E+03  0.39178002558E+03  0.10000000000E+01 0.  0.
    9000005    1    3    3    0    0  0.57676072651E+02 -0.22872416001E+02  0.49282999765E+03  0.49672133370E+03  0.10000000000E+01 0.  0.
<mgrwt>
<rscale>  0 0.12500032E+03</rscale>
<asrwt>0</asrwt>
<pdfrwt beam="1">  1        4 0.13601262E+00 0.12500032E+03</pdfrwt>
<pdfrwt beam="2">  1       -4 0.67976114E-03 0.12500032E+03</pdfrwt>
<totfact> 0.34601235E+03</totfact>
</mgrwt>
</event>
<event>
 5    1  0.3217852E-002  0.1250047E+03  0.7818608E-02  0.1235062E+00
         -4   -1    0    0    0  501 -0.00000000000E+00  0.00000000000E+00  0.83194214801E+01  0.84157990567E+01  0.12700000000E+01 0. -1.
          4   -1    0    0  501    0  0.00000000000E+00 -0.00000000000E+00 -0.46676780880E+03  0.46676953653E+03  0.12700000000E+01 0. -1.
         25    2    1    2    0    0  0.00000000000E+00  0.00000000000E+00 -0.45844838732E+03  0.47518533559E+03  0.12500471719E+03 0.  0.
    9000005    1    3    3    0    0 -0.59194104893E+01 -0.62071764176E+02 -0.24517238684E+03  0.25297913471E+03  0.10000000000E+01 0.  0.
    9000005    1    3    3    0    0  0.59194104893E+01  0.62071764176E+02 -0.21327600048E+03  0.22220620088E+03  0.10000000000E+01 0.  0.
<mgrwt>
<rscale>  0 0.12500472E+03</rscale>
<asrwt>0</asrwt>
<pdfrwt beam="2">  1        4 0.71817958E-01 0.12500472E+03</pdfrwt>
<pdfrwt beam="1">  1       -4 0.12874579E-02 0.12500472E+03</pdfrwt>
<totfact> 0.57836432E+03</totfact>
</mgrwt>
</event>
<event>
 5    1  0.3217852E-002  0.1250017E+03  0.7818608E-02  0.1235067E+00
          4   -1    0    0  501    0  0.00000000000E+00  0.00000000000E+00  0.54952348157E+03  0.54952494911E+03  0.12700000000E+01 0.  1.
         -4   -1    0    0    0  501 -0.00000000000E+00 -0.00000000000E+00 -0.70504129630E+01  0.71638832311E+01  0.12700000000E+01 0.  1.
         25    2    1    2    0    0  0.00000000000E+00  0.00000000000E+00  0.54247306860E+03  0.55668883234E+03  0.12500170356E+03 0.  0.
    9000005    1    3    3    0    0 -0.39615711751E+02  0.42929183697E+02  0.37012288549E+03  0.37470557748E+03  0.10000000000E+01 0.  0.
    9000005    1    3    3    0    0  0.39615711751E+02 -0.42929183697E+02  0.17235018311E+03  0.18198325485E+03  0.10000000000E+01 0.  0.
<mgrwt>
<rscale>  0 0.12500170E+03</rscale>
<asrwt>0</asrwt>
<pdfrwt beam="1">  1        4 0.84550911E-01 0.12500170E+03</pdfrwt>
<pdfrwt beam="2">  1       -4 0.10935203E-02 0.12500170E+03</pdfrwt>
<totfact> 0.51718940E+03</totfact>
</mgrwt>
</event>
<event>
 5    1  0.3217852E-002  0.1250018E+03  0.7818608E-02  0.1235066E+00
          4   -1    0    0  501    0  0.00000000000E+00  0.00000000000E+00  0.71787079376E+03  0.71787191715E+03  0.12700000000E+01 0.  1.
         -4   -1    0    0    0  501 -0.00000000000E+00 -0.00000000000E+00 -0.53663502813E+01  0.55145820641E+01  0.12700000000E+01 0.  1.
         25    2    1    2    0    0  0.00000000000E+00  0.00000000000E+00  0.71250444348E+03  0.72338649922E+03  0.12500178106E+03 0.  0.
    9000005    1    3    3    0    0  0.58471797233E+02  0.55070113057E+01  0.23266425855E+03  0.23996444623E+03  0.10000000000E+01 0.  0.
    9000005    1    3    3    0    0 -0.58471797233E+02 -0.55070113057E+01  0.47984018493E+03  0.48342205299E+03  0.10000000000E+01 0.  0.
<mgrwt>
<rscale>  0 0.12500178E+03</rscale>
<asrwt>0</asrwt>
<pdfrwt beam="1">  1        4 0.11045316E+00 0.12500178E+03</pdfrwt>
<pdfrwt beam="2">  1       -4 0.83708113E-03 0.12500178E+03</pdfrwt>
<totfact> 0.41878889E+03</totfact>
</mgrwt>
</event>
<event>
 5    1  0.3217852E-002  0.1250024E+03  0.7818608E-02  0.1235066E+00
          4   -1    0    0  501    0  0.00000000000E+00  0.00000000000E+00  0.71311337454E+03  0.71311450542E+03  0.12700000000E+01 0. -1.
         -4   -1    0    0    0  501 -0.00000000000E+00 -0.00000000000E+00 -0.54031871341E+01  0.55504352267E+01  0.12700000000E+01 0. -1.
         25    2    1    2    0    0  0.00000000000E+00  0.00000000000E+00  0.70771018740E+03  0.71866494065E+03  0.12500235023E+03 0.  0.
    9000005    1    3    3    0    0 -0.98304761783E+01  0.78539637355E+01  0.19266180121E+01  0.12768510689E+02  0.10000000000E+01 0.  0.
    9000005    1    3    3    0    0  0.98304761783E+01 -0.78539637355E+01  0.70578356939E+03  0.70589642996E+03  0.10000000000E+01 0.  0.
<mgrwt>
<rscale>  0 0.12500235E+03</rscale>
<asrwt>0</asrwt>
<pdfrwt beam="1">  1        4 0.10972118E+00 0.12500235E+03</pdfrwt>
<pdfrwt beam="2">  1       -4 0.84267317E-03 0.12500235E+03</pdfrwt>
<totfact> 0.42117358E+03</totfact>
</mgrwt>
</event>
<event>
 5    1  0.3217852E-002  0.1249993E+03  0.7818608E-02  0.1235070E+00
         -4   -1    0    0    0  501 -0.00000000000E+00  0.00000000000E+00  0.21662688856E+03  0.21663061129E+03  0.12700000000E+01 0.  1.
          4   -1    0    0  501    0  0.00000000000E+00 -0.00000000000E+00 -0.18005706734E+02  0.18050439745E+02  0.12700000000E+01 0.  1.
         25    2    1    2    0    0  0.00000000000E+00  0.00000000000E+00  0.19862118183E+03  0.23468105103E+03  0.12499928737E+03 0.  0.
    9000005    1    3    3    0    0 -0.15155404072E+02  0.44292428453E+02  0.17703150183E+03  0.18311924566E+03  0.10000000000E+01 0.  0.
    9000005    1    3    3    0    0  0.15155404072E+02 -0.44292428453E+02  0.21589679994E+02  0.51561805371E+02  0.10000000000E+01 0.  0.
<mgrwt>
<rscale>  0 0.12499929E+03</rscale>
<asrwt>0</asrwt>
<pdfrwt beam="2">  1        4 0.27738362E-02 0.12499929E+03</pdfrwt>
<pdfrwt beam="1">  1       -4 0.33330939E-01 0.12499929E+03</pdfrwt>
<totfact> 0.84597307E+03</totfact>
</mgrwt>
</event>
<event>
 5    1  0.3217852E-002  0.1249978E+03  0.7818608E-02  0.1235073E+00
         -4   -1    0    0    0  501 -0.00000000000E+00  0.00000000000E+00  0.47049171226E+01  0.48733094639E+01  0.12700000000E+01 0.  1.
          4   -1    0    0  501    0  0.00000000000E+00 -0.00000000000E+00 -0.81545477357E+03  0.81545576253E+03  0.12700000000E+01 0.  1.
         25    2    1    2    0    0  0.00000000000E+00  0.00000000000E+00 -0.81074985645E+03  0.82032907199E+03  0.12499782648E+03 0.  0.
    9000005    1    3    3    0    0  0.99325848869E+01  0.16485914654E+02 -0.79555064250E+03  0.79578405765E+03  0.10000000000E+01 0.  0.
    9000005    1    3    3    0    0 -0.99325848869E+01 -0.16485914654E+02 -0.15199213949E+02  0.24545014345E+02  0.10000000000E+01 0.  0.
<mgrwt>
<rscale>  0 0.12499783E+03</rscale>
<asrwt>0</asrwt>
<pdfrwt beam="2">  1        4 0.12546750E+00 0.12499783E+03</pdfrwt>
<pdfrwt beam="1">  1       -4 0.73686338E-03 0.12499783E+03</pdfrwt>
<totfact> 0.37374943E+03</totfact>
</mgrwt>
</event>
<event>
 5    1  0.3217852E-002  0.1249991E+03  0.7818608E-02  0.1235071E+00
         -4   -1    0    0    0  501 -0.00000000000E+00  0.00000000000E+00  0.33574834964E+02  0.33598845856E+02  0.12700000000E+01 0.  1.
          4   -1    0    0  501    0  0.00000000000E+00 -0.00000000000E+00 -0.11627383860E+03  0.11628077418E+03  0.12700000000E+01 0.  1.
         25    2    1    2    0    0  0.00000000000E+00  0.00000000000E+00 -0.82699003640E+02  0.14987962004E+03  0.12499910119E+03 0.  0.
    9000005    1    3    3    0    0 -0.10533161835E+02  0.58291294257E+02 -0.65221392435E+02  0.88111591267E+02  0.10000000000E+01 0.  0.
    9000005    1    3    3    0    0  0.10533161835E+02 -0.58291294257E+02 -0.17477611205E+02  0.61768028768E+02  0.10000000000E+01 0.  0.
<mgrwt>
<rscale>  0 0.12499910E+03</rscale>
<asrwt>0</asrwt>
<pdfrwt beam="2">  1        4 0.17890663E-01 0.12499910E+03</pdfrwt>
<pdfrwt beam="1">  1       -4 0.51677398E-02 0.12499910E+03</pdfrwt>
<totfact> 0.99329709E+03</totfact>
</mgrwt>
</event>
<event>
 5    1  0.3217852E-002  0.1250047E+03  0.7818608E-02  0.1235062E+00
         -4   -1    0    0    0  501 -0.00000000000E+00  0.00000000000E+00  0.32990962489E+02  0.33015398013E+02  0.12700000000E+01 0.  1.
          4   -1    0    0  501    0  0.00000000000E+00 -0.00000000000E+00 -0.11834079675E+03  0.11834761120E+03  0.12700000000E+01 0.  1.
         25    2    1    2    0    0  0.00000000000E+00  0.00000000000E+00 -0.85349834265E+02  0.15136300921E+03  0.12500466531E+03 0.  0.
    9000005    1    3    3    0    0  0.48583316514E+02  0.37077826447E+02 -0.58482898001E+02  0.84595231640E+02  0.10000000000E+01 0.  0.
    9000005    1    3    3    0    0 -0.48583316514E+02 -0.37077826447E+02 -0.26866936264E+02  0.66767777571E+02  0.10000000000E+01 0.  0.
<mgrwt>
<rscale>  0 0.12500467E+03</rscale>
<asrwt>0</asrwt>
<pdfrwt beam="2">  1        4 0.18208680E-01 0.12500467E+03</pdfrwt>
<pdfrwt beam="1">  1       -4 0.50779366E-02 0.12500467E+03</pdfrwt>
<totfact> 0.99022298E+03</totfact>
</mgrwt>
</event>
<event>
 5    1  0.3217852E-002  0.1250015E+03  0.7818608E-02  0.1235067E+00
         -4   -1    0    0    0  501 -0.00000000000E+00  0.00000000000E+00  0.36942283438E+02  0.36964106991E+02  0.12700000000E+01 0. -1.
          4   -1    0    0  501    0  0.00000000000E+00 -0.00000000000E+00 -0.10568489103E+03  0.10569252146E+03  0.12700000000E+01 0. -1.
         25    2    1    2    0    0  0.00000000000E+00  0.00000000000E+00 -0.68742607596E+02  0.14265662845E+03  0.12500147016E+03 0.  0.
    9000005    1    3    3    0    0  0.62210228304E+02  0.58079495573E+01 -0.32974927393E+02  0.70655435887E+02  0.10000000000E+01 0.  0.
    9000005    1    3    3    0    0 -0.62210228304E+02 -0.58079495573E+01 -0.35767680203E+02  0.72001192565E+02  0.10000000000E+01 0.  0.
<mgrwt>
<rscale>  0 0.12500147E+03</rscale>
<asrwt>0</asrwt>
<pdfrwt beam="2">  1        4 0.16261480E-01 0.12500147E+03</pdfrwt>
<pdfrwt beam="1">  1       -4 0.56856939E-02 0.12500147E+03</pdfrwt>
<totfact> 0.10078486E+04</totfact>
</mgrwt>
</event>
<event>
 5    1  0.3217852E-002  0.1250014E+03  0.7818608E-02  0.1235067E+00
         -4   -1    0    0    0  501 -0.00000000000E+00  0.00000000000E+00  0.17960802323E+01  0.21997282107E+01  0.12700000000E+01 0.  1.
          4   -1    0    0  501    0  0.00000000000E+00 -0.00000000000E+00 -0.19548133916E+04  0.19548138041E+04  0.12700000000E+01 0.  1.
         25    2    1    2    0    0  0.00000000000E+00  0.00000000000E+00 -0.19530173114E+04  0.19570135323E+04  0.12500138929E+03 0.  0.
    9000005    1    3    3    0    0 -0.56149562318E+02 -0.17932864473E+02 -0.65149211881E+03  0.65415391296E+03  0.10000000000E+01 0.  0.
    9000005    1    3    3    0    0  0.56149562318E+02  0.17932864473E+02 -0.13015251925E+04  0.13028596194E+04  0.10000000000E+01 0.  0.
<mgrwt>
<rscale>  0 0.12500139E+03</rscale>
<asrwt>0</asrwt>
<pdfrwt beam="2">  1        4 0.30077007E+00 0.12500139E+03</pdfrwt>
<pdfrwt beam="1">  1       -4 0.30740318E-03 0.12500139E+03</pdfrwt>
<totfact> 0.10432643E+03</totfact>
</mgrwt>
</event>
<event>
 5    1  0.3217852E-002  0.1250012E+03  0.7818608E-02  0.1235067E+00
         -4   -1    0    0    0  501 -0.00000000000E+00  0.00000000000E+00  0.79489198239E+02  0.79499342995E+02  0.12700000000E+01 0. -1.
          4   -1    0    0  501    0  0.00000000000E+00 -0.00000000000E+00 -0.49121340926E+02  0.49137755691E+02  0.12700000000E+01 0. -1.
         25    2    1    2    0    0  0.00000000000E+00  0.00000000000E+00  0.30367857313E+02  0.12863709869E+03  0.12500118560E+03 0.  0.
    9000005    1    3    3    0    0 -0.52689921473E+02 -0.19402925840E+02 -0.13048014662E+02  0.57653725314E+02  0.10000000000E+01 0.  0.
    9000005    1    3    3    0    0  0.52689921473E+02  0.19402925840E+02  0.43415871975E+02  0.70983373372E+02  0.10000000000E+01 0.  0.
<mgrwt>
<rscale>  0 0.12500119E+03</rscale>
<asrwt>0</asrwt>
<pdfrwt beam="2">  1        4 0.75591725E-02 0.12500119E+03</pdfrwt>
<pdfrwt beam="1">  1       -4 0.12231150E-01 0.12500119E+03</pdfrwt>
<totfact> 0.10373474E+04</totfact>
</mgrwt>
</event>
<event>
 5    1  0.3217852E-002  0.1249985E+03  0.7818608E-02  0.1235072E+00
          4   -1    0    0  501    0  0.00000000000E+00  0.00000000000E+00  0.38912047980E+01  0.40932108155E+01  0.12700000000E+01 0. -1.
         -4   -1    0    0    0  501 -0.00000000000E+00 -0.00000000000E+00 -0.97824320427E+03  0.97824402866E+03  0.12700000000E+01 0. -1.
         25    2    1    2    0    0  0.00000000000E+00  0.00000000000E+00 -0.97435199947E+03  0.98233723947E+03  0.12499853270E+03 0.  0.
    9000005    1    3    3    0    0  0.97007174059E+01  0.13733194550E+02 -0.14180381789E+02  0.22017896776E+02  0.10000000000E+01 0.  0.
    9000005    1    3    3    0    0 -0.97007174059E+01 -0.13733194550E+02 -0.96017161769E+03  0.96031934270E+03  0.10000000000E+01 0.  0.
<mgrwt>
<rscale>  0 0.12499853E+03</rscale>
<asrwt>0</asrwt>
<pdfrwt beam="1">  1        4 0.61425001E-03 0.12499853E+03</pdfrwt>
<pdfrwt beam="2">  1       -4 0.15051437E+00 0.12499853E+03</pdfrwt>
<totfact> 0.31196005E+03</totfact>
</mgrwt>
</event>
<event>
 5    1  0.3217852E-002  0.1250134E+03  0.7818608E-02  0.1235048E+00
         -4   -1    0    0    0  501 -0.00000000000E+00  0.00000000000E+00  0.45954455044E+02  0.45972000592E+02  0.12700000000E+01 0.  1.
          4   -1    0    0  501    0  0.00000000000E+00 -0.00000000000E+00 -0.84982306601E+02  0.84991795694E+02  0.12700000000E+01 0.  1.
         25    2    1    2    0    0  0.00000000000E+00  0.00000000000E+00 -0.39027851557E+02  0.13096379629E+03  0.12501337025E+03 0.  0.
    9000005    1    3    3    0    0 -0.34116239546E+02 -0.52363548935E+02 -0.20012638960E+02  0.65630517109E+02  0.10000000000E+01 0.  0.
    9000005    1    3    3    0    0  0.34116239546E+02  0.52363548935E+02 -0.19015212598E+02  0.65333279177E+02  0.10000000000E+01 0.  0.
<mgrwt>
<rscale>  0 0.12501337E+03</rscale>
<asrwt>0</asrwt>
<pdfrwt beam="2">  1        4 0.13076281E-01 0.12501337E+03</pdfrwt>
<pdfrwt beam="1">  1       -4 0.70719957E-02 0.12501337E+03</pdfrwt>
<totfact> 0.10320752E+04</totfact>
</mgrwt>
</event>
<event>
 5    1  0.3217852E-002  0.1249991E+03  0.7818608E-02  0.1235071E+00
         -4   -1    0    0    0  501 -0.00000000000E+00  0.00000000000E+00  0.26175497233E+02  0.26206288471E+02  0.12700000000E+01 0.  1.
          4   -1    0    0  501    0  0.00000000000E+00 -0.00000000000E+00 -0.14910959238E+03  0.14911500072E+03  0.12700000000E+01 0.  1.
         25    2    1    2    0    0  0.00000000000E+00  0.00000000000E+00 -0.12293409515E+03  0.17532128919E+03  0.12499905077E+03 0.  0.
    9000005    1    3    3    0    0 -0.50967093675E+02 -0.34462823592E+02 -0.76822575833E+02  0.98427836536E+02  0.10000000000E+01 0.  0.
    9000005    1    3    3    0    0  0.50967093675E+02  0.34462823592E+02 -0.46111519314E+02  0.76893452654E+02  0.10000000000E+01 0.  0.
<mgrwt>
<rscale>  0 0.12499905E+03</rscale>
<asrwt>0</asrwt>
<pdfrwt beam="2">  1        4 0.22942721E-01 0.12499905E+03</pdfrwt>
<pdfrwt beam="1">  1       -4 0.40297842E-02 0.12499905E+03</pdfrwt>
<totfact> 0.94468042E+03</totfact>
</mgrwt>
</event>
<event>
 5    1  0.3217852E-002  0.1249959E+03  0.7818608E-02  0.1235076E+00
          4   -1    0    0  501    0  0.00000000000E+00  0.00000000000E+00  0.23880280039E+02  0.23914026737E+02  0.12700000000E+01 0.  1.
         -4   -1    0    0    0  501 -0.00000000000E+00 -0.00000000000E+00 -0.16341392357E+03  0.16341885851E+03  0.12700000000E+01 0.  1.
         25    2    1    2    0    0  0.00000000000E+00  0.00000000000E+00 -0.13953364353E+03  0.18733288525E+03  0.12499588880E+03 0.  0.
    9000005    1    3    3    0    0  0.38341665897E+02  0.17262931424E+02 -0.48640605247E+00  0.42063389496E+02  0.10000000000E+01 0.  0.
    9000005    1    3    3    0    0 -0.38341665897E+02 -0.17262931424E+02 -0.13904723748E+03  0.14526949575E+03  0.10000000000E+01 0.  0.
<mgrwt>
<rscale>  0 0.12499589E+03</rscale>
<asrwt>0</asrwt>
<pdfrwt beam="1">  1        4 0.36768648E-02 0.12499589E+03</pdfrwt>
<pdfrwt beam="2">  1       -4 0.25143579E-01 0.12499589E+03</pdfrwt>
<totfact> 0.92321970E+03</totfact>
</mgrwt>
</event>
<event>
 5    1  0.3217852E-002  0.1250003E+03  0.7818608E-02  0.1235069E+00
         -4   -1    0    0    0  501 -0.00000000000E+00  0.00000000000E+00  0.97587751123E+02  0.97596014618E+02  0.12700000000E+01 0.  1.
          4   -1    0    0  501    0  0.00000000000E+00 -0.00000000000E+00 -0.40008206327E+02  0.40028358367E+02  0.12700000000E+01 0.  1.
         25    2    1    2    0    0  0.00000000000E+00  0.00000000000E+00  0.57579544796E+02  0.13762437298E+03  0.12500025624E+03 0.  0.
    9000005    1    3    3    0    0 -0.40166892169E+02 -0.47150913209E+02  0.19665593033E+02  0.64994795117E+02  0.10000000000E+01 0.  0.
    9000005    1    3    3    0    0  0.40166892169E+02  0.47150913209E+02  0.37913951763E+02  0.72629577868E+02  0.10000000000E+01 0.  0.
<mgrwt>
<rscale>  0 0.12500026E+03</rscale>
<asrwt>0</asrwt>
<pdfrwt beam="2">  1        4 0.61572946E-02 0.12500026E+03</pdfrwt>
<pdfrwt beam="1">  1       -4 0.15015686E-01 0.12500026E+03</pdfrwt>
<totfact> 0.10182988E+04</totfact>
</mgrwt>
</event>
<event>
 5    1  0.3217852E-002  0.1250036E+03  0.7818608E-02  0.1235064E+00
          4   -1    0    0  501    0  0.00000000000E+00  0.00000000000E+00  0.48937763899E+02  0.48954240219E+02  0.12700000000E+01 0. -1.
         -4   -1    0    0    0  501 -0.00000000000E+00 -0.00000000000E+00 -0.79790452778E+02  0.79800559237E+02  0.12700000000E+01 0. -1.
         25    2    1    2    0    0  0.00000000000E+00  0.00000000000E+00 -0.30852688879E+02  0.12875479946E+03  0.12500363984E+03 0.  0.
    9000005    1    3    3    0    0  0.72317825390E+01 -0.28311177862E+02  0.41473169619E+02  0.50742933192E+02  0.10000000000E+01 0.  0.
    9000005    1    3    3    0    0 -0.72317825390E+01  0.28311177862E+02 -0.72325858498E+02  0.78011866265E+02  0.10000000000E+01 0.  0.
<mgrwt>
<rscale>  0 0.12500364E+03</rscale>
<asrwt>0</asrwt>
<pdfrwt beam="1">  1        4 0.75309316E-02 0.12500364E+03</pdfrwt>
<pdfrwt beam="2">  1       -4 0.12277499E-01 0.12500364E+03</pdfrwt>
<totfact> 0.10370367E+04</totfact>
</mgrwt>
</event>
<event>
 5    1  0.3217852E-002  0.1249984E+03  0.7818608E-02  0.1235072E+00
          4   -1    0    0  501    0  0.00000000000E+00  0.00000000000E+00  0.11385272395E+04  0.11385279478E+04  0.12700000000E+01 0.  1.
         -4   -1    0    0    0  501 -0.00000000000E+00 -0.00000000000E+00 -0.33126171476E+01  0.35477221378E+01  0.12700000000E+01 0.  1.
         25    2    1    2    0    0  0.00000000000E+00  0.00000000000E+00  0.11352146224E+04  0.11420756700E+04  0.12499838848E+03 0.  0.
    9000005    1    3    3    0    0  0.62133478364E+02 -0.56376398333E+01  0.53492239769E+03  0.53854927691E+03  0.10000000000E+01 0.  0.
    9000005    1    3    3    0    0 -0.62133478364E+02  0.56376398333E+01  0.60029222469E+03  0.60352639307E+03  0.10000000000E+01 0.  0.
<mgrwt>
<rscale>  0 0.12499839E+03</rscale>
<asrwt>0</asrwt>
<pdfrwt beam="1">  1        4 0.17517615E+00 0.12499839E+03</pdfrwt>
<pdfrwt beam="2">  1       -4 0.52777297E-03 0.12499839E+03</pdfrwt>
<totfact> 0.26282058E+03</totfact>
</mgrwt>
</event>
<event>
 5    1  0.3217852E-002  0.1250010E+03  0.7818608E-02  0.1235068E+00
         -4   -1    0    0    0  501 -0.00000000000E+00  0.00000000000E+00  0.47120917592E+02  0.47138028965E+02  0.12700000000E+01 0.  1.
          4   -1    0    0  501    0  0.00000000000E+00 -0.00000000000E+00 -0.82862701071E+02  0.82872432864E+02  0.12700000000E+01 0.  1.
         25    2    1    2    0    0  0.00000000000E+00  0.00000000000E+00 -0.35741783480E+02  0.13001046183E+03  0.12500098039E+03 0.  0.
    9000005    1    3    3    0    0  0.53711406396E+02  0.30588396859E+02 -0.27445580796E+02  0.67637453417E+02  0.10000000000E+01 0.  0.
    9000005    1    3    3    0    0 -0.53711406396E+02 -0.30588396859E+02 -0.82962026836E+01  0.62373008412E+02  0.10000000000E+01 0.  0.
<mgrwt>
<rscale>  0 0.12500098E+03</rscale>
<asrwt>0</asrwt>
<pdfrwt beam="2">  1        4 0.12750173E-01 0.12500098E+03</pdfrwt>
<pdfrwt beam="1">  1       -4 0.72514368E-02 0.12500098E+03</pdfrwt>
<totfact> 0.10344055E+04</totfact>
</mgrwt>
</event>
<event>
 5    1  0.3217852E-002  0.1250013E+03  0.7818608E-02  0.1235067E+00
         -4   -1    0    0    0  501 -0.00000000000E+00  0.00000000000E+00  0.12180065026E+03  0.12180727115E+03  0.12700000000E+01 0. -1.
          4   -1    0    0  501    0  0.00000000000E+00 -0.00000000000E+00 -0.32051432895E+02  0.32076584149E+02  0.12700000000E+01 0. -1.
         25    2    1    2    0    0  0.00000000000E+00  0.00000000000E+00  0.89749217367E+02  0.15388385530E+03  0.12500127560E+03 0.  0.
    9000005    1    3    3    0    0 -0.75996292131E+01 -0.36925747585E+02  0.10623103409E+03  0.11272665081E+03  0.10000000000E+01 0.  0.
    9000005    1    3    3    0    0  0.75996292131E+01  0.36925747585E+02 -0.16481816721E+02  0.41157204488E+02  0.10000000000E+01 0.  0.
<mgrwt>
<rscale>  0 0.12500128E+03</rscale>
<asrwt>0</asrwt>
<pdfrwt beam="2">  1        4 0.49334338E-02 0.12500128E+03</pdfrwt>
<pdfrwt beam="1">  1       -4 0.18741005E-01 0.12500128E+03</pdfrwt>
<totfact> 0.98532232E+03</totfact>
</mgrwt>
</event>
<event>
 5    1  0.3217852E-002  0.1249974E+03  0.7818608E-02  0.1235073E+00
         -4   -1    0    0    0  501 -0.00000000000E+00  0.00000000000E+00  0.21072752390E+03  0.21073135085E+03  0.12700000000E+01 0. -1.
          4   -1    0    0  501    0  0.00000000000E+00 -0.00000000000E+00 -0.18510457591E+02  0.18553973704E+02  0.12700000000E+01 0. -1.
         25    2    1    2    0    0  0.00000000000E+00  0.00000000000E+00  0.19221706631E+03  0.22928532455E+03  0.12499743787E+03 0.  0.
    9000005    1    3    3    0    0 -0.40611885277E+02  0.47446724828E+02  0.10003112543E+03  0.11793109420E+03  0.10000000000E+01 0.  0.
    9000005    1    3    3    0    0  0.40611885277E+02 -0.47446724828E+02  0.92185940879E+02  0.11135423036E+03  0.10000000000E+01 0.  0.
<mgrwt>
<rscale>  0 0.12499744E+03</rscale>
<asrwt>0</asrwt>
<pdfrwt beam="2">  1        4 0.28514044E-02 0.12499744E+03</pdfrwt>
<pdfrwt beam="1">  1       -4 0.32423261E-01 0.12499744E+03</pdfrwt>
<totfact> 0.85424339E+03</totfact>
</mgrwt>
</event>
<event>
 5    1  0.3217852E-002  0.1249948E+03  0.7818608E-02  0.1235077E+00
         -4   -1    0    0    0  501 -0.00000000000E+00  0.00000000000E+00  0.73635879900E+02  0.73646830948E+02  0.12700000000E+01 0.  1.
          4   -1    0    0  501    0  0.00000000000E+00 -0.00000000000E+00 -0.53021277956E+02  0.53036485706E+02  0.12700000000E+01 0.  1.
         25    2    1    2    0    0  0.00000000000E+00  0.00000000000E+00  0.20614601945E+02  0.12668331665E+03  0.12499480351E+03 0.  0.
    9000005    1    3    3    0    0  0.47066131599E+01 -0.35537013652E+02  0.62183637673E+02  0.71783259476E+02  0.10000000000E+01 0.  0.
    9000005    1    3    3    0    0 -0.47066131599E+01  0.35537013652E+02 -0.41569035729E+02  0.54900057178E+02  0.10000000000E+01 0.  0.
<mgrwt>
<rscale>  0 0.12499480E+03</rscale>
<asrwt>0</asrwt>
<pdfrwt beam="2">  1        4 0.81591318E-02 0.12499480E+03</pdfrwt>
<pdfrwt beam="1">  1       -4 0.11330609E-01 0.12499480E+03</pdfrwt>
<totfact> 0.10417255E+04</totfact>
</mgrwt>
</event>
<event>
 5    1  0.3217852E-002  0.1249877E+03  0.7818608E-02  0.1235088E+00
          4   -1    0    0  501    0  0.00000000000E+00  0.00000000000E+00  0.27746677959E+02  0.27775727493E+02  0.12700000000E+01 0. -1.
         -4   -1    0    0    0  501 -0.00000000000E+00 -0.00000000000E+00 -0.14064943132E+03  0.14065516496E+03  0.12700000000E+01 0. -1.
         25    2    1    2    0    0  0.00000000000E+00  0.00000000000E+00 -0.11290275336E+03  0.16843089246E+03  0.12498773467E+03 0.  0.
    9000005    1    3    3    0    0 -0.56183102640E+02 -0.18077364117E+01 -0.19677653678E+02  0.59565249832E+02  0.10000000000E+01 0.  0.
    9000005    1    3    3    0    0  0.56183102640E+02  0.18077364117E+01 -0.93225099683E+02  0.10886564262E+03  0.10000000000E+01 0.  0.
<mgrwt>
<rscale>  0 0.12498773E+03</rscale>
<asrwt>0</asrwt>
<pdfrwt beam="1">  1        4 0.42713954E-02 0.12498773E+03</pdfrwt>
<pdfrwt beam="2">  1       -4 0.21641049E-01 0.12498773E+03</pdfrwt>
<totfact> 0.95767928E+03</totfact>
</mgrwt>
</event>
<event>
 5    1  0.3217852E-002  0.1249978E+03  0.7818608E-02  0.1235073E+00
         -4   -1    0    0    0  501 -0.00000000000E+00  0.00000000000E+00  0.19709709133E+03  0.19710118293E+03  0.12700000000E+01 0.  1.
          4   -1    0    0  501    0  0.00000000000E+00 -0.00000000000E+00 -0.19793577755E+02  0.19834278922E+02  0.12700000000E+01 0.  1.
         25    2    1    2    0    0  0.00000000000E+00  0.00000000000E+00  0.17730351358E+03  0.21693546185E+03  0.12499783471E+03 0.  0.
    9000005    1    3    3    0    0 -0.31738257762E+01 -0.62236335029E+02  0.96732638059E+02  0.11507231567E+03  0.10000000000E+01 0.  0.
    9000005    1    3    3    0    0  0.31738257762E+01  0.62236335029E+02  0.80570875517E+02  0.10186314618E+03  0.10000000000E+01 0.  0.
<mgrwt>
<rscale>  0 0.12499783E+03</rscale>
<asrwt>0</asrwt>
<pdfrwt beam="2">  1        4 0.30486113E-02 0.12499783E+03</pdfrwt>
<pdfrwt beam="1">  1       -4 0.30326076E-01 0.12499783E+03</pdfrwt>
<totfact> 0.87359832E+03</totfact>
</mgrwt>
</event>
<event>
 5    1  0.3217852E-002  0.1249623E+03  0.7818608E-02  0.1235128E+00
         -4   -1    0    0    0  501 -0.00000000000E+00  0.00000000000E+00  0.40302397178E+02  0.40322402189E+02  0.12700000000E+01 0. -1.
          4   -1    0    0  501    0  0.00000000000E+00 -0.00000000000E+00 -0.96816915417E+02  0.96825244698E+02  0.12700000000E+01 0. -1.
         25    2    1    2    0    0  0.00000000000E+00  0.00000000000E+00 -0.56514518239E+02  0.13714764689E+03  0.12496233943E+03 0.  0.
    9000005    1    3    3    0    0  0.38791713697E+02  0.36083609898E+01  0.25342226316E+02  0.46487049328E+02  0.10000000000E+01 0.  0.
    9000005    1    3    3    0    0 -0.38791713697E+02 -0.36083609898E+01 -0.81856744555E+02  0.90660597559E+02  0.10000000000E+01 0.  0.
<mgrwt>
<rscale>  0 0.12496234E+03</rscale>
<asrwt>0</asrwt>
<pdfrwt beam="2">  1        4 0.14897090E-01 0.12496234E+03</pdfrwt>
<pdfrwt beam="1">  1       -4 0.62025484E-02 0.12496234E+03</pdfrwt>
<totfact> 0.10201660E+04</totfact>
</mgrwt>
</event>
<event>
 5    1  0.3217852E-002  0.1250344E+03  0.7818608E-02  0.1235016E+00
         -4   -1    0    0    0  501 -0.00000000000E+00  0.00000000000E+00  0.68904559907E+01  0.70065172347E+01  0.12700000000E+01 0. -1.
          4   -1    0    0  501    0  0.00000000000E+00 -0.00000000000E+00 -0.56236538934E+03  0.56236682337E+03  0.12700000000E+01 0. -1.
         25    2    1    2    0    0  0.00000000000E+00  0.00000000000E+00 -0.55547493335E+03  0.56937334061E+03  0.12503439292E+03 0.  0.
    9000005    1    3    3    0    0 -0.26096855260E+02 -0.65279236934E+01 -0.20794668074E+02  0.34015847226E+02  0.10000000000E+01 0.  0.
    9000005    1    3    3    0    0  0.26096855260E+02  0.65279236934E+01 -0.53468026528E+03  0.53535749338E+03  0.10000000000E+01 0.  0.
<mgrwt>
<rscale>  0 0.12503439E+03</rscale>
<asrwt>0</asrwt>
<pdfrwt beam="2">  1        4 0.86526755E-01 0.12503439E+03</pdfrwt>
<pdfrwt beam="1">  1       -4 0.10691087E-02 0.12503439E+03</pdfrwt>
<totfact> 0.50821386E+03</totfact>
</mgrwt>
</event>
<event>
 5    1  0.3217852E-002  0.1250040E+03  0.7818608E-02  0.1235063E+00
          4   -1    0    0  501    0  0.00000000000E+00  0.00000000000E+00  0.36971733001E+03  0.36971951126E+03  0.12700000000E+01 0.  1.
         -4   -1    0    0    0  501 -0.00000000000E+00 -0.00000000000E+00 -0.10525790209E+02  0.10602129952E+02  0.12700000000E+01 0.  1.
         25    2    1    2    0    0  0.00000000000E+00  0.00000000000E+00  0.35919153980E+03  0.38032164121E+03  0.12500395399E+03 0.  0.
    9000005    1    3    3    0    0 -0.13880163457E+02  0.60831279867E+02  0.16888487679E+03  0.18004500869E+03  0.10000000000E+01 0.  0.
    9000005    1    3    3    0    0  0.13880163457E+02 -0.60831279867E+02  0.19030666301E+03  0.20027663252E+03  0.10000000000E+01 0.  0.
<mgrwt>
<rscale>  0 0.12500395E+03</rscale>
<asrwt>0</asrwt>
<pdfrwt beam="1">  1        4 0.56885634E-01 0.12500395E+03</pdfrwt>
<pdfrwt beam="2">  1       -4 0.16253923E-02 0.12500395E+03</pdfrwt>
<totfact> 0.66506932E+03</totfact>
</mgrwt>
</event>
<event>
 5    1  0.3217852E-002  0.1249766E+03  0.7818608E-02  0.1235106E+00
          4   -1    0    0  501    0  0.00000000000E+00  0.00000000000E+00  0.67407390399E+02  0.67419353160E+02  0.12700000000E+01 0. -1.
         -4   -1    0    0    0  501 -0.00000000000E+00 -0.00000000000E+00 -0.57904129579E+02  0.57918055236E+02  0.12700000000E+01 0. -1.
         25    2    1    2    0    0  0.00000000000E+00  0.00000000000E+00  0.95032608206E+01  0.12533740840E+03  0.12497661372E+03 0.  0.
    9000005    1    3    3    0    0  0.65207254538E+01 -0.30700949362E+02  0.58932778056E+02  0.66776795981E+02  0.10000000000E+01 0.  0.
    9000005    1    3    3    0    0 -0.65207254538E+01  0.30700949362E+02 -0.49429517235E+02  0.58560612414E+02  0.10000000000E+01 0.  0.
<mgrwt>
<rscale>  0 0.12497661E+03</rscale>
<asrwt>0</asrwt>
<pdfrwt beam="1">  1        4 0.10372359E-01 0.12497661E+03</pdfrwt>
<pdfrwt beam="2">  1       -4 0.89103190E-02 0.12497661E+03</pdfrwt>
<totfact> 0.10451061E+04</totfact>
</mgrwt>
</event>
<event>
 5    1  0.3217852E-002  0.1249997E+03  0.7818608E-02  0.1235070E+00
         -4   -1    0    0    0  501 -0.00000000000E+00  0.00000000000E+00  0.34502570990E+02  0.34525936699E+02  0.12700000000E+01 0.  1.
          4   -1    0    0  501    0  0.00000000000E+00 -0.00000000000E+00 -0.11315035396E+03  0.11315748098E+03  0.12700000000E+01 0.  1.
         25    2    1    2    0    0  0.00000000000E+00  0.00000000000E+00 -0.78647782969E+02  0.14768341768E+03  0.12499967236E+03 0.  0.
    9000005    1    3    3    0    0  0.29134998876E+02 -0.49870164557E+02 -0.11132807308E+02  0.58828741879E+02  0.10000000000E+01 0.  0.
    9000005    1    3    3    0    0 -0.29134998876E+02  0.49870164557E+02 -0.67514975661E+02  0.88854675797E+02  0.10000000000E+01 0.  0.
<mgrwt>
<rscale>  0 0.12499967E+03</rscale>
<asrwt>0</asrwt>
<pdfrwt beam="2">  1        4 0.17410092E-01 0.12499967E+03</pdfrwt>
<pdfrwt beam="1">  1       -4 0.53104335E-02 0.12499967E+03</pdfrwt>
<totfact> 0.99768230E+03</totfact>
</mgrwt>
</event>
<event>
 5    1  0.3217852E-002  0.1249998E+03  0.7818608E-02  0.1235070E+00
          4   -1    0    0  501    0  0.00000000000E+00  0.00000000000E+00  0.56692942768E+02  0.56707165858E+02  0.12700000000E+01 0. -1.
         -4   -1    0    0    0  501 -0.00000000000E+00 -0.00000000000E+00 -0.68872969488E+02  0.68884677731E+02  0.12700000000E+01 0. -1.
         25    2    1    2    0    0  0.00000000000E+00  0.00000000000E+00 -0.12180026720E+02  0.12559184359E+03  0.12499983250E+03 0.  0.
    9000005    1    3    3    0    0  0.21996999890E+02 -0.22352497125E+02 -0.60399111933E+02  0.68062874272E+02  0.10000000000E+01 0.  0.
    9000005    1    3    3    0    0 -0.21996999890E+02  0.22352497125E+02  0.48219085213E+02  0.57528969317E+02  0.10000000000E+01 0.  0.
<mgrwt>
<rscale>  0 0.12499983E+03</rscale>
<asrwt>0</asrwt>
<pdfrwt beam="1">  1        4 0.87239860E-02 0.12499983E+03</pdfrwt>
<pdfrwt beam="2">  1       -4 0.10597836E-01 0.12499983E+03</pdfrwt>
<totfact> 0.10439966E+04</totfact>
</mgrwt>
</event>
<event>
 5    1  0.3217852E-002  0.1250027E+03  0.7818608E-02  0.1235065E+00
         -4   -1    0    0    0  501 -0.00000000000E+00  0.00000000000E+00  0.41993858644E+02  0.42013058254E+02  0.12700000000E+01 0. -1.
          4   -1    0    0  501    0  0.00000000000E+00 -0.00000000000E+00 -0.92978842010E+02  0.92987515085E+02  0.12700000000E+01 0. -1.
         25    2    1    2    0    0  0.00000000000E+00  0.00000000000E+00 -0.50984983366E+02  0.13500057334E+03  0.12500274506E+03 0.  0.
    9000005    1    3    3    0    0  0.34580432479E+01 -0.46674138787E+02  0.19232126343E+02  0.50609366507E+02  0.10000000000E+01 0.  0.
    9000005    1    3    3    0    0 -0.34580432479E+01  0.46674138787E+02 -0.70217109709E+02  0.84391206831E+02  0.10000000000E+01 0.  0.
<mgrwt>
<rscale>  0 0.12500275E+03</rscale>
<asrwt>0</asrwt>
<pdfrwt beam="2">  1        4 0.14306581E-01 0.12500275E+03</pdfrwt>
<pdfrwt beam="1">  1       -4 0.64627377E-02 0.12500275E+03</pdfrwt>
<totfact> 0.10237425E+04</totfact>
</mgrwt>
</event>
<event>
 5    1  0.3217852E-002  0.1250006E+03  0.7818608E-02  0.1235068E+00
         -4   -1    0    0    0  501 -0.00000000000E+00  0.00000000000E+00  0.18863358827E+03  0.18863786344E+03  0.12700000000E+01 0. -1.
          4   -1    0    0  501    0  0.00000000000E+00 -0.00000000000E+00 -0.20684335225E+02  0.20723286991E+02  0.12700000000E+01 0. -1.
         25    2    1    2    0    0  0.00000000000E+00  0.00000000000E+00  0.16794925304E+03  0.20936115043E+03  0.12500055884E+03 0.  0.
    9000005    1    3    3    0    0  0.21657794049E+02  0.39059973774E+02  0.15718330844E+03  0.16340848829E+03  0.10000000000E+01 0.  0.
    9000005    1    3    3    0    0 -0.21657794049E+02 -0.39059973774E+02  0.10765944605E+02  0.45952662137E+02  0.10000000000E+01 0.  0.
<mgrwt>
<rscale>  0 0.12500056E+03</rscale>
<asrwt>0</asrwt>
<pdfrwt beam="2">  1        4 0.31855306E-02 0.12500056E+03</pdfrwt>
<pdfrwt beam="1">  1       -4 0.29023877E-01 0.12500056E+03</pdfrwt>
<totfact> 0.88579213E+03</totfact>
</mgrwt>
</event>
<event>
 5    1  0.3217852E-002  0.1249979E+03  0.7818608E-02  0.1235073E+00
          4   -1    0    0  501    0  0.00000000000E+00  0.00000000000E+00  0.14605637696E+03  0.14606189835E+03  0.12700000000E+01 0. -1.
         -4   -1    0    0    0  501 -0.00000000000E+00 -0.00000000000E+00 -0.26722810705E+02  0.26752972021E+02  0.12700000000E+01 0. -1.
         25    2    1    2    0    0  0.00000000000E+00  0.00000000000E+00  0.11933356625E+03  0.17281487037E+03  0.12499791753E+03 0.  0.
    9000005    1    3    3    0    0  0.46915401313E+02 -0.35190710191E+02  0.29832087992E+02  0.65805732562E+02  0.10000000000E+01 0.  0.
    9000005    1    3    3    0    0 -0.46915401313E+02  0.35190710191E+02  0.89501478260E+02  0.10700913781E+03  0.10000000000E+01 0.  0.
<mgrwt>
<rscale>  0 0.12499792E+03</rscale>
<asrwt>0</asrwt>
<pdfrwt beam="1">  1        4 0.22472957E-01 0.12499792E+03</pdfrwt>
<pdfrwt beam="2">  1       -4 0.41139464E-02 0.12499792E+03</pdfrwt>
<totfact> 0.94931008E+03</totfact>
</mgrwt>
</event>
<event>
 5    1  0.3217852E-002  0.1250007E+03  0.7818608E-02  0.1235068E+00
          4   -1    0    0  501    0  0.00000000000E+00  0.00000000000E+00  0.12903771011E+03  0.12904395968E+03  0.12700000000E+01 0.  1.
         -4   -1    0    0    0  501 -0.00000000000E+00 -0.00000000000E+00 -0.30252195345E+02  0.30278841180E+02  0.12700000000E+01 0.  1.
         25    2    1    2    0    0  0.00000000000E+00  0.00000000000E+00  0.98785514761E+02  0.15932280086E+03  0.12500070778E+03 0.  0.
    9000005    1    3    3    0    0 -0.28956350809E+02 -0.50216520719E+02  0.79151427751E+02  0.98112780617E+02  0.10000000000E+01 0.  0.
    9000005    1    3    3    0    0  0.28956350809E+02  0.50216520719E+02  0.19634087009E+02  0.61210020241E+02  0.10000000000E+01 0.  0.
<mgrwt>
<rscale>  0 0.12500071E+03</rscale>
<asrwt>0</asrwt>
<pdfrwt beam="1">  1        4 0.19854486E-01 0.12500071E+03</pdfrwt>
<pdfrwt beam="2">  1       -4 0.46567142E-02 0.12500071E+03</pdfrwt>
<totfact> 0.97471951E+03</totfact>
</mgrwt>
</event>
<event>
 5    1  0.3217852E-002  0.1250038E+03  0.7818608E-02  0.1235063E+00
          4   -1    0    0  501    0  0.00000000000E+00  0.00000000000E+00  0.16756392146E+03  0.16756873418E+03  0.12700000000E+01 0. -1.
         -4   -1    0    0    0  501 -0.00000000000E+00 -0.00000000000E+00 -0.23290961668E+02  0.23325560988E+02  0.12700000000E+01 0. -1.
         25    2    1    2    0    0  0.00000000000E+00  0.00000000000E+00  0.14427295979E+03  0.19089429517E+03  0.12500377995E+03 0.  0.
    9000005    1    3    3    0    0 -0.51504049189E+02 -0.32307868030E+02  0.50058232841E+02  0.78760980789E+02  0.10000000000E+01 0.  0.
    9000005    1    3    3    0    0  0.51504049189E+02  0.32307868030E+02  0.94214726948E+02  0.11213331438E+03  0.10000000000E+01 0.  0.
<mgrwt>
<rscale>  0 0.12500378E+03</rscale>
<asrwt>0</asrwt>
<pdfrwt beam="1">  1        4 0.25782096E-01 0.12500378E+03</pdfrwt>
<pdfrwt beam="2">  1       -4 0.35862567E-02 0.12500378E+03</pdfrwt>
<totfact> 0.91684181E+03</totfact>
</mgrwt>
</event>
<event>
 5    1  0.3217852E-002  0.1250096E+03  0.7818608E-02  0.1235054E+00
          4   -1    0    0  501    0  0.00000000000E+00  0.00000000000E+00  0.10315466008E+02  0.10393350710E+02  0.12700000000E+01 0. -1.
         -4   -1    0    0    0  501 -0.00000000000E+00 -0.00000000000E+00 -0.37723373915E+03  0.37723587694E+03  0.12700000000E+01 0. -1.
         25    2    1    2    0    0  0.00000000000E+00  0.00000000000E+00 -0.36691827314E+03  0.38762922765E+03  0.12500959549E+03 0.  0.
    9000005    1    3    3    0    0  0.55173641760E+02 -0.29339927362E+02 -0.18053770199E+03  0.19104927093E+03  0.10000000000E+01 0.  0.
    9000005    1    3    3    0    0 -0.55173641760E+02  0.29339927362E+02 -0.18638057115E+03  0.19657995672E+03  0.10000000000E+01 0.  0.
<mgrwt>
<rscale>  0 0.12500960E+03</rscale>
<asrwt>0</asrwt>
<pdfrwt beam="1">  1        4 0.15931506E-02 0.12500960E+03</pdfrwt>
<pdfrwt beam="2">  1       -4 0.58042105E-01 0.12500960E+03</pdfrwt>
<totfact> 0.65760071E+03</totfact>
</mgrwt>
</event>
<event>
 5    1  0.3217852E-002  0.1249948E+03  0.7818608E-02  0.1235077E+00
          4   -1    0    0  501    0  0.00000000000E+00  0.00000000000E+00  0.85594802673E+02  0.85604223872E+02  0.12700000000E+01 0. -1.
         -4   -1    0    0    0  501 -0.00000000000E+00 -0.00000000000E+00 -0.45611939836E+02  0.45629617088E+02  0.12700000000E+01 0. -1.
         25    2    1    2    0    0  0.00000000000E+00  0.00000000000E+00  0.39982862838E+02  0.13123384096E+03  0.12499476666E+03 0.  0.
    9000005    1    3    3    0    0 -0.35917817927E+02 -0.50451902994E+02  0.28740362527E+02  0.68282447221E+02  0.10000000000E+01 0.  0.
    9000005    1    3    3    0    0  0.35917817927E+02  0.50451902994E+02  0.11242500311E+02  0.62951393738E+02  0.10000000000E+01 0.  0.
<mgrwt>
<rscale>  0 0.12499477E+03</rscale>
<asrwt>0</asrwt>
<pdfrwt beam="1">  1        4 0.13170516E-01 0.12499477E+03</pdfrwt>
<pdfrwt beam="2">  1       -4 0.70193060E-02 0.12499477E+03</pdfrwt>
<totfact> 0.10319297E+04</totfact>
</mgrwt>
</event>
<event>
 4    1  0.3217852E-002  0.1251151E+03  0.7818608E-02  0.1234890E+00
          4   -1    0    0  501    0  0.00000000000E+00  0.00000000000E+00  0.10717723897E+03  0.10718476316E+03  0.12700000000E+01 0.  1.
         -4   -1    0    0    0  501 -0.00000000000E+00 -0.00000000000E+00 -0.36493930737E+02  0.36516022246E+02  0.12700000000E+01 0.  1.
    9000005    1    1    2    0    0 -0.59281815774E+02  0.19684395543E+02  0.31595675590E+02  0.70007826887E+02  0.10000000000E+01 0.  0.
    9000005    1    1    2    0    0  0.59281815774E+02 -0.19684395543E+02  0.39087632641E+02  0.73692958516E+02  0.10000000000E+01 0.  0.
<mgrwt>
<rscale>  0 0.12511509E+03</rscale>
<asrwt>0</asrwt>
<pdfrwt beam="1">  1        4 0.16491084E-01 0.12511509E+03</pdfrwt>
<pdfrwt beam="2">  1       -4 0.56167291E-02 0.12511509E+03</pdfrwt>
<totfact> 0.10031429E+04</totfact>
</mgrwt>
</event>
<event>
 5    1  0.3217852E-002  0.1250038E+03  0.7818608E-02  0.1235063E+00
          4   -1    0    0  501    0  0.00000000000E+00  0.00000000000E+00  0.39072362320E+01  0.41084540855E+01  0.12700000000E+01 0. -1.
         -4   -1    0    0    0  501 -0.00000000000E+00 -0.00000000000E+00 -0.97450927766E+03  0.97451010521E+03  0.12700000000E+01 0. -1.
         25    2    1    2    0    0  0.00000000000E+00  0.00000000000E+00 -0.97060204143E+03  0.97861855929E+03  0.12500384699E+03 0.  0.
    9000005    1    3    3    0    0  0.20476357288E+02  0.58790142615E+02 -0.52812939196E+03  0.53178681511E+03  0.10000000000E+01 0.  0.
    9000005    1    3    3    0    0 -0.20476357288E+02 -0.58790142615E+02 -0.44247264947E+03  0.44683174418E+03  0.10000000000E+01 0.  0.
<mgrwt>
<rscale>  0 0.12500385E+03</rscale>
<asrwt>0</asrwt>
<pdfrwt beam="1">  1        4 0.61665600E-03 0.12500385E+03</pdfrwt>
<pdfrwt beam="2">  1       -4 0.14993986E+00 0.12500385E+03</pdfrwt>
<totfact> 0.31318602E+03</totfact>
</mgrwt>
</event>
<event>
 5    1  0.3217852E-002  0.1250003E+03  0.7818608E-02  0.1235069E+00
         -4   -1    0    0    0  501 -0.00000000000E+00  0.00000000000E+00  0.83715005349E+01  0.84672853504E+01  0.12700000000E+01 0.  1.
          4   -1    0    0  501    0  0.00000000000E+00 -0.00000000000E+00 -0.46386401899E+03  0.46386575754E+03  0.12700000000E+01 0.  1.
         25    2    1    2    0    0  0.00000000000E+00  0.00000000000E+00 -0.45549251846E+03  0.47233304289E+03  0.12500027613E+03 0.  0.
    9000005    1    3    3    0    0 -0.40091369378E+02 -0.35848235425E+02 -0.34800333696E+03  0.35213596297E+03  0.10000000000E+01 0.  0.
    9000005    1    3    3    0    0  0.40091369378E+02  0.35848235425E+02 -0.10748918150E+03  0.12019707992E+03  0.10000000000E+01 0.  0.
<mgrwt>
<rscale>  0 0.12500028E+03</rscale>
<asrwt>0</asrwt>
<pdfrwt beam="2">  1        4 0.71371177E-01 0.12500028E+03</pdfrwt>
<pdfrwt beam="1">  1       -4 0.12954253E-02 0.12500028E+03</pdfrwt>
<totfact> 0.58076408E+03</totfact>
</mgrwt>
</event>
<event>
 5    1  0.3217852E-002  0.1250167E+03  0.7818608E-02  0.1235043E+00
         -4   -1    0    0    0  501 -0.00000000000E+00  0.00000000000E+00  0.26943144459E+02  0.26973059399E+02  0.12700000000E+01 0.  1.
          4   -1    0    0  501    0  0.00000000000E+00 -0.00000000000E+00 -0.14490673926E+03  0.14491230445E+03  0.12700000000E+01 0.  1.
         25    2    1    2    0    0  0.00000000000E+00  0.00000000000E+00 -0.11796359480E+03  0.17188536385E+03  0.12501667332E+03 0.  0.
    9000005    1    3    3    0    0 -0.22061860237E+02 -0.43642310545E+02 -0.11249551493E+03  0.12266873207E+03  0.10000000000E+01 0.  0.
    9000005    1    3    3    0    0  0.22061860237E+02  0.43642310545E+02 -0.54680798631E+01  0.49216631785E+02  0.10000000000E+01 0.  0.
<mgrwt>
<rscale>  0 0.12501667E+03</rscale>
<asrwt>0</asrwt>
<pdfrwt beam="2">  1        4 0.22296073E-01 0.12501667E+03</pdfrwt>
<pdfrwt beam="1">  1       -4 0.41478285E-02 0.12501667E+03</pdfrwt>
<totfact> 0.95062821E+03</totfact>
</mgrwt>
</event>
<event>
 5    1  0.3217852E-002  0.1249756E+03  0.7818608E-02  0.1235107E+00
          4   -1    0    0  501    0  0.00000000000E+00  0.00000000000E+00  0.16643472642E+04  0.16643477487E+04  0.12700000000E+01 0.  1.
         -4   -1    0    0    0  501 -0.00000000000E+00 -0.00000000000E+00 -0.21737111757E+01  0.25175226465E+01  0.12700000000E+01 0.  1.
         25    2    1    2    0    0  0.00000000000E+00  0.00000000000E+00  0.16621735530E+04  0.16668652714E+04  0.12497564801E+03 0.  0.
    9000005    1    3    3    0    0  0.42477354578E+02  0.44634571222E+02  0.96915269482E+03  0.97110994047E+03  0.10000000000E+01 0.  0.
    9000005    1    3    3    0    0 -0.42477354578E+02 -0.44634571222E+02  0.69302085819E+03  0.69575533090E+03  0.10000000000E+01 0.  0.
<mgrwt>
<rscale>  0 0.12497565E+03</rscale>
<asrwt>0</asrwt>
<pdfrwt beam="1">  1        4 0.25607986E+00 0.12497565E+03</pdfrwt>
<pdfrwt beam="2">  1       -4 0.36090148E-03 0.12497565E+03</pdfrwt>
<totfact> 0.14876228E+03</totfact>
</mgrwt>
</event>
<event>
 5    1  0.3217852E-002  0.1249967E+03  0.7818608E-02  0.1235074E+00
          4   -1    0    0  501    0  0.00000000000E+00  0.00000000000E+00  0.14197303857E+04  0.14197309538E+04  0.12700000000E+01 0.  1.
         -4   -1    0    0    0  501 -0.00000000000E+00 -0.00000000000E+00 -0.26040985433E+01  0.28972796246E+01  0.12700000000E+01 0.  1.
         25    2    1    2    0    0  0.00000000000E+00  0.00000000000E+00  0.14171262872E+04  0.14226282334E+04  0.12499670631E+03 0.  0.
    9000005    1    3    3    0    0 -0.45771693290E+02  0.20849005931E+02  0.11306423664E+04  0.11317609684E+04  0.10000000000E+01 0.  0.
    9000005    1    3    3    0    0  0.45771693290E+02 -0.20849005931E+02  0.28648392078E+03  0.29086726495E+03  0.10000000000E+01 0.  0.
<mgrwt>
<rscale>  0 0.12499671E+03</rscale>
<asrwt>0</asrwt>
<pdfrwt beam="1">  1        4 0.21844346E+00 0.12499671E+03</pdfrwt>
<pdfrwt beam="2">  1       -4 0.42322507E-03 0.12499671E+03</pdfrwt>
<totfact> 0.19501776E+03</totfact>
</mgrwt>
</event>
<event>
 5    1  0.3217852E-002  0.1250028E+03  0.7818608E-02  0.1235065E+00
         -4   -1    0    0    0  501 -0.00000000000E+00  0.00000000000E+00  0.10868726124E+03  0.10869468090E+03  0.12700000000E+01 0.  1.
          4   -1    0    0  501    0  0.00000000000E+00 -0.00000000000E+00 -0.35922033771E+02  0.35944476770E+02  0.12700000000E+01 0.  1.
         25    2    1    2    0    0  0.00000000000E+00  0.00000000000E+00  0.72765227465E+02  0.14463915767E+03  0.12500283038E+03 0.  0.
    9000005    1    3    3    0    0  0.36914719012E+00 -0.62491908266E+02  0.36118675613E+02  0.72186796552E+02  0.10000000000E+01 0.  0.
    9000005    1    3    3    0    0 -0.36914719012E+00  0.62491908266E+02  0.36646551852E+02  0.72452361114E+02  0.10000000000E+01 0.  0.
<mgrwt>
<rscale>  0 0.12500283E+03</rscale>
<asrwt>0</asrwt>
<pdfrwt beam="2">  1        4 0.55287640E-02 0.12500283E+03</pdfrwt>
<pdfrwt beam="1">  1       -4 0.16723414E-01 0.12500283E+03</pdfrwt>
<totfact> 0.10037685E+04</totfact>
</mgrwt>
</event>
<event>
 5    1  0.3217852E-002  0.1249993E+03  0.7818608E-02  0.1235070E+00
          4   -1    0    0  501    0  0.00000000000E+00  0.00000000000E+00  0.12489129092E+03  0.12489774797E+03  0.12700000000E+01 0. -1.
         -4   -1    0    0    0  501 -0.00000000000E+00 -0.00000000000E+00 -0.31256675621E+02  0.31282465869E+02  0.12700000000E+01 0. -1.
         25    2    1    2    0    0  0.00000000000E+00  0.00000000000E+00  0.93634615297E+02  0.15618021384E+03  0.12499927205E+03 0.  0.
    9000005    1    3    3    0    0 -0.67364003481E+01 -0.30894353544E+02  0.11416439681E+03  0.11846666058E+03  0.10000000000E+01 0.  0.
    9000005    1    3    3    0    0  0.67364003481E+01  0.30894353544E+02 -0.20529781508E+02  0.37713553258E+02  0.10000000000E+01 0.  0.
<mgrwt>
<rscale>  0 0.12499927E+03</rscale>
<asrwt>0</asrwt>
<pdfrwt beam="1">  1        4 0.19216525E-01 0.12499927E+03</pdfrwt>
<pdfrwt beam="2">  1       -4 0.48111999E-02 0.12499927E+03</pdfrwt>
<totfact> 0.98085911E+03</totfact>
</mgrwt>
</event>
<event>
 5    1  0.3217852E-002  0.1249935E+03  0.7818608E-02  0.1235079E+00
          4   -1    0    0  501    0  0.00000000000E+00  0.00000000000E+00  0.48673139952E+02  0.48689705820E+02  0.12700000000E+01 0.  1.
         -4   -1    0    0    0  501 -0.00000000000E+00 -0.00000000000E+00 -0.80211181518E+02  0.80221234972E+02  0.12700000000E+01 0.  1.
         25    2    1    2    0    0  0.00000000000E+00  0.00000000000E+00 -0.31538041566E+02  0.12891094079E+03  0.12499353019E+03 0.  0.
    9000005    1    3    3    0    0 -0.17365669496E+02 -0.37271666015E+02 -0.64297989707E+02  0.76328075077E+02  0.10000000000E+01 0.  0.
    9000005    1    3    3    0    0  0.17365669496E+02  0.37271666015E+02  0.32759948142E+02  0.52582865715E+02  0.10000000000E+01 0.  0.
<mgrwt>
<rscale>  0 0.12499353E+03</rscale>
<asrwt>0</asrwt>
<pdfrwt beam="1">  1        4 0.74902231E-02 0.12499353E+03</pdfrwt>
<pdfrwt beam="2">  1       -4 0.12342229E-01 0.12499353E+03</pdfrwt>
<totfact> 0.10369375E+04</totfact>
</mgrwt>
</event>
<event>
 5    1  0.3217852E-002  0.1249970E+03  0.7818608E-02  0.1235074E+00
         -4   -1    0    0    0  501 -0.00000000000E+00  0.00000000000E+00  0.16168754127E+03  0.16169252890E+03  0.12700000000E+01 0.  1.
          4   -1    0    0  501    0  0.00000000000E+00 -0.00000000000E+00 -0.24136017510E+02  0.24169407135E+02  0.12700000000E+01 0.  1.
         25    2    1    2    0    0  0.00000000000E+00  0.00000000000E+00  0.13755152376E+03  0.18586193604E+03  0.12499695028E+03 0.  0.
    9000005    1    3    3    0    0  0.32463280523E+02  0.40975194093E+02  0.17866460525E+02  0.55254334898E+02  0.10000000000E+01 0.  0.
    9000005    1    3    3    0    0 -0.32463280523E+02 -0.40975194093E+02  0.11968506324E+03  0.13060760114E+03  0.10000000000E+01 0.  0.
<mgrwt>
<rscale>  0 0.12499695E+03</rscale>
<asrwt>0</asrwt>
<pdfrwt beam="2">  1        4 0.37161855E-02 0.12499695E+03</pdfrwt>
<pdfrwt beam="1">  1       -4 0.24877959E-01 0.12499695E+03</pdfrwt>
<totfact> 0.92578677E+03</totfact>
</mgrwt>
</event>
<event>
 5    1  0.3217852E-002  0.1249959E+03  0.7818608E-02  0.1235076E+00
          4   -1    0    0  501    0  0.00000000000E+00  0.00000000000E+00  0.92668106011E+01  0.93534313873E+01  0.12700000000E+01 0. -1.
         -4   -1    0    0    0  501 -0.00000000000E+00 -0.00000000000E+00 -0.41945510567E+03  0.41945702828E+03  0.12700000000E+01 0. -1.
         25    2    1    2    0    0  0.00000000000E+00  0.00000000000E+00 -0.41018829507E+03  0.42881045967E+03  0.12499589156E+03 0.  0.
    9000005    1    3    3    0    0 -0.61344491400E+02  0.11084010456E+02 -0.19014394282E+03  0.20010427508E+03  0.10000000000E+01 0.  0.
    9000005    1    3    3    0    0  0.61344491400E+02 -0.11084010456E+02 -0.22004435225E+03  0.22870618459E+03  0.10000000000E+01 0.  0.
<mgrwt>
<rscale>  0 0.12499589E+03</rscale>
<asrwt>0</asrwt>
<pdfrwt beam="1">  1        4 0.14324745E-02 0.12499589E+03</pdfrwt>
<pdfrwt beam="2">  1       -4 0.64538351E-01 0.12499589E+03</pdfrwt>
<totfact> 0.61849573E+03</totfact>
</mgrwt>
</event>
<event>
 5    1  0.3217852E-002  0.1249981E+03  0.7818608E-02  0.1235072E+00
          4   -1    0    0  501    0  0.00000000000E+00  0.00000000000E+00  0.78923856522E+01  0.79939133898E+01  0.12700000000E+01 0.  1.
         -4   -1    0    0    0  501 -0.00000000000E+00 -0.00000000000E+00 -0.49165845164E+03  0.49166009190E+03  0.12700000000E+01 0.  1.
         25    2    1    2    0    0  0.00000000000E+00  0.00000000000E+00 -0.48376606599E+03  0.49965400529E+03  0.12499807360E+03 0.  0.
    9000005    1    3    3    0    0  0.80389382772E+01 -0.44131629575E+02 -0.41579536836E+03  0.41820929403E+03  0.10000000000E+01 0.  0.
    9000005    1    3    3    0    0 -0.80389382772E+01  0.44131629575E+02 -0.67970697625E+02  0.81444711266E+02  0.10000000000E+01 0.  0.
<mgrwt>
<rscale>  0 0.12499807E+03</rscale>
<asrwt>0</asrwt>
<pdfrwt beam="1">  1        4 0.12221496E-02 0.12499807E+03</pdfrwt>
<pdfrwt beam="2">  1       -4 0.75647674E-01 0.12499807E+03</pdfrwt>
<totfact> 0.55893599E+03</totfact>
</mgrwt>
</event>
<event>
 5    1  0.3217852E-002  0.1250338E+03  0.7818608E-02  0.1235016E+00
          4   -1    0    0  501    0  0.00000000000E+00  0.00000000000E+00  0.13449838947E+02  0.13509665714E+02  0.12700000000E+01 0. -1.
         -4   -1    0    0    0  501 -0.00000000000E+00 -0.00000000000E+00 -0.28988207719E+03  0.28988485917E+03  0.12700000000E+01 0. -1.
         25    2    1    2    0    0  0.00000000000E+00  0.00000000000E+00 -0.27643223825E+03  0.30339452489E+03  0.12503381698E+03 0.  0.
    9000005    1    3    3    0    0  0.38866925000E+02  0.85430792703E+01 -0.25518603661E+03  0.25827221171E+03  0.10000000000E+01 0.  0.
    9000005    1    3    3    0    0 -0.38866925000E+02 -0.85430792703E+01 -0.21246201639E+02  0.45122313177E+02  0.10000000000E+01 0.  0.
<mgrwt>
<rscale>  0 0.12503382E+03</rscale>
<asrwt>0</asrwt>
<pdfrwt beam="1">  1        4 0.20740223E-02 0.12503382E+03</pdfrwt>
<pdfrwt beam="2">  1       -4 0.44602054E-01 0.12503382E+03</pdfrwt>
<totfact> 0.75118607E+03</totfact>
</mgrwt>
</event>
<event>
 5    1  0.3217852E-002  0.1249965E+03  0.7818608E-02  0.1235075E+00
         -4   -1    0    0    0  501 -0.00000000000E+00  0.00000000000E+00  0.42694968102E+02  0.42713852569E+02  0.12700000000E+01 0.  1.
          4   -1    0    0  501    0  0.00000000000E+00 -0.00000000000E+00 -0.91443382491E+02  0.91452201184E+02  0.12700000000E+01 0.  1.
         25    2    1    2    0    0  0.00000000000E+00  0.00000000000E+00 -0.48748414388E+02  0.13416605375E+03  0.12499648825E+03 0.  0.
    9000005    1    3    3    0    0 -0.45738157924E+02  0.19049983429E+02 -0.65248592239E+02  0.81934484487E+02  0.10000000000E+01 0.  0.
    9000005    1    3    3    0    0  0.45738157924E+02 -0.19049983429E+02  0.16500177851E+02  0.52231569266E+02  0.10000000000E+01 0.  0.
<mgrwt>
<rscale>  0 0.12499649E+03</rscale>
<asrwt>0</asrwt>
<pdfrwt beam="2">  1        4 0.14070344E-01 0.12499649E+03</pdfrwt>
<pdfrwt beam="1">  1       -4 0.65705876E-02 0.12499649E+03</pdfrwt>
<totfact> 0.10256491E+04</totfact>
</mgrwt>
</event>
<event>
 5    1  0.3217852E-002  0.1249978E+03  0.7818608E-02  0.1235073E+00
         -4   -1    0    0    0  501 -0.00000000000E+00  0.00000000000E+00  0.36382667851E+01  0.38535548782E+01  0.12700000000E+01 0. -1.
          4   -1    0    0  501    0  0.00000000000E+00 -0.00000000000E+00 -0.10425507079E+04  0.10425514815E+04  0.12700000000E+01 0. -1.
         25    2    1    2    0    0  0.00000000000E+00  0.00000000000E+00 -0.10389124411E+04  0.10464050363E+04  0.12499775886E+03 0.  0.
    9000005    1    3    3    0    0 -0.57081498008E+02  0.24187416329E+02 -0.45365613028E+03  0.45787357760E+03  0.10000000000E+01 0.  0.
    9000005    1    3    3    0    0  0.57081498008E+02 -0.24187416329E+02 -0.58525631086E+03  0.58853145874E+03  0.10000000000E+01 0.  0.
<mgrwt>
<rscale>  0 0.12499776E+03</rscale>
<asrwt>0</asrwt>
<pdfrwt beam="2">  1        4 0.16040881E+00 0.12499776E+03</pdfrwt>
<pdfrwt beam="1">  1       -4 0.57635431E-03 0.12499776E+03</pdfrwt>
<totfact> 0.29108751E+03</totfact>
</mgrwt>
</event>
<event>
 5    1  0.3217852E-002  0.1249990E+03  0.7818608E-02  0.1235071E+00
         -4   -1    0    0    0  501 -0.00000000000E+00  0.00000000000E+00  0.14381443458E+03  0.14382004205E+03  0.12700000000E+01 0.  1.
          4   -1    0    0  501    0  0.00000000000E+00 -0.00000000000E+00 -0.27140329614E+02  0.27170027448E+02  0.12700000000E+01 0.  1.
         25    2    1    2    0    0  0.00000000000E+00  0.00000000000E+00  0.11667410497E+03  0.17099006949E+03  0.12499902838E+03 0.  0.
    9000005    1    3    3    0    0  0.54900654388E+02  0.19531140023E+02  0.27455661535E+02  0.64423292629E+02  0.10000000000E+01 0.  0.
    9000005    1    3    3    0    0 -0.54900654388E+02 -0.19531140023E+02  0.89218443432E+02  0.10656677686E+03  0.10000000000E+01 0.  0.
<mgrwt>
<rscale>  0 0.12499903E+03</rscale>
<asrwt>0</asrwt>
<pdfrwt beam="2">  1        4 0.41781512E-02 0.12499903E+03</pdfrwt>
<pdfrwt beam="1">  1       -4 0.22128013E-01 0.12499903E+03</pdfrwt>
<totfact> 0.95266500E+03</totfact>
</mgrwt>
</event>
<event>
 5    1  0.3217852E-002  0.1250009E+03  0.7818608E-02  0.1235068E+00
         -4   -1    0    0    0  501 -0.00000000000E+00  0.00000000000E+00  0.42910684855E+03  0.42910872792E+03  0.12700000000E+01 0. -1.
          4   -1    0    0  501    0  0.00000000000E+00 -0.00000000000E+00 -0.90571404506E+01  0.91457472708E+01  0.12700000000E+01 0. -1.
         25    2    1    2    0    0  0.00000000000E+00  0.00000000000E+00  0.42004970810E+03  0.43825447519E+03  0.12500091098E+03 0.  0.
    9000005    1    3    3    0    0  0.13030778628E+02 -0.56860831413E+02  0.13144394029E+03  0.14381051693E+03  0.10000000000E+01 0.  0.
    9000005    1    3    3    0    0 -0.13030778628E+02  0.56860831413E+02  0.28860576781E+03  0.29444395825E+03  0.10000000000E+01 0.  0.
<mgrwt>
<rscale>  0 0.12500091E+03</rscale>
<asrwt>0</asrwt>
<pdfrwt beam="2">  1        4 0.14003669E-02 0.12500091E+03</pdfrwt>
<pdfrwt beam="1">  1       -4 0.66023387E-01 0.12500091E+03</pdfrwt>
<totfact> 0.60993615E+03</totfact>
</mgrwt>
</event>
<event>
 5    1  0.3217852E-002  0.1249922E+03  0.7818608E-02  0.1235081E+00
         -4   -1    0    0    0  501 -0.00000000000E+00  0.00000000000E+00  0.43305193596E+02  0.43323812072E+02  0.12700000000E+01 0. -1.
          4   -1    0    0  501    0  0.00000000000E+00 -0.00000000000E+00 -0.90149064648E+02  0.90158009943E+02  0.12700000000E+01 0. -1.
         25    2    1    2    0    0  0.00000000000E+00  0.00000000000E+00 -0.46843871052E+02  0.13348182202E+03  0.12499219397E+03 0.  0.
    9000005    1    3    3    0    0 -0.18342386951E+02  0.32461790176E+02 -0.76973168269E+02  0.85534084516E+02  0.10000000000E+01 0.  0.
    9000005    1    3    3    0    0  0.18342386951E+02 -0.32461790176E+02  0.30129297217E+02  0.47947737500E+02  0.10000000000E+01 0.  0.
<mgrwt>
<rscale>  0 0.12499219E+03</rscale>
<asrwt>0</asrwt>
<pdfrwt beam="2">  1        4 0.13871207E-01 0.12499219E+03</pdfrwt>
<pdfrwt beam="1">  1       -4 0.66644578E-02 0.12499219E+03</pdfrwt>
<totfact> 0.10271979E+04</totfact>
</mgrwt>
</event>
<event>
 5    1  0.3217852E-002  0.1250085E+03  0.7818608E-02  0.1235056E+00
          4   -1    0    0  501    0  0.00000000000E+00  0.00000000000E+00  0.28304978503E+03  0.28305263416E+03  0.12700000000E+01 0.  1.
         -4   -1    0    0    0  501 -0.00000000000E+00 -0.00000000000E+00 -0.13770309352E+02  0.13828749750E+02  0.12700000000E+01 0.  1.
         25    2    1    2    0    0  0.00000000000E+00  0.00000000000E+00  0.26927947567E+03  0.29688138391E+03  0.12500848008E+03 0.  0.
    9000005    1    3    3    0    0  0.60531412486E+02  0.12915373160E+02  0.15519608917E+03  0.16708586073E+03  0.10000000000E+01 0.  0.
    9000005    1    3    3    0    0 -0.60531412486E+02 -0.12915373160E+02  0.11408338650E+03  0.12979552318E+03  0.10000000000E+01 0.  0.
<mgrwt>
<rscale>  0 0.12500848E+03</rscale>
<asrwt>0</asrwt>
<pdfrwt beam="1">  1        4 0.43550828E-01 0.12500848E+03</pdfrwt>
<pdfrwt beam="2">  1       -4 0.21232241E-02 0.12500848E+03</pdfrwt>
<totfact> 0.75977402E+03</totfact>
</mgrwt>
</event>
<event>
 5    1  0.3217852E-002  0.1249995E+03  0.7818608E-02  0.1235070E+00
          4   -1    0    0  501    0  0.00000000000E+00  0.00000000000E+00  0.12781477761E+02  0.12844417999E+02  0.12700000000E+01 0. -1.
         -4   -1    0    0    0  501 -0.00000000000E+00 -0.00000000000E+00 -0.30480070956E+03  0.30480335537E+03  0.12700000000E+01 0. -1.
         25    2    1    2    0    0  0.00000000000E+00  0.00000000000E+00 -0.29201923179E+03  0.31764777337E+03  0.12499950476E+03 0.  0.
    9000005    1    3    3    0    0  0.13826570068E+02  0.60307306644E+02 -0.16831916702E+03  0.17933345271E+03  0.10000000000E+01 0.  0.
    9000005    1    3    3    0    0 -0.13826570068E+02 -0.60307306644E+02 -0.12370006478E+03  0.13831432066E+03  0.10000000000E+01 0.  0.
<mgrwt>
<rscale>  0 0.12499950E+03</rscale>
<asrwt>0</asrwt>
<pdfrwt beam="1">  1        4 0.19714265E-02 0.12499950E+03</pdfrwt>
<pdfrwt beam="2">  1       -4 0.46897456E-01 0.12499950E+03</pdfrwt>
<totfact> 0.73437576E+03</totfact>
</mgrwt>
</event>
<event>
 5    1  0.3217852E-002  0.1249734E+03  0.7818608E-02  0.1235111E+00
          4   -1    0    0  501    0  0.00000000000E+00  0.00000000000E+00  0.18420390220E+04  0.18420394598E+04  0.12700000000E+01 0. -1.
         -4   -1    0    0    0  501 -0.00000000000E+00 -0.00000000000E+00 -0.19290066048E+01  0.23095381532E+01  0.12700000000E+01 0. -1.
         25    2    1    2    0    0  0.00000000000E+00  0.00000000000E+00  0.18401100154E+04  0.18443489980E+04  0.12497342719E+03 0.  0.
    9000005    1    3    3    0    0 -0.39369900491E+02  0.48398774199E+02  0.96935393025E+03  0.97136011473E+03  0.10000000000E+01 0.  0.
    9000005    1    3    3    0    0  0.39369900491E+02 -0.48398774199E+02  0.87075608518E+03  0.87298888326E+03  0.10000000000E+01 0.  0.
<mgrwt>
<rscale>  0 0.12497343E+03</rscale>
<asrwt>0</asrwt>
<pdfrwt beam="1">  1        4 0.28341839E+00 0.12497343E+03</pdfrwt>
<pdfrwt beam="2">  1       -4 0.32607734E-03 0.12497343E+03</pdfrwt>
<totfact> 0.12039702E+03</totfact>
</mgrwt>
</event>
<event>
 5    1  0.3217852E-002  0.1249985E+03  0.7818608E-02  0.1235072E+00
          4   -1    0    0  501    0  0.00000000000E+00  0.00000000000E+00  0.19340759727E+03  0.19341176692E+03  0.12700000000E+01 0.  1.
         -4   -1    0    0    0  501 -0.00000000000E+00 -0.00000000000E+00 -0.20172151271E+02  0.20212090117E+02  0.12700000000E+01 0.  1.
         25    2    1    2    0    0  0.00000000000E+00  0.00000000000E+00  0.17323544600E+03  0.21362385703E+03  0.12499853017E+03 0.  0.
    9000005    1    3    3    0    0  0.23926873308E+02  0.52696427379E+02  0.46328921208E+02  0.74140256711E+02  0.10000000000E+01 0.  0.
    9000005    1    3    3    0    0 -0.23926873308E+02 -0.52696427379E+02  0.12690652479E+03  0.13948360032E+03  0.10000000000E+01 0.  0.
<mgrwt>
<rscale>  0 0.12499853E+03</rscale>
<asrwt>0</asrwt>
<pdfrwt beam="1">  1        4 0.29758409E-01 0.12499853E+03</pdfrwt>
<pdfrwt beam="2">  1       -4 0.31068008E-02 0.12499853E+03</pdfrwt>
<totfact> 0.87890342E+03</totfact>
</mgrwt>
</event>
<event>
 5    1  0.3217852E-002  0.1250010E+03  0.7818608E-02  0.1235068E+00
          4   -1    0    0  501    0  0.00000000000E+00  0.00000000000E+00  0.83259235578E+03  0.83259332438E+03  0.12700000000E+01 0.  1.
         -4   -1    0    0    0  501 -0.00000000000E+00 -0.00000000000E+00 -0.46048127409E+01  0.47767353264E+01  0.12700000000E+01 0.  1.
         25    2    1    2    0    0  0.00000000000E+00  0.00000000000E+00  0.82798754304E+03  0.83737005971E+03  0.12500098186E+03 0.  0.
    9000005    1    3    3    0    0 -0.26553128654E+02 -0.56414003375E+02  0.38580820260E+03  0.39081527300E+03  0.10000000000E+01 0.  0.
    9000005    1    3    3    0    0  0.26553128654E+02  0.56414003375E+02  0.44217934044E+03  0.44655478671E+03  0.10000000000E+01 0.  0.
<mgrwt>
<rscale>  0 0.12500098E+03</rscale>
<asrwt>0</asrwt>
<pdfrwt beam="1">  1        4 0.12810456E+00 0.12500098E+03</pdfrwt>
<pdfrwt beam="2">  1       -4 0.72173135E-03 0.12500098E+03</pdfrwt>
<totfact> 0.36648980E+03</totfact>
</mgrwt>
</event>
<event>
 5    1  0.3217852E-002  0.1250011E+03  0.7818608E-02  0.1235068E+00
         -4   -1    0    0    0  501 -0.00000000000E+00  0.00000000000E+00  0.15981226175E+03  0.15981730790E+03  0.12700000000E+01 0.  1.
          4   -1    0    0  501    0  0.00000000000E+00 -0.00000000000E+00 -0.24421248015E+02  0.24454248192E+02  0.12700000000E+01 0.  1.
         25    2    1    2    0    0  0.00000000000E+00  0.00000000000E+00  0.13539101374E+03  0.18427155610E+03  0.12500111914E+03 0.  0.
    9000005    1    3    3    0    0 -0.31625630922E+02  0.47878472708E+02  0.31203253166E+02  0.65323592126E+02  0.10000000000E+01 0.  0.
    9000005    1    3    3    0    0  0.31625630922E+02 -0.47878472708E+02  0.10418776057E+03  0.11894796397E+03  0.10000000000E+01 0.  0.
<mgrwt>
<rscale>  0 0.12500112E+03</rscale>
<asrwt>0</asrwt>
<pdfrwt beam="2">  1        4 0.37600417E-02 0.12500112E+03</pdfrwt>
<pdfrwt beam="1">  1       -4 0.24589428E-01 0.12500112E+03</pdfrwt>
<totfact> 0.92851382E+03</totfact>
</mgrwt>
</event>
<event>
 5    1  0.3217852E-002  0.1250015E+03  0.7818608E-02  0.1235067E+00
         -4   -1    0    0    0  501 -0.00000000000E+00  0.00000000000E+00  0.25011940942E+03  0.25012263366E+03  0.12700000000E+01 0.  1.
          4   -1    0    0  501    0  0.00000000000E+00 -0.00000000000E+00 -0.15588776350E+02  0.15640423527E+02  0.12700000000E+01 0.  1.
         25    2    1    2    0    0  0.00000000000E+00  0.00000000000E+00  0.23453063307E+03  0.26576305718E+03  0.12500153886E+03 0.  0.
    9000005    1    3    3    0    0  0.38237987839E+02 -0.36642924556E+02  0.46735299638E+02  0.70640185916E+02  0.10000000000E+01 0.  0.
    9000005    1    3    3    0    0 -0.38237987839E+02  0.36642924556E+02  0.18779533343E+03  0.19512287127E+03  0.10000000000E+01 0.  0.
<mgrwt>
<rscale>  0 0.12500154E+03</rscale>
<asrwt>0</asrwt>
<pdfrwt beam="2">  1        4 0.24024944E-02 0.12500154E+03</pdfrwt>
<pdfrwt beam="1">  1       -4 0.38484127E-01 0.12500154E+03</pdfrwt>
<totfact> 0.80101298E+03</totfact>
</mgrwt>
</event>
<event>
 5    1  0.3217852E-002  0.1250013E+03  0.7818608E-02  0.1235067E+00
         -4   -1    0    0    0  501 -0.00000000000E+00  0.00000000000E+00  0.73883462912E+02  0.73894377268E+02  0.12700000000E+01 0. -1.
          4   -1    0    0  501    0  0.00000000000E+00 -0.00000000000E+00 -0.52849065934E+02  0.52864323226E+02  0.12700000000E+01 0. -1.
         25    2    1    2    0    0  0.00000000000E+00  0.00000000000E+00  0.21034396977E+02  0.12675870049E+03  0.12500128917E+03 0.  0.
    9000005    1    3    3    0    0 -0.18990579867E+02  0.20407166690E+02 -0.46199774051E+02  0.53967709775E+02  0.10000000000E+01 0.  0.
    9000005    1    3    3    0    0  0.18990579867E+02 -0.20407166690E+02  0.67234171028E+02  0.72790990719E+02  0.10000000000E+01 0.  0.
<mgrwt>
<rscale>  0 0.12500129E+03</rscale>
<asrwt>0</asrwt>
<pdfrwt beam="2">  1        4 0.81326388E-02 0.12500129E+03</pdfrwt>
<pdfrwt beam="1">  1       -4 0.11368700E-01 0.12500129E+03</pdfrwt>
<totfact> 0.10414089E+04</totfact>
</mgrwt>
</event>
<event>
 5    1  0.3217852E-002  0.1249976E+03  0.7818608E-02  0.1235073E+00
          4   -1    0    0  501    0  0.00000000000E+00  0.00000000000E+00  0.38652498444E+03  0.38652707084E+03  0.12700000000E+01 0. -1.
         -4   -1    0    0    0  501 -0.00000000000E+00 -0.00000000000E+00 -0.10063670804E+02  0.10143489048E+02  0.12700000000E+01 0. -1.
         25    2    1    2    0    0  0.00000000000E+00  0.00000000000E+00  0.37646131363E+03  0.39667055989E+03  0.12499764966E+03 0.  0.
    9000005    1    3    3    0    0  0.27157129717E+02 -0.10011293590E+02  0.36398700557E+03  0.36513733843E+03  0.10000000000E+01 0.  0.
    9000005    1    3    3    0    0 -0.27157129717E+02  0.10011293590E+02  0.12474308061E+02  0.31533221456E+02  0.10000000000E+01 0.  0.
<mgrwt>
<rscale>  0 0.12499765E+03</rscale>
<asrwt>0</asrwt>
<pdfrwt beam="1">  1        4 0.59471678E-01 0.12499765E+03</pdfrwt>
<pdfrwt beam="2">  1       -4 0.15545575E-02 0.12499765E+03</pdfrwt>
<totfact> 0.64881267E+03</totfact>
</mgrwt>
</event>
<event>
 5    1  0.3217852E-002  0.1250016E+03  0.7818608E-02  0.1235067E+00
          4   -1    0    0  501    0  0.00000000000E+00  0.00000000000E+00  0.81775262131E+02  0.81785123321E+02  0.12700000000E+01 0.  1.
         -4   -1    0    0    0  501 -0.00000000000E+00 -0.00000000000E+00 -0.47748114901E+02  0.47765001587E+02  0.12700000000E+01 0.  1.
         25    2    1    2    0    0  0.00000000000E+00  0.00000000000E+00  0.34027147230E+02  0.12955012491E+03  0.12500155245E+03 0.  0.
    9000005    1    3    3    0    0  0.34825920542E+02  0.20560562592E+02 -0.32362088183E+02  0.51806237339E+02  0.10000000000E+01 0.  0.
    9000005    1    3    3    0    0 -0.34825920542E+02 -0.20560562592E+02  0.66389235413E+02  0.77743887569E+02  0.10000000000E+01 0.  0.
<mgrwt>
<rscale>  0 0.12500155E+03</rscale>
<asrwt>0</asrwt>
<pdfrwt beam="1">  1        4 0.12582867E-01 0.12500155E+03</pdfrwt>
<pdfrwt beam="2">  1       -4 0.73479214E-02 0.12500155E+03</pdfrwt>
<totfact> 0.10353778E+04</totfact>
</mgrwt>
</event>
<event>
 5    1  0.3217852E-002  0.1250011E+03  0.7818608E-02  0.1235068E+00
         -4   -1    0    0    0  501 -0.00000000000E+00  0.00000000000E+00  0.23467332293E+02  0.23501671961E+02  0.12700000000E+01 0.  1.
          4   -1    0    0  501    0  0.00000000000E+00 -0.00000000000E+00 -0.16629934660E+03  0.16630419592E+03  0.12700000000E+01 0.  1.
         25    2    1    2    0    0  0.00000000000E+00  0.00000000000E+00 -0.14283201431E+03  0.18980586788E+03  0.12500113267E+03 0.  0.
    9000005    1    3    3    0    0  0.49279876618E+02 -0.53768574555E+01 -0.13637600158E+02  0.51423739398E+02  0.10000000000E+01 0.  0.
    9000005    1    3    3    0    0 -0.49279876618E+02  0.53768574555E+01 -0.12919441415E+03  0.13838212848E+03  0.10000000000E+01 0.  0.
<mgrwt>
<rscale>  0 0.12500113E+03</rscale>
<asrwt>0</asrwt>
<pdfrwt beam="2">  1        4 0.25587529E-01 0.12500113E+03</pdfrwt>
<pdfrwt beam="1">  1       -4 0.36133734E-02 0.12500113E+03</pdfrwt>
<totfact> 0.91878773E+03</totfact>
</mgrwt>
</event>
<event>
 5    1  0.3217852E-002  0.1250008E+03  0.7818608E-02  0.1235068E+00
         -4   -1    0    0    0  501 -0.00000000000E+00  0.00000000000E+00  0.70895553692E+02  0.70906927964E+02  0.12700000000E+01 0. -1.
          4   -1    0    0  501    0  0.00000000000E+00 -0.00000000000E+00 -0.55076229572E+02  0.55090870059E+02  0.12700000000E+01 0. -1.
         25    2    1    2    0    0  0.00000000000E+00  0.00000000000E+00  0.15819324120E+02  0.12599779802E+03  0.12500077636E+03 0.  0.
    9000005    1    3    3    0    0 -0.33401376344E+02  0.96410530627E+01 -0.44434264137E+02  0.56426994207E+02  0.10000000000E+01 0.  0.
    9000005    1    3    3    0    0  0.33401376344E+02 -0.96410530627E+01  0.60253588257E+02  0.69570803816E+02  0.10000000000E+01 0.  0.
<mgrwt>
<rscale>  0 0.12500078E+03</rscale>
<asrwt>0</asrwt>
<pdfrwt beam="2">  1        4 0.84752673E-02 0.12500078E+03</pdfrwt>
<pdfrwt beam="1">  1       -4 0.10909009E-01 0.12500078E+03</pdfrwt>
<totfact> 0.10430822E+04</totfact>
</mgrwt>
</event>
<event>
 5    1  0.3217852E-002  0.1250002E+03  0.7818608E-02  0.1235069E+00
         -4   -1    0    0    0  501 -0.00000000000E+00  0.00000000000E+00  0.13912857497E+02  0.13970701619E+02  0.12700000000E+01 0. -1.
          4   -1    0    0  501    0  0.00000000000E+00 -0.00000000000E+00 -0.28012485896E+03  0.28012773784E+03  0.12700000000E+01 0. -1.
         25    2    1    2    0    0  0.00000000000E+00  0.00000000000E+00 -0.26621200146E+03  0.29409843946E+03  0.12500024948E+03 0.  0.
    9000005    1    3    3    0    0 -0.31287461212E+02  0.39963403324E+02 -0.21888701549E+03  0.22469647168E+03  0.10000000000E+01 0.  0.
    9000005    1    3    3    0    0  0.31287461212E+02 -0.39963403324E+02 -0.47324985970E+02  0.69401967777E+02  0.10000000000E+01 0.  0.
<mgrwt>
<rscale>  0 0.12500025E+03</rscale>
<asrwt>0</asrwt>
<pdfrwt beam="2">  1        4 0.43100799E-01 0.12500025E+03</pdfrwt>
<pdfrwt beam="1">  1       -4 0.21451108E-02 0.12500025E+03</pdfrwt>
<totfact> 0.76344712E+03</totfact>
</mgrwt>
</event>
<event>
 5    1  0.3217852E-002  0.1250031E+03  0.7818608E-02  0.1235064E+00
          4   -1    0    0  501    0  0.00000000000E+00  0.00000000000E+00  0.39975128780E+02  0.39995297486E+02  0.12700000000E+01 0. -1.
         -4   -1    0    0    0  501 -0.00000000000E+00 -0.00000000000E+00 -0.97672962641E+02  0.97681218927E+02  0.12700000000E+01 0. -1.
         25    2    1    2    0    0  0.00000000000E+00  0.00000000000E+00 -0.57697833861E+02  0.13767651641E+03  0.12500313252E+03 0.  0.
    9000005    1    3    3    0    0  0.29559384559E+01  0.59570261998E+02 -0.49397697505E+02  0.77449894806E+02  0.10000000000E+01 0.  0.
    9000005    1    3    3    0    0 -0.29559384559E+01 -0.59570261998E+02 -0.83001363561E+01  0.60226621607E+02  0.10000000000E+01 0.  0.
<mgrwt>
<rscale>  0 0.12500313E+03</rscale>
<asrwt>0</asrwt>
<pdfrwt beam="1">  1        4 0.61522064E-02 0.12500313E+03</pdfrwt>
<pdfrwt beam="2">  1       -4 0.15028796E-01 0.12500313E+03</pdfrwt>
<totfact> 0.10181240E+04</totfact>
</mgrwt>
</event>
<event>
 5    1  0.3217852E-002  0.1249940E+03  0.7818608E-02  0.1235079E+00
          4   -1    0    0  501    0  0.00000000000E+00  0.00000000000E+00  0.34447796546E+03  0.34448030653E+03  0.12700000000E+01 0. -1.
         -4   -1    0    0    0  501 -0.00000000000E+00 -0.00000000000E+00 -0.11300580720E+02  0.11371720390E+02  0.12700000000E+01 0. -1.
         25    2    1    2    0    0  0.00000000000E+00  0.00000000000E+00  0.33317738474E+03  0.35585202692E+03  0.12499398130E+03 0.  0.
    9000005    1    3    3    0    0 -0.34761495737E+01 -0.60077561065E+02  0.21452219501E+03  0.22280522685E+03  0.10000000000E+01 0.  0.
    9000005    1    3    3    0    0  0.34761495737E+01  0.60077561065E+02  0.11865518973E+03  0.13304680007E+03  0.10000000000E+01 0.  0.
<mgrwt>
<rscale>  0 0.12499398E+03</rscale>
<asrwt>0</asrwt>
<pdfrwt beam="1">  1        4 0.53002253E-01 0.12499398E+03</pdfrwt>
<pdfrwt beam="2">  1       -4 0.17442036E-02 0.12499398E+03</pdfrwt>
<totfact> 0.69094728E+03</totfact>
</mgrwt>
</event>
<event>
 5    1  0.3217852E-002  0.1249987E+03  0.7818608E-02  0.1235071E+00
          4   -1    0    0  501    0  0.00000000000E+00  0.00000000000E+00  0.94641093001E+01  0.95489405090E+01  0.12700000000E+01 0. -1.
         -4   -1    0    0    0  501 -0.00000000000E+00 -0.00000000000E+00 -0.41080730196E+03  0.41080926504E+03  0.12700000000E+01 0. -1.
         25    2    1    2    0    0  0.00000000000E+00  0.00000000000E+00 -0.40134319266E+03  0.42035820555E+03  0.12499865071E+03 0.  0.
    9000005    1    3    3    0    0  0.54986845476E+02  0.27430582555E+02 -0.23889281295E+03  0.24667137270E+03  0.10000000000E+01 0.  0.
    9000005    1    3    3    0    0 -0.54986845476E+02 -0.27430582555E+02 -0.16245037971E+03  0.17368683285E+03  0.10000000000E+01 0.  0.
<mgrwt>
<rscale>  0 0.12499865E+03</rscale>
<asrwt>0</asrwt>
<pdfrwt beam="1">  1        4 0.14626936E-02 0.12499865E+03</pdfrwt>
<pdfrwt beam="2">  1       -4 0.63207786E-01 0.12499865E+03</pdfrwt>
<totfact> 0.62621662E+03</totfact>
</mgrwt>
</event>
<event>
 5    1  0.3217852E-002  0.1249962E+03  0.7818608E-02  0.1235075E+00
         -4   -1    0    0    0  501 -0.00000000000E+00  0.00000000000E+00  0.52005412731E+02  0.52020917460E+02  0.12700000000E+01 0. -1.
          4   -1    0    0  501    0  0.00000000000E+00 -0.00000000000E+00 -0.75075786285E+02  0.75086527329E+02  0.12700000000E+01 0. -1.
         25    2    1    2    0    0  0.00000000000E+00  0.00000000000E+00 -0.23070373554E+02  0.12710744479E+03  0.12499624148E+03 0.  0.
    9000005    1    3    3    0    0  0.37937727908E+02  0.48277424253E+02 -0.23351879153E+02  0.65698486674E+02  0.10000000000E+01 0.  0.
    9000005    1    3    3    0    0 -0.37937727908E+02 -0.48277424253E+02  0.28150559954E+00  0.61408958115E+02  0.10000000000E+01 0.  0.
<mgrwt>
<rscale>  0 0.12499624E+03</rscale>
<asrwt>0</asrwt>
<pdfrwt beam="2">  1        4 0.11552140E-01 0.12499624E+03</pdfrwt>
<pdfrwt beam="1">  1       -4 0.80028516E-02 0.12499624E+03</pdfrwt>
<totfact> 0.10407695E+04</totfact>
</mgrwt>
</event>
<event>
 5    1  0.3217852E-002  0.1250009E+03  0.7818608E-02  0.1235068E+00
          4   -1    0    0  501    0  0.00000000000E+00  0.00000000000E+00  0.47513981993E+02  0.47530951861E+02  0.12700000000E+01 0. -1.
         -4   -1    0    0    0  501 -0.00000000000E+00 -0.00000000000E+00 -0.82177319761E+02  0.82187132710E+02  0.12700000000E+01 0. -1.
         25    2    1    2    0    0  0.00000000000E+00  0.00000000000E+00 -0.34663337768E+02  0.12971808457E+03  0.12500093791E+03 0.  0.
    9000005    1    3    3    0    0 -0.31323119137E+02 -0.53963039387E+02 -0.13712777031E+02  0.63892000018E+02  0.10000000000E+01 0.  0.
    9000005    1    3    3    0    0  0.31323119137E+02  0.53963039387E+02 -0.20950560737E+02  0.65826084553E+02  0.10000000000E+01 0.  0.
<mgrwt>
<rscale>  0 0.12500094E+03</rscale>
<asrwt>0</asrwt>
<pdfrwt beam="1">  1        4 0.73119036E-02 0.12500094E+03</pdfrwt>
<pdfrwt beam="2">  1       -4 0.12644725E-01 0.12500094E+03</pdfrwt>
<totfact> 0.10350323E+04</totfact>
</mgrwt>
</event>
<event>
 5    1  0.3217852E-002  0.1249942E+03  0.7818608E-02  0.1235078E+00
         -4   -1    0    0    0  501 -0.00000000000E+00  0.00000000000E+00  0.72291599843E+02  0.72302754498E+02  0.12700000000E+01 0.  1.
          4   -1    0    0  501    0  0.00000000000E+00 -0.00000000000E+00 -0.54006834720E+02  0.54021765026E+02  0.12700000000E+01 0.  1.
         25    2    1    2    0    0  0.00000000000E+00  0.00000000000E+00  0.18284765123E+02  0.12632451952E+03  0.12499420625E+03 0.  0.
    9000005    1    3    3    0    0  0.10606948404E+01 -0.30914253886E+02  0.64016404852E+02  0.71104966472E+02  0.10000000000E+01 0.  0.
    9000005    1    3    3    0    0 -0.10606948404E+01  0.30914253886E+02 -0.45731639729E+02  0.55219553051E+02  0.10000000000E+01 0.  0.
<mgrwt>
<rscale>  0 0.12499421E+03</rscale>
<asrwt>0</asrwt>
<pdfrwt beam="2">  1        4 0.83107504E-02 0.12499421E+03</pdfrwt>
<pdfrwt beam="1">  1       -4 0.11123791E-01 0.12499421E+03</pdfrwt>
<totfact> 0.10425221E+04</totfact>
</mgrwt>
</event>
<event>
 5    1  0.3217852E-002  0.1250008E+03  0.7818608E-02  0.1235068E+00
          4   -1    0    0  501    0  0.00000000000E+00  0.00000000000E+00  0.64239140344E+01  0.65482495005E+01  0.12700000000E+01 0.  1.
         -4   -1    0    0    0  501 -0.00000000000E+00 -0.00000000000E+00 -0.60213360167E+03  0.60213494099E+03  0.12700000000E+01 0.  1.
         25    2    1    2    0    0  0.00000000000E+00  0.00000000000E+00 -0.59570968764E+03  0.60868319049E+03  0.12500077777E+03 0.  0.
    9000005    1    3    3    0    0  0.37739564409E+02  0.32873211299E+02 -0.48007688291E+03  0.48267974502E+03  0.10000000000E+01 0.  0.
    9000005    1    3    3    0    0 -0.37739564409E+02 -0.32873211299E+02 -0.11563280473E+03  0.12600344548E+03  0.10000000000E+01 0.  0.
<mgrwt>
<rscale>  0 0.12500078E+03</rscale>
<asrwt>0</asrwt>
<pdfrwt beam="1">  1        4 0.99796224E-03 0.12500078E+03</pdfrwt>
<pdfrwt beam="2">  1       -4 0.92645562E-01 0.12500078E+03</pdfrwt>
<totfact> 0.48323243E+03</totfact>
</mgrwt>
</event>
<event>
 5    1  0.3217852E-002  0.1250085E+03  0.7818608E-02  0.1235056E+00
          4   -1    0    0  501    0  0.00000000000E+00  0.00000000000E+00  0.18807037979E+02  0.18849869431E+02  0.12700000000E+01 0. -1.
         -4   -1    0    0    0  501 -0.00000000000E+00 -0.00000000000E+00 -0.20744876617E+03  0.20745265360E+03  0.12700000000E+01 0. -1.
         25    2    1    2    0    0  0.00000000000E+00  0.00000000000E+00 -0.18864172820E+03  0.22630252303E+03  0.12500852097E+03 0.  0.
    9000005    1    3    3    0    0  0.57709204864E+02  0.13356813856E+02 -0.13039194287E+03  0.14321946644E+03  0.10000000000E+01 0.  0.
    9000005    1    3    3    0    0 -0.57709204864E+02 -0.13356813856E+02 -0.58249785324E+02  0.83083056592E+02  0.10000000000E+01 0.  0.
<mgrwt>
<rscale>  0 0.12500852E+03</rscale>
<asrwt>0</asrwt>
<pdfrwt beam="1">  1        4 0.28969844E-02 0.12500852E+03</pdfrwt>
<pdfrwt beam="2">  1       -4 0.31918787E-01 0.12500852E+03</pdfrwt>
<totfact> 0.85864271E+03</totfact>
</mgrwt>
</event>
<event>
 5    1  0.3217852E-002  0.1250018E+03  0.7818608E-02  0.1235067E+00
         -4   -1    0    0    0  501 -0.00000000000E+00  0.00000000000E+00  0.27232646282E+03  0.27232942414E+03  0.12700000000E+01 0.  1.
          4   -1    0    0  501    0  0.00000000000E+00 -0.00000000000E+00 -0.14313247222E+02  0.14369479671E+02  0.12700000000E+01 0.  1.
         25    2    1    2    0    0  0.00000000000E+00  0.00000000000E+00  0.25801321560E+03  0.28669890381E+03  0.12500176808E+03 0.  0.
    9000005    1    3    3    0    0 -0.34425180105E+02 -0.45713937628E+02  0.71415744535E+02  0.91520848369E+02  0.10000000000E+01 0.  0.
    9000005    1    3    3    0    0  0.34425180105E+02  0.45713937628E+02  0.18659747106E+03  0.19517805544E+03  0.10000000000E+01 0.  0.
<mgrwt>
<rscale>  0 0.12500177E+03</rscale>
<asrwt>0</asrwt>
<pdfrwt beam="2">  1        4 0.22065914E-02 0.12500177E+03</pdfrwt>
<pdfrwt beam="1">  1       -4 0.41900932E-01 0.12500177E+03</pdfrwt>
<totfact> 0.77295145E+03</totfact>
</mgrwt>
</event>
<event>
 5    1  0.3217852E-002  0.1250011E+03  0.7818608E-02  0.1235068E+00
         -4   -1    0    0    0  501 -0.00000000000E+00  0.00000000000E+00  0.16060548963E+03  0.16061051086E+03  0.12700000000E+01 0. -1.
          4   -1    0    0  501    0  0.00000000000E+00 -0.00000000000E+00 -0.24300475771E+02  0.24333639734E+02  0.12700000000E+01 0. -1.
         25    2    1    2    0    0  0.00000000000E+00  0.00000000000E+00  0.13630501386E+03  0.18494415060E+03  0.12500112814E+03 0.  0.
    9000005    1    3    3    0    0  0.11059028133E+00  0.57919158681E+02  0.10287221443E+03  0.11806072029E+03  0.10000000000E+01 0.  0.
    9000005    1    3    3    0    0 -0.11059028133E+00 -0.57919158681E+02  0.33432799430E+02  0.66883430312E+02  0.10000000000E+01 0.  0.
<mgrwt>
<rscale>  0 0.12500113E+03</rscale>
<asrwt>0</asrwt>
<pdfrwt beam="2">  1        4 0.37414721E-02 0.12500113E+03</pdfrwt>
<pdfrwt beam="1">  1       -4 0.24711474E-01 0.12500113E+03</pdfrwt>
<totfact> 0.92732190E+03</totfact>
</mgrwt>
</event>
<event>
 5    1  0.3217852E-002  0.1250020E+03  0.7818608E-02  0.1235066E+00
          4   -1    0    0  501    0  0.00000000000E+00  0.00000000000E+00  0.45692189519E+02  0.45709835736E+02  0.12700000000E+01 0. -1.
         -4   -1    0    0    0  501 -0.00000000000E+00 -0.00000000000E+00 -0.85454376276E+02  0.85463812954E+02  0.12700000000E+01 0. -1.
         25    2    1    2    0    0  0.00000000000E+00  0.00000000000E+00 -0.39762186757E+02  0.13117364869E+03  0.12500197844E+03 0.  0.
    9000005    1    3    3    0    0 -0.15562569311E+02  0.57074516586E+02 -0.41017021426E+02  0.71993680651E+02  0.10000000000E+01 0.  0.
    9000005    1    3    3    0    0  0.15562569311E+02 -0.57074516586E+02  0.12548346685E+01  0.59179968039E+02  0.10000000000E+01 0.  0.
<mgrwt>
<rscale>  0 0.12500198E+03</rscale>
<asrwt>0</asrwt>
<pdfrwt beam="1">  1        4 0.70316509E-02 0.12500198E+03</pdfrwt>
<pdfrwt beam="2">  1       -4 0.13148910E-01 0.12500198E+03</pdfrwt>
<totfact> 0.10318907E+04</totfact>
</mgrwt>
</event>
<event>
 5    1  0.3217852E-002  0.1249989E+03  0.7818608E-02  0.1235071E+00
          4   -1    0    0  501    0  0.00000000000E+00  0.00000000000E+00  0.24047006720E+03  0.24047342082E+03  0.12700000000E+01 0.  1.
         -4   -1    0    0    0  501 -0.00000000000E+00 -0.00000000000E+00 -0.16215655629E+02  0.16265312400E+02  0.12700000000E+01 0.  1.
         25    2    1    2    0    0  0.00000000000E+00  0.00000000000E+00  0.22425441157E+03  0.25673873322E+03  0.12499894410E+03 0.  0.
    9000005    1    3    3    0    0 -0.46577400444E+02 -0.41479263470E+02  0.10411939792E+03  0.12137476077E+03  0.10000000000E+01 0.  0.
    9000005    1    3    3    0    0  0.46577400444E+02  0.41479263470E+02  0.12013501365E+03  0.13536397244E+03  0.10000000000E+01 0.  0.
<mgrwt>
<rscale>  0 0.12499894E+03</rscale>
<asrwt>0</asrwt>
<pdfrwt beam="1">  1        4 0.36999468E-01 0.12499894E+03</pdfrwt>
<pdfrwt beam="2">  1       -4 0.24987943E-02 0.12499894E+03</pdfrwt>
<totfact> 0.81367839E+03</totfact>
</mgrwt>
</event>
<event>
 5    1  0.3217852E-002  0.1249999E+03  0.7818608E-02  0.1235069E+00
          4   -1    0    0  501    0  0.00000000000E+00  0.00000000000E+00  0.53038407363E+02  0.53053610204E+02  0.12700000000E+01 0. -1.
         -4   -1    0    0    0  501 -0.00000000000E+00 -0.00000000000E+00 -0.73618119903E+02  0.73629073592E+02  0.12700000000E+01 0. -1.
         25    2    1    2    0    0  0.00000000000E+00  0.00000000000E+00 -0.20579712540E+02  0.12668268380E+03  0.12499991122E+03 0.  0.
    9000005    1    3    3    0    0 -0.44918085834E+02  0.14260002078E+02  0.31302394417E+02  0.56584644476E+02  0.10000000000E+01 0.  0.
    9000005    1    3    3    0    0  0.44918085834E+02 -0.14260002078E+02 -0.51882106957E+02  0.70098039320E+02  0.10000000000E+01 0.  0.
<mgrwt>
<rscale>  0 0.12499991E+03</rscale>
<asrwt>0</asrwt>
<pdfrwt beam="1">  1        4 0.81617670E-02 0.12499991E+03</pdfrwt>
<pdfrwt beam="2">  1       -4 0.11327877E-01 0.12499991E+03</pdfrwt>
<totfact> 0.10416068E+04</totfact>
</mgrwt>
</event>
<event>
 5    1  0.3217852E-002  0.1249992E+03  0.7818608E-02  0.1235070E+00
         -4   -1    0    0    0  501 -0.00000000000E+00  0.00000000000E+00  0.30295792439E+02  0.30322399963E+02  0.12700000000E+01 0.  1.
          4   -1    0    0  501    0  0.00000000000E+00 -0.00000000000E+00 -0.12884913769E+03  0.12885539641E+03  0.12700000000E+01 0.  1.
         25    2    1    2    0    0  0.00000000000E+00  0.00000000000E+00 -0.98553345249E+02  0.15917779637E+03  0.12499923599E+03 0.  0.
    9000005    1    3    3    0    0  0.55305988917E+02 -0.15027883235E+02 -0.17552857412E+02  0.59947414356E+02  0.10000000000E+01 0.  0.
    9000005    1    3    3    0    0 -0.55305988917E+02  0.15027883235E+02 -0.81000487838E+02  0.99230382014E+02  0.10000000000E+01 0.  0.
<mgrwt>
<rscale>  0 0.12499924E+03</rscale>
<asrwt>0</asrwt>
<pdfrwt beam="2">  1        4 0.19825472E-01 0.12499924E+03</pdfrwt>
<pdfrwt beam="1">  1       -4 0.46634194E-02 0.12499924E+03</pdfrwt>
<totfact> 0.97503208E+03</totfact>
</mgrwt>
</event>
<event>
 5    1  0.3217852E-002  0.1249994E+03  0.7818608E-02  0.1235070E+00
         -4   -1    0    0    0  501 -0.00000000000E+00  0.00000000000E+00  0.48069496750E+02  0.48086270575E+02  0.12700000000E+01 0. -1.
          4   -1    0    0  501    0  0.00000000000E+00 -0.00000000000E+00 -0.81225805172E+02  0.81235733060E+02  0.12700000000E+01 0. -1.
         25    2    1    2    0    0  0.00000000000E+00  0.00000000000E+00 -0.33156308422E+02  0.12932200364E+03  0.12499935934E+03 0.  0.
    9000005    1    3    3    0    0 -0.18897159594E+02  0.25742076255E+02 -0.72152150401E+02  0.78909378011E+02  0.10000000000E+01 0.  0.
    9000005    1    3    3    0    0  0.18897159594E+02 -0.25742076255E+02  0.38995841979E+02  0.50412625624E+02  0.10000000000E+01 0.  0.
<mgrwt>
<rscale>  0 0.12499936E+03</rscale>
<asrwt>0</asrwt>
<pdfrwt beam="2">  1        4 0.12498332E-01 0.12499936E+03</pdfrwt>
<pdfrwt beam="1">  1       -4 0.73973612E-02 0.12499936E+03</pdfrwt>
<totfact> 0.10359182E+04</totfact>
</mgrwt>
</event>
<event>
 5    1  0.3217852E-002  0.1249874E+03  0.7818608E-02  0.1235089E+00
          4   -1    0    0  501    0  0.00000000000E+00  0.00000000000E+00  0.26321898337E+02  0.26352518515E+02  0.12700000000E+01 0. -1.
         -4   -1    0    0    0  501 -0.00000000000E+00 -0.00000000000E+00 -0.14825342299E+03  0.14825886256E+03  0.12700000000E+01 0. -1.
         25    2    1    2    0    0  0.00000000000E+00  0.00000000000E+00 -0.12193152465E+03  0.17461138108E+03  0.12498735015E+03 0.  0.
    9000005    1    3    3    0    0 -0.47465539273E+02  0.41544155930E+01 -0.44899970912E+01  0.47868535191E+02  0.10000000000E+01 0.  0.
    9000005    1    3    3    0    0  0.47465539273E+02 -0.41544155930E+01 -0.11744152756E+03  0.12674284588E+03  0.10000000000E+01 0.  0.
<mgrwt>
<rscale>  0 0.12498735E+03</rscale>
<asrwt>0</asrwt>
<pdfrwt beam="1">  1        4 0.40522967E-02 0.12498735E+03</pdfrwt>
<pdfrwt beam="2">  1       -4 0.22810992E-01 0.12498735E+03</pdfrwt>
<totfact> 0.94622914E+03</totfact>
</mgrwt>
</event>
<event>
 5    1  0.3217852E-002  0.1249998E+03  0.7818608E-02  0.1235070E+00
         -4   -1    0    0    0  501 -0.00000000000E+00  0.00000000000E+00  0.18182095443E+02  0.18226395548E+02  0.12700000000E+01 0. -1.
          4   -1    0    0  501    0  0.00000000000E+00 -0.00000000000E+00 -0.21453235445E+03  0.21453611353E+03  0.12700000000E+01 0. -1.
         25    2    1    2    0    0  0.00000000000E+00  0.00000000000E+00 -0.19635025901E+03  0.23276250907E+03  0.12499984567E+03 0.  0.
    9000005    1    3    3    0    0 -0.53839087179E+02  0.12856027927E+02 -0.15218622948E+03  0.16194311719E+03  0.10000000000E+01 0.  0.
    9000005    1    3    3    0    0  0.53839087179E+02 -0.12856027927E+02 -0.44164029530E+02  0.70819391883E+02  0.10000000000E+01 0.  0.
<mgrwt>
<rscale>  0 0.12499985E+03</rscale>
<asrwt>0</asrwt>
<pdfrwt beam="2">  1        4 0.33008673E-01 0.12499985E+03</pdfrwt>
<pdfrwt beam="1">  1       -4 0.28009425E-02 0.12499985E+03</pdfrwt>
<totfact> 0.84887501E+03</totfact>
</mgrwt>
</event>
<event>
 5    1  0.3217852E-002  0.1249980E+03  0.7818608E-02  0.1235072E+00
         -4   -1    0    0    0  501 -0.00000000000E+00  0.00000000000E+00  0.45466765098E+02  0.45484498771E+02  0.12700000000E+01 0. -1.
          4   -1    0    0  501    0  0.00000000000E+00 -0.00000000000E+00 -0.85872501346E+02  0.85881892081E+02  0.12700000000E+01 0. -1.
         25    2    1    2    0    0  0.00000000000E+00  0.00000000000E+00 -0.40405736249E+02  0.13136639085E+03  0.12499802048E+03 0.  0.
    9000005    1    3    3    0    0  0.11727065498E+02 -0.42775484359E+02 -0.66466779711E+02  0.79913071099E+02  0.10000000000E+01 0.  0.
    9000005    1    3    3    0    0 -0.11727065498E+02  0.42775484359E+02  0.26061043462E+02  0.51453319754E+02  0.10000000000E+01 0.  0.
<mgrwt>
<rscale>  0 0.12499802E+03</rscale>
<asrwt>0</asrwt>
<pdfrwt beam="2">  1        4 0.13213241E-01 0.12499802E+03</pdfrwt>
<pdfrwt beam="1">  1       -4 0.69969734E-02 0.12499802E+03</pdfrwt>
<totfact> 0.10315702E+04</totfact>
</mgrwt>
</event>
<event>
 5    1  0.3217852E-002  0.1249757E+03  0.7818608E-02  0.1235107E+00
         -4   -1    0    0    0  501 -0.00000000000E+00  0.00000000000E+00  0.27451204856E+02  0.27480566735E+02  0.12700000000E+01 0. -1.
          4   -1    0    0  501    0  0.00000000000E+00 -0.00000000000E+00 -0.14213433107E+03  0.14214000482E+03  0.12700000000E+01 0. -1.
         25    2    1    2    0    0  0.00000000000E+00  0.00000000000E+00 -0.11468312622E+03  0.16962057155E+03  0.12497567305E+03 0.  0.
    9000005    1    3    3    0    0  0.52563732151E+02  0.33558324777E+02 -0.52151584730E+02  0.81301260072E+02  0.10000000000E+01 0.  0.
    9000005    1    3    3    0    0 -0.52563732151E+02 -0.33558324777E+02 -0.62531541486E+02  0.88319311479E+02  0.10000000000E+01 0.  0.
<mgrwt>
<rscale>  0 0.12497567E+03</rscale>
<asrwt>0</asrwt>
<pdfrwt beam="2">  1        4 0.21869515E-01 0.12497567E+03</pdfrwt>
<pdfrwt beam="1">  1       -4 0.42259574E-02 0.12497567E+03</pdfrwt>
<totfact> 0.95571581E+03</totfact>
</mgrwt>
</event>
<event>
 5    1  0.3217852E-002  0.1249979E+03  0.7818608E-02  0.1235073E+00
          4   -1    0    0  501    0  0.00000000000E+00  0.00000000000E+00  0.58525888313E+03  0.58526026106E+03  0.12700000000E+01 0. -1.
         -4   -1    0    0    0  501 -0.00000000000E+00 -0.00000000000E+00 -0.66123538987E+01  0.67332105330E+01  0.12700000000E+01 0. -1.
         25    2    1    2    0    0  0.00000000000E+00  0.00000000000E+00  0.57864652923E+03  0.59199347159E+03  0.12499785848E+03 0.  0.
    9000005    1    3    3    0    0 -0.41137065371E+02  0.45033813271E+02  0.35370777413E+03  0.35892964765E+03  0.10000000000E+01 0.  0.
    9000005    1    3    3    0    0  0.41137065371E+02 -0.45033813271E+02  0.22493875510E+03  0.23306382394E+03  0.10000000000E+01 0.  0.
<mgrwt>
<rscale>  0 0.12499786E+03</rscale>
<asrwt>0</asrwt>
<pdfrwt beam="1">  1        4 0.90049214E-01 0.12499786E+03</pdfrwt>
<pdfrwt beam="2">  1       -4 0.10266881E-02 0.12499786E+03</pdfrwt>
<totfact> 0.49379263E+03</totfact>
</mgrwt>
</event>
<event>
 5    1  0.3217852E-002  0.1250040E+03  0.7818608E-02  0.1235063E+00
         -4   -1    0    0    0  501 -0.00000000000E+00  0.00000000000E+00  0.83919374280E+02  0.83928983549E+02  0.12700000000E+01 0. -1.
          4   -1    0    0  501    0  0.00000000000E+00 -0.00000000000E+00 -0.46529706299E+02  0.46547035010E+02  0.12700000000E+01 0. -1.
         25    2    1    2    0    0  0.00000000000E+00  0.00000000000E+00  0.37389667981E+02  0.13047601856E+03  0.12500401652E+03 0.  0.
    9000005    1    3    3    0    0 -0.55740564152E+02 -0.22353299715E+01  0.48096944756E+02  0.73663581822E+02  0.10000000000E+01 0.  0.
    9000005    1    3    3    0    0  0.55740564152E+02  0.22353299715E+01 -0.10707276774E+02  0.56812436737E+02  0.10000000000E+01 0.  0.
<mgrwt>
<rscale>  0 0.12500402E+03</rscale>
<asrwt>0</asrwt>
<pdfrwt beam="2">  1        4 0.71604886E-02 0.12500402E+03</pdfrwt>
<pdfrwt beam="1">  1       -4 0.12912745E-01 0.12500402E+03</pdfrwt>
<totfact> 0.10333398E+04</totfact>
</mgrwt>
</event>
<event>
 5    1  0.3217852E-002  0.1249983E+03  0.7818608E-02  0.1235072E+00
         -4   -1    0    0    0  501 -0.00000000000E+00  0.00000000000E+00  0.88862184425E+03  0.88862275178E+03  0.12700000000E+01 0. -1.
          4   -1    0    0  501    0  0.00000000000E+00 -0.00000000000E+00 -0.43030743180E+01  0.44865742595E+01  0.12700000000E+01 0. -1.
         25    2    1    2    0    0  0.00000000000E+00  0.00000000000E+00  0.88431876993E+03  0.89310932604E+03  0.12499832560E+03 0.  0.
    9000005    1    3    3    0    0 -0.50436915308E+02  0.17876879742E+02  0.21155497317E+03  0.21822000808E+03  0.10000000000E+01 0.  0.
    9000005    1    3    3    0    0  0.50436915308E+02 -0.17876879742E+02  0.67276379677E+03  0.67488931796E+03  0.10000000000E+01 0.  0.
<mgrwt>
<rscale>  0 0.12499833E+03</rscale>
<asrwt>0</asrwt>
<pdfrwt beam="2">  1        4 0.67619695E-03 0.12499833E+03</pdfrwt>
<pdfrwt beam="1">  1       -4 0.13672517E+00 0.12499833E+03</pdfrwt>
<totfact> 0.34426385E+03</totfact>
</mgrwt>
</event>
<event>
 5    1  0.3217852E-002  0.1250003E+03  0.7818608E-02  0.1235069E+00
          4   -1    0    0  501    0  0.00000000000E+00  0.00000000000E+00  0.32037249213E+02  0.32062411593E+02  0.12700000000E+01 0. -1.
         -4   -1    0    0    0  501 -0.00000000000E+00 -0.00000000000E+00 -0.12185264825E+03  0.12185926631E+03  0.12700000000E+01 0. -1.
         25    2    1    2    0    0  0.00000000000E+00  0.00000000000E+00 -0.89815399038E+02  0.15392167790E+03  0.12500030810E+03 0.  0.
    9000005    1    3    3    0    0 -0.40968528131E+02  0.42291700096E+02 -0.70686051474E+02  0.92002859016E+02  0.10000000000E+01 0.  0.
    9000005    1    3    3    0    0  0.40968528131E+02 -0.42291700096E+02 -0.19129347564E+02  0.61918818888E+02  0.10000000000E+01 0.  0.
<mgrwt>
<rscale>  0 0.12500031E+03</rscale>
<asrwt>0</asrwt>
<pdfrwt beam="1">  1        4 0.49312523E-02 0.12500031E+03</pdfrwt>
<pdfrwt beam="2">  1       -4 0.18749006E-01 0.12500031E+03</pdfrwt>
<totfact> 0.98526921E+03</totfact>
</mgrwt>
</event>
<event>
 5    1  0.3217852E-002  0.1250016E+03  0.7818608E-02  0.1235067E+00
         -4   -1    0    0    0  501 -0.00000000000E+00  0.00000000000E+00  0.58844042025E+02  0.58857745300E+02  0.12700000000E+01 0. -1.
          4   -1    0    0  501    0  0.00000000000E+00 -0.00000000000E+00 -0.66357319453E+02  0.66369471483E+02  0.12700000000E+01 0. -1.
         25    2    1    2    0    0  0.00000000000E+00  0.00000000000E+00 -0.75132774281E+01  0.12522721678E+03  0.12500162593E+03 0.  0.
    9000005    1    3    3    0    0  0.40487315238E+02 -0.91586831649E+01  0.43042198610E+02  0.59805811036E+02  0.10000000000E+01 0.  0.
    9000005    1    3    3    0    0 -0.40487315238E+02  0.91586831649E+01 -0.50555476038E+02  0.65421405747E+02  0.10000000000E+01 0.  0.
<mgrwt>
<rscale>  0 0.12500163E+03</rscale>
<asrwt>0</asrwt>
<pdfrwt beam="2">  1        4 0.10210807E-01 0.12500163E+03</pdfrwt>
<pdfrwt beam="1">  1       -4 0.90549184E-02 0.12500163E+03</pdfrwt>
<totfact> 0.10447546E+04</totfact>
</mgrwt>
</event>
<event>
 5    1  0.3217852E-002  0.1250006E+03  0.7818608E-02  0.1235068E+00
         -4   -1    0    0    0  501 -0.00000000000E+00  0.00000000000E+00  0.51231245250E+02  0.51246984203E+02  0.12700000000E+01 0.  1.
          4   -1    0    0  501    0  0.00000000000E+00 -0.00000000000E+00 -0.76215400226E+02  0.76225980686E+02  0.12700000000E+01 0.  1.
         25    2    1    2    0    0  0.00000000000E+00  0.00000000000E+00 -0.24984154976E+02  0.12747296489E+03  0.12500059511E+03 0.  0.
    9000005    1    3    3    0    0 -0.41531097759E+02 -0.22227865153E+02 -0.54369829201E+02  0.71944342360E+02  0.10000000000E+01 0.  0.
    9000005    1    3    3    0    0  0.41531097759E+02  0.22227865153E+02  0.29385674225E+02  0.55528622529E+02  0.10000000000E+01 0.  0.
<mgrwt>
<rscale>  0 0.12500060E+03</rscale>
<asrwt>0</asrwt>
<pdfrwt beam="2">  1        4 0.11727471E-01 0.12500060E+03</pdfrwt>
<pdfrwt beam="1">  1       -4 0.78837546E-02 0.12500060E+03</pdfrwt>
<totfact> 0.10398746E+04</totfact>
</mgrwt>
</event>
<event>
 5    1  0.3217852E-002  0.1249973E+03  0.7818608E-02  0.1235074E+00
         -4   -1    0    0    0  501 -0.00000000000E+00  0.00000000000E+00  0.77027543857E+01  0.78067486912E+01  0.12700000000E+01 0. -1.
          4   -1    0    0  501    0  0.00000000000E+00 -0.00000000000E+00 -0.50359686408E+03  0.50359846546E+03  0.12700000000E+01 0. -1.
         25    2    1    2    0    0  0.00000000000E+00  0.00000000000E+00 -0.49589410970E+03  0.51140521415E+03  0.12499730009E+03 0.  0.
    9000005    1    3    3    0    0  0.19199002626E+02 -0.52648831311E+02 -0.36107659432E+03  0.36540088685E+03  0.10000000000E+01 0.  0.
    9000005    1    3    3    0    0 -0.19199002626E+02  0.52648831311E+02 -0.13481751538E+03  0.14600432731E+03  0.10000000000E+01 0.  0.
<mgrwt>
<rscale>  0 0.12499730E+03</rscale>
<asrwt>0</asrwt>
<pdfrwt beam="2">  1        4 0.77484538E-01 0.12499730E+03</pdfrwt>
<pdfrwt beam="1">  1       -4 0.11931623E-02 0.12499730E+03</pdfrwt>
<totfact> 0.54993470E+03</totfact>
</mgrwt>
</event>
<event>
 5    1  0.3217852E-002  0.1249934E+03  0.7818608E-02  0.1235080E+00
         -4   -1    0    0    0  501 -0.00000000000E+00  0.00000000000E+00  0.34085136772E+03  0.34085373370E+03  0.12700000000E+01 0.  1.
          4   -1    0    0  501    0  0.00000000000E+00 -0.00000000000E+00 -0.11421461895E+02  0.11491853280E+02  0.12700000000E+01 0.  1.
         25    2    1    2    0    0  0.00000000000E+00  0.00000000000E+00  0.32942990582E+03  0.35234558698E+03  0.12499339907E+03 0.  0.
    9000005    1    3    3    0    0  0.32953617241E+02  0.75262397056E+01  0.31286896891E+03  0.31469124055E+03  0.10000000000E+01 0.  0.
    9000005    1    3    3    0    0 -0.32953617241E+02 -0.75262397056E+01  0.16560936915E+02  0.37654346427E+02  0.10000000000E+01 0.  0.
<mgrwt>
<rscale>  0 0.12499340E+03</rscale>
<asrwt>0</asrwt>
<pdfrwt beam="2">  1        4 0.17627446E-02 0.12499340E+03</pdfrwt>
<pdfrwt beam="1">  1       -4 0.52444271E-01 0.12499340E+03</pdfrwt>
<totfact> 0.69477426E+03</totfact>
</mgrwt>
</event>
<event>
 5    1  0.3217852E-002  0.1249978E+03  0.7818608E-02  0.1235073E+00
          4   -1    0    0  501    0  0.00000000000E+00  0.00000000000E+00  0.18565624001E+02  0.18609011111E+02  0.12700000000E+01 0. -1.
         -4   -1    0    0    0  501 -0.00000000000E+00 -0.00000000000E+00 -0.21010393671E+03  0.21010777501E+03  0.12700000000E+01 0. -1.
         25    2    1    2    0    0  0.00000000000E+00  0.00000000000E+00 -0.19153831271E+03  0.22871678612E+03  0.12499777206E+03 0.  0.
    9000005    1    3    3    0    0 -0.18630183658E+02  0.59574132321E+02 -0.90295195287E+02  0.10977423776E+03  0.10000000000E+01 0.  0.
    9000005    1    3    3    0    0  0.18630183658E+02 -0.59574132321E+02 -0.10124311742E+03  0.11894254836E+03  0.10000000000E+01 0.  0.
<mgrwt>
<rscale>  0 0.12499777E+03</rscale>
<asrwt>0</asrwt>
<pdfrwt beam="1">  1        4 0.28598827E-02 0.12499777E+03</pdfrwt>
<pdfrwt beam="2">  1       -4 0.32327314E-01 0.12499777E+03</pdfrwt>
<totfact> 0.85511278E+03</totfact>
</mgrwt>
</event>
<event>
 5    1  0.3217852E-002  0.1249986E+03  0.7818608E-02  0.1235071E+00
         -4   -1    0    0    0  501 -0.00000000000E+00  0.00000000000E+00  0.34388305001E+02  0.34411748297E+02  0.12700000000E+01 0. -1.
          4   -1    0    0  501    0  0.00000000000E+00 -0.00000000000E+00 -0.11352414960E+03  0.11353125315E+03  0.12700000000E+01 0. -1.
         25    2    1    2    0    0  0.00000000000E+00  0.00000000000E+00 -0.79135844596E+02  0.14794300145E+03  0.12499859910E+03 0.  0.
    9000005    1    3    3    0    0 -0.23615422814E+02 -0.33645646022E+02  0.16140356685E+02  0.44172715615E+02  0.10000000000E+01 0.  0.
    9000005    1    3    3    0    0  0.23615422814E+02  0.33645646022E+02 -0.95276201280E+02  0.10377028583E+03  0.10000000000E+01 0.  0.
<mgrwt>
<rscale>  0 0.12499860E+03</rscale>
<asrwt>0</asrwt>
<pdfrwt beam="2">  1        4 0.17467603E-01 0.12499860E+03</pdfrwt>
<pdfrwt beam="1">  1       -4 0.52928583E-02 0.12499860E+03</pdfrwt>
<totfact> 0.99718466E+03</totfact>
</mgrwt>
</event>
<event>
 5    1  0.3217852E-002  0.1249997E+03  0.7818608E-02  0.1235070E+00
         -4   -1    0    0    0  501 -0.00000000000E+00  0.00000000000E+00  0.32543658695E+01  0.34933933664E+01  0.12700000000E+01 0.  1.
          4   -1    0    0  501    0  0.00000000000E+00 -0.00000000000E+00 -0.11575459036E+04  0.11575466002E+04  0.12700000000E+01 0.  1.
         25    2    1    2    0    0  0.00000000000E+00  0.00000000000E+00 -0.11542915377E+04  0.11610399936E+04  0.12499965116E+03 0.  0.
    9000005    1    3    3    0    0  0.50943439829E+01  0.79663021937E+01 -0.33835189053E+01  0.10092695945E+02  0.10000000000E+01 0.  0.
    9000005    1    3    3    0    0 -0.50943439829E+01 -0.79663021937E+01 -0.11509080188E+04  0.11509472977E+04  0.10000000000E+01 0.  0.
<mgrwt>
<rscale>  0 0.12499965E+03</rscale>
<asrwt>0</asrwt>
<pdfrwt beam="2">  1        4 0.17810211E+00 0.12499965E+03</pdfrwt>
<pdfrwt beam="1">  1       -4 0.51911292E-03 0.12499965E+03</pdfrwt>
<totfact> 0.25756145E+03</totfact>
</mgrwt>
</event>
<event>
 5    1  0.3217852E-002  0.1250035E+03  0.7818608E-02  0.1235064E+00
          4   -1    0    0  501    0  0.00000000000E+00  0.00000000000E+00  0.62160691967E+03  0.62160821703E+03  0.12700000000E+01 0.  1.
         -4   -1    0    0    0  501 -0.00000000000E+00 -0.00000000000E+00 -0.62189890346E+01  0.63473399635E+01  0.12700000000E+01 0.  1.
         25    2    1    2    0    0  0.00000000000E+00  0.00000000000E+00  0.61538793063E+03  0.62795555699E+03  0.12500350551E+03 0.  0.
    9000005    1    3    3    0    0  0.21911371757E+02  0.47165983048E+02  0.48176622394E+03  0.48456623149E+03  0.10000000000E+01 0.  0.
    9000005    1    3    3    0    0 -0.21911371757E+02 -0.47165983048E+02  0.13362170669E+03  0.14338932550E+03  0.10000000000E+01 0.  0.
<mgrwt>
<rscale>  0 0.12500351E+03</rscale>
<asrwt>0</asrwt>
<pdfrwt beam="1">  1        4 0.95641825E-01 0.12500351E+03</pdfrwt>
<pdfrwt beam="2">  1       -4 0.96674030E-03 0.12500351E+03</pdfrwt>
<totfact> 0.47145592E+03</totfact>
</mgrwt>
</event>
<event>
 5    1  0.3217852E-002  0.1250001E+03  0.7818608E-02  0.1235069E+00
          4   -1    0    0  501    0  0.00000000000E+00  0.00000000000E+00  0.13296078288E+04  0.13296084353E+04  0.12700000000E+01 0. -1.
         -4   -1    0    0    0  501 -0.00000000000E+00 -0.00000000000E+00 -0.28000166199E+01  0.30745720144E+01  0.12700000000E+01 0. -1.
         25    2    1    2    0    0  0.00000000000E+00  0.00000000000E+00  0.13268078121E+04  0.13326830073E+04  0.12500011043E+03 0.  0.
    9000005    1    3    3    0    0 -0.12902389046E+02  0.76334131848E+01  0.16602680752E+02  0.22391731691E+02  0.10000000000E+01 0.  0.
    9000005    1    3    3    0    0  0.12902389046E+02 -0.76334131848E+01  0.13102051314E+04  0.13102912756E+04  0.10000000000E+01 0.  0.
<mgrwt>
<rscale>  0 0.12500011E+03</rscale>
<asrwt>0</asrwt>
<pdfrwt beam="1">  1        4 0.20457590E+00 0.12500011E+03</pdfrwt>
<pdfrwt beam="2">  1       -4 0.45193880E-03 0.12500011E+03</pdfrwt>
<totfact> 0.21470032E+03</totfact>
</mgrwt>
</event>
<event>
 5    1  0.3217852E-002  0.1250149E+03  0.7818608E-02  0.1235046E+00
         -4   -1    0    0    0  501 -0.00000000000E+00  0.00000000000E+00  0.39838458306E+03  0.39838660736E+03  0.12700000000E+01 0.  1.
          4   -1    0    0  501    0  0.00000000000E+00 -0.00000000000E+00 -0.97643905510E+01  0.98466351020E+01  0.12700000000E+01 0.  1.
         25    2    1    2    0    0  0.00000000000E+00  0.00000000000E+00  0.38862019251E+03  0.40823324246E+03  0.12501490400E+03 0.  0.
    9000005    1    3    3    0    0  0.39432982461E+02  0.47912237599E+02  0.16995241237E+03  0.18092917147E+03  0.10000000000E+01 0.  0.
    9000005    1    3    3    0    0 -0.39432982461E+02 -0.47912237599E+02  0.21866778014E+03  0.22730407099E+03  0.10000000000E+01 0.  0.
<mgrwt>
<rscale>  0 0.12501490E+03</rscale>
<asrwt>0</asrwt>
<pdfrwt beam="2">  1        4 0.15086961E-02 0.12501490E+03</pdfrwt>
<pdfrwt beam="1">  1       -4 0.61296419E-01 0.12501490E+03</pdfrwt>
<totfact> 0.63738865E+03</totfact>
</mgrwt>
</event>
<event>
 5    1  0.3217852E-002  0.1249987E+03  0.7818608E-02  0.1235071E+00
          4   -1    0    0  501    0  0.00000000000E+00  0.00000000000E+00  0.25391644624E+03  0.25391962227E+03  0.12700000000E+01 0.  1.
         -4   -1    0    0    0  501 -0.00000000000E+00 -0.00000000000E+00 -0.15354186129E+02  0.15406619736E+02  0.12700000000E+01 0.  1.
         25    2    1    2    0    0  0.00000000000E+00  0.00000000000E+00  0.23856226011E+03  0.26932624200E+03  0.12499869072E+03 0.  0.
    9000005    1    3    3    0    0 -0.53306776434E+02  0.29785178925E+02  0.14789793281E+03  0.16001114907E+03  0.10000000000E+01 0.  0.
    9000005    1    3    3    0    0  0.53306776434E+02 -0.29785178925E+02  0.90664327303E+02  0.10931509293E+03  0.10000000000E+01 0.  0.
<mgrwt>
<rscale>  0 0.12499869E+03</rscale>
<asrwt>0</asrwt>
<pdfrwt beam="1">  1        4 0.39068345E-01 0.12499869E+03</pdfrwt>
<pdfrwt beam="2">  1       -4 0.23664602E-02 0.12499869E+03</pdfrwt>
<totfact> 0.79617131E+03</totfact>
</mgrwt>
</event>
<event>
 5    1  0.3217852E-002  0.1250006E+03  0.7818608E-02  0.1235068E+00
          4   -1    0    0  501    0  0.00000000000E+00  0.00000000000E+00  0.18269981586E+03  0.18270422988E+03  0.12700000000E+01 0. -1.
         -4   -1    0    0    0  501 -0.00000000000E+00 -0.00000000000E+00 -0.21357354239E+02  0.21395080745E+02  0.12700000000E+01 0. -1.
         25    2    1    2    0    0  0.00000000000E+00  0.00000000000E+00  0.16134246162E+03  0.20409931062E+03  0.12500055470E+03 0.  0.
    9000005    1    3    3    0    0  0.61685737939E+02  0.55833296804E+01  0.94232296369E+02  0.11276980764E+03  0.10000000000E+01 0.  0.
    9000005    1    3    3    0    0 -0.61685737939E+02 -0.55833296804E+01  0.67110165250E+02  0.91329502984E+02  0.10000000000E+01 0.  0.
<mgrwt>
<rscale>  0 0.12500055E+03</rscale>
<asrwt>0</asrwt>
<pdfrwt beam="1">  1        4 0.28110906E-01 0.12500055E+03</pdfrwt>
<pdfrwt beam="2">  1       -4 0.32889884E-02 0.12500055E+03</pdfrwt>
<totfact> 0.89447590E+03</totfact>
</mgrwt>
</event>
<event>
 5    1  0.3217852E-002  0.1250188E+03  0.7818608E-02  0.1235040E+00
         -4   -1    0    0    0  501 -0.00000000000E+00  0.00000000000E+00  0.36215292841E+03  0.36215515522E+03  0.12700000000E+01 0.  1.
          4   -1    0    0  501    0  0.00000000000E+00 -0.00000000000E+00 -0.10749790990E+02  0.10824551091E+02  0.12700000000E+01 0.  1.
         25    2    1    2    0    0  0.00000000000E+00  0.00000000000E+00  0.35140313742E+03  0.37297970632E+03  0.12501878393E+03 0.  0.
    9000005    1    3    3    0    0 -0.30254987264E+02 -0.40018171920E+02  0.28691461402E+03  0.29126931537E+03  0.10000000000E+01 0.  0.
    9000005    1    3    3    0    0  0.30254987264E+02  0.40018171920E+02  0.64488523399E+02  0.81710390945E+02  0.10000000000E+01 0.  0.
<mgrwt>
<rscale>  0 0.12501878E+03</rscale>
<asrwt>0</asrwt>
<pdfrwt beam="2">  1        4 0.16597364E-02 0.12501878E+03</pdfrwt>
<pdfrwt beam="1">  1       -4 0.55721746E-01 0.12501878E+03</pdfrwt>
<totfact> 0.67240434E+03</totfact>
</mgrwt>
</event>
<event>
 5    1  0.3217852E-002  0.1249998E+03  0.7818608E-02  0.1235070E+00
         -4   -1    0    0    0  501 -0.00000000000E+00  0.00000000000E+00  0.20172519056E+02  0.20212457175E+02  0.12700000000E+01 0.  1.
          4   -1    0    0  501    0  0.00000000000E+00 -0.00000000000E+00 -0.19340811367E+03  0.19341228330E+03  0.12700000000E+01 0.  1.
         25    2    1    2    0    0  0.00000000000E+00  0.00000000000E+00 -0.17323559461E+03  0.21362474048E+03  0.12499983401E+03 0.  0.
    9000005    1    3    3    0    0  0.43796023707E+02  0.40075824779E+02 -0.53256108599E+02  0.79758237991E+02  0.10000000000E+01 0.  0.
    9000005    1    3    3    0    0 -0.43796023707E+02 -0.40075824779E+02 -0.11997948601E+03  0.13386650249E+03  0.10000000000E+01 0.  0.
<mgrwt>
<rscale>  0 0.12499983E+03</rscale>
<asrwt>0</asrwt>
<pdfrwt beam="2">  1        4 0.29758486E-01 0.12499983E+03</pdfrwt>
<pdfrwt beam="1">  1       -4 0.31068575E-02 0.12499983E+03</pdfrwt>
<totfact> 0.87887640E+03</totfact>
</mgrwt>
</event>
<event>
 5    1  0.3217852E-002  0.1250094E+03  0.7818608E-02  0.1235055E+00
          4   -1    0    0  501    0  0.00000000000E+00  0.00000000000E+00  0.44398981115E+02  0.44417141106E+02  0.12700000000E+01 0. -1.
         -4   -1    0    0    0  501 -0.00000000000E+00 -0.00000000000E+00 -0.87953097453E+02  0.87962266066E+02  0.12700000000E+01 0. -1.
         25    2    1    2    0    0  0.00000000000E+00  0.00000000000E+00 -0.43554116338E+02  0.13237940717E+03  0.12500938522E+03 0.  0.
    9000005    1    3    3    0    0  0.47634517389E+02 -0.40371828560E+02 -0.18994439564E+02  0.65274194920E+02  0.10000000000E+01 0.  0.
    9000005    1    3    3    0    0 -0.47634517389E+02  0.40371828560E+02 -0.24559676774E+02  0.67105212252E+02  0.10000000000E+01 0.  0.
<mgrwt>
<rscale>  0 0.12500939E+03</rscale>
<asrwt>0</asrwt>
<pdfrwt beam="1">  1        4 0.68327147E-02 0.12500939E+03</pdfrwt>
<pdfrwt beam="2">  1       -4 0.13533348E-01 0.12500939E+03</pdfrwt>
<totfact> 0.10291428E+04</totfact>
</mgrwt>
</event>
<event>
 5    1  0.3217852E-002  0.1249997E+03  0.7818608E-02  0.1235070E+00
          4   -1    0    0  501    0  0.00000000000E+00  0.00000000000E+00  0.15005492255E+02  0.15059140010E+02  0.12700000000E+01 0.  1.
         -4   -1    0    0    0  501 -0.00000000000E+00 -0.00000000000E+00 -0.25980024167E+03  0.25980334576E+03  0.12700000000E+01 0.  1.
         25    2    1    2    0    0  0.00000000000E+00  0.00000000000E+00 -0.24479474941E+03  0.27486248577E+03  0.12499966698E+03 0.  0.
    9000005    1    3    3    0    0  0.29781395271E+02 -0.40132340776E+02 -0.20489863347E+03  0.21090753016E+03  0.10000000000E+01 0.  0.
    9000005    1    3    3    0    0 -0.29781395271E+02  0.40132340776E+02 -0.39896115944E+02  0.63954955616E+02  0.10000000000E+01 0.  0.
<mgrwt>
<rscale>  0 0.12499967E+03</rscale>
<asrwt>0</asrwt>
<pdfrwt beam="1">  1        4 0.23129030E-02 0.12499967E+03</pdfrwt>
<pdfrwt beam="2">  1       -4 0.39973630E-01 0.12499967E+03</pdfrwt>
<totfact> 0.78864856E+03</totfact>
</mgrwt>
</event>
<event>
 5    1  0.3217852E-002  0.1249991E+03  0.7818608E-02  0.1235071E+00
         -4   -1    0    0    0  501 -0.00000000000E+00  0.00000000000E+00  0.11786381561E+03  0.11787065763E+03  0.12700000000E+01 0. -1.
          4   -1    0    0  501    0  0.00000000000E+00 -0.00000000000E+00 -0.33121610792E+02  0.33145950001E+02  0.12700000000E+01 0. -1.
         25    2    1    2    0    0  0.00000000000E+00  0.00000000000E+00  0.84742204819E+02  0.15101660763E+03  0.12499909801E+03 0.  0.
    9000005    1    3    3    0    0 -0.61321545742E+02  0.87844244925E+01  0.52311365050E+02  0.81086231872E+02  0.10000000000E+01 0.  0.
    9000005    1    3    3    0    0  0.61321545742E+02 -0.87844244925E+01  0.32430839770E+02  0.69930375760E+02  0.10000000000E+01 0.  0.
<mgrwt>
<rscale>  0 0.12499910E+03</rscale>
<asrwt>0</asrwt>
<pdfrwt beam="2">  1        4 0.50980309E-02 0.12499910E+03</pdfrwt>
<pdfrwt beam="1">  1       -4 0.18135293E-01 0.12499910E+03</pdfrwt>
<totfact> 0.99103449E+03</totfact>
</mgrwt>
</event>
<event>
 5    1  0.3217852E-002  0.1249957E+03  0.7818608E-02  0.1235076E+00
          4   -1    0    0  501    0  0.00000000000E+00  0.00000000000E+00  0.29120669877E+03  0.29120946809E+03  0.12700000000E+01 0.  1.
         -4   -1    0    0    0  501 -0.00000000000E+00 -0.00000000000E+00 -0.13380195592E+02  0.13440332365E+02  0.12700000000E+01 0.  1.
         25    2    1    2    0    0  0.00000000000E+00  0.00000000000E+00  0.27782650317E+03  0.30464980046E+03  0.12499574014E+03 0.  0.
    9000005    1    3    3    0    0  0.55914052620E+02 -0.26685620897E+02  0.11904079380E+03  0.13420213945E+03  0.10000000000E+01 0.  0.
    9000005    1    3    3    0    0 -0.55914052620E+02  0.26685620897E+02  0.15878570937E+03  0.17044766101E+03  0.10000000000E+01 0.  0.
<mgrwt>
<rscale>  0 0.12499574E+03</rscale>
<asrwt>0</asrwt>
<pdfrwt beam="1">  1        4 0.44805870E-01 0.12499574E+03</pdfrwt>
<pdfrwt beam="2">  1       -4 0.20633305E-02 0.12499574E+03</pdfrwt>
<totfact> 0.75026344E+03</totfact>
</mgrwt>
</event>
<event>
 5    1  0.3217852E-002  0.1249980E+03  0.7818608E-02  0.1235072E+00
         -4   -1    0    0    0  501 -0.00000000000E+00  0.00000000000E+00  0.39450724415E+03  0.39450928834E+03  0.12700000000E+01 0.  1.
          4   -1    0    0  501    0  0.00000000000E+00 -0.00000000000E+00 -0.98584715914E+01  0.99399377321E+01  0.12700000000E+01 0.  1.
         25    2    1    2    0    0  0.00000000000E+00  0.00000000000E+00  0.38464877255E+03  0.40444922607E+03  0.12499799294E+03 0.  0.
    9000005    1    3    3    0    0 -0.49354855404E+02  0.35998582168E+02  0.14972616792E+03  0.16171185804E+03  0.10000000000E+01 0.  0.
    9000005    1    3    3    0    0  0.49354855404E+02 -0.35998582168E+02  0.23492260464E+03  0.24273736803E+03  0.10000000000E+01 0.  0.
<mgrwt>
<rscale>  0 0.12499799E+03</rscale>
<asrwt>0</asrwt>
<pdfrwt beam="2">  1        4 0.15231120E-02 0.12499799E+03</pdfrwt>
<pdfrwt beam="1">  1       -4 0.60699840E-01 0.12499799E+03</pdfrwt>
<totfact> 0.64125194E+03</totfact>
</mgrwt>
</event>
<event>
 5    1  0.3217852E-002  0.1249907E+03  0.7818608E-02  0.1235084E+00
          4   -1    0    0  501    0  0.00000000000E+00  0.00000000000E+00  0.48744120522E+01  0.50371413375E+01  0.12700000000E+01 0. -1.
         -4   -1    0    0    0  501 -0.00000000000E+00 -0.00000000000E+00 -0.78794040410E+03  0.78794142759E+03  0.12700000000E+01 0. -1.
         25    2    1    2    0    0  0.00000000000E+00  0.00000000000E+00 -0.78306599205E+03  0.79297856893E+03  0.12499065116E+03 0.  0.
    9000005    1    3    3    0    0 -0.61786246825E+02 -0.27571328546E+01 -0.33495702095E+03  0.34062053368E+03  0.10000000000E+01 0.  0.
    9000005    1    3    3    0    0  0.61786246825E+02  0.27571328546E+01 -0.44810897109E+03  0.45235803525E+03  0.10000000000E+01 0.  0.
<mgrwt>
<rscale>  0 0.12499065E+03</rscale>
<asrwt>0</asrwt>
<pdfrwt beam="1">  1        4 0.76250654E-03 0.12499065E+03</pdfrwt>
<pdfrwt beam="2">  1       -4 0.12123410E+00 0.12499065E+03</pdfrwt>
<totfact> 0.38588020E+03</totfact>
</mgrwt>
</event>
<event>
 5    1  0.3217852E-002  0.1249987E+03  0.7818608E-02  0.1235071E+00
          4   -1    0    0  501    0  0.00000000000E+00  0.00000000000E+00  0.49803292650E+03  0.49803454577E+03  0.12700000000E+01 0. -1.
         -4   -1    0    0    0  501 -0.00000000000E+00 -0.00000000000E+00 -0.77901376519E+01  0.78929807193E+01  0.12700000000E+01 0. -1.
         25    2    1    2    0    0  0.00000000000E+00  0.00000000000E+00  0.49024278885E+03  0.50592752649E+03  0.12499868015E+03 0.  0.
    9000005    1    3    3    0    0 -0.49430773388E+02  0.21960429830E+02  0.37179506636E+03  0.37571030490E+03  0.10000000000E+01 0.  0.
    9000005    1    3    3    0    0  0.49430773388E+02 -0.21960429830E+02  0.11844772249E+03  0.13021722159E+03  0.10000000000E+01 0.  0.
<mgrwt>
<rscale>  0 0.12499868E+03</rscale>
<asrwt>0</asrwt>
<pdfrwt beam="1">  1        4 0.76628501E-01 0.12499868E+03</pdfrwt>
<pdfrwt beam="2">  1       -4 0.12065180E-02 0.12499868E+03</pdfrwt>
<totfact> 0.55408978E+03</totfact>
</mgrwt>
</event>
<event>
 5    1  0.3217852E-002  0.1250003E+03  0.7818608E-02  0.1235069E+00
          4   -1    0    0  501    0  0.00000000000E+00  0.00000000000E+00  0.81238244605E+02  0.81248170973E+02  0.12700000000E+01 0. -1.
         -4   -1    0    0    0  501 -0.00000000000E+00 -0.00000000000E+00 -0.48062823964E+02  0.48079600116E+02  0.12700000000E+01 0. -1.
         25    2    1    2    0    0  0.00000000000E+00  0.00000000000E+00  0.33175420641E+02  0.12932777109E+03  0.12500025536E+03 0.  0.
    9000005    1    3    3    0    0  0.59776658849E+02  0.16571107171E+02  0.24427333363E+02  0.66674921457E+02  0.10000000000E+01 0.  0.
    9000005    1    3    3    0    0 -0.59776658849E+02 -0.16571107171E+02  0.87480872782E+01  0.62652849633E+02  0.10000000000E+01 0.  0.
<mgrwt>
<rscale>  0 0.12500026E+03</rscale>
<asrwt>0</asrwt>
<pdfrwt beam="1">  1        4 0.12500245E-01 0.12500026E+03</pdfrwt>
<pdfrwt beam="2">  1       -4 0.73963347E-02 0.12500026E+03</pdfrwt>
<totfact> 0.10358849E+04</totfact>
</mgrwt>
</event>
<event>
 5    1  0.3217852E-002  0.1250006E+03  0.7818608E-02  0.1235068E+00
         -4   -1    0    0    0  501 -0.00000000000E+00  0.00000000000E+00  0.72531560901E+01  0.73635027851E+01  0.12700000000E+01 0.  1.
          4   -1    0    0  501    0  0.00000000000E+00 -0.00000000000E+00 -0.53438657760E+03  0.53438808672E+03  0.12700000000E+01 0.  1.
         25    2    1    2    0    0  0.00000000000E+00  0.00000000000E+00 -0.52713342151E+03  0.54175158950E+03  0.12500056260E+03 0.  0.
    9000005    1    3    3    0    0 -0.26771123267E+02  0.38136671092E+02 -0.83083786279E+02  0.95262869290E+02  0.10000000000E+01 0.  0.
    9000005    1    3    3    0    0  0.26771123267E+02 -0.38136671092E+02 -0.44404963523E+03  0.44648872021E+03  0.10000000000E+01 0.  0.
<mgrwt>
<rscale>  0 0.12500056E+03</rscale>
<asrwt>0</asrwt>
<pdfrwt beam="2">  1        4 0.82221893E-01 0.12500056E+03</pdfrwt>
<pdfrwt beam="1">  1       -4 0.11244749E-02 0.12500056E+03</pdfrwt>
<totfact> 0.52763850E+03</totfact>
</mgrwt>
</event>
<event>
 5    1  0.3217852E-002  0.1250007E+03  0.7818608E-02  0.1235068E+00
         -4   -1    0    0    0  501 -0.00000000000E+00  0.00000000000E+00  0.51977756213E+01  0.53506795278E+01  0.12700000000E+01 0.  1.
          4   -1    0    0  501    0  0.00000000000E+00 -0.00000000000E+00 -0.74048456911E+03  0.74048565819E+03  0.12700000000E+01 0.  1.
         25    2    1    2    0    0  0.00000000000E+00  0.00000000000E+00 -0.73528679349E+03  0.74583633772E+03  0.12500069594E+03 0.  0.
    9000005    1    3    3    0    0 -0.30289146610E+02 -0.42011461421E+01 -0.69282412012E+03  0.69349934640E+03  0.10000000000E+01 0.  0.
    9000005    1    3    3    0    0  0.30289146610E+02  0.42011461421E+01 -0.42462673364E+02  0.52336991320E+02  0.10000000000E+01 0.  0.
<mgrwt>
<rscale>  0 0.12500070E+03</rscale>
<asrwt>0</asrwt>
<pdfrwt beam="2">  1        4 0.11393247E+00 0.12500070E+03</pdfrwt>
<pdfrwt beam="1">  1       -4 0.81150399E-03 0.12500070E+03</pdfrwt>
<totfact> 0.40773483E+03</totfact>
</mgrwt>
</event>
<event>
 5    1  0.3217852E-002  0.1249991E+03  0.7818608E-02  0.1235071E+00
          4   -1    0    0  501    0  0.00000000000E+00  0.00000000000E+00  0.11587483791E+03  0.11588179737E+03  0.12700000000E+01 0. -1.
         -4   -1    0    0    0  501 -0.00000000000E+00 -0.00000000000E+00 -0.33690508660E+02  0.33714437171E+02  0.12700000000E+01 0. -1.
         25    2    1    2    0    0  0.00000000000E+00  0.00000000000E+00  0.82184329254E+02  0.14959623454E+03  0.12499907765E+03 0.  0.
    9000005    1    3    3    0    0 -0.53174413441E+02 -0.54837400512E+00  0.18098583910E+01  0.53217427091E+02  0.10000000000E+01 0.  0.
    9000005    1    3    3    0    0  0.53174413441E+02  0.54837400512E+00  0.80374470863E+02  0.96378807449E+02  0.10000000000E+01 0.  0.
<mgrwt>
<rscale>  0 0.12499908E+03</rscale>
<asrwt>0</asrwt>
<pdfrwt beam="1">  1        4 0.17829274E-01 0.12499908E+03</pdfrwt>
<pdfrwt beam="2">  1       -4 0.51855311E-02 0.12499908E+03</pdfrwt>
<totfact> 0.99386306E+03</totfact>
</mgrwt>
</event>
<event>
 5    1  0.3217852E-002  0.1250026E+03  0.7818608E-02  0.1235065E+00
         -4   -1    0    0    0  501 -0.00000000000E+00  0.00000000000E+00  0.38183608322E+01  0.40240252789E+01  0.12700000000E+01 0. -1.
          4   -1    0    0  501    0  0.00000000000E+00 -0.00000000000E+00 -0.99602381120E+03  0.99602462087E+03  0.12700000000E+01 0. -1.
         25    2    1    2    0    0  0.00000000000E+00  0.00000000000E+00 -0.99220545037E+03  0.10000486462E+04  0.12500255567E+03 0.  0.
    9000005    1    3    3    0    0 -0.46260851113E+02 -0.38866925062E+02 -0.36842315452E+03  0.37334611956E+03  0.10000000000E+01 0.  0.
    9000005    1    3    3    0    0  0.46260851113E+02  0.38866925062E+02 -0.62378229585E+03  0.62670252659E+03  0.10000000000E+01 0.  0.
<mgrwt>
<rscale>  0 0.12500256E+03</rscale>
<asrwt>0</asrwt>
<pdfrwt beam="2">  1        4 0.15325011E+00 0.12500256E+03</pdfrwt>
<pdfrwt beam="1">  1       -4 0.60332355E-03 0.12500256E+03</pdfrwt>
<totfact> 0.30601213E+03</totfact>
</mgrwt>
</event>
<event>
 5    1  0.3217852E-002  0.1250065E+03  0.7818608E-02  0.1235059E+00
         -4   -1    0    0    0  501 -0.00000000000E+00  0.00000000000E+00  0.12320216945E+03  0.12320871502E+03  0.12700000000E+01 0. -1.
          4   -1    0    0  501    0  0.00000000000E+00 -0.00000000000E+00 -0.31689223881E+02  0.31714662385E+02  0.12700000000E+01 0. -1.
         25    2    1    2    0    0  0.00000000000E+00  0.00000000000E+00  0.91512945569E+02  0.15492337741E+03  0.12500653447E+03 0.  0.
    9000005    1    3    3    0    0  0.21842199863E+02 -0.54675148707E+02  0.71729214484E+02  0.92803738026E+02  0.10000000000E+01 0.  0.
    9000005    1    3    3    0    0 -0.21842199863E+02  0.54675148707E+02  0.19783731085E+02  0.62119639380E+02  0.10000000000E+01 0.  0.
<mgrwt>
<rscale>  0 0.12500653E+03</rscale>
<asrwt>0</asrwt>
<pdfrwt beam="2">  1        4 0.48777256E-02 0.12500653E+03</pdfrwt>
<pdfrwt beam="1">  1       -4 0.18956640E-01 0.12500653E+03</pdfrwt>
<totfact> 0.98316094E+03</totfact>
</mgrwt>
</event>
<event>
 5    1  0.3217852E-002  0.1249976E+03  0.7818608E-02  0.1235073E+00
          4   -1    0    0  501    0  0.00000000000E+00  0.00000000000E+00  0.83147862950E+02  0.83157561370E+02  0.12700000000E+01 0.  1.
         -4   -1    0    0    0  501 -0.00000000000E+00 -0.00000000000E+00 -0.46956736028E+02  0.46973907208E+02  0.12700000000E+01 0.  1.
         25    2    1    2    0    0  0.00000000000E+00  0.00000000000E+00  0.36191126922E+02  0.13013146858E+03  0.12499760576E+03 0.  0.
    9000005    1    3    3    0    0 -0.52411839284E+02 -0.34000526201E+02  0.19591117419E+02  0.65481665837E+02  0.10000000000E+01 0.  0.
    9000005    1    3    3    0    0  0.52411839284E+02  0.34000526201E+02  0.16600009503E+02  0.64649802742E+02  0.10000000000E+01 0.  0.
<mgrwt>
<rscale>  0 0.12499761E+03</rscale>
<asrwt>0</asrwt>
<pdfrwt beam="1">  1        4 0.12794046E-01 0.12499761E+03</pdfrwt>
<pdfrwt beam="2">  1       -4 0.72261802E-02 0.12499761E+03</pdfrwt>
<totfact> 0.10342255E+04</totfact>
</mgrwt>
</event>
<event>
 5    1  0.3217852E-002  0.1250022E+03  0.7818608E-02  0.1235066E+00
         -4   -1    0    0    0  501 -0.00000000000E+00  0.00000000000E+00  0.44099925628E+01  0.45892193676E+01  0.12700000000E+01 0. -1.
          4   -1    0    0  501    0  0.00000000000E+00 -0.00000000000E+00 -0.86798189809E+03  0.86798282720E+03  0.12700000000E+01 0. -1.
         25    2    1    2    0    0  0.00000000000E+00  0.00000000000E+00 -0.86357190553E+03  0.87257204657E+03  0.12500216171E+03 0.  0.
    9000005    1    3    3    0    0  0.20178349296E+02 -0.10727982571E+02 -0.83780190527E+03  0.83811412580E+03  0.10000000000E+01 0.  0.
    9000005    1    3    3    0    0 -0.20178349296E+02  0.10727982571E+02 -0.25770000257E+02  0.34457920767E+02  0.10000000000E+01 0.  0.
<mgrwt>
<rscale>  0 0.12500216E+03</rscale>
<asrwt>0</asrwt>
<pdfrwt beam="2">  1        4 0.13354940E+00 0.12500216E+03</pdfrwt>
<pdfrwt beam="1">  1       -4 0.69231923E-03 0.12500216E+03</pdfrwt>
<totfact> 0.35219411E+03</totfact>
</mgrwt>
</event>
<event>
 5    1  0.3217852E-002  0.1249956E+03  0.7818608E-02  0.1235076E+00
         -4   -1    0    0    0  501 -0.00000000000E+00  0.00000000000E+00  0.11219651339E+02  0.11291300907E+02  0.12700000000E+01 0.  1.
          4   -1    0    0  501    0  0.00000000000E+00 -0.00000000000E+00 -0.34695599273E+03  0.34695831708E+03  0.12700000000E+01 0.  1.
         25    2    1    2    0    0  0.00000000000E+00  0.00000000000E+00 -0.33573634139E+03  0.35824961799E+03  0.12499559135E+03 0.  0.
    9000005    1    3    3    0    0 -0.44278659606E+02 -0.35953981815E+02 -0.24103432399E+03  0.24769302341E+03  0.10000000000E+01 0.  0.
    9000005    1    3    3    0    0  0.44278659606E+02  0.35953981815E+02 -0.94702017404E+02  0.11055659458E+03  0.10000000000E+01 0.  0.
<mgrwt>
<rscale>  0 0.12499559E+03</rscale>
<asrwt>0</asrwt>
<pdfrwt beam="2">  1        4 0.53383527E-01 0.12499559E+03</pdfrwt>
<pdfrwt beam="1">  1       -4 0.17317908E-02 0.12499559E+03</pdfrwt>
<totfact> 0.68833148E+03</totfact>
</mgrwt>
</event>
<event>
 5    1  0.3217852E-002  0.1250040E+03  0.7818608E-02  0.1235063E+00
          4   -1    0    0  501    0  0.00000000000E+00  0.00000000000E+00  0.20039416721E+02  0.20079619581E+02  0.12700000000E+01 0.  1.
         -4   -1    0    0    0  501 -0.00000000000E+00 -0.00000000000E+00 -0.19470307398E+03  0.19470721588E+03  0.12700000000E+01 0.  1.
         25    2    1    2    0    0  0.00000000000E+00  0.00000000000E+00 -0.17466365726E+03  0.21478683547E+03  0.12500396603E+03 0.  0.
    9000005    1    3    3    0    0 -0.48478285969E+02 -0.26624234153E+02 -0.37340079774E+02  0.66740359695E+02  0.10000000000E+01 0.  0.
    9000005    1    3    3    0    0  0.48478285969E+02  0.26624234153E+02 -0.13732357749E+03  0.14804647577E+03  0.10000000000E+01 0.  0.
<mgrwt>
<rscale>  0 0.12500397E+03</rscale>
<asrwt>0</asrwt>
<pdfrwt beam="1">  1        4 0.30863985E-02 0.12500397E+03</pdfrwt>
<pdfrwt beam="2">  1       -4 0.29957729E-01 0.12500397E+03</pdfrwt>
<totfact> 0.87692275E+03</totfact>
</mgrwt>
</event>
<event>
 5    1  0.3217852E-002  0.1250029E+03  0.7818608E-02  0.1235065E+00
         -4   -1    0    0    0  501 -0.00000000000E+00  0.00000000000E+00  0.49315511550E+01  0.50924548888E+01  0.12700000000E+01 0.  1.
          4   -1    0    0  501    0  0.00000000000E+00 -0.00000000000E+00 -0.77925335448E+03  0.77925438938E+03  0.12700000000E+01 0.  1.
         25    2    1    2    0    0  0.00000000000E+00  0.00000000000E+00 -0.77432180332E+03  0.78434684427E+03  0.12500286801E+03 0.  0.
    9000005    1    3    3    0    0  0.45653382594E+02 -0.40736063990E+02 -0.30735435615E+03  0.31338691500E+03  0.10000000000E+01 0.  0.
    9000005    1    3    3    0    0 -0.45653382594E+02  0.40736063990E+02 -0.46696744718E+03  0.47095992927E+03  0.10000000000E+01 0.  0.
<mgrwt>
<rscale>  0 0.12500287E+03</rscale>
<asrwt>0</asrwt>
<pdfrwt beam="2">  1        4 0.11989749E+00 0.12500287E+03</pdfrwt>
<pdfrwt beam="1">  1       -4 0.77115761E-03 0.12500287E+03</pdfrwt>
<totfact> 0.38970735E+03</totfact>
</mgrwt>
</event>
<event>
 5    1  0.3217852E-002  0.1249992E+03  0.7818608E-02  0.1235071E+00
         -4   -1    0    0    0  501 -0.00000000000E+00  0.00000000000E+00  0.23042762773E+03  0.23043112750E+03  0.12700000000E+01 0.  1.
          4   -1    0    0  501    0  0.00000000000E+00 -0.00000000000E+00 -0.16924540715E+02  0.16972123568E+02  0.12700000000E+01 0.  1.
         25    2    1    2    0    0  0.00000000000E+00  0.00000000000E+00  0.21350308702E+03  0.24740325107E+03  0.12499920190E+03 0.  0.
    9000005    1    3    3    0    0 -0.18475673770E+01 -0.31220491231E+02  0.21383306518E+03  0.21611041701E+03  0.10000000000E+01 0.  0.
    9000005    1    3    3    0    0  0.18475673770E+01  0.31220491231E+02 -0.32997815900E+00  0.31292834060E+02  0.10000000000E+01 0.  0.
<mgrwt>
<rscale>  0 0.12499920E+03</rscale>
<asrwt>0</asrwt>
<pdfrwt beam="2">  1        4 0.26077052E-02 0.12499920E+03</pdfrwt>
<pdfrwt beam="1">  1       -4 0.35454330E-01 0.12499920E+03</pdfrwt>
<totfact> 0.82708466E+03</totfact>
</mgrwt>
</event>
<event>
 5    1  0.3217852E-002  0.1249992E+03  0.7818608E-02  0.1235071E+00
         -4   -1    0    0    0  501 -0.00000000000E+00  0.00000000000E+00  0.30520291051E+03  0.30520555284E+03  0.12700000000E+01 0. -1.
          4   -1    0    0  501    0  0.00000000000E+00 -0.00000000000E+00 -0.12764489969E+02  0.12827513561E+02  0.12700000000E+01 0. -1.
         25    2    1    2    0    0  0.00000000000E+00  0.00000000000E+00  0.29243842054E+03  0.31803306640E+03  0.12499920606E+03 0.  0.
    9000005    1    3    3    0    0  0.30246728444E+02  0.29556303823E+02  0.29161262989E+02  0.51379168312E+02  0.10000000000E+01 0.  0.
    9000005    1    3    3    0    0 -0.30246728444E+02 -0.29556303823E+02  0.26327715755E+03  0.26665389809E+03  0.10000000000E+01 0.  0.
<mgrwt>
<rscale>  0 0.12499921E+03</rscale>
<asrwt>0</asrwt>
<pdfrwt beam="2">  1        4 0.19688189E-02 0.12499921E+03</pdfrwt>
<pdfrwt beam="1">  1       -4 0.46959347E-01 0.12499921E+03</pdfrwt>
<totfact> 0.73391967E+03</totfact>
</mgrwt>
</event>
<event>
 5    1  0.3217852E-002  0.1250004E+03  0.7818608E-02  0.1235069E+00
         -4   -1    0    0    0  501 -0.00000000000E+00  0.00000000000E+00  0.11089572686E+03  0.11090299877E+03  0.12700000000E+01 0. -1.
          4   -1    0    0  501    0  0.00000000000E+00 -0.00000000000E+00 -0.35204898733E+02  0.35227798608E+02  0.12700000000E+01 0. -1.
         25    2    1    2    0    0  0.00000000000E+00  0.00000000000E+00  0.75690828124E+02  0.14613079737E+03  0.12500043392E+03 0.  0.
    9000005    1    3    3    0    0  0.41244939073E+02  0.29974258835E+02  0.80087750594E+02  0.94945505355E+02  0.10000000000E+01 0.  0.
    9000005    1    3    3    0    0 -0.41244939073E+02 -0.29974258835E+02 -0.43969224697E+01  0.51185292019E+02  0.10000000000E+01 0.  0.
<mgrwt>
<rscale>  0 0.12500043E+03</rscale>
<asrwt>0</asrwt>
<pdfrwt beam="2">  1        4 0.54184592E-02 0.12500043E+03</pdfrwt>
<pdfrwt beam="1">  1       -4 0.17063202E-01 0.12500043E+03</pdfrwt>
<totfact> 0.10007966E+04</totfact>
</mgrwt>
</event>
<event>
 5    1  0.3217852E-002  0.1250006E+03  0.7818608E-02  0.1235068E+00
          4   -1    0    0  501    0  0.00000000000E+00  0.00000000000E+00  0.86178593078E+01  0.87109356012E+01  0.12700000000E+01 0.  1.
         -4   -1    0    0    0  501 -0.00000000000E+00 -0.00000000000E+00 -0.45074970227E+03  0.45075149140E+03  0.12700000000E+01 0.  1.
         25    2    1    2    0    0  0.00000000000E+00  0.00000000000E+00 -0.44213184296E+03  0.45946242700E+03  0.12500062105E+03 0.  0.
    9000005    1    3    3    0    0  0.57668326213E+01  0.61965418844E+02 -0.20016964195E+03  0.20962312623E+03  0.10000000000E+01 0.  0.
    9000005    1    3    3    0    0 -0.57668326213E+01 -0.61965418844E+02 -0.24196220101E+03  0.24983930077E+03  0.10000000000E+01 0.  0.
<mgrwt>
<rscale>  0 0.12500062E+03</rscale>
<asrwt>0</asrwt>
<pdfrwt beam="1">  1        4 0.13331222E-02 0.12500062E+03</pdfrwt>
<pdfrwt beam="2">  1       -4 0.69353387E-01 0.12500062E+03</pdfrwt>
<totfact> 0.59151941E+03</totfact>
</mgrwt>
</event>
<event>
 5    1  0.3217852E-002  0.1249994E+03  0.7818608E-02  0.1235070E+00
          4   -1    0    0  501    0  0.00000000000E+00  0.00000000000E+00  0.42082560109E+03  0.42082751744E+03  0.12700000000E+01 0. -1.
         -4   -1    0    0    0  501 -0.00000000000E+00 -0.00000000000E+00 -0.92368793750E+01  0.93237782357E+01  0.12700000000E+01 0. -1.
         25    2    1    2    0    0  0.00000000000E+00  0.00000000000E+00  0.41158872172E+03  0.43015129568E+03  0.12499944531E+03 0.  0.
    9000005    1    3    3    0    0 -0.51418538273E+02  0.25866332384E+02  0.28954294129E+03  0.29521017611E+03  0.10000000000E+01 0.  0.
    9000005    1    3    3    0    0  0.51418538273E+02 -0.25866332384E+02  0.12204578043E+03  0.13494111957E+03  0.10000000000E+01 0.  0.
<mgrwt>
<rscale>  0 0.12499945E+03</rscale>
<asrwt>0</asrwt>
<pdfrwt beam="1">  1        4 0.64749220E-01 0.12499945E+03</pdfrwt>
<pdfrwt beam="2">  1       -4 0.14278906E-02 0.12499945E+03</pdfrwt>
<totfact> 0.61723040E+03</totfact>
</mgrwt>
</event>
<event>
 5    1  0.3217852E-002  0.1249991E+03  0.7818608E-02  0.1235071E+00
          4   -1    0    0  501    0  0.00000000000E+00  0.00000000000E+00  0.30119571226E+02  0.30146334285E+02  0.12700000000E+01 0.  1.
         -4   -1    0    0    0  501 -0.00000000000E+00 -0.00000000000E+00 -0.12960201830E+03  0.12960824066E+03  0.12700000000E+01 0.  1.
         25    2    1    2    0    0  0.00000000000E+00  0.00000000000E+00 -0.99482447073E+02  0.15975457494E+03  0.12499906776E+03 0.  0.
    9000005    1    3    3    0    0  0.37334947557E+02 -0.47770033935E+02 -0.69094964521E+02  0.91929258528E+02  0.10000000000E+01 0.  0.
    9000005    1    3    3    0    0 -0.37334947557E+02  0.47770033935E+02 -0.30387482551E+02  0.67825316417E+02  0.10000000000E+01 0.  0.
<mgrwt>
<rscale>  0 0.12499907E+03</rscale>
<asrwt>0</asrwt>
<pdfrwt beam="1">  1        4 0.46363176E-02 0.12499907E+03</pdfrwt>
<pdfrwt beam="2">  1       -4 0.19941309E-01 0.12499907E+03</pdfrwt>
<totfact> 0.97392163E+03</totfact>
</mgrwt>
</event>
<event>
 5    1  0.3217852E-002  0.1249948E+03  0.7818608E-02  0.1235077E+00
         -4   -1    0    0    0  501 -0.00000000000E+00  0.00000000000E+00  0.74561921912E+03  0.74562030071E+03  0.12700000000E+01 0. -1.
          4   -1    0    0  501    0  0.00000000000E+00 -0.00000000000E+00 -0.51604255608E+01  0.53144041969E+01  0.12700000000E+01 0. -1.
         25    2    1    2    0    0  0.00000000000E+00  0.00000000000E+00  0.74045879356E+03  0.75093470490E+03  0.12499482415E+03 0.  0.
    9000005    1    3    3    0    0 -0.59182532827E+00  0.54660246060E+02  0.18831986990E+03  0.19609555364E+03  0.10000000000E+01 0.  0.
    9000005    1    3    3    0    0  0.59182532827E+00 -0.54660246060E+02  0.55213892366E+03  0.55483915126E+03  0.10000000000E+01 0.  0.
<mgrwt>
<rscale>  0 0.12499482E+03</rscale>
<asrwt>0</asrwt>
<pdfrwt beam="2">  1        4 0.80583904E-03 0.12499482E+03</pdfrwt>
<pdfrwt beam="1">  1       -4 0.11472262E+00 0.12499482E+03</pdfrwt>
<totfact> 0.40534041E+03</totfact>
</mgrwt>
</event>
<event>
 5    1  0.3217852E-002  0.1250030E+03  0.7818608E-02  0.1235065E+00
          4   -1    0    0  501    0  0.00000000000E+00  0.00000000000E+00  0.13041361789E+02  0.13103053739E+02  0.12700000000E+01 0. -1.
         -4   -1    0    0    0  501 -0.00000000000E+00 -0.00000000000E+00 -0.29877244847E+03  0.29877514766E+03  0.12700000000E+01 0. -1.
         25    2    1    2    0    0  0.00000000000E+00  0.00000000000E+00 -0.28573108668E+03  0.31187820140E+03  0.12500303443E+03 0.  0.
    9000005    1    3    3    0    0  0.51065582418E+02 -0.35231904349E+02 -0.16161248931E+03  0.17311434803E+03  0.10000000000E+01 0.  0.
    9000005    1    3    3    0    0 -0.51065582418E+02  0.35231904349E+02 -0.12411859737E+03  0.13876385338E+03  0.10000000000E+01 0.  0.
<mgrwt>
<rscale>  0 0.12500303E+03</rscale>
<asrwt>0</asrwt>
<pdfrwt beam="1">  1        4 0.20113167E-02 0.12500303E+03</pdfrwt>
<pdfrwt beam="2">  1       -4 0.45969940E-01 0.12500303E+03</pdfrwt>
<totfact> 0.74127626E+03</totfact>
</mgrwt>
</event>
<event>
 5    1  0.3217852E-002  0.1249993E+03  0.7818608E-02  0.1235070E+00
         -4   -1    0    0    0  501 -0.00000000000E+00  0.00000000000E+00  0.16276273541E+03  0.16276769009E+03  0.12700000000E+01 0. -1.
          4   -1    0    0  501    0  0.00000000000E+00 -0.00000000000E+00 -0.23977280091E+02  0.24010890457E+02  0.12700000000E+01 0. -1.
         25    2    1    2    0    0  0.00000000000E+00  0.00000000000E+00  0.13878545532E+03  0.18677858055E+03  0.12499934217E+03 0.  0.
    9000005    1    3    3    0    0  0.27858023756E+02  0.52722737212E+02  0.97325455119E+02  0.11414464824E+03  0.10000000000E+01 0.  0.
    9000005    1    3    3    0    0 -0.27858023756E+02 -0.52722737212E+02  0.41460000198E+02  0.72633932312E+02  0.10000000000E+01 0.  0.
<mgrwt>
<rscale>  0 0.12499934E+03</rscale>
<asrwt>0</asrwt>
<pdfrwt beam="2">  1        4 0.36917788E-02 0.12499934E+03</pdfrwt>
<pdfrwt beam="1">  1       -4 0.25043388E-01 0.12499934E+03</pdfrwt>
<totfact> 0.92412233E+03</totfact>
</mgrwt>
</event>
<event>
 5    1  0.3217852E-002  0.1250015E+03  0.7818608E-02  0.1235067E+00
         -4   -1    0    0    0  501 -0.00000000000E+00  0.00000000000E+00  0.11163583850E+02  0.11235590967E+02  0.12700000000E+01 0.  1.
          4   -1    0    0  501    0  0.00000000000E+00 -0.00000000000E+00 -0.34872052699E+03  0.34872283957E+03  0.12700000000E+01 0.  1.
         25    2    1    2    0    0  0.00000000000E+00  0.00000000000E+00 -0.33755694313E+03  0.35995843054E+03  0.12500152743E+03 0.  0.
    9000005    1    3    3    0    0 -0.17596477903E+02  0.93654917446E+01  0.17773846968E+01  0.20037653720E+02  0.10000000000E+01 0.  0.
    9000005    1    3    3    0    0  0.17596477903E+02 -0.93654917446E+01 -0.33933432783E+03  0.33992077682E+03  0.10000000000E+01 0.  0.
<mgrwt>
<rscale>  0 0.12500153E+03</rscale>
<asrwt>0</asrwt>
<pdfrwt beam="2">  1        4 0.53655020E-01 0.12500153E+03</pdfrwt>
<pdfrwt beam="1">  1       -4 0.17231916E-02 0.12500153E+03</pdfrwt>
<totfact> 0.68640409E+03</totfact>
</mgrwt>
</event>
<event>
 5    1  0.3217852E-002  0.1249989E+03  0.7818608E-02  0.1235071E+00
          4   -1    0    0  501    0  0.00000000000E+00  0.00000000000E+00  0.38644084614E+02  0.38664947636E+02  0.12700000000E+01 0. -1.
         -4   -1    0    0    0  501 -0.00000000000E+00 -0.00000000000E+00 -0.10102884710E+03  0.10103682916E+03  0.12700000000E+01 0. -1.
         25    2    1    2    0    0  0.00000000000E+00  0.00000000000E+00 -0.62384762489E+02  0.13970177680E+03  0.12499891139E+03 0.  0.
    9000005    1    3    3    0    0  0.55803361503E+02 -0.38665715662E+01 -0.62330123180E+02  0.83755655250E+02  0.10000000000E+01 0.  0.
    9000005    1    3    3    0    0 -0.55803361503E+02  0.38665715662E+01 -0.54639309340E-01  0.55946121548E+02  0.10000000000E+01 0.  0.
<mgrwt>
<rscale>  0 0.12499891E+03</rscale>
<asrwt>0</asrwt>
<pdfrwt beam="1">  1        4 0.59474627E-02 0.12499891E+03</pdfrwt>
<pdfrwt beam="2">  1       -4 0.15545118E-01 0.12499891E+03</pdfrwt>
<totfact> 0.10140019E+04</totfact>
</mgrwt>
</event>
<event>
 5    1  0.3217852E-002  0.1249933E+03  0.7818608E-02  0.1235080E+00
         -4   -1    0    0    0  501 -0.00000000000E+00  0.00000000000E+00  0.13821685062E+03  0.13822268517E+03  0.12700000000E+01 0.  1.
          4   -1    0    0  501    0  0.00000000000E+00 -0.00000000000E+00 -0.28238017965E+02  0.28266562554E+02  0.12700000000E+01 0.  1.
         25    2    1    2    0    0  0.00000000000E+00  0.00000000000E+00  0.10997883266E+03  0.16648924773E+03  0.12499330372E+03 0.  0.
    9000005    1    3    3    0    0  0.43011232212E+02  0.40278553159E+02  0.27288490556E+02  0.64946051903E+02  0.10000000000E+01 0.  0.
    9000005    1    3    3    0    0 -0.43011232212E+02 -0.40278553159E+02  0.82690342101E+02  0.10154319582E+03  0.10000000000E+01 0.  0.
<mgrwt>
<rscale>  0 0.12499330E+03</rscale>
<asrwt>0</asrwt>
<pdfrwt beam="2">  1        4 0.43469550E-02 0.12499330E+03</pdfrwt>
<pdfrwt beam="1">  1       -4 0.21266776E-01 0.12499330E+03</pdfrwt>
<totfact> 0.96120550E+03</totfact>
</mgrwt>
</event>
<event>
 5    1  0.3217852E-002  0.1249982E+03  0.7818608E-02  0.1235072E+00
          4   -1    0    0  501    0  0.00000000000E+00  0.00000000000E+00  0.10748954078E+03  0.10749704311E+03  0.12700000000E+01 0. -1.
         -4   -1    0    0    0  501 -0.00000000000E+00 -0.00000000000E+00 -0.36319849681E+02  0.36342047010E+02  0.12700000000E+01 0. -1.
         25    2    1    2    0    0  0.00000000000E+00  0.00000000000E+00  0.71169691096E+02  0.14383909012E+03  0.12499823565E+03 0.  0.
    9000005    1    3    3    0    0 -0.35556285901E+02  0.23042559513E+02  0.88442409163E+02  0.98072772748E+02  0.10000000000E+01 0.  0.
    9000005    1    3    3    0    0  0.35556285901E+02 -0.23042559513E+02 -0.17272718067E+02  0.45766317368E+02  0.10000000000E+01 0.  0.
<mgrwt>
<rscale>  0 0.12499824E+03</rscale>
<asrwt>0</asrwt>
<pdfrwt beam="1">  1        4 0.16539137E-01 0.12499824E+03</pdfrwt>
<pdfrwt beam="2">  1       -4 0.55899539E-02 0.12499824E+03</pdfrwt>
<totfact> 0.10055029E+04</totfact>
</mgrwt>
</event>
<event>
 5    1  0.3217852E-002  0.1250020E+03  0.7818608E-02  0.1235066E+00
         -4   -1    0    0    0  501 -0.00000000000E+00  0.00000000000E+00  0.19133155359E+02  0.19175258382E+02  0.12700000000E+01 0.  1.
          4   -1    0    0  501    0  0.00000000000E+00 -0.00000000000E+00 -0.20389948859E+03  0.20390344368E+03  0.12700000000E+01 0.  1.
         25    2    1    2    0    0  0.00000000000E+00  0.00000000000E+00 -0.18476633323E+03  0.22307870207E+03  0.12500203767E+03 0.  0.
    9000005    1    3    3    0    0 -0.58407214872E+02 -0.21128415983E+02 -0.10469104348E+03  0.12173342719E+03  0.10000000000E+01 0.  0.
    9000005    1    3    3    0    0  0.58407214872E+02  0.21128415983E+02 -0.80075289749E+02  0.10134527487E+03  0.10000000000E+01 0.  0.
<mgrwt>
<rscale>  0 0.12500204E+03</rscale>
<asrwt>0</asrwt>
<pdfrwt beam="2">  1        4 0.31372693E-01 0.12500204E+03</pdfrwt>
<pdfrwt beam="1">  1       -4 0.29471054E-02 0.12500204E+03</pdfrwt>
<totfact> 0.86379588E+03</totfact>
</mgrwt>
</event>
<event>
 5    1  0.3217852E-002  0.1249995E+03  0.7818608E-02  0.1235070E+00
          4   -1    0    0  501    0  0.00000000000E+00  0.00000000000E+00  0.80259246581E+02  0.80269294015E+02  0.12700000000E+01 0. -1.
         -4   -1    0    0    0  501 -0.00000000000E+00 -0.00000000000E+00 -0.48648601040E+02  0.48665175260E+02  0.12700000000E+01 0. -1.
         25    2    1    2    0    0  0.00000000000E+00  0.00000000000E+00  0.31610645541E+02  0.12893446928E+03  0.12499945782E+03 0.  0.
    9000005    1    3    3    0    0  0.35244032299E+02 -0.49014242763E+02  0.32459123125E+02  0.68550218675E+02  0.10000000000E+01 0.  0.
    9000005    1    3    3    0    0 -0.35244032299E+02  0.49014242763E+02 -0.84847758412E+00  0.60384250600E+02  0.10000000000E+01 0.  0.
<mgrwt>
<rscale>  0 0.12499946E+03</rscale>
<asrwt>0</asrwt>
<pdfrwt beam="1">  1        4 0.12349624E-01 0.12499946E+03</pdfrwt>
<pdfrwt beam="2">  1       -4 0.74864480E-02 0.12499946E+03</pdfrwt>
<totfact> 0.10367482E+04</totfact>
</mgrwt>
</event>
<event>
 5    1  0.3217852E-002  0.1250040E+03  0.7818608E-02  0.1235063E+00
         -4   -1    0    0    0  501 -0.00000000000E+00  0.00000000000E+00  0.18067868743E+04  0.18067873207E+04  0.12700000000E+01 0. -1.
          4   -1    0    0  501    0  0.00000000000E+00 -0.00000000000E+00 -0.19751442385E+01  0.23482109707E+01  0.12700000000E+01 0. -1.
         25    2    1    2    0    0  0.00000000000E+00  0.00000000000E+00  0.18048117301E+04  0.18091355316E+04  0.12500396308E+03 0.  0.
    9000005    1    3    3    0    0 -0.19775797506E+02  0.43429163012E+02  0.31839941462E+03  0.32195708037E+03  0.10000000000E+01 0.  0.
    9000005    1    3    3    0    0  0.19775797506E+02 -0.43429163012E+02  0.14864123155E+04  0.14871784513E+04  0.10000000000E+01 0.  0.
<mgrwt>
<rscale>  0 0.12500396E+03</rscale>
<asrwt>0</asrwt>
<pdfrwt beam="2">  1        4 0.33260038E-03 0.12500396E+03</pdfrwt>
<pdfrwt beam="1">  1       -4 0.27799572E+00 0.12500396E+03</pdfrwt>
<totfact> 0.12562200E+03</totfact>
</mgrwt>
</event>
<event>
 5    1  0.3217852E-002  0.1250002E+03  0.7818608E-02  0.1235069E+00
          4   -1    0    0  501    0  0.00000000000E+00  0.00000000000E+00  0.10538702101E+03  0.10539467301E+03  0.12700000000E+01 0.  1.
         -4   -1    0    0    0  501 -0.00000000000E+00 -0.00000000000E+00 -0.37046006862E+02  0.37067769347E+02  0.12700000000E+01 0.  1.
         25    2    1    2    0    0  0.00000000000E+00  0.00000000000E+00  0.68341014152E+02  0.14246244235E+03  0.12500021306E+03 0.  0.
    9000005    1    3    3    0    0 -0.19320909448E+02  0.59414996682E+02  0.32631305930E+02  0.70492847150E+02  0.10000000000E+01 0.  0.
    9000005    1    3    3    0    0  0.19320909448E+02 -0.59414996682E+02  0.35709708222E+02  0.71969595204E+02  0.10000000000E+01 0.  0.
<mgrwt>
<rscale>  0 0.12500021E+03</rscale>
<asrwt>0</asrwt>
<pdfrwt beam="1">  1        4 0.16215650E-01 0.12500021E+03</pdfrwt>
<pdfrwt beam="2">  1       -4 0.57016484E-02 0.12500021E+03</pdfrwt>
<totfact> 0.10082755E+04</totfact>
</mgrwt>
</event>
<event>
 5    1  0.3217852E-002  0.1249963E+03  0.7818608E-02  0.1235075E+00
         -4   -1    0    0    0  501 -0.00000000000E+00  0.00000000000E+00  0.36684118918E+02  0.36706095962E+02  0.12700000000E+01 0.  1.
          4   -1    0    0  501    0  0.00000000000E+00 -0.00000000000E+00 -0.10641948753E+03  0.10642706529E+03  0.12700000000E+01 0.  1.
         25    2    1    2    0    0  0.00000000000E+00  0.00000000000E+00 -0.69735368609E+02  0.14313316125E+03  0.12499632080E+03 0.  0.
    9000005    1    3    3    0    0  0.59437390925E+02  0.64037779077E+01 -0.14027881699E+02  0.61413298857E+02  0.10000000000E+01 0.  0.
    9000005    1    3    3    0    0 -0.59437390925E+02 -0.64037779077E+01 -0.55707486910E+02  0.81719862392E+02  0.10000000000E+01 0.  0.
<mgrwt>
<rscale>  0 0.12499632E+03</rscale>
<asrwt>0</asrwt>
<pdfrwt beam="2">  1        4 0.16374502E-01 0.12499632E+03</pdfrwt>
<pdfrwt beam="1">  1       -4 0.56459841E-02 0.12499632E+03</pdfrwt>
<totfact> 0.10069892E+04</totfact>
</mgrwt>
</event>
<event>
 5    1  0.3217852E-002  0.1250032E+03  0.7818608E-02  0.1235064E+00
          4   -1    0    0  501    0  0.00000000000E+00  0.00000000000E+00  0.12315153897E+04  0.12315160445E+04  0.12700000000E+01 0. -1.
         -4   -1    0    0    0  501 -0.00000000000E+00 -0.00000000000E+00 -0.30442691604E+01  0.32985564601E+01  0.12700000000E+01 0. -1.
         25    2    1    2    0    0  0.00000000000E+00  0.00000000000E+00  0.12284711205E+04  0.12348146010E+04  0.12500321937E+03 0.  0.
    9000005    1    3    3    0    0  0.52568497018E+02 -0.33225346328E+02  0.55327723954E+03  0.55676213441E+03  0.10000000000E+01 0.  0.
    9000005    1    3    3    0    0 -0.52568497018E+02  0.33225346328E+02  0.67519388101E+03  0.67805246660E+03  0.10000000000E+01 0.  0.
<mgrwt>
<rscale>  0 0.12500322E+03</rscale>
<asrwt>0</asrwt>
<pdfrwt beam="1">  1        4 0.18948338E+00 0.12500322E+03</pdfrwt>
<pdfrwt beam="2">  1       -4 0.48796038E-03 0.12500322E+03</pdfrwt>
<totfact> 0.23817586E+03</totfact>
</mgrwt>
</event>
<event>
 5    1  0.3217852E-002  0.1250000E+03  0.7818608E-02  0.1235069E+00
         -4   -1    0    0    0  501 -0.00000000000E+00  0.00000000000E+00  0.94490580073E+01  0.95340231395E+01  0.12700000000E+01 0. -1.
          4   -1    0    0  501    0  0.00000000000E+00 -0.00000000000E+00 -0.41146449298E+03  0.41146645293E+03  0.12700000000E+01 0. -1.
         25    2    1    2    0    0  0.00000000000E+00  0.00000000000E+00 -0.40201543497E+03  0.42100047607E+03  0.12499996356E+03 0.  0.
    9000005    1    3    3    0    0 -0.40157584527E+01 -0.82578308436E+01 -0.40919644973E+03  0.40930068722E+03  0.10000000000E+01 0.  0.
    9000005    1    3    3    0    0  0.40157584527E+01  0.82578308436E+01  0.71810147550E+01  0.11699788849E+02  0.10000000000E+01 0.  0.
<mgrwt>
<rscale>  0 0.12499996E+03</rscale>
<asrwt>0</asrwt>
<pdfrwt beam="2">  1        4 0.63308903E-01 0.12499996E+03</pdfrwt>
<pdfrwt beam="1">  1       -4 0.14603881E-02 0.12499996E+03</pdfrwt>
<totfact> 0.62560358E+03</totfact>
</mgrwt>
</event>
<event>
 5    1  0.3217852E-002  0.1249993E+03  0.7818608E-02  0.1235070E+00
         -4   -1    0    0    0  501 -0.00000000000E+00  0.00000000000E+00  0.15229645582E+03  0.15230175099E+03  0.12700000000E+01 0.  1.
          4   -1    0    0  501    0  0.00000000000E+00 -0.00000000000E+00 -0.25627220223E+02  0.25658669420E+02  0.12700000000E+01 0.  1.
         25    2    1    2    0    0  0.00000000000E+00  0.00000000000E+00  0.12666923559E+03  0.17796042041E+03  0.12499926394E+03 0.  0.
    9000005    1    3    3    0    0 -0.57761577808E+02 -0.13496649576E+02  0.91329067084E+02  0.10890618860E+03  0.10000000000E+01 0.  0.
    9000005    1    3    3    0    0  0.57761577808E+02  0.13496649576E+02  0.35340168510E+02  0.69054231811E+02  0.10000000000E+01 0.  0.
<mgrwt>
<rscale>  0 0.12499926E+03</rscale>
<asrwt>0</asrwt>
<pdfrwt beam="2">  1        4 0.39454757E-02 0.12499926E+03</pdfrwt>
<pdfrwt beam="1">  1       -4 0.23433051E-01 0.12499926E+03</pdfrwt>
<totfact> 0.93986979E+03</totfact>
</mgrwt>
</event>
<event>
 5    1  0.3217852E-002  0.1249953E+03  0.7818608E-02  0.1235077E+00
          4   -1    0    0  501    0  0.00000000000E+00  0.00000000000E+00  0.24686213865E+02  0.24718860309E+02  0.12700000000E+01 0.  1.
         -4   -1    0    0    0  501 -0.00000000000E+00 -0.00000000000E+00 -0.15808446284E+03  0.15808956414E+03  0.12700000000E+01 0.  1.
         25    2    1    2    0    0  0.00000000000E+00  0.00000000000E+00 -0.13339824897E+03  0.18280842445E+03  0.12499530880E+03 0.  0.
    9000005    1    3    3    0    0  0.37683048671E+02 -0.49093084195E+02 -0.54049047959E+02  0.82173247826E+02  0.10000000000E+01 0.  0.
    9000005    1    3    3    0    0 -0.37683048671E+02  0.49093084195E+02 -0.79349201013E+02  0.10063517663E+03  0.10000000000E+01 0.  0.
<mgrwt>
<rscale>  0 0.12499531E+03</rscale>
<asrwt>0</asrwt>
<pdfrwt beam="1">  1        4 0.38007828E-02 0.12499531E+03</pdfrwt>
<pdfrwt beam="2">  1       -4 0.24323590E-01 0.12499531E+03</pdfrwt>
<totfact> 0.93123699E+03</totfact>
</mgrwt>
</event>
<event>
 5    1  0.3217852E-002  0.1249993E+03  0.7818608E-02  0.1235070E+00
          4   -1    0    0  501    0  0.00000000000E+00  0.00000000000E+00  0.88057358735E+02  0.88066516494E+02  0.12700000000E+01 0. -1.
         -4   -1    0    0    0  501 -0.00000000000E+00 -0.00000000000E+00 -0.44339228980E+02  0.44357413433E+02  0.12700000000E+01 0. -1.
         25    2    1    2    0    0  0.00000000000E+00  0.00000000000E+00  0.43718129755E+02  0.13242392993E+03  0.12499928939E+03 0.  0.
    9000005    1    3    3    0    0 -0.61127244268E+02 -0.43186962989E+01  0.88835235252E+01  0.61928249771E+02  0.10000000000E+01 0.  0.
    9000005    1    3    3    0    0  0.61127244268E+02  0.43186962989E+01  0.34834606230E+02  0.70495680156E+02  0.10000000000E+01 0.  0.
<mgrwt>
<rscale>  0 0.12499929E+03</rscale>
<asrwt>0</asrwt>
<pdfrwt beam="1">  1        4 0.13549389E-01 0.12499929E+03</pdfrwt>
<pdfrwt beam="2">  1       -4 0.68235231E-02 0.12499929E+03</pdfrwt>
<totfact> 0.10292823E+04</totfact>
</mgrwt>
</event>
<event>
 5    1  0.3217852E-002  0.1250049E+03  0.7818608E-02  0.1235062E+00
          4   -1    0    0  501    0  0.00000000000E+00  0.00000000000E+00  0.17343636305E+03  0.17344101282E+03  0.12700000000E+01 0.  1.
         -4   -1    0    0    0  501 -0.00000000000E+00 -0.00000000000E+00 -0.22501580251E+02  0.22537391459E+02  0.12700000000E+01 0.  1.
         25    2    1    2    0    0  0.00000000000E+00  0.00000000000E+00  0.15093478280E+03  0.19597840428E+03  0.12500490504E+03 0.  0.
    9000005    1    3    3    0    0 -0.45570380324E+02  0.60874059264E+01  0.91036539358E+01  0.46878487483E+02  0.10000000000E+01 0.  0.
    9000005    1    3    3    0    0  0.45570380324E+02 -0.60874059264E+01  0.14183112887E+03  0.14909991680E+03  0.10000000000E+01 0.  0.
<mgrwt>
<rscale>  0 0.12500491E+03</rscale>
<asrwt>0</asrwt>
<pdfrwt beam="1">  1        4 0.26685630E-01 0.12500491E+03</pdfrwt>
<pdfrwt beam="2">  1       -4 0.34648939E-02 0.12500491E+03</pdfrwt>
<totfact> 0.90807399E+03</totfact>
</mgrwt>
</event>
<event>
 5    1  0.3217852E-002  0.1249980E+03  0.7818608E-02  0.1235072E+00
         -4   -1    0    0    0  501 -0.00000000000E+00  0.00000000000E+00  0.20401047651E+01  0.24031078737E+01  0.12700000000E+01 0. -1.
          4   -1    0    0  501    0  0.00000000000E+00 -0.00000000000E+00 -0.17578797350E+04  0.17578801937E+04  0.12700000000E+01 0. -1.
         25    2    1    2    0    0  0.00000000000E+00  0.00000000000E+00 -0.17558396302E+04  0.17602833016E+04  0.12499797965E+03 0.  0.
    9000005    1    3    3    0    0  0.46458425607E+02  0.41778409209E+02 -0.89399449451E+03  0.89617575118E+03  0.10000000000E+01 0.  0.
    9000005    1    3    3    0    0 -0.46458425607E+02 -0.41778409209E+02 -0.86184513567E+03  0.86410755041E+03  0.10000000000E+01 0.  0.
<mgrwt>
<rscale>  0 0.12499798E+03</rscale>
<asrwt>0</asrwt>
<pdfrwt beam="2">  1        4 0.27046988E+00 0.12499798E+03</pdfrwt>
<pdfrwt beam="1">  1       -4 0.34182228E-03 0.12499798E+03</pdfrwt>
<totfact> 0.13326134E+03</totfact>
</mgrwt>
</event>
<event>
 5    1  0.3217852E-002  0.1250374E+03  0.7818608E-02  0.1235011E+00
         -4   -1    0    0    0  501 -0.00000000000E+00  0.00000000000E+00  0.32650682840E+03  0.32650929832E+03  0.12700000000E+01 0.  1.
          4   -1    0    0  501    0  0.00000000000E+00 -0.00000000000E+00 -0.11934707222E+02  0.12002088838E+02  0.12700000000E+01 0.  1.
         25    2    1    2    0    0  0.00000000000E+00  0.00000000000E+00  0.31457212118E+03  0.33851138716E+03  0.12503735368E+03 0.  0.
    9000005    1    3    3    0    0  0.34170865407E+02 -0.32811798484E+02  0.46872661961E+02  0.66650645921E+02  0.10000000000E+01 0.  0.
    9000005    1    3    3    0    0 -0.34170865407E+02  0.32811798484E+02  0.26769945922E+03  0.27186074124E+03  0.10000000000E+01 0.  0.
<mgrwt>
<rscale>  0 0.12503735E+03</rscale>
<asrwt>0</asrwt>
<pdfrwt beam="2">  1        4 0.18414819E-02 0.12503735E+03</pdfrwt>
<pdfrwt beam="1">  1       -4 0.50237197E-01 0.12503735E+03</pdfrwt>
<totfact> 0.70948508E+03</totfact>
</mgrwt>
</event>
<event>
 5    1  0.3217852E-002  0.1250017E+03  0.7818608E-02  0.1235067E+00
         -4   -1    0    0    0  501 -0.00000000000E+00  0.00000000000E+00  0.40024307538E+02  0.40044451475E+02  0.12700000000E+01 0.  1.
          4   -1    0    0  501    0  0.00000000000E+00 -0.00000000000E+00 -0.97550832390E+02  0.97559099012E+02  0.12700000000E+01 0.  1.
         25    2    1    2    0    0  0.00000000000E+00  0.00000000000E+00 -0.57526524852E+02  0.13760355049E+03  0.12500174417E+03 0.  0.
    9000005    1    3    3    0    0  0.37902358398E+02  0.46832511335E+02 -0.10492215663E+02  0.61163383487E+02  0.10000000000E+01 0.  0.
    9000005    1    3    3    0    0 -0.37902358398E+02 -0.46832511335E+02 -0.47034309189E+02  0.76440167000E+02  0.10000000000E+01 0.  0.
<mgrwt>
<rscale>  0 0.12500174E+03</rscale>
<asrwt>0</asrwt>
<pdfrwt beam="2">  1        4 0.15010006E-01 0.12500174E+03</pdfrwt>
<pdfrwt beam="1">  1       -4 0.61597712E-02 0.12500174E+03</pdfrwt>
<totfact> 0.10183081E+04</totfact>
</mgrwt>
</event>
<event>
 5    1  0.3217852E-002  0.1249950E+03  0.7818608E-02  0.1235077E+00
         -4   -1    0    0    0  501 -0.00000000000E+00  0.00000000000E+00  0.17302716150E+04  0.17302720811E+04  0.12700000000E+01 0. -1.
          4   -1    0    0  501    0  0.00000000000E+00 -0.00000000000E+00 -0.20782877760E+01  0.24356067170E+01  0.12700000000E+01 0. -1.
         25    2    1    2    0    0  0.00000000000E+00  0.00000000000E+00  0.17281933272E+04  0.17327076878E+04  0.12499502030E+03 0.  0.
    9000005    1    3    3    0    0  0.60741420604E+02  0.79417411882E+01  0.69299665342E+03  0.69569961411E+03  0.10000000000E+01 0.  0.
    9000005    1    3    3    0    0 -0.60741420604E+02 -0.79417411882E+01  0.10351966738E+04  0.10370080737E+04  0.10000000000E+01 0.  0.
<mgrwt>
<rscale>  0 0.12499502E+03</rscale>
<asrwt>0</asrwt>
<pdfrwt beam="2">  1        4 0.34725920E-03 0.12499502E+03</pdfrwt>
<pdfrwt beam="1">  1       -4 0.26622262E+00 0.12499502E+03</pdfrwt>
<totfact> 0.13770801E+03</totfact>
</mgrwt>
</event>
<event>
 5    1  0.3217852E-002  0.1249962E+03  0.7818608E-02  0.1235075E+00
         -4   -1    0    0    0  501 -0.00000000000E+00  0.00000000000E+00  0.90214844560E+02  0.90223783333E+02  0.12700000000E+01 0.  1.
          4   -1    0    0  501    0  0.00000000000E+00 -0.00000000000E+00 -0.43276415769E+02  0.43295046620E+02  0.12700000000E+01 0.  1.
         25    2    1    2    0    0  0.00000000000E+00  0.00000000000E+00  0.46938428790E+02  0.13351882995E+03  0.12499624736E+03 0.  0.
    9000005    1    3    3    0    0 -0.20415024547E+02  0.34555829309E+02  0.74632120868E+02  0.84745690343E+02  0.10000000000E+01 0.  0.
    9000005    1    3    3    0    0  0.20415024547E+02 -0.34555829309E+02 -0.27693692078E+02  0.48773139610E+02  0.10000000000E+01 0.  0.
<mgrwt>
<rscale>  0 0.12499625E+03</rscale>
<asrwt>0</asrwt>
<pdfrwt beam="2">  1        4 0.66600309E-02 0.12499625E+03</pdfrwt>
<pdfrwt beam="1">  1       -4 0.13881328E-01 0.12499625E+03</pdfrwt>
<totfact> 0.10270255E+04</totfact>
</mgrwt>
</event>
<event>
 5    1  0.3217852E-002  0.1249985E+03  0.7818608E-02  0.1235072E+00
          4   -1    0    0  501    0  0.00000000000E+00  0.00000000000E+00  0.22149073400E+02  0.22185453623E+02  0.12700000000E+01 0.  1.
         -4   -1    0    0    0  501 -0.00000000000E+00 -0.00000000000E+00 -0.17617425159E+03  0.17617882910E+03  0.12700000000E+01 0.  1.
         25    2    1    2    0    0  0.00000000000E+00  0.00000000000E+00 -0.15402517819E+03  0.19836428273E+03  0.12499853257E+03 0.  0.
    9000005    1    3    3    0    0 -0.47237196271E+02  0.13566969193E+02 -0.15761441939E+02  0.51622072959E+02  0.10000000000E+01 0.  0.
    9000005    1    3    3    0    0  0.47237196271E+02 -0.13566969193E+02 -0.13826373626E+03  0.14674220977E+03  0.10000000000E+01 0.  0.
<mgrwt>
<rscale>  0 0.12499853E+03</rscale>
<asrwt>0</asrwt>
<pdfrwt beam="1">  1        4 0.34107005E-02 0.12499853E+03</pdfrwt>
<pdfrwt beam="2">  1       -4 0.27106881E-01 0.12499853E+03</pdfrwt>
<totfact> 0.90414950E+03</totfact>
</mgrwt>
</event>
<event>
 5    1  0.3217852E-002  0.1249999E+03  0.7818608E-02  0.1235069E+00
          4   -1    0    0  501    0  0.00000000000E+00  0.00000000000E+00  0.83488309772E+02  0.83497968650E+02  0.12700000000E+01 0.  1.
         -4   -1    0    0    0  501 -0.00000000000E+00 -0.00000000000E+00 -0.46766929940E+02  0.46784170784E+02  0.12700000000E+01 0.  1.
         25    2    1    2    0    0  0.00000000000E+00  0.00000000000E+00  0.36721379833E+02  0.13028213943E+03  0.12499990448E+03 0.  0.
    9000005    1    3    3    0    0  0.43737516561E+02  0.37167661673E+02 -0.73988698935E+01  0.57880469114E+02  0.10000000000E+01 0.  0.
    9000005    1    3    3    0    0 -0.43737516561E+02 -0.37167661673E+02  0.44120249726E+02  0.72401670320E+02  0.10000000000E+01 0.  0.
<mgrwt>
<rscale>  0 0.12499990E+03</rscale>
<asrwt>0</asrwt>
<pdfrwt beam="1">  1        4 0.12846424E-01 0.12499990E+03</pdfrwt>
<pdfrwt beam="2">  1       -4 0.71969816E-02 0.12499990E+03</pdfrwt>
<totfact> 0.10338498E+04</totfact>
</mgrwt>
</event>
<event>
 5    1  0.3217852E-002  0.1250003E+03  0.7818608E-02  0.1235069E+00
         -4   -1    0    0    0  501 -0.00000000000E+00  0.00000000000E+00  0.38688042667E+02  0.38708881997E+02  0.12700000000E+01 0.  1.
          4   -1    0    0  501    0  0.00000000000E+00 -0.00000000000E+00 -0.10091639238E+03  0.10092438333E+03  0.12700000000E+01 0.  1.
         25    2    1    2    0    0  0.00000000000E+00  0.00000000000E+00 -0.62228349711E+02  0.13963326533E+03  0.12500032511E+03 0.  0.
    9000005    1    3    3    0    0  0.50805084351E+02  0.25767879824E+02 -0.59814876705E+02  0.82607261798E+02  0.10000000000E+01 0.  0.
    9000005    1    3    3    0    0 -0.50805084351E+02 -0.25767879824E+02 -0.24134730064E+01  0.57026003529E+02  0.10000000000E+01 0.  0.
<mgrwt>
<rscale>  0 0.12500033E+03</rscale>
<asrwt>0</asrwt>
<pdfrwt beam="2">  1        4 0.15527816E-01 0.12500033E+03</pdfrwt>
<pdfrwt beam="1">  1       -4 0.59542243E-02 0.12500033E+03</pdfrwt>
<totfact> 0.10141118E+04</totfact>
</mgrwt>
</event>
<event>
 5    1  0.3217852E-002  0.1249986E+03  0.7818608E-02  0.1235071E+00
         -4   -1    0    0    0  501 -0.00000000000E+00  0.00000000000E+00  0.66054550715E+02  0.66066758435E+02  0.12700000000E+01 0. -1.
          4   -1    0    0  501    0  0.00000000000E+00 -0.00000000000E+00 -0.59110902539E+02  0.59124543964E+02  0.12700000000E+01 0. -1.
         25    2    1    2    0    0  0.00000000000E+00  0.00000000000E+00  0.69436481756E+01  0.12519130240E+03  0.12499859178E+03 0.  0.
    9000005    1    3    3    0    0 -0.10299829542E+02  0.52278189486E+02  0.36172834013E+02  0.64409389882E+02  0.10000000000E+01 0.  0.
    9000005    1    3    3    0    0  0.10299829542E+02 -0.52278189486E+02 -0.29229185837E+02  0.60781912517E+02  0.10000000000E+01 0.  0.
<mgrwt>
<rscale>  0 0.12499859E+03</rscale>
<asrwt>0</asrwt>
<pdfrwt beam="2">  1        4 0.90959735E-02 0.12499859E+03</pdfrwt>
<pdfrwt beam="1">  1       -4 0.10164227E-01 0.12499859E+03</pdfrwt>
<totfact> 0.10449042E+04</totfact>
</mgrwt>
</event>
<event>
 5    1  0.3217852E-002  0.1250016E+03  0.7818608E-02  0.1235067E+00
         -4   -1    0    0    0  501 -0.00000000000E+00  0.00000000000E+00  0.68680417753E+01  0.69844754869E+01  0.12700000000E+01 0. -1.
          4   -1    0    0  501    0  0.00000000000E+00 -0.00000000000E+00 -0.56387399933E+03  0.56387542953E+03  0.12700000000E+01 0. -1.
         25    2    1    2    0    0  0.00000000000E+00  0.00000000000E+00 -0.55700595756E+03  0.57085990501E+03  0.12500157758E+03 0.  0.
    9000005    1    3    3    0    0  0.31912782363E+02  0.53473580940E+02 -0.30245118515E+03  0.30879697041E+03  0.10000000000E+01 0.  0.
    9000005    1    3    3    0    0 -0.31912782363E+02 -0.53473580940E+02 -0.25455477241E+03  0.26206293460E+03  0.10000000000E+01 0.  0.
<mgrwt>
<rscale>  0 0.12500158E+03</rscale>
<asrwt>0</asrwt>
<pdfrwt beam="2">  1        4 0.86758876E-01 0.12500158E+03</pdfrwt>
<pdfrwt beam="1">  1       -4 0.10656887E-02 0.12500158E+03</pdfrwt>
<totfact> 0.50758499E+03</totfact>
</mgrwt>
</event>
<event>
 5    1  0.3217852E-002  0.1250022E+03  0.7818608E-02  0.1235066E+00
          4   -1    0    0  501    0  0.00000000000E+00  0.00000000000E+00  0.46025516698E+03  0.46025691916E+03  0.12700000000E+01 0.  1.
         -4   -1    0    0    0  501 -0.00000000000E+00 -0.00000000000E+00 -0.84381547897E+01  0.85331914461E+01  0.12700000000E+01 0.  1.
         25    2    1    2    0    0  0.00000000000E+00  0.00000000000E+00  0.45181701219E+03  0.46879011060E+03  0.12500222116E+03 0.  0.
    9000005    1    3    3    0    0 -0.20601501168E+01 -0.30657228535E+02  0.21828541308E+02  0.37704046143E+02  0.10000000000E+01 0.  0.
    9000005    1    3    3    0    0  0.20601501168E+01  0.30657228535E+02  0.42998847088E+03  0.43108606446E+03  0.10000000000E+01 0.  0.
<mgrwt>
<rscale>  0 0.12500222E+03</rscale>
<asrwt>0</asrwt>
<pdfrwt beam="1">  1        4 0.70815938E-01 0.12500222E+03</pdfrwt>
<pdfrwt beam="2">  1       -4 0.13056229E-02 0.12500222E+03</pdfrwt>
<totfact> 0.58367022E+03</totfact>
</mgrwt>
</event>
<event>
 5    1  0.3217852E-002  0.1250032E+03  0.7818608E-02  0.1235064E+00
         -4   -1    0    0    0  501 -0.00000000000E+00  0.00000000000E+00  0.11683824493E+02  0.11752644587E+02  0.12700000000E+01 0. -1.
          4   -1    0    0  501    0  0.00000000000E+00 -0.00000000000E+00 -0.33329521093E+03  0.33329763055E+03  0.12700000000E+01 0. -1.
         25    2    1    2    0    0  0.00000000000E+00  0.00000000000E+00 -0.32161138644E+03  0.34505027514E+03  0.12500323390E+03 0.  0.
    9000005    1    3    3    0    0  0.22508207487E+02 -0.56424031601E+02 -0.20129527442E+03  0.21026430570E+03  0.10000000000E+01 0.  0.
    9000005    1    3    3    0    0 -0.22508207487E+02  0.56424031601E+02 -0.12031611202E+03  0.13478596944E+03  0.10000000000E+01 0.  0.
<mgrwt>
<rscale>  0 0.12500323E+03</rscale>
<asrwt>0</asrwt>
<pdfrwt beam="2">  1        4 0.51281659E-01 0.12500323E+03</pdfrwt>
<pdfrwt beam="1">  1       -4 0.18029917E-02 0.12500323E+03</pdfrwt>
<totfact> 0.70267513E+03</totfact>
</mgrwt>
</event>
<event>
 5    1  0.3217852E-002  0.1249966E+03  0.7818608E-02  0.1235075E+00
         -4   -1    0    0    0  501 -0.00000000000E+00  0.00000000000E+00  0.87135315128E+03  0.87135407679E+03  0.12700000000E+01 0.  1.
          4   -1    0    0  501    0  0.00000000000E+00 -0.00000000000E+00 -0.43918320263E+01  0.45717708328E+01  0.12700000000E+01 0.  1.
         25    2    1    2    0    0  0.00000000000E+00  0.00000000000E+00  0.86696131925E+03  0.87592584762E+03  0.12499664579E+03 0.  0.
    9000005    1    3    3    0    0 -0.14744333045E+02  0.20111103895E+02  0.83500963672E+03  0.83538251435E+03  0.10000000000E+01 0.  0.
    9000005    1    3    3    0    0  0.14744333045E+02 -0.20111103895E+02  0.31951682526E+02  0.40543333275E+02  0.10000000000E+01 0.  0.
<mgrwt>
<rscale>  0 0.12499665E+03</rscale>
<asrwt>0</asrwt>
<pdfrwt beam="2">  1        4 0.68957879E-03 0.12499665E+03</pdfrwt>
<pdfrwt beam="1">  1       -4 0.13406831E+00 0.12499665E+03</pdfrwt>
<totfact> 0.35091814E+03</totfact>
</mgrwt>
</event>
<event>
 5    1  0.3217852E-002  0.1249965E+03  0.7818608E-02  0.1235075E+00
          4   -1    0    0  501    0  0.00000000000E+00  0.00000000000E+00  0.37936763097E+01  0.40006099464E+01  0.12700000000E+01 0.  1.
         -4   -1    0    0    0  501 -0.00000000000E+00 -0.00000000000E+00 -0.10020740717E+04  0.10020748765E+04  0.12700000000E+01 0.  1.
         25    2    1    2    0    0  0.00000000000E+00  0.00000000000E+00 -0.99828039538E+03  0.10060754864E+04  0.12499654623E+03 0.  0.
    9000005    1    3    3    0    0  0.14768980659E+02  0.14358846320E+02 -0.24277531014E+02  0.31854321049E+02  0.10000000000E+01 0.  0.
    9000005    1    3    3    0    0 -0.14768980659E+02 -0.14358846320E+02 -0.97400286436E+03  0.97422116537E+03  0.10000000000E+01 0.  0.
<mgrwt>
<rscale>  0 0.12499655E+03</rscale>
<asrwt>0</asrwt>
<pdfrwt beam="1">  1        4 0.59962318E-03 0.12499655E+03</pdfrwt>
<pdfrwt beam="2">  1       -4 0.15418102E+00 0.12499655E+03</pdfrwt>
<totfact> 0.30407052E+03</totfact>
</mgrwt>
</event>
<event>
 5    1  0.3217852E-002  0.1249996E+03  0.7818608E-02  0.1235070E+00
          4   -1    0    0  501    0  0.00000000000E+00  0.00000000000E+00  0.24677965943E+04  0.24677969211E+04  0.12700000000E+01 0.  1.
         -4   -1    0    0    0  501 -0.00000000000E+00 -0.00000000000E+00 -0.13277595086E+01  0.18373473577E+01  0.12700000000E+01 0.  1.
         25    2    1    2    0    0  0.00000000000E+00  0.00000000000E+00  0.24664688348E+04  0.24696342684E+04  0.12499962756E+03 0.  0.
    9000005    1    3    3    0    0  0.59236451776E+02 -0.19814054698E+02  0.11953710679E+04  0.11970023158E+04  0.10000000000E+01 0.  0.
    9000005    1    3    3    0    0 -0.59236451776E+02  0.19814054698E+02  0.12710977669E+04  0.12726319527E+04  0.10000000000E+01 0.  0.
<mgrwt>
<rscale>  0 0.12499963E+03</rscale>
<asrwt>0</asrwt>
<pdfrwt beam="1">  1        4 0.37969894E+00 0.12499963E+03</pdfrwt>
<pdfrwt beam="2">  1       -4 0.24349573E-03 0.12499963E+03</pdfrwt>
<totfact> 0.49124465E+02</totfact>
</mgrwt>
</event>
<event>
 5    1  0.3217852E-002  0.1249995E+03  0.7818608E-02  0.1235070E+00
         -4   -1    0    0    0  501 -0.00000000000E+00  0.00000000000E+00  0.18883871716E+02  0.18926529291E+02  0.12700000000E+01 0.  1.
          4   -1    0    0  501    0  0.00000000000E+00 -0.00000000000E+00 -0.20657668144E+03  0.20658058528E+03  0.12700000000E+01 0.  1.
         25    2    1    2    0    0  0.00000000000E+00  0.00000000000E+00 -0.18769280972E+03  0.22550711457E+03  0.12499947160E+03 0.  0.
    9000005    1    3    3    0    0 -0.43470554426E+01  0.73162499566E+01  0.17842421908E+02  0.19793342921E+02  0.10000000000E+01 0.  0.
    9000005    1    3    3    0    0  0.43470554426E+01 -0.73162499566E+01 -0.20553523163E+03  0.20571377165E+03  0.10000000000E+01 0.  0.
<mgrwt>
<rscale>  0 0.12499947E+03</rscale>
<asrwt>0</asrwt>
<pdfrwt beam="2">  1        4 0.31784608E-01 0.12499947E+03</pdfrwt>
<pdfrwt beam="1">  1       -4 0.29087928E-02 0.12499947E+03</pdfrwt>
<totfact> 0.86005308E+03</totfact>
</mgrwt>
</event>
<event>
 5    1  0.3217852E-002  0.1250000E+03  0.7818608E-02  0.1235069E+00
          4   -1    0    0  501    0  0.00000000000E+00  0.00000000000E+00  0.83147950492E+01  0.84112256366E+01  0.12700000000E+01 0. -1.
         -4   -1    0    0    0  501 -0.00000000000E+00 -0.00000000000E+00 -0.46698921869E+03  0.46699094560E+03  0.12700000000E+01 0. -1.
         25    2    1    2    0    0  0.00000000000E+00  0.00000000000E+00 -0.45867442365E+03  0.47540217124E+03  0.12499999006E+03 0.  0.
    9000005    1    3    3    0    0  0.41509395046E+02 -0.22023624158E+02 -0.72656668602E+02  0.86533585332E+02  0.10000000000E+01 0.  0.
    9000005    1    3    3    0    0 -0.41509395046E+02  0.22023624158E+02 -0.38601775504E+03  0.38886858591E+03  0.10000000000E+01 0.  0.
<mgrwt>
<rscale>  0 0.12499999E+03</rscale>
<asrwt>0</asrwt>
<pdfrwt beam="1">  1        4 0.12867502E-02 0.12499999E+03</pdfrwt>
<pdfrwt beam="2">  1       -4 0.71852025E-01 0.12499999E+03</pdfrwt>
<totfact> 0.57824696E+03</totfact>
</mgrwt>
</event>
<event>
 5    1  0.3217852E-002  0.1250174E+03  0.7818608E-02  0.1235042E+00
         -4   -1    0    0    0  501 -0.00000000000E+00  0.00000000000E+00  0.30534174780E+03  0.30534438892E+03  0.12700000000E+01 0.  1.
          4   -1    0    0  501    0  0.00000000000E+00 -0.00000000000E+00 -0.12762398780E+02  0.12825432649E+02  0.12700000000E+01 0.  1.
         25    2    1    2    0    0  0.00000000000E+00  0.00000000000E+00  0.29257934902E+03  0.31816982157E+03  0.12501743834E+03 0.  0.
    9000005    1    3    3    0    0 -0.22419080842E+02  0.22838433543E+02  0.96599390787E+01  0.33444336673E+02  0.10000000000E+01 0.  0.
    9000005    1    3    3    0    0  0.22419080842E+02 -0.22838433543E+02  0.28291940994E+03  0.28472548490E+03  0.10000000000E+01 0.  0.
<mgrwt>
<rscale>  0 0.12501744E+03</rscale>
<asrwt>0</asrwt>
<pdfrwt beam="2">  1        4 0.19684981E-02 0.12501744E+03</pdfrwt>
<pdfrwt beam="1">  1       -4 0.46980700E-01 0.12501744E+03</pdfrwt>
<totfact> 0.73345973E+03</totfact>
</mgrwt>
</event>
<event>
 5    1  0.3217852E-002  0.1249984E+03  0.7818608E-02  0.1235072E+00
         -4   -1    0    0    0  501 -0.00000000000E+00  0.00000000000E+00  0.13962009664E+03  0.13962587256E+03  0.12700000000E+01 0. -1.
          4   -1    0    0  501    0  0.00000000000E+00 -0.00000000000E+00 -0.27956213491E+02  0.27985045520E+02  0.12700000000E+01 0. -1.
         25    2    1    2    0    0  0.00000000000E+00  0.00000000000E+00  0.11166388315E+03  0.16761091808E+03  0.12499838822E+03 0.  0.
    9000005    1    3    3    0    0 -0.58473426655E+02  0.20704045101E+01  0.85262310799E+02  0.10341223256E+03  0.10000000000E+01 0.  0.
    9000005    1    3    3    0    0  0.58473426655E+02 -0.20704045101E+01  0.26401572354E+02  0.64198685519E+02  0.10000000000E+01 0.  0.
<mgrwt>
<rscale>  0 0.12499839E+03</rscale>
<asrwt>0</asrwt>
<pdfrwt beam="2">  1        4 0.43036180E-02 0.12499839E+03</pdfrwt>
<pdfrwt beam="1">  1       -4 0.21482677E-01 0.12499839E+03</pdfrwt>
<totfact> 0.95898669E+03</totfact>
</mgrwt>
</event>
<event>
 5    1  0.3217852E-002  0.1249980E+03  0.7818608E-02  0.1235072E+00
          4   -1    0    0  501    0  0.00000000000E+00  0.00000000000E+00  0.40189815419E+01  0.42148680447E+01  0.12700000000E+01 0.  1.
         -4   -1    0    0    0  501 -0.00000000000E+00 -0.00000000000E+00 -0.94860076330E+03  0.94860161344E+03  0.12700000000E+01 0.  1.
         25    2    1    2    0    0  0.00000000000E+00  0.00000000000E+00 -0.94458178176E+03  0.95281648149E+03  0.12499801987E+03 0.  0.
    9000005    1    3    3    0    0 -0.37704186396E+02  0.49359081692E+02 -0.52466113595E+03  0.52832587689E+03  0.10000000000E+01 0.  0.
    9000005    1    3    3    0    0  0.37704186396E+02 -0.49359081692E+02 -0.41992064580E+03  0.42449060459E+03  0.10000000000E+01 0.  0.
<mgrwt>
<rscale>  0 0.12499802E+03</rscale>
<asrwt>0</asrwt>
<pdfrwt beam="1">  1        4 0.63343920E-03 0.12499802E+03</pdfrwt>
<pdfrwt beam="2">  1       -4 0.14595354E+00 0.12499802E+03</pdfrwt>
<totfact> 0.32217614E+03</totfact>
</mgrwt>
</event>
<event>
 5    1  0.3217852E-002  0.1250016E+03  0.7818608E-02  0.1235067E+00
         -4   -1    0    0    0  501 -0.00000000000E+00  0.00000000000E+00  0.15666943068E+02  0.15718333407E+02  0.12700000000E+01 0. -1.
          4   -1    0    0  501    0  0.00000000000E+00 -0.00000000000E+00 -0.24887579460E+03  0.24887903495E+03  0.12700000000E+01 0. -1.
         25    2    1    2    0    0  0.00000000000E+00  0.00000000000E+00 -0.23320885153E+03  0.26459736836E+03  0.12500159563E+03 0.  0.
    9000005    1    3    3    0    0  0.37355075449E+02  0.19099379187E+00 -0.22265161826E+03  0.22576576635E+03  0.10000000000E+01 0.  0.
    9000005    1    3    3    0    0 -0.37355075449E+02 -0.19099379187E+00 -0.10557233273E+02  0.38831602012E+02  0.10000000000E+01 0.  0.
<mgrwt>
<rscale>  0 0.12500160E+03</rscale>
<asrwt>0</asrwt>
<pdfrwt beam="2">  1        4 0.38292783E-01 0.12500160E+03</pdfrwt>
<pdfrwt beam="1">  1       -4 0.24145015E-02 0.12500160E+03</pdfrwt>
<totfact> 0.80262335E+03</totfact>
</mgrwt>
</event>
<event>
 5    1  0.3217852E-002  0.1249998E+03  0.7818608E-02  0.1235070E+00
         -4   -1    0    0    0  501 -0.00000000000E+00  0.00000000000E+00  0.63775081172E+02  0.63787725140E+02  0.12700000000E+01 0. -1.
          4   -1    0    0  501    0  0.00000000000E+00 -0.00000000000E+00 -0.61224947540E+02  0.61238118041E+02  0.12700000000E+01 0. -1.
         25    2    1    2    0    0  0.00000000000E+00  0.00000000000E+00  0.25501336326E+01  0.12502584318E+03  0.12499983313E+03 0.  0.
    9000005    1    3    3    0    0  0.31252130135E+02 -0.36133603456E+02  0.41568764775E+02  0.63334786189E+02  0.10000000000E+01 0.  0.
    9000005    1    3    3    0    0 -0.31252130135E+02  0.36133603456E+02 -0.39018631142E+02  0.61691056993E+02  0.10000000000E+01 0.  0.
<mgrwt>
<rscale>  0 0.12499983E+03</rscale>
<asrwt>0</asrwt>
<pdfrwt beam="2">  1        4 0.94212084E-02 0.12499983E+03</pdfrwt>
<pdfrwt beam="1">  1       -4 0.98135367E-02 0.12499983E+03</pdfrwt>
<totfact> 0.10452341E+04</totfact>
</mgrwt>
</event>
<event>
 5    1  0.3217852E-002  0.1250004E+03  0.7818608E-02  0.1235069E+00
          4   -1    0    0  501    0  0.00000000000E+00  0.00000000000E+00  0.69488747370E+03  0.69488863425E+03  0.12700000000E+01 0.  1.
         -4   -1    0    0    0  501 -0.00000000000E+00 -0.00000000000E+00 -0.55485395179E+01  0.56920287053E+01  0.12700000000E+01 0.  1.
         25    2    1    2    0    0  0.00000000000E+00  0.00000000000E+00  0.68933893418E+03  0.70058066295E+03  0.12500039649E+03 0.  0.
    9000005    1    3    3    0    0 -0.62486950097E+02  0.65553369544E+00  0.34733460623E+03  0.35291270499E+03  0.10000000000E+01 0.  0.
    9000005    1    3    3    0    0  0.62486950097E+02 -0.65553369544E+00  0.34200432795E+03  0.34766795796E+03  0.10000000000E+01 0.  0.
<mgrwt>
<rscale>  0 0.12500040E+03</rscale>
<asrwt>0</asrwt>
<pdfrwt beam="1">  1        4 0.10691689E+00 0.12500040E+03</pdfrwt>
<pdfrwt beam="2">  1       -4 0.86474837E-03 0.12500040E+03</pdfrwt>
<totfact> 0.43055681E+03</totfact>
</mgrwt>
</event>
<event>
 5    1  0.3217852E-002  0.1249991E+03  0.7818608E-02  0.1235071E+00
         -4   -1    0    0    0  501 -0.00000000000E+00  0.00000000000E+00  0.17086704698E+02  0.17133837207E+02  0.12700000000E+01 0.  1.
          4   -1    0    0  501    0  0.00000000000E+00 -0.00000000000E+00 -0.22824628316E+03  0.22824981638E+03  0.12700000000E+01 0.  1.
         25    2    1    2    0    0  0.00000000000E+00  0.00000000000E+00 -0.21115957846E+03  0.24538365359E+03  0.12499907948E+03 0.  0.
    9000005    1    3    3    0    0  0.46433818689E+02 -0.27716851577E+02 -0.44098305785E+02  0.69785270312E+02  0.10000000000E+01 0.  0.
    9000005    1    3    3    0    0 -0.46433818689E+02  0.27716851577E+02 -0.16706127268E+03  0.17559838327E+03  0.10000000000E+01 0.  0.
<mgrwt>
<rscale>  0 0.12499908E+03</rscale>
<asrwt>0</asrwt>
<pdfrwt beam="2">  1        4 0.35118708E-01 0.12499908E+03</pdfrwt>
<pdfrwt beam="1">  1       -4 0.26326213E-02 0.12499908E+03</pdfrwt>
<totfact> 0.83003749E+03</totfact>
</mgrwt>
</event>
<event>
 5    1  0.3217852E-002  0.1250015E+03  0.7818608E-02  0.1235067E+00
         -4   -1    0    0    0  501 -0.00000000000E+00  0.00000000000E+00  0.71149502216E+02  0.71160835898E+02  0.12700000000E+01 0.  1.
          4   -1    0    0  501    0  0.00000000000E+00 -0.00000000000E+00 -0.54880253539E+02  0.54894946293E+02  0.12700000000E+01 0.  1.
         25    2    1    2    0    0  0.00000000000E+00  0.00000000000E+00  0.16269248678E+02  0.12605578219E+03  0.12500148708E+03 0.  0.
    9000005    1    3    3    0    0  0.50464488451E+02  0.17957622419E+02  0.40596217877E+02  0.67217510394E+02  0.10000000000E+01 0.  0.
    9000005    1    3    3    0    0 -0.50464488451E+02 -0.17957622419E+02 -0.24326969199E+02  0.58838271797E+02  0.10000000000E+01 0.  0.
<mgrwt>
<rscale>  0 0.12500149E+03</rscale>
<asrwt>0</asrwt>
<pdfrwt beam="2">  1        4 0.84451181E-02 0.12500149E+03</pdfrwt>
<pdfrwt beam="1">  1       -4 0.10948079E-01 0.12500149E+03</pdfrwt>
<totfact> 0.10429385E+04</totfact>
</mgrwt>
</event>
<event>
 5    1  0.3217852E-002  0.1250004E+03  0.7818608E-02  0.1235069E+00
         -4   -1    0    0    0  501 -0.00000000000E+00  0.00000000000E+00  0.22211011786E+02  0.22247290724E+02  0.12700000000E+01 0.  1.
          4   -1    0    0  501    0  0.00000000000E+00 -0.00000000000E+00 -0.17568911782E+03  0.17569370797E+03  0.12700000000E+01 0.  1.
         25    2    1    2    0    0  0.00000000000E+00  0.00000000000E+00 -0.15347810603E+03  0.19794099869E+03  0.12500043973E+03 0.  0.
    9000005    1    3    3    0    0 -0.17331708042E+02 -0.59801861946E+02 -0.85211517618E+02  0.10553981964E+03  0.10000000000E+01 0.  0.
    9000005    1    3    3    0    0  0.17331708042E+02  0.59801861946E+02 -0.68266588415E+02  0.92401179049E+02  0.10000000000E+01 0.  0.
<mgrwt>
<rscale>  0 0.12500044E+03</rscale>
<asrwt>0</asrwt>
<pdfrwt beam="2">  1        4 0.27032238E-01 0.12500044E+03</pdfrwt>
<pdfrwt beam="1">  1       -4 0.34202226E-02 0.12500044E+03</pdfrwt>
<totfact> 0.90482780E+03</totfact>
</mgrwt>
</event>
<event>
 5    1  0.3217852E-002  0.1249994E+03  0.7818608E-02  0.1235070E+00
         -4   -1    0    0    0  501 -0.00000000000E+00  0.00000000000E+00  0.81832836982E+02  0.81842691235E+02  0.12700000000E+01 0.  1.
          4   -1    0    0  501    0  0.00000000000E+00 -0.00000000000E+00 -0.47712845134E+02  0.47729744298E+02  0.12700000000E+01 0.  1.
         25    2    1    2    0    0  0.00000000000E+00  0.00000000000E+00  0.34119991848E+02  0.12957243553E+03  0.12499936882E+03 0.  0.
    9000005    1    3    3    0    0 -0.53507284882E+02  0.31801301174E+02  0.11301745907E+02  0.63269911904E+02  0.10000000000E+01 0.  0.
    9000005    1    3    3    0    0  0.53507284882E+02 -0.31801301174E+02  0.22818245942E+02  0.66302523629E+02  0.10000000000E+01 0.  0.
<mgrwt>
<rscale>  0 0.12499937E+03</rscale>
<asrwt>0</asrwt>
<pdfrwt beam="2">  1        4 0.73424958E-02 0.12499937E+03</pdfrwt>
<pdfrwt beam="1">  1       -4 0.12591725E-01 0.12499937E+03</pdfrwt>
<totfact> 0.10353810E+04</totfact>
</mgrwt>
</event>
<event>
 5    1  0.3217852E-002  0.1250025E+03  0.7818608E-02  0.1235065E+00
         -4   -1    0    0    0  501 -0.00000000000E+00  0.00000000000E+00  0.52860928926E+02  0.52876182794E+02  0.12700000000E+01 0.  1.
          4   -1    0    0  501    0  0.00000000000E+00 -0.00000000000E+00 -0.73868325531E+02  0.73879242123E+02  0.12700000000E+01 0.  1.
         25    2    1    2    0    0  0.00000000000E+00  0.00000000000E+00 -0.21007396605E+02  0.12675542492E+03  0.12500250811E+03 0.  0.
    9000005    1    3    3    0    0 -0.61040060095E+02 -0.84306057763E+01 -0.21063311407E+02  0.65127775469E+02  0.10000000000E+01 0.  0.
    9000005    1    3    3    0    0  0.61040060095E+02  0.84306057763E+01  0.55914802216E-01  0.61627649449E+02  0.10000000000E+01 0.  0.
<mgrwt>
<rscale>  0 0.12500251E+03</rscale>
<asrwt>0</asrwt>
<pdfrwt beam="2">  1        4 0.11366371E-01 0.12500251E+03</pdfrwt>
<pdfrwt beam="1">  1       -4 0.81344637E-02 0.12500251E+03</pdfrwt>
<totfact> 0.10413874E+04</totfact>
</mgrwt>
</event>
<event>
 5    1  0.3217852E-002  0.1249979E+03  0.7818608E-02  0.1235073E+00
          4   -1    0    0  501    0  0.00000000000E+00  0.00000000000E+00  0.22365153357E+03  0.22365513938E+03  0.12700000000E+01 0.  1.
         -4   -1    0    0    0  501 -0.00000000000E+00 -0.00000000000E+00 -0.17438362080E+02  0.17484546664E+02  0.12700000000E+01 0.  1.
         25    2    1    2    0    0  0.00000000000E+00  0.00000000000E+00  0.20621317149E+03  0.24113968604E+03  0.12499790433E+03 0.  0.
    9000005    1    3    3    0    0  0.12834048972E+02 -0.26454271575E+02 -0.32695020081E+01  0.29601198303E+02  0.10000000000E+01 0.  0.
    9000005    1    3    3    0    0 -0.12834048972E+02  0.26454271575E+02  0.20948267350E+03  0.21153848774E+03  0.10000000000E+01 0.  0.
<mgrwt>
<rscale>  0 0.12499790E+03</rscale>
<asrwt>0</asrwt>
<pdfrwt beam="1">  1        4 0.34411755E-01 0.12499790E+03</pdfrwt>
<pdfrwt beam="2">  1       -4 0.26866552E-02 0.12499790E+03</pdfrwt>
<totfact> 0.83631833E+03</totfact>
</mgrwt>
</event>
<event>
 5    1  0.3217852E-002  0.1249943E+03  0.7818608E-02  0.1235078E+00
          4   -1    0    0  501    0  0.00000000000E+00  0.00000000000E+00  0.42714437281E+02  0.42733313144E+02  0.12700000000E+01 0.  1.
         -4   -1    0    0    0  501 -0.00000000000E+00 -0.00000000000E+00 -0.91398494705E+02  0.91407317728E+02  0.12700000000E+01 0.  1.
         25    2    1    2    0    0  0.00000000000E+00  0.00000000000E+00 -0.48684057423E+02  0.13414063087E+03  0.12499428548E+03 0.  0.
    9000005    1    3    3    0    0  0.38426939880E+02 -0.40159264088E+02 -0.54988556524E+02  0.78192950764E+02  0.10000000000E+01 0.  0.
    9000005    1    3    3    0    0 -0.38426939880E+02  0.40159264088E+02  0.63044991002E+01  0.55947680108E+02  0.10000000000E+01 0.  0.
<mgrwt>
<rscale>  0 0.12499429E+03</rscale>
<asrwt>0</asrwt>
<pdfrwt beam="1">  1        4 0.65735826E-02 0.12499429E+03</pdfrwt>
<pdfrwt beam="2">  1       -4 0.14063437E-01 0.12499429E+03</pdfrwt>
<totfact> 0.10257538E+04</totfact>
</mgrwt>
</event>
<event>
 5    1  0.3217852E-002  0.1250010E+03  0.7818608E-02  0.1235068E+00
         -4   -1    0    0    0  501 -0.00000000000E+00  0.00000000000E+00  0.15686976616E+02  0.15738301539E+02  0.12700000000E+01 0. -1.
          4   -1    0    0  501    0  0.00000000000E+00 -0.00000000000E+00 -0.24855655209E+03  0.24855979661E+03  0.12700000000E+01 0. -1.
         25    2    1    2    0    0  0.00000000000E+00  0.00000000000E+00 -0.23286957548E+03  0.26429809815E+03  0.12500098200E+03 0.  0.
    9000005    1    3    3    0    0 -0.59112131303E+02 -0.18616511180E+00 -0.73568213852E+02  0.94379875048E+02  0.10000000000E+01 0.  0.
    9000005    1    3    3    0    0  0.59112131303E+02  0.18616511180E+00 -0.15930136163E+03  0.16991822310E+03  0.10000000000E+01 0.  0.
<mgrwt>
<rscale>  0 0.12500098E+03</rscale>
<asrwt>0</asrwt>
<pdfrwt beam="2">  1        4 0.38243664E-01 0.12500098E+03</pdfrwt>
<pdfrwt beam="1">  1       -4 0.24175789E-02 0.12500098E+03</pdfrwt>
<totfact> 0.80304889E+03</totfact>
</mgrwt>
</event>
<event>
 5    1  0.3217852E-002  0.1249993E+03  0.7818608E-02  0.1235070E+00
          4   -1    0    0  501    0  0.00000000000E+00  0.00000000000E+00  0.46842161474E+01  0.48533267885E+01  0.12700000000E+01 0. -1.
         -4   -1    0    0    0  501 -0.00000000000E+00 -0.00000000000E+00 -0.81895281761E+03  0.81895380234E+03  0.12700000000E+01 0. -1.
         25    2    1    2    0    0  0.00000000000E+00  0.00000000000E+00 -0.81426860146E+03  0.82380712913E+03  0.12499932272E+03 0.  0.
    9000005    1    3    3    0    0  0.24982712791E+02  0.29767764762E+02 -0.72966145519E+03  0.73069630829E+03  0.10000000000E+01 0.  0.
    9000005    1    3    3    0    0 -0.24982712791E+02 -0.29767764762E+02 -0.84607146264E+02  0.93110820834E+02  0.10000000000E+01 0.  0.
<mgrwt>
<rscale>  0 0.12499932E+03</rscale>
<asrwt>0</asrwt>
<pdfrwt beam="1">  1        4 0.73373355E-03 0.12499932E+03</pdfrwt>
<pdfrwt beam="2">  1       -4 0.12600571E+00 0.12499932E+03</pdfrwt>
<totfact> 0.37224335E+03</totfact>
</mgrwt>
</event>
<event>
 5    1  0.3217852E-002  0.1249850E+03  0.7818608E-02  0.1235093E+00
         -4   -1    0    0    0  501 -0.00000000000E+00  0.00000000000E+00  0.19509590638E+02  0.19550883020E+02  0.12700000000E+01 0.  1.
          4   -1    0    0  501    0  0.00000000000E+00 -0.00000000000E+00 -0.19991898459E+03  0.19992301844E+03  0.12700000000E+01 0.  1.
         25    2    1    2    0    0  0.00000000000E+00  0.00000000000E+00 -0.18040939396E+03  0.21947390146E+03  0.12498497507E+03 0.  0.
    9000005    1    3    3    0    0 -0.29071550102E+02 -0.39037914570E+02 -0.21401730947E+02  0.53180333647E+02  0.10000000000E+01 0.  0.
    9000005    1    3    3    0    0  0.29071550102E+02  0.39037914570E+02 -0.15900766301E+03  0.16629356781E+03  0.10000000000E+01 0.  0.
<mgrwt>
<rscale>  0 0.12498498E+03</rscale>
<asrwt>0</asrwt>
<pdfrwt beam="2">  1        4 0.30760252E-01 0.12498498E+03</pdfrwt>
<pdfrwt beam="1">  1       -4 0.30049623E-02 0.12498498E+03</pdfrwt>
<totfact> 0.86980856E+03</totfact>
</mgrwt>
</event>
<event>
 5    1  0.3217852E-002  0.1250003E+03  0.7818608E-02  0.1235069E+00
          4   -1    0    0  501    0  0.00000000000E+00  0.00000000000E+00  0.66465921108E+01  0.67668372736E+01  0.12700000000E+01 0. -1.
         -4   -1    0    0    0  501 -0.00000000000E+00 -0.00000000000E+00 -0.58232016301E+03  0.58232154790E+03  0.12700000000E+01 0. -1.
         25    2    1    2    0    0  0.00000000000E+00  0.00000000000E+00 -0.57567357090E+03  0.58908838518E+03  0.12500026126E+03 0.  0.
    9000005    1    3    3    0    0  0.57156208073E+02 -0.42586002551E+01 -0.40521024776E+03  0.40924480777E+03  0.10000000000E+01 0.  0.
    9000005    1    3    3    0    0 -0.57156208073E+02  0.42586002551E+01 -0.17046332314E+03  0.17984357741E+03  0.10000000000E+01 0.  0.
<mgrwt>
<rscale>  0 0.12500026E+03</rscale>
<asrwt>0</asrwt>
<pdfrwt beam="1">  1        4 0.10319092E-02 0.12500026E+03</pdfrwt>
<pdfrwt beam="2">  1       -4 0.89597034E-01 0.12500026E+03</pdfrwt>
<totfact> 0.49563439E+03</totfact>
</mgrwt>
</event>
<event>
 5    1  0.3217852E-002  0.1250014E+03  0.7818608E-02  0.1235067E+00
         -4   -1    0    0    0  501 -0.00000000000E+00  0.00000000000E+00  0.88163050800E+03  0.88163142273E+03  0.12700000000E+01 0. -1.
          4   -1    0    0  501    0  0.00000000000E+00 -0.00000000000E+00 -0.43388705220E+01  0.45209177615E+01  0.12700000000E+01 0. -1.
         25    2    1    2    0    0  0.00000000000E+00  0.00000000000E+00  0.87729163748E+03  0.88615234049E+03  0.12500141344E+03 0.  0.
    9000005    1    3    3    0    0  0.25957212820E+02  0.36085217383E+02  0.75003727147E+03  0.75135399673E+03  0.10000000000E+01 0.  0.
    9000005    1    3    3    0    0 -0.25957212820E+02 -0.36085217383E+02  0.12725436601E+03  0.13479834376E+03  0.10000000000E+01 0.  0.
<mgrwt>
<rscale>  0 0.12500141E+03</rscale>
<asrwt>0</asrwt>
<pdfrwt beam="2">  1        4 0.68159284E-03 0.12500141E+03</pdfrwt>
<pdfrwt beam="1">  1       -4 0.13564948E+00 0.12500141E+03</pdfrwt>
<totfact> 0.34690766E+03</totfact>
</mgrwt>
</event>
<event>
 5    1  0.3217852E-002  0.1250015E+03  0.7818608E-02  0.1235067E+00
          4   -1    0    0  501    0  0.00000000000E+00  0.00000000000E+00  0.29211748282E+02  0.29239342292E+02  0.12700000000E+01 0. -1.
         -4   -1    0    0    0  501 -0.00000000000E+00 -0.00000000000E+00 -0.13363139591E+03  0.13363743066E+03  0.12700000000E+01 0. -1.
         25    2    1    2    0    0  0.00000000000E+00  0.00000000000E+00 -0.10441964763E+03  0.16287677295E+03  0.12500152141E+03 0.  0.
    9000005    1    3    3    0    0 -0.46189181812E+01  0.16033381201E+02 -0.13068171601E+03  0.13174640267E+03  0.10000000000E+01 0.  0.
    9000005    1    3    3    0    0  0.46189181812E+01 -0.16033381201E+02  0.26262068382E+02  0.31130370277E+02  0.10000000000E+01 0.  0.
<mgrwt>
<rscale>  0 0.12500152E+03</rscale>
<asrwt>0</asrwt>
<pdfrwt beam="1">  1        4 0.44967020E-02 0.12500152E+03</pdfrwt>
<pdfrwt beam="2">  1       -4 0.20561263E-01 0.12500152E+03</pdfrwt>
<totfact> 0.96787707E+03</totfact>
</mgrwt>
</event>
<event>
 5    1  0.3217852E-002  0.1249957E+03  0.7818608E-02  0.1235076E+00
          4   -1    0    0  501    0  0.00000000000E+00  0.00000000000E+00  0.34951365820E+02  0.34974431699E+02  0.12700000000E+01 0. -1.
         -4   -1    0    0    0  501 -0.00000000000E+00 -0.00000000000E+00 -0.11169114446E+03  0.11169836458E+03  0.12700000000E+01 0. -1.
         25    2    1    2    0    0  0.00000000000E+00  0.00000000000E+00 -0.76739778638E+02  0.14667279628E+03  0.12499566210E+03 0.  0.
    9000005    1    3    3    0    0 -0.12607955813E+02 -0.49232396809E+02 -0.81037809369E+02  0.95660420199E+02  0.10000000000E+01 0.  0.
    9000005    1    3    3    0    0  0.12607955813E+02  0.49232396809E+02  0.42980307308E+01  0.51012376082E+02  0.10000000000E+01 0.  0.
<mgrwt>
<rscale>  0 0.12499566E+03</rscale>
<asrwt>0</asrwt>
<pdfrwt beam="1">  1        4 0.53794630E-02 0.12499566E+03</pdfrwt>
<pdfrwt beam="2">  1       -4 0.17185583E-01 0.12499566E+03</pdfrwt>
<totfact> 0.99980874E+03</totfact>
</mgrwt>
</event>
<event>
 5    1  0.3217852E-002  0.1250021E+03  0.7818608E-02  0.1235066E+00
          4   -1    0    0  501    0  0.00000000000E+00  0.00000000000E+00  0.31814807667E+03  0.31815061149E+03  0.12700000000E+01 0. -1.
         -4   -1    0    0    0  501 -0.00000000000E+00 -0.00000000000E+00 -0.12243076925E+02  0.12308770556E+02  0.12700000000E+01 0. -1.
         25    2    1    2    0    0  0.00000000000E+00  0.00000000000E+00  0.30590499975E+03  0.33045938204E+03  0.12500213722E+03 0.  0.
    9000005    1    3    3    0    0 -0.25852076026E+01 -0.57181353970E+02  0.21925403240E+03  0.22660476885E+03  0.10000000000E+01 0.  0.
    9000005    1    3    3    0    0  0.25852076026E+01  0.57181353970E+02  0.86650967342E+02  0.10385461319E+03  0.10000000000E+01 0.  0.
<mgrwt>
<rscale>  0 0.12500214E+03</rscale>
<asrwt>0</asrwt>
<pdfrwt beam="1">  1        4 0.48951102E-01 0.12500214E+03</pdfrwt>
<pdfrwt beam="2">  1       -4 0.18887988E-02 0.12500214E+03</pdfrwt>
<totfact> 0.71925745E+03</totfact>
</mgrwt>
</event>
<event>
 5    1  0.3217852E-002  0.1249958E+03  0.7818608E-02  0.1235076E+00
          4   -1    0    0  501    0  0.00000000000E+00  0.00000000000E+00  0.15114627501E+03  0.15115161047E+03  0.12700000000E+01 0.  1.
         -4   -1    0    0    0  501 -0.00000000000E+00 -0.00000000000E+00 -0.25821036300E+02  0.25852249720E+02  0.12700000000E+01 0.  1.
         25    2    1    2    0    0  0.00000000000E+00  0.00000000000E+00  0.12532523871E+03  0.17700386019E+03  0.12499580419E+03 0.  0.
    9000005    1    3    3    0    0  0.47064148175E+02 -0.38454698670E+02  0.83241599472E+02  0.10307260439E+03  0.10000000000E+01 0.  0.
    9000005    1    3    3    0    0 -0.47064148175E+02  0.38454698670E+02  0.42083639234E+02  0.73931255801E+02  0.10000000000E+01 0.  0.
<mgrwt>
<rscale>  0 0.12499580E+03</rscale>
<asrwt>0</asrwt>
<pdfrwt beam="1">  1        4 0.23256084E-01 0.12499580E+03</pdfrwt>
<pdfrwt beam="2">  1       -4 0.39752786E-02 0.12499580E+03</pdfrwt>
<totfact> 0.94167976E+03</totfact>
</mgrwt>
</event>
<event>
 5    1  0.3217852E-002  0.1249460E+03  0.7818608E-02  0.1235154E+00
          4   -1    0    0  501    0  0.00000000000E+00  0.00000000000E+00  0.98336352464E+02  0.98344553057E+02  0.12700000000E+01 0.  1.
         -4   -1    0    0    0  501 -0.00000000000E+00 -0.00000000000E+00 -0.39669027210E+02  0.39689351466E+02  0.12700000000E+01 0.  1.
         25    2    1    2    0    0  0.00000000000E+00  0.00000000000E+00  0.58667325254E+02  0.13803390452E+03  0.12494600332E+03 0.  0.
    9000005    1    3    3    0    0  0.44752600655E+02  0.41333980794E+02  0.14082422995E+02  0.62534853250E+02  0.10000000000E+01 0.  0.
    9000005    1    3    3    0    0 -0.44752600655E+02 -0.41333980794E+02  0.44584902259E+02  0.75499051273E+02  0.10000000000E+01 0.  0.
<mgrwt>
<rscale>  0 0.12494600E+03</rscale>
<asrwt>0</asrwt>
<pdfrwt beam="1">  1        4 0.15130864E-01 0.12494600E+03</pdfrwt>
<pdfrwt beam="2">  1       -4 0.61051215E-02 0.12494600E+03</pdfrwt>
<totfact> 0.10186887E+04</totfact>
</mgrwt>
</event>
<event>
 5    1  0.3217852E-002  0.1250027E+03  0.7818608E-02  0.1235065E+00
          4   -1    0    0  501    0  0.00000000000E+00  0.00000000000E+00  0.74984966307E+02  0.74995720358E+02  0.12700000000E+01 0. -1.
         -4   -1    0    0    0  501 -0.00000000000E+00 -0.00000000000E+00 -0.52073753803E+02  0.52089238189E+02  0.12700000000E+01 0. -1.
         25    2    1    2    0    0  0.00000000000E+00  0.00000000000E+00  0.22911212504E+02  0.12708495855E+03  0.12500265209E+03 0.  0.
    9000005    1    3    3    0    0  0.17826395352E+02 -0.39351669413E+02 -0.34452800057E+02  0.55265990343E+02  0.10000000000E+01 0.  0.
    9000005    1    3    3    0    0 -0.17826395352E+02  0.39351669413E+02  0.57364012561E+02  0.71818968204E+02  0.10000000000E+01 0.  0.
<mgrwt>
<rscale>  0 0.12500265E+03</rscale>
<asrwt>0</asrwt>
<pdfrwt beam="1">  1        4 0.11538167E-01 0.12500265E+03</pdfrwt>
<pdfrwt beam="2">  1       -4 0.80133651E-02 0.12500265E+03</pdfrwt>
<totfact> 0.10406677E+04</totfact>
</mgrwt>
</event>
<event>
 5    1  0.3217852E-002  0.1250007E+03  0.7818608E-02  0.1235068E+00
          4   -1    0    0  501    0  0.00000000000E+00  0.00000000000E+00  0.63353100065E+02  0.63365828234E+02  0.12700000000E+01 0.  1.
         -4   -1    0    0    0  501 -0.00000000000E+00 -0.00000000000E+00 -0.61633647311E+02  0.61646730496E+02  0.12700000000E+01 0.  1.
         25    2    1    2    0    0  0.00000000000E+00  0.00000000000E+00  0.17194527538E+01  0.12501255873E+03  0.12500073329E+03 0.  0.
    9000005    1    3    3    0    0 -0.25365521059E+02  0.56983755489E+02 -0.29796187471E+01  0.62453472090E+02  0.10000000000E+01 0.  0.
    9000005    1    3    3    0    0  0.25365521059E+02 -0.56983755489E+02  0.46990715008E+01  0.62559086640E+02  0.10000000000E+01 0.  0.
<mgrwt>
<rscale>  0 0.12500073E+03</rscale>
<asrwt>0</asrwt>
<pdfrwt beam="1">  1        4 0.97486163E-02 0.12500073E+03</pdfrwt>
<pdfrwt beam="2">  1       -4 0.94840850E-02 0.12500073E+03</pdfrwt>
<totfact> 0.10452417E+04</totfact>
</mgrwt>
</event>
<event>
 5    1  0.3217852E-002  0.1250024E+03  0.7818608E-02  0.1235066E+00
          4   -1    0    0  501    0  0.00000000000E+00  0.00000000000E+00  0.20000177390E+03  0.20000580607E+03  0.12700000000E+01 0. -1.
         -4   -1    0    0    0  501 -0.00000000000E+00 -0.00000000000E+00 -0.19506936145E+02  0.19548234134E+02  0.12700000000E+01 0. -1.
         25    2    1    2    0    0  0.00000000000E+00  0.00000000000E+00  0.18049483775E+03  0.21955404021E+03  0.12500236044E+03 0.  0.
    9000005    1    3    3    0    0  0.11824427014E+02 -0.47725093769E+02  0.22497389178E+02  0.54079886920E+02  0.10000000000E+01 0.  0.
    9000005    1    3    3    0    0 -0.11824427014E+02  0.47725093769E+02  0.15799744857E+03  0.16547415328E+03  0.10000000000E+01 0.  0.
<mgrwt>
<rscale>  0 0.12500236E+03</rscale>
<asrwt>0</asrwt>
<pdfrwt beam="1">  1        4 0.30772990E-01 0.12500236E+03</pdfrwt>
<pdfrwt beam="2">  1       -4 0.30045541E-02 0.12500236E+03</pdfrwt>
<totfact> 0.86934382E+03</totfact>
</mgrwt>
</event>
<event>
 5    1  0.3217852E-002  0.1250107E+03  0.7818608E-02  0.1235053E+00
         -4   -1    0    0    0  501 -0.00000000000E+00  0.00000000000E+00  0.55548033820E+03  0.55548179000E+03  0.12700000000E+01 0.  1.
          4   -1    0    0  501    0  0.00000000000E+00 -0.00000000000E+00 -0.69746023910E+01  0.70892861779E+01  0.12700000000E+01 0.  1.
         25    2    1    2    0    0  0.00000000000E+00  0.00000000000E+00  0.54850573580E+03  0.56257107618E+03  0.12501069371E+03 0.  0.
    9000005    1    3    3    0    0 -0.28888808429E+01 -0.14925765504E+02  0.14513702326E+01  0.15304593558E+02  0.10000000000E+01 0.  0.
    9000005    1    3    3    0    0  0.28888808429E+01  0.14925765504E+02  0.54705436557E+03  0.54726648262E+03  0.10000000000E+01 0.  0.
<mgrwt>
<rscale>  0 0.12501069E+03</rscale>
<asrwt>0</asrwt>
<pdfrwt beam="2">  1        4 0.10819495E-02 0.12501069E+03</pdfrwt>
<pdfrwt beam="1">  1       -4 0.85467432E-01 0.12501069E+03</pdfrwt>
<totfact> 0.51306768E+03</totfact>
</mgrwt>
</event>
<event>
 5    1  0.3217852E-002  0.1250053E+03  0.7818608E-02  0.1235061E+00
         -4   -1    0    0    0  501 -0.00000000000E+00  0.00000000000E+00  0.40441544043E+02  0.40461480257E+02  0.12700000000E+01 0. -1.
          4   -1    0    0  501    0  0.00000000000E+00 -0.00000000000E+00 -0.96550344043E+02  0.96558696319E+02  0.12700000000E+01 0. -1.
         25    2    1    2    0    0  0.00000000000E+00  0.00000000000E+00 -0.56108799999E+02  0.13702017658E+03  0.12500532529E+03 0.  0.
    9000005    1    3    3    0    0 -0.15528159635E+02  0.30170391647E+02  0.29470286800E+02  0.44954133046E+02  0.10000000000E+01 0.  0.
    9000005    1    3    3    0    0  0.15528159635E+02 -0.30170391647E+02 -0.85579086800E+02  0.92066043530E+02  0.10000000000E+01 0.  0.
<mgrwt>
<rscale>  0 0.12500533E+03</rscale>
<asrwt>0</asrwt>
<pdfrwt beam="2">  1        4 0.14856075E-01 0.12500533E+03</pdfrwt>
<pdfrwt beam="1">  1       -4 0.62239521E-02 0.12500533E+03</pdfrwt>
<totfact> 0.10194440E+04</totfact>
</mgrwt>
</event>
<event>
 5    1  0.3217852E-002  0.1249985E+03  0.7818608E-02  0.1235072E+00
         -4   -1    0    0    0  501 -0.00000000000E+00  0.00000000000E+00  0.60892156627E+01  0.62202449620E+01  0.12700000000E+01 0. -1.
          4   -1    0    0  501    0  0.00000000000E+00 -0.00000000000E+00 -0.63452752372E+03  0.63452879466E+03  0.12700000000E+01 0. -1.
         25    2    1    2    0    0  0.00000000000E+00  0.00000000000E+00 -0.62843830805E+03  0.64074903962E+03  0.12499849898E+03 0.  0.
    9000005    1    3    3    0    0  0.11786448293E+02  0.53057274199E+02 -0.15612700882E+03  0.16531980399E+03  0.10000000000E+01 0.  0.
    9000005    1    3    3    0    0 -0.11786448293E+02 -0.53057274199E+02 -0.47231129923E+03  0.47542923563E+03  0.10000000000E+01 0.  0.
<mgrwt>
<rscale>  0 0.12499850E+03</rscale>
<asrwt>0</asrwt>
<pdfrwt beam="2">  1        4 0.97629744E-01 0.12499850E+03</pdfrwt>
<pdfrwt beam="1">  1       -4 0.94697986E-03 0.12499850E+03</pdfrwt>
<totfact> 0.46393938E+03</totfact>
</mgrwt>
</event>
<event>
 5    1  0.3217852E-002  0.1249959E+03  0.7818608E-02  0.1235076E+00
         -4   -1    0    0    0  501 -0.00000000000E+00  0.00000000000E+00  0.12516875041E+03  0.12517519314E+03  0.12700000000E+01 0. -1.
          4   -1    0    0  501    0  0.00000000000E+00 -0.00000000000E+00 -0.31185635367E+02  0.31211484316E+02  0.12700000000E+01 0. -1.
         25    2    1    2    0    0  0.00000000000E+00  0.00000000000E+00  0.93983115039E+02  0.15638667746E+03  0.12499586783E+03 0.  0.
    9000005    1    3    3    0    0 -0.26493130091E+02  0.30562397487E+02  0.10658873808E+03  0.11400923282E+03  0.10000000000E+01 0.  0.
    9000005    1    3    3    0    0  0.26493130091E+02 -0.30562397487E+02 -0.12605623040E+02  0.42377444642E+02  0.10000000000E+01 0.  0.
<mgrwt>
<rscale>  0 0.12499587E+03</rscale>
<asrwt>0</asrwt>
<pdfrwt beam="2">  1        4 0.48002742E-02 0.12499587E+03</pdfrwt>
<pdfrwt beam="1">  1       -4 0.19259214E-01 0.12499587E+03</pdfrwt>
<totfact> 0.98053074E+03</totfact>
</mgrwt>
</event>
<event>
 5    1  0.3217852E-002  0.1250000E+03  0.7818608E-02  0.1235069E+00
          4   -1    0    0  501    0  0.00000000000E+00  0.00000000000E+00  0.45546768214E+02  0.45564470750E+02  0.12700000000E+01 0. -1.
         -4   -1    0    0    0  501 -0.00000000000E+00 -0.00000000000E+00 -0.85724480049E+02  0.85733886997E+02  0.12700000000E+01 0. -1.
         25    2    1    2    0    0  0.00000000000E+00  0.00000000000E+00 -0.40177711835E+02  0.13129835775E+03  0.12500004088E+03 0.  0.
    9000005    1    3    3    0    0 -0.19858596291E+02 -0.15933499571E+02 -0.80034666675E+02  0.83992786148E+02  0.10000000000E+01 0.  0.
    9000005    1    3    3    0    0  0.19858596291E+02  0.15933499571E+02  0.39856954840E+02  0.47305571599E+02  0.10000000000E+01 0.  0.
<mgrwt>
<rscale>  0 0.12500004E+03</rscale>
<asrwt>0</asrwt>
<pdfrwt beam="1">  1        4 0.70092805E-02 0.12500004E+03</pdfrwt>
<pdfrwt beam="2">  1       -4 0.13190467E-01 0.12500004E+03</pdfrwt>
<totfact> 0.10316688E+04</totfact>
</mgrwt>
</event>
<event>
 5    1  0.3217852E-002  0.1249986E+03  0.7818608E-02  0.1235072E+00
          4   -1    0    0  501    0  0.00000000000E+00  0.00000000000E+00  0.10175487876E+03  0.10176280387E+03  0.12700000000E+01 0. -1.
         -4   -1    0    0    0  501 -0.00000000000E+00 -0.00000000000E+00 -0.38368010980E+02  0.38389024038E+02  0.12700000000E+01 0. -1.
         25    2    1    2    0    0  0.00000000000E+00  0.00000000000E+00  0.63386867782E+02  0.14015182791E+03  0.12499855943E+03 0.  0.
    9000005    1    3    3    0    0  0.56206548595E+02 -0.60321846494E+00  0.62309721509E+02  0.83922829862E+02  0.10000000000E+01 0.  0.
    9000005    1    3    3    0    0 -0.56206548595E+02  0.60321846494E+00  0.10771462736E+01  0.56228998049E+02  0.10000000000E+01 0.  0.
<mgrwt>
<rscale>  0 0.12499856E+03</rscale>
<asrwt>0</asrwt>
<pdfrwt beam="1">  1        4 0.15656823E-01 0.12499856E+03</pdfrwt>
<pdfrwt beam="2">  1       -4 0.59049969E-02 0.12499856E+03</pdfrwt>
<totfact> 0.10130769E+04</totfact>
</mgrwt>
</event>
<event>
 5    1  0.3217852E-002  0.1249995E+03  0.7818608E-02  0.1235070E+00
          4   -1    0    0  501    0  0.00000000000E+00  0.00000000000E+00  0.55420389987E+02  0.55434939581E+02  0.12700000000E+01 0. -1.
         -4   -1    0    0    0  501 -0.00000000000E+00 -0.00000000000E+00 -0.70453868099E+02  0.70465313666E+02  0.12700000000E+01 0. -1.
         25    2    1    2    0    0  0.00000000000E+00  0.00000000000E+00 -0.15033478112E+02  0.12590025325E+03  0.12499947321E+03 0.  0.
    9000005    1    3    3    0    0 -0.51858975177E+02  0.23725274120E+02 -0.33254261813E+02  0.66023388790E+02  0.10000000000E+01 0.  0.
    9000005    1    3    3    0    0  0.51858975177E+02 -0.23725274120E+02  0.18220783702E+02  0.59876864457E+02  0.10000000000E+01 0.  0.
<mgrwt>
<rscale>  0 0.12499947E+03</rscale>
<asrwt>0</asrwt>
<pdfrwt beam="1">  1        4 0.85282134E-02 0.12499947E+03</pdfrwt>
<pdfrwt beam="2">  1       -4 0.10841056E-01 0.12499947E+03</pdfrwt>
<totfact> 0.10433268E+04</totfact>
</mgrwt>
</event>
<event>
 5    1  0.3217852E-002  0.1250006E+03  0.7818608E-02  0.1235068E+00
         -4   -1    0    0    0  501 -0.00000000000E+00  0.00000000000E+00  0.13930232140E+04  0.13930237930E+04  0.12700000000E+01 0.  1.
          4   -1    0    0  501    0  0.00000000000E+00 -0.00000000000E+00 -0.26597782875E+01  0.29474260870E+01  0.12700000000E+01 0.  1.
         25    2    1    2    0    0  0.00000000000E+00  0.00000000000E+00  0.13903634357E+04  0.13959712190E+04  0.12500064372E+03 0.  0.
    9000005    1    3    3    0    0  0.10524048284E+02 -0.39114477641E+02  0.12266278200E+04  0.12272968292E+04  0.10000000000E+01 0.  0.
    9000005    1    3    3    0    0 -0.10524048284E+02  0.39114477641E+02  0.16373561570E+03  0.16867438988E+03  0.10000000000E+01 0.  0.
<mgrwt>
<rscale>  0 0.12500064E+03</rscale>
<asrwt>0</asrwt>
<pdfrwt beam="2">  1        4 0.43136758E-03 0.12500064E+03</pdfrwt>
<pdfrwt beam="1">  1       -4 0.21433362E+00 0.12500064E+03</pdfrwt>
<totfact> 0.20067238E+03</totfact>
</mgrwt>
</event>
<event>
 5    1  0.3217852E-002  0.1249955E+03  0.7818608E-02  0.1235076E+00
          4   -1    0    0  501    0  0.00000000000E+00  0.00000000000E+00  0.25998164736E+03  0.25998474929E+03  0.12700000000E+01 0. -1.
         -4   -1    0    0    0  501 -0.00000000000E+00 -0.00000000000E+00 -0.14993971075E+02  0.15047659904E+02  0.12700000000E+01 0. -1.
         25    2    1    2    0    0  0.00000000000E+00  0.00000000000E+00  0.24498767629E+03  0.27503240920E+03  0.12499545822E+03 0.  0.
    9000005    1    3    3    0    0 -0.56969634220E+02 -0.21125403992E+02  0.90370074092E+02  0.10890166302E+03  0.10000000000E+01 0.  0.
    9000005    1    3    3    0    0  0.56969634220E+02  0.21125403992E+02  0.15461760219E+03  0.16613074618E+03  0.10000000000E+01 0.  0.
<mgrwt>
<rscale>  0 0.12499546E+03</rscale>
<asrwt>0</asrwt>
<pdfrwt beam="1">  1        4 0.40001540E-01 0.12499546E+03</pdfrwt>
<pdfrwt beam="2">  1       -4 0.23111336E-02 0.12499546E+03</pdfrwt>
<totfact> 0.78849381E+03</totfact>
</mgrwt>
</event>
<event>
 5    1  0.3217852E-002  0.1249916E+03  0.7818608E-02  0.1235082E+00
          4   -1    0    0  501    0  0.00000000000E+00  0.00000000000E+00  0.20412845254E+02  0.20452314084E+02  0.12700000000E+01 0. -1.
         -4   -1    0    0    0  501 -0.00000000000E+00 -0.00000000000E+00 -0.19111010025E+03  0.19111432002E+03  0.12700000000E+01 0. -1.
         25    2    1    2    0    0  0.00000000000E+00  0.00000000000E+00 -0.17069725500E+03  0.21156663411E+03  0.12499155093E+03 0.  0.
    9000005    1    3    3    0    0  0.37539828164E+02  0.49088949791E+02 -0.10102351751E+03  0.11843021059E+03  0.10000000000E+01 0.  0.
    9000005    1    3    3    0    0 -0.37539828164E+02 -0.49088949791E+02 -0.69673737483E+02  0.93136423515E+02  0.10000000000E+01 0.  0.
<mgrwt>
<rscale>  0 0.12499155E+03</rscale>
<asrwt>0</asrwt>
<pdfrwt beam="1">  1        4 0.31437985E-02 0.12499155E+03</pdfrwt>
<pdfrwt beam="2">  1       -4 0.29404913E-01 0.12499155E+03</pdfrwt>
<totfact> 0.88237331E+03</totfact>
</mgrwt>
</event>
<event>
 5    1  0.3217852E-002  0.1250003E+03  0.7818608E-02  0.1235069E+00
          4   -1    0    0  501    0  0.00000000000E+00  0.00000000000E+00  0.28541794911E+03  0.28542077460E+03  0.12700000000E+01 0.  1.
         -4   -1    0    0    0  501 -0.00000000000E+00 -0.00000000000E+00 -0.13653780441E+02  0.13712717467E+02  0.12700000000E+01 0.  1.
         25    2    1    2    0    0  0.00000000000E+00  0.00000000000E+00  0.27176416867E+03  0.29913349207E+03  0.12500033082E+03 0.  0.
    9000005    1    3    3    0    0  0.55514531150E+02 -0.17631431683E+02  0.81704727469E+02  0.10034636537E+03  0.10000000000E+01 0.  0.
    9000005    1    3    3    0    0 -0.55514531150E+02  0.17631431683E+02  0.19005944120E+03  0.19878712670E+03  0.10000000000E+01 0.  0.
<mgrwt>
<rscale>  0 0.12500033E+03</rscale>
<asrwt>0</asrwt>
<pdfrwt beam="1">  1        4 0.43915205E-01 0.12500033E+03</pdfrwt>
<pdfrwt beam="2">  1       -4 0.21053326E-02 0.12500033E+03</pdfrwt>
<totfact> 0.75707103E+03</totfact>
</mgrwt>
</event>
<event>
 5    1  0.3217852E-002  0.1250003E+03  0.7818608E-02  0.1235069E+00
         -4   -1    0    0    0  501 -0.00000000000E+00  0.00000000000E+00  0.62948548919E+03  0.62948677031E+03  0.12700000000E+01 0.  1.
          4   -1    0    0  501    0  0.00000000000E+00 -0.00000000000E+00 -0.61392145449E+01  0.62691989304E+01  0.12700000000E+01 0.  1.
         25    2    1    2    0    0  0.00000000000E+00  0.00000000000E+00  0.62334627465E+03  0.63575596924E+03  0.12500029727E+03 0.  0.
    9000005    1    3    3    0    0  0.10804011873E+02  0.34314971634E+02  0.57156033420E+03  0.57269229049E+03  0.10000000000E+01 0.  0.
    9000005    1    3    3    0    0 -0.10804011873E+02 -0.34314971634E+02  0.51785940443E+02  0.63063678757E+02  0.10000000000E+01 0.  0.
<mgrwt>
<rscale>  0 0.12500030E+03</rscale>
<asrwt>0</asrwt>
<pdfrwt beam="2">  1        4 0.95459162E-03 0.12500030E+03</pdfrwt>
<pdfrwt beam="1">  1       -4 0.96854046E-01 0.12500030E+03</pdfrwt>
<totfact> 0.46685359E+03</totfact>
</mgrwt>
</event>
<event>
 5    1  0.3217852E-002  0.1249837E+03  0.7818608E-02  0.1235095E+00
          4   -1    0    0  501    0  0.00000000000E+00  0.00000000000E+00  0.12619029531E+03  0.12619668590E+03  0.12700000000E+01 0. -1.
         -4   -1    0    0    0  501 -0.00000000000E+00 -0.00000000000E+00 -0.30926950991E+02  0.30953015969E+02  0.12700000000E+01 0. -1.
         25    2    1    2    0    0  0.00000000000E+00  0.00000000000E+00  0.95263344324E+02  0.15714970187E+03  0.12498369504E+03 0.  0.
    9000005    1    3    3    0    0  0.40282263917E+02  0.13547832589E+02  0.10522413903E+03  0.11348710935E+03  0.10000000000E+01 0.  0.
    9000005    1    3    3    0    0 -0.40282263917E+02 -0.13547832589E+02 -0.99607947062E+01  0.43662592517E+02  0.10000000000E+01 0.  0.
<mgrwt>
<rscale>  0 0.12498370E+03</rscale>
<asrwt>0</asrwt>
<pdfrwt beam="1">  1        4 0.19416389E-01 0.12498370E+03</pdfrwt>
<pdfrwt beam="2">  1       -4 0.47604890E-02 0.12498370E+03</pdfrwt>
<totfact> 0.97931028E+03</totfact>
</mgrwt>
</event>
<event>
 5    1  0.3217852E-002  0.1249971E+03  0.7818608E-02  0.1235074E+00
          4   -1    0    0  501    0  0.00000000000E+00  0.00000000000E+00  0.62479268887E+01  0.63756952881E+01  0.12700000000E+01 0. -1.
         -4   -1    0    0    0  501 -0.00000000000E+00 -0.00000000000E+00 -0.61872210957E+03  0.61872341298E+03  0.12700000000E+01 0. -1.
         25    2    1    2    0    0  0.00000000000E+00  0.00000000000E+00 -0.61247418268E+03  0.62509910827E+03  0.12499708280E+03 0.  0.
    9000005    1    3    3    0    0 -0.80696048168E+01  0.40389488986E+02 -0.54126059957E+03  0.54282636818E+03  0.10000000000E+01 0.  0.
    9000005    1    3    3    0    0  0.80696048168E+01 -0.40389488986E+02 -0.71213583106E+02  0.82272740086E+02  0.10000000000E+01 0.  0.
<mgrwt>
<rscale>  0 0.12499708E+03</rscale>
<asrwt>0</asrwt>
<pdfrwt beam="1">  1        4 0.97114861E-03 0.12499708E+03</pdfrwt>
<pdfrwt beam="2">  1       -4 0.95197897E-01 0.12499708E+03</pdfrwt>
<totfact> 0.47323709E+03</totfact>
</mgrwt>
</event>
<event>
 5    1  0.3217852E-002  0.1250006E+03  0.7818608E-02  0.1235068E+00
          4   -1    0    0  501    0  0.00000000000E+00  0.00000000000E+00  0.19050899700E+04  0.19050903933E+04  0.12700000000E+01 0. -1.
         -4   -1    0    0    0  501 -0.00000000000E+00 -0.00000000000E+00 -0.18533299581E+01  0.22467158106E+01  0.12700000000E+01 0. -1.
         25    2    1    2    0    0  0.00000000000E+00  0.00000000000E+00  0.19032366400E+04  0.19073371091E+04  0.12500055937E+03 0.  0.
    9000005    1    3    3    0    0  0.63176584427E+01 -0.51897197989E+02  0.14740014295E+04  0.14749286241E+04  0.10000000000E+01 0.  0.
    9000005    1    3    3    0    0 -0.63176584427E+01  0.51897197989E+02  0.42923521049E+03  0.43240848499E+03  0.10000000000E+01 0.  0.
<mgrwt>
<rscale>  0 0.12500056E+03</rscale>
<asrwt>0</asrwt>
<pdfrwt beam="1">  1        4 0.29312048E+00 0.12500056E+03</pdfrwt>
<pdfrwt beam="2">  1       -4 0.31542132E-03 0.12500056E+03</pdfrwt>
<totfact> 0.11119493E+03</totfact>
</mgrwt>
</event>
<event>
 5    1  0.3217852E-002  0.1249991E+03  0.7818608E-02  0.1235071E+00
         -4   -1    0    0    0  501 -0.00000000000E+00  0.00000000000E+00  0.27269462434E+02  0.27299019789E+02  0.12700000000E+01 0. -1.
          4   -1    0    0  501    0  0.00000000000E+00 -0.00000000000E+00 -0.14313422355E+03  0.14313985766E+03  0.12700000000E+01 0. -1.
         25    2    1    2    0    0  0.00000000000E+00  0.00000000000E+00 -0.11586476112E+03  0.17043887745E+03  0.12499907231E+03 0.  0.
    9000005    1    3    3    0    0  0.15180094450E+02 -0.57764571455E+02 -0.32863940154E+02  0.68177852308E+02  0.10000000000E+01 0.  0.
    9000005    1    3    3    0    0 -0.15180094450E+02  0.57764571455E+02 -0.83000820965E+02  0.10226102515E+03  0.10000000000E+01 0.  0.
<mgrwt>
<rscale>  0 0.12499907E+03</rscale>
<asrwt>0</asrwt>
<pdfrwt beam="2">  1        4 0.22023356E-01 0.12499907E+03</pdfrwt>
<pdfrwt beam="1">  1       -4 0.41980090E-02 0.12499907E+03</pdfrwt>
<totfact> 0.95368885E+03</totfact>
</mgrwt>
</event>
<event>
 5    1  0.3217852E-002  0.1250021E+03  0.7818608E-02  0.1235066E+00
          4   -1    0    0  501    0  0.00000000000E+00  0.00000000000E+00  0.38905786508E+03  0.38905993791E+03  0.12700000000E+01 0.  1.
         -4   -1    0    0    0  501 -0.00000000000E+00 -0.00000000000E+00 -0.99983567884E+01  0.10078692300E+02  0.12700000000E+01 0.  1.
         25    2    1    2    0    0  0.00000000000E+00  0.00000000000E+00  0.37905950829E+03  0.39913863020E+03  0.12500214115E+03 0.  0.
    9000005    1    3    3    0    0  0.67856489192E+01 -0.59508736222E+02  0.13258504231E+03  0.14548927164E+03  0.10000000000E+01 0.  0.
    9000005    1    3    3    0    0 -0.67856489192E+01  0.59508736222E+02  0.24647446599E+03  0.25364935857E+03  0.10000000000E+01 0.  0.
<mgrwt>
<rscale>  0 0.12500214E+03</rscale>
<asrwt>0</asrwt>
<pdfrwt beam="1">  1        4 0.59861402E-01 0.12500214E+03</pdfrwt>
<pdfrwt beam="2">  1       -4 0.15445477E-02 0.12500214E+03</pdfrwt>
<totfact> 0.64633590E+03</totfact>
</mgrwt>
</event>
<event>
 5    1  0.3217852E-002  0.1249830E+03  0.7818608E-02  0.1235096E+00
         -4   -1    0    0    0  501 -0.00000000000E+00  0.00000000000E+00  0.88116884974E+03  0.88116976494E+03  0.12700000000E+01 0.  1.
          4   -1    0    0  501    0  0.00000000000E+00 -0.00000000000E+00 -0.43399079657E+01  0.45219134391E+01  0.12700000000E+01 0.  1.
         25    2    1    2    0    0  0.00000000000E+00  0.00000000000E+00  0.87682894177E+03  0.88569167838E+03  0.12498302295E+03 0.  0.
    9000005    1    3    3    0    0  0.17613164126E+02  0.20491764904E+02  0.83765868272E+03  0.83809498549E+03  0.10000000000E+01 0.  0.
    9000005    1    3    3    0    0 -0.17613164126E+02 -0.20491764904E+02  0.39170259057E+02  0.47596692889E+02  0.10000000000E+01 0.  0.
<mgrwt>
<rscale>  0 0.12498302E+03</rscale>
<asrwt>0</asrwt>
<pdfrwt beam="2">  1        4 0.68174938E-03 0.12498302E+03</pdfrwt>
<pdfrwt beam="1">  1       -4 0.13557843E+00 0.12498302E+03</pdfrwt>
<totfact> 0.34722472E+03</totfact>
</mgrwt>
</event>
<event>
 5    1  0.3217852E-002  0.1249990E+03  0.7818608E-02  0.1235071E+00
         -4   -1    0    0    0  501 -0.00000000000E+00  0.00000000000E+00  0.85480819252E+02  0.85490253011E+02  0.12700000000E+01 0. -1.
          4   -1    0    0  501    0  0.00000000000E+00 -0.00000000000E+00 -0.45675852743E+02  0.45693505270E+02  0.12700000000E+01 0. -1.
         25    2    1    2    0    0  0.00000000000E+00  0.00000000000E+00  0.39804966509E+02  0.13118375828E+03  0.12499897231E+03 0.  0.
    9000005    1    3    3    0    0  0.21954003437E+01  0.41943629215E+02  0.68463961082E+02  0.80326843467E+02  0.10000000000E+01 0.  0.
    9000005    1    3    3    0    0 -0.21954003437E+01 -0.41943629215E+02 -0.28658994574E+02  0.50856914813E+02  0.10000000000E+01 0.  0.
<mgrwt>
<rscale>  0 0.12499897E+03</rscale>
<asrwt>0</asrwt>
<pdfrwt beam="2">  1        4 0.70291379E-02 0.12499897E+03</pdfrwt>
<pdfrwt beam="1">  1       -4 0.13152979E-01 0.12499897E+03</pdfrwt>
<totfact> 0.10319391E+04</totfact>
</mgrwt>
</event>
<event>
 5    1  0.3217852E-002  0.1250004E+03  0.7818608E-02  0.1235069E+00
          4   -1    0    0  501    0  0.00000000000E+00  0.00000000000E+00  0.54130228931E+01  0.55600105073E+01  0.12700000000E+01 0. -1.
         -4   -1    0    0    0  501 -0.00000000000E+00 -0.00000000000E+00 -0.71182951862E+03  0.71183065155E+03  0.12700000000E+01 0. -1.
         25    2    1    2    0    0  0.00000000000E+00  0.00000000000E+00 -0.70641649573E+03  0.71739066205E+03  0.12500038626E+03 0.  0.
    9000005    1    3    3    0    0  0.51586452655E+02 -0.22209638525E+02 -0.19594790371E+03  0.20384065127E+03  0.10000000000E+01 0.  0.
    9000005    1    3    3    0    0 -0.51586452655E+02  0.22209638525E+02 -0.51046859202E+03  0.51355001079E+03  0.10000000000E+01 0.  0.
<mgrwt>
<rscale>  0 0.12500039E+03</rscale>
<asrwt>0</asrwt>
<pdfrwt beam="1">  1        4 0.84416721E-03 0.12500039E+03</pdfrwt>
<pdfrwt beam="2">  1       -4 0.10952355E+00 0.12500039E+03</pdfrwt>
<totfact> 0.42184088E+03</totfact>
</mgrwt>
</event>
<event>
 5    1  0.3217852E-002  0.1249992E+03  0.7818608E-02  0.1235071E+00
          4   -1    0    0  501    0  0.00000000000E+00  0.00000000000E+00  0.24690192033E+03  0.24690518658E+03  0.12700000000E+01 0. -1.
         -4   -1    0    0    0  501 -0.00000000000E+00 -0.00000000000E+00 -0.15791985899E+02  0.15842970638E+02  0.12700000000E+01 0. -1.
         25    2    1    2    0    0  0.00000000000E+00  0.00000000000E+00  0.23110993443E+03  0.26274815722E+03  0.12499916932E+03 0.  0.
    9000005    1    3    3    0    0 -0.32810979605E+02  0.80687951798E+01  0.22605561398E+03  0.22856904088E+03  0.10000000000E+01 0.  0.
    9000005    1    3    3    0    0  0.32810979605E+02 -0.80687951798E+01  0.50543204469E+01  0.34179116335E+02  0.10000000000E+01 0.  0.
<mgrwt>
<rscale>  0 0.12499917E+03</rscale>
<asrwt>0</asrwt>
<pdfrwt beam="1">  1        4 0.37989083E-01 0.12499917E+03</pdfrwt>
<pdfrwt beam="2">  1       -4 0.24337095E-02 0.12499917E+03</pdfrwt>
<totfact> 0.80523424E+03</totfact>
</mgrwt>
</event>
<event>
 5    1  0.3217852E-002  0.1249982E+03  0.7818608E-02  0.1235072E+00
         -4   -1    0    0    0  501 -0.00000000000E+00  0.00000000000E+00  0.17853440337E+04  0.17853444854E+04  0.12700000000E+01 0.  1.
          4   -1    0    0  501    0  0.00000000000E+00 -0.00000000000E+00 -0.20031010284E+01  0.23717743843E+01  0.12700000000E+01 0.  1.
         25    2    1    2    0    0  0.00000000000E+00  0.00000000000E+00  0.17833409327E+04  0.17877162598E+04  0.12499817349E+03 0.  0.
    9000005    1    3    3    0    0 -0.35831022331E+02 -0.13645154708E+02  0.18591890695E+03  0.18983385465E+03  0.10000000000E+01 0.  0.
    9000005    1    3    3    0    0  0.35831022331E+02  0.13645154708E+02  0.15974220257E+04  0.15978824051E+04  0.10000000000E+01 0.  0.
<mgrwt>
<rscale>  0 0.12499817E+03</rscale>
<asrwt>0</asrwt>
<pdfrwt beam="2">  1        4 0.33656417E-03 0.12499817E+03</pdfrwt>
<pdfrwt beam="1">  1       -4 0.27469626E+00 0.12499817E+03</pdfrwt>
<totfact> 0.12894250E+03</totfact>
</mgrwt>
</event>
<event>
 5    1  0.3217852E-002  0.1249999E+03  0.7818608E-02  0.1235069E+00
          4   -1    0    0  501    0  0.00000000000E+00  0.00000000000E+00  0.47645082708E+03  0.47645251970E+03  0.12700000000E+01 0. -1.
         -4   -1    0    0    0  501 -0.00000000000E+00 -0.00000000000E+00 -0.81477350876E+01  0.82461195151E+01  0.12700000000E+01 0. -1.
         25    2    1    2    0    0  0.00000000000E+00  0.00000000000E+00  0.46830309200E+03  0.48469863922E+03  0.12499993954E+03 0.  0.
    9000005    1    3    3    0    0  0.29911956651E+02 -0.44890045855E+02  0.35648968634E+03  0.36054921694E+03  0.10000000000E+01 0.  0.
    9000005    1    3    3    0    0 -0.29911956651E+02  0.44890045855E+02  0.11181340566E+03  0.12414942228E+03  0.10000000000E+01 0.  0.
<mgrwt>
<rscale>  0 0.12499994E+03</rscale>
<asrwt>0</asrwt>
<pdfrwt beam="1">  1        4 0.73307826E-01 0.12499994E+03</pdfrwt>
<pdfrwt beam="2">  1       -4 0.12611959E-02 0.12499994E+03</pdfrwt>
<totfact> 0.57071494E+03</totfact>
</mgrwt>
</event>
<event>
 5    1  0.3217852E-002  0.1249989E+03  0.7818608E-02  0.1235071E+00
         -4   -1    0    0    0  501 -0.00000000000E+00  0.00000000000E+00  0.58138898358E+03  0.58139037069E+03  0.12700000000E+01 0.  1.
          4   -1    0    0  501    0  0.00000000000E+00 -0.00000000000E+00 -0.66572835392E+01  0.67773390147E+01  0.12700000000E+01 0.  1.
         25    2    1    2    0    0  0.00000000000E+00  0.00000000000E+00  0.57473170004E+03  0.58816770970E+03  0.12499891081E+03 0.  0.
    9000005    1    3    3    0    0 -0.76067285046E+01 -0.58768614160E+02  0.38071400113E+03  0.38529957564E+03  0.10000000000E+01 0.  0.
    9000005    1    3    3    0    0  0.76067285046E+01  0.58768614160E+02  0.19401769891E+03  0.20286813407E+03  0.10000000000E+01 0.  0.
<mgrwt>
<rscale>  0 0.12499891E+03</rscale>
<asrwt>0</asrwt>
<pdfrwt beam="2">  1        4 0.10335393E-02 0.12499891E+03</pdfrwt>
<pdfrwt beam="1">  1       -4 0.89453793E-01 0.12499891E+03</pdfrwt>
<totfact> 0.49624307E+03</totfact>
</mgrwt>
</event>
<event>
 5    1  0.3217852E-002  0.1249945E+03  0.7818608E-02  0.1235078E+00
         -4   -1    0    0    0  501 -0.00000000000E+00  0.00000000000E+00  0.21178800181E+02  0.21216844183E+02  0.12700000000E+01 0. -1.
          4   -1    0    0  501    0  0.00000000000E+00 -0.00000000000E+00 -0.18421956861E+03  0.18422394621E+03  0.12700000000E+01 0. -1.
         25    2    1    2    0    0  0.00000000000E+00  0.00000000000E+00 -0.16304076843E+03  0.20544079040E+03  0.12499450464E+03 0.  0.
    9000005    1    3    3    0    0 -0.29452991360E+02 -0.20076500046E+02  0.28390160481E+01  0.35771560858E+02  0.10000000000E+01 0.  0.
    9000005    1    3    3    0    0  0.29452991360E+02  0.20076500046E+02 -0.16587978448E+03  0.16966922954E+03  0.10000000000E+01 0.  0.
<mgrwt>
<rscale>  0 0.12499450E+03</rscale>
<asrwt>0</asrwt>
<pdfrwt beam="2">  1        4 0.28344734E-01 0.12499450E+03</pdfrwt>
<pdfrwt beam="1">  1       -4 0.32615403E-02 0.12499450E+03</pdfrwt>
<totfact> 0.89236883E+03</totfact>
</mgrwt>
</event>
<event>
 5    1  0.3217852E-002  0.1249998E+03  0.7818608E-02  0.1235070E+00
          4   -1    0    0  501    0  0.00000000000E+00  0.00000000000E+00  0.13542522790E+03  0.13543118272E+03  0.12700000000E+01 0. -1.
         -4   -1    0    0    0  501 -0.00000000000E+00 -0.00000000000E+00 -0.28823643079E+02  0.28851608280E+02  0.12700000000E+01 0. -1.
         25    2    1    2    0    0  0.00000000000E+00  0.00000000000E+00  0.10660158482E+03  0.16428279100E+03  0.12499975012E+03 0.  0.
    9000005    1    3    3    0    0  0.23852270867E+02 -0.53183649195E+02  0.82917076371E+02  0.10135912845E+03  0.10000000000E+01 0.  0.
    9000005    1    3    3    0    0 -0.23852270867E+02  0.53183649195E+02  0.23684508451E+02  0.62923662543E+02  0.10000000000E+01 0.  0.
<mgrwt>
<rscale>  0 0.12499975E+03</rscale>
<asrwt>0</asrwt>
<pdfrwt beam="1">  1        4 0.20837259E-01 0.12499975E+03</pdfrwt>
<pdfrwt beam="2">  1       -4 0.44370159E-02 0.12499975E+03</pdfrwt>
<totfact> 0.96523935E+03</totfact>
</mgrwt>
</event>
<event>
 5    1  0.3217852E-002  0.1249909E+03  0.7818608E-02  0.1235084E+00
          4   -1    0    0  501    0  0.00000000000E+00  0.00000000000E+00  0.58453197503E+01  0.59816939894E+01  0.12700000000E+01 0. -1.
         -4   -1    0    0    0  501 -0.00000000000E+00 -0.00000000000E+00 -0.66033061847E+03  0.66033183975E+03  0.12700000000E+01 0. -1.
         25    2    1    2    0    0  0.00000000000E+00  0.00000000000E+00 -0.65448529872E+03  0.66631353374E+03  0.12499087569E+03 0.  0.
    9000005    1    3    3    0    0  0.38292220255E+02 -0.12571555283E+02 -0.58180858011E+03  0.58320370543E+03  0.10000000000E+01 0.  0.
    9000005    1    3    3    0    0 -0.38292220255E+02  0.12571555283E+02 -0.72676718604E+02  0.83109828308E+02  0.10000000000E+01 0.  0.
<mgrwt>
<rscale>  0 0.12499088E+03</rscale>
<asrwt>0</asrwt>
<pdfrwt beam="1">  1        4 0.90986476E-03 0.12499088E+03</pdfrwt>
<pdfrwt beam="2">  1       -4 0.10159985E+00 0.12499088E+03</pdfrwt>
<totfact> 0.44934551E+03</totfact>
</mgrwt>
</event>
<event>
 5    1  0.3217852E-002  0.1250006E+03  0.7818608E-02  0.1235068E+00
         -4   -1    0    0    0  501 -0.00000000000E+00  0.00000000000E+00  0.14458982769E+03  0.14459540508E+03  0.12700000000E+01 0.  1.
          4   -1    0    0  501    0  0.00000000000E+00 -0.00000000000E+00 -0.26995326688E+02  0.27025183866E+02  0.12700000000E+01 0.  1.
         25    2    1    2    0    0  0.00000000000E+00  0.00000000000E+00  0.11759450100E+03  0.17162058895E+03  0.12500063954E+03 0.  0.
    9000005    1    3    3    0    0 -0.33398854897E+02  0.29695131388E+02  0.11876903607E+03  0.12690298762E+03  0.10000000000E+01 0.  0.
    9000005    1    3    3    0    0  0.33398854897E+02 -0.29695131388E+02 -0.11745350681E+01  0.44717601336E+02  0.10000000000E+01 0.  0.
<mgrwt>
<rscale>  0 0.12500064E+03</rscale>
<asrwt>0</asrwt>
<pdfrwt beam="2">  1        4 0.41558529E-02 0.12500064E+03</pdfrwt>
<pdfrwt beam="1">  1       -4 0.22247315E-01 0.12500064E+03</pdfrwt>
<totfact> 0.95146075E+03</totfact>
</mgrwt>
</event>
<event>
 5    1  0.3217852E-002  0.1250124E+03  0.7818608E-02  0.1235050E+00
          4   -1    0    0  501    0  0.00000000000E+00  0.00000000000E+00  0.74312404776E+03  0.74312513298E+03  0.12700000000E+01 0.  1.
         -4   -1    0    0    0  501 -0.00000000000E+00 -0.00000000000E+00 -0.51797699847E+01  0.53331901424E+01  0.12700000000E+01 0.  1.
         25    2    1    2    0    0  0.00000000000E+00  0.00000000000E+00  0.73794427778E+03  0.74845832312E+03  0.12501241675E+03 0.  0.
    9000005    1    3    3    0    0 -0.43758256031E+01  0.16650572916E+02  0.72867692414E+03  0.72888095681E+03  0.10000000000E+01 0.  0.
    9000005    1    3    3    0    0  0.43758256031E+01 -0.16650572916E+02  0.92673536375E+01  0.19577366308E+02  0.10000000000E+01 0.  0.
<mgrwt>
<rscale>  0 0.12501242E+03</rscale>
<asrwt>0</asrwt>
<pdfrwt beam="1">  1        4 0.11433864E+00 0.12501242E+03</pdfrwt>
<pdfrwt beam="2">  1       -4 0.80877290E-03 0.12501242E+03</pdfrwt>
<totfact> 0.40636956E+03</totfact>
</mgrwt>
</event>
<event>
 5    1  0.3217852E-002  0.1249876E+03  0.7818608E-02  0.1235089E+00
          4   -1    0    0  501    0  0.00000000000E+00  0.00000000000E+00  0.23743655359E+03  0.23743995005E+03  0.12700000000E+01 0.  1.
         -4   -1    0    0    0  501 -0.00000000000E+00 -0.00000000000E+00 -0.16420456689E+02  0.16469495981E+02  0.12700000000E+01 0.  1.
         25    2    1    2    0    0  0.00000000000E+00  0.00000000000E+00  0.22101609690E+03  0.25390944603E+03  0.12498756616E+03 0.  0.
    9000005    1    3    3    0    0 -0.57109997465E+01  0.60715846039E+02  0.82843869160E+02  0.10287437065E+03  0.10000000000E+01 0.  0.
    9000005    1    3    3    0    0  0.57109997465E+01 -0.60715846039E+02  0.13817222774E+03  0.15103507539E+03  0.10000000000E+01 0.  0.
<mgrwt>
<rscale>  0 0.12498757E+03</rscale>
<asrwt>0</asrwt>
<pdfrwt beam="1">  1        4 0.36532735E-01 0.12498757E+03</pdfrwt>
<pdfrwt beam="2">  1       -4 0.25302576E-02 0.12498757E+03</pdfrwt>
<totfact> 0.81791098E+03</totfact>
</mgrwt>
</event>
<event>
 5    1  0.3217852E-002  0.1250054E+03  0.7818608E-02  0.1235061E+00
         -4   -1    0    0    0  501 -0.00000000000E+00  0.00000000000E+00  0.17643437076E+03  0.17643894152E+03  0.12700000000E+01 0. -1.
          4   -1    0    0  501    0  0.00000000000E+00 -0.00000000000E+00 -0.22118801946E+02  0.22155231877E+02  0.12700000000E+01 0. -1.
         25    2    1    2    0    0  0.00000000000E+00  0.00000000000E+00  0.15431556881E+03  0.19859417340E+03  0.12500540360E+03 0.  0.
    9000005    1    3    3    0    0 -0.19739519654E+02 -0.50013850512E+02  0.12776066829E+03  0.13861753944E+03  0.10000000000E+01 0.  0.
    9000005    1    3    3    0    0  0.19739519654E+02  0.50013850512E+02  0.26554900529E+02  0.59976633962E+02  0.10000000000E+01 0.  0.
<mgrwt>
<rscale>  0 0.12500540E+03</rscale>
<asrwt>0</asrwt>
<pdfrwt beam="2">  1        4 0.34060467E-02 0.12500540E+03</pdfrwt>
<pdfrwt beam="1">  1       -4 0.27146902E-01 0.12500540E+03</pdfrwt>
<totfact> 0.90362158E+03</totfact>
</mgrwt>
</event>
<event>
 5    1  0.3217852E-002  0.1250009E+03  0.7818608E-02  0.1235068E+00
         -4   -1    0    0    0  501 -0.00000000000E+00  0.00000000000E+00  0.27758860642E+02  0.27787897440E+02  0.12700000000E+01 0.  1.
          4   -1    0    0  501    0  0.00000000000E+00 -0.00000000000E+00 -0.14061745199E+03  0.14062318694E+03  0.12700000000E+01 0.  1.
         25    2    1    2    0    0  0.00000000000E+00  0.00000000000E+00 -0.11285859135E+03  0.16841108438E+03  0.12500092680E+03 0.  0.
    9000005    1    3    3    0    0 -0.57820122817E+01  0.39793119413E+02  0.80205499783E+01  0.41015280574E+02  0.10000000000E+01 0.  0.
    9000005    1    3    3    0    0  0.57820122817E+01 -0.39793119413E+02 -0.12087914133E+03  0.12739580380E+03  0.10000000000E+01 0.  0.
<mgrwt>
<rscale>  0 0.12500093E+03</rscale>
<asrwt>0</asrwt>
<pdfrwt beam="2">  1        4 0.21636128E-01 0.12500093E+03</pdfrwt>
<pdfrwt beam="1">  1       -4 0.42732688E-02 0.12500093E+03</pdfrwt>
<totfact> 0.95743266E+03</totfact>
</mgrwt>
</event>
<event>
 5    1  0.3217852E-002  0.1250026E+03  0.7818608E-02  0.1235065E+00
          4   -1    0    0  501    0  0.00000000000E+00  0.00000000000E+00  0.10524018838E+03  0.10524785105E+03  0.12700000000E+01 0. -1.
         -4   -1    0    0    0  501 -0.00000000000E+00 -0.00000000000E+00 -0.37099151067E+02  0.37120882396E+02  0.12700000000E+01 0. -1.
         25    2    1    2    0    0  0.00000000000E+00  0.00000000000E+00  0.68141037310E+02  0.14236873344E+03  0.12500262116E+03 0.  0.
    9000005    1    3    3    0    0  0.12674075504E+02 -0.34774406065E+02 -0.23278926482E+02  0.43735568193E+02  0.10000000000E+01 0.  0.
    9000005    1    3    3    0    0 -0.12674075504E+02  0.34774406065E+02  0.91419963792E+02  0.98633165248E+02  0.10000000000E+01 0.  0.
<mgrwt>
<rscale>  0 0.12500262E+03</rscale>
<asrwt>0</asrwt>
<pdfrwt beam="1">  1        4 0.16193059E-01 0.12500262E+03</pdfrwt>
<pdfrwt beam="2">  1       -4 0.57098228E-02 0.12500262E+03</pdfrwt>
<totfact> 0.10084131E+04</totfact>
</mgrwt>
</event>
<event>
 5    1  0.3217852E-002  0.1249978E+03  0.7818608E-02  0.1235073E+00
          4   -1    0    0  501    0  0.00000000000E+00  0.00000000000E+00  0.16711954991E+03  0.16712437543E+03  0.12700000000E+01 0. -1.
         -4   -1    0    0    0  501 -0.00000000000E+00 -0.00000000000E+00 -0.23350755567E+02  0.23385266421E+02  0.12700000000E+01 0. -1.
         25    2    1    2    0    0  0.00000000000E+00  0.00000000000E+00  0.14376879434E+03  0.19050964185E+03  0.12499782962E+03 0.  0.
    9000005    1    3    3    0    0  0.51417087411E+01  0.47532055746E+02  0.10552134175E+02  0.48970205512E+02  0.10000000000E+01 0.  0.
    9000005    1    3    3    0    0 -0.51417087411E+01 -0.47532055746E+02  0.13321666017E+03  0.14153943634E+03  0.10000000000E+01 0.  0.
<mgrwt>
<rscale>  0 0.12499783E+03</rscale>
<asrwt>0</asrwt>
<pdfrwt beam="1">  1        4 0.25713726E-01 0.12499783E+03</pdfrwt>
<pdfrwt beam="2">  1       -4 0.35954498E-02 0.12499783E+03</pdfrwt>
<totfact> 0.91763175E+03</totfact>
</mgrwt>
</event>
<event>
 5    1  0.3217852E-002  0.1249981E+03  0.7818608E-02  0.1235072E+00
          4   -1    0    0  501    0  0.00000000000E+00  0.00000000000E+00  0.84782639043E+01  0.85728559320E+01  0.12700000000E+01 0. -1.
         -4   -1    0    0    0  501 -0.00000000000E+00 -0.00000000000E+00 -0.45807145835E+03  0.45807321888E+03  0.12700000000E+01 0. -1.
         25    2    1    2    0    0  0.00000000000E+00  0.00000000000E+00 -0.44959319444E+03  0.46664607481E+03  0.12499807457E+03 0.  0.
    9000005    1    3    3    0    0 -0.35810907599E+02  0.41345290820E+01 -0.34233258887E+02  0.49723550233E+02  0.10000000000E+01 0.  0.
    9000005    1    3    3    0    0  0.35810907599E+02 -0.41345290820E+01 -0.41535993555E+03  0.41692252457E+03  0.10000000000E+01 0.  0.
<mgrwt>
<rscale>  0 0.12499807E+03</rscale>
<asrwt>0</asrwt>
<pdfrwt beam="1">  1        4 0.13117604E-02 0.12499807E+03</pdfrwt>
<pdfrwt beam="2">  1       -4 0.70479925E-01 0.12499807E+03</pdfrwt>
<totfact> 0.58550881E+03</totfact>
</mgrwt>
</event>
<event>
 5    1  0.3217852E-002  0.1249997E+03  0.7818608E-02  0.1235070E+00
          4   -1    0    0  501    0  0.00000000000E+00  0.00000000000E+00  0.23231754373E+03  0.23232101503E+03  0.12700000000E+01 0.  1.
         -4   -1    0    0    0  501 -0.00000000000E+00 -0.00000000000E+00 -0.16786594837E+02  0.16834567598E+02  0.12700000000E+01 0.  1.
         25    2    1    2    0    0  0.00000000000E+00  0.00000000000E+00  0.21553094889E+03  0.24915558263E+03  0.12499965770E+03 0.  0.
    9000005    1    3    3    0    0  0.21960667122E+02 -0.58207824438E+02  0.96005825822E+02  0.11440515862E+03  0.10000000000E+01 0.  0.
    9000005    1    3    3    0    0 -0.21960667122E+02  0.58207824438E+02  0.11952512307E+03  0.13475042401E+03  0.10000000000E+01 0.  0.
<mgrwt>
<rscale>  0 0.12499966E+03</rscale>
<asrwt>0</asrwt>
<pdfrwt beam="1">  1        4 0.35745121E-01 0.12499966E+03</pdfrwt>
<pdfrwt beam="2">  1       -4 0.25865101E-02 0.12499966E+03</pdfrwt>
<totfact> 0.82453051E+03</totfact>
</mgrwt>
</event>
<event>
 5    1  0.3217852E-002  0.1250019E+03  0.7818608E-02  0.1235066E+00
          4   -1    0    0  501    0  0.00000000000E+00  0.00000000000E+00  0.72309252175E+02  0.72320404107E+02  0.12700000000E+01 0.  1.
         -4   -1    0    0    0  501 -0.00000000000E+00 -0.00000000000E+00 -0.54000324863E+02  0.54015256968E+02  0.12700000000E+01 0.  1.
         25    2    1    2    0    0  0.00000000000E+00  0.00000000000E+00  0.18308927312E+02  0.12633566107E+03  0.12500192974E+03 0.  0.
    9000005    1    3    3    0    0 -0.43562945447E+01 -0.48831754392E+02  0.48321703107E+02  0.68844059514E+02  0.10000000000E+01 0.  0.
    9000005    1    3    3    0    0  0.43562945447E+01  0.48831754392E+02 -0.30012775794E+02  0.57491601561E+02  0.10000000000E+01 0.  0.
<mgrwt>
<rscale>  0 0.12500193E+03</rscale>
<asrwt>0</asrwt>
<pdfrwt beam="1">  1        4 0.11126507E-01 0.12500193E+03</pdfrwt>
<pdfrwt beam="2">  1       -4 0.83097488E-02 0.12500193E+03</pdfrwt>
<totfact> 0.10423160E+04</totfact>
</mgrwt>
</event>
<event>
 4    1  0.3217852E-002  0.1250709E+03  0.7818608E-02  0.1234958E+00
         -4   -1    0    0    0  501 -0.00000000000E+00  0.00000000000E+00  0.10306807114E+02  0.10384756756E+02  0.12700000000E+01 0.  1.
          4   -1    0    0  501    0  0.00000000000E+00 -0.00000000000E+00 -0.37791889309E+03  0.37792102701E+03  0.12700000000E+01 0.  1.
    9000005    1    1    2    0    0  0.27103568990E+02 -0.54075882455E+02 -0.13463039793E+03  0.14759792871E+03  0.10000000000E+01 0.  0.
    9000005    1    1    2    0    0 -0.27103568990E+02  0.54075882455E+02 -0.23298168805E+03  0.24070785505E+03  0.10000000000E+01 0.  0.
<mgrwt>
<rscale>  0 0.12507092E+03</rscale>
<asrwt>0</asrwt>
<pdfrwt beam="2">  1        4 0.58147518E-01 0.12507092E+03</pdfrwt>
<pdfrwt beam="1">  1       -4 0.15918232E-02 0.12507092E+03</pdfrwt>
<totfact> 0.65603446E+03</totfact>
</mgrwt>
</event>
<event>
 5    1  0.3217852E-002  0.1250009E+03  0.7818608E-02  0.1235068E+00
         -4   -1    0    0    0  501 -0.00000000000E+00  0.00000000000E+00  0.10078330708E+02  0.10158033760E+02  0.12700000000E+01 0. -1.
          4   -1    0    0  501    0  0.00000000000E+00 -0.00000000000E+00 -0.38598708748E+03  0.38598917679E+03  0.12700000000E+01 0. -1.
         25    2    1    2    0    0  0.00000000000E+00  0.00000000000E+00 -0.37590875677E+03  0.39614721055E+03  0.12500087604E+03 0.  0.
    9000005    1    3    3    0    0 -0.42058025483E+02 -0.38196840931E+02 -0.10546931628E+03  0.11980255774E+03  0.10000000000E+01 0.  0.
    9000005    1    3    3    0    0  0.42058025483E+02  0.38196840931E+02 -0.27043944049E+03  0.27634465281E+03  0.10000000000E+01 0.  0.
<mgrwt>
<rscale>  0 0.12500088E+03</rscale>
<asrwt>0</asrwt>
<pdfrwt beam="2">  1        4 0.59388909E-01 0.12500088E+03</pdfrwt>
<pdfrwt beam="1">  1       -4 0.15568044E-02 0.12500088E+03</pdfrwt>
<totfact> 0.64927989E+03</totfact>
</mgrwt>
</event>
<event>
 5    1  0.3217852E-002  0.1249998E+03  0.7818608E-02  0.1235070E+00
         -4   -1    0    0    0  501 -0.00000000000E+00  0.00000000000E+00  0.41650703731E+02  0.41670061450E+02  0.12700000000E+01 0.  1.
          4   -1    0    0  501    0  0.00000000000E+00 -0.00000000000E+00 -0.93740233018E+02  0.93748835653E+02  0.12700000000E+01 0.  1.
         25    2    1    2    0    0  0.00000000000E+00  0.00000000000E+00 -0.52089529287E+02  0.13541889710E+03  0.12499983452E+03 0.  0.
    9000005    1    3    3    0    0  0.62457934137E+02 -0.20370373391E+01 -0.25708052746E+02  0.67579930703E+02  0.10000000000E+01 0.  0.
    9000005    1    3    3    0    0 -0.62457934137E+02  0.20370373391E+01 -0.26381476541E+02  0.67838966400E+02  0.10000000000E+01 0.  0.
<mgrwt>
<rscale>  0 0.12499983E+03</rscale>
<asrwt>0</asrwt>
<pdfrwt beam="2">  1        4 0.14423725E-01 0.12499983E+03</pdfrwt>
<pdfrwt beam="1">  1       -4 0.64099514E-02 0.12499983E+03</pdfrwt>
<totfact> 0.10229287E+04</totfact>
</mgrwt>
</event>
<event>
 5    1  0.3217852E-002  0.1249992E+03  0.7818608E-02  0.1235070E+00
          4   -1    0    0  501    0  0.00000000000E+00  0.00000000000E+00  0.16757121840E+02  0.16805178737E+02  0.12700000000E+01 0.  1.
         -4   -1    0    0    0  501 -0.00000000000E+00 -0.00000000000E+00 -0.23272341662E+03  0.23272688187E+03  0.12700000000E+01 0.  1.
         25    2    1    2    0    0  0.00000000000E+00  0.00000000000E+00 -0.21596629478E+03  0.24953206060E+03  0.12499923515E+03 0.  0.
    9000005    1    3    3    0    0  0.43656648728E+02 -0.33372451981E+02 -0.48576838299E+02  0.73350751520E+02  0.10000000000E+01 0.  0.
    9000005    1    3    3    0    0 -0.43656648728E+02  0.33372451981E+02 -0.16738945648E+03  0.17618130908E+03  0.10000000000E+01 0.  0.
<mgrwt>
<rscale>  0 0.12499924E+03</rscale>
<asrwt>0</asrwt>
<pdfrwt beam="1">  1        4 0.25819822E-02 0.12499924E+03</pdfrwt>
<pdfrwt beam="2">  1       -4 0.35807563E-01 0.12499924E+03</pdfrwt>
<totfact> 0.82399312E+03</totfact>
</mgrwt>
</event>
<event>
 5    1  0.3217852E-002  0.1249990E+03  0.7818608E-02  0.1235071E+00
         -4   -1    0    0    0  501 -0.00000000000E+00  0.00000000000E+00  0.44720325949E+02  0.44738355502E+02  0.12700000000E+01 0.  1.
          4   -1    0    0  501    0  0.00000000000E+00 -0.00000000000E+00 -0.87306823022E+02  0.87316059498E+02  0.12700000000E+01 0.  1.
         25    2    1    2    0    0  0.00000000000E+00  0.00000000000E+00 -0.42586497073E+02  0.13205441500E+03  0.12499903515E+03 0.  0.
    9000005    1    3    3    0    0 -0.17685784835E+02  0.59238582668E+02 -0.30929092298E+02  0.69134690367E+02  0.10000000000E+01 0.  0.
    9000005    1    3    3    0    0  0.17685784835E+02 -0.59238582668E+02 -0.11657404775E+02  0.62919724633E+02  0.10000000000E+01 0.  0.
<mgrwt>
<rscale>  0 0.12499904E+03</rscale>
<asrwt>0</asrwt>
<pdfrwt beam="2">  1        4 0.13433916E-01 0.12499904E+03</pdfrwt>
<pdfrwt beam="1">  1       -4 0.68821475E-02 0.12499904E+03</pdfrwt>
<totfact> 0.10300761E+04</totfact>
</mgrwt>
</event>
<event>
 5    1  0.3217852E-002  0.1249973E+03  0.7818608E-02  0.1235073E+00
          4   -1    0    0  501    0  0.00000000000E+00  0.00000000000E+00  0.54469929390E+02  0.54484732795E+02  0.12700000000E+01 0.  1.
         -4   -1    0    0    0  501 -0.00000000000E+00 -0.00000000000E+00 -0.71680647641E+02  0.71691897354E+02  0.12700000000E+01 0.  1.
         25    2    1    2    0    0  0.00000000000E+00  0.00000000000E+00 -0.17210718251E+02  0.12617663015E+03  0.12499733266E+03 0.  0.
    9000005    1    3    3    0    0  0.68662347141E+00 -0.58495441019E+02  0.13576841689E+02  0.60062623170E+02  0.10000000000E+01 0.  0.
    9000005    1    3    3    0    0 -0.68662347141E+00  0.58495441019E+02 -0.30787559940E+02  0.66114006979E+02  0.10000000000E+01 0.  0.
<mgrwt>
<rscale>  0 0.12499733E+03</rscale>
<asrwt>0</asrwt>
<pdfrwt beam="1">  1        4 0.83819932E-02 0.12499733E+03</pdfrwt>
<pdfrwt beam="2">  1       -4 0.11029796E-01 0.12499733E+03</pdfrwt>
<totfact> 0.10427718E+04</totfact>
</mgrwt>
</event>
<event>
 5    1  0.3217852E-002  0.1249990E+03  0.7818608E-02  0.1235071E+00
          4   -1    0    0  501    0  0.00000000000E+00  0.00000000000E+00  0.34780162289E+02  0.34803341634E+02  0.12700000000E+01 0. -1.
         -4   -1    0    0    0  501 -0.00000000000E+00 -0.00000000000E+00 -0.11224668017E+03  0.11225386456E+03  0.12700000000E+01 0. -1.
         25    2    1    2    0    0  0.00000000000E+00  0.00000000000E+00 -0.77466517880E+02  0.14705720620E+03  0.12499904200E+03 0.  0.
    9000005    1    3    3    0    0 -0.59601325572E+02 -0.18571665406E+02 -0.42053597085E+02  0.75277684567E+02  0.10000000000E+01 0.  0.
    9000005    1    3    3    0    0  0.59601325572E+02  0.18571665406E+02 -0.35412920795E+02  0.71779521628E+02  0.10000000000E+01 0.  0.
<mgrwt>
<rscale>  0 0.12499904E+03</rscale>
<asrwt>0</asrwt>
<pdfrwt beam="1">  1        4 0.53531299E-02 0.12499904E+03</pdfrwt>
<pdfrwt beam="2">  1       -4 0.17271056E-01 0.12499904E+03</pdfrwt>
<totfact> 0.99895722E+03</totfact>
</mgrwt>
</event>
<event>
 5    1  0.3217852E-002  0.1250024E+03  0.7818608E-02  0.1235066E+00
         -4   -1    0    0    0  501 -0.00000000000E+00  0.00000000000E+00  0.11636863141E+03  0.11637556134E+03  0.12700000000E+01 0.  1.
          4   -1    0    0  501    0  0.00000000000E+00 -0.00000000000E+00 -0.33549221101E+02  0.33573250312E+02  0.12700000000E+01 0.  1.
         25    2    1    2    0    0  0.00000000000E+00  0.00000000000E+00  0.82819410309E+02  0.14994881165E+03  0.12500236554E+03 0.  0.
    9000005    1    3    3    0    0 -0.13123769440E+02  0.55648173419E+02  0.11147167362E+02  0.58259864996E+02  0.10000000000E+01 0.  0.
    9000005    1    3    3    0    0  0.13123769440E+02 -0.55648173419E+02  0.71672242947E+02  0.91688946652E+02  0.10000000000E+01 0.  0.
<mgrwt>
<rscale>  0 0.12500237E+03</rscale>
<asrwt>0</asrwt>
<pdfrwt beam="2">  1        4 0.51638001E-02 0.12500237E+03</pdfrwt>
<pdfrwt beam="1">  1       -4 0.17905248E-01 0.12500237E+03</pdfrwt>
<totfact> 0.99308615E+03</totfact>
</mgrwt>
</event>
<event>
 5    1  0.3217852E-002  0.1250007E+03  0.7818608E-02  0.1235068E+00
         -4   -1    0    0    0  501 -0.00000000000E+00  0.00000000000E+00  0.16582036334E+02  0.16630599176E+02  0.12700000000E+01 0.  1.
          4   -1    0    0  501    0  0.00000000000E+00 -0.00000000000E+00 -0.23517902234E+03  0.23518245140E+03  0.12700000000E+01 0.  1.
         25    2    1    2    0    0  0.00000000000E+00  0.00000000000E+00 -0.21859698600E+03  0.25181305058E+03  0.12500068060E+03 0.  0.
    9000005    1    3    3    0    0 -0.47077442493E+02  0.33790256343E+02 -0.15642323971E+03  0.16681515800E+03  0.10000000000E+01 0.  0.
    9000005    1    3    3    0    0  0.47077442493E+02 -0.33790256343E+02 -0.62173746290E+02  0.84997892580E+02  0.10000000000E+01 0.  0.
<mgrwt>
<rscale>  0 0.12500068E+03</rscale>
<asrwt>0</asrwt>
<pdfrwt beam="2">  1        4 0.36185385E-01 0.12500068E+03</pdfrwt>
<pdfrwt beam="1">  1       -4 0.25550821E-02 0.12500068E+03</pdfrwt>
<totfact> 0.82067647E+03</totfact>
</mgrwt>
</event>
<event>
 5    1  0.3217852E-002  0.1249939E+03  0.7818608E-02  0.1235079E+00
          4   -1    0    0  501    0  0.00000000000E+00  0.00000000000E+00  0.14229438239E+03  0.14230004975E+03  0.12700000000E+01 0.  1.
         -4   -1    0    0    0  501 -0.00000000000E+00 -0.00000000000E+00 -0.27428292268E+02  0.27457678648E+02  0.12700000000E+01 0.  1.
         25    2    1    2    0    0  0.00000000000E+00  0.00000000000E+00  0.11486609012E+03  0.16975772840E+03  0.12499387062E+03 0.  0.
    9000005    1    3    3    0    0  0.41783714694E+02 -0.22980609078E+02  0.25861806709E+01  0.47766887460E+02  0.10000000000E+01 0.  0.
    9000005    1    3    3    0    0 -0.41783714694E+02  0.22980609078E+02  0.11227990945E+03  0.12199084094E+03  0.10000000000E+01 0.  0.
<mgrwt>
<rscale>  0 0.12499387E+03</rscale>
<asrwt>0</asrwt>
<pdfrwt beam="1">  1        4 0.21894140E-01 0.12499387E+03</pdfrwt>
<pdfrwt beam="2">  1       -4 0.42224338E-02 0.12499387E+03</pdfrwt>
<totfact> 0.95506951E+03</totfact>
</mgrwt>
</event>
<event>
 5    1  0.3217852E-002  0.1250025E+03  0.7818608E-02  0.1235065E+00
          4   -1    0    0  501    0  0.00000000000E+00  0.00000000000E+00  0.16149837069E+03  0.16150336416E+03  0.12700000000E+01 0.  1.
         -4   -1    0    0    0  501 -0.00000000000E+00 -0.00000000000E+00 -0.24166459773E+02  0.24199807396E+02  0.12700000000E+01 0.  1.
         25    2    1    2    0    0  0.00000000000E+00  0.00000000000E+00  0.13733191091E+03  0.18570317155E+03  0.12500245666E+03 0.  0.
    9000005    1    3    3    0    0 -0.12432107262E+02  0.48619291983E+02  0.12399340849E+03  0.13376755284E+03  0.10000000000E+01 0.  0.
    9000005    1    3    3    0    0  0.12432107262E+02 -0.48619291983E+02  0.13338502419E+02  0.51935618709E+02  0.10000000000E+01 0.  0.
<mgrwt>
<rscale>  0 0.12500246E+03</rscale>
<asrwt>0</asrwt>
<pdfrwt beam="1">  1        4 0.24848852E-01 0.12500246E+03</pdfrwt>
<pdfrwt beam="2">  1       -4 0.37208662E-02 0.12500246E+03</pdfrwt>
<totfact> 0.92595273E+03</totfact>
</mgrwt>
</event>
<event>
 5    1  0.3217852E-002  0.1250027E+03  0.7818608E-02  0.1235065E+00
          4   -1    0    0  501    0  0.00000000000E+00  0.00000000000E+00  0.19757488269E+02  0.19798263628E+02  0.12700000000E+01 0.  1.
         -4   -1    0    0    0  501 -0.00000000000E+00 -0.00000000000E+00 -0.19747190267E+03  0.19747598650E+03  0.12700000000E+01 0.  1.
         25    2    1    2    0    0  0.00000000000E+00  0.00000000000E+00 -0.17771441440E+03  0.21727425013E+03  0.12500274670E+03 0.  0.
    9000005    1    3    3    0    0  0.49088918914E+01  0.25965071188E+02  0.95773588750E+01  0.28124863456E+02  0.10000000000E+01 0.  0.
    9000005    1    3    3    0    0 -0.49088918914E+01 -0.25965071188E+02 -0.18729177328E+03  0.18914938667E+03  0.10000000000E+01 0.  0.
<mgrwt>
<rscale>  0 0.12500275E+03</rscale>
<asrwt>0</asrwt>
<pdfrwt beam="1">  1        4 0.30430644E-02 0.12500275E+03</pdfrwt>
<pdfrwt beam="2">  1       -4 0.30383742E-01 0.12500275E+03</pdfrwt>
<totfact> 0.87296153E+03</totfact>
</mgrwt>
</event>
<event>
 5    1  0.3217852E-002  0.1250006E+03  0.7818608E-02  0.1235068E+00
          4   -1    0    0  501    0  0.00000000000E+00  0.00000000000E+00  0.11189671458E+04  0.11189678665E+04  0.12700000000E+01 0. -1.
         -4   -1    0    0    0  501 -0.00000000000E+00 -0.00000000000E+00 -0.33747275350E+01  0.36057850651E+01  0.12700000000E+01 0. -1.
         25    2    1    2    0    0  0.00000000000E+00  0.00000000000E+00  0.11155924182E+04  0.11225736515E+04  0.12500063807E+03 0.  0.
    9000005    1    3    3    0    0  0.34746044162E+02  0.64021731248E+01  0.94882998683E+02  0.10125245106E+03  0.10000000000E+01 0.  0.
    9000005    1    3    3    0    0 -0.34746044162E+02 -0.64021731248E+01  0.10207094195E+04  0.10213212005E+04  0.10000000000E+01 0.  0.
<mgrwt>
<rscale>  0 0.12500064E+03</rscale>
<asrwt>0</asrwt>
<pdfrwt beam="1">  1        4 0.17216657E+00 0.12500064E+03</pdfrwt>
<pdfrwt beam="2">  1       -4 0.53701812E-03 0.12500064E+03</pdfrwt>
<totfact> 0.26831579E+03</totfact>
</mgrwt>
</event>
<event>
 5    1  0.3217852E-002  0.1250014E+03  0.7818608E-02  0.1235067E+00
         -4   -1    0    0    0  501 -0.00000000000E+00  0.00000000000E+00  0.10347688779E+03  0.10348468102E+03  0.12700000000E+01 0. -1.
          4   -1    0    0  501    0  0.00000000000E+00 -0.00000000000E+00 -0.37730894741E+02  0.37752262421E+02  0.12700000000E+01 0. -1.
         25    2    1    2    0    0  0.00000000000E+00  0.00000000000E+00  0.65745993049E+02  0.14123694345E+03  0.12500135436E+03 0.  0.
    9000005    1    3    3    0    0 -0.16078495849E+02 -0.92761889136E+01 -0.34549602248E+02  0.39233158489E+02  0.10000000000E+01 0.  0.
    9000005    1    3    3    0    0  0.16078495849E+02  0.92761889136E+01  0.10029559530E+03  0.10200378496E+03  0.10000000000E+01 0.  0.
<mgrwt>
<rscale>  0 0.12500135E+03</rscale>
<asrwt>0</asrwt>
<pdfrwt beam="2">  1        4 0.58069962E-02 0.12500135E+03</pdfrwt>
<pdfrwt beam="1">  1       -4 0.15921764E-01 0.12500135E+03</pdfrwt>
<totfact> 0.10107705E+04</totfact>
</mgrwt>
</event>
<event>
 5    1  0.3217852E-002  0.1250007E+03  0.7818608E-02  0.1235068E+00
         -4   -1    0    0    0  501 -0.00000000000E+00  0.00000000000E+00  0.39009103646E+03  0.39009310379E+03  0.12700000000E+01 0.  1.
          4   -1    0    0  501    0  0.00000000000E+00 -0.00000000000E+00 -0.99714248716E+01  0.10051975625E+02  0.12700000000E+01 0.  1.
         25    2    1    2    0    0  0.00000000000E+00  0.00000000000E+00  0.38011961159E+03  0.40014507942E+03  0.12500066187E+03 0.  0.
    9000005    1    3    3    0    0 -0.47478361915E+02  0.17129482988E+02  0.72108310399E+02  0.88023988016E+02  0.10000000000E+01 0.  0.
    9000005    1    3    3    0    0  0.47478361915E+02 -0.17129482988E+02  0.30801130119E+03  0.31212109140E+03  0.10000000000E+01 0.  0.
<mgrwt>
<rscale>  0 0.12500066E+03</rscale>
<asrwt>0</asrwt>
<pdfrwt beam="2">  1        4 0.15404208E-02 0.12500066E+03</pdfrwt>
<pdfrwt beam="1">  1       -4 0.60020354E-01 0.12500066E+03</pdfrwt>
<totfact> 0.64537741E+03</totfact>
</mgrwt>
</event>
<event>
 5    1  0.3217852E-002  0.1249995E+03  0.7818608E-02  0.1235070E+00
         -4   -1    0    0    0  501 -0.00000000000E+00  0.00000000000E+00  0.28626636494E+03  0.28626918206E+03  0.12700000000E+01 0. -1.
          4   -1    0    0  501    0  0.00000000000E+00 -0.00000000000E+00 -0.13612950961E+02  0.13672063994E+02  0.12700000000E+01 0. -1.
         25    2    1    2    0    0  0.00000000000E+00  0.00000000000E+00  0.27265341398E+03  0.29994124606E+03  0.12499946771E+03 0.  0.
    9000005    1    3    3    0    0  0.14469275082E+02 -0.60635601711E+02  0.12581775757E+03  0.14041774901E+03  0.10000000000E+01 0.  0.
    9000005    1    3    3    0    0 -0.14469275082E+02  0.60635601711E+02  0.14683565641E+03  0.15952349705E+03  0.10000000000E+01 0.  0.
<mgrwt>
<rscale>  0 0.12499947E+03</rscale>
<asrwt>0</asrwt>
<pdfrwt beam="2">  1        4 0.20990640E-02 0.12499947E+03</pdfrwt>
<pdfrwt beam="1">  1       -4 0.44045744E-01 0.12499947E+03</pdfrwt>
<totfact> 0.75607100E+03</totfact>
</mgrwt>
</event>
<event>
 5    1  0.3217852E-002  0.1249969E+03  0.7818608E-02  0.1235074E+00
         -4   -1    0    0    0  501 -0.00000000000E+00  0.00000000000E+00  0.12583208488E+03  0.12583849366E+03  0.12700000000E+01 0.  1.
          4   -1    0    0  501    0  0.00000000000E+00 -0.00000000000E+00 -0.31021631669E+02  0.31047617161E+02  0.12700000000E+01 0.  1.
         25    2    1    2    0    0  0.00000000000E+00  0.00000000000E+00  0.94810453215E+02  0.15688611082E+03  0.12499691888E+03 0.  0.
    9000005    1    3    3    0    0  0.42660569264E+02 -0.42771071730E+02  0.27332384209E+02  0.66312502391E+02  0.10000000000E+01 0.  0.
    9000005    1    3    3    0    0 -0.42660569264E+02  0.42771071730E+02  0.67478069006E+02  0.90573608428E+02  0.10000000000E+01 0.  0.
<mgrwt>
<rscale>  0 0.12499692E+03</rscale>
<asrwt>0</asrwt>
<pdfrwt beam="2">  1        4 0.47750506E-02 0.12499692E+03</pdfrwt>
<pdfrwt beam="1">  1       -4 0.19361274E-01 0.12499692E+03</pdfrwt>
<totfact> 0.97953285E+03</totfact>
</mgrwt>
</event>
<event>
 5    1  0.3217852E-002  0.1249988E+03  0.7818608E-02  0.1235071E+00
          4   -1    0    0  501    0  0.00000000000E+00  0.00000000000E+00  0.38691254239E+03  0.38691462670E+03  0.12700000000E+01 0.  1.
         -4   -1    0    0    0  501 -0.00000000000E+00 -0.00000000000E+00 -0.10053700982E+02  0.10133597754E+02  0.12700000000E+01 0.  1.
         25    2    1    2    0    0  0.00000000000E+00  0.00000000000E+00  0.37685884141E+03  0.39704822446E+03  0.12499882479E+03 0.  0.
    9000005    1    3    3    0    0  0.35872890454E+02  0.79693708218E+01  0.27877353454E+02  0.46135907669E+02  0.10000000000E+01 0.  0.
    9000005    1    3    3    0    0 -0.35872890454E+02 -0.79693708218E+01  0.34898148795E+03  0.35091231679E+03  0.10000000000E+01 0.  0.
<mgrwt>
<rscale>  0 0.12499882E+03</rscale>
<asrwt>0</asrwt>
<pdfrwt beam="1">  1        4 0.59531311E-01 0.12499882E+03</pdfrwt>
<pdfrwt beam="2">  1       -4 0.15530295E-02 0.12499882E+03</pdfrwt>
<totfact> 0.64842573E+03</totfact>
</mgrwt>
</event>
<event>
 5    1  0.3217852E-002  0.1249600E+03  0.7818608E-02  0.1235132E+00
          4   -1    0    0  501    0  0.00000000000E+00  0.00000000000E+00  0.91906040553E+02  0.91914814856E+02  0.12700000000E+01 0. -1.
         -4   -1    0    0    0  501 -0.00000000000E+00 -0.00000000000E+00 -0.42455119139E+02  0.42474110245E+02  0.12700000000E+01 0. -1.
         25    2    1    2    0    0  0.00000000000E+00  0.00000000000E+00  0.49450921413E+02  0.13438892510E+03  0.12495995183E+03 0.  0.
    9000005    1    3    3    0    0 -0.27052530774E+02 -0.54074929050E+02  0.41621076395E+02  0.73411520713E+02  0.10000000000E+01 0.  0.
    9000005    1    3    3    0    0  0.27052530774E+02  0.54074929050E+02  0.78298450179E+01  0.60977404389E+02  0.10000000000E+01 0.  0.
<mgrwt>
<rscale>  0 0.12495995E+03</rscale>
<asrwt>0</asrwt>
<pdfrwt beam="1">  1        4 0.14141526E-01 0.12495995E+03</pdfrwt>
<pdfrwt beam="2">  1       -4 0.65336927E-02 0.12495995E+03</pdfrwt>
<totfact> 0.10260231E+04</totfact>
</mgrwt>
</event>
<event>
 5    1  0.3217852E-002  0.1250004E+03  0.7818608E-02  0.1235069E+00
         -4   -1    0    0    0  501 -0.00000000000E+00  0.00000000000E+00  0.95933387416E+02  0.95941793402E+02  0.12700000000E+01 0. -1.
          4   -1    0    0  501    0  0.00000000000E+00 -0.00000000000E+00 -0.40698549795E+02  0.40718360176E+02  0.12700000000E+01 0. -1.
         25    2    1    2    0    0  0.00000000000E+00  0.00000000000E+00  0.55234837621E+02  0.13666015358E+03  0.12500044116E+03 0.  0.
    9000005    1    3    3    0    0  0.30200950795E+02  0.46061383097E+02 -0.46579573545E+01  0.55285124658E+02  0.10000000000E+01 0.  0.
    9000005    1    3    3    0    0 -0.30200950795E+02 -0.46061383097E+02  0.59892794976E+02  0.81375028920E+02  0.10000000000E+01 0.  0.
<mgrwt>
<rscale>  0 0.12500044E+03</rscale>
<asrwt>0</asrwt>
<pdfrwt beam="2">  1        4 0.62634860E-02 0.12500044E+03</pdfrwt>
<pdfrwt beam="1">  1       -4 0.14761153E-01 0.12500044E+03</pdfrwt>
<totfact> 0.10203095E+04</totfact>
</mgrwt>
</event>
<event>
 5    1  0.3217852E-002  0.1249931E+03  0.7818608E-02  0.1235080E+00
          4   -1    0    0  501    0  0.00000000000E+00  0.00000000000E+00  0.51519664815E+02  0.51535315684E+02  0.12700000000E+01 0. -1.
         -4   -1    0    0    0  501 -0.00000000000E+00 -0.00000000000E+00 -0.75779763900E+02  0.75790405176E+02  0.12700000000E+01 0. -1.
         25    2    1    2    0    0  0.00000000000E+00  0.00000000000E+00 -0.24260099085E+02  0.12732572086E+03  0.12499314695E+03 0.  0.
    9000005    1    3    3    0    0 -0.16179567907E+01  0.46201685970E+02 -0.54957570459E+02  0.71823033363E+02  0.10000000000E+01 0.  0.
    9000005    1    3    3    0    0  0.16179567907E+01 -0.46201685970E+02  0.30697471374E+02  0.55502687497E+02  0.10000000000E+01 0.  0.
<mgrwt>
<rscale>  0 0.12499315E+03</rscale>
<asrwt>0</asrwt>
<pdfrwt beam="1">  1        4 0.79281247E-02 0.12499315E+03</pdfrwt>
<pdfrwt beam="2">  1       -4 0.11660448E-01 0.12499315E+03</pdfrwt>
<totfact> 0.10403686E+04</totfact>
</mgrwt>
</event>
<event>
 5    1  0.3217852E-002  0.1250022E+03  0.7818608E-02  0.1235066E+00
          4   -1    0    0  501    0  0.00000000000E+00  0.00000000000E+00  0.25199668514E+02  0.25231650624E+02  0.12700000000E+01 0. -1.
         -4   -1    0    0    0  501 -0.00000000000E+00 -0.00000000000E+00 -0.15488448437E+03  0.15488969106E+03  0.12700000000E+01 0. -1.
         25    2    1    2    0    0  0.00000000000E+00  0.00000000000E+00 -0.12968481585E+03  0.18012134169E+03  0.12500218505E+03 0.  0.
    9000005    1    3    3    0    0 -0.40811895418E+02  0.29743975292E+02 -0.11799331420E+02  0.51870406744E+02  0.10000000000E+01 0.  0.
    9000005    1    3    3    0    0  0.40811895418E+02 -0.29743975292E+02 -0.11788548443E+03  0.12825093494E+03  0.10000000000E+01 0.  0.
<mgrwt>
<rscale>  0 0.12500219E+03</rscale>
<asrwt>0</asrwt>
<pdfrwt beam="1">  1        4 0.38797328E-02 0.12500219E+03</pdfrwt>
<pdfrwt beam="2">  1       -4 0.23831242E-01 0.12500219E+03</pdfrwt>
<totfact> 0.93590581E+03</totfact>
</mgrwt>
</event>
<event>
 5    1  0.3217852E-002  0.1250000E+03  0.7818608E-02  0.1235069E+00
          4   -1    0    0  501    0  0.00000000000E+00  0.00000000000E+00  0.35668735187E+02  0.35691337462E+02  0.12700000000E+01 0.  1.
         -4   -1    0    0    0  501 -0.00000000000E+00 -0.00000000000E+00 -0.10945374972E+03  0.10946111742E+03  0.12700000000E+01 0.  1.
         25    2    1    2    0    0  0.00000000000E+00  0.00000000000E+00 -0.73785014532E+02  0.14515245489E+03  0.12500002716E+03 0.  0.
    9000005    1    3    3    0    0  0.34205959971E+02  0.33921535060E+02  0.93312224394E+01  0.49079424921E+02  0.10000000000E+01 0.  0.
    9000005    1    3    3    0    0 -0.34205959971E+02 -0.33921535060E+02 -0.83116236972E+02  0.96073029965E+02  0.10000000000E+01 0.  0.
<mgrwt>
<rscale>  0 0.12500003E+03</rscale>
<asrwt>0</asrwt>
<pdfrwt beam="1">  1        4 0.54898032E-02 0.12500003E+03</pdfrwt>
<pdfrwt beam="2">  1       -4 0.16841344E-01 0.12500003E+03</pdfrwt>
<totfact> 0.10027886E+04</totfact>
</mgrwt>
</event>
<event>
 5    1  0.3217852E-002  0.1249992E+03  0.7818608E-02  0.1235071E+00
          4   -1    0    0  501    0  0.00000000000E+00  0.00000000000E+00  0.42298625926E+02  0.42317687262E+02  0.12700000000E+01 0. -1.
         -4   -1    0    0    0  501 -0.00000000000E+00 -0.00000000000E+00 -0.92303894043E+02  0.92312630531E+02  0.12700000000E+01 0. -1.
         25    2    1    2    0    0  0.00000000000E+00  0.00000000000E+00 -0.50005268117E+02  0.13463031779E+03  0.12499918252E+03 0.  0.
    9000005    1    3    3    0    0 -0.40294168660E+02 -0.31231892201E+02 -0.63927924162E+02  0.81773043273E+02  0.10000000000E+01 0.  0.
    9000005    1    3    3    0    0  0.40294168660E+02  0.31231892201E+02  0.13922656044E+02  0.52857274521E+02  0.10000000000E+01 0.  0.
<mgrwt>
<rscale>  0 0.12499918E+03</rscale>
<asrwt>0</asrwt>
<pdfrwt beam="1">  1        4 0.65096192E-02 0.12499918E+03</pdfrwt>
<pdfrwt beam="2">  1       -4 0.14202737E-01 0.12499918E+03</pdfrwt>
<totfact> 0.10246058E+04</totfact>
</mgrwt>
</event>
<event>
 5    1  0.3217852E-002  0.1249994E+03  0.7818608E-02  0.1235070E+00
          4   -1    0    0  501    0  0.00000000000E+00  0.00000000000E+00  0.55269708698E+01  0.56710058187E+01  0.12700000000E+01 0. -1.
         -4   -1    0    0    0  501 -0.00000000000E+00 -0.00000000000E+00 -0.69751962028E+03  0.69752077645E+03  0.12700000000E+01 0. -1.
         25    2    1    2    0    0  0.00000000000E+00  0.00000000000E+00 -0.69199264941E+03  0.70319178227E+03  0.12499942323E+03 0.  0.
    9000005    1    3    3    0    0  0.23387618634E+02 -0.56221855019E+02 -0.42502218452E+03  0.42936317381E+03  0.10000000000E+01 0.  0.
    9000005    1    3    3    0    0 -0.23387618634E+02  0.56221855019E+02 -0.26697046489E+03  0.27382860846E+03  0.10000000000E+01 0.  0.
<mgrwt>
<rscale>  0 0.12499942E+03</rscale>
<asrwt>0</asrwt>
<pdfrwt beam="1">  1        4 0.86147231E-03 0.12499942E+03</pdfrwt>
<pdfrwt beam="2">  1       -4 0.10732181E+00 0.12499942E+03</pdfrwt>
<totfact> 0.42919302E+03</totfact>
</mgrwt>
</event>
<event>
 5    1  0.3217852E-002  0.1249986E+03  0.7818608E-02  0.1235071E+00
          4   -1    0    0  501    0  0.00000000000E+00  0.00000000000E+00  0.77783582746E+02  0.77793949924E+02  0.12700000000E+01 0. -1.
         -4   -1    0    0    0  501 -0.00000000000E+00 -0.00000000000E+00 -0.50196616900E+02  0.50212680154E+02  0.12700000000E+01 0. -1.
         25    2    1    2    0    0  0.00000000000E+00  0.00000000000E+00  0.27586965846E+02  0.12800663008E+03  0.12499862663E+03 0.  0.
    9000005    1    3    3    0    0 -0.51698070259E+02 -0.30392039061E+02 -0.42020296787E+01  0.60125065989E+02  0.10000000000E+01 0.  0.
    9000005    1    3    3    0    0  0.51698070259E+02  0.30392039061E+02  0.31788995525E+02  0.67881564089E+02  0.10000000000E+01 0.  0.
<mgrwt>
<rscale>  0 0.12499863E+03</rscale>
<asrwt>0</asrwt>
<pdfrwt beam="1">  1        4 0.11968738E-01 0.12499863E+03</pdfrwt>
<pdfrwt beam="2">  1       -4 0.77245896E-02 0.12499863E+03</pdfrwt>
<totfact> 0.10387666E+04</totfact>
</mgrwt>
</event>
<event>
 5    1  0.3217852E-002  0.1250011E+03  0.7818608E-02  0.1235068E+00
         -4   -1    0    0    0  501 -0.00000000000E+00  0.00000000000E+00  0.26958457254E+01  0.29800141233E+01  0.12700000000E+01 0. -1.
          4   -1    0    0  501    0  0.00000000000E+00 -0.00000000000E+00 -0.13761834663E+04  0.13761840523E+04  0.12700000000E+01 0. -1.
         25    2    1    2    0    0  0.00000000000E+00  0.00000000000E+00 -0.13734876206E+04  0.13791640664E+04  0.12500111301E+03 0.  0.
    9000005    1    3    3    0    0  0.14496804069E+02 -0.48287677481E+02 -0.10941462660E+04  0.10953076775E+04  0.10000000000E+01 0.  0.
    9000005    1    3    3    0    0 -0.14496804069E+02  0.48287677481E+02 -0.27934135461E+03  0.28385638890E+03  0.10000000000E+01 0.  0.
<mgrwt>
<rscale>  0 0.12500111E+03</rscale>
<asrwt>0</asrwt>
<pdfrwt beam="2">  1        4 0.21174190E+00 0.12500111E+03</pdfrwt>
<pdfrwt beam="1">  1       -4 0.43665078E-03 0.12500111E+03</pdfrwt>
<totfact> 0.20432085E+03</totfact>
</mgrwt>
</event>
<event>
 5    1  0.3217852E-002  0.1250032E+03  0.7818608E-02  0.1235064E+00
          4   -1    0    0  501    0  0.00000000000E+00  0.00000000000E+00  0.24272800453E+03  0.24273132695E+03  0.12700000000E+01 0. -1.
         -4   -1    0    0    0  501 -0.00000000000E+00 -0.00000000000E+00 -0.16065440226E+02  0.16115559862E+02  0.12700000000E+01 0. -1.
         25    2    1    2    0    0  0.00000000000E+00  0.00000000000E+00  0.22666256431E+03  0.25884688682E+03  0.12500317098E+03 0.  0.
    9000005    1    3    3    0    0  0.33940983080E+02 -0.50784461715E+02  0.85985487051E+02  0.10547775058E+03  0.10000000000E+01 0.  0.
    9000005    1    3    3    0    0 -0.33940983080E+02  0.50784461715E+02  0.14067707726E+03  0.15336913624E+03  0.10000000000E+01 0.  0.
<mgrwt>
<rscale>  0 0.12500317E+03</rscale>
<asrwt>0</asrwt>
<pdfrwt beam="1">  1        4 0.37346880E-01 0.12500317E+03</pdfrwt>
<pdfrwt beam="2">  1       -4 0.24757172E-02 0.12500317E+03</pdfrwt>
<totfact> 0.81062434E+03</totfact>
</mgrwt>
</event>
<event>
 5    1  0.3217852E-002  0.1250033E+03  0.7818608E-02  0.1235064E+00
          4   -1    0    0  501    0  0.00000000000E+00  0.00000000000E+00  0.53704328388E+03  0.53704478553E+03  0.12700000000E+01 0. -1.
         -4   -1    0    0    0  501 -0.00000000000E+00 -0.00000000000E+00 -0.72170478219E+01  0.73279382683E+01  0.12700000000E+01 0. -1.
         25    2    1    2    0    0  0.00000000000E+00  0.00000000000E+00  0.52982623606E+03  0.54437272379E+03  0.12500328794E+03 0.  0.
    9000005    1    3    3    0    0  0.61305677660E+02  0.64977340706E+01  0.22032114077E+03  0.22878595178E+03  0.10000000000E+01 0.  0.
    9000005    1    3    3    0    0 -0.61305677660E+02 -0.64977340706E+01  0.30950509529E+03  0.31558677202E+03  0.10000000000E+01 0.  0.
<mgrwt>
<rscale>  0 0.12500329E+03</rscale>
<asrwt>0</asrwt>
<pdfrwt beam="1">  1        4 0.82630727E-01 0.12500329E+03</pdfrwt>
<pdfrwt beam="2">  1       -4 0.11189601E-02 0.12500329E+03</pdfrwt>
<totfact> 0.52574972E+03</totfact>
</mgrwt>
</event>
<event>
 5    1  0.3217852E-002  0.1250256E+03  0.7818608E-02  0.1235029E+00
         -4   -1    0    0    0  501 -0.00000000000E+00  0.00000000000E+00  0.64091893120E+02  0.64104474600E+02  0.12700000000E+01 0.  1.
          4   -1    0    0  501    0  0.00000000000E+00 -0.00000000000E+00 -0.60947406927E+02  0.60960637391E+02  0.12700000000E+01 0.  1.
         25    2    1    2    0    0  0.00000000000E+00  0.00000000000E+00  0.31444861932E+01  0.12506511199E+03  0.12502557516E+03 0.  0.
    9000005    1    3    3    0    0  0.29597565582E+02  0.30577793212E+02 -0.44222483933E+02  0.61381148664E+02  0.10000000000E+01 0.  0.
    9000005    1    3    3    0    0 -0.29597565582E+02 -0.30577793212E+02  0.47366970126E+02  0.63683963327E+02  0.10000000000E+01 0.  0.
<mgrwt>
<rscale>  0 0.12502558E+03</rscale>
<asrwt>0</asrwt>
<pdfrwt beam="2">  1        4 0.93785097E-02 0.12502558E+03</pdfrwt>
<pdfrwt beam="1">  1       -4 0.98622768E-02 0.12502558E+03</pdfrwt>
<totfact> 0.10445410E+04</totfact>
</mgrwt>
</event>
<event>
 5    1  0.3217852E-002  0.1249701E+03  0.7818608E-02  0.1235116E+00
         -4   -1    0    0    0  501 -0.00000000000E+00  0.00000000000E+00  0.13949029972E+03  0.13949608100E+03  0.12700000000E+01 0.  1.
          4   -1    0    0  501    0  0.00000000000E+00 -0.00000000000E+00 -0.27969590052E+02  0.27998408306E+02  0.12700000000E+01 0.  1.
         25    2    1    2    0    0  0.00000000000E+00  0.00000000000E+00  0.11152070966E+03  0.16749448931E+03  0.12497013749E+03 0.  0.
    9000005    1    3    3    0    0  0.16965542399E+02 -0.40635557962E+02  0.11516204532E+03  0.12329791110E+03  0.10000000000E+01 0.  0.
    9000005    1    3    3    0    0 -0.16965542399E+02  0.40635557962E+02 -0.36413356561E+01  0.44196578206E+02  0.10000000000E+01 0.  0.
<mgrwt>
<rscale>  0 0.12497014E+03</rscale>
<asrwt>0</asrwt>
<pdfrwt beam="2">  1        4 0.43056754E-02 0.12497014E+03</pdfrwt>
<pdfrwt beam="1">  1       -4 0.21462707E-01 0.12497014E+03</pdfrwt>
<totfact> 0.95981407E+03</totfact>
</mgrwt>
</event>
<event>
 5    1  0.3217852E-002  0.1249941E+03  0.7818608E-02  0.1235079E+00
         -4   -1    0    0    0  501 -0.00000000000E+00  0.00000000000E+00  0.12641863644E+03  0.12642501548E+03  0.12700000000E+01 0.  1.
          4   -1    0    0  501    0  0.00000000000E+00 -0.00000000000E+00 -0.30876186835E+02  0.30902294631E+02  0.12700000000E+01 0.  1.
         25    2    1    2    0    0  0.00000000000E+00  0.00000000000E+00  0.95542449606E+02  0.15732731011E+03  0.12499409118E+03 0.  0.
    9000005    1    3    3    0    0  0.59504141719E+02 -0.92655012137E+01  0.68768460264E+02  0.91414952396E+02  0.10000000000E+01 0.  0.
    9000005    1    3    3    0    0 -0.59504141719E+02  0.92655012137E+01  0.26773989343E+02  0.65912357717E+02  0.10000000000E+01 0.  0.
<mgrwt>
<rscale>  0 0.12499409E+03</rscale>
<asrwt>0</asrwt>
<pdfrwt beam="2">  1        4 0.47526816E-02 0.12499409E+03</pdfrwt>
<pdfrwt beam="1">  1       -4 0.19451520E-01 0.12499409E+03</pdfrwt>
<totfact> 0.97873549E+03</totfact>
</mgrwt>
</event>
<event>
 5    1  0.3217852E-002  0.1249998E+03  0.7818608E-02  0.1235070E+00
          4   -1    0    0  501    0  0.00000000000E+00  0.00000000000E+00  0.19345692054E+03  0.19346108912E+03  0.12700000000E+01 0.  1.
         -4   -1    0    0    0  501 -0.00000000000E+00 -0.00000000000E+00 -0.20167412257E+02  0.20207360470E+02  0.12700000000E+01 0.  1.
         25    2    1    2    0    0  0.00000000000E+00  0.00000000000E+00  0.17328950828E+03  0.21366844959E+03  0.12499981068E+03 0.  0.
    9000005    1    3    3    0    0 -0.34044971366E+02 -0.51268165728E+02  0.68095880558E+02  0.91790706727E+02  0.10000000000E+01 0.  0.
    9000005    1    3    3    0    0  0.34044971366E+02  0.51268165728E+02  0.10519362773E+03  0.12187774287E+03  0.10000000000E+01 0.  0.
<mgrwt>
<rscale>  0 0.12499981E+03</rscale>
<asrwt>0</asrwt>
<pdfrwt beam="1">  1        4 0.29765997E-01 0.12499981E+03</pdfrwt>
<pdfrwt beam="2">  1       -4 0.31060724E-02 0.12499981E+03</pdfrwt>
<totfact> 0.87880629E+03</totfact>
</mgrwt>
</event>
<event>
 5    1  0.3217852E-002  0.1250054E+03  0.7818608E-02  0.1235061E+00
         -4   -1    0    0    0  501 -0.00000000000E+00  0.00000000000E+00  0.25990273590E+02  0.26021284006E+02  0.12700000000E+01 0. -1.
          4   -1    0    0  501    0  0.00000000000E+00 -0.00000000000E+00 -0.15018622843E+03  0.15019159800E+03  0.12700000000E+01 0. -1.
         25    2    1    2    0    0  0.00000000000E+00  0.00000000000E+00 -0.12419595484E+03  0.17621288201E+03  0.12500537823E+03 0.  0.
    9000005    1    3    3    0    0  0.78825364726E+01  0.58614775910E+02 -0.90562975907E+02  0.10816875215E+03  0.10000000000E+01 0.  0.
    9000005    1    3    3    0    0 -0.78825364726E+01 -0.58614775910E+02 -0.33632978931E+02  0.68044129857E+02  0.10000000000E+01 0.  0.
<mgrwt>
<rscale>  0 0.12500538E+03</rscale>
<asrwt>0</asrwt>
<pdfrwt beam="2">  1        4 0.23108372E-01 0.12500538E+03</pdfrwt>
<pdfrwt beam="1">  1       -4 0.40013022E-02 0.12500538E+03</pdfrwt>
<totfact> 0.94291797E+03</totfact>
</mgrwt>
</event>
<event>
 5    1  0.3217852E-002  0.1249992E+03  0.7818608E-02  0.1235071E+00
          4   -1    0    0  501    0  0.00000000000E+00  0.00000000000E+00  0.22799612957E+02  0.22834956777E+02  0.12700000000E+01 0. -1.
         -4   -1    0    0    0  501 -0.00000000000E+00 -0.00000000000E+00 -0.17115701090E+03  0.17116172259E+03  0.12700000000E+01 0. -1.
         25    2    1    2    0    0  0.00000000000E+00  0.00000000000E+00 -0.14835739795E+03  0.19399667937E+03  0.12499917632E+03 0.  0.
    9000005    1    3    3    0    0 -0.35100305682E+01 -0.60415276052E+02 -0.49992009510E+02  0.78501763738E+02  0.10000000000E+01 0.  0.
    9000005    1    3    3    0    0  0.35100305682E+01  0.60415276052E+02 -0.98365388436E+02  0.11549491563E+03  0.10000000000E+01 0.  0.
<mgrwt>
<rscale>  0 0.12499918E+03</rscale>
<asrwt>0</asrwt>
<pdfrwt beam="1">  1        4 0.35107141E-02 0.12499918E+03</pdfrwt>
<pdfrwt beam="2">  1       -4 0.26334928E-01 0.12499918E+03</pdfrwt>
<totfact> 0.91158200E+03</totfact>
</mgrwt>
</event>
<event>
 5    1  0.3217852E-002  0.1250002E+03  0.7818608E-02  0.1235069E+00
         -4   -1    0    0    0  501 -0.00000000000E+00  0.00000000000E+00  0.74952037802E+02  0.74962796577E+02  0.12700000000E+01 0. -1.
          4   -1    0    0  501    0  0.00000000000E+00 -0.00000000000E+00 -0.52094597593E+02  0.52110075785E+02  0.12700000000E+01 0. -1.
         25    2    1    2    0    0  0.00000000000E+00  0.00000000000E+00  0.22857440209E+02  0.12707287236E+03  0.12500020927E+03 0.  0.
    9000005    1    3    3    0    0  0.46041608572E+02  0.28240526799E+02  0.43380857833E+02  0.69283879078E+02  0.10000000000E+01 0.  0.
    9000005    1    3    3    0    0 -0.46041608572E+02 -0.28240526799E+02 -0.20523417624E+02  0.57788993284E+02  0.10000000000E+01 0.  0.
<mgrwt>
<rscale>  0 0.12500021E+03</rscale>
<asrwt>0</asrwt>
<pdfrwt beam="2">  1        4 0.80165717E-02 0.12500021E+03</pdfrwt>
<pdfrwt beam="1">  1       -4 0.11533101E-01 0.12500021E+03</pdfrwt>
<totfact> 0.10407514E+04</totfact>
</mgrwt>
</event>
<event>
 5    1  0.3217852E-002  0.1250010E+03  0.7818608E-02  0.1235068E+00
         -4   -1    0    0    0  501 -0.00000000000E+00  0.00000000000E+00  0.25161782951E+02  0.25193813154E+02  0.12700000000E+01 0. -1.
          4   -1    0    0  501    0  0.00000000000E+00 -0.00000000000E+00 -0.15511437008E+03  0.15511956906E+03  0.12700000000E+01 0. -1.
         25    2    1    2    0    0  0.00000000000E+00  0.00000000000E+00 -0.12995258713E+03  0.18031338221E+03  0.12500096361E+03 0.  0.
    9000005    1    3    3    0    0 -0.47981041190E+02  0.33818078583E+01 -0.12252615618E+03  0.13163311090E+03  0.10000000000E+01 0.  0.
    9000005    1    3    3    0    0  0.47981041190E+02 -0.33818078583E+01 -0.74264309484E+01  0.48680271309E+02  0.10000000000E+01 0.  0.
<mgrwt>
<rscale>  0 0.12500096E+03</rscale>
<asrwt>0</asrwt>
<pdfrwt beam="2">  1        4 0.23866612E-01 0.12500096E+03</pdfrwt>
<pdfrwt beam="1">  1       -4 0.38739074E-02 0.12500096E+03</pdfrwt>
<totfact> 0.93558603E+03</totfact>
</mgrwt>
</event>
<event>
 5    1  0.3217852E-002  0.1249979E+03  0.7818608E-02  0.1235073E+00
          4   -1    0    0  501    0  0.00000000000E+00  0.00000000000E+00  0.41454526067E+02  0.41473975351E+02  0.12700000000E+01 0. -1.
         -4   -1    0    0    0  501 -0.00000000000E+00 -0.00000000000E+00 -0.94180720577E+02  0.94189282981E+02  0.12700000000E+01 0. -1.
         25    2    1    2    0    0  0.00000000000E+00  0.00000000000E+00 -0.52726194510E+02  0.13566325833E+03  0.12499787228E+03 0.  0.
    9000005    1    3    3    0    0  0.57792446444E+02  0.23086115054E+02 -0.20206193175E+02  0.65438718026E+02  0.10000000000E+01 0.  0.
    9000005    1    3    3    0    0 -0.57792446444E+02 -0.23086115054E+02 -0.32520001335E+02  0.70224540306E+02  0.10000000000E+01 0.  0.
<mgrwt>
<rscale>  0 0.12499787E+03</rscale>
<asrwt>0</asrwt>
<pdfrwt beam="1">  1        4 0.63797742E-02 0.12499787E+03</pdfrwt>
<pdfrwt beam="2">  1       -4 0.14491496E-01 0.12499787E+03</pdfrwt>
<totfact> 0.10224601E+04</totfact>
</mgrwt>
</event>
<event>
 5    1  0.3217852E-002  0.1250033E+03  0.7818608E-02  0.1235064E+00
          4   -1    0    0  501    0  0.00000000000E+00  0.00000000000E+00  0.23569978765E+03  0.23570320914E+03  0.12700000000E+01 0.  1.
         -4   -1    0    0    0  501 -0.00000000000E+00 -0.00000000000E+00 -0.16545996457E+02  0.16594664768E+02  0.12700000000E+01 0.  1.
         25    2    1    2    0    0  0.00000000000E+00  0.00000000000E+00  0.21915379119E+03  0.25229787391E+03  0.12500333189E+03 0.  0.
    9000005    1    3    3    0    0  0.37050842395E+02  0.47372964569E+02  0.75295257781E+02  0.96370838631E+02  0.10000000000E+01 0.  0.
    9000005    1    3    3    0    0 -0.37050842395E+02 -0.47372964569E+02  0.14385853341E+03  0.15592703528E+03  0.10000000000E+01 0.  0.
<mgrwt>
<rscale>  0 0.12500333E+03</rscale>
<asrwt>0</asrwt>
<pdfrwt beam="1">  1        4 0.36265514E-01 0.12500333E+03</pdfrwt>
<pdfrwt beam="2">  1       -4 0.25495448E-02 0.12500333E+03</pdfrwt>
<totfact> 0.81993157E+03</totfact>
</mgrwt>
</event>
<event>
 5    1  0.3217852E-002  0.1250013E+03  0.7818608E-02  0.1235067E+00
         -4   -1    0    0    0  501 -0.00000000000E+00  0.00000000000E+00  0.46356887269E+03  0.46357061234E+03  0.12700000000E+01 0.  1.
          4   -1    0    0  501    0  0.00000000000E+00 -0.00000000000E+00 -0.83770246498E+01  0.84727470151E+01  0.12700000000E+01 0.  1.
         25    2    1    2    0    0  0.00000000000E+00  0.00000000000E+00  0.45519184804E+03  0.47204335936E+03  0.12500125836E+03 0.  0.
    9000005    1    3    3    0    0 -0.17537735734E+02  0.23815515011E+02  0.43548430659E+03  0.43648863928E+03  0.10000000000E+01 0.  0.
    9000005    1    3    3    0    0  0.17537735734E+02 -0.23815515011E+02  0.19707541445E+02  0.35554720077E+02  0.10000000000E+01 0.  0.
<mgrwt>
<rscale>  0 0.12500126E+03</rscale>
<asrwt>0</asrwt>
<pdfrwt beam="2">  1        4 0.12962702E-02 0.12500126E+03</pdfrwt>
<pdfrwt beam="1">  1       -4 0.71325781E-01 0.12500126E+03</pdfrwt>
<totfact> 0.58099025E+03</totfact>
</mgrwt>
</event>
<event>
 5    1  0.3217852E-002  0.1249990E+03  0.7818608E-02  0.1235071E+00
         -4   -1    0    0    0  501 -0.00000000000E+00  0.00000000000E+00  0.33957026227E+03  0.33957263718E+03  0.12700000000E+01 0.  1.
          4   -1    0    0  501    0  0.00000000000E+00 -0.00000000000E+00 -0.11465844640E+02  0.11535965209E+02  0.12700000000E+01 0.  1.
         25    2    1    2    0    0  0.00000000000E+00  0.00000000000E+00  0.32810441763E+03  0.35110860239E+03  0.12499896720E+03 0.  0.
    9000005    1    3    3    0    0 -0.23441070192E+02 -0.21216972735E+02  0.31546013300E+03  0.31704217261E+03  0.10000000000E+01 0.  0.
    9000005    1    3    3    0    0  0.23441070192E+02  0.21216972735E+02  0.12644284638E+02  0.34066429778E+02  0.10000000000E+01 0.  0.
<mgrwt>
<rscale>  0 0.12499897E+03</rscale>
<asrwt>0</asrwt>
<pdfrwt beam="2">  1        4 0.17695529E-02 0.12499897E+03</pdfrwt>
<pdfrwt beam="1">  1       -4 0.52247148E-01 0.12499897E+03</pdfrwt>
<totfact> 0.69604362E+03</totfact>
</mgrwt>
</event>
<event>
 5    1  0.3217852E-002  0.1249955E+03  0.7818608E-02  0.1235076E+00
         -4   -1    0    0    0  501 -0.00000000000E+00  0.00000000000E+00  0.78110477605E+01  0.79136190910E+01  0.12700000000E+01 0.  1.
          4   -1    0    0  501    0  0.00000000000E+00 -0.00000000000E+00 -0.49669140445E+03  0.49669302809E+03  0.12700000000E+01 0.  1.
         25    2    1    2    0    0  0.00000000000E+00  0.00000000000E+00 -0.48888035669E+03  0.50460664718E+03  0.12499546081E+03 0.  0.
    9000005    1    3    3    0    0 -0.53443675757E+02  0.28112348777E+02 -0.30933872277E+03  0.31517927603E+03  0.10000000000E+01 0.  0.
    9000005    1    3    3    0    0  0.53443675757E+02 -0.28112348777E+02 -0.17954163392E+03  0.18942737116E+03  0.10000000000E+01 0.  0.
<mgrwt>
<rscale>  0 0.12499546E+03</rscale>
<asrwt>0</asrwt>
<pdfrwt beam="2">  1        4 0.76422053E-01 0.12499546E+03</pdfrwt>
<pdfrwt beam="1">  1       -4 0.12097150E-02 0.12499546E+03</pdfrwt>
<totfact> 0.55514261E+03</totfact>
</mgrwt>
</event>
<event>
 5    1  0.3217852E-002  0.1250040E+03  0.7818608E-02  0.1235063E+00
          4   -1    0    0  501    0  0.00000000000E+00  0.00000000000E+00  0.46595689140E+03  0.46595862214E+03  0.12700000000E+01 0.  1.
         -4   -1    0    0    0  501 -0.00000000000E+00 -0.00000000000E+00 -0.83339738821E+01  0.84301850909E+01  0.12700000000E+01 0.  1.
         25    2    1    2    0    0  0.00000000000E+00  0.00000000000E+00  0.45762291752E+03  0.47438880723E+03  0.12500402307E+03 0.  0.
    9000005    1    3    3    0    0 -0.23573192640E+02  0.56403707879E+02  0.27806271312E+03  0.28470501594E+03  0.10000000000E+01 0.  0.
    9000005    1    3    3    0    0  0.23573192640E+02 -0.56403707879E+02  0.17956020440E+03  0.18968379129E+03  0.10000000000E+01 0.  0.
<mgrwt>
<rscale>  0 0.12500402E+03</rscale>
<asrwt>0</asrwt>
<pdfrwt beam="1">  1        4 0.71693198E-01 0.12500402E+03</pdfrwt>
<pdfrwt beam="2">  1       -4 0.12896840E-02 0.12500402E+03</pdfrwt>
<totfact> 0.57902594E+03</totfact>
</mgrwt>
</event>
<event>
 5    1  0.3217852E-002  0.1249992E+03  0.7818608E-02  0.1235071E+00
          4   -1    0    0  501    0  0.00000000000E+00  0.00000000000E+00  0.60218053281E+02  0.60231443956E+02  0.12700000000E+01 0.  1.
         -4   -1    0    0    0  501 -0.00000000000E+00 -0.00000000000E+00 -0.64840768511E+02  0.64853204710E+02  0.12700000000E+01 0.  1.
         25    2    1    2    0    0  0.00000000000E+00  0.00000000000E+00 -0.46227152300E+01  0.12508464867E+03  0.12499919934E+03 0.  0.
    9000005    1    3    3    0    0 -0.22562824785E+02 -0.13250890255E+02 -0.59099890040E+02  0.64641040814E+02  0.10000000000E+01 0.  0.
    9000005    1    3    3    0    0  0.22562824785E+02  0.13250890255E+02  0.54477174810E+02  0.60443607851E+02  0.10000000000E+01 0.  0.
<mgrwt>
<rscale>  0 0.12499920E+03</rscale>
<asrwt>0</asrwt>
<pdfrwt beam="1">  1        4 0.92663026E-02 0.12499920E+03</pdfrwt>
<pdfrwt beam="2">  1       -4 0.99774895E-02 0.12499920E+03</pdfrwt>
<totfact> 0.10451213E+04</totfact>
</mgrwt>
</event>
<event>
 5    1  0.3217852E-002  0.1250048E+03  0.7818608E-02  0.1235062E+00
         -4   -1    0    0    0  501 -0.00000000000E+00  0.00000000000E+00  0.83707793220E+01  0.84665722969E+01  0.12700000000E+01 0.  1.
          4   -1    0    0  501    0  0.00000000000E+00 -0.00000000000E+00 -0.46393710689E+03  0.46393884516E+03  0.12700000000E+01 0.  1.
         25    2    1    2    0    0  0.00000000000E+00  0.00000000000E+00 -0.45556632757E+03  0.47240541746E+03  0.12500479843E+03 0.  0.
    9000005    1    3    3    0    0  0.32196747331E+02 -0.45089888867E+02 -0.33703906408E+03  0.34156413649E+03  0.10000000000E+01 0.  0.
    9000005    1    3    3    0    0 -0.32196747331E+02  0.45089888867E+02 -0.11852726349E+03  0.13084128097E+03  0.10000000000E+01 0.  0.
<mgrwt>
<rscale>  0 0.12500480E+03</rscale>
<asrwt>0</asrwt>
<pdfrwt beam="2">  1        4 0.71382422E-01 0.12500480E+03</pdfrwt>
<pdfrwt beam="1">  1       -4 0.12953150E-02 0.12500480E+03</pdfrwt>
<totfact> 0.58064665E+03</totfact>
</mgrwt>
</event>
<event>
 5    1  0.3217852E-002  0.1249982E+03  0.7818608E-02  0.1235072E+00
         -4   -1    0    0    0  501 -0.00000000000E+00  0.00000000000E+00  0.14654868116E+02  0.14709794679E+02  0.12700000000E+01 0. -1.
          4   -1    0    0  501    0  0.00000000000E+00 -0.00000000000E+00 -0.26598706062E+03  0.26599009252E+03  0.12700000000E+01 0. -1.
         25    2    1    2    0    0  0.00000000000E+00  0.00000000000E+00 -0.25133219251E+03  0.28069988720E+03  0.12499822272E+03 0.  0.
    9000005    1    3    3    0    0  0.27222382564E+02  0.43954107031E+02 -0.20449117711E+03  0.21092809948E+03  0.10000000000E+01 0.  0.
    9000005    1    3    3    0    0 -0.27222382564E+02 -0.43954107031E+02 -0.46841015400E+02  0.69771787716E+02  0.10000000000E+01 0.  0.
<mgrwt>
<rscale>  0 0.12499822E+03</rscale>
<asrwt>0</asrwt>
<pdfrwt beam="2">  1        4 0.40925541E-01 0.12499822E+03</pdfrwt>
<pdfrwt beam="1">  1       -4 0.22590536E-02 0.12499822E+03</pdfrwt>
<totfact> 0.78088483E+03</totfact>
</mgrwt>
</event>
<event>
 5    1  0.3217852E-002  0.1249994E+03  0.7818608E-02  0.1235070E+00
         -4   -1    0    0    0  501 -0.00000000000E+00  0.00000000000E+00  0.24202456071E+02  0.24235754163E+02  0.12700000000E+01 0. -1.
          4   -1    0    0  501    0  0.00000000000E+00 -0.00000000000E+00 -0.16125059391E+03  0.16125559505E+03  0.12700000000E+01 0. -1.
         25    2    1    2    0    0  0.00000000000E+00  0.00000000000E+00 -0.13704813784E+03  0.18549134922E+03  0.12499939419E+03 0.  0.
    9000005    1    3    3    0    0  0.57055183687E+01  0.57325484567E+02 -0.10446013332E+03  0.11929662013E+03  0.10000000000E+01 0.  0.
    9000005    1    3    3    0    0 -0.57055183687E+01 -0.57325484567E+02 -0.32588004520E+02  0.66194729090E+02  0.10000000000E+01 0.  0.
<mgrwt>
<rscale>  0 0.12499939E+03</rscale>
<asrwt>0</asrwt>
<pdfrwt beam="2">  1        4 0.24810729E-01 0.12499939E+03</pdfrwt>
<pdfrwt beam="1">  1       -4 0.37264010E-02 0.12499939E+03</pdfrwt>
<totfact> 0.92639035E+03</totfact>
</mgrwt>
</event>
<event>
 5    1  0.3217852E-002  0.1250026E+03  0.7818608E-02  0.1235065E+00
          4   -1    0    0  501    0  0.00000000000E+00  0.00000000000E+00  0.73436414673E+02  0.73447395461E+02  0.12700000000E+01 0. -1.
         -4   -1    0    0    0  501 -0.00000000000E+00 -0.00000000000E+00 -0.53171940945E+02  0.53187105617E+02  0.12700000000E+01 0. -1.
         25    2    1    2    0    0  0.00000000000E+00  0.00000000000E+00  0.20264473727E+02  0.12663450108E+03  0.12500259184E+03 0.  0.
    9000005    1    3    3    0    0  0.28539784344E+02  0.33018551478E+02  0.55444998786E+02  0.70568349297E+02  0.10000000000E+01 0.  0.
    9000005    1    3    3    0    0 -0.28539784344E+02 -0.33018551478E+02 -0.35180525059E+02  0.56066151781E+02  0.10000000000E+01 0.  0.
<mgrwt>
<rscale>  0 0.12500259E+03</rscale>
<asrwt>0</asrwt>
<pdfrwt beam="1">  1        4 0.11299921E-01 0.12500259E+03</pdfrwt>
<pdfrwt beam="2">  1       -4 0.81823099E-02 0.12500259E+03</pdfrwt>
<totfact> 0.10416487E+04</totfact>
</mgrwt>
</event>
<event>
 5    1  0.3217852E-002  0.1249945E+03  0.7818608E-02  0.1235078E+00
         -4   -1    0    0    0  501 -0.00000000000E+00  0.00000000000E+00  0.66246071700E+02  0.66258244134E+02  0.12700000000E+01 0. -1.
          4   -1    0    0  501    0  0.00000000000E+00 -0.00000000000E+00 -0.58936102545E+02  0.58949784420E+02  0.12700000000E+01 0. -1.
         25    2    1    2    0    0  0.00000000000E+00  0.00000000000E+00  0.73099691551E+01  0.12520802855E+03  0.12499445894E+03 0.  0.
    9000005    1    3    3    0    0 -0.48401493788E+02  0.27469789732E+02  0.32122016685E+02  0.64265993377E+02  0.10000000000E+01 0.  0.
    9000005    1    3    3    0    0  0.48401493788E+02 -0.27469789732E+02 -0.24812047530E+02  0.60942035177E+02  0.10000000000E+01 0.  0.
<mgrwt>
<rscale>  0 0.12499446E+03</rscale>
<asrwt>0</asrwt>
<pdfrwt beam="2">  1        4 0.90690815E-02 0.12499446E+03</pdfrwt>
<pdfrwt beam="1">  1       -4 0.10193692E-01 0.12499446E+03</pdfrwt>
<totfact> 0.10449654E+04</totfact>
</mgrwt>
</event>
<event>
 5    1  0.3217852E-002  0.1249924E+03  0.7818608E-02  0.1235081E+00
         -4   -1    0    0    0  501 -0.00000000000E+00  0.00000000000E+00  0.65392182028E+02  0.65404513379E+02  0.12700000000E+01 0.  1.
          4   -1    0    0  501    0  0.00000000000E+00 -0.00000000000E+00 -0.59703787996E+02  0.59717293986E+02  0.12700000000E+01 0.  1.
         25    2    1    2    0    0  0.00000000000E+00  0.00000000000E+00  0.56883940324E+01  0.12512180737E+03  0.12499243518E+03 0.  0.
    9000005    1    3    3    0    0 -0.50640979605E+02 -0.19183201291E+02 -0.28369372324E+02  0.61141845844E+02  0.10000000000E+01 0.  0.
    9000005    1    3    3    0    0  0.50640979605E+02  0.19183201291E+02  0.34057766356E+02  0.63979961522E+02  0.10000000000E+01 0.  0.
<mgrwt>
<rscale>  0 0.12499244E+03</rscale>
<asrwt>0</asrwt>
<pdfrwt beam="2">  1        4 0.91871857E-02 0.12499244E+03</pdfrwt>
<pdfrwt beam="1">  1       -4 0.10062323E-01 0.12499244E+03</pdfrwt>
<totfact> 0.10452004E+04</totfact>
</mgrwt>
</event>
<event>
 5    1  0.3217852E-002  0.1249979E+03  0.7818608E-02  0.1235073E+00
          4   -1    0    0  501    0  0.00000000000E+00  0.00000000000E+00  0.10799569535E+03  0.10800316252E+03  0.12700000000E+01 0.  1.
         -4   -1    0    0    0  501 -0.00000000000E+00 -0.00000000000E+00 -0.36149340053E+02  0.36171642017E+02  0.12700000000E+01 0.  1.
         25    2    1    2    0    0  0.00000000000E+00  0.00000000000E+00  0.71846355293E+02  0.14417480453E+03  0.12499790195E+03 0.  0.
    9000005    1    3    3    0    0  0.22723875144E+02 -0.17613137384E+02  0.99919904415E+02  0.10397876903E+03  0.10000000000E+01 0.  0.
    9000005    1    3    3    0    0 -0.22723875144E+02  0.17613137384E+02 -0.28073549122E+02  0.40196035505E+02  0.10000000000E+01 0.  0.
<mgrwt>
<rscale>  0 0.12499790E+03</rscale>
<asrwt>0</asrwt>
<pdfrwt beam="1">  1        4 0.16617012E-01 0.12499790E+03</pdfrwt>
<pdfrwt beam="2">  1       -4 0.55637268E-02 0.12499790E+03</pdfrwt>
<totfact> 0.10048256E+04</totfact>
</mgrwt>
</event>
<event>
 5    1  0.3217852E-002  0.1250004E+03  0.7818608E-02  0.1235069E+00
          4   -1    0    0  501    0  0.00000000000E+00  0.00000000000E+00  0.58674736864E+03  0.58674874308E+03  0.12700000000E+01 0. -1.
         -4   -1    0    0    0  501 -0.00000000000E+00 -0.00000000000E+00 -0.65955453635E+01  0.67167044480E+01  0.12700000000E+01 0. -1.
         25    2    1    2    0    0  0.00000000000E+00  0.00000000000E+00  0.58015182327E+03  0.59346544752E+03  0.12500039743E+03 0.  0.
    9000005    1    3    3    0    0  0.31983622515E+01 -0.40820309605E+02  0.51421339601E+03  0.51584197564E+03  0.10000000000E+01 0.  0.
    9000005    1    3    3    0    0 -0.31983622515E+01  0.40820309605E+02  0.65938427264E+02  0.77623471884E+02  0.10000000000E+01 0.  0.
<mgrwt>
<rscale>  0 0.12500040E+03</rscale>
<asrwt>0</asrwt>
<pdfrwt beam="1">  1        4 0.90278267E-01 0.12500040E+03</pdfrwt>
<pdfrwt beam="2">  1       -4 0.10241248E-02 0.12500040E+03</pdfrwt>
<totfact> 0.49282269E+03</totfact>
</mgrwt>
</event>
<event>
 5    1  0.3217852E-002  0.1249997E+03  0.7818608E-02  0.1235070E+00
          4   -1    0    0  501    0  0.00000000000E+00  0.00000000000E+00  0.11439066044E+03  0.11439771018E+03  0.12700000000E+01 0.  1.
         -4   -1    0    0    0  501 -0.00000000000E+00 -0.00000000000E+00 -0.34128254879E+02  0.34151876685E+02  0.12700000000E+01 0.  1.
         25    2    1    2    0    0  0.00000000000E+00  0.00000000000E+00  0.80262405557E+02  0.14854958687E+03  0.12499970405E+03 0.  0.
    9000005    1    3    3    0    0 -0.32607091010E+02 -0.24343069322E+02  0.96494726313E+02  0.10472840882E+03  0.10000000000E+01 0.  0.
    9000005    1    3    3    0    0  0.32607091010E+02  0.24343069322E+02 -0.16232320756E+02  0.43821178046E+02  0.10000000000E+01 0.  0.
<mgrwt>
<rscale>  0 0.12499970E+03</rscale>
<asrwt>0</asrwt>
<pdfrwt beam="1">  1        4 0.17600922E-01 0.12499970E+03</pdfrwt>
<pdfrwt beam="2">  1       -4 0.52528602E-02 0.12499970E+03</pdfrwt>
<totfact> 0.99594269E+03</totfact>
</mgrwt>
</event>
<event>
 5    1  0.3217852E-002  0.1250022E+03  0.7818608E-02  0.1235066E+00
          4   -1    0    0  501    0  0.00000000000E+00  0.00000000000E+00  0.48656221217E+01  0.50286358619E+01  0.12700000000E+01 0. -1.
         -4   -1    0    0    0  501 -0.00000000000E+00 -0.00000000000E+00 -0.78946332429E+03  0.78946434580E+03  0.12700000000E+01 0. -1.
         25    2    1    2    0    0  0.00000000000E+00  0.00000000000E+00 -0.78459770216E+03  0.79449298166E+03  0.12500217467E+03 0.  0.
    9000005    1    3    3    0    0  0.15497293479E+02  0.46607737464E+02 -0.14671858072E+03  0.15472488238E+03  0.10000000000E+01 0.  0.
    9000005    1    3    3    0    0 -0.15497293479E+02 -0.46607737464E+02 -0.63787912144E+03  0.63976809929E+03  0.10000000000E+01 0.  0.
<mgrwt>
<rscale>  0 0.12500217E+03</rscale>
<asrwt>0</asrwt>
<pdfrwt beam="1">  1        4 0.76117598E-03 0.12500217E+03</pdfrwt>
<pdfrwt beam="2">  1       -4 0.12146841E+00 0.12500217E+03</pdfrwt>
<totfact> 0.38509958E+03</totfact>
</mgrwt>
</event>
<event>
 5    1  0.3217852E-002  0.1249822E+03  0.7818608E-02  0.1235097E+00
          4   -1    0    0  501    0  0.00000000000E+00  0.00000000000E+00  0.15680509968E+03  0.15681024260E+03  0.12700000000E+01 0.  1.
         -4   -1    0    0    0  501 -0.00000000000E+00 -0.00000000000E+00 -0.24882674860E+02  0.24915063880E+02  0.12700000000E+01 0.  1.
         25    2    1    2    0    0  0.00000000000E+00  0.00000000000E+00  0.13192242482E+03  0.18172530648E+03  0.12498224212E+03 0.  0.
    9000005    1    3    3    0    0 -0.29481552077E+02 -0.50716227398E+02  0.97242437268E+02  0.11357107572E+03  0.10000000000E+01 0.  0.
    9000005    1    3    3    0    0  0.29481552077E+02  0.50716227398E+02  0.34679987550E+02  0.68154230763E+02  0.10000000000E+01 0.  0.
<mgrwt>
<rscale>  0 0.12498224E+03</rscale>
<asrwt>0</asrwt>
<pdfrwt beam="1">  1        4 0.24126749E-01 0.12498224E+03</pdfrwt>
<pdfrwt beam="2">  1       -4 0.38309909E-02 0.12498224E+03</pdfrwt>
<totfact> 0.93344516E+03</totfact>
</mgrwt>
</event>
<event>
 5    1  0.3217852E-002  0.1249992E+03  0.7818608E-02  0.1235070E+00
         -4   -1    0    0    0  501 -0.00000000000E+00  0.00000000000E+00  0.13881851293E+04  0.13881857102E+04  0.12700000000E+01 0. -1.
          4   -1    0    0  501    0  0.00000000000E+00 -0.00000000000E+00 -0.26699815659E+01  0.29566368668E+01  0.12700000000E+01 0. -1.
         25    2    1    2    0    0  0.00000000000E+00  0.00000000000E+00  0.13855151477E+04  0.13911423471E+04  0.12499922123E+03 0.  0.
    9000005    1    3    3    0    0 -0.43006424574E+02 -0.38235259600E+02  0.96393453976E+03  0.96565122305E+03  0.10000000000E+01 0.  0.
    9000005    1    3    3    0    0  0.43006424574E+02  0.38235259600E+02  0.42158060792E+03  0.42549112400E+03  0.10000000000E+01 0.  0.
<mgrwt>
<rscale>  0 0.12499922E+03</rscale>
<asrwt>0</asrwt>
<pdfrwt beam="2">  1        4 0.43286139E-03 0.12499922E+03</pdfrwt>
<pdfrwt beam="1">  1       -4 0.21358909E+00 0.12499922E+03</pdfrwt>
<totfact> 0.20172142E+03</totfact>
</mgrwt>
</event>
<event>
 5    1  0.3217852E-002  0.1250009E+03  0.7818608E-02  0.1235068E+00
         -4   -1    0    0    0  501 -0.00000000000E+00  0.00000000000E+00  0.16167474034E+02  0.16217278337E+02  0.12700000000E+01 0. -1.
          4   -1    0    0  501    0  0.00000000000E+00 -0.00000000000E+00 -0.24119207916E+03  0.24119542274E+03  0.12700000000E+01 0. -1.
         25    2    1    2    0    0  0.00000000000E+00  0.00000000000E+00 -0.22502460513E+03  0.25741270108E+03  0.12500090305E+03 0.  0.
    9000005    1    3    3    0    0  0.22944592587E+02 -0.54119643156E+02 -0.68832295245E+02  0.90522234689E+02  0.10000000000E+01 0.  0.
    9000005    1    3    3    0    0 -0.22944592587E+02  0.54119643156E+02 -0.15619230988E+03  0.16689046639E+03  0.10000000000E+01 0.  0.
<mgrwt>
<rscale>  0 0.12500090E+03</rscale>
<asrwt>0</asrwt>
<pdfrwt beam="2">  1        4 0.37110559E-01 0.12500090E+03</pdfrwt>
<pdfrwt beam="1">  1       -4 0.24913922E-02 0.12500090E+03</pdfrwt>
<totfact> 0.81268895E+03</totfact>
</mgrwt>
</event>
<event>
 5    1  0.3217852E-002  0.1250030E+03  0.7818608E-02  0.1235065E+00
         -4   -1    0    0    0  501 -0.00000000000E+00  0.00000000000E+00  0.28686119656E+01  0.31371698406E+01  0.12700000000E+01 0.  1.
          4   -1    0    0  501    0  0.00000000000E+00 -0.00000000000E+00 -0.13006224089E+04  0.13006230290E+04  0.12700000000E+01 0.  1.
         25    2    1    2    0    0  0.00000000000E+00  0.00000000000E+00 -0.12977537970E+04  0.13037601988E+04  0.12500295393E+03 0.  0.
    9000005    1    3    3    0    0 -0.35241927315E+02  0.48958064351E+02 -0.47859594755E+03  0.48238363003E+03  0.10000000000E+01 0.  0.
    9000005    1    3    3    0    0  0.35241927315E+02 -0.48958064351E+02 -0.81915784940E+03  0.82137656878E+03  0.10000000000E+01 0.  0.
<mgrwt>
<rscale>  0 0.12500295E+03</rscale>
<asrwt>0</asrwt>
<pdfrwt beam="2">  1        4 0.20011601E+00 0.12500295E+03</pdfrwt>
<pdfrwt beam="1">  1       -4 0.46203195E-03 0.12500295E+03</pdfrwt>
<totfact> 0.22138582E+03</totfact>
</mgrwt>
</event>
<event>
 5    1  0.3217852E-002  0.1250001E+03  0.7818608E-02  0.1235069E+00
         -4   -1    0    0    0  501 -0.00000000000E+00  0.00000000000E+00  0.65308740731E+03  0.65308864214E+03  0.12700000000E+01 0.  1.
          4   -1    0    0  501    0  0.00000000000E+00 -0.00000000000E+00 -0.59125490143E+01  0.60474073657E+01  0.12700000000E+01 0.  1.
         25    2    1    2    0    0  0.00000000000E+00  0.00000000000E+00  0.64717485830E+03  0.65913604950E+03  0.12500013817E+03 0.  0.
    9000005    1    3    3    0    0  0.52145714631E+02 -0.82057415934E+01  0.14721492559E+03  0.15639611269E+03  0.10000000000E+01 0.  0.
    9000005    1    3    3    0    0 -0.52145714631E+02  0.82057415934E+01  0.49995993271E+03  0.50273993681E+03  0.10000000000E+01 0.  0.
<mgrwt>
<rscale>  0 0.12500014E+03</rscale>
<asrwt>0</asrwt>
<pdfrwt beam="2">  1        4 0.92009127E-03 0.12500014E+03</pdfrwt>
<pdfrwt beam="1">  1       -4 0.10048549E+00 0.12500014E+03</pdfrwt>
<totfact> 0.45333069E+03</totfact>
</mgrwt>
</event>
<event>
 5    1  0.3217852E-002  0.1250056E+03  0.7818608E-02  0.1235061E+00
          4   -1    0    0  501    0  0.00000000000E+00  0.00000000000E+00  0.15092069177E+03  0.15092603521E+03  0.12700000000E+01 0. -1.
         -4   -1    0    0    0  501 -0.00000000000E+00 -0.00000000000E+00 -0.25863731455E+02  0.25894893411E+02  0.12700000000E+01 0. -1.
         25    2    1    2    0    0  0.00000000000E+00  0.00000000000E+00  0.12505696031E+03  0.17682092862E+03  0.12500558977E+03 0.  0.
    9000005    1    3    3    0    0  0.54513963610E+02 -0.30556582009E+02  0.62033532632E+02  0.88060411669E+02  0.10000000000E+01 0.  0.
    9000005    1    3    3    0    0 -0.54513963610E+02  0.30556582009E+02  0.63023427682E+02  0.88760516950E+02  0.10000000000E+01 0.  0.
<mgrwt>
<rscale>  0 0.12500559E+03</rscale>
<asrwt>0</asrwt>
<pdfrwt beam="1">  1        4 0.23221376E-01 0.12500559E+03</pdfrwt>
<pdfrwt beam="2">  1       -4 0.39818438E-02 0.12500559E+03</pdfrwt>
<totfact> 0.94180588E+03</totfact>
</mgrwt>
</event>
<event>
 5    1  0.3217852E-002  0.1250033E+03  0.7818608E-02  0.1235064E+00
          4   -1    0    0  501    0  0.00000000000E+00  0.00000000000E+00  0.24617589731E+02  0.24650327060E+02  0.12700000000E+01 0. -1.
         -4   -1    0    0    0  501 -0.00000000000E+00 -0.00000000000E+00 -0.15854495817E+03  0.15855004466E+03  0.12700000000E+01 0. -1.
         25    2    1    2    0    0  0.00000000000E+00  0.00000000000E+00 -0.13392736844E+03  0.18320037172E+03  0.12500334468E+03 0.  0.
    9000005    1    3    3    0    0 -0.34746456567E+02  0.48545566760E+02 -0.39881638260E+02  0.71802042912E+02  0.10000000000E+01 0.  0.
    9000005    1    3    3    0    0  0.34746456567E+02 -0.48545566760E+02 -0.94045730176E+02  0.11139832880E+03  0.10000000000E+01 0.  0.
<mgrwt>
<rscale>  0 0.12500334E+03</rscale>
<asrwt>0</asrwt>
<pdfrwt beam="1">  1        4 0.37902311E-02 0.12500334E+03</pdfrwt>
<pdfrwt beam="2">  1       -4 0.24394441E-01 0.12500334E+03</pdfrwt>
<totfact> 0.93037102E+03</totfact>
</mgrwt>
</event>
<event>
 5    1  0.3217852E-002  0.1250034E+03  0.7818608E-02  0.1235064E+00
         -4   -1    0    0    0  501 -0.00000000000E+00  0.00000000000E+00  0.56968907800E+02  0.56983062009E+02  0.12700000000E+01 0. -1.
          4   -1    0    0  501    0  0.00000000000E+00 -0.00000000000E+00 -0.68543290640E+02  0.68555055187E+02  0.12700000000E+01 0. -1.
         25    2    1    2    0    0  0.00000000000E+00  0.00000000000E+00 -0.11574382840E+02  0.12553811720E+03  0.12500341008E+03 0.  0.
    9000005    1    3    3    0    0 -0.84140972429E+01  0.33909086062E+02 -0.57824275604E+02  0.67566781773E+02  0.10000000000E+01 0.  0.
    9000005    1    3    3    0    0  0.84140972429E+01 -0.33909086062E+02  0.46249892764E+02  0.57971335423E+02  0.10000000000E+01 0.  0.
<mgrwt>
<rscale>  0 0.12500341E+03</rscale>
<asrwt>0</asrwt>
<pdfrwt beam="2">  1        4 0.10547115E-01 0.12500341E+03</pdfrwt>
<pdfrwt beam="1">  1       -4 0.87664411E-02 0.12500341E+03</pdfrwt>
<totfact> 0.10440309E+04</totfact>
</mgrwt>
</event>
<event>
 5    1  0.3217852E-002  0.1249961E+03  0.7818608E-02  0.1235075E+00
         -4   -1    0    0    0  501 -0.00000000000E+00  0.00000000000E+00  0.13913538464E+02  0.13971379767E+02  0.12700000000E+01 0.  1.
          4   -1    0    0  501    0  0.00000000000E+00 -0.00000000000E+00 -0.28009274722E+03  0.28009562643E+03  0.12700000000E+01 0.  1.
         25    2    1    2    0    0  0.00000000000E+00  0.00000000000E+00 -0.26617920876E+03  0.29406700620E+03  0.12499613178E+03 0.  0.
    9000005    1    3    3    0    0 -0.37953415379E+02  0.18823761755E+02 -0.24116151314E+03  0.24485642970E+03  0.10000000000E+01 0.  0.
    9000005    1    3    3    0    0  0.37953415379E+02 -0.18823761755E+02 -0.25017695623E+02  0.49210576504E+02  0.10000000000E+01 0.  0.
<mgrwt>
<rscale>  0 0.12499613E+03</rscale>
<asrwt>0</asrwt>
<pdfrwt beam="2">  1        4 0.43095859E-01 0.12499613E+03</pdfrwt>
<pdfrwt beam="1">  1       -4 0.21452154E-02 0.12499613E+03</pdfrwt>
<totfact> 0.76355701E+03</totfact>
</mgrwt>
</event>
<event>
 4    1  0.3217852E-002  0.1249087E+03  0.7818608E-02  0.1235212E+00
          4   -1    0    0  501    0  0.00000000000E+00  0.00000000000E+00  0.17322380373E+03  0.17322845920E+03  0.12700000000E+01 0. -1.
         -4   -1    0    0    0  501 -0.00000000000E+00 -0.00000000000E+00 -0.22494495276E+02  0.22530317746E+02  0.12700000000E+01 0. -1.
    9000005    1    1    2    0    0  0.49029436760E+02 -0.23930367533E+02  0.12297797295E+03  0.13454043998E+03  0.10000000000E+01 0.  0.
    9000005    1    1    2    0    0 -0.49029436760E+02  0.23930367533E+02  0.27751335505E+02  0.61218336972E+02  0.10000000000E+01 0.  0.
<mgrwt>
<rscale>  0 0.12490866E+03</rscale>
<asrwt>0</asrwt>
<pdfrwt beam="1">  1        4 0.26652930E-01 0.12490866E+03</pdfrwt>
<pdfrwt beam="2">  1       -4 0.34638052E-02 0.12490866E+03</pdfrwt>
<totfact> 0.91040876E+03</totfact>
</mgrwt>
</event>
<event>
 5    1  0.3217852E-002  0.1249996E+03  0.7818608E-02  0.1235070E+00
         -4   -1    0    0    0  501 -0.00000000000E+00  0.00000000000E+00  0.17476346184E+02  0.17522430652E+02  0.12700000000E+01 0. -1.
          4   -1    0    0  501    0  0.00000000000E+00 -0.00000000000E+00 -0.22317289873E+03  0.22317651227E+03  0.12700000000E+01 0. -1.
         25    2    1    2    0    0  0.00000000000E+00  0.00000000000E+00 -0.20569655255E+03  0.24069894292E+03  0.12499963757E+03 0.  0.
    9000005    1    3    3    0    0  0.55034486679E+02  0.27226846304E+02 -0.12523258418E+03  0.13947865795E+03  0.10000000000E+01 0.  0.
    9000005    1    3    3    0    0 -0.55034486679E+02 -0.27226846304E+02 -0.80463968370E+02  0.10122028497E+03  0.10000000000E+01 0.  0.
<mgrwt>
<rscale>  0 0.12499964E+03</rscale>
<asrwt>0</asrwt>
<pdfrwt beam="2">  1        4 0.34338113E-01 0.12499964E+03</pdfrwt>
<pdfrwt beam="1">  1       -4 0.26924917E-02 0.12499964E+03</pdfrwt>
<totfact> 0.83694059E+03</totfact>
</mgrwt>
</event>
<event>
 5    1  0.3217852E-002  0.1250018E+03  0.7818608E-02  0.1235066E+00
          4   -1    0    0  501    0  0.00000000000E+00  0.00000000000E+00  0.51977448674E+03  0.51977603827E+03  0.12700000000E+01 0. -1.
         -4   -1    0    0    0  501 -0.00000000000E+00 -0.00000000000E+00 -0.74602668157E+01  0.75675941330E+01  0.12700000000E+01 0. -1.
         25    2    1    2    0    0  0.00000000000E+00  0.00000000000E+00  0.51231421992E+03  0.52734363240E+03  0.12500178681E+03 0.  0.
    9000005    1    3    3    0    0  0.30271772582E+02 -0.16970777939E+02  0.36908070280E+02  0.50671423613E+02  0.10000000000E+01 0.  0.
    9000005    1    3    3    0    0 -0.30271772582E+02  0.16970777939E+02  0.47540614964E+03  0.47667220879E+03  0.10000000000E+01 0.  0.
<mgrwt>
<rscale>  0 0.12500179E+03</rscale>
<asrwt>0</asrwt>
<pdfrwt beam="1">  1        4 0.79973684E-01 0.12500179E+03</pdfrwt>
<pdfrwt beam="2">  1       -4 0.11561086E-02 0.12500179E+03</pdfrwt>
<totfact> 0.53801429E+03</totfact>
</mgrwt>
</event>
<event>
 5    1  0.3217852E-002  0.1249992E+03  0.7818608E-02  0.1235070E+00
          4   -1    0    0  501    0  0.00000000000E+00  0.00000000000E+00  0.47851833504E+02  0.47868683601E+02  0.12700000000E+01 0.  1.
         -4   -1    0    0    0  501 -0.00000000000E+00 -0.00000000000E+00 -0.81595036725E+02  0.81604919693E+02  0.12700000000E+01 0.  1.
         25    2    1    2    0    0  0.00000000000E+00  0.00000000000E+00 -0.33743203221E+02  0.12947360329E+03  0.12499924074E+03 0.  0.
    9000005    1    3    3    0    0  0.75451428111E+01 -0.19436345127E+02 -0.77891292049E+02  0.80639655685E+02  0.10000000000E+01 0.  0.
    9000005    1    3    3    0    0 -0.75451428111E+01  0.19436345127E+02  0.44148088828E+02  0.48833947609E+02  0.10000000000E+01 0.  0.
<mgrwt>
<rscale>  0 0.12499924E+03</rscale>
<asrwt>0</asrwt>
<pdfrwt beam="1">  1        4 0.73638770E-02 0.12499924E+03</pdfrwt>
<pdfrwt beam="2">  1       -4 0.12555139E-01 0.12499924E+03</pdfrwt>
<totfact> 0.10355959E+04</totfact>
</mgrwt>
</event>
<event>
 5    1  0.3217852E-002  0.1249948E+03  0.7818608E-02  0.1235077E+00
          4   -1    0    0  501    0  0.00000000000E+00  0.00000000000E+00  0.10320262694E+03  0.10321044088E+03  0.12700000000E+01 0.  1.
         -4   -1    0    0    0  501 -0.00000000000E+00 -0.00000000000E+00 -0.37827216976E+02  0.37848530277E+02  0.12700000000E+01 0.  1.
         25    2    1    2    0    0  0.00000000000E+00  0.00000000000E+00  0.65375409960E+02  0.14105897116E+03  0.12499475635E+03 0.  0.
    9000005    1    3    3    0    0 -0.46481078780E+02  0.14274501201E+02 -0.11608218491E+02  0.50000028056E+02  0.10000000000E+01 0.  0.
    9000005    1    3    3    0    0  0.46481078780E+02 -0.14274501201E+02  0.76983628451E+02  0.91058943100E+02  0.10000000000E+01 0.  0.
<mgrwt>
<rscale>  0 0.12499476E+03</rscale>
<asrwt>0</asrwt>
<pdfrwt beam="1">  1        4 0.15879568E-01 0.12499476E+03</pdfrwt>
<pdfrwt beam="2">  1       -4 0.58218123E-02 0.12499476E+03</pdfrwt>
<totfact> 0.10112880E+04</totfact>
</mgrwt>
</event>
<event>
 5    1  0.3217852E-002  0.1250014E+03  0.7818608E-02  0.1235067E+00
          4   -1    0    0  501    0  0.00000000000E+00  0.00000000000E+00  0.17425790351E+02  0.17472008166E+02  0.12700000000E+01 0.  1.
         -4   -1    0    0    0  501 -0.00000000000E+00 -0.00000000000E+00 -0.22382481546E+03  0.22382841847E+03  0.12700000000E+01 0.  1.
         25    2    1    2    0    0  0.00000000000E+00  0.00000000000E+00 -0.20639902511E+03  0.24130042664E+03  0.12500135331E+03 0.  0.
    9000005    1    3    3    0    0 -0.44057226023E+01 -0.50715238695E+02 -0.17317125239E+03  0.18050132543E+03  0.10000000000E+01 0.  0.
    9000005    1    3    3    0    0  0.44057226023E+01  0.50715238695E+02 -0.33227772713E+02  0.60799101202E+02  0.10000000000E+01 0.  0.
<mgrwt>
<rscale>  0 0.12500135E+03</rscale>
<asrwt>0</asrwt>
<pdfrwt beam="1">  1        4 0.26847233E-02 0.12500135E+03</pdfrwt>
<pdfrwt beam="2">  1       -4 0.34438417E-01 0.12500135E+03</pdfrwt>
<totfact> 0.83601551E+03</totfact>
</mgrwt>
</event>
<event>
 5    1  0.3217852E-002  0.1250001E+03  0.7818608E-02  0.1235069E+00
          4   -1    0    0  501    0  0.00000000000E+00  0.00000000000E+00  0.18676336477E+02  0.18719466985E+02  0.12700000000E+01 0.  1.
         -4   -1    0    0    0  501 -0.00000000000E+00 -0.00000000000E+00 -0.20886923310E+03  0.20887309409E+03  0.12700000000E+01 0.  1.
         25    2    1    2    0    0  0.00000000000E+00  0.00000000000E+00 -0.19019289662E+03  0.22759256108E+03  0.12500014373E+03 0.  0.
    9000005    1    3    3    0    0 -0.36194469907E+02  0.49165373908E+02 -0.70805768659E+02  0.93497221984E+02  0.10000000000E+01 0.  0.
    9000005    1    3    3    0    0  0.36194469907E+02 -0.49165373908E+02 -0.11938712796E+03  0.13409533909E+03  0.10000000000E+01 0.  0.
<mgrwt>
<rscale>  0 0.12500014E+03</rscale>
<asrwt>0</asrwt>
<pdfrwt beam="1">  1        4 0.28768974E-02 0.12500014E+03</pdfrwt>
<pdfrwt beam="2">  1       -4 0.32137341E-01 0.12500014E+03</pdfrwt>
<totfact> 0.85680363E+03</totfact>
</mgrwt>
</event>
<event>
 5    1  0.3217852E-002  0.1250036E+03  0.7818608E-02  0.1235064E+00
          4   -1    0    0  501    0  0.00000000000E+00  0.00000000000E+00  0.25359628408E+02  0.25391409039E+02  0.12700000000E+01 0. -1.
         -4   -1    0    0    0  501 -0.00000000000E+00 -0.00000000000E+00 -0.15391224873E+03  0.15391748831E+03  0.12700000000E+01 0. -1.
         25    2    1    2    0    0  0.00000000000E+00  0.00000000000E+00 -0.12855262032E+03  0.17930889735E+03  0.12500361786E+03 0.  0.
    9000005    1    3    3    0    0  0.54654385492E+02  0.18904358238E+02 -0.30301229490E+02  0.65296562869E+02  0.10000000000E+01 0.  0.
    9000005    1    3    3    0    0 -0.54654385492E+02 -0.18904358238E+02 -0.98251390828E+02  0.11401233448E+03  0.10000000000E+01 0.  0.
<mgrwt>
<rscale>  0 0.12500362E+03</rscale>
<asrwt>0</asrwt>
<pdfrwt beam="1">  1        4 0.39043291E-02 0.12500362E+03</pdfrwt>
<pdfrwt beam="2">  1       -4 0.23681655E-01 0.12500362E+03</pdfrwt>
<totfact> 0.93733948E+03</totfact>
</mgrwt>
</event>
<event>
 5    1  0.3217852E-002  0.1249998E+03  0.7818608E-02  0.1235070E+00
         -4   -1    0    0    0  501 -0.00000000000E+00  0.00000000000E+00  0.24128727350E+03  0.24129061576E+03  0.12700000000E+01 0. -1.
          4   -1    0    0  501    0  0.00000000000E+00 -0.00000000000E+00 -0.16160777222E+02  0.16210602099E+02  0.12700000000E+01 0. -1.
         25    2    1    2    0    0  0.00000000000E+00  0.00000000000E+00  0.22512649628E+03  0.25750121786E+03  0.12499975148E+03 0.  0.
    9000005    1    3    3    0    0  0.32884777306E+02 -0.42279264983E+02  0.17887808666E+03  0.18672791626E+03  0.10000000000E+01 0.  0.
    9000005    1    3    3    0    0 -0.32884777306E+02  0.42279264983E+02  0.46248409619E+02  0.70773301592E+02  0.10000000000E+01 0.  0.
<mgrwt>
<rscale>  0 0.12499975E+03</rscale>
<asrwt>0</asrwt>
<pdfrwt beam="2">  1        4 0.24903631E-02 0.12499975E+03</pdfrwt>
<pdfrwt beam="1">  1       -4 0.37125210E-01 0.12499975E+03</pdfrwt>
<totfact> 0.81258461E+03</totfact>
</mgrwt>
</event>
<event>
 5    1  0.3217852E-002  0.1250007E+03  0.7818608E-02  0.1235068E+00
          4   -1    0    0  501    0  0.00000000000E+00  0.00000000000E+00  0.60443836968E+02  0.60457177633E+02  0.12700000000E+01 0.  1.
         -4   -1    0    0    0  501 -0.00000000000E+00 -0.00000000000E+00 -0.64600067756E+02  0.64612550283E+02  0.12700000000E+01 0.  1.
         25    2    1    2    0    0  0.00000000000E+00  0.00000000000E+00 -0.41562307883E+01  0.12506972792E+03  0.12500065035E+03 0.  0.
    9000005    1    3    3    0    0  0.13305248267E+02  0.32458549629E+02 -0.53824231819E+02  0.64254455148E+02  0.10000000000E+01 0.  0.
    9000005    1    3    3    0    0 -0.13305248267E+02 -0.32458549629E+02  0.49668001031E+02  0.60815272768E+02  0.10000000000E+01 0.  0.
<mgrwt>
<rscale>  0 0.12500065E+03</rscale>
<asrwt>0</asrwt>
<pdfrwt beam="1">  1        4 0.93010383E-02 0.12500065E+03</pdfrwt>
<pdfrwt beam="2">  1       -4 0.99404583E-02 0.12500065E+03</pdfrwt>
<totfact> 0.10451195E+04</totfact>
</mgrwt>
</event>
<event>
 5    1  0.3217852E-002  0.1249989E+03  0.7818608E-02  0.1235071E+00
         -4   -1    0    0    0  501 -0.00000000000E+00  0.00000000000E+00  0.32579657883E+03  0.32579905413E+03  0.12700000000E+01 0. -1.
          4   -1    0    0  501    0  0.00000000000E+00 -0.00000000000E+00 -0.11953468911E+02  0.12020745360E+02  0.12700000000E+01 0. -1.
         25    2    1    2    0    0  0.00000000000E+00  0.00000000000E+00  0.31384310992E+03  0.33781979949E+03  0.12499887715E+03 0.  0.
    9000005    1    3    3    0    0  0.40551928529E+02  0.33591742334E+02  0.24786319130E+03  0.25339697248E+03  0.10000000000E+01 0.  0.
    9000005    1    3    3    0    0 -0.40551928529E+02 -0.33591742334E+02  0.65979918611E+02  0.84422827010E+02  0.10000000000E+01 0.  0.
<mgrwt>
<rscale>  0 0.12499888E+03</rscale>
<asrwt>0</asrwt>
<pdfrwt beam="2">  1        4 0.18443608E-02 0.12499888E+03</pdfrwt>
<pdfrwt beam="1">  1       -4 0.50127914E-01 0.12499888E+03</pdfrwt>
<totfact> 0.71087412E+03</totfact>
</mgrwt>
</event>
<event>
 5    1  0.3217852E-002  0.1250011E+03  0.7818608E-02  0.1235068E+00
         -4   -1    0    0    0  501 -0.00000000000E+00  0.00000000000E+00  0.18980843791E+02  0.19023283918E+02  0.12700000000E+01 0. -1.
          4   -1    0    0  501    0  0.00000000000E+00 -0.00000000000E+00 -0.20552908327E+03  0.20553300701E+03  0.12700000000E+01 0. -1.
         25    2    1    2    0    0  0.00000000000E+00  0.00000000000E+00 -0.18654823948E+03  0.22455629093E+03  0.12500112856E+03 0.  0.
    9000005    1    3    3    0    0  0.41095178126E+02 -0.21362314881E+02 -0.17906089463E+02  0.49666791744E+02  0.10000000000E+01 0.  0.
    9000005    1    3    3    0    0 -0.41095178126E+02  0.21362314881E+02 -0.16864215002E+03  0.17488949918E+03  0.10000000000E+01 0.  0.
<mgrwt>
<rscale>  0 0.12500113E+03</rscale>
<asrwt>0</asrwt>
<pdfrwt beam="2">  1        4 0.31623424E-01 0.12500113E+03</pdfrwt>
<pdfrwt beam="1">  1       -4 0.29236964E-02 0.12500113E+03</pdfrwt>
<totfact> 0.86150301E+03</totfact>
</mgrwt>
</event>
<event>
 5    1  0.3217852E-002  0.1249991E+03  0.7818608E-02  0.1235071E+00
          4   -1    0    0  501    0  0.00000000000E+00  0.00000000000E+00  0.13778554821E+03  0.13779140102E+03  0.12700000000E+01 0.  1.
         -4   -1    0    0    0  501 -0.00000000000E+00 -0.00000000000E+00 -0.28329121570E+02  0.28357574454E+02  0.12700000000E+01 0.  1.
         25    2    1    2    0    0  0.00000000000E+00  0.00000000000E+00  0.10945642664E+03  0.16614897548E+03  0.12499909087E+03 0.  0.
    9000005    1    3    3    0    0  0.46874958672E+02 -0.19637016809E+02  0.10306290275E+03  0.11491664850E+03  0.10000000000E+01 0.  0.
    9000005    1    3    3    0    0 -0.46874958672E+02  0.19637016809E+02  0.63935238918E+01  0.51232326976E+02  0.10000000000E+01 0.  0.
<mgrwt>
<rscale>  0 0.12499909E+03</rscale>
<asrwt>0</asrwt>
<pdfrwt beam="1">  1        4 0.21200416E-01 0.12499909E+03</pdfrwt>
<pdfrwt beam="2">  1       -4 0.43609652E-02 0.12499909E+03</pdfrwt>
<totfact> 0.96172200E+03</totfact>
</mgrwt>
</event>
<event>
 5    1  0.3217852E-002  0.1249975E+03  0.7818608E-02  0.1235073E+00
          4   -1    0    0  501    0  0.00000000000E+00  0.00000000000E+00  0.12858803162E+02  0.12921366753E+02  0.12700000000E+01 0.  1.
         -4   -1    0    0    0  501 -0.00000000000E+00 -0.00000000000E+00 -0.30296689129E+03  0.30296955312E+03  0.12700000000E+01 0.  1.
         25    2    1    2    0    0  0.00000000000E+00  0.00000000000E+00 -0.29010808813E+03  0.31589091988E+03  0.12499748182E+03 0.  0.
    9000005    1    3    3    0    0 -0.14688070806E+02 -0.19197075484E+02  0.57865724946E+00  0.24199214354E+02  0.10000000000E+01 0.  0.
    9000005    1    3    3    0    0  0.14688070806E+02  0.19197075484E+02 -0.29068674538E+03  0.29169170552E+03  0.10000000000E+01 0.  0.
<mgrwt>
<rscale>  0 0.12499748E+03</rscale>
<asrwt>0</asrwt>
<pdfrwt beam="1">  1        4 0.19832950E-02 0.12499748E+03</pdfrwt>
<pdfrwt beam="2">  1       -4 0.46615303E-01 0.12499748E+03</pdfrwt>
<totfact> 0.73651640E+03</totfact>
</mgrwt>
</event>
<event>
 5    1  0.3217852E-002  0.1249997E+03  0.7818608E-02  0.1235070E+00
          4   -1    0    0  501    0  0.00000000000E+00  0.00000000000E+00  0.10941814242E+03  0.10942551252E+03  0.12700000000E+01 0.  1.
         -4   -1    0    0    0  501 -0.00000000000E+00 -0.00000000000E+00 -0.35680151064E+02  0.35702746112E+02  0.12700000000E+01 0.  1.
         25    2    1    2    0    0  0.00000000000E+00  0.00000000000E+00  0.73737991354E+02  0.14512825863E+03  0.12499968034E+03 0.  0.
    9000005    1    3    3    0    0 -0.60859958182E+02 -0.24559936672E+01  0.20645152680E+02  0.64320982144E+02  0.10000000000E+01 0.  0.
    9000005    1    3    3    0    0  0.60859958182E+02  0.24559936672E+01  0.53092838674E+02  0.80807276487E+02  0.10000000000E+01 0.  0.
<mgrwt>
<rscale>  0 0.12499968E+03</rscale>
<asrwt>0</asrwt>
<pdfrwt beam="1">  1        4 0.16835865E-01 0.12499968E+03</pdfrwt>
<pdfrwt beam="2">  1       -4 0.54915591E-02 0.12499968E+03</pdfrwt>
<totfact> 0.10028455E+04</totfact>
</mgrwt>
</event>
<event>
 5    1  0.3217852E-002  0.1250067E+03  0.7818608E-02  0.1235059E+00
          4   -1    0    0  501    0  0.00000000000E+00  0.00000000000E+00  0.67997211736E+02  0.68009070747E+02  0.12700000000E+01 0.  1.
         -4   -1    0    0    0  501 -0.00000000000E+00 -0.00000000000E+00 -0.57429470596E+02  0.57443511322E+02  0.12700000000E+01 0.  1.
         25    2    1    2    0    0  0.00000000000E+00  0.00000000000E+00  0.10567741140E+02  0.12545258207E+03  0.12500669260E+03 0.  0.
    9000005    1    3    3    0    0 -0.59285285412E+02 -0.49661552840E+00 -0.14552172485E+02  0.61055363543E+02  0.10000000000E+01 0.  0.
    9000005    1    3    3    0    0  0.59285285412E+02  0.49661552840E+00  0.25119913625E+02  0.64397218526E+02  0.10000000000E+01 0.  0.
<mgrwt>
<rscale>  0 0.12500669E+03</rscale>
<asrwt>0</asrwt>
<pdfrwt beam="1">  1        4 0.10463102E-01 0.12500669E+03</pdfrwt>
<pdfrwt beam="2">  1       -4 0.88372955E-02 0.12500669E+03</pdfrwt>
<totfact> 0.10441427E+04</totfact>
</mgrwt>
</event>
<event>
 5    1  0.3217852E-002  0.1249961E+03  0.7818608E-02  0.1235075E+00
         -4   -1    0    0    0  501 -0.00000000000E+00  0.00000000000E+00  0.84986929663E+01  0.85930601147E+01  0.12700000000E+01 0. -1.
          4   -1    0    0  501    0  0.00000000000E+00 -0.00000000000E+00 -0.45696835807E+03  0.45697012284E+03  0.12700000000E+01 0. -1.
         25    2    1    2    0    0  0.00000000000E+00  0.00000000000E+00 -0.44846966510E+03  0.46556318296E+03  0.12499614719E+03 0.  0.
    9000005    1    3    3    0    0 -0.29111774009E+02 -0.47338927651E+02 -0.11780321400E+03  0.13025769339E+03  0.10000000000E+01 0.  0.
    9000005    1    3    3    0    0  0.29111774009E+02  0.47338927651E+02 -0.33066645110E+03  0.33530548957E+03  0.10000000000E+01 0.  0.
<mgrwt>
<rscale>  0 0.12499615E+03</rscale>
<asrwt>0</asrwt>
<pdfrwt beam="2">  1        4 0.70310200E-01 0.12499615E+03</pdfrwt>
<pdfrwt beam="1">  1       -4 0.13148863E-02 0.12499615E+03</pdfrwt>
<totfact> 0.58643857E+03</totfact>
</mgrwt>
</event>
<event>
 5    1  0.3217852E-002  0.1249996E+03  0.7818608E-02  0.1235070E+00
         -4   -1    0    0    0  501 -0.00000000000E+00  0.00000000000E+00  0.10704480756E+02  0.10779555104E+02  0.12700000000E+01 0. -1.
          4   -1    0    0  501    0  0.00000000000E+00 -0.00000000000E+00 -0.36356365517E+03  0.36356587335E+03  0.12700000000E+01 0. -1.
         25    2    1    2    0    0  0.00000000000E+00  0.00000000000E+00 -0.35285917442E+03  0.37434542845E+03  0.12499961133E+03 0.  0.
    9000005    1    3    3    0    0 -0.18942147437E+01 -0.25695329843E+02 -0.59276334171E+01  0.26457038065E+02  0.10000000000E+01 0.  0.
    9000005    1    3    3    0    0  0.18942147437E+01  0.25695329843E+02 -0.34693154100E+03  0.34788839039E+03  0.10000000000E+01 0.  0.
<mgrwt>
<rscale>  0 0.12499961E+03</rscale>
<asrwt>0</asrwt>
<pdfrwt beam="2">  1        4 0.55938806E-01 0.12499961E+03</pdfrwt>
<pdfrwt beam="1">  1       -4 0.16527890E-02 0.12499961E+03</pdfrwt>
<totfact> 0.67127342E+03</totfact>
</mgrwt>
</event>
<event>
 5    1  0.3217852E-002  0.1249911E+03  0.7818608E-02  0.1235083E+00
          4   -1    0    0  501    0  0.00000000000E+00  0.00000000000E+00  0.13946112892E+02  0.14003819651E+02  0.12700000000E+01 0.  1.
         -4   -1    0    0    0  501 -0.00000000000E+00 -0.00000000000E+00 -0.27941877844E+03  0.27942166459E+03  0.12700000000E+01 0.  1.
         25    2    1    2    0    0  0.00000000000E+00  0.00000000000E+00 -0.26547266555E+03  0.29342548424E+03  0.12499111429E+03 0.  0.
    9000005    1    3    3    0    0  0.58604048889E+02 -0.20479723309E+02 -0.11599747014E+03  0.13156848670E+03  0.10000000000E+01 0.  0.
    9000005    1    3    3    0    0 -0.58604048889E+02  0.20479723309E+02 -0.14947519540E+03  0.16185699754E+03  0.10000000000E+01 0.  0.
<mgrwt>
<rscale>  0 0.12499111E+03</rscale>
<asrwt>0</asrwt>
<pdfrwt beam="1">  1        4 0.21502170E-02 0.12499111E+03</pdfrwt>
<pdfrwt beam="2">  1       -4 0.42992161E-01 0.12499111E+03</pdfrwt>
<totfact> 0.76446091E+03</totfact>
</mgrwt>
</event>
<event>
 5    1  0.3217852E-002  0.1249986E+03  0.7818608E-02  0.1235071E+00
          4   -1    0    0  501    0  0.00000000000E+00  0.00000000000E+00  0.20989458331E+03  0.20989842544E+03  0.12700000000E+01 0. -1.
         -4   -1    0    0    0  501 -0.00000000000E+00 -0.00000000000E+00 -0.18584440175E+02  0.18627783460E+02  0.12700000000E+01 0. -1.
         25    2    1    2    0    0  0.00000000000E+00  0.00000000000E+00  0.19131014313E+03  0.22852620890E+03  0.12499862915E+03 0.  0.
    9000005    1    3    3    0    0  0.42777603536E+02 -0.24451588542E+01  0.17881967529E+03  0.18388414406E+03  0.10000000000E+01 0.  0.
    9000005    1    3    3    0    0 -0.42777603536E+02  0.24451588542E+01  0.12490467842E+02  0.44642064838E+02  0.10000000000E+01 0.  0.
<mgrwt>
<rscale>  0 0.12499863E+03</rscale>
<asrwt>0</asrwt>
<pdfrwt beam="1">  1        4 0.32295104E-01 0.12499863E+03</pdfrwt>
<pdfrwt beam="2">  1       -4 0.28627743E-02 0.12499863E+03</pdfrwt>
<totfact> 0.85539030E+03</totfact>
</mgrwt>
</event>
<event>
 5    1  0.3217852E-002  0.1250064E+03  0.7818608E-02  0.1235059E+00
          4   -1    0    0  501    0  0.00000000000E+00  0.00000000000E+00  0.13274033200E+03  0.13274640726E+03  0.12700000000E+01 0.  1.
         -4   -1    0    0    0  501 -0.00000000000E+00 -0.00000000000E+00 -0.29410293412E+02  0.29437701313E+02  0.12700000000E+01 0.  1.
         25    2    1    2    0    0  0.00000000000E+00  0.00000000000E+00  0.10333003859E+03  0.16218410857E+03  0.12500635263E+03 0.  0.
    9000005    1    3    3    0    0  0.55499541942E+02  0.10048417887E+02  0.86586172182E+02  0.10334086835E+03  0.10000000000E+01 0.  0.
    9000005    1    3    3    0    0 -0.55499541942E+02 -0.10048417887E+02  0.16743866410E+02  0.58843240225E+02  0.10000000000E+01 0.  0.
<mgrwt>
<rscale>  0 0.12500635E+03</rscale>
<asrwt>0</asrwt>
<pdfrwt beam="1">  1        4 0.20424165E-01 0.12500635E+03</pdfrwt>
<pdfrwt beam="2">  1       -4 0.45272361E-02 0.12500635E+03</pdfrwt>
<totfact> 0.96909516E+03</totfact>
</mgrwt>
</event>
<event>
 5    1  0.3217852E-002  0.1249960E+03  0.7818608E-02  0.1235076E+00
         -4   -1    0    0    0  501 -0.00000000000E+00  0.00000000000E+00  0.54986293602E+02  0.55000958028E+02  0.12700000000E+01 0.  1.
          4   -1    0    0  501    0  0.00000000000E+00 -0.00000000000E+00 -0.71006031358E+02  0.71017387935E+02  0.12700000000E+01 0.  1.
         25    2    1    2    0    0  0.00000000000E+00  0.00000000000E+00 -0.16019737756E+02  0.12601834596E+03  0.12499596602E+03 0.  0.
    9000005    1    3    3    0    0 -0.18103809449E+02 -0.35815600231E+02 -0.56302528288E+02  0.69148245300E+02  0.10000000000E+01 0.  0.
    9000005    1    3    3    0    0  0.18103809449E+02  0.35815600231E+02  0.40282790532E+02  0.56870100664E+02  0.10000000000E+01 0.  0.
<mgrwt>
<rscale>  0 0.12499597E+03</rscale>
<asrwt>0</asrwt>
<pdfrwt beam="2">  1        4 0.10926007E-01 0.12499597E+03</pdfrwt>
<pdfrwt beam="1">  1       -4 0.84614313E-02 0.12499597E+03</pdfrwt>
<totfact> 0.10431504E+04</totfact>
</mgrwt>
</event>
<event>
 5    1  0.3217852E-002  0.1249999E+03  0.7818608E-02  0.1235069E+00
          4   -1    0    0  501    0  0.00000000000E+00  0.00000000000E+00  0.62984990360E+02  0.62997792903E+02  0.12700000000E+01 0.  1.
         -4   -1    0    0    0  501 -0.00000000000E+00 -0.00000000000E+00 -0.61993050837E+02  0.62006058189E+02  0.12700000000E+01 0.  1.
         25    2    1    2    0    0  0.00000000000E+00  0.00000000000E+00  0.99193952251E+00  0.12500385109E+03  0.12499991537E+03 0.  0.
    9000005    1    3    3    0    0  0.43393939663E+02  0.35222897435E+02 -0.27461273030E+02  0.62280077228E+02  0.10000000000E+01 0.  0.
    9000005    1    3    3    0    0 -0.43393939663E+02 -0.35222897435E+02  0.28453212552E+02  0.62723773863E+02  0.10000000000E+01 0.  0.
<mgrwt>
<rscale>  0 0.12499992E+03</rscale>
<asrwt>0</asrwt>
<pdfrwt beam="1">  1        4 0.96919838E-02 0.12499992E+03</pdfrwt>
<pdfrwt beam="2">  1       -4 0.95393779E-02 0.12499992E+03</pdfrwt>
<totfact> 0.10452799E+04</totfact>
</mgrwt>
</event>
<event>
 5    1  0.3217852E-002  0.1250002E+03  0.7818608E-02  0.1235069E+00
         -4   -1    0    0    0  501 -0.00000000000E+00  0.00000000000E+00  0.16722711048E+03  0.16723193289E+03  0.12700000000E+01 0. -1.
          4   -1    0    0  501    0  0.00000000000E+00 -0.00000000000E+00 -0.23336612097E+02  0.23371143835E+02  0.12700000000E+01 0. -1.
         25    2    1    2    0    0  0.00000000000E+00  0.00000000000E+00  0.14389049838E+03  0.19060307673E+03  0.12500022933E+03 0.  0.
    9000005    1    3    3    0    0 -0.18618738449E+02 -0.50107502827E+02  0.12130439492E+03  0.13256385438E+03  0.10000000000E+01 0.  0.
    9000005    1    3    3    0    0  0.18618738449E+02  0.50107502827E+02  0.22586103458E+02  0.58039222344E+02  0.10000000000E+01 0.  0.
<mgrwt>
<rscale>  0 0.12500023E+03</rscale>
<asrwt>0</asrwt>
<pdfrwt beam="2">  1        4 0.35932753E-02 0.12500023E+03</pdfrwt>
<pdfrwt beam="1">  1       -4 0.25730275E-01 0.12500023E+03</pdfrwt>
<totfact> 0.91742015E+03</totfact>
</mgrwt>
</event>
<event>
 5    1  0.3217852E-002  0.1249985E+03  0.7818608E-02  0.1235072E+00
         -4   -1    0    0    0  501 -0.00000000000E+00  0.00000000000E+00  0.24475112087E+03  0.24475441583E+03  0.12700000000E+01 0. -1.
          4   -1    0    0  501    0  0.00000000000E+00 -0.00000000000E+00 -0.15931025057E+02  0.15981566237E+02  0.12700000000E+01 0. -1.
         25    2    1    2    0    0  0.00000000000E+00  0.00000000000E+00  0.22882009581E+03  0.26073598206E+03  0.12499846437E+03 0.  0.
    9000005    1    3    3    0    0  0.56246291809E+02  0.19407400420E+02  0.74566288854E+02  0.95401383464E+02  0.10000000000E+01 0.  0.
    9000005    1    3    3    0    0 -0.56246291809E+02 -0.19407400420E+02  0.15425380696E+03  0.16533459860E+03  0.10000000000E+01 0.  0.
<mgrwt>
<rscale>  0 0.12499846E+03</rscale>
<asrwt>0</asrwt>
<pdfrwt beam="2">  1        4 0.24550682E-02 0.12499846E+03</pdfrwt>
<pdfrwt beam="1">  1       -4 0.37658160E-01 0.12499846E+03</pdfrwt>
<totfact> 0.80805648E+03</totfact>
</mgrwt>
</event>
<event>
 5    1  0.3217852E-002  0.1250055E+03  0.7818608E-02  0.1235061E+00
         -4   -1    0    0    0  501 -0.00000000000E+00  0.00000000000E+00  0.74503606434E+02  0.74514429956E+02  0.12700000000E+01 0.  1.
          4   -1    0    0  501    0  0.00000000000E+00 -0.00000000000E+00 -0.52412657735E+02  0.52428042028E+02  0.12700000000E+01 0.  1.
         25    2    1    2    0    0  0.00000000000E+00  0.00000000000E+00  0.22090948699E+02  0.12694247198E+03  0.12500552459E+03 0.  0.
    9000005    1    3    3    0    0 -0.13533017519E+02  0.13899082071E+02 -0.49282685529E+02  0.52972730140E+02  0.10000000000E+01 0.  0.
    9000005    1    3    3    0    0  0.13533017519E+02 -0.13899082071E+02  0.71373634228E+02  0.73969741844E+02  0.10000000000E+01 0.  0.
<mgrwt>
<rscale>  0 0.12500552E+03</rscale>
<asrwt>0</asrwt>
<pdfrwt beam="2">  1        4 0.80655018E-02 0.12500552E+03</pdfrwt>
<pdfrwt beam="1">  1       -4 0.11464109E-01 0.12500552E+03</pdfrwt>
<totfact> 0.10409098E+04</totfact>
</mgrwt>
</event>
<event>
 4    1  0.3217852E-002  0.1248872E+03  0.7818608E-02  0.1235246E+00
         -4   -1    0    0    0  501 -0.00000000000E+00  0.00000000000E+00  0.20608739238E+03  0.20609130549E+03  0.12700000000E+01 0.  1.
          4   -1    0    0  501    0  0.00000000000E+00 -0.00000000000E+00 -0.18894722882E+02  0.18937356014E+02  0.12700000000E+01 0.  1.
    9000005    1    1    2    0    0  0.60815205534E+02  0.11427582703E+01  0.68216018195E+02  0.91401423725E+02  0.10000000000E+01 0.  0.
    9000005    1    1    2    0    0 -0.60815205534E+02 -0.11427582703E+01  0.11897665130E+03  0.13362723778E+03  0.10000000000E+01 0.  0.
<mgrwt>
<rscale>  0 0.12488716E+03</rscale>
<asrwt>0</asrwt>
<pdfrwt beam="2">  1        4 0.29104609E-02 0.12488716E+03</pdfrwt>
<pdfrwt beam="1">  1       -4 0.31709334E-01 0.12488716E+03</pdfrwt>
<totfact> 0.86296007E+03</totfact>
</mgrwt>
</event>
<event>
 5    1  0.3217852E-002  0.1249992E+03  0.7818608E-02  0.1235071E+00
          4   -1    0    0  501    0  0.00000000000E+00  0.00000000000E+00  0.37770164335E+02  0.37791509813E+02  0.12700000000E+01 0. -1.
         -4   -1    0    0    0  501 -0.00000000000E+00 -0.00000000000E+00 -0.10336579199E+03  0.10337359360E+03  0.12700000000E+01 0. -1.
         25    2    1    2    0    0  0.00000000000E+00  0.00000000000E+00 -0.65595627658E+02  0.14116510342E+03  0.12499920022E+03 0.  0.
    9000005    1    3    3    0    0  0.32169423127E+02 -0.12569295269E+02 -0.91613377625E+02  0.97912562666E+02  0.10000000000E+01 0.  0.
    9000005    1    3    3    0    0 -0.32169423127E+02  0.12569295269E+02  0.26017749968E+02  0.43252540749E+02  0.10000000000E+01 0.  0.
<mgrwt>
<rscale>  0 0.12499920E+03</rscale>
<asrwt>0</asrwt>
<pdfrwt beam="1">  1        4 0.58130366E-02 0.12499920E+03</pdfrwt>
<pdfrwt beam="2">  1       -4 0.15904672E-01 0.12499920E+03</pdfrwt>
<totfact> 0.10109677E+04</totfact>
</mgrwt>
</event>
<event>
 5    1  0.3217852E-002  0.1250016E+03  0.7818608E-02  0.1235067E+00
         -4   -1    0    0    0  501 -0.00000000000E+00  0.00000000000E+00  0.19854900925E+03  0.19855307092E+03  0.12700000000E+01 0.  1.
          4   -1    0    0  501    0  0.00000000000E+00 -0.00000000000E+00 -0.19649712116E+02  0.19690710659E+02  0.12700000000E+01 0.  1.
         25    2    1    2    0    0  0.00000000000E+00  0.00000000000E+00  0.17889929713E+03  0.21824378158E+03  0.12500155873E+03 0.  0.
    9000005    1    3    3    0    0  0.56724615667E+02 -0.15974786332E+01  0.43750543020E+02  0.71661314355E+02  0.10000000000E+01 0.  0.
    9000005    1    3    3    0    0 -0.56724615667E+02  0.15974786332E+01  0.13514875411E+03  0.14658246723E+03  0.10000000000E+01 0.  0.
<mgrwt>
<rscale>  0 0.12500156E+03</rscale>
<asrwt>0</asrwt>
<pdfrwt beam="2">  1        4 0.30264987E-02 0.12500156E+03</pdfrwt>
<pdfrwt beam="1">  1       -4 0.30549469E-01 0.12500156E+03</pdfrwt>
<totfact> 0.87143977E+03</totfact>
</mgrwt>
</event>
<event>
 5    1  0.3217852E-002  0.1249880E+03  0.7818608E-02  0.1235088E+00
         -4   -1    0    0    0  501 -0.00000000000E+00  0.00000000000E+00  0.79368221960E+02  0.79378382177E+02  0.12700000000E+01 0. -1.
          4   -1    0    0  501    0  0.00000000000E+00 -0.00000000000E+00 -0.49185808663E+02  0.49202201921E+02  0.12700000000E+01 0. -1.
         25    2    1    2    0    0  0.00000000000E+00  0.00000000000E+00  0.30182413297E+02  0.12858058410E+03  0.12498795356E+03 0.  0.
    9000005    1    3    3    0    0  0.14104596507E+02 -0.47614726666E+02 -0.23925118684E+02  0.55131779784E+02  0.10000000000E+01 0.  0.
    9000005    1    3    3    0    0 -0.14104596507E+02  0.47614726666E+02  0.54107531981E+02  0.73448804314E+02  0.10000000000E+01 0.  0.
<mgrwt>
<rscale>  0 0.12498795E+03</rscale>
<asrwt>0</asrwt>
<pdfrwt beam="2">  1        4 0.75690901E-02 0.12498795E+03</pdfrwt>
<pdfrwt beam="1">  1       -4 0.12212538E-01 0.12498795E+03</pdfrwt>
<totfact> 0.10377790E+04</totfact>
</mgrwt>
</event>
<event>
 5    1  0.3217852E-002  0.1249968E+03  0.7818608E-02  0.1235074E+00
          4   -1    0    0  501    0  0.00000000000E+00  0.00000000000E+00  0.44121430630E+03  0.44121613410E+03  0.12700000000E+01 0.  1.
         -4   -1    0    0    0  501 -0.00000000000E+00 -0.00000000000E+00 -0.88055551198E+01  0.88966679699E+01  0.12700000000E+01 0.  1.
         25    2    1    2    0    0  0.00000000000E+00  0.00000000000E+00  0.43240875118E+03  0.45011280207E+03  0.12499682589E+03 0.  0.
    9000005    1    3    3    0    0 -0.22995995352E+02 -0.22616730844E+02  0.40894063132E+03  0.41021186265E+03  0.10000000000E+01 0.  0.
    9000005    1    3    3    0    0  0.22995995352E+02  0.22616730844E+02  0.23468119867E+02  0.39900939417E+02  0.10000000000E+01 0.  0.
<mgrwt>
<rscale>  0 0.12499683E+03</rscale>
<asrwt>0</asrwt>
<pdfrwt beam="1">  1        4 0.67886266E-01 0.12499683E+03</pdfrwt>
<pdfrwt beam="2">  1       -4 0.13618502E-02 0.12499683E+03</pdfrwt>
<totfact> 0.59958218E+03</totfact>
</mgrwt>
</event>
<event>
 5    1  0.3217852E-002  0.1249945E+03  0.7818608E-02  0.1235078E+00
         -4   -1    0    0    0  501 -0.00000000000E+00  0.00000000000E+00  0.20258976145E+03  0.20259374212E+03  0.12700000000E+01 0.  1.
          4   -1    0    0  501    0  0.00000000000E+00 -0.00000000000E+00 -0.19254776994E+02  0.19296614653E+02  0.12700000000E+01 0.  1.
         25    2    1    2    0    0  0.00000000000E+00  0.00000000000E+00  0.18333498446E+03  0.22189035677E+03  0.12499445548E+03 0.  0.
    9000005    1    3    3    0    0 -0.49382915863E+02 -0.24482736077E+02  0.14393283791E+03  0.15412896734E+03  0.10000000000E+01 0.  0.
    9000005    1    3    3    0    0  0.49382915863E+02  0.24482736077E+02  0.39402146554E+02  0.67761389434E+02  0.10000000000E+01 0.  0.
<mgrwt>
<rscale>  0 0.12499446E+03</rscale>
<asrwt>0</asrwt>
<pdfrwt beam="2">  1        4 0.29657979E-02 0.12499446E+03</pdfrwt>
<pdfrwt beam="1">  1       -4 0.31171180E-01 0.12499446E+03</pdfrwt>
<totfact> 0.86580826E+03</totfact>
</mgrwt>
</event>
<event>
 5    1  0.3217852E-002  0.1249997E+03  0.7818608E-02  0.1235070E+00
          4   -1    0    0  501    0  0.00000000000E+00  0.00000000000E+00  0.17328274310E+03  0.17328739699E+03  0.12700000000E+01 0. -1.
         -4   -1    0    0    0  501 -0.00000000000E+00 -0.00000000000E+00 -0.22519671816E+02  0.22555454300E+02  0.12700000000E+01 0. -1.
         25    2    1    2    0    0  0.00000000000E+00  0.00000000000E+00  0.15076307128E+03  0.19584285129E+03  0.12499967496E+03 0.  0.
    9000005    1    3    3    0    0  0.15552112849E+02 -0.60295333552E+02  0.83647402148E+02  0.10428462662E+03  0.10000000000E+01 0.  0.
    9000005    1    3    3    0    0 -0.15552112849E+02  0.60295333552E+02  0.67115669134E+02  0.91558224674E+02  0.10000000000E+01 0.  0.
<mgrwt>
<rscale>  0 0.12499967E+03</rscale>
<asrwt>0</asrwt>
<pdfrwt beam="1">  1        4 0.26661994E-01 0.12499967E+03</pdfrwt>
<pdfrwt beam="2">  1       -4 0.34676754E-02 0.12499967E+03</pdfrwt>
<totfact> 0.90841160E+03</totfact>
</mgrwt>
</event>
<event>
 5    1  0.3217852E-002  0.1250011E+03  0.7818608E-02  0.1235068E+00
          4   -1    0    0  501    0  0.00000000000E+00  0.00000000000E+00  0.26186737271E+03  0.26187045231E+03  0.12700000000E+01 0.  1.
         -4   -1    0    0    0  501 -0.00000000000E+00 -0.00000000000E+00 -0.14886955345E+02  0.14941028728E+02  0.12700000000E+01 0.  1.
         25    2    1    2    0    0  0.00000000000E+00  0.00000000000E+00  0.24698041737E+03  0.27681148104E+03  0.12500107788E+03 0.  0.
    9000005    1    3    3    0    0  0.27120459722E+01  0.58764956667E+02  0.76794647076E+02  0.96742406136E+02  0.10000000000E+01 0.  0.
    9000005    1    3    3    0    0 -0.27120459722E+01 -0.58764956667E+02  0.17018577029E+03  0.18006907490E+03  0.10000000000E+01 0.  0.
<mgrwt>
<rscale>  0 0.12500108E+03</rscale>
<asrwt>0</asrwt>
<pdfrwt beam="1">  1        4 0.40291682E-01 0.12500108E+03</pdfrwt>
<pdfrwt beam="2">  1       -4 0.22946973E-02 0.12500108E+03</pdfrwt>
<totfact> 0.78600905E+03</totfact>
</mgrwt>
</event>
<event>
 5    1  0.3217852E-002  0.1249935E+03  0.7818608E-02  0.1235079E+00
         -4   -1    0    0    0  501 -0.00000000000E+00  0.00000000000E+00  0.18052696861E+03  0.18053143576E+03  0.12700000000E+01 0. -1.
          4   -1    0    0  501    0  0.00000000000E+00 -0.00000000000E+00 -0.21612426254E+02  0.21649708280E+02  0.12700000000E+01 0. -1.
         25    2    1    2    0    0  0.00000000000E+00  0.00000000000E+00  0.15891454236E+03  0.20218114404E+03  0.12499353276E+03 0.  0.
    9000005    1    3    3    0    0  0.38305046257E+02 -0.49354322086E+02  0.81578726038E+02  0.10275803725E+03  0.10000000000E+01 0.  0.
    9000005    1    3    3    0    0 -0.38305046257E+02  0.49354322086E+02  0.77335816320E+02  0.99423106787E+02  0.10000000000E+01 0.  0.
<mgrwt>
<rscale>  0 0.12499353E+03</rscale>
<asrwt>0</asrwt>
<pdfrwt beam="2">  1        4 0.33282002E-02 0.12499353E+03</pdfrwt>
<pdfrwt beam="1">  1       -4 0.27776591E-01 0.12499353E+03</pdfrwt>
<totfact> 0.89781928E+03</totfact>
</mgrwt>
</event>
<event>
 5    1  0.3217852E-002  0.1249974E+03  0.7818608E-02  0.1235073E+00
         -4   -1    0    0    0  501 -0.00000000000E+00  0.00000000000E+00  0.25690646631E+01  0.28658320333E+01  0.12700000000E+01 0.  1.
          4   -1    0    0  501    0  0.00000000000E+00 -0.00000000000E+00 -0.14371137419E+04  0.14371143030E+04  0.12700000000E+01 0.  1.
         25    2    1    2    0    0  0.00000000000E+00  0.00000000000E+00 -0.14345446772E+04  0.14399801351E+04  0.12499743386E+03 0.  0.
    9000005    1    3    3    0    0  0.11805833770E+02  0.44405198046E+02 -0.12051976452E+04  0.12060736144E+04  0.10000000000E+01 0.  0.
    9000005    1    3    3    0    0 -0.11805833770E+02 -0.44405198046E+02 -0.22934703203E+03  0.23390652070E+03  0.10000000000E+01 0.  0.
<mgrwt>
<rscale>  0 0.12499743E+03</rscale>
<asrwt>0</asrwt>
<pdfrwt beam="2">  1        4 0.22111669E+00 0.12499743E+03</pdfrwt>
<pdfrwt beam="1">  1       -4 0.41811329E-03 0.12499743E+03</pdfrwt>
<totfact> 0.19140055E+03</totfact>
</mgrwt>
</event>
<event>
 5    1  0.3217852E-002  0.1249973E+03  0.7818608E-02  0.1235073E+00
         -4   -1    0    0    0  501 -0.00000000000E+00  0.00000000000E+00  0.21083247127E+02  0.21121463241E+02  0.12700000000E+01 0. -1.
          4   -1    0    0  501    0  0.00000000000E+00 -0.00000000000E+00 -0.18506138395E+03  0.18506574164E+03  0.12700000000E+01 0. -1.
         25    2    1    2    0    0  0.00000000000E+00  0.00000000000E+00 -0.16397813682E+03  0.20618720488E+03  0.12499733638E+03 0.  0.
    9000005    1    3    3    0    0  0.59569654386E+01 -0.61057144570E+02 -0.62358714409E+02  0.87481824415E+02  0.10000000000E+01 0.  0.
    9000005    1    3    3    0    0 -0.59569654386E+01  0.61057144570E+02 -0.10161942241E+03  0.11870538046E+03  0.10000000000E+01 0.  0.
<mgrwt>
<rscale>  0 0.12499734E+03</rscale>
<asrwt>0</asrwt>
<pdfrwt beam="2">  1        4 0.28474256E-01 0.12499734E+03</pdfrwt>
<pdfrwt beam="1">  1       -4 0.32468515E-02 0.12499734E+03</pdfrwt>
<totfact> 0.89107679E+03</totfact>
</mgrwt>
</event>
<event>
 5    1  0.3217852E-002  0.1250498E+03  0.7818608E-02  0.1234991E+00
          4   -1    0    0  501    0  0.00000000000E+00  0.00000000000E+00  0.17308729365E+02  0.17355258922E+02  0.12700000000E+01 0. -1.
         -4   -1    0    0    0  501 -0.00000000000E+00 -0.00000000000E+00 -0.22550923631E+03  0.22551281241E+03  0.12700000000E+01 0. -1.
         25    2    1    2    0    0  0.00000000000E+00  0.00000000000E+00 -0.20820050695E+03  0.24286807133E+03  0.12504978601E+03 0.  0.
    9000005    1    3    3    0    0 -0.44067809324E+02 -0.95607593925E+01 -0.20002177876E+02  0.49340318792E+02  0.10000000000E+01 0.  0.
    9000005    1    3    3    0    0  0.44067809324E+02  0.95607593925E+01 -0.18819832907E+03  0.19352775254E+03  0.10000000000E+01 0.  0.
<mgrwt>
<rscale>  0 0.12504979E+03</rscale>
<asrwt>0</asrwt>
<pdfrwt beam="1">  1        4 0.26667359E-02 0.12504979E+03</pdfrwt>
<pdfrwt beam="2">  1       -4 0.34697581E-01 0.12504979E+03</pdfrwt>
<totfact> 0.83279619E+03</totfact>
</mgrwt>
</event>
<event>
 5    1  0.3217852E-002  0.1249997E+03  0.7818608E-02  0.1235070E+00
         -4   -1    0    0    0  501 -0.00000000000E+00  0.00000000000E+00  0.13690343801E+03  0.13690932853E+03  0.12700000000E+01 0.  1.
          4   -1    0    0  501    0  0.00000000000E+00 -0.00000000000E+00 -0.28512090731E+02  0.28540361208E+02  0.12700000000E+01 0.  1.
         25    2    1    2    0    0  0.00000000000E+00  0.00000000000E+00  0.10839134728E+03  0.16544968974E+03  0.12499966268E+03 0.  0.
    9000005    1    3    3    0    0 -0.26943699860E+02  0.45751325104E+02  0.97815955287E+02  0.11130187698E+03  0.10000000000E+01 0.  0.
    9000005    1    3    3    0    0  0.26943699860E+02 -0.45751325104E+02  0.10575391995E+02  0.54147812761E+02  0.10000000000E+01 0.  0.
<mgrwt>
<rscale>  0 0.12499966E+03</rscale>
<asrwt>0</asrwt>
<pdfrwt beam="2">  1        4 0.43891033E-02 0.12499966E+03</pdfrwt>
<pdfrwt beam="1">  1       -4 0.21064695E-01 0.12499966E+03</pdfrwt>
<totfact> 0.96303025E+03</totfact>
</mgrwt>
</event>
<event>
 5    1  0.3217852E-002  0.1249962E+03  0.7818608E-02  0.1235075E+00
         -4   -1    0    0    0  501 -0.00000000000E+00  0.00000000000E+00  0.19614609784E+03  0.19615020928E+03  0.12700000000E+01 0.  1.
          4   -1    0    0  501    0  0.00000000000E+00 -0.00000000000E+00 -0.19889231032E+02  0.19929736853E+02  0.12700000000E+01 0.  1.
         25    2    1    2    0    0  0.00000000000E+00  0.00000000000E+00  0.17625686681E+03  0.21607994613E+03  0.12499624003E+03 0.  0.
    9000005    1    3    3    0    0  0.40907010192E+02 -0.14809487218E+02  0.16567543714E+03  0.17129522721E+03  0.10000000000E+01 0.  0.
    9000005    1    3    3    0    0 -0.40907010192E+02  0.14809487218E+02  0.10581429672E+02  0.44784718916E+02  0.10000000000E+01 0.  0.
<mgrwt>
<rscale>  0 0.12499624E+03</rscale>
<asrwt>0</asrwt>
<pdfrwt beam="2">  1        4 0.30633137E-02 0.12499624E+03</pdfrwt>
<pdfrwt beam="1">  1       -4 0.30179756E-01 0.12499624E+03</pdfrwt>
<totfact> 0.87499822E+03</totfact>
</mgrwt>
</event>
<event>
 5    1  0.3217852E-002  0.1249999E+03  0.7818608E-02  0.1235069E+00
          4   -1    0    0  501    0  0.00000000000E+00  0.00000000000E+00  0.50007179161E+02  0.50023303246E+02  0.12700000000E+01 0.  1.
         -4   -1    0    0    0  501 -0.00000000000E+00 -0.00000000000E+00 -0.78079784661E+02  0.78090112515E+02  0.12700000000E+01 0.  1.
         25    2    1    2    0    0  0.00000000000E+00  0.00000000000E+00 -0.28072605499E+02  0.12811341576E+03  0.12499990447E+03 0.  0.
    9000005    1    3    3    0    0 -0.53557401268E+02  0.32116800827E+02 -0.11663490245E+02  0.63536769910E+02  0.10000000000E+01 0.  0.
    9000005    1    3    3    0    0  0.53557401268E+02 -0.32116800827E+02 -0.16409115255E+02  0.64576645851E+02  0.10000000000E+01 0.  0.
<mgrwt>
<rscale>  0 0.12499990E+03</rscale>
<asrwt>0</asrwt>
<pdfrwt beam="1">  1        4 0.76954470E-02 0.12499990E+03</pdfrwt>
<pdfrwt beam="2">  1       -4 0.12014309E-01 0.12499990E+03</pdfrwt>
<totfact> 0.10385061E+04</totfact>
</mgrwt>
</event>
<event>
 5    1  0.3217852E-002  0.1250051E+03  0.7818608E-02  0.1235061E+00
         -4   -1    0    0    0  501 -0.00000000000E+00  0.00000000000E+00  0.83912916827E+02  0.83922526835E+02  0.12700000000E+01 0.  1.
          4   -1    0    0  501    0  0.00000000000E+00 -0.00000000000E+00 -0.46534117384E+02  0.46551444453E+02  0.12700000000E+01 0.  1.
         25    2    1    2    0    0  0.00000000000E+00  0.00000000000E+00  0.37378799443E+02  0.13047397129E+03  0.12500513004E+03 0.  0.
    9000005    1    3    3    0    0 -0.59667165401E+02  0.61570575994E+01  0.38683288038E+00  0.59993579864E+02  0.10000000000E+01 0.  0.
    9000005    1    3    3    0    0  0.59667165401E+02 -0.61570575994E+01  0.36991966563E+02  0.70480391425E+02  0.10000000000E+01 0.  0.
<mgrwt>
<rscale>  0 0.12500513E+03</rscale>
<asrwt>0</asrwt>
<pdfrwt beam="2">  1        4 0.71611672E-02 0.12500513E+03</pdfrwt>
<pdfrwt beam="1">  1       -4 0.12911751E-01 0.12500513E+03</pdfrwt>
<totfact> 0.10333182E+04</totfact>
</mgrwt>
</event>
<event>
 5    1  0.3217852E-002  0.1250006E+03  0.7818608E-02  0.1235068E+00
          4   -1    0    0  501    0  0.00000000000E+00  0.00000000000E+00  0.22529671478E+03  0.22530029425E+03  0.12700000000E+01 0.  1.
         -4   -1    0    0    0  501 -0.00000000000E+00 -0.00000000000E+00 -0.17311448216E+02  0.17357970485E+02  0.12700000000E+01 0.  1.
         25    2    1    2    0    0  0.00000000000E+00  0.00000000000E+00  0.20798526656E+03  0.24265826473E+03  0.12500064935E+03 0.  0.
    9000005    1    3    3    0    0  0.98587395215E+01  0.41252958353E+02  0.19308527280E+03  0.19769148664E+03  0.10000000000E+01 0.  0.
    9000005    1    3    3    0    0 -0.98587395215E+01 -0.41252958353E+02  0.14899993756E+02  0.44966778089E+02  0.10000000000E+01 0.  0.
<mgrwt>
<rscale>  0 0.12500065E+03</rscale>
<asrwt>0</asrwt>
<pdfrwt beam="1">  1        4 0.34664882E-01 0.12500065E+03</pdfrwt>
<pdfrwt beam="2">  1       -4 0.26671541E-02 0.12500065E+03</pdfrwt>
<totfact> 0.83401849E+03</totfact>
</mgrwt>
</event>
<event>
 5    1  0.3217852E-002  0.1250015E+03  0.7818608E-02  0.1235067E+00
         -4   -1    0    0    0  501 -0.00000000000E+00  0.00000000000E+00  0.37519241085E+03  0.37519456028E+03  0.12700000000E+01 0. -1.
          4   -1    0    0  501    0  0.00000000000E+00 -0.00000000000E+00 -0.10370652760E+02  0.10448126084E+02  0.12700000000E+01 0. -1.
         25    2    1    2    0    0  0.00000000000E+00  0.00000000000E+00  0.36482175809E+03  0.38564268636E+03  0.12500146546E+03 0.  0.
    9000005    1    3    3    0    0 -0.50993936041E+02  0.25336732208E+02  0.26184920079E+03  0.26797077353E+03  0.10000000000E+01 0.  0.
    9000005    1    3    3    0    0  0.50993936041E+02 -0.25336732208E+02  0.10297255730E+03  0.11767191283E+03  0.10000000000E+01 0.  0.
<mgrwt>
<rscale>  0 0.12500147E+03</rscale>
<asrwt>0</asrwt>
<pdfrwt beam="2">  1        4 0.16016098E-02 0.12500147E+03</pdfrwt>
<pdfrwt beam="1">  1       -4 0.57728036E-01 0.12500147E+03</pdfrwt>
<totfact> 0.65971396E+03</totfact>
</mgrwt>
</event>
<event>
 5    1  0.3217852E-002  0.1249996E+03  0.7818608E-02  0.1235070E+00
          4   -1    0    0  501    0  0.00000000000E+00  0.00000000000E+00  0.36058536075E+02  0.36080894167E+02  0.12700000000E+01 0.  1.
         -4   -1    0    0    0  501 -0.00000000000E+00 -0.00000000000E+00 -0.10827042264E+03  0.10827787086E+03  0.12700000000E+01 0.  1.
         25    2    1    2    0    0  0.00000000000E+00  0.00000000000E+00 -0.72211886564E+02  0.14435876503E+03  0.12499958592E+03 0.  0.
    9000005    1    3    3    0    0 -0.38517060442E+02 -0.39735866213E+02 -0.69631540307E+02  0.88949729704E+02  0.10000000000E+01 0.  0.
    9000005    1    3    3    0    0  0.38517060442E+02  0.39735866213E+02 -0.25803462566E+01  0.55409035325E+02  0.10000000000E+01 0.  0.
<mgrwt>
<rscale>  0 0.12499959E+03</rscale>
<asrwt>0</asrwt>
<pdfrwt beam="1">  1        4 0.55497599E-02 0.12499959E+03</pdfrwt>
<pdfrwt beam="2">  1       -4 0.16659281E-01 0.12499959E+03</pdfrwt>
<totfact> 0.10044127E+04</totfact>
</mgrwt>
</event>
<event>
 5    1  0.3217852E-002  0.1249981E+03  0.7818608E-02  0.1235072E+00
          4   -1    0    0  501    0  0.00000000000E+00  0.00000000000E+00  0.14370653480E+02  0.14426662172E+02  0.12700000000E+01 0. -1.
         -4   -1    0    0    0  501 -0.00000000000E+00 -0.00000000000E+00 -0.27122670367E+03  0.27122967700E+03  0.12700000000E+01 0. -1.
         25    2    1    2    0    0  0.00000000000E+00  0.00000000000E+00 -0.25685605019E+03  0.28565633917E+03  0.12499805434E+03 0.  0.
    9000005    1    3    3    0    0  0.80619173769E+01  0.30848543848E+02 -0.56058196765E+01  0.32389078153E+02  0.10000000000E+01 0.  0.
    9000005    1    3    3    0    0 -0.80619173769E+01 -0.30848543848E+02 -0.25125023051E+03  0.25326726101E+03  0.10000000000E+01 0.  0.
<mgrwt>
<rscale>  0 0.12499805E+03</rscale>
<asrwt>0</asrwt>
<pdfrwt beam="1">  1        4 0.22154070E-02 0.12499805E+03</pdfrwt>
<pdfrwt beam="2">  1       -4 0.41731718E-01 0.12499805E+03</pdfrwt>
<totfact> 0.77437394E+03</totfact>
</mgrwt>
</event>
<event>
 5    1  0.3217852E-002  0.1250056E+03  0.7818608E-02  0.1235061E+00
         -4   -1    0    0    0  501 -0.00000000000E+00  0.00000000000E+00  0.76817299901E+02  0.76827797470E+02  0.12700000000E+01 0. -1.
          4   -1    0    0  501    0  0.00000000000E+00 -0.00000000000E+00 -0.50833828531E+02  0.50849690492E+02  0.12700000000E+01 0. -1.
         25    2    1    2    0    0  0.00000000000E+00  0.00000000000E+00  0.25983471370E+02  0.12767748796E+03  0.12500560047E+03 0.  0.
    9000005    1    3    3    0    0  0.82459068230E+01 -0.61936768352E+02  0.14218143497E+02  0.64088328561E+02  0.10000000000E+01 0.  0.
    9000005    1    3    3    0    0 -0.82459068230E+01  0.61936768352E+02  0.11765327873E+02  0.63589159400E+02  0.10000000000E+01 0.  0.
<mgrwt>
<rscale>  0 0.12500560E+03</rscale>
<asrwt>0</asrwt>
<pdfrwt beam="2">  1        4 0.78226167E-02 0.12500560E+03</pdfrwt>
<pdfrwt beam="1">  1       -4 0.11820074E-01 0.12500560E+03</pdfrwt>
<totfact> 0.10393145E+04</totfact>
</mgrwt>
</event>
<event>
 4    1  0.3217852E-002  0.1248677E+03  0.7818608E-02  0.1235276E+00
          4   -1    0    0  501    0  0.00000000000E+00  0.00000000000E+00  0.28538566433E+02  0.28566810708E+02  0.12700000000E+01 0.  1.
         -4   -1    0    0    0  501 -0.00000000000E+00 -0.00000000000E+00 -0.13648784702E+03  0.13649375547E+03  0.12700000000E+01 0.  1.
    9000005    1    1    2    0    0 -0.60963366357E+02 -0.92019376267E+01 -0.41037854024E+02  0.74069650712E+02  0.10000000000E+01 0.  0.
    9000005    1    1    2    0    0  0.60963366357E+02  0.92019376267E+01 -0.66911426559E+02  0.90990915468E+02  0.10000000000E+01 0.  0.
<mgrwt>
<rscale>  0 0.12486770E+03</rscale>
<asrwt>0</asrwt>
<pdfrwt beam="1">  1        4 0.43931759E-02 0.12486770E+03</pdfrwt>
<pdfrwt beam="2">  1       -4 0.21000757E-01 0.12486770E+03</pdfrwt>
<totfact> 0.96662913E+03</totfact>
</mgrwt>
</event>
<event>
 5    1  0.3217852E-002  0.1250011E+03  0.7818608E-02  0.1235068E+00
          4   -1    0    0  501    0  0.00000000000E+00  0.00000000000E+00  0.40543114071E+02  0.40563000364E+02  0.12700000000E+01 0.  1.
         -4   -1    0    0    0  501 -0.00000000000E+00 -0.00000000000E+00 -0.96302078849E+02  0.96310452655E+02  0.12700000000E+01 0.  1.
         25    2    1    2    0    0  0.00000000000E+00  0.00000000000E+00 -0.55758964778E+02  0.13687345302E+03  0.12500111995E+03 0.  0.
    9000005    1    3    3    0    0 -0.29221964376E+02 -0.31624147775E+02  0.21713585588E+02  0.48233699045E+02  0.10000000000E+01 0.  0.
    9000005    1    3    3    0    0  0.29221964376E+02  0.31624147775E+02 -0.77472550366E+02  0.88639753974E+02  0.10000000000E+01 0.  0.
<mgrwt>
<rscale>  0 0.12500112E+03</rscale>
<asrwt>0</asrwt>
<pdfrwt beam="1">  1        4 0.62395760E-02 0.12500112E+03</pdfrwt>
<pdfrwt beam="2">  1       -4 0.14817878E-01 0.12500112E+03</pdfrwt>
<totfact> 0.10198475E+04</totfact>
</mgrwt>
</event>
<event>
 5    1  0.3217852E-002  0.1249922E+03  0.7818608E-02  0.1235081E+00
          4   -1    0    0  501    0  0.00000000000E+00  0.00000000000E+00  0.24011418917E+02  0.24044981564E+02  0.12700000000E+01 0.  1.
         -4   -1    0    0    0  501 -0.00000000000E+00 -0.00000000000E+00 -0.16251302201E+03  0.16251798431E+03  0.12700000000E+01 0.  1.
         25    2    1    2    0    0  0.00000000000E+00  0.00000000000E+00 -0.13850160310E+03  0.18656296587E+03  0.12499218446E+03 0.  0.
    9000005    1    3    3    0    0 -0.32817635071E+02  0.14534292266E+02  0.70984004722E+01  0.36600957810E+02  0.10000000000E+01 0.  0.
    9000005    1    3    3    0    0  0.32817635071E+02 -0.14534292266E+02 -0.14560000357E+03  0.14996200806E+03  0.10000000000E+01 0.  0.
<mgrwt>
<rscale>  0 0.12499218E+03</rscale>
<asrwt>0</asrwt>
<pdfrwt beam="1">  1        4 0.36970280E-02 0.12499218E+03</pdfrwt>
<pdfrwt beam="2">  1       -4 0.25004966E-01 0.12499218E+03</pdfrwt>
<totfact> 0.92465002E+03</totfact>
</mgrwt>
</event>
<event>
 5    1  0.3217852E-002  0.1250006E+03  0.7818608E-02  0.1235068E+00
          4   -1    0    0  501    0  0.00000000000E+00  0.00000000000E+00  0.19091025447E+02  0.19133221178E+02  0.12700000000E+01 0.  1.
         -4   -1    0    0    0  501 -0.00000000000E+00 -0.00000000000E+00 -0.20434384406E+03  0.20434779056E+03  0.12700000000E+01 0.  1.
         25    2    1    2    0    0  0.00000000000E+00  0.00000000000E+00 -0.18525281862E+03  0.22348101174E+03  0.12500062321E+03 0.  0.
    9000005    1    3    3    0    0 -0.48148319569E+02 -0.20674446449E+02 -0.31745417594E+02  0.61273688901E+02  0.10000000000E+01 0.  0.
    9000005    1    3    3    0    0  0.48148319569E+02  0.20674446449E+02 -0.15350740102E+03  0.16220732284E+03  0.10000000000E+01 0.  0.
<mgrwt>
<rscale>  0 0.12500062E+03</rscale>
<asrwt>0</asrwt>
<pdfrwt beam="1">  1        4 0.29406304E-02 0.12500062E+03</pdfrwt>
<pdfrwt beam="2">  1       -4 0.31441063E-01 0.12500062E+03</pdfrwt>
<totfact> 0.86319304E+03</totfact>
</mgrwt>
</event>
<event>
 5    1  0.3217852E-002  0.1250003E+03  0.7818608E-02  0.1235069E+00
          4   -1    0    0  501    0  0.00000000000E+00  0.00000000000E+00  0.78108998219E+03  0.78109101465E+03  0.12700000000E+01 0. -1.
         -4   -1    0    0    0  501 -0.00000000000E+00 -0.00000000000E+00 -0.49193656585E+01  0.50806553202E+01  0.12700000000E+01 0. -1.
         25    2    1    2    0    0  0.00000000000E+00  0.00000000000E+00  0.77617061653E+03  0.78617166997E+03  0.12500027483E+03 0.  0.
    9000005    1    3    3    0    0  0.53688344159E+02  0.26373725002E+02  0.27430950659E+03  0.28075739897E+03  0.10000000000E+01 0.  0.
    9000005    1    3    3    0    0 -0.53688344159E+02 -0.26373725002E+02  0.50186110993E+03  0.50541427100E+03  0.10000000000E+01 0.  0.
<mgrwt>
<rscale>  0 0.12500027E+03</rscale>
<asrwt>0</asrwt>
<pdfrwt beam="1">  1        4 0.12018023E+00 0.12500027E+03</pdfrwt>
<pdfrwt beam="2">  1       -4 0.76931144E-03 0.12500027E+03</pdfrwt>
<totfact> 0.38889315E+03</totfact>
</mgrwt>
</event>
<event>
 5    1  0.3217852E-002  0.1249978E+03  0.7818608E-02  0.1235073E+00
         -4   -1    0    0    0  501 -0.00000000000E+00  0.00000000000E+00  0.21402640451E+03  0.21403017247E+03  0.12700000000E+01 0. -1.
          4   -1    0    0  501    0  0.00000000000E+00 -0.00000000000E+00 -0.18224591930E+02  0.18268788986E+02  0.12700000000E+01 0. -1.
         25    2    1    2    0    0  0.00000000000E+00  0.00000000000E+00  0.19580181258E+03  0.23229896145E+03  0.12499783072E+03 0.  0.
    9000005    1    3    3    0    0  0.57769843653E+02  0.11428781637E+02  0.59045064190E+02  0.83398390216E+02  0.10000000000E+01 0.  0.
    9000005    1    3    3    0    0 -0.57769843653E+02 -0.11428781637E+02  0.13675674839E+03  0.14890057124E+03  0.10000000000E+01 0.  0.
<mgrwt>
<rscale>  0 0.12499783E+03</rscale>
<asrwt>0</asrwt>
<pdfrwt beam="2">  1        4 0.28074732E-02 0.12499783E+03</pdfrwt>
<pdfrwt beam="1">  1       -4 0.32930826E-01 0.12499783E+03</pdfrwt>
<totfact> 0.84961948E+03</totfact>
</mgrwt>
</event>
<event>
 5    1  0.3217852E-002  0.1250009E+03  0.7818608E-02  0.1235068E+00
         -4   -1    0    0    0  501 -0.00000000000E+00  0.00000000000E+00  0.12609971787E+03  0.12610611304E+03  0.12700000000E+01 0. -1.
          4   -1    0    0  501    0  0.00000000000E+00 -0.00000000000E+00 -0.30957694546E+02  0.30983733662E+02  0.12700000000E+01 0. -1.
         25    2    1    2    0    0  0.00000000000E+00  0.00000000000E+00  0.95142023319E+02  0.15708984670E+03  0.12500086134E+03 0.  0.
    9000005    1    3    3    0    0 -0.24132889858E+02  0.54046069921E+02  0.72765770558E+02  0.93804218517E+02  0.10000000000E+01 0.  0.
    9000005    1    3    3    0    0  0.24132889858E+02 -0.54046069921E+02  0.22376252762E+02  0.63285628183E+02  0.10000000000E+01 0.  0.
<mgrwt>
<rscale>  0 0.12500086E+03</rscale>
<asrwt>0</asrwt>
<pdfrwt beam="2">  1        4 0.47652172E-02 0.12500086E+03</pdfrwt>
<pdfrwt beam="1">  1       -4 0.19402451E-01 0.12500086E+03</pdfrwt>
<totfact> 0.97904895E+03</totfact>
</mgrwt>
</event>
<event>
 5    1  0.3217852E-002  0.1249996E+03  0.7818608E-02  0.1235070E+00
         -4   -1    0    0    0  501 -0.00000000000E+00  0.00000000000E+00  0.19651519037E+02  0.19692513817E+02  0.12700000000E+01 0. -1.
          4   -1    0    0  501    0  0.00000000000E+00 -0.00000000000E+00 -0.19852457163E+03  0.19852863380E+03  0.12700000000E+01 0. -1.
         25    2    1    2    0    0  0.00000000000E+00  0.00000000000E+00 -0.17887305259E+03  0.21822114762E+03  0.12499960130E+03 0.  0.
    9000005    1    3    3    0    0  0.51154179542E+02 -0.26950453870E+02 -0.48044798505E+02  0.75182309833E+02  0.10000000000E+01 0.  0.
    9000005    1    3    3    0    0 -0.51154179542E+02  0.26950453870E+02 -0.13082825409E+03  0.14303883779E+03  0.10000000000E+01 0.  0.
<mgrwt>
<rscale>  0 0.12499960E+03</rscale>
<asrwt>0</asrwt>
<pdfrwt beam="2">  1        4 0.30545706E-01 0.12499960E+03</pdfrwt>
<pdfrwt beam="1">  1       -4 0.30267767E-02 0.12499960E+03</pdfrwt>
<totfact> 0.87151392E+03</totfact>
</mgrwt>
</event>
<event>
 5    1  0.3217852E-002  0.1250016E+03  0.7818608E-02  0.1235067E+00
          4   -1    0    0  501    0  0.00000000000E+00  0.00000000000E+00  0.28794077559E+04  0.28794080359E+04  0.12700000000E+01 0. -1.
         -4   -1    0    0    0  501 -0.00000000000E+00 -0.00000000000E+00 -0.10590876480E+01  0.16536525167E+01  0.12700000000E+01 0. -1.
         25    2    1    2    0    0  0.00000000000E+00  0.00000000000E+00  0.28783486682E+04  0.28810616885E+04  0.12500158745E+03 0.  0.
    9000005    1    3    3    0    0 -0.17601042212E+02 -0.10414276098E+02  0.78140434444E+02  0.80778594495E+02  0.10000000000E+01 0.  0.
    9000005    1    3    3    0    0  0.17601042212E+02  0.10414276098E+02  0.28002082338E+04  0.28002830940E+04  0.10000000000E+01 0.  0.
<mgrwt>
<rscale>  0 0.12500159E+03</rscale>
<asrwt>0</asrwt>
<pdfrwt beam="1">  1        4 0.44303393E+00 0.12500159E+03</pdfrwt>
<pdfrwt beam="2">  1       -4 0.20869275E-03 0.12500159E+03</pdfrwt>
<totfact> 0.23180567E+02</totfact>
</mgrwt>
</event>
<event>
 5    1  0.3217852E-002  0.1250006E+03  0.7818608E-02  0.1235068E+00
         -4   -1    0    0    0  501 -0.00000000000E+00  0.00000000000E+00  0.44823218763E+03  0.44823398680E+03  0.12700000000E+01 0.  1.
          4   -1    0    0  501    0  0.00000000000E+00 -0.00000000000E+00 -0.86667795554E+01  0.87593360400E+01  0.12700000000E+01 0.  1.
         25    2    1    2    0    0  0.00000000000E+00  0.00000000000E+00  0.43956540807E+03  0.45699332284E+03  0.12500059660E+03 0.  0.
    9000005    1    3    3    0    0  0.11160011248E+02  0.30915382088E+02  0.25468072834E+02  0.41592420398E+02  0.10000000000E+01 0.  0.
    9000005    1    3    3    0    0 -0.11160011248E+02 -0.30915382088E+02  0.41409733524E+03  0.41540090245E+03  0.10000000000E+01 0.  0.
<mgrwt>
<rscale>  0 0.12500060E+03</rscale>
<asrwt>0</asrwt>
<pdfrwt beam="2">  1        4 0.13406089E-02 0.12500060E+03</pdfrwt>
<pdfrwt beam="1">  1       -4 0.68966050E-01 0.12500060E+03</pdfrwt>
<totfact> 0.59361937E+03</totfact>
</mgrwt>
</event>
<event>
 4    1  0.3217852E-002  0.1250681E+03  0.7818608E-02  0.1234963E+00
         -4   -1    0    0    0  501 -0.00000000000E+00  0.00000000000E+00  0.14800083820E+03  0.14800628706E+03  0.12700000000E+01 0.  1.
          4   -1    0    0  501    0  0.00000000000E+00 -0.00000000000E+00 -0.26401008328E+02  0.26431536859E+02  0.12700000000E+01 0.  1.
    9000005    1    1    2    0    0 -0.21176209212E+02 -0.39309553372E+02  0.12184816249E+03  0.12977537333E+03  0.10000000000E+01 0.  0.
    9000005    1    1    2    0    0  0.21176209212E+02  0.39309553372E+02 -0.24833261251E+00  0.44662450582E+02  0.10000000000E+01 0.  0.
<mgrwt>
<rscale>  0 0.12506812E+03</rscale>
<asrwt>0</asrwt>
<pdfrwt beam="2">  1        4 0.40644611E-02 0.12506812E+03</pdfrwt>
<pdfrwt beam="1">  1       -4 0.22772127E-01 0.12506812E+03</pdfrwt>
<totfact> 0.94483423E+03</totfact>
</mgrwt>
</event>
<event>
 5    1  0.3217852E-002  0.1249957E+03  0.7818608E-02  0.1235076E+00
         -4   -1    0    0    0  501 -0.00000000000E+00  0.00000000000E+00  0.13196509455E+02  0.13257479466E+02  0.12700000000E+01 0.  1.
          4   -1    0    0  501    0  0.00000000000E+00 -0.00000000000E+00 -0.29524146822E+03  0.29524419970E+03  0.12700000000E+01 0.  1.
         25    2    1    2    0    0  0.00000000000E+00  0.00000000000E+00 -0.28204495876E+03  0.30850167917E+03  0.12499570906E+03 0.  0.
    9000005    1    3    3    0    0 -0.27561526088E+02 -0.56076377018E+02 -0.13883707478E+03  0.15225285256E+03  0.10000000000E+01 0.  0.
    9000005    1    3    3    0    0  0.27561526088E+02  0.56076377018E+02 -0.14320788398E+03  0.15624882660E+03  0.10000000000E+01 0.  0.
<mgrwt>
<rscale>  0 0.12499571E+03</rscale>
<asrwt>0</asrwt>
<pdfrwt beam="2">  1        4 0.45426660E-01 0.12499571E+03</pdfrwt>
<pdfrwt beam="1">  1       -4 0.20351326E-02 0.12499571E+03</pdfrwt>
<totfact> 0.74551730E+03</totfact>
</mgrwt>
</event>
<event>
 5    1  0.3217852E-002  0.1249995E+03  0.7818608E-02  0.1235070E+00
         -4   -1    0    0    0  501 -0.00000000000E+00  0.00000000000E+00  0.17193906764E+03  0.17194375790E+03  0.12700000000E+01 0.  1.
          4   -1    0    0  501    0  0.00000000000E+00 -0.00000000000E+00 -0.22695858560E+02  0.22731363703E+02  0.12700000000E+01 0.  1.
         25    2    1    2    0    0  0.00000000000E+00  0.00000000000E+00  0.14924320908E+03  0.19467512160E+03  0.12499947006E+03 0.  0.
    9000005    1    3    3    0    0  0.56070487052E+02  0.22576386507E+02  0.49916970306E+02  0.78398320585E+02  0.10000000000E+01 0.  0.
    9000005    1    3    3    0    0 -0.56070487052E+02 -0.22576386507E+02  0.99326238770E+02  0.11627680101E+03  0.10000000000E+01 0.  0.
<mgrwt>
<rscale>  0 0.12499947E+03</rscale>
<asrwt>0</asrwt>
<pdfrwt beam="2">  1        4 0.34947625E-02 0.12499947E+03</pdfrwt>
<pdfrwt beam="1">  1       -4 0.26455256E-01 0.12499947E+03</pdfrwt>
<totfact> 0.91041242E+03</totfact>
</mgrwt>
</event>
<event>
 5    1  0.3217852E-002  0.1249982E+03  0.7818608E-02  0.1235072E+00
          4   -1    0    0  501    0  0.00000000000E+00  0.00000000000E+00  0.12594531555E+03  0.12595171857E+03  0.12700000000E+01 0. -1.
         -4   -1    0    0    0  501 -0.00000000000E+00 -0.00000000000E+00 -0.30994371833E+02  0.31020380161E+02  0.12700000000E+01 0. -1.
         25    2    1    2    0    0  0.00000000000E+00  0.00000000000E+00  0.94950943720E+02  0.15697209873E+03  0.12499823225E+03 0.  0.
    9000005    1    3    3    0    0  0.38704212618E+02 -0.23527102160E+01 -0.14065997879E+02  0.41260194087E+02  0.10000000000E+01 0.  0.
    9000005    1    3    3    0    0 -0.38704212618E+02  0.23527102160E+01  0.10901694160E+03  0.11571190464E+03  0.10000000000E+01 0.  0.
<mgrwt>
<rscale>  0 0.12499823E+03</rscale>
<asrwt>0</asrwt>
<pdfrwt beam="1">  1        4 0.19378695E-01 0.12499823E+03</pdfrwt>
<pdfrwt beam="2">  1       -4 0.47708582E-02 0.12499823E+03</pdfrwt>
<totfact> 0.97933630E+03</totfact>
</mgrwt>
</event>
<event>
 5    1  0.3217852E-002  0.1250007E+03  0.7818608E-02  0.1235068E+00
          4   -1    0    0  501    0  0.00000000000E+00  0.00000000000E+00  0.13152019084E+03  0.13152632245E+03  0.12700000000E+01 0. -1.
         -4   -1    0    0    0  501 -0.00000000000E+00 -0.00000000000E+00 -0.29680669586E+02  0.29707828043E+02  0.12700000000E+01 0. -1.
         25    2    1    2    0    0  0.00000000000E+00  0.00000000000E+00  0.10183952125E+03  0.16123415050E+03  0.12500065279E+03 0.  0.
    9000005    1    3    3    0    0  0.62046743877E+02 -0.35663515093E+01  0.59355675732E+02  0.85945410176E+02  0.10000000000E+01 0.  0.
    9000005    1    3    3    0    0 -0.62046743877E+02  0.35663515093E+01  0.42483845520E+02  0.75288740320E+02  0.10000000000E+01 0.  0.
<mgrwt>
<rscale>  0 0.12500065E+03</rscale>
<asrwt>0</asrwt>
<pdfrwt beam="1">  1        4 0.20236436E-01 0.12500065E+03</pdfrwt>
<pdfrwt beam="2">  1       -4 0.45688177E-02 0.12500065E+03</pdfrwt>
<totfact> 0.97103952E+03</totfact>
</mgrwt>
</event>
<event>
 5    1  0.3217852E-002  0.1250006E+03  0.7818608E-02  0.1235068E+00
          4   -1    0    0  501    0  0.00000000000E+00  0.00000000000E+00  0.41670318237E+01  0.43562660869E+01  0.12700000000E+01 0.  1.
         -4   -1    0    0    0  501 -0.00000000000E+00 -0.00000000000E+00 -0.91642441663E+03  0.91642529662E+03  0.12700000000E+01 0.  1.
         25    2    1    2    0    0  0.00000000000E+00  0.00000000000E+00 -0.91225738481E+03  0.92078156271E+03  0.12500060039E+03 0.  0.
    9000005    1    3    3    0    0 -0.12627098854E+02  0.91045820253E+01 -0.90194919757E+03  0.90208408258E+03  0.10000000000E+01 0.  0.
    9000005    1    3    3    0    0  0.12627098854E+02 -0.91045820253E+01 -0.10308187234E+02  0.18697480134E+02  0.10000000000E+01 0.  0.
<mgrwt>
<rscale>  0 0.12500060E+03</rscale>
<asrwt>0</asrwt>
<pdfrwt beam="1">  1        4 0.65570672E-03 0.12500060E+03</pdfrwt>
<pdfrwt beam="2">  1       -4 0.14100284E+00 0.12500060E+03</pdfrwt>
<totfact> 0.33376157E+03</totfact>
</mgrwt>
</event>
<event>
 5    1  0.3217852E-002  0.1249993E+03  0.7818608E-02  0.1235070E+00
         -4   -1    0    0    0  501 -0.00000000000E+00  0.00000000000E+00  0.22678443454E+02  0.22713975818E+02  0.12700000000E+01 0. -1.
          4   -1    0    0  501    0  0.00000000000E+00 -0.00000000000E+00 -0.17207055618E+03  0.17207524286E+03  0.12700000000E+01 0. -1.
         25    2    1    2    0    0  0.00000000000E+00  0.00000000000E+00 -0.14939211273E+03  0.19478921868E+03  0.12499934547E+03 0.  0.
    9000005    1    3    3    0    0 -0.46695607589E+02  0.18636247487E+01 -0.13934775484E+03  0.14697873875E+03  0.10000000000E+01 0.  0.
    9000005    1    3    3    0    0  0.46695607589E+02 -0.18636247487E+01 -0.10044357885E+02  0.47810479925E+02  0.10000000000E+01 0.  0.
<mgrwt>
<rscale>  0 0.12499935E+03</rscale>
<asrwt>0</asrwt>
<pdfrwt beam="2">  1        4 0.26475486E-01 0.12499935E+03</pdfrwt>
<pdfrwt beam="1">  1       -4 0.34920852E-02 0.12499935E+03</pdfrwt>
<totfact> 0.91021954E+03</totfact>
</mgrwt>
</event>
<event>
 5    1  0.3217852E-002  0.1250012E+03  0.7818608E-02  0.1235067E+00
         -4   -1    0    0    0  501 -0.00000000000E+00  0.00000000000E+00  0.40579672919E+02  0.40599541306E+02  0.12700000000E+01 0.  1.
          4   -1    0    0  501    0  0.00000000000E+00 -0.00000000000E+00 -0.96215488430E+02  0.96223869772E+02  0.12700000000E+01 0.  1.
         25    2    1    2    0    0  0.00000000000E+00  0.00000000000E+00 -0.55635815511E+02  0.13682341108E+03  0.12500120740E+03 0.  0.
    9000005    1    3    3    0    0 -0.22953365929E+02 -0.46344037146E+02 -0.66217098540E+02  0.84025775364E+02  0.10000000000E+01 0.  0.
    9000005    1    3    3    0    0  0.22953365929E+02  0.46344037146E+02  0.10581283029E+02  0.52797635714E+02  0.10000000000E+01 0.  0.
<mgrwt>
<rscale>  0 0.12500121E+03</rscale>
<asrwt>0</asrwt>
<pdfrwt beam="2">  1        4 0.14804556E-01 0.12500121E+03</pdfrwt>
<pdfrwt beam="1">  1       -4 0.62451997E-02 0.12500121E+03</pdfrwt>
<totfact> 0.10199502E+04</totfact>
</mgrwt>
</event>
<event>
 5    1  0.3217852E-002  0.1250032E+03  0.7818608E-02  0.1235064E+00
          4   -1    0    0  501    0  0.00000000000E+00  0.00000000000E+00  0.37673839542E+02  0.37695239565E+02  0.12700000000E+01 0. -1.
         -4   -1    0    0    0  501 -0.00000000000E+00 -0.00000000000E+00 -0.10363664144E+03  0.10364442266E+03  0.12700000000E+01 0. -1.
         25    2    1    2    0    0  0.00000000000E+00  0.00000000000E+00 -0.65962801897E+02  0.14133966223E+03  0.12500323549E+03 0.  0.
    9000005    1    3    3    0    0 -0.21074244620E+02  0.37497146513E+02 -0.84241519607E+02  0.94592776725E+02  0.10000000000E+01 0.  0.
    9000005    1    3    3    0    0  0.21074244620E+02 -0.37497146513E+02  0.18278717710E+02  0.46746885501E+02  0.10000000000E+01 0.  0.
<mgrwt>
<rscale>  0 0.12500324E+03</rscale>
<asrwt>0</asrwt>
<pdfrwt beam="1">  1        4 0.57982201E-02 0.12500324E+03</pdfrwt>
<pdfrwt beam="2">  1       -4 0.15946343E-01 0.12500324E+03</pdfrwt>
<totfact> 0.10105159E+04</totfact>
</mgrwt>
</event>
<event>
 5    1  0.3217852E-002  0.1249941E+03  0.7818608E-02  0.1235078E+00
         -4   -1    0    0    0  501 -0.00000000000E+00  0.00000000000E+00  0.94071387872E+02  0.94079960226E+02  0.12700000000E+01 0.  1.
          4   -1    0    0  501    0  0.00000000000E+00 -0.00000000000E+00 -0.41500230136E+02  0.41519658011E+02  0.12700000000E+01 0.  1.
         25    2    1    2    0    0  0.00000000000E+00  0.00000000000E+00  0.52571157736E+02  0.13559961824E+03  0.12499411922E+03 0.  0.
    9000005    1    3    3    0    0 -0.60008332586E+02  0.12043265489E+02  0.39958203254E+02  0.73100603491E+02  0.10000000000E+01 0.  0.
    9000005    1    3    3    0    0  0.60008332586E+02 -0.12043265489E+02  0.12612954481E+02  0.62499014746E+02  0.10000000000E+01 0.  0.
<mgrwt>
<rscale>  0 0.12499412E+03</rscale>
<asrwt>0</asrwt>
<pdfrwt beam="2">  1        4 0.63868048E-02 0.12499412E+03</pdfrwt>
<pdfrwt beam="1">  1       -4 0.14474675E-01 0.12499412E+03</pdfrwt>
<totfact> 0.10226804E+04</totfact>
</mgrwt>
</event>
<event>
 5    1  0.3217852E-002  0.1249994E+03  0.7818608E-02  0.1235070E+00
         -4   -1    0    0    0  501 -0.00000000000E+00  0.00000000000E+00  0.13665417664E+03  0.13666007790E+03  0.12700000000E+01 0.  1.
          4   -1    0    0  501    0  0.00000000000E+00 -0.00000000000E+00 -0.28564019670E+02  0.28592238802E+02  0.12700000000E+01 0.  1.
         25    2    1    2    0    0  0.00000000000E+00  0.00000000000E+00  0.10809015697E+03  0.16525231671E+03  0.12499938457E+03 0.  0.
    9000005    1    3    3    0    0  0.38436788900E+02 -0.32129922492E+02  0.10343103773E+03  0.11492910087E+03  0.10000000000E+01 0.  0.
    9000005    1    3    3    0    0 -0.38436788900E+02  0.32129922492E+02  0.46591192374E+01  0.50323215838E+02  0.10000000000E+01 0.  0.
<mgrwt>
<rscale>  0 0.12499938E+03</rscale>
<asrwt>0</asrwt>
<pdfrwt beam="2">  1        4 0.43970893E-02 0.12499938E+03</pdfrwt>
<pdfrwt beam="1">  1       -4 0.21026344E-01 0.12499938E+03</pdfrwt>
<totfact> 0.96340961E+03</totfact>
</mgrwt>
</event>
<event>
 5    1  0.3217852E-002  0.1250008E+03  0.7818608E-02  0.1235068E+00
          4   -1    0    0  501    0  0.00000000000E+00  0.00000000000E+00  0.62261163688E+02  0.62274115038E+02  0.12700000000E+01 0. -1.
         -4   -1    0    0    0  501 -0.00000000000E+00 -0.00000000000E+00 -0.62714696477E+02  0.62727554186E+02  0.12700000000E+01 0. -1.
         25    2    1    2    0    0  0.00000000000E+00  0.00000000000E+00 -0.45353278948E+00  0.12500166922E+03  0.12500084646E+03 0.  0.
    9000005    1    3    3    0    0  0.45070956669E+02 -0.38123105677E+02 -0.20733987533E+02  0.62575239196E+02  0.10000000000E+01 0.  0.
    9000005    1    3    3    0    0 -0.45070956669E+02  0.38123105677E+02  0.20280454743E+02  0.62426430028E+02  0.10000000000E+01 0.  0.
<mgrwt>
<rscale>  0 0.12500085E+03</rscale>
<asrwt>0</asrwt>
<pdfrwt beam="1">  1        4 0.95806258E-02 0.12500085E+03</pdfrwt>
<pdfrwt beam="2">  1       -4 0.96504002E-02 0.12500085E+03</pdfrwt>
<totfact> 0.10452626E+04</totfact>
</mgrwt>
</event>
<event>
 5    1  0.3217852E-002  0.1249993E+03  0.7818608E-02  0.1235070E+00
          4   -1    0    0  501    0  0.00000000000E+00  0.00000000000E+00  0.24724286298E+02  0.24756882537E+02  0.12700000000E+01 0. -1.
         -4   -1    0    0    0  501 -0.00000000000E+00 -0.00000000000E+00 -0.15785148405E+03  0.15785659288E+03  0.12700000000E+01 0. -1.
         25    2    1    2    0    0  0.00000000000E+00  0.00000000000E+00 -0.13312719775E+03  0.18261347542E+03  0.12499932249E+03 0.  0.
    9000005    1    3    3    0    0  0.56110817043E+02 -0.27351983999E+02 -0.62266212004E+02  0.88173896223E+02  0.10000000000E+01 0.  0.
    9000005    1    3    3    0    0 -0.56110817043E+02  0.27351983999E+02 -0.70860985747E+02  0.94439579197E+02  0.10000000000E+01 0.  0.
<mgrwt>
<rscale>  0 0.12499932E+03</rscale>
<asrwt>0</asrwt>
<pdfrwt beam="1">  1        4 0.38066368E-02 0.12499932E+03</pdfrwt>
<pdfrwt beam="2">  1       -4 0.24287743E-01 0.12499932E+03</pdfrwt>
<totfact> 0.93150088E+03</totfact>
</mgrwt>
</event>
<event>
 5    1  0.3217852E-002  0.1249977E+03  0.7818608E-02  0.1235073E+00
          4   -1    0    0  501    0  0.00000000000E+00  0.00000000000E+00  0.45696621060E+01  0.47428590284E+01  0.12700000000E+01 0.  1.
         -4   -1    0    0    0  501 -0.00000000000E+00 -0.00000000000E+00 -0.83871957070E+03  0.83872053222E+03  0.12700000000E+01 0.  1.
         25    2    1    2    0    0  0.00000000000E+00  0.00000000000E+00 -0.83414990859E+03  0.84346339125E+03  0.12499768948E+03 0.  0.
    9000005    1    3    3    0    0 -0.47058777887E+02 -0.29088554741E+02 -0.61316107337E+03  0.61565264110E+03  0.10000000000E+01 0.  0.
    9000005    1    3    3    0    0  0.47058777887E+02  0.29088554741E+02 -0.22098883522E+03  0.22781075015E+03  0.10000000000E+01 0.  0.
<mgrwt>
<rscale>  0 0.12499769E+03</rscale>
<asrwt>0</asrwt>
<pdfrwt beam="1">  1        4 0.71642241E-03 0.12499769E+03</pdfrwt>
<pdfrwt beam="2">  1       -4 0.12904706E+00 0.12499769E+03</pdfrwt>
<totfact> 0.36398178E+03</totfact>
</mgrwt>
</event>
<event>
 5    1  0.3217852E-002  0.1249997E+03  0.7818608E-02  0.1235070E+00
          4   -1    0    0  501    0  0.00000000000E+00  0.00000000000E+00  0.26896537451E+03  0.26896837283E+03  0.12700000000E+01 0.  1.
         -4   -1    0    0    0  501 -0.00000000000E+00 -0.00000000000E+00 -0.14492326434E+02  0.14547866698E+02  0.12700000000E+01 0.  1.
         25    2    1    2    0    0  0.00000000000E+00  0.00000000000E+00  0.25447304807E+03  0.28351623953E+03  0.12499970353E+03 0.  0.
    9000005    1    3    3    0    0 -0.21564669898E+02 -0.89057069777E+01  0.25872744721E+03  0.25977921114E+03  0.10000000000E+01 0.  0.
    9000005    1    3    3    0    0  0.21564669898E+02  0.89057069777E+01 -0.42543991342E+01  0.23737028386E+02  0.10000000000E+01 0.  0.
<mgrwt>
<rscale>  0 0.12499970E+03</rscale>
<asrwt>0</asrwt>
<pdfrwt beam="1">  1        4 0.41383787E-01 0.12499970E+03</pdfrwt>
<pdfrwt beam="2">  1       -4 0.22340919E-02 0.12499970E+03</pdfrwt>
<totfact> 0.77714690E+03</totfact>
</mgrwt>
</event>
<event>
 5    1  0.3217852E-002  0.1249981E+03  0.7818608E-02  0.1235072E+00
         -4   -1    0    0    0  501 -0.00000000000E+00  0.00000000000E+00  0.32074461231E+01  0.34497261678E+01  0.12700000000E+01 0.  1.
          4   -1    0    0  501    0  0.00000000000E+00 -0.00000000000E+00 -0.11732679249E+04  0.11732686123E+04  0.12700000000E+01 0.  1.
         25    2    1    2    0    0  0.00000000000E+00  0.00000000000E+00 -0.11700604788E+04  0.11767183384E+04  0.12499809591E+03 0.  0.
    9000005    1    3    3    0    0 -0.53110318872E+01  0.47670286314E+02 -0.96211121216E+03  0.96330662191E+03  0.10000000000E+01 0.  0.
    9000005    1    3    3    0    0  0.53110318872E+01 -0.47670286314E+02 -0.20794926665E+03  0.21341171654E+03  0.10000000000E+01 0.  0.
<mgrwt>
<rscale>  0 0.12499810E+03</rscale>
<asrwt>0</asrwt>
<pdfrwt beam="2">  1        4 0.18052112E+00 0.12499810E+03</pdfrwt>
<pdfrwt beam="1">  1       -4 0.51214398E-03 0.12499810E+03</pdfrwt>
<totfact> 0.25331517E+03</totfact>
</mgrwt>
</event>
<event>
 5    1  0.3217852E-002  0.1249996E+03  0.7818608E-02  0.1235070E+00
          4   -1    0    0  501    0  0.00000000000E+00  0.00000000000E+00  0.28356424791E+02  0.28384850306E+02  0.12700000000E+01 0. -1.
         -4   -1    0    0    0  501 -0.00000000000E+00 -0.00000000000E+00 -0.13765403231E+03  0.13765989071E+03  0.12700000000E+01 0. -1.
         25    2    1    2    0    0  0.00000000000E+00  0.00000000000E+00 -0.10929760751E+03  0.16604474102E+03  0.12499955604E+03 0.  0.
    9000005    1    3    3    0    0  0.60085467989E+02  0.25448772172E+01 -0.77210736881E+02  0.97873580466E+02  0.10000000000E+01 0.  0.
    9000005    1    3    3    0    0 -0.60085467989E+02 -0.25448772172E+01 -0.32086870634E+02  0.68171160549E+02  0.10000000000E+01 0.  0.
<mgrwt>
<rscale>  0 0.12499956E+03</rscale>
<asrwt>0</asrwt>
<pdfrwt beam="1">  1        4 0.43651642E-02 0.12499956E+03</pdfrwt>
<pdfrwt beam="2">  1       -4 0.21180180E-01 0.12499956E+03</pdfrwt>
<totfact> 0.96190859E+03</totfact>
</mgrwt>
</event>
<event>
 5    1  0.3217852E-002  0.1250026E+03  0.7818608E-02  0.1235065E+00
          4   -1    0    0  501    0  0.00000000000E+00  0.00000000000E+00  0.37268766120E+01  0.39373226031E+01  0.12700000000E+01 0. -1.
         -4   -1    0    0    0  501 -0.00000000000E+00 -0.00000000000E+00 -0.10191807279E+04  0.10191815192E+04  0.12700000000E+01 0. -1.
         25    2    1    2    0    0  0.00000000000E+00  0.00000000000E+00 -0.10154538513E+04  0.10231188418E+04  0.12500256118E+03 0.  0.
    9000005    1    3    3    0    0  0.25115224275E+02  0.10361804675E+02 -0.47099684529E+02  0.54383101872E+02  0.10000000000E+01 0.  0.
    9000005    1    3    3    0    0 -0.25115224275E+02 -0.10361804675E+02 -0.96835416678E+03  0.96873573993E+03  0.10000000000E+01 0.  0.
<mgrwt>
<rscale>  0 0.12500256E+03</rscale>
<asrwt>0</asrwt>
<pdfrwt beam="1">  1        4 0.58961547E-03 0.12500256E+03</pdfrwt>
<pdfrwt beam="2">  1       -4 0.15681307E+00 0.12500256E+03</pdfrwt>
<totfact> 0.29847537E+03</totfact>
</mgrwt>
</event>
<event>
 5    1  0.3217852E-002  0.1250071E+03  0.7818608E-02  0.1235058E+00
          4   -1    0    0  501    0  0.00000000000E+00  0.00000000000E+00  0.15751072057E+03  0.15751584045E+03  0.12700000000E+01 0.  1.
         -4   -1    0    0    0  501 -0.00000000000E+00 -0.00000000000E+00 -0.24780947136E+02  0.24813468943E+02  0.12700000000E+01 0.  1.
         25    2    1    2    0    0  0.00000000000E+00  0.00000000000E+00  0.13272977343E+03  0.18232930939E+03  0.12500713703E+03 0.  0.
    9000005    1    3    3    0    0  0.38518628689E+02 -0.28728976800E+02  0.80838160065E+01  0.48737941537E+02  0.10000000000E+01 0.  0.
    9000005    1    3    3    0    0 -0.38518628689E+02  0.28728976800E+02  0.12464595742E+03  0.13359136786E+03  0.10000000000E+01 0.  0.
<mgrwt>
<rscale>  0 0.12500714E+03</rscale>
<asrwt>0</asrwt>
<pdfrwt beam="1">  1        4 0.24235314E-01 0.12500714E+03</pdfrwt>
<pdfrwt beam="2">  1       -4 0.38153489E-02 0.12500714E+03</pdfrwt>
<totfact> 0.93184483E+03</totfact>
</mgrwt>
</event>
<event>
 5    1  0.3217852E-002  0.1249976E+03  0.7818608E-02  0.1235073E+00
          4   -1    0    0  501    0  0.00000000000E+00  0.00000000000E+00  0.58147228933E+01  0.59517982430E+01  0.12700000000E+01 0.  1.
         -4   -1    0    0    0  501 -0.00000000000E+00 -0.00000000000E+00 -0.66379716091E+03  0.66379837581E+03  0.12700000000E+01 0.  1.
         25    2    1    2    0    0  0.00000000000E+00  0.00000000000E+00 -0.65798243801E+03  0.66975017405E+03  0.12499762762E+03 0.  0.
    9000005    1    3    3    0    0  0.60704820198E+02 -0.94725067348E+01 -0.39015300893E+03  0.39496224371E+03  0.10000000000E+01 0.  0.
    9000005    1    3    3    0    0 -0.60704820198E+02  0.94725067348E+01 -0.26782942909E+03  0.27478793035E+03  0.10000000000E+01 0.  0.
<mgrwt>
<rscale>  0 0.12499763E+03</rscale>
<asrwt>0</asrwt>
<pdfrwt beam="1">  1        4 0.90521099E-03 0.12499763E+03</pdfrwt>
<pdfrwt beam="2">  1       -4 0.10213322E+00 0.12499763E+03</pdfrwt>
<totfact> 0.44734690E+03</totfact>
</mgrwt>
</event>
<event>
 5    1  0.3217852E-002  0.1249978E+03  0.7818608E-02  0.1235073E+00
          4   -1    0    0  501    0  0.00000000000E+00  0.00000000000E+00  0.27565985395E+03  0.27566277946E+03  0.12700000000E+01 0. -1.
         -4   -1    0    0    0  501 -0.00000000000E+00 -0.00000000000E+00 -0.14138578479E+02  0.14195502859E+02  0.12700000000E+01 0. -1.
         25    2    1    2    0    0  0.00000000000E+00  0.00000000000E+00  0.26152127547E+03  0.28985828232E+03  0.12499778520E+03 0.  0.
    9000005    1    3    3    0    0 -0.14451503776E+02 -0.21446772221E+02 -0.11585257437E+01  0.25906604988E+02  0.10000000000E+01 0.  0.
    9000005    1    3    3    0    0  0.14451503776E+02  0.21446772221E+02  0.26267980122E+03  0.26395167734E+03  0.10000000000E+01 0.  0.
<mgrwt>
<rscale>  0 0.12499779E+03</rscale>
<asrwt>0</asrwt>
<pdfrwt beam="1">  1        4 0.42413809E-01 0.12499779E+03</pdfrwt>
<pdfrwt beam="2">  1       -4 0.21797699E-02 0.12499779E+03</pdfrwt>
<totfact> 0.76892650E+03</totfact>
</mgrwt>
</event>
<event>
 5    1  0.3217852E-002  0.1250000E+03  0.7818608E-02  0.1235069E+00
         -4   -1    0    0    0  501 -0.00000000000E+00  0.00000000000E+00  0.33706972850E+02  0.33730889682E+02  0.12700000000E+01 0. -1.
          4   -1    0    0  501    0  0.00000000000E+00 -0.00000000000E+00 -0.11581997736E+03  0.11582694011E+03  0.12700000000E+01 0. -1.
         25    2    1    2    0    0  0.00000000000E+00  0.00000000000E+00 -0.82113004512E+02  0.14955782980E+03  0.12499999577E+03 0.  0.
    9000005    1    3    3    0    0  0.13775675375E+02  0.35915543807E+02 -0.99982188574E+02  0.10713138453E+03  0.10000000000E+01 0.  0.
    9000005    1    3    3    0    0 -0.13775675375E+02 -0.35915543807E+02  0.17869184062E+02  0.42426445267E+02  0.10000000000E+01 0.  0.
<mgrwt>
<rscale>  0 0.12500000E+03</rscale>
<asrwt>0</asrwt>
<pdfrwt beam="2">  1        4 0.17820833E-01 0.12500000E+03</pdfrwt>
<pdfrwt beam="1">  1       -4 0.51880635E-02 0.12500000E+03</pdfrwt>
<totfact> 0.99391920E+03</totfact>
</mgrwt>
</event>
<event>
 5    1  0.3217852E-002  0.1250048E+03  0.7818608E-02  0.1235062E+00
          4   -1    0    0  501    0  0.00000000000E+00  0.00000000000E+00  0.76412917178E+03  0.76413022716E+03  0.12700000000E+01 0. -1.
         -4   -1    0    0    0  501 -0.00000000000E+00 -0.00000000000E+00 -0.50324776558E+01  0.51902534963E+01  0.12700000000E+01 0. -1.
         25    2    1    2    0    0  0.00000000000E+00  0.00000000000E+00  0.75909669412E+03  0.76932048066E+03  0.12500484364E+03 0.  0.
    9000005    1    3    3    0    0  0.12032796539E+02  0.59611645782E+02  0.46813990411E+03  0.47207447116E+03  0.10000000000E+01 0.  0.
    9000005    1    3    3    0    0 -0.12032796539E+02 -0.59611645782E+02  0.29095679001E+03  0.29724600949E+03  0.10000000000E+01 0.  0.
<mgrwt>
<rscale>  0 0.12500484E+03</rscale>
<asrwt>0</asrwt>
<pdfrwt beam="1">  1        4 0.11757046E+00 0.12500484E+03</pdfrwt>
<pdfrwt beam="2">  1       -4 0.78644574E-03 0.12500484E+03</pdfrwt>
<totfact> 0.39662467E+03</totfact>
</mgrwt>
</event>
<event>
 5    1  0.3217852E-002  0.1250029E+03  0.7818608E-02  0.1235065E+00
         -4   -1    0    0    0  501 -0.00000000000E+00  0.00000000000E+00  0.79615009713E+02  0.79625138441E+02  0.12700000000E+01 0. -1.
          4   -1    0    0  501    0  0.00000000000E+00 -0.00000000000E+00 -0.49045032444E+02  0.49061472740E+02  0.12700000000E+01 0. -1.
         25    2    1    2    0    0  0.00000000000E+00  0.00000000000E+00  0.30569977270E+02  0.12868661118E+03  0.12500288151E+03 0.  0.
    9000005    1    3    3    0    0 -0.58396794743E+02  0.56057913704E+01 -0.68861435657E+01  0.59076471681E+02  0.10000000000E+01 0.  0.
    9000005    1    3    3    0    0  0.58396794743E+02 -0.56057913704E+01  0.37456120835E+02  0.69610139499E+02  0.10000000000E+01 0.  0.
<mgrwt>
<rscale>  0 0.12500288E+03</rscale>
<asrwt>0</asrwt>
<pdfrwt beam="2">  1        4 0.75474335E-02 0.12500288E+03</pdfrwt>
<pdfrwt beam="1">  1       -4 0.12250507E-01 0.12500288E+03</pdfrwt>
<totfact> 0.10372011E+04</totfact>
</mgrwt>
</event>
<event>
 5    1  0.3217852E-002  0.1249990E+03  0.7818608E-02  0.1235071E+00
          4   -1    0    0  501    0  0.00000000000E+00  0.00000000000E+00  0.11795756448E+03  0.11796440106E+03  0.12700000000E+01 0.  1.
         -4   -1    0    0    0  501 -0.00000000000E+00 -0.00000000000E+00 -0.33095234953E+02  0.33119593545E+02  0.12700000000E+01 0.  1.
         25    2    1    2    0    0  0.00000000000E+00  0.00000000000E+00  0.84862329528E+02  0.15108399461E+03  0.12499903381E+03 0.  0.
    9000005    1    3    3    0    0 -0.90445717263E+01  0.48242304156E+02  0.89181754750E+02  0.10180132400E+03  0.10000000000E+01 0.  0.
    9000005    1    3    3    0    0  0.90445717263E+01 -0.48242304156E+02 -0.43194252227E+01  0.49282670608E+02  0.10000000000E+01 0.  0.
<mgrwt>
<rscale>  0 0.12499903E+03</rscale>
<asrwt>0</asrwt>
<pdfrwt beam="1">  1        4 0.18149718E-01 0.12499903E+03</pdfrwt>
<pdfrwt beam="2">  1       -4 0.50939741E-02 0.12499903E+03</pdfrwt>
<totfact> 0.99090212E+03</totfact>
</mgrwt>
</event>
<event>
 5    1  0.3217852E-002  0.1250033E+03  0.7818608E-02  0.1235064E+00
          4   -1    0    0  501    0  0.00000000000E+00  0.00000000000E+00  0.16299359609E+03  0.16299854375E+03  0.12700000000E+01 0. -1.
         -4   -1    0    0    0  501 -0.00000000000E+00 -0.00000000000E+00 -0.23944778097E+02  0.23978434022E+02  0.12700000000E+01 0. -1.
         25    2    1    2    0    0  0.00000000000E+00  0.00000000000E+00  0.13904881799E+03  0.18697697778E+03  0.12500326569E+03 0.  0.
    9000005    1    3    3    0    0 -0.42154265894E+02 -0.28018549481E+02  0.12434891916E+03  0.13425972942E+03  0.10000000000E+01 0.  0.
    9000005    1    3    3    0    0  0.42154265894E+02  0.28018549481E+02  0.14699898829E+02  0.52717248351E+02  0.10000000000E+01 0.  0.
<mgrwt>
<rscale>  0 0.12500327E+03</rscale>
<asrwt>0</asrwt>
<pdfrwt beam="1">  1        4 0.25078906E-01 0.12500327E+03</pdfrwt>
<pdfrwt beam="2">  1       -4 0.36867817E-02 0.12500327E+03</pdfrwt>
<totfact> 0.92369229E+03</totfact>
</mgrwt>
</event>
<event>
 5    1  0.3217852E-002  0.1249924E+03  0.7818608E-02  0.1235081E+00
         -4   -1    0    0    0  501 -0.00000000000E+00  0.00000000000E+00  0.13768825098E+03  0.13769410792E+03  0.12700000000E+01 0.  1.
          4   -1    0    0  501    0  0.00000000000E+00 -0.00000000000E+00 -0.28346116952E+02  0.28374552794E+02  0.12700000000E+01 0.  1.
         25    2    1    2    0    0  0.00000000000E+00  0.00000000000E+00  0.10934213402E+03  0.16606866072E+03  0.12499239097E+03 0.  0.
    9000005    1    3    3    0    0  0.39297644961E+02  0.42854685556E+02  0.85083219199E+02  0.10305815428E+03  0.10000000000E+01 0.  0.
    9000005    1    3    3    0    0 -0.39297644961E+02 -0.42854685556E+02  0.24258914825E+02  0.63010506442E+02  0.10000000000E+01 0.  0.
<mgrwt>
<rscale>  0 0.12499239E+03</rscale>
<asrwt>0</asrwt>
<pdfrwt beam="2">  1        4 0.43635790E-02 0.12499239E+03</pdfrwt>
<pdfrwt beam="1">  1       -4 0.21185446E-01 0.12499239E+03</pdfrwt>
<totfact> 0.96201828E+03</totfact>
</mgrwt>
</event>
<event>
 5    1  0.3217852E-002  0.1249999E+03  0.7818608E-02  0.1235069E+00
          4   -1    0    0  501    0  0.00000000000E+00  0.00000000000E+00  0.14191467294E+02  0.14248180374E+02  0.12700000000E+01 0. -1.
         -4   -1    0    0    0  501 -0.00000000000E+00 -0.00000000000E+00 -0.27464603912E+03  0.27464897543E+03  0.12700000000E+01 0. -1.
         25    2    1    2    0    0  0.00000000000E+00  0.00000000000E+00 -0.26045457183E+03  0.28889715580E+03  0.12499993058E+03 0.  0.
    9000005    1    3    3    0    0 -0.72180766794E+01  0.45308173276E+02 -0.22829085144E+03  0.23285756171E+03  0.10000000000E+01 0.  0.
    9000005    1    3    3    0    0  0.72180766794E+01 -0.45308173276E+02 -0.32163720388E+02  0.56039594090E+02  0.10000000000E+01 0.  0.
<mgrwt>
<rscale>  0 0.12499993E+03</rscale>
<asrwt>0</asrwt>
<pdfrwt beam="1">  1        4 0.21878913E-02 0.12499993E+03</pdfrwt>
<pdfrwt beam="2">  1       -4 0.42257821E-01 0.12499993E+03</pdfrwt>
<totfact> 0.77013126E+03</totfact>
</mgrwt>
</event>
<event>
 5    1  0.3217852E-002  0.1250103E+03  0.7818608E-02  0.1235053E+00
          4   -1    0    0  501    0  0.00000000000E+00  0.00000000000E+00  0.11897304519E+03  0.11897982343E+03  0.12700000000E+01 0. -1.
         -4   -1    0    0    0  501 -0.00000000000E+00 -0.00000000000E+00 -0.32818502873E+02  0.32843066709E+02  0.12700000000E+01 0. -1.
         25    2    1    2    0    0  0.00000000000E+00  0.00000000000E+00  0.86154542321E+02  0.15182289014E+03  0.12501033880E+03 0.  0.
    9000005    1    3    3    0    0  0.39308774240E+02 -0.52876679289E+01  0.10173511249E+03  0.10919785839E+03  0.10000000000E+01 0.  0.
    9000005    1    3    3    0    0 -0.39308774240E+02  0.52876679289E+01 -0.15580570168E+02  0.42625031744E+02  0.10000000000E+01 0.  0.
<mgrwt>
<rscale>  0 0.12501034E+03</rscale>
<asrwt>0</asrwt>
<pdfrwt beam="1">  1        4 0.18305956E-01 0.12501034E+03</pdfrwt>
<pdfrwt beam="2">  1       -4 0.50514114E-02 0.12501034E+03</pdfrwt>
<totfact> 0.98918552E+03</totfact>
</mgrwt>
</event>
<event>
 5    1  0.3217852E-002  0.1249912E+03  0.7818608E-02  0.1235083E+00
         -4   -1    0    0    0  501 -0.00000000000E+00  0.00000000000E+00  0.95563268426E+02  0.95571706965E+02  0.12700000000E+01 0. -1.
          4   -1    0    0  501    0  0.00000000000E+00 -0.00000000000E+00 -0.40850196587E+02  0.40869933462E+02  0.12700000000E+01 0. -1.
         25    2    1    2    0    0  0.00000000000E+00  0.00000000000E+00  0.54713071839E+02  0.13644164043E+03  0.12499120374E+03 0.  0.
    9000005    1    3    3    0    0 -0.44197102484E+02  0.36275197753E+02  0.54873474431E+02  0.79255107319E+02  0.10000000000E+01 0.  0.
    9000005    1    3    3    0    0  0.44197102484E+02 -0.36275197753E+02 -0.16040259243E+00  0.57186533109E+02  0.10000000000E+01 0.  0.
<mgrwt>
<rscale>  0 0.12499120E+03</rscale>
<asrwt>0</asrwt>
<pdfrwt beam="2">  1        4 0.62868131E-02 0.12499120E+03</pdfrwt>
<pdfrwt beam="1">  1       -4 0.14704208E-01 0.12499120E+03</pdfrwt>
<totfact> 0.10209798E+04</totfact>
</mgrwt>
</event>
<event>
 5    1  0.3217852E-002  0.1250004E+03  0.7818608E-02  0.1235069E+00
         -4   -1    0    0    0  501 -0.00000000000E+00  0.00000000000E+00  0.34507342123E+03  0.34507575826E+03  0.12700000000E+01 0.  1.
          4   -1    0    0  501    0  0.00000000000E+00 -0.00000000000E+00 -0.11282120558E+02  0.11353375898E+02  0.12700000000E+01 0.  1.
         25    2    1    2    0    0  0.00000000000E+00  0.00000000000E+00  0.33379130067E+03  0.35642913416E+03  0.12500038109E+03 0.  0.
    9000005    1    3    3    0    0 -0.36877586777E+02 -0.36830369423E+02  0.68579740976E+02  0.86142982248E+02  0.10000000000E+01 0.  0.
    9000005    1    3    3    0    0  0.36877586777E+02  0.36830369423E+02  0.26521155969E+03  0.27028615191E+03  0.10000000000E+01 0.  0.
<mgrwt>
<rscale>  0 0.12500038E+03</rscale>
<asrwt>0</asrwt>
<pdfrwt beam="2">  1        4 0.17413716E-02 0.12500038E+03</pdfrwt>
<pdfrwt beam="1">  1       -4 0.53093887E-01 0.12500038E+03</pdfrwt>
<totfact> 0.69022427E+03</totfact>
</mgrwt>
</event>
<event>
 5    1  0.3217852E-002  0.1249991E+03  0.7818608E-02  0.1235071E+00
         -4   -1    0    0    0  501 -0.00000000000E+00  0.00000000000E+00  0.86816336501E+03  0.86816429393E+03  0.12700000000E+01 0. -1.
          4   -1    0    0  501    0  0.00000000000E+00 -0.00000000000E+00 -0.44088113208E+01  0.45880842693E+01  0.12700000000E+01 0. -1.
         25    2    1    2    0    0  0.00000000000E+00  0.00000000000E+00  0.86375455369E+03  0.87275237820E+03  0.12499913849E+03 0.  0.
    9000005    1    3    3    0    0 -0.15418710762E-01  0.43609013096E+02  0.74439400138E+03  0.74567095662E+03  0.10000000000E+01 0.  0.
    9000005    1    3    3    0    0  0.15418710762E-01 -0.43609013096E+02  0.11936055231E+03  0.12708142158E+03  0.10000000000E+01 0.  0.
<mgrwt>
<rscale>  0 0.12499914E+03</rscale>
<asrwt>0</asrwt>
<pdfrwt beam="2">  1        4 0.69214060E-03 0.12499914E+03</pdfrwt>
<pdfrwt beam="1">  1       -4 0.13357741E+00 0.12499914E+03</pdfrwt>
<totfact> 0.35214610E+03</totfact>
</mgrwt>
</event>
<event>
 5    1  0.3217852E-002  0.1250007E+03  0.7818608E-02  0.1235068E+00
         -4   -1    0    0    0  501 -0.00000000000E+00  0.00000000000E+00  0.14837068665E+02  0.14891323198E+02  0.12700000000E+01 0. -1.
          4   -1    0    0  501    0  0.00000000000E+00 -0.00000000000E+00 -0.26274297153E+03  0.26274604086E+03  0.12700000000E+01 0. -1.
         25    2    1    2    0    0  0.00000000000E+00  0.00000000000E+00 -0.24790590286E+03  0.27763736406E+03  0.12500067698E+03 0.  0.
    9000005    1    3    3    0    0 -0.28050519828E+01  0.37700251821E+02 -0.23447551596E+03  0.23750567338E+03  0.10000000000E+01 0.  0.
    9000005    1    3    3    0    0  0.28050519828E+01 -0.37700251821E+02 -0.13430386902E+02  0.40131690674E+02  0.10000000000E+01 0.  0.
<mgrwt>
<rscale>  0 0.12500068E+03</rscale>
<asrwt>0</asrwt>
<pdfrwt beam="2">  1        4 0.40426402E-01 0.12500068E+03</pdfrwt>
<pdfrwt beam="1">  1       -4 0.22870357E-02 0.12500068E+03</pdfrwt>
<totfact> 0.78491240E+03</totfact>
</mgrwt>
</event>
<event>
 5    1  0.3217852E-002  0.1249986E+03  0.7818608E-02  0.1235071E+00
         -4   -1    0    0    0  501 -0.00000000000E+00  0.00000000000E+00  0.53541205981E+02  0.53556266094E+02  0.12700000000E+01 0. -1.
          4   -1    0    0  501    0  0.00000000000E+00 -0.00000000000E+00 -0.72925361669E+02  0.72936419397E+02  0.12700000000E+01 0. -1.
         25    2    1    2    0    0  0.00000000000E+00  0.00000000000E+00 -0.19384155688E+02  0.12649268549E+03  0.12499861596E+03 0.  0.
    9000005    1    3    3    0    0 -0.19603112676E+02  0.42986451076E+02  0.31699712712E+02  0.56903328450E+02  0.10000000000E+01 0.  0.
    9000005    1    3    3    0    0  0.19603112676E+02 -0.42986451076E+02 -0.51083868400E+02  0.69589357041E+02  0.10000000000E+01 0.  0.
<mgrwt>
<rscale>  0 0.12499862E+03</rscale>
<asrwt>0</asrwt>
<pdfrwt beam="2">  1        4 0.11221296E-01 0.12499862E+03</pdfrwt>
<pdfrwt beam="1">  1       -4 0.82391176E-02 0.12499862E+03</pdfrwt>
<totfact> 0.10420513E+04</totfact>
</mgrwt>
</event>
<event>
 5    1  0.3217852E-002  0.1250036E+03  0.7818608E-02  0.1235064E+00
         -4   -1    0    0    0  501 -0.00000000000E+00  0.00000000000E+00  0.27778369020E+02  0.27807385448E+02  0.12700000000E+01 0. -1.
          4   -1    0    0  501    0  0.00000000000E+00 -0.00000000000E+00 -0.14052486900E+03  0.14053060773E+03  0.12700000000E+01 0. -1.
         25    2    1    2    0    0  0.00000000000E+00  0.00000000000E+00 -0.11274649998E+03  0.16833799317E+03  0.12500362670E+03 0.  0.
    9000005    1    3    3    0    0 -0.37780204613E+02 -0.19100058795E+02 -0.11828060111E+03  0.12563222797E+03  0.10000000000E+01 0.  0.
    9000005    1    3    3    0    0  0.37780204613E+02  0.19100058795E+02  0.55341011237E+01  0.42705765206E+02  0.10000000000E+01 0.  0.
<mgrwt>
<rscale>  0 0.12500363E+03</rscale>
<asrwt>0</asrwt>
<pdfrwt beam="2">  1        4 0.21621884E-01 0.12500363E+03</pdfrwt>
<pdfrwt beam="1">  1       -4 0.42762688E-02 0.12500363E+03</pdfrwt>
<totfact> 0.95751139E+03</totfact>
</mgrwt>
</event>
<event>
 5    1  0.3217852E-002  0.1249986E+03  0.7818608E-02  0.1235071E+00
         -4   -1    0    0    0  501 -0.00000000000E+00  0.00000000000E+00  0.35729743806E+02  0.35752307512E+02  0.12700000000E+01 0.  1.
          4   -1    0    0  501    0  0.00000000000E+00 -0.00000000000E+00 -0.10926446039E+03  0.10927184086E+03  0.12700000000E+01 0.  1.
         25    2    1    2    0    0  0.00000000000E+00  0.00000000000E+00 -0.73534716585E+02  0.14502414837E+03  0.12499859626E+03 0.  0.
    9000005    1    3    3    0    0  0.54083789360E+02  0.31196464587E+02 -0.39812008333E+02  0.74055868652E+02  0.10000000000E+01 0.  0.
    9000005    1    3    3    0    0 -0.54083789360E+02 -0.31196464587E+02 -0.33722708252E+02  0.70968279718E+02  0.10000000000E+01 0.  0.
<mgrwt>
<rscale>  0 0.12499860E+03</rscale>
<asrwt>0</asrwt>
<pdfrwt beam="2">  1        4 0.16812220E-01 0.12499860E+03</pdfrwt>
<pdfrwt beam="1">  1       -4 0.54991871E-02 0.12499860E+03</pdfrwt>
<totfact> 0.10030815E+04</totfact>
</mgrwt>
</event>
<event>
 5    1  0.3217852E-002  0.1249988E+03  0.7818608E-02  0.1235071E+00
          4   -1    0    0  501    0  0.00000000000E+00  0.00000000000E+00  0.80083489934E+03  0.80083590635E+03  0.12700000000E+01 0. -1.
         -4   -1    0    0    0  501 -0.00000000000E+00 -0.00000000000E+00 -0.47939313256E+01  0.49593021237E+01  0.12700000000E+01 0. -1.
         25    2    1    2    0    0  0.00000000000E+00  0.00000000000E+00  0.79604096801E+03  0.80579520847E+03  0.12499878097E+03 0.  0.
    9000005    1    3    3    0    0  0.30697272601E+02 -0.43382546030E+02  0.18609032228E+03  0.19353288065E+03  0.10000000000E+01 0.  0.
    9000005    1    3    3    0    0 -0.30697272601E+02  0.43382546030E+02  0.60995064573E+03  0.61226232782E+03  0.10000000000E+01 0.  0.
<mgrwt>
<rscale>  0 0.12499878E+03</rscale>
<asrwt>0</asrwt>
<pdfrwt beam="1">  1        4 0.12321817E+00 0.12499878E+03</pdfrwt>
<pdfrwt beam="2">  1       -4 0.75032616E-03 0.12499878E+03</pdfrwt>
<totfact> 0.38008327E+03</totfact>
</mgrwt>
</event>
<event>
 5    1  0.3217852E-002  0.1250012E+03  0.7818608E-02  0.1235067E+00
         -4   -1    0    0    0  501 -0.00000000000E+00  0.00000000000E+00  0.23370603152E+02  0.23405084740E+02  0.12700000000E+01 0. -1.
          4   -1    0    0  501    0  0.00000000000E+00 -0.00000000000E+00 -0.16698673457E+03  0.16699156393E+03  0.12700000000E+01 0. -1.
         25    2    1    2    0    0  0.00000000000E+00  0.00000000000E+00 -0.14361613142E+03  0.19039664867E+03  0.12500116247E+03 0.  0.
    9000005    1    3    3    0    0  0.59321155547E+02 -0.18017794044E+02 -0.59845471320E+02  0.86174943198E+02  0.10000000000E+01 0.  0.
    9000005    1    3    3    0    0 -0.59321155547E+02  0.18017794044E+02 -0.83770660100E+02  0.10422170547E+03  0.10000000000E+01 0.  0.
<mgrwt>
<rscale>  0 0.12500116E+03</rscale>
<asrwt>0</asrwt>
<pdfrwt beam="2">  1        4 0.25693290E-01 0.12500116E+03</pdfrwt>
<pdfrwt beam="1">  1       -4 0.35985014E-02 0.12500116E+03</pdfrwt>
<totfact> 0.91775955E+03</totfact>
</mgrwt>
</event>
<event>
 5    1  0.3217852E-002  0.1249979E+03  0.7818608E-02  0.1235072E+00
         -4   -1    0    0    0  501 -0.00000000000E+00  0.00000000000E+00  0.78651198209E+02  0.78661451040E+02  0.12700000000E+01 0.  1.
          4   -1    0    0  501    0  0.00000000000E+00 -0.00000000000E+00 -0.49642245676E+02  0.49658488255E+02  0.12700000000E+01 0.  1.
         25    2    1    2    0    0  0.00000000000E+00  0.00000000000E+00  0.29008952534E+02  0.12831993930E+03  0.12499794996E+03 0.  0.
    9000005    1    3    3    0    0 -0.26421560345E+02  0.41722044371E+02  0.53814362701E+02  0.73046652699E+02  0.10000000000E+01 0.  0.
    9000005    1    3    3    0    0  0.26421560345E+02 -0.41722044371E+02 -0.24805410167E+02  0.55273286596E+02  0.10000000000E+01 0.  0.
<mgrwt>
<rscale>  0 0.12499795E+03</rscale>
<asrwt>0</asrwt>
<pdfrwt beam="2">  1        4 0.76393067E-02 0.12499795E+03</pdfrwt>
<pdfrwt beam="1">  1       -4 0.12102222E-01 0.12499795E+03</pdfrwt>
<totfact> 0.10381064E+04</totfact>
</mgrwt>
</event>
<event>
 5    1  0.3217852E-002  0.1250045E+03  0.7818608E-02  0.1235062E+00
         -4   -1    0    0    0  501 -0.00000000000E+00  0.00000000000E+00  0.23372975193E+02  0.23407453287E+02  0.12700000000E+01 0. -1.
          4   -1    0    0  501    0  0.00000000000E+00 -0.00000000000E+00 -0.16697883273E+03  0.16698366231E+03  0.12700000000E+01 0. -1.
         25    2    1    2    0    0  0.00000000000E+00  0.00000000000E+00 -0.14360585753E+03  0.19039111560E+03  0.12500453824E+03 0.  0.
    9000005    1    3    3    0    0 -0.20159012453E+02  0.31138246629E+02 -0.14840546923E+03  0.15297437525E+03  0.10000000000E+01 0.  0.
    9000005    1    3    3    0    0  0.20159012453E+02 -0.31138246629E+02  0.47996116912E+01  0.37416740352E+02  0.10000000000E+01 0.  0.
<mgrwt>
<rscale>  0 0.12500454E+03</rscale>
<asrwt>0</asrwt>
<pdfrwt beam="2">  1        4 0.25692074E-01 0.12500454E+03</pdfrwt>
<pdfrwt beam="1">  1       -4 0.35988661E-02 0.12500454E+03</pdfrwt>
<totfact> 0.91769978E+03</totfact>
</mgrwt>
</event>
<event>
 4    1  0.3217852E-002  0.1251109E+03  0.7818608E-02  0.1234896E+00
          4   -1    0    0  501    0  0.00000000000E+00  0.00000000000E+00  0.21241226016E+02  0.21279158411E+02  0.12700000000E+01 0. -1.
         -4   -1    0    0    0  501 -0.00000000000E+00 -0.00000000000E+00 -0.18402136649E+03  0.18402574881E+03  0.12700000000E+01 0. -1.
    9000005    1    1    2    0    0 -0.60527291993E+02  0.17164444550E+01 -0.55668811652E+02  0.82258834470E+02  0.10000000000E+01 0.  0.
    9000005    1    1    2    0    0  0.60527291993E+02 -0.17164444550E+01 -0.10711132883E+03  0.12304607276E+03  0.10000000000E+01 0.  0.
<mgrwt>
<rscale>  0 0.12511087E+03</rscale>
<asrwt>0</asrwt>
<pdfrwt beam="1">  1        4 0.32711360E-02 0.12511087E+03</pdfrwt>
<pdfrwt beam="2">  1       -4 0.28314233E-01 0.12511087E+03</pdfrwt>
<totfact> 0.89027478E+03</totfact>
</mgrwt>
</event>
<event>
 5    1  0.3217852E-002  0.1250008E+03  0.7818608E-02  0.1235068E+00
          4   -1    0    0  501    0  0.00000000000E+00  0.00000000000E+00  0.55466895308E+02  0.55481432706E+02  0.12700000000E+01 0.  1.
         -4   -1    0    0    0  501 -0.00000000000E+00 -0.00000000000E+00 -0.70396353456E+02  0.70407808373E+02  0.12700000000E+01 0.  1.
         25    2    1    2    0    0  0.00000000000E+00  0.00000000000E+00 -0.14929458148E+02  0.12588924108E+03  0.12500084919E+03 0.  0.
    9000005    1    3    3    0    0 -0.12897683015E+02 -0.17606071577E+02 -0.66438387561E+02  0.69938425241E+02  0.10000000000E+01 0.  0.
    9000005    1    3    3    0    0  0.12897683015E+02  0.17606071577E+02  0.51508929413E+02  0.55950815837E+02  0.10000000000E+01 0.  0.
<mgrwt>
<rscale>  0 0.12500085E+03</rscale>
<asrwt>0</asrwt>
<pdfrwt beam="1">  1        4 0.85353679E-02 0.12500085E+03</pdfrwt>
<pdfrwt beam="2">  1       -4 0.10832208E-01 0.12500085E+03</pdfrwt>
<totfact> 0.10433186E+04</totfact>
</mgrwt>
</event>
<event>
 5    1  0.3217852E-002  0.1249935E+03  0.7818608E-02  0.1235079E+00
         -4   -1    0    0    0  501 -0.00000000000E+00  0.00000000000E+00  0.59250109758E+02  0.59263719141E+02  0.12700000000E+01 0. -1.
          4   -1    0    0  501    0  0.00000000000E+00 -0.00000000000E+00 -0.65894001927E+02  0.65906239385E+02  0.12700000000E+01 0. -1.
         25    2    1    2    0    0  0.00000000000E+00  0.00000000000E+00 -0.66438921683E+01  0.12516995853E+03  0.12499350869E+03 0.  0.
    9000005    1    3    3    0    0  0.45987376709E+02 -0.15043285560E+01 -0.45663337857E+02  0.64832416623E+02  0.10000000000E+01 0.  0.
    9000005    1    3    3    0    0 -0.45987376709E+02  0.15043285560E+01  0.39019445689E+02  0.60337541903E+02  0.10000000000E+01 0.  0.
<mgrwt>
<rscale>  0 0.12499351E+03</rscale>
<asrwt>0</asrwt>
<pdfrwt beam="2">  1        4 0.10139527E-01 0.12499351E+03</pdfrwt>
<pdfrwt beam="1">  1       -4 0.91173897E-02 0.12499351E+03</pdfrwt>
<totfact> 0.10450705E+04</totfact>
</mgrwt>
</event>
<event>
 5    1  0.3217852E-002  0.1249992E+03  0.7818608E-02  0.1235071E+00
          4   -1    0    0  501    0  0.00000000000E+00  0.00000000000E+00  0.46079094146E+03  0.46079269160E+03  0.12700000000E+01 0.  1.
         -4   -1    0    0    0  501 -0.00000000000E+00 -0.00000000000E+00 -0.84278154652E+01  0.85229674126E+01  0.12700000000E+01 0.  1.
         25    2    1    2    0    0  0.00000000000E+00  0.00000000000E+00  0.45236312600E+03  0.46931565901E+03  0.12499916013E+03 0.  0.
    9000005    1    3    3    0    0 -0.20123070999E+02  0.47751617145E+02  0.95038463329E+02  0.10825185651E+03  0.10000000000E+01 0.  0.
    9000005    1    3    3    0    0  0.20123070999E+02 -0.47751617145E+02  0.35732466267E+03  0.36106380250E+03  0.10000000000E+01 0.  0.
<mgrwt>
<rscale>  0 0.12499916E+03</rscale>
<asrwt>0</asrwt>
<pdfrwt beam="1">  1        4 0.70898357E-01 0.12499916E+03</pdfrwt>
<pdfrwt beam="2">  1       -4 0.13040412E-02 0.12499916E+03</pdfrwt>
<totfact> 0.58327336E+03</totfact>
</mgrwt>
</event>
<event>
 5    1  0.3217852E-002  0.1250090E+03  0.7818608E-02  0.1235055E+00
         -4   -1    0    0    0  501 -0.00000000000E+00  0.00000000000E+00  0.53904436629E+01  0.55380305960E+01  0.12700000000E+01 0. -1.
          4   -1    0    0  501    0  0.00000000000E+00 -0.00000000000E+00 -0.71482990620E+03  0.71483103437E+03  0.12700000000E+01 0. -1.
         25    2    1    2    0    0  0.00000000000E+00  0.00000000000E+00 -0.70943946254E+03  0.72036906497E+03  0.12500895470E+03 0.  0.
    9000005    1    3    3    0    0 -0.14248155496E+02  0.56858427660E+02 -0.22980161871E+03  0.23716170579E+03  0.10000000000E+01 0.  0.
    9000005    1    3    3    0    0  0.14248155496E+02 -0.56858427660E+02 -0.47963784383E+03  0.48320735918E+03  0.10000000000E+01 0.  0.
<mgrwt>
<rscale>  0 0.12500895E+03</rscale>
<asrwt>0</asrwt>
<pdfrwt beam="2">  1        4 0.10998520E+00 0.12500895E+03</pdfrwt>
<pdfrwt beam="1">  1       -4 0.84073922E-03 0.12500895E+03</pdfrwt>
<totfact> 0.42024801E+03</totfact>
</mgrwt>
</event>
<event>
 5    1  0.3217852E-002  0.1249998E+03  0.7818608E-02  0.1235070E+00
         -4   -1    0    0    0  501 -0.00000000000E+00  0.00000000000E+00  0.63703358436E+01  0.64956969419E+01  0.12700000000E+01 0.  1.
          4   -1    0    0  501    0  0.00000000000E+00 -0.00000000000E+00 -0.60709130009E+03  0.60709262848E+03  0.12700000000E+01 0.  1.
         25    2    1    2    0    0  0.00000000000E+00  0.00000000000E+00 -0.60072096425E+03  0.61358832542E+03  0.12499982480E+03 0.  0.
    9000005    1    3    3    0    0  0.43958714365E+02  0.44406339279E+02 -0.30513863759E+03  0.31147211703E+03  0.10000000000E+01 0.  0.
    9000005    1    3    3    0    0 -0.43958714365E+02 -0.44406339279E+02 -0.29558232666E+03  0.30211620839E+03  0.10000000000E+01 0.  0.
<mgrwt>
<rscale>  0 0.12499982E+03</rscale>
<asrwt>0</asrwt>
<pdfrwt beam="2">  1        4 0.93408362E-01 0.12499982E+03</pdfrwt>
<pdfrwt beam="1">  1       -4 0.98979749E-03 0.12499982E+03</pdfrwt>
<totfact> 0.48021160E+03</totfact>
</mgrwt>
</event>
<event>
 5    1  0.3217852E-002  0.1249979E+03  0.7818608E-02  0.1235073E+00
          4   -1    0    0  501    0  0.00000000000E+00  0.00000000000E+00  0.41076489770E+02  0.41096117965E+02  0.12700000000E+01 0.  1.
         -4   -1    0    0    0  501 -0.00000000000E+00 -0.00000000000E+00 -0.95047256513E+02  0.95055740861E+02  0.12700000000E+01 0.  1.
         25    2    1    2    0    0  0.00000000000E+00  0.00000000000E+00 -0.53970766743E+02  0.13615185883E+03  0.12499793998E+03 0.  0.
    9000005    1    3    3    0    0 -0.61623667943E+02  0.74394580505E+01 -0.34862522270E+02  0.71198437102E+02  0.10000000000E+01 0.  0.
    9000005    1    3    3    0    0  0.61623667943E+02 -0.74394580505E+01 -0.19108244472E+02  0.64953421724E+02  0.10000000000E+01 0.  0.
<mgrwt>
<rscale>  0 0.12499794E+03</rscale>
<asrwt>0</asrwt>
<pdfrwt beam="1">  1        4 0.63216225E-02 0.12499794E+03</pdfrwt>
<pdfrwt beam="2">  1       -4 0.14624817E-01 0.12499794E+03</pdfrwt>
<totfact> 0.10214324E+04</totfact>
</mgrwt>
</event>
<event>
 4    1  0.3217852E-002  0.1251578E+03  0.7818608E-02  0.1234823E+00
          4   -1    0    0  501    0  0.00000000000E+00  0.00000000000E+00  0.17173294780E+01  0.21359121087E+01  0.12700000000E+01 0. -1.
         -4   -1    0    0    0  501 -0.00000000000E+00 -0.00000000000E+00 -0.20322167437E+04  0.20322171405E+04  0.12700000000E+01 0. -1.
    9000005    1    1    2    0    0 -0.37016898357E+02  0.39793323205E+02 -0.15192272112E+04  0.15201993549E+04  0.10000000000E+01 0.  0.
    9000005    1    1    2    0    0  0.37016898357E+02 -0.39793323205E+02 -0.51127220302E+03  0.51415369775E+03  0.10000000000E+01 0.  0.
<mgrwt>
<rscale>  0 0.12515779E+03</rscale>
<asrwt>0</asrwt>
<pdfrwt beam="1">  1        4 0.29643535E-03 0.12515779E+03</pdfrwt>
<pdfrwt beam="2">  1       -4 0.31267924E+00 0.12515779E+03</pdfrwt>
<totfact> 0.93869395E+02</totfact>
</mgrwt>
</event>
<event>
 5    1  0.3217852E-002  0.1250019E+03  0.7818608E-02  0.1235066E+00
          4   -1    0    0  501    0  0.00000000000E+00  0.00000000000E+00  0.21654024170E+02  0.21691234699E+02  0.12700000000E+01 0. -1.
         -4   -1    0    0    0  501 -0.00000000000E+00 -0.00000000000E+00 -0.18020494823E+03  0.18020942336E+03  0.12700000000E+01 0. -1.
         25    2    1    2    0    0  0.00000000000E+00  0.00000000000E+00 -0.15855092406E+03  0.20190065806E+03  0.12500192080E+03 0.  0.
    9000005    1    3    3    0    0  0.12365497516E+02  0.45992463357E+02 -0.14462858168E+03  0.15227159569E+03  0.10000000000E+01 0.  0.
    9000005    1    3    3    0    0 -0.12365497516E+02 -0.45992463357E+02 -0.13922342385E+02  0.49629062372E+02  0.10000000000E+01 0.  0.
<mgrwt>
<rscale>  0 0.12500192E+03</rscale>
<asrwt>0</asrwt>
<pdfrwt beam="1">  1        4 0.33345950E-02 0.12500192E+03</pdfrwt>
<pdfrwt beam="2">  1       -4 0.27727044E-01 0.12500192E+03</pdfrwt>
<totfact> 0.89812073E+03</totfact>
</mgrwt>
</event>
<event>
 5    1  0.3217852E-002  0.1250000E+03  0.7818608E-02  0.1235069E+00
          4   -1    0    0  501    0  0.00000000000E+00  0.00000000000E+00  0.63101077509E+02  0.63113856504E+02  0.12700000000E+01 0.  1.
         -4   -1    0    0    0  501 -0.00000000000E+00 -0.00000000000E+00 -0.61879089443E+02  0.61892120745E+02  0.12700000000E+01 0.  1.
         25    2    1    2    0    0  0.00000000000E+00  0.00000000000E+00  0.12219880664E+01  0.12500597725E+03  0.12500000437E+03 0.  0.
    9000005    1    3    3    0    0  0.31435590446E+02  0.53520259841E+02  0.78663881256E+01  0.62573913273E+02  0.10000000000E+01 0.  0.
    9000005    1    3    3    0    0 -0.31435590446E+02 -0.53520259841E+02 -0.66444000592E+01  0.62432063976E+02  0.10000000000E+01 0.  0.
<mgrwt>
<rscale>  0 0.12500000E+03</rscale>
<asrwt>0</asrwt>
<pdfrwt beam="1">  1        4 0.97098435E-02 0.12500000E+03</pdfrwt>
<pdfrwt beam="2">  1       -4 0.95218453E-02 0.12500000E+03</pdfrwt>
<totfact> 0.10452732E+04</totfact>
</mgrwt>
</event>
<event>
 5    1  0.3217852E-002  0.1250262E+03  0.7818608E-02  0.1235028E+00
         -4   -1    0    0    0  501 -0.00000000000E+00  0.00000000000E+00  0.32817220165E+02  0.32841784960E+02  0.12700000000E+01 0.  1.
          4   -1    0    0  501    0  0.00000000000E+00 -0.00000000000E+00 -0.11900784717E+03  0.11901462342E+03  0.12700000000E+01 0.  1.
         25    2    1    2    0    0  0.00000000000E+00  0.00000000000E+00 -0.86190627007E+02  0.15185640838E+03  0.12502617559E+03 0.  0.
    9000005    1    3    3    0    0 -0.31081656719E+02 -0.27012725545E+02  0.14018250087E+02  0.43511700280E+02  0.10000000000E+01 0.  0.
    9000005    1    3    3    0    0  0.31081656719E+02  0.27012725545E+02 -0.10020887709E+03  0.10834470810E+03  0.10000000000E+01 0.  0.
<mgrwt>
<rscale>  0 0.12502618E+03</rscale>
<asrwt>0</asrwt>
<pdfrwt beam="2">  1        4 0.18311310E-01 0.12502618E+03</pdfrwt>
<pdfrwt beam="1">  1       -4 0.50512140E-02 0.12502618E+03</pdfrwt>
<totfact> 0.98876683E+03</totfact>
</mgrwt>
</event>
<event>
 5    1  0.3217852E-002  0.1249998E+03  0.7818608E-02  0.1235070E+00
         -4   -1    0    0    0  501 -0.00000000000E+00  0.00000000000E+00  0.79560576728E+03  0.79560678091E+03  0.12700000000E+01 0. -1.
          4   -1    0    0  501    0  0.00000000000E+00 -0.00000000000E+00 -0.48266029684E+01  0.49908913247E+01  0.12700000000E+01 0. -1.
         25    2    1    2    0    0  0.00000000000E+00  0.00000000000E+00  0.79077916432E+03  0.80059767224E+03  0.12499978431E+03 0.  0.
    9000005    1    3    3    0    0  0.33228976489E+02 -0.30500904439E+02  0.67241195699E+03  0.67392381614E+03  0.10000000000E+01 0.  0.
    9000005    1    3    3    0    0 -0.33228976489E+02  0.30500904439E+02  0.11836720732E+03  0.12667385610E+03  0.10000000000E+01 0.  0.
<mgrwt>
<rscale>  0 0.12499978E+03</rscale>
<asrwt>0</asrwt>
<pdfrwt beam="2">  1        4 0.75526991E-03 0.12499978E+03</pdfrwt>
<pdfrwt beam="1">  1       -4 0.12241359E+00 0.12499978E+03</pdfrwt>
<totfact> 0.38238239E+03</totfact>
</mgrwt>
</event>
<event>
 5    1  0.3217852E-002  0.1250010E+03  0.7818608E-02  0.1235068E+00
         -4   -1    0    0    0  501 -0.00000000000E+00  0.00000000000E+00  0.53436019099E+02  0.53451108849E+02  0.12700000000E+01 0.  1.
          4   -1    0    0  501    0  0.00000000000E+00 -0.00000000000E+00 -0.73071733269E+02  0.73082768851E+02  0.12700000000E+01 0.  1.
         25    2    1    2    0    0  0.00000000000E+00  0.00000000000E+00 -0.19635714170E+02  0.12653387770E+03  0.12500104373E+03 0.  0.
    9000005    1    3    3    0    0 -0.13670024995E+02  0.40154947377E+02  0.36636347374E+02  0.56058106739E+02  0.10000000000E+01 0.  0.
    9000005    1    3    3    0    0  0.13670024995E+02 -0.40154947377E+02 -0.56272061544E+02  0.70475770961E+02  0.10000000000E+01 0.  0.
<mgrwt>
<rscale>  0 0.12500104E+03</rscale>
<asrwt>0</asrwt>
<pdfrwt beam="2">  1        4 0.11243815E-01 0.12500104E+03</pdfrwt>
<pdfrwt beam="1">  1       -4 0.82229356E-02 0.12500104E+03</pdfrwt>
<totfact> 0.10419044E+04</totfact>
</mgrwt>
</event>
<event>
 5    1  0.3217852E-002  0.1250048E+03  0.7818608E-02  0.1235062E+00
          4   -1    0    0  501    0  0.00000000000E+00  0.00000000000E+00  0.69691818076E+01  0.70839533502E+01  0.12700000000E+01 0.  1.
         -4   -1    0    0    0  501 -0.00000000000E+00 -0.00000000000E+00 -0.55585314231E+03  0.55585459314E+03  0.12700000000E+01 0.  1.
         25    2    1    2    0    0  0.00000000000E+00  0.00000000000E+00 -0.54888396050E+03  0.56293854649E+03  0.12500482002E+03 0.  0.
    9000005    1    3    3    0    0  0.98593977858E+01  0.57363713518E+02 -0.17197276672E+03  0.18155835383E+03  0.10000000000E+01 0.  0.
    9000005    1    3    3    0    0 -0.98593977858E+01 -0.57363713518E+02 -0.37691119378E+03  0.38138019266E+03  0.10000000000E+01 0.  0.
<mgrwt>
<rscale>  0 0.12500482E+03</rscale>
<asrwt>0</asrwt>
<pdfrwt beam="1">  1        4 0.10811224E-02 0.12500482E+03</pdfrwt>
<pdfrwt beam="2">  1       -4 0.85524773E-01 0.12500482E+03</pdfrwt>
<totfact> 0.51288433E+03</totfact>
</mgrwt>
</event>
<event>
 5    1  0.3217852E-002  0.1250006E+03  0.7818608E-02  0.1235068E+00
          4   -1    0    0  501    0  0.00000000000E+00  0.00000000000E+00  0.26381241582E+02  0.26411792961E+02  0.12700000000E+01 0.  1.
         -4   -1    0    0    0  501 -0.00000000000E+00 -0.00000000000E+00 -0.14795160952E+03  0.14795706019E+03  0.12700000000E+01 0.  1.
         25    2    1    2    0    0  0.00000000000E+00  0.00000000000E+00 -0.12157036794E+03  0.17436885315E+03  0.12500057035E+03 0.  0.
    9000005    1    3    3    0    0 -0.35382379935E+02 -0.31792843660E+02 -0.42496849311E+01  0.47767745811E+02  0.10000000000E+01 0.  0.
    9000005    1    3    3    0    0  0.35382379935E+02  0.31792843660E+02 -0.11732068301E+03  0.12660110734E+03  0.10000000000E+01 0.  0.
<mgrwt>
<rscale>  0 0.12500057E+03</rscale>
<asrwt>0</asrwt>
<pdfrwt beam="1">  1        4 0.40614220E-02 0.12500057E+03</pdfrwt>
<pdfrwt beam="2">  1       -4 0.22764555E-01 0.12500057E+03</pdfrwt>
<totfact> 0.94639350E+03</totfact>
</mgrwt>
</event>
<event>
 5    1  0.3217852E-002  0.1249996E+03  0.7818608E-02  0.1235070E+00
         -4   -1    0    0    0  501 -0.00000000000E+00  0.00000000000E+00  0.42087563276E+02  0.42106720158E+02  0.12700000000E+01 0. -1.
          4   -1    0    0  501    0  0.00000000000E+00 -0.00000000000E+00 -0.92767186554E+02  0.92775879414E+02  0.12700000000E+01 0. -1.
         25    2    1    2    0    0  0.00000000000E+00  0.00000000000E+00 -0.50679623278E+02  0.13488259957E+03  0.12499956581E+03 0.  0.
    9000005    1    3    3    0    0  0.98723113256E+00  0.41630925378E+02 -0.75619058751E+02  0.86332789945E+02  0.10000000000E+01 0.  0.
    9000005    1    3    3    0    0 -0.98723113256E+00 -0.41630925378E+02  0.24939435473E+02  0.48549809628E+02  0.10000000000E+01 0.  0.
<mgrwt>
<rscale>  0 0.12499957E+03</rscale>
<asrwt>0</asrwt>
<pdfrwt beam="2">  1        4 0.14274017E-01 0.12499957E+03</pdfrwt>
<pdfrwt beam="1">  1       -4 0.64771520E-02 0.12499957E+03</pdfrwt>
<totfact> 0.10240646E+04</totfact>
</mgrwt>
</event>
<event>
 5    1  0.3217852E-002  0.1249999E+03  0.7818608E-02  0.1235069E+00
          4   -1    0    0  501    0  0.00000000000E+00  0.00000000000E+00  0.25915615912E+02  0.25946715555E+02  0.12700000000E+01 0.  1.
         -4   -1    0    0    0  501 -0.00000000000E+00 -0.00000000000E+00 -0.15060513568E+03  0.15061049031E+03  0.12700000000E+01 0.  1.
         25    2    1    2    0    0  0.00000000000E+00  0.00000000000E+00 -0.12468951977E+03  0.17655720587E+03  0.12499988242E+03 0.  0.
    9000005    1    3    3    0    0 -0.45807305863E+00  0.28807625532E+02  0.15981834587E+02  0.32962223173E+02  0.10000000000E+01 0.  0.
    9000005    1    3    3    0    0  0.45807305863E+00 -0.28807625532E+02 -0.14067135435E+03  0.14359498270E+03  0.10000000000E+01 0.  0.
<mgrwt>
<rscale>  0 0.12499988E+03</rscale>
<asrwt>0</asrwt>
<pdfrwt beam="1">  1        4 0.39898221E-02 0.12499988E+03</pdfrwt>
<pdfrwt beam="2">  1       -4 0.23172825E-01 0.12499988E+03</pdfrwt>
<totfact> 0.94240662E+03</totfact>
</mgrwt>
</event>
<event>
 5    1  0.3217852E-002  0.1250051E+03  0.7818608E-02  0.1235061E+00
         -4   -1    0    0    0  501 -0.00000000000E+00  0.00000000000E+00  0.17626117614E+03  0.17626575139E+03  0.12700000000E+01 0. -1.
          4   -1    0    0  501    0  0.00000000000E+00 -0.00000000000E+00 -0.22140473525E+02  0.22176867856E+02  0.12700000000E+01 0. -1.
         25    2    1    2    0    0  0.00000000000E+00  0.00000000000E+00  0.15412070261E+03  0.19844261925E+03  0.12500512853E+03 0.  0.
    9000005    1    3    3    0    0  0.39850993826E+02  0.97398756205E+01  0.15190110141E+03  0.15734646960E+03  0.10000000000E+01 0.  0.
    9000005    1    3    3    0    0 -0.39850993826E+02 -0.97398756205E+01  0.22196011989E+01  0.41096149643E+02  0.10000000000E+01 0.  0.
<mgrwt>
<rscale>  0 0.12500513E+03</rscale>
<asrwt>0</asrwt>
<pdfrwt beam="2">  1        4 0.34093781E-02 0.12500513E+03</pdfrwt>
<pdfrwt beam="1">  1       -4 0.27120257E-01 0.12500513E+03</pdfrwt>
<totfact> 0.90388346E+03</totfact>
</mgrwt>
</event>
<event>
 5    1  0.3217852E-002  0.1249978E+03  0.7818608E-02  0.1235073E+00
          4   -1    0    0  501    0  0.00000000000E+00  0.00000000000E+00  0.17708529853E+02  0.17754011646E+02  0.12700000000E+01 0.  1.
         -4   -1    0    0    0  501 -0.00000000000E+00 -0.00000000000E+00 -0.22024776905E+03  0.22025143058E+03  0.12700000000E+01 0.  1.
         25    2    1    2    0    0  0.00000000000E+00  0.00000000000E+00 -0.20253923920E+03  0.23800544223E+03  0.12499778844E+03 0.  0.
    9000005    1    3    3    0    0 -0.43356342516E+02 -0.11165223448E+01 -0.15605341384E+02  0.46103641268E+02  0.10000000000E+01 0.  0.
    9000005    1    3    3    0    0  0.43356342516E+02  0.11165223448E+01 -0.18693389782E+03  0.19190180096E+03  0.10000000000E+01 0.  0.
<mgrwt>
<rscale>  0 0.12499779E+03</rscale>
<asrwt>0</asrwt>
<pdfrwt beam="1">  1        4 0.27281696E-02 0.12499779E+03</pdfrwt>
<pdfrwt beam="2">  1       -4 0.33888050E-01 0.12499779E+03</pdfrwt>
<totfact> 0.84099469E+03</totfact>
</mgrwt>
</event>
<event>
 5    1  0.3217852E-002  0.1249977E+03  0.7818608E-02  0.1235073E+00
         -4   -1    0    0    0  501 -0.00000000000E+00  0.00000000000E+00  0.37149214426E+02  0.37170916487E+02  0.12700000000E+01 0.  1.
          4   -1    0    0  501    0  0.00000000000E+00 -0.00000000000E+00 -0.10509020138E+03  0.10509787499E+03  0.12700000000E+01 0.  1.
         25    2    1    2    0    0  0.00000000000E+00  0.00000000000E+00 -0.67940986957E+02  0.14226879147E+03  0.12499772525E+03 0.  0.
    9000005    1    3    3    0    0 -0.21340850503E+02 -0.28868824430E+02 -0.92187323851E+02  0.98936058154E+02  0.10000000000E+01 0.  0.
    9000005    1    3    3    0    0  0.21340850503E+02  0.28868824430E+02  0.24246336894E+02  0.43332733319E+02  0.10000000000E+01 0.  0.
<mgrwt>
<rscale>  0 0.12499773E+03</rscale>
<asrwt>0</asrwt>
<pdfrwt beam="2">  1        4 0.16169983E-01 0.12499773E+03</pdfrwt>
<pdfrwt beam="1">  1       -4 0.57175234E-02 0.12499773E+03</pdfrwt>
<totfact> 0.10087295E+04</totfact>
</mgrwt>
</event>
<event>
 5    1  0.3217852E-002  0.1250001E+03  0.7818608E-02  0.1235069E+00
          4   -1    0    0  501    0  0.00000000000E+00  0.00000000000E+00  0.18363139693E+02  0.18407004085E+02  0.12700000000E+01 0.  1.
         -4   -1    0    0    0  501 -0.00000000000E+00 -0.00000000000E+00 -0.21242317610E+03  0.21242697250E+03  0.12700000000E+01 0.  1.
         25    2    1    2    0    0  0.00000000000E+00  0.00000000000E+00 -0.19406003641E+03  0.23083397658E+03  0.12500010806E+03 0.  0.
    9000005    1    3    3    0    0 -0.47055827481E+02  0.41031090068E+02 -0.91987728656E+02  0.11117798107E+03  0.10000000000E+01 0.  0.
    9000005    1    3    3    0    0  0.47055827481E+02 -0.41031090068E+02 -0.10207230775E+03  0.11965599551E+03  0.10000000000E+01 0.  0.
<mgrwt>
<rscale>  0 0.12500011E+03</rscale>
<asrwt>0</asrwt>
<pdfrwt beam="1">  1        4 0.28287648E-02 0.12500011E+03</pdfrwt>
<pdfrwt beam="2">  1       -4 0.32684153E-01 0.12500011E+03</pdfrwt>
<totfact> 0.85181499E+03</totfact>
</mgrwt>
</event>
<event>
 5    1  0.3217852E-002  0.1250026E+03  0.7818608E-02  0.1235065E+00
          4   -1    0    0  501    0  0.00000000000E+00  0.00000000000E+00  0.34625047610E+03  0.34625280519E+03  0.12700000000E+01 0. -1.
         -4   -1    0    0    0  501 -0.00000000000E+00 -0.00000000000E+00 -0.11243932645E+02  0.11315428464E+02  0.12700000000E+01 0. -1.
         25    2    1    2    0    0  0.00000000000E+00  0.00000000000E+00  0.33500654345E+03  0.35756823365E+03  0.12500263021E+03 0.  0.
    9000005    1    3    3    0    0 -0.27945915339E+02 -0.52807722531E+02  0.11508650901E+03  0.12967472498E+03  0.10000000000E+01 0.  0.
    9000005    1    3    3    0    0  0.27945915339E+02  0.52807722531E+02  0.21992003445E+03  0.22789350867E+03  0.10000000000E+01 0.  0.
<mgrwt>
<rscale>  0 0.12500263E+03</rscale>
<asrwt>0</asrwt>
<pdfrwt beam="1">  1        4 0.53274985E-01 0.12500263E+03</pdfrwt>
<pdfrwt beam="2">  1       -4 0.17355146E-02 0.12500263E+03</pdfrwt>
<totfact> 0.68895893E+03</totfact>
</mgrwt>
</event>
<event>
 5    1  0.3217852E-002  0.1250019E+03  0.7818608E-02  0.1235066E+00
         -4   -1    0    0    0  501 -0.00000000000E+00  0.00000000000E+00  0.14596703129E+03  0.14597255606E+03  0.12700000000E+01 0.  1.
          4   -1    0    0  501    0  0.00000000000E+00 -0.00000000000E+00 -0.26740876940E+02  0.26771017902E+02  0.12700000000E+01 0.  1.
         25    2    1    2    0    0  0.00000000000E+00  0.00000000000E+00  0.11922615435E+03  0.17274357396E+03  0.12500186585E+03 0.  0.
    9000005    1    3    3    0    0 -0.40450461046E+02  0.13952457211E+02  0.12255463582E+03  0.12981351864E+03  0.10000000000E+01 0.  0.
    9000005    1    3    3    0    0  0.40450461046E+02 -0.13952457211E+02 -0.33284814726E+01  0.42930055322E+02  0.10000000000E+01 0.  0.
<mgrwt>
<rscale>  0 0.12500187E+03</rscale>
<asrwt>0</asrwt>
<pdfrwt beam="2">  1        4 0.41167246E-02 0.12500187E+03</pdfrwt>
<pdfrwt beam="1">  1       -4 0.22459210E-01 0.12500187E+03</pdfrwt>
<totfact> 0.94935757E+03</totfact>
</mgrwt>
</event>
<event>
 5    1  0.3217852E-002  0.1250013E+03  0.7818608E-02  0.1235067E+00
          4   -1    0    0  501    0  0.00000000000E+00  0.00000000000E+00  0.11050034310E+02  0.11122776554E+02  0.12700000000E+01 0.  1.
         -4   -1    0    0    0  501 -0.00000000000E+00 -0.00000000000E+00 -0.35227920217E+03  0.35228149140E+03  0.12700000000E+01 0.  1.
         25    2    1    2    0    0  0.00000000000E+00  0.00000000000E+00 -0.34122916786E+03  0.36340426795E+03  0.12500126786E+03 0.  0.
    9000005    1    3    3    0    0  0.34539697181E+02  0.42894118720E+01 -0.32150773403E+03  0.32338771278E+03  0.10000000000E+01 0.  0.
    9000005    1    3    3    0    0 -0.34539697181E+02 -0.42894118720E+01 -0.19721433829E+02  0.40016555172E+02  0.10000000000E+01 0.  0.
<mgrwt>
<rscale>  0 0.12500127E+03</rscale>
<asrwt>0</asrwt>
<pdfrwt beam="1">  1        4 0.17057772E-02 0.12500127E+03</pdfrwt>
<pdfrwt beam="2">  1       -4 0.54202563E-01 0.12500127E+03</pdfrwt>
<totfact> 0.68272755E+03</totfact>
</mgrwt>
</event>
<event>
 5    1  0.3217852E-002  0.1250044E+03  0.7818608E-02  0.1235062E+00
          4   -1    0    0  501    0  0.00000000000E+00  0.00000000000E+00  0.17096628063E+02  0.17143733290E+02  0.12700000000E+01 0.  1.
         -4   -1    0    0    0  501 -0.00000000000E+00 -0.00000000000E+00 -0.22813368535E+03  0.22813722031E+03  0.12700000000E+01 0.  1.
         25    2    1    2    0    0  0.00000000000E+00  0.00000000000E+00 -0.21103705729E+03  0.24528095360E+03  0.12500442653E+03 0.  0.
    9000005    1    3    3    0    0  0.89776748377E+01 -0.42043051357E+01 -0.22659067351E+03  0.22680962975E+03  0.10000000000E+01 0.  0.
    9000005    1    3    3    0    0 -0.89776748377E+01  0.42043051357E+01  0.15553616222E+02  0.18471323849E+02  0.10000000000E+01 0.  0.
<mgrwt>
<rscale>  0 0.12500443E+03</rscale>
<asrwt>0</asrwt>
<pdfrwt beam="1">  1        4 0.26341460E-02 0.12500443E+03</pdfrwt>
<pdfrwt beam="2">  1       -4 0.35101383E-01 0.12500443E+03</pdfrwt>
<totfact> 0.83008909E+03</totfact>
</mgrwt>
</event>
<event>
 5    1  0.3217852E-002  0.1250003E+03  0.7818608E-02  0.1235069E+00
         -4   -1    0    0    0  501 -0.00000000000E+00  0.00000000000E+00  0.76023479413E+02  0.76034086580E+02  0.12700000000E+01 0. -1.
          4   -1    0    0  501    0  0.00000000000E+00 -0.00000000000E+00 -0.51360373216E+02  0.51376072611E+02  0.12700000000E+01 0. -1.
         25    2    1    2    0    0  0.00000000000E+00  0.00000000000E+00  0.24663106197E+02  0.12741015919E+03  0.12500031943E+03 0.  0.
    9000005    1    3    3    0    0  0.33139945972E+02 -0.46949946202E+02  0.37355134984E+02  0.68548957520E+02  0.10000000000E+01 0.  0.
    9000005    1    3    3    0    0 -0.33139945972E+02  0.46949946202E+02 -0.12692028788E+02  0.58861201671E+02  0.10000000000E+01 0.  0.
<mgrwt>
<rscale>  0 0.12500032E+03</rscale>
<asrwt>0</asrwt>
<pdfrwt beam="2">  1        4 0.79036195E-02 0.12500032E+03</pdfrwt>
<pdfrwt beam="1">  1       -4 0.11697943E-01 0.12500032E+03</pdfrwt>
<totfact> 0.10400172E+04</totfact>
</mgrwt>
</event>
<event>
 5    1  0.3217852E-002  0.1250036E+03  0.7818608E-02  0.1235064E+00
          4   -1    0    0  501    0  0.00000000000E+00  0.00000000000E+00  0.69243809994E+01  0.70398829695E+01  0.12700000000E+01 0.  1.
         -4   -1    0    0    0  501 -0.00000000000E+00 -0.00000000000E+00 -0.55937999966E+03  0.55938144134E+03  0.12700000000E+01 0.  1.
         25    2    1    2    0    0  0.00000000000E+00  0.00000000000E+00 -0.55245561866E+03  0.56642132431E+03  0.12500362414E+03 0.  0.
    9000005    1    3    3    0    0 -0.42514321346E+02  0.43696715123E+02 -0.21399852094E+03  0.22251570146E+03  0.10000000000E+01 0.  0.
    9000005    1    3    3    0    0  0.42514321346E+02 -0.43696715123E+02 -0.33845709772E+03  0.34390562285E+03  0.10000000000E+01 0.  0.
<mgrwt>
<rscale>  0 0.12500362E+03</rscale>
<asrwt>0</asrwt>
<pdfrwt beam="1">  1        4 0.10742855E-02 0.12500362E+03</pdfrwt>
<pdfrwt beam="2">  1       -4 0.86067422E-01 0.12500362E+03</pdfrwt>
<totfact> 0.51054148E+03</totfact>
</mgrwt>
</event>
<event>
 5    1  0.3217852E-002  0.1250003E+03  0.7818608E-02  0.1235069E+00
          4   -1    0    0  501    0  0.00000000000E+00  0.00000000000E+00  0.52953604211E+03  0.52953756504E+03  0.12700000000E+01 0.  1.
         -4   -1    0    0    0  501 -0.00000000000E+00 -0.00000000000E+00 -0.73205721795E+01  0.74299177004E+01  0.12700000000E+01 0.  1.
         25    2    1    2    0    0  0.00000000000E+00  0.00000000000E+00  0.52221546993E+03  0.53696748274E+03  0.12500032196E+03 0.  0.
    9000005    1    3    3    0    0 -0.59852512432E+01  0.20586838958E+02  0.89506883458E+01  0.23254160759E+02  0.10000000000E+01 0.  0.
    9000005    1    3    3    0    0  0.59852512432E+01 -0.20586838958E+02  0.51326478158E+03  0.51371332198E+03  0.10000000000E+01 0.  0.
<mgrwt>
<rscale>  0 0.12500032E+03</rscale>
<asrwt>0</asrwt>
<pdfrwt beam="1">  1        4 0.81475588E-01 0.12500032E+03</pdfrwt>
<pdfrwt beam="2">  1       -4 0.11347705E-02 0.12500032E+03</pdfrwt>
<totfact> 0.53105683E+03</totfact>
</mgrwt>
</event>
<event>
 5    1  0.3217852E-002  0.1249998E+03  0.7818608E-02  0.1235070E+00
          4   -1    0    0  501    0  0.00000000000E+00  0.00000000000E+00  0.25358385830E+02  0.25390168017E+02  0.12700000000E+01 0.  1.
         -4   -1    0    0    0  501 -0.00000000000E+00 -0.00000000000E+00 -0.15391033418E+03  0.15391557383E+03  0.12700000000E+01 0.  1.
         25    2    1    2    0    0  0.00000000000E+00  0.00000000000E+00 -0.12855194835E+03  0.17930574185E+03  0.12499978254E+03 0.  0.
    9000005    1    3    3    0    0  0.73546667963E+01 -0.61760996752E+02 -0.72968845885E+02  0.95885162113E+02  0.10000000000E+01 0.  0.
    9000005    1    3    3    0    0 -0.73546667963E+01  0.61760996752E+02 -0.55583102463E+02  0.83420579733E+02  0.10000000000E+01 0.  0.
<mgrwt>
<rscale>  0 0.12499978E+03</rscale>
<asrwt>0</asrwt>
<pdfrwt beam="1">  1        4 0.39041380E-02 0.12499978E+03</pdfrwt>
<pdfrwt beam="2">  1       -4 0.23681360E-01 0.12499978E+03</pdfrwt>
<totfact> 0.93742579E+03</totfact>
</mgrwt>
</event>
<event>
 5    1  0.3217852E-002  0.1250016E+03  0.7818608E-02  0.1235067E+00
          4   -1    0    0  501    0  0.00000000000E+00  0.00000000000E+00  0.45398285804E+03  0.45398463443E+03  0.12700000000E+01 0.  1.
         -4   -1    0    0    0  501 -0.00000000000E+00 -0.00000000000E+00 -0.85559600736E+01  0.86497024678E+01  0.12700000000E+01 0.  1.
         25    2    1    2    0    0  0.00000000000E+00  0.00000000000E+00  0.44542689797E+03  0.46263433689E+03  0.12500163295E+03 0.  0.
    9000005    1    3    3    0    0 -0.17912143259E+00 -0.33237627039E+02  0.41857364187E+03  0.41989244528E+03  0.10000000000E+01 0.  0.
    9000005    1    3    3    0    0  0.17912143259E+00  0.33237627039E+02  0.26853256100E+02  0.42741891615E+02  0.10000000000E+01 0.  0.
<mgrwt>
<rscale>  0 0.12500163E+03</rscale>
<asrwt>0</asrwt>
<pdfrwt beam="1">  1        4 0.69850887E-01 0.12500163E+03</pdfrwt>
<pdfrwt beam="2">  1       -4 0.13236487E-02 0.12500163E+03</pdfrwt>
<totfact> 0.58882568E+03</totfact>
</mgrwt>
</event>
<event>
 5    1  0.3217852E-002  0.1249721E+03  0.7818608E-02  0.1235113E+00
          4   -1    0    0  501    0  0.00000000000E+00  0.00000000000E+00  0.32961692906E+03  0.32961937568E+03  0.12700000000E+01 0. -1.
         -4   -1    0    0    0  501 -0.00000000000E+00 -0.00000000000E+00 -0.11809043817E+02  0.11877138371E+02  0.12700000000E+01 0. -1.
         25    2    1    2    0    0  0.00000000000E+00  0.00000000000E+00  0.31780788525E+03  0.34149651405E+03  0.12497206562E+03 0.  0.
    9000005    1    3    3    0    0  0.28339622433E+02  0.50950314573E+02  0.22027677491E+03  0.22786383285E+03  0.10000000000E+01 0.  0.
    9000005    1    3    3    0    0 -0.28339622433E+02 -0.50950314573E+02  0.97531110336E+02  0.11363268121E+03  0.10000000000E+01 0.  0.
<mgrwt>
<rscale>  0 0.12497207E+03</rscale>
<asrwt>0</asrwt>
<pdfrwt beam="1">  1        4 0.50715720E-01 0.12497207E+03</pdfrwt>
<pdfrwt beam="2">  1       -4 0.18222023E-02 0.12497207E+03</pdfrwt>
<totfact> 0.70714013E+03</totfact>
</mgrwt>
</event>
<event>
 5    1  0.3217852E-002  0.1249986E+03  0.7818608E-02  0.1235071E+00
          4   -1    0    0  501    0  0.00000000000E+00  0.00000000000E+00  0.29229253690E+03  0.29229529594E+03  0.12700000000E+01 0. -1.
         -4   -1    0    0    0  501 -0.00000000000E+00 -0.00000000000E+00 -0.13330882064E+02  0.13391240294E+02  0.12700000000E+01 0. -1.
         25    2    1    2    0    0  0.00000000000E+00  0.00000000000E+00  0.27896165484E+03  0.30568653623E+03  0.12499861425E+03 0.  0.
    9000005    1    3    3    0    0  0.15542591808E+02 -0.52754971600E+02  0.66914218433E+02  0.86620850938E+02  0.10000000000E+01 0.  0.
    9000005    1    3    3    0    0 -0.15542591808E+02  0.52754971600E+02  0.21204743640E+03  0.21906568529E+03  0.10000000000E+01 0.  0.
<mgrwt>
<rscale>  0 0.12499861E+03</rscale>
<asrwt>0</asrwt>
<pdfrwt beam="1">  1        4 0.44972938E-01 0.12499861E+03</pdfrwt>
<pdfrwt beam="2">  1       -4 0.20557601E-02 0.12499861E+03</pdfrwt>
<totfact> 0.74893323E+03</totfact>
</mgrwt>
</event>
<event>
 5    1  0.3217852E-002  0.1249981E+03  0.7818608E-02  0.1235072E+00
         -4   -1    0    0    0  501 -0.00000000000E+00  0.00000000000E+00  0.95107352255E+02  0.95115831242E+02  0.12700000000E+01 0.  1.
          4   -1    0    0  501    0  0.00000000000E+00 -0.00000000000E+00 -0.41050656110E+02  0.41070296652E+02  0.12700000000E+01 0.  1.
         25    2    1    2    0    0  0.00000000000E+00  0.00000000000E+00  0.54056696144E+02  0.13618612789E+03  0.12499814012E+03 0.  0.
    9000005    1    3    3    0    0  0.94178908532E+01 -0.41830613803E+02 -0.22500862304E+02  0.48433312128E+02  0.10000000000E+01 0.  0.
    9000005    1    3    3    0    0 -0.94178908532E+01  0.41830613803E+02  0.76557558448E+02  0.87752815766E+02  0.10000000000E+01 0.  0.
<mgrwt>
<rscale>  0 0.12499814E+03</rscale>
<asrwt>0</asrwt>
<pdfrwt beam="2">  1        4 0.63176487E-02 0.12499814E+03</pdfrwt>
<pdfrwt beam="1">  1       -4 0.14634063E-01 0.12499814E+03</pdfrwt>
<totfact> 0.10213559E+04</totfact>
</mgrwt>
</event>
<event>
 5    1  0.3217852E-002  0.1250049E+03  0.7818608E-02  0.1235062E+00
         -4   -1    0    0    0  501 -0.00000000000E+00  0.00000000000E+00  0.31025022010E+03  0.31025281945E+03  0.12700000000E+01 0.  1.
          4   -1    0    0  501    0  0.00000000000E+00 -0.00000000000E+00 -0.12556958740E+02  0.12621018691E+02  0.12700000000E+01 0.  1.
         25    2    1    2    0    0  0.00000000000E+00  0.00000000000E+00  0.29769326136E+03  0.32287383814E+03  0.12500494987E+03 0.  0.
    9000005    1    3    3    0    0 -0.22324603220E+02 -0.56638965795E+02  0.18530097089E+03  0.19504822524E+03  0.10000000000E+01 0.  0.
    9000005    1    3    3    0    0  0.22324603220E+02  0.56638965795E+02  0.11239229047E+03  0.12782561290E+03  0.10000000000E+01 0.  0.
<mgrwt>
<rscale>  0 0.12500495E+03</rscale>
<asrwt>0</asrwt>
<pdfrwt beam="2">  1        4 0.19369676E-02 0.12500495E+03</pdfrwt>
<pdfrwt beam="1">  1       -4 0.47735926E-01 0.12500495E+03</pdfrwt>
<totfact> 0.72807633E+03</totfact>
</mgrwt>
</event>
<event>
 5    1  0.3217852E-002  0.1250000E+03  0.7818608E-02  0.1235069E+00
         -4   -1    0    0    0  501 -0.00000000000E+00  0.00000000000E+00  0.81939401901E+01  0.82917763983E+01  0.12700000000E+01 0. -1.
          4   -1    0    0  501    0  0.00000000000E+00 -0.00000000000E+00 -0.47379665479E+03  0.47379835689E+03  0.12700000000E+01 0. -1.
         25    2    1    2    0    0  0.00000000000E+00  0.00000000000E+00 -0.46560271460E+03  0.48209013329E+03  0.12500003508E+03 0.  0.
    9000005    1    3    3    0    0  0.81930153316E+01  0.42500509875E+02 -0.40664633582E+03  0.40894456993E+03  0.10000000000E+01 0.  0.
    9000005    1    3    3    0    0 -0.81930153316E+01 -0.42500509875E+02 -0.58956378778E+02  0.73145563355E+02  0.10000000000E+01 0.  0.
<mgrwt>
<rscale>  0 0.12500004E+03</rscale>
<asrwt>0</asrwt>
<pdfrwt beam="2">  1        4 0.72899429E-01 0.12500004E+03</pdfrwt>
<pdfrwt beam="1">  1       -4 0.12682633E-02 0.12500004E+03</pdfrwt>
<totfact> 0.57281195E+03</totfact>
</mgrwt>
</event>
<event>
 5    1  0.3217852E-002  0.1250145E+03  0.7818608E-02  0.1235047E+00
          4   -1    0    0  501    0  0.00000000000E+00  0.00000000000E+00  0.49178120083E+02  0.49194515903E+02  0.12700000000E+01 0. -1.
         -4   -1    0    0    0  501 -0.00000000000E+00 -0.00000000000E+00 -0.79414310639E+02  0.79424464961E+02  0.12700000000E+01 0. -1.
         25    2    1    2    0    0  0.00000000000E+00  0.00000000000E+00 -0.30236190556E+02  0.12861898086E+03  0.12501445924E+03 0.  0.
    9000005    1    3    3    0    0 -0.31202945627E+01  0.26255458135E+02 -0.73381912034E+02  0.78006348035E+02  0.10000000000E+01 0.  0.
    9000005    1    3    3    0    0  0.31202945627E+01 -0.26255458135E+02  0.43145721478E+02  0.50612632829E+02  0.10000000000E+01 0.  0.
<mgrwt>
<rscale>  0 0.12501446E+03</rscale>
<asrwt>0</asrwt>
<pdfrwt beam="1">  1        4 0.75679069E-02 0.12501446E+03</pdfrwt>
<pdfrwt beam="2">  1       -4 0.12219629E-01 0.12501446E+03</pdfrwt>
<totfact> 0.10370756E+04</totfact>
</mgrwt>
</event>
<event>
 5    1  0.3217852E-002  0.1250016E+03  0.7818608E-02  0.1235067E+00
         -4   -1    0    0    0  501 -0.00000000000E+00  0.00000000000E+00  0.71236776828E+02  0.71248096626E+02  0.12700000000E+01 0. -1.
          4   -1    0    0  501    0  0.00000000000E+00 -0.00000000000E+00 -0.54813081389E+02  0.54827792144E+02  0.12700000000E+01 0. -1.
         25    2    1    2    0    0  0.00000000000E+00  0.00000000000E+00  0.16423695438E+02  0.12607588877E+03  0.12500156782E+03 0.  0.
    9000005    1    3    3    0    0 -0.10195240672E+02 -0.40371278988E+01  0.70263827021E+02  0.71121352080E+02  0.10000000000E+01 0.  0.
    9000005    1    3    3    0    0  0.10195240672E+02  0.40371278988E+01 -0.53840131582E+02  0.54954536690E+02  0.10000000000E+01 0.  0.
<mgrwt>
<rscale>  0 0.12500157E+03</rscale>
<asrwt>0</asrwt>
<pdfrwt beam="2">  1        4 0.84347842E-02 0.12500157E+03</pdfrwt>
<pdfrwt beam="1">  1       -4 0.10961506E-01 0.12500157E+03</pdfrwt>
<totfact> 0.10428926E+04</totfact>
</mgrwt>
</event>
<event>
 5    1  0.3217852E-002  0.1250021E+03  0.7818608E-02  0.1235066E+00
         -4   -1    0    0    0  501 -0.00000000000E+00  0.00000000000E+00  0.10181819881E+02  0.10260719083E+02  0.12700000000E+01 0.  1.
          4   -1    0    0  501    0  0.00000000000E+00 -0.00000000000E+00 -0.38210182679E+03  0.38210393735E+03  0.12700000000E+01 0.  1.
         25    2    1    2    0    0  0.00000000000E+00  0.00000000000E+00 -0.37192000691E+03  0.39236465643E+03  0.12500212829E+03 0.  0.
    9000005    1    3    3    0    0 -0.45111045517E+02  0.27759183709E+02 -0.29005507822E+03  0.29485339935E+03  0.10000000000E+01 0.  0.
    9000005    1    3    3    0    0  0.45111045517E+02 -0.27759183709E+02 -0.81864928684E+02  0.97511257074E+02  0.10000000000E+01 0.  0.
<mgrwt>
<rscale>  0 0.12500213E+03</rscale>
<asrwt>0</asrwt>
<pdfrwt beam="2">  1        4 0.58791117E-01 0.12500213E+03</pdfrwt>
<pdfrwt beam="1">  1       -4 0.15726656E-02 0.12500213E+03</pdfrwt>
<totfact> 0.65299166E+03</totfact>
</mgrwt>
</event>
<event>
 4    1  0.3217852E-002  0.1249256E+03  0.7818608E-02  0.1235186E+00
         -4   -1    0    0    0  501 -0.00000000000E+00  0.00000000000E+00  0.52026843611E+02  0.52042341955E+02  0.12700000000E+01 0. -1.
          4   -1    0    0  501    0  0.00000000000E+00 -0.00000000000E+00 -0.74960024202E+02  0.74970781831E+02  0.12700000000E+01 0. -1.
    9000005    1    1    2    0    0 -0.52324070623E+02  0.19137916798E+02  0.17227927890E+02  0.58325549507E+02  0.10000000000E+01 0.  0.
    9000005    1    1    2    0    0  0.52324070623E+02 -0.19137916798E+02 -0.40161108481E+02  0.68687574279E+02  0.10000000000E+01 0.  0.
<mgrwt>
<rscale>  0 0.12492559E+03</rscale>
<asrwt>0</asrwt>
<pdfrwt beam="2">  1        4 0.11534331E-01 0.12492559E+03</pdfrwt>
<pdfrwt beam="1">  1       -4 0.80061495E-02 0.12492559E+03</pdfrwt>
<totfact> 0.10426364E+04</totfact>
</mgrwt>
</event>
<event>
 5    1  0.3217852E-002  0.1249990E+03  0.7818608E-02  0.1235071E+00
         -4   -1    0    0    0  501 -0.00000000000E+00  0.00000000000E+00  0.33170516571E+01  0.35518631303E+01  0.12700000000E+01 0. -1.
          4   -1    0    0  501    0  0.00000000000E+00 -0.00000000000E+00 -0.11371170069E+04  0.11371177161E+04  0.12700000000E+01 0. -1.
         25    2    1    2    0    0  0.00000000000E+00  0.00000000000E+00 -0.11337999552E+04  0.11406695792E+04  0.12499900194E+03 0.  0.
    9000005    1    3    3    0    0  0.25999356723E+02  0.97810711422E+01 -0.10777245117E+04  0.10780829092E+04  0.10000000000E+01 0.  0.
    9000005    1    3    3    0    0 -0.25999356723E+02 -0.97810711422E+01 -0.56075443543E+02  0.62586670076E+02  0.10000000000E+01 0.  0.
<mgrwt>
<rscale>  0 0.12499900E+03</rscale>
<asrwt>0</asrwt>
<pdfrwt beam="2">  1        4 0.17495889E+00 0.12499900E+03</pdfrwt>
<pdfrwt beam="1">  1       -4 0.52843352E-03 0.12499900E+03</pdfrwt>
<totfact> 0.26321169E+03</totfact>
</mgrwt>
</event>
<event>
 5    1  0.3217852E-002  0.1249975E+03  0.7818608E-02  0.1235073E+00
         -4   -1    0    0    0  501 -0.00000000000E+00  0.00000000000E+00  0.13893130253E+03  0.13893710707E+03  0.12700000000E+01 0.  1.
          4   -1    0    0  501    0  0.00000000000E+00 -0.00000000000E+00 -0.28094551042E+02  0.28123241247E+02  0.12700000000E+01 0.  1.
         25    2    1    2    0    0  0.00000000000E+00  0.00000000000E+00  0.11083675148E+03  0.16706034832E+03  0.12499749798E+03 0.  0.
    9000005    1    3    3    0    0 -0.10644458007E+02 -0.99727872038E+01  0.13663079970E+03  0.13741083071E+03  0.10000000000E+01 0.  0.
    9000005    1    3    3    0    0  0.10644458007E+02  0.99727872038E+01 -0.25794048216E+02  0.29649517605E+02  0.10000000000E+01 0.  0.
<mgrwt>
<rscale>  0 0.12499750E+03</rscale>
<asrwt>0</asrwt>
<pdfrwt beam="2">  1        4 0.43248919E-02 0.12499750E+03</pdfrwt>
<pdfrwt beam="1">  1       -4 0.21376701E-01 0.12499750E+03</pdfrwt>
<totfact> 0.96004006E+03</totfact>
</mgrwt>
</event>
<event>
 5    1  0.3217852E-002  0.1250003E+03  0.7818608E-02  0.1235069E+00
          4   -1    0    0  501    0  0.00000000000E+00  0.00000000000E+00  0.16080616026E+03  0.16081117522E+03  0.12700000000E+01 0.  1.
         -4   -1    0    0    0  501 -0.00000000000E+00 -0.00000000000E+00 -0.24269788164E+02  0.24302994003E+02  0.12700000000E+01 0.  1.
         25    2    1    2    0    0  0.00000000000E+00  0.00000000000E+00  0.13653637209E+03  0.18511416923E+03  0.12500029898E+03 0.  0.
    9000005    1    3    3    0    0  0.31980252847E+02 -0.21062613268E+02  0.14140322014E+03  0.14649996899E+03  0.10000000000E+01 0.  0.
    9000005    1    3    3    0    0 -0.31980252847E+02  0.21062613268E+02 -0.48668480424E+01  0.38614200234E+02  0.10000000000E+01 0.  0.
<mgrwt>
<rscale>  0 0.12500030E+03</rscale>
<asrwt>0</asrwt>
<pdfrwt beam="1">  1        4 0.24742349E-01 0.12500030E+03</pdfrwt>
<pdfrwt beam="2">  1       -4 0.37367537E-02 0.12500030E+03</pdfrwt>
<totfact> 0.92703831E+03</totfact>
</mgrwt>
</event>
<event>
 5    1  0.3217852E-002  0.1249991E+03  0.7818608E-02  0.1235071E+00
         -4   -1    0    0    0  501 -0.00000000000E+00  0.00000000000E+00  0.24810165012E+03  0.24810490058E+03  0.12700000000E+01 0. -1.
          4   -1    0    0  501    0  0.00000000000E+00 -0.00000000000E+00 -0.15715362258E+02  0.15766594778E+02  0.12700000000E+01 0. -1.
         25    2    1    2    0    0  0.00000000000E+00  0.00000000000E+00  0.23238628786E+03  0.26387149536E+03  0.12499911710E+03 0.  0.
    9000005    1    3    3    0    0 -0.10972752297E+02 -0.36746278603E+02  0.22035071092E+03  0.22366520983E+03  0.10000000000E+01 0.  0.
    9000005    1    3    3    0    0  0.10972752297E+02  0.36746278603E+02  0.12035576946E+02  0.40206285536E+02  0.10000000000E+01 0.  0.
<mgrwt>
<rscale>  0 0.12499912E+03</rscale>
<asrwt>0</asrwt>
<pdfrwt beam="2">  1        4 0.24219393E-02 0.12499912E+03</pdfrwt>
<pdfrwt beam="1">  1       -4 0.38173672E-01 0.12499912E+03</pdfrwt>
<totfact> 0.80367384E+03</totfact>
</mgrwt>
</event>
<event>
 5    1  0.3217852E-002  0.1249979E+03  0.7818608E-02  0.1235073E+00
         -4   -1    0    0    0  501 -0.00000000000E+00  0.00000000000E+00  0.28252412362E+02  0.28280942422E+02  0.12700000000E+01 0.  1.
          4   -1    0    0  501    0  0.00000000000E+00 -0.00000000000E+00 -0.13815667316E+03  0.13816251025E+03  0.12700000000E+01 0.  1.
         25    2    1    2    0    0  0.00000000000E+00  0.00000000000E+00 -0.10990426080E+03  0.16644345268E+03  0.12499790557E+03 0.  0.
    9000005    1    3    3    0    0 -0.39840368108E+01 -0.55316352396E+02 -0.16605049981E+02  0.57900769223E+02  0.10000000000E+01 0.  0.
    9000005    1    3    3    0    0  0.39840368108E+01  0.55316352396E+02 -0.93299210820E+02  0.10854268345E+03  0.10000000000E+01 0.  0.
<mgrwt>
<rscale>  0 0.12499791E+03</rscale>
<asrwt>0</asrwt>
<pdfrwt beam="2">  1        4 0.21257516E-01 0.12499791E+03</pdfrwt>
<pdfrwt beam="1">  1       -4 0.43491687E-02 0.12499791E+03</pdfrwt>
<totfact> 0.96119244E+03</totfact>
</mgrwt>
</event>
<event>
 5    1  0.3217852E-002  0.1249979E+03  0.7818608E-02  0.1235073E+00
         -4   -1    0    0    0  501 -0.00000000000E+00  0.00000000000E+00  0.61036070038E+03  0.61036202165E+03  0.12700000000E+01 0.  1.
          4   -1    0    0  501    0  0.00000000000E+00 -0.00000000000E+00 -0.63353427220E+01  0.64613827782E+01  0.12700000000E+01 0.  1.
         25    2    1    2    0    0  0.00000000000E+00  0.00000000000E+00  0.60402535766E+03  0.61682340443E+03  0.12499791819E+03 0.  0.
    9000005    1    3    3    0    0  0.32933090329E+02  0.41308418962E+02  0.13729921081E+03  0.14711576124E+03  0.10000000000E+01 0.  0.
    9000005    1    3    3    0    0 -0.32933090329E+02 -0.41308418962E+02  0.46672614685E+03  0.46970764319E+03  0.10000000000E+01 0.  0.
<mgrwt>
<rscale>  0 0.12499792E+03</rscale>
<asrwt>0</asrwt>
<pdfrwt beam="2">  1        4 0.98446515E-03 0.12499792E+03</pdfrwt>
<pdfrwt beam="1">  1       -4 0.93911442E-01 0.12499792E+03</pdfrwt>
<totfact> 0.47824783E+03</totfact>
</mgrwt>
</event>
<event>
 5    1  0.3217852E-002  0.1250060E+03  0.7818608E-02  0.1235060E+00
          4   -1    0    0  501    0  0.00000000000E+00  0.00000000000E+00  0.16897174379E+03  0.16897651642E+03  0.12700000000E+01 0.  1.
         -4   -1    0    0    0  501 -0.00000000000E+00 -0.00000000000E+00 -0.23097458437E+02  0.23132347184E+02  0.12700000000E+01 0.  1.
         25    2    1    2    0    0  0.00000000000E+00  0.00000000000E+00  0.14587428536E+03  0.19210886360E+03  0.12500603324E+03 0.  0.
    9000005    1    3    3    0    0  0.85466939765E+01  0.61535655094E+02  0.83353888401E+02  0.10396419353E+03  0.10000000000E+01 0.  0.
    9000005    1    3    3    0    0 -0.85466939765E+01 -0.61535655094E+02  0.62520396957E+02  0.88144670068E+02  0.10000000000E+01 0.  0.
<mgrwt>
<rscale>  0 0.12500603E+03</rscale>
<asrwt>0</asrwt>
<pdfrwt beam="1">  1        4 0.25998705E-01 0.12500603E+03</pdfrwt>
<pdfrwt beam="2">  1       -4 0.35565059E-02 0.12500603E+03</pdfrwt>
<totfact> 0.91469308E+03</totfact>
</mgrwt>
</event>
<event>
 5    1  0.3217852E-002  0.1249971E+03  0.7818608E-02  0.1235074E+00
         -4   -1    0    0    0  501 -0.00000000000E+00  0.00000000000E+00  0.35955988881E+03  0.35956213169E+03  0.12700000000E+01 0. -1.
          4   -1    0    0  501    0  0.00000000000E+00 -0.00000000000E+00 -0.10824066858E+02  0.10898317455E+02  0.12700000000E+01 0. -1.
         25    2    1    2    0    0  0.00000000000E+00  0.00000000000E+00  0.34873582195E+03  0.37046044914E+03  0.12499708342E+03 0.  0.
    9000005    1    3    3    0    0 -0.44082265388E+01  0.51787469122E+02  0.71542633476E+02  0.88434850732E+02  0.10000000000E+01 0.  0.
    9000005    1    3    3    0    0  0.44082265388E+01 -0.51787469122E+02  0.27719318848E+03  0.28202559841E+03  0.10000000000E+01 0.  0.
<mgrwt>
<rscale>  0 0.12499708E+03</rscale>
<asrwt>0</asrwt>
<pdfrwt beam="2">  1        4 0.16711255E-02 0.12499708E+03</pdfrwt>
<pdfrwt beam="1">  1       -4 0.55322779E-01 0.12499708E+03</pdfrwt>
<totfact> 0.67535153E+03</totfact>
</mgrwt>
</event>
<event>
 5    1  0.3217852E-002  0.1249896E+03  0.7818608E-02  0.1235086E+00
          4   -1    0    0  501    0  0.00000000000E+00  0.00000000000E+00  0.31512928199E+02  0.31538508901E+02  0.12700000000E+01 0. -1.
         -4   -1    0    0    0  501 -0.00000000000E+00 -0.00000000000E+00 -0.12385727474E+03  0.12386378569E+03  0.12700000000E+01 0. -1.
         25    2    1    2    0    0  0.00000000000E+00  0.00000000000E+00 -0.92344346537E+02  0.15540229459E+03  0.12498957887E+03 0.  0.
    9000005    1    3    3    0    0 -0.15565393861E+02 -0.23160125973E+02  0.23341934646E+02  0.36393939525E+02  0.10000000000E+01 0.  0.
    9000005    1    3    3    0    0  0.15565393861E+02  0.23160125973E+02 -0.11568628118E+03  0.11900835506E+03  0.10000000000E+01 0.  0.
<mgrwt>
<rscale>  0 0.12498958E+03</rscale>
<asrwt>0</asrwt>
<pdfrwt beam="1">  1        4 0.48506115E-02 0.12498958E+03</pdfrwt>
<pdfrwt beam="2">  1       -4 0.19057434E-01 0.12498958E+03</pdfrwt>
<totfact> 0.98259607E+03</totfact>
</mgrwt>
</event>
<event>
 5    1  0.3217852E-002  0.1249965E+03  0.7818608E-02  0.1235075E+00
         -4   -1    0    0    0  501 -0.00000000000E+00  0.00000000000E+00  0.10639986172E+03  0.10640744088E+03  0.12700000000E+01 0.  1.
          4   -1    0    0  501    0  0.00000000000E+00 -0.00000000000E+00 -0.36690971674E+02  0.36712944616E+02  0.12700000000E+01 0.  1.
         25    2    1    2    0    0  0.00000000000E+00  0.00000000000E+00  0.69708890049E+02  0.14312038550E+03  0.12499646152E+03 0.  0.
    9000005    1    3    3    0    0 -0.27648608167E+02  0.55264541350E+02  0.45498210332E+02  0.76744395285E+02  0.10000000000E+01 0.  0.
    9000005    1    3    3    0    0  0.27648608167E+02 -0.55264541350E+02  0.24210679716E+02  0.66375990211E+02  0.10000000000E+01 0.  0.
<mgrwt>
<rscale>  0 0.12499646E+03</rscale>
<asrwt>0</asrwt>
<pdfrwt beam="2">  1        4 0.56470382E-02 0.12499646E+03</pdfrwt>
<pdfrwt beam="1">  1       -4 0.16371482E-01 0.12499646E+03</pdfrwt>
<totfact> 0.10070121E+04</totfact>
</mgrwt>
</event>
<event>
 5    1  0.3217852E-002  0.1249919E+03  0.7818608E-02  0.1235082E+00
         -4   -1    0    0    0  501 -0.00000000000E+00  0.00000000000E+00  0.22210077586E+03  0.22210440684E+03  0.12700000000E+01 0.  1.
          4   -1    0    0  501    0  0.00000000000E+00 -0.00000000000E+00 -0.17558759072E+02  0.17604627805E+02  0.12700000000E+01 0.  1.
         25    2    1    2    0    0  0.00000000000E+00  0.00000000000E+00  0.20454201679E+03  0.23970903464E+03  0.12499193837E+03 0.  0.
    9000005    1    3    3    0    0  0.29873503492E+01 -0.49404070513E+02  0.17542580529E+03  0.18227698595E+03  0.10000000000E+01 0.  0.
    9000005    1    3    3    0    0 -0.29873503492E+01  0.49404070513E+02  0.29116211501E+02  0.57432048697E+02  0.10000000000E+01 0.  0.
<mgrwt>
<rscale>  0 0.12499194E+03</rscale>
<asrwt>0</asrwt>
<pdfrwt beam="2">  1        4 0.27051554E-02 0.12499194E+03</pdfrwt>
<pdfrwt beam="1">  1       -4 0.34173155E-01 0.12499194E+03</pdfrwt>
<totfact> 0.83855792E+03</totfact>
</mgrwt>
</event>
<event>
 5    1  0.3217852E-002  0.1250006E+03  0.7818608E-02  0.1235068E+00
          4   -1    0    0  501    0  0.00000000000E+00  0.00000000000E+00  0.20908223882E+03  0.20908609588E+03  0.12700000000E+01 0.  1.
         -4   -1    0    0    0  501 -0.00000000000E+00 -0.00000000000E+00 -0.18657409791E+02  0.18700583951E+02  0.12700000000E+01 0.  1.
         25    2    1    2    0    0  0.00000000000E+00  0.00000000000E+00  0.19042482903E+03  0.22778667983E+03  0.12500062399E+03 0.  0.
    9000005    1    3    3    0    0  0.47333484197E+02  0.13995329824E+02  0.25369672921E+02  0.55506290520E+02  0.10000000000E+01 0.  0.
    9000005    1    3    3    0    0 -0.47333484197E+02 -0.13995329824E+02  0.16505515611E+03  0.17228038931E+03  0.10000000000E+01 0.  0.
<mgrwt>
<rscale>  0 0.12500062E+03</rscale>
<asrwt>0</asrwt>
<pdfrwt beam="1">  1        4 0.32170114E-01 0.12500062E+03</pdfrwt>
<pdfrwt beam="2">  1       -4 0.28739887E-02 0.12500062E+03</pdfrwt>
<totfact> 0.85649425E+03</totfact>
</mgrwt>
</event>
<event>
 5    1  0.3217852E-002  0.1250122E+03  0.7818608E-02  0.1235050E+00
          4   -1    0    0  501    0  0.00000000000E+00  0.00000000000E+00  0.14767378233E+02  0.14821887865E+02  0.12700000000E+01 0. -1.
         -4   -1    0    0    0  501 -0.00000000000E+00 -0.00000000000E+00 -0.26402709408E+03  0.26403014848E+03  0.12700000000E+01 0. -1.
         25    2    1    2    0    0  0.00000000000E+00  0.00000000000E+00 -0.24925971585E+03  0.27885203635E+03  0.12501220833E+03 0.  0.
    9000005    1    3    3    0    0 -0.30068546314E+02 -0.48149856272E+02 -0.18294569282E+03  0.19155326324E+03  0.10000000000E+01 0.  0.
    9000005    1    3    3    0    0  0.30068546314E+02  0.48149856272E+02 -0.66314023027E+02  0.87298773110E+02  0.10000000000E+01 0.  0.
<mgrwt>
<rscale>  0 0.12501221E+03</rscale>
<asrwt>0</asrwt>
<pdfrwt beam="1">  1        4 0.22763325E-02 0.12501221E+03</pdfrwt>
<pdfrwt beam="2">  1       -4 0.40623977E-01 0.12501221E+03</pdfrwt>
<totfact> 0.78309310E+03</totfact>
</mgrwt>
</event>
<event>
 5    1  0.3217852E-002  0.1249978E+03  0.7818608E-02  0.1235073E+00
          4   -1    0    0  501    0  0.00000000000E+00  0.00000000000E+00  0.20202968202E+03  0.20203367372E+03  0.12700000000E+01 0.  1.
         -4   -1    0    0    0  501 -0.00000000000E+00 -0.00000000000E+00 -0.19309314162E+02  0.19351033910E+02  0.12700000000E+01 0.  1.
         25    2    1    2    0    0  0.00000000000E+00  0.00000000000E+00  0.18272036786E+03  0.22138470763E+03  0.12499782375E+03 0.  0.
    9000005    1    3    3    0    0 -0.22428149158E+02 -0.40551957369E+02  0.16561232849E+03  0.17197652883E+03  0.10000000000E+01 0.  0.
    9000005    1    3    3    0    0  0.22428149158E+02  0.40551957369E+02  0.17108039366E+02  0.49408178797E+02  0.10000000000E+01 0.  0.
<mgrwt>
<rscale>  0 0.12499782E+03</rscale>
<asrwt>0</asrwt>
<pdfrwt beam="1">  1        4 0.31085006E-01 0.12499782E+03</pdfrwt>
<pdfrwt beam="2">  1       -4 0.29741800E-02 0.12499782E+03</pdfrwt>
<totfact> 0.86653922E+03</totfact>
</mgrwt>
</event>
<event>
 5    1  0.3217852E-002  0.1250065E+03  0.7818608E-02  0.1235059E+00
          4   -1    0    0  501    0  0.00000000000E+00  0.00000000000E+00  0.29205720868E+01  0.31847513740E+01  0.12700000000E+01 0.  1.
         -4   -1    0    0    0  501 -0.00000000000E+00 -0.00000000000E+00 -0.12794887005E+04  0.12794893308E+04  0.12700000000E+01 0.  1.
         25    2    1    2    0    0  0.00000000000E+00  0.00000000000E+00 -0.12765681284E+04  0.12826740821E+04  0.12500645814E+03 0.  0.
    9000005    1    3    3    0    0 -0.58873922445E+02  0.19996870699E+02 -0.57368131008E+03  0.57704181747E+03  0.10000000000E+01 0.  0.
    9000005    1    3    3    0    0  0.58873922445E+02 -0.19996870699E+02 -0.70288681831E+03  0.70563226467E+03  0.10000000000E+01 0.  0.
<mgrwt>
<rscale>  0 0.12500646E+03</rscale>
<asrwt>0</asrwt>
<pdfrwt beam="1">  1        4 0.46968977E-03 0.12500646E+03</pdfrwt>
<pdfrwt beam="2">  1       -4 0.19686436E+00 0.12500646E+03</pdfrwt>
<totfact> 0.22638043E+03</totfact>
</mgrwt>
</event>
<event>
 5    1  0.3217852E-002  0.1250046E+03  0.7818608E-02  0.1235062E+00
         -4   -1    0    0    0  501 -0.00000000000E+00  0.00000000000E+00  0.27326778060E+02  0.27356273487E+02  0.12700000000E+01 0. -1.
          4   -1    0    0  501    0  0.00000000000E+00 -0.00000000000E+00 -0.14284706582E+03  0.14285271126E+03  0.12700000000E+01 0. -1.
         25    2    1    2    0    0  0.00000000000E+00  0.00000000000E+00 -0.11552028776E+03  0.17020898474E+03  0.12500464633E+03 0.  0.
    9000005    1    3    3    0    0  0.10591344495E+02 -0.48692324389E+02 -0.64065952602E+01  0.50251004919E+02  0.10000000000E+01 0.  0.
    9000005    1    3    3    0    0 -0.10591344495E+02  0.48692324389E+02 -0.10911369250E+03  0.11995797983E+03  0.10000000000E+01 0.  0.
<mgrwt>
<rscale>  0 0.12500465E+03</rscale>
<asrwt>0</asrwt>
<pdfrwt beam="2">  1        4 0.21979174E-01 0.12500465E+03</pdfrwt>
<pdfrwt beam="1">  1       -4 0.42068229E-02 0.12500465E+03</pdfrwt>
<totfact> 0.95399750E+03</totfact>
</mgrwt>
</event>
<event>
 5    1  0.3217852E-002  0.1250023E+03  0.7818608E-02  0.1235066E+00
          4   -1    0    0  501    0  0.00000000000E+00  0.00000000000E+00  0.64860112035E+02  0.64872544525E+02  0.12700000000E+01 0. -1.
         -4   -1    0    0    0  501 -0.00000000000E+00 -0.00000000000E+00 -0.60203080105E+02  0.60216474109E+02  0.12700000000E+01 0. -1.
         25    2    1    2    0    0  0.00000000000E+00  0.00000000000E+00  0.46570319303E+01  0.12508901863E+03  0.12500229852E+03 0.  0.
    9000005    1    3    3    0    0 -0.97656976465E+01 -0.54007758812E+02  0.32235480369E+02  0.63657937895E+02  0.10000000000E+01 0.  0.
    9000005    1    3    3    0    0  0.97656976465E+01  0.54007758812E+02 -0.27578448439E+02  0.61431080739E+02  0.10000000000E+01 0.  0.
<mgrwt>
<rscale>  0 0.12500230E+03</rscale>
<asrwt>0</asrwt>
<pdfrwt beam="1">  1        4 0.99804654E-02 0.12500230E+03</pdfrwt>
<pdfrwt beam="2">  1       -4 0.92639990E-02 0.12500230E+03</pdfrwt>
<totfact> 0.10450387E+04</totfact>
</mgrwt>
</event>
<event>
 5    1  0.3217852E-002  0.1250000E+03  0.7818608E-02  0.1235069E+00
          4   -1    0    0  501    0  0.00000000000E+00  0.00000000000E+00  0.19006475456E+02  0.19048858476E+02  0.12700000000E+01 0.  1.
         -4   -1    0    0    0  501 -0.00000000000E+00 -0.00000000000E+00 -0.20524880645E+03  0.20525273555E+03  0.12700000000E+01 0.  1.
         25    2    1    2    0    0  0.00000000000E+00  0.00000000000E+00 -0.18624233100E+03  0.22430159402E+03  0.12499999691E+03 0.  0.
    9000005    1    3    3    0    0  0.53357589326E+02  0.20182938509E+02 -0.13890037659E+03  0.15016223880E+03  0.10000000000E+01 0.  0.
    9000005    1    3    3    0    0 -0.53357589326E+02 -0.20182938509E+02 -0.47341954405E+02  0.74139355219E+02  0.10000000000E+01 0.  0.
<mgrwt>
<rscale>  0 0.12500000E+03</rscale>
<asrwt>0</asrwt>
<pdfrwt beam="1">  1        4 0.29276358E-02 0.12500000E+03</pdfrwt>
<pdfrwt beam="2">  1       -4 0.31580300E-01 0.12500000E+03</pdfrwt>
<totfact> 0.86192229E+03</totfact>
</mgrwt>
</event>
<event>
 5    1  0.3217852E-002  0.1249996E+03  0.7818608E-02  0.1235070E+00
         -4   -1    0    0    0  501 -0.00000000000E+00  0.00000000000E+00  0.46905350435E+02  0.46922540420E+02  0.12700000000E+01 0.  1.
          4   -1    0    0  501    0  0.00000000000E+00 -0.00000000000E+00 -0.83241555350E+02  0.83251242856E+02  0.12700000000E+01 0.  1.
         25    2    1    2    0    0  0.00000000000E+00  0.00000000000E+00 -0.36336204914E+02  0.13017378328E+03  0.12499957626E+03 0.  0.
    9000005    1    3    3    0    0 -0.53808722290E+02 -0.25075013025E+02 -0.38497662952E+02  0.70761606295E+02  0.10000000000E+01 0.  0.
    9000005    1    3    3    0    0  0.53808722290E+02  0.25075013025E+02  0.21614580380E+01  0.59412176980E+02  0.10000000000E+01 0.  0.
<mgrwt>
<rscale>  0 0.12499958E+03</rscale>
<asrwt>0</asrwt>
<pdfrwt beam="2">  1        4 0.12808461E-01 0.12499958E+03</pdfrwt>
<pdfrwt beam="1">  1       -4 0.72182752E-02 0.12499958E+03</pdfrwt>
<totfact> 0.10340890E+04</totfact>
</mgrwt>
</event>
<event>
 5    1  0.3217852E-002  0.1249980E+03  0.7818608E-02  0.1235072E+00
          4   -1    0    0  501    0  0.00000000000E+00  0.00000000000E+00  0.64185298156E+01  0.65429675984E+01  0.12700000000E+01 0.  1.
         -4   -1    0    0    0  501 -0.00000000000E+00 -0.00000000000E+00 -0.60260232341E+03  0.60260366169E+03  0.12700000000E+01 0.  1.
         25    2    1    2    0    0  0.00000000000E+00  0.00000000000E+00 -0.59618379359E+03  0.60914662929E+03  0.12499800089E+03 0.  0.
    9000005    1    3    3    0    0 -0.57284141962E+01 -0.10663846898E+02 -0.59685806067E+03  0.59698163870E+03  0.10000000000E+01 0.  0.
    9000005    1    3    3    0    0  0.57284141962E+01  0.10663846898E+02  0.67426707386E+00  0.12164990586E+02  0.10000000000E+01 0.  0.
<mgrwt>
<rscale>  0 0.12499800E+03</rscale>
<asrwt>0</asrwt>
<pdfrwt beam="1">  1        4 0.99714168E-03 0.12499800E+03</pdfrwt>
<pdfrwt beam="2">  1       -4 0.92717681E-01 0.12499800E+03</pdfrwt>
<totfact> 0.48297426E+03</totfact>
</mgrwt>
</event>
<event>
 5    1  0.3217852E-002  0.1249972E+03  0.7818608E-02  0.1235074E+00
          4   -1    0    0  501    0  0.00000000000E+00  0.00000000000E+00  0.12918302931E+02  0.12980579748E+02  0.12700000000E+01 0. -1.
         -4   -1    0    0    0  501 -0.00000000000E+00 -0.00000000000E+00 -0.30157687535E+03  0.30157954945E+03  0.12700000000E+01 0. -1.
         25    2    1    2    0    0  0.00000000000E+00  0.00000000000E+00 -0.28865857242E+03  0.31456012920E+03  0.12499721377E+03 0.  0.
    9000005    1    3    3    0    0  0.40569252713E+02  0.22401629377E+02 -0.38833282479E+02  0.60470828443E+02  0.10000000000E+01 0.  0.
    9000005    1    3    3    0    0 -0.40569252713E+02 -0.22401629377E+02 -0.24982528994E+03  0.25408930075E+03  0.10000000000E+01 0.  0.
<mgrwt>
<rscale>  0 0.12499721E+03</rscale>
<asrwt>0</asrwt>
<pdfrwt beam="1">  1        4 0.19924277E-02 0.12499721E+03</pdfrwt>
<pdfrwt beam="2">  1       -4 0.46401433E-01 0.12499721E+03</pdfrwt>
<totfact> 0.73812394E+03</totfact>
</mgrwt>
</event>
<event>
 5    1  0.3217852E-002  0.1249978E+03  0.7818608E-02  0.1235073E+00
          4   -1    0    0  501    0  0.00000000000E+00  0.00000000000E+00  0.13937591449E+02  0.13995333344E+02  0.12700000000E+01 0. -1.
         -4   -1    0    0    0  501 -0.00000000000E+00 -0.00000000000E+00 -0.27961890922E+03  0.27962179331E+03  0.12700000000E+01 0. -1.
         25    2    1    2    0    0  0.00000000000E+00  0.00000000000E+00 -0.26568131777E+03  0.29361712665E+03  0.12499781779E+03 0.  0.
    9000005    1    3    3    0    0  0.11147472100E+02 -0.61447906079E+02 -0.13809435039E+03  0.15156239938E+03  0.10000000000E+01 0.  0.
    9000005    1    3    3    0    0 -0.11147472100E+02  0.61447906079E+02 -0.12758696737E+03  0.14205472727E+03  0.10000000000E+01 0.  0.
<mgrwt>
<rscale>  0 0.12499782E+03</rscale>
<asrwt>0</asrwt>
<pdfrwt beam="1">  1        4 0.21489086E-02 0.12499782E+03</pdfrwt>
<pdfrwt beam="2">  1       -4 0.43022953E-01 0.12499782E+03</pdfrwt>
<totfact> 0.76410239E+03</totfact>
</mgrwt>
</event>
<event>
 5    1  0.3217852E-002  0.1249986E+03  0.7818608E-02  0.1235071E+00
         -4   -1    0    0    0  501 -0.00000000000E+00  0.00000000000E+00  0.76228835561E+02  0.76239414157E+02  0.12700000000E+01 0. -1.
          4   -1    0    0  501    0  0.00000000000E+00 -0.00000000000E+00 -0.51220602255E+02  0.51236344477E+02  0.12700000000E+01 0. -1.
         25    2    1    2    0    0  0.00000000000E+00  0.00000000000E+00  0.25008233306E+02  0.12747575863E+03  0.12499862922E+03 0.  0.
    9000005    1    3    3    0    0  0.50109085614E+02  0.37018048388E+02  0.17490591200E+02  0.64716127418E+02  0.10000000000E+01 0.  0.
    9000005    1    3    3    0    0 -0.50109085614E+02 -0.37018048388E+02  0.75176421060E+01  0.62759631216E+02  0.10000000000E+01 0.  0.
<mgrwt>
<rscale>  0 0.12499863E+03</rscale>
<asrwt>0</asrwt>
<pdfrwt beam="2">  1        4 0.78821173E-02 0.12499863E+03</pdfrwt>
<pdfrwt beam="1">  1       -4 0.11729538E-01 0.12499863E+03</pdfrwt>
<totfact> 0.10399147E+04</totfact>
</mgrwt>
</event>
<event>
 5    1  0.3217852E-002  0.1250026E+03  0.7818608E-02  0.1235065E+00
         -4   -1    0    0    0  501 -0.00000000000E+00  0.00000000000E+00  0.56065900795E+02  0.56080282916E+02  0.12700000000E+01 0.  1.
          4   -1    0    0  501    0  0.00000000000E+00 -0.00000000000E+00 -0.69646226626E+02  0.69657804898E+02  0.12700000000E+01 0.  1.
         25    2    1    2    0    0  0.00000000000E+00  0.00000000000E+00 -0.13580325831E+02  0.12573808781E+03  0.12500256588E+03 0.  0.
    9000005    1    3    3    0    0  0.38974422026E+02 -0.47752341647E+02  0.35718424161E+01  0.61749896868E+02  0.10000000000E+01 0.  0.
    9000005    1    3    3    0    0 -0.38974422026E+02  0.47752341647E+02 -0.17152168247E+02  0.63988190946E+02  0.10000000000E+01 0.  0.
<mgrwt>
<rscale>  0 0.12500257E+03</rscale>
<asrwt>0</asrwt>
<pdfrwt beam="2">  1        4 0.10716801E-01 0.12500257E+03</pdfrwt>
<pdfrwt beam="1">  1       -4 0.86275201E-02 0.12500257E+03</pdfrwt>
<totfact> 0.10436102E+04</totfact>
</mgrwt>
</event>
<event>
 5    1  0.3217852E-002  0.1250348E+03  0.7818608E-02  0.1235015E+00
          4   -1    0    0  501    0  0.00000000000E+00  0.00000000000E+00  0.18395384064E+01  0.22353526676E+01  0.12700000000E+01 0.  1.
         -4   -1    0    0    0  501 -0.00000000000E+00 -0.00000000000E+00 -0.19178999556E+04  0.19179003761E+04  0.12700000000E+01 0.  1.
         25    2    1    2    0    0  0.00000000000E+00  0.00000000000E+00 -0.19160604172E+04  0.19201357288E+04  0.12503477316E+03 0.  0.
    9000005    1    3    3    0    0 -0.12491684518E+02 -0.58756818410E+02 -0.69247820002E+03  0.69507946552E+03  0.10000000000E+01 0.  0.
    9000005    1    3    3    0    0  0.12491684518E+02  0.58756818410E+02 -0.12235822172E+04  0.12250562633E+04  0.10000000000E+01 0.  0.
<mgrwt>
<rscale>  0 0.12503477E+03</rscale>
<asrwt>0</asrwt>
<pdfrwt beam="1">  1        4 0.31348704E-03 0.12503477E+03</pdfrwt>
<pdfrwt beam="2">  1       -4 0.29509057E+00 0.12503477E+03</pdfrwt>
<totfact> 0.10931645E+03</totfact>
</mgrwt>
</event>
<event>
 5    1  0.3217852E-002  0.1250148E+03  0.7818608E-02  0.1235046E+00
          4   -1    0    0  501    0  0.00000000000E+00  0.00000000000E+00  0.24254120037E+02  0.24287347297E+02  0.12700000000E+01 0. -1.
         -4   -1    0    0    0  501 -0.00000000000E+00 -0.00000000000E+00 -0.16094724422E+03  0.16095225479E+03  0.12700000000E+01 0. -1.
         25    2    1    2    0    0  0.00000000000E+00  0.00000000000E+00 -0.13669312418E+03  0.18523960208E+03  0.12501479905E+03 0.  0.
    9000005    1    3    3    0    0 -0.15129896122E+02  0.53758981513E+02 -0.26772343238E+02  0.61941102771E+02  0.10000000000E+01 0.  0.
    9000005    1    3    3    0    0  0.15129896122E+02 -0.53758981513E+02 -0.10992078094E+03  0.12329849931E+03  0.10000000000E+01 0.  0.
<mgrwt>
<rscale>  0 0.12501480E+03</rscale>
<asrwt>0</asrwt>
<pdfrwt beam="1">  1        4 0.37343445E-02 0.12501480E+03</pdfrwt>
<pdfrwt beam="2">  1       -4 0.24764055E-01 0.12501480E+03</pdfrwt>
<totfact> 0.92651539E+03</totfact>
</mgrwt>
</event>
<event>
 5    1  0.3217852E-002  0.1250079E+03  0.7818608E-02  0.1235057E+00
         -4   -1    0    0    0  501 -0.00000000000E+00  0.00000000000E+00  0.38032270315E+02  0.38053468768E+02  0.12700000000E+01 0. -1.
          4   -1    0    0  501    0  0.00000000000E+00 -0.00000000000E+00 -0.10266814293E+03  0.10267599755E+03  0.12700000000E+01 0. -1.
         25    2    1    2    0    0  0.00000000000E+00  0.00000000000E+00 -0.64635872612E+02  0.14072946631E+03  0.12500794639E+03 0.  0.
    9000005    1    3    3    0    0 -0.17031263155E+02 -0.59933040890E+02 -0.37799997481E+02  0.72882598228E+02  0.10000000000E+01 0.  0.
    9000005    1    3    3    0    0  0.17031263155E+02  0.59933040890E+02 -0.26835875131E+02  0.67846868085E+02  0.10000000000E+01 0.  0.
<mgrwt>
<rscale>  0 0.12500795E+03</rscale>
<asrwt>0</asrwt>
<pdfrwt beam="2">  1        4 0.15797334E-01 0.12500795E+03</pdfrwt>
<pdfrwt beam="1">  1       -4 0.58533534E-02 0.12500795E+03</pdfrwt>
<totfact> 0.10116678E+04</totfact>
</mgrwt>
</event>
<event>
 5    1  0.3217852E-002  0.1249992E+03  0.7818608E-02  0.1235071E+00
         -4   -1    0    0    0  501 -0.00000000000E+00  0.00000000000E+00  0.31892698634E+02  0.31917974970E+02  0.12700000000E+01 0. -1.
          4   -1    0    0  501    0  0.00000000000E+00 -0.00000000000E+00 -0.12240238477E+03  0.12240897310E+03  0.12700000000E+01 0. -1.
         25    2    1    2    0    0  0.00000000000E+00  0.00000000000E+00 -0.90509686132E+02  0.15432694807E+03  0.12499921447E+03 0.  0.
    9000005    1    3    3    0    0 -0.40550036135E+02  0.25354710577E+02  0.44076277071E+01  0.48037422506E+02  0.10000000000E+01 0.  0.
    9000005    1    3    3    0    0  0.40550036135E+02 -0.25354710577E+02 -0.94917313839E+02  0.10628952557E+03  0.10000000000E+01 0.  0.
<mgrwt>
<rscale>  0 0.12499921E+03</rscale>
<asrwt>0</asrwt>
<pdfrwt beam="2">  1        4 0.18833587E-01 0.12499921E+03</pdfrwt>
<pdfrwt beam="1">  1       -4 0.49090202E-02 0.12499921E+03</pdfrwt>
<totfact> 0.98449529E+03</totfact>
</mgrwt>
</event>
<event>
 5    1  0.3217852E-002  0.1250005E+03  0.7818608E-02  0.1235069E+00
         -4   -1    0    0    0  501 -0.00000000000E+00  0.00000000000E+00  0.35462390177E+01  0.37667905663E+01  0.12700000000E+01 0.  1.
          4   -1    0    0  501    0  0.00000000000E+00 -0.00000000000E+00 -0.10680857489E+04  0.10680865039E+04  0.12700000000E+01 0.  1.
         25    2    1    2    0    0  0.00000000000E+00  0.00000000000E+00 -0.10645395099E+04  0.10718532945E+04  0.12500046739E+03 0.  0.
    9000005    1    3    3    0    0 -0.22023870816E+02  0.28484074012E+02 -0.97024669920E+03  0.97091505842E+03  0.10000000000E+01 0.  0.
    9000005    1    3    3    0    0  0.22023870816E+02 -0.28484074012E+02 -0.94292810665E+02  0.10093823607E+03  0.10000000000E+01 0.  0.
<mgrwt>
<rscale>  0 0.12500047E+03</rscale>
<asrwt>0</asrwt>
<pdfrwt beam="2">  1        4 0.16433766E+00 0.12500047E+03</pdfrwt>
<pdfrwt beam="1">  1       -4 0.56259967E-03 0.12500047E+03</pdfrwt>
<totfact> 0.28321878E+03</totfact>
</mgrwt>
</event>
<event>
 5    1  0.3217852E-002  0.1249962E+03  0.7818608E-02  0.1235075E+00
         -4   -1    0    0    0  501 -0.00000000000E+00  0.00000000000E+00  0.40789477776E+03  0.40789675486E+03  0.12700000000E+01 0.  1.
          4   -1    0    0  501    0  0.00000000000E+00 -0.00000000000E+00 -0.95319160768E+01  0.96161491302E+01  0.12700000000E+01 0.  1.
         25    2    1    2    0    0  0.00000000000E+00  0.00000000000E+00  0.39836286169E+03  0.41751290399E+03  0.12499622166E+03 0.  0.
    9000005    1    3    3    0    0  0.78580292450E+01 -0.48674907466E+02  0.70941137875E+02  0.86398149769E+02  0.10000000000E+01 0.  0.
    9000005    1    3    3    0    0 -0.78580292450E+01  0.48674907466E+02  0.32742172381E+03  0.33111475422E+03  0.10000000000E+01 0.  0.
<mgrwt>
<rscale>  0 0.12499622E+03</rscale>
<asrwt>0</asrwt>
<pdfrwt beam="2">  1        4 0.14730806E-02 0.12499622E+03</pdfrwt>
<pdfrwt beam="1">  1       -4 0.62759658E-01 0.12499622E+03</pdfrwt>
<totfact> 0.62889664E+03</totfact>
</mgrwt>
</event>
<event>
 5    1  0.3217852E-002  0.1250025E+03  0.7818608E-02  0.1235065E+00
          4   -1    0    0  501    0  0.00000000000E+00  0.00000000000E+00  0.84243375948E+02  0.84252948263E+02  0.12700000000E+01 0. -1.
         -4   -1    0    0    0  501 -0.00000000000E+00 -0.00000000000E+00 -0.46349585852E+02  0.46366981880E+02  0.12700000000E+01 0. -1.
         25    2    1    2    0    0  0.00000000000E+00  0.00000000000E+00  0.37893790095E+02  0.13061993014E+03  0.12500250727E+03 0.  0.
    9000005    1    3    3    0    0 -0.26905999029E+02 -0.37756320457E+02  0.62733859676E+02  0.78012881424E+02  0.10000000000E+01 0.  0.
    9000005    1    3    3    0    0  0.26905999029E+02  0.37756320457E+02 -0.24840069581E+02  0.52607048720E+02  0.10000000000E+01 0.  0.
<mgrwt>
<rscale>  0 0.12500251E+03</rscale>
<asrwt>0</asrwt>
<pdfrwt beam="1">  1        4 0.12962594E-01 0.12500251E+03</pdfrwt>
<pdfrwt beam="2">  1       -4 0.71327801E-02 0.12500251E+03</pdfrwt>
<totfact> 0.10330660E+04</totfact>
</mgrwt>
</event>
<event>
 5    1  0.3217852E-002  0.1249859E+03  0.7818608E-02  0.1235091E+00
          4   -1    0    0  501    0  0.00000000000E+00  0.00000000000E+00  0.25100228369E+03  0.25100549659E+03  0.12700000000E+01 0. -1.
         -4   -1    0    0    0  501 -0.00000000000E+00 -0.00000000000E+00 -0.15529870484E+02  0.15581712911E+02  0.12700000000E+01 0. -1.
         25    2    1    2    0    0  0.00000000000E+00  0.00000000000E+00  0.23547241321E+03  0.26658720950E+03  0.12498593076E+03 0.  0.
    9000005    1    3    3    0    0 -0.40425728654E+02  0.46072417945E+02  0.91834973942E+02  0.11041544127E+03  0.10000000000E+01 0.  0.
    9000005    1    3    3    0    0  0.40425728654E+02 -0.46072417945E+02  0.14363743926E+03  0.15617176823E+03  0.10000000000E+01 0.  0.
<mgrwt>
<rscale>  0 0.12498593E+03</rscale>
<asrwt>0</asrwt>
<pdfrwt beam="1">  1        4 0.38619965E-01 0.12498593E+03</pdfrwt>
<pdfrwt beam="2">  1       -4 0.23934462E-02 0.12498593E+03</pdfrwt>
<totfact> 0.80015484E+03</totfact>
</mgrwt>
</event>
<event>
 5    1  0.3217852E-002  0.1249865E+03  0.7818608E-02  0.1235090E+00
         -4   -1    0    0    0  501 -0.00000000000E+00  0.00000000000E+00  0.62153121981E+03  0.62153251733E+03  0.12700000000E+01 0. -1.
          4   -1    0    0  501    0  0.00000000000E+00 -0.00000000000E+00 -0.62180337035E+01  0.63464039533E+01  0.12700000000E+01 0. -1.
         25    2    1    2    0    0  0.00000000000E+00  0.00000000000E+00  0.61531318611E+03  0.62787892128E+03  0.12498649045E+03 0.  0.
    9000005    1    3    3    0    0  0.34505269737E+02  0.49840668404E+02  0.23152004737E+03  0.23932663496E+03  0.10000000000E+01 0.  0.
    9000005    1    3    3    0    0 -0.34505269737E+02 -0.49840668404E+02  0.38379313874E+03  0.38855228633E+03  0.10000000000E+01 0.  0.
<mgrwt>
<rscale>  0 0.12498649E+03</rscale>
<asrwt>0</asrwt>
<pdfrwt beam="2">  1        4 0.96659527E-03 0.12498649E+03</pdfrwt>
<pdfrwt beam="1">  1       -4 0.95630137E-01 0.12498649E+03</pdfrwt>
<totfact> 0.47167780E+03</totfact>
</mgrwt>
</event>
<event>
 5    1  0.3217852E-002  0.1250052E+03  0.7818608E-02  0.1235061E+00
          4   -1    0    0  501    0  0.00000000000E+00  0.00000000000E+00  0.25668855066E+03  0.25669169239E+03  0.12700000000E+01 0.  1.
         -4   -1    0    0    0  501 -0.00000000000E+00 -0.00000000000E+00 -0.15189400058E+02  0.15242400536E+02  0.12700000000E+01 0.  1.
         25    2    1    2    0    0  0.00000000000E+00  0.00000000000E+00  0.24149915060E+03  0.27193409292E+03  0.12500524450E+03 0.  0.
    9000005    1    3    3    0    0  0.38823821958E+02  0.33747388361E+01  0.14469337566E+02  0.41581723668E+02  0.10000000000E+01 0.  0.
    9000005    1    3    3    0    0 -0.38823821958E+02 -0.33747388361E+01  0.22702981304E+03  0.23035236926E+03  0.10000000000E+01 0.  0.
<mgrwt>
<rscale>  0 0.12500524E+03</rscale>
<asrwt>0</asrwt>
<pdfrwt beam="1">  1        4 0.39494862E-01 0.12500524E+03</pdfrwt>
<pdfrwt beam="2">  1       -4 0.23411496E-02 0.12500524E+03</pdfrwt>
<totfact> 0.79250644E+03</totfact>
</mgrwt>
</event>
<event>
 5    1  0.3217852E-002  0.1250007E+03  0.7818608E-02  0.1235068E+00
          4   -1    0    0  501    0  0.00000000000E+00  0.00000000000E+00  0.25594172715E+02  0.25625662469E+02  0.12700000000E+01 0.  1.
         -4   -1    0    0    0  501 -0.00000000000E+00 -0.00000000000E+00 -0.15249648961E+03  0.15250177783E+03  0.12700000000E+01 0.  1.
         25    2    1    2    0    0  0.00000000000E+00  0.00000000000E+00 -0.12690231689E+03  0.17812744030E+03  0.12500074782E+03 0.  0.
    9000005    1    3    3    0    0 -0.10830619013E+02 -0.55896494687E+02 -0.26742910767E+02  0.62911872511E+02  0.10000000000E+01 0.  0.
    9000005    1    3    3    0    0  0.10830619013E+02  0.55896494687E+02 -0.10015940612E+03  0.11521556779E+03  0.10000000000E+01 0.  0.
<mgrwt>
<rscale>  0 0.12500075E+03</rscale>
<asrwt>0</asrwt>
<pdfrwt beam="1">  1        4 0.39403942E-02 0.12500075E+03</pdfrwt>
<pdfrwt beam="2">  1       -4 0.23463827E-01 0.12500075E+03</pdfrwt>
<totfact> 0.93953585E+03</totfact>
</mgrwt>
</event>
<event>
 5    1  0.3217852E-002  0.1250006E+03  0.7818608E-02  0.1235068E+00
          4   -1    0    0  501    0  0.00000000000E+00  0.00000000000E+00  0.81203265723E+02  0.81213196367E+02  0.12700000000E+01 0.  1.
         -4   -1    0    0    0  501 -0.00000000000E+00 -0.00000000000E+00 -0.48083797211E+02  0.48100566049E+02  0.12700000000E+01 0.  1.
         25    2    1    2    0    0  0.00000000000E+00  0.00000000000E+00  0.33119468513E+02  0.12931376242E+03  0.12500059982E+03 0.  0.
    9000005    1    3    3    0    0 -0.24733684561E+02  0.21869212136E+02 -0.38330194755E+02  0.50598630627E+02  0.10000000000E+01 0.  0.
    9000005    1    3    3    0    0  0.24733684561E+02 -0.21869212136E+02  0.71449663268E+02  0.78715131788E+02  0.10000000000E+01 0.  0.
<mgrwt>
<rscale>  0 0.12500060E+03</rscale>
<asrwt>0</asrwt>
<pdfrwt beam="1">  1        4 0.12494864E-01 0.12500060E+03</pdfrwt>
<pdfrwt beam="2">  1       -4 0.73995610E-02 0.12500060E+03</pdfrwt>
<totfact> 0.10359069E+04</totfact>
</mgrwt>
</event>
<event>
 5    1  0.3217852E-002  0.1250052E+03  0.7818608E-02  0.1235061E+00
          4   -1    0    0  501    0  0.00000000000E+00  0.00000000000E+00  0.33798410653E+03  0.33798649258E+03  0.12700000000E+01 0. -1.
         -4   -1    0    0    0  501 -0.00000000000E+00 -0.00000000000E+00 -0.11521141863E+02  0.11590927910E+02  0.12700000000E+01 0. -1.
         25    2    1    2    0    0  0.00000000000E+00  0.00000000000E+00  0.32646296467E+03  0.34957742049E+03  0.12500522236E+03 0.  0.
    9000005    1    3    3    0    0 -0.57227734191E+02  0.24605460176E+02  0.17725146639E+03  0.18788167705E+03  0.10000000000E+01 0.  0.
    9000005    1    3    3    0    0  0.57227734191E+02 -0.24605460176E+02  0.14921149828E+03  0.16169574345E+03  0.10000000000E+01 0.  0.
<mgrwt>
<rscale>  0 0.12500522E+03</rscale>
<asrwt>0</asrwt>
<pdfrwt beam="1">  1        4 0.52003099E-01 0.12500522E+03</pdfrwt>
<pdfrwt beam="2">  1       -4 0.17780353E-02 0.12500522E+03</pdfrwt>
<totfact> 0.69763010E+03</totfact>
</mgrwt>
</event>
<event>
 5    1  0.3217852E-002  0.1250269E+03  0.7818608E-02  0.1235027E+00
          4   -1    0    0  501    0  0.00000000000E+00  0.00000000000E+00  0.67354799898E+01  0.68541659371E+01  0.12700000000E+01 0. -1.
         -4   -1    0    0    0  501 -0.00000000000E+00 -0.00000000000E+00 -0.57501468858E+03  0.57501609106E+03  0.12700000000E+01 0. -1.
         25    2    1    2    0    0  0.00000000000E+00  0.00000000000E+00 -0.56827920859E+03  0.58187025700E+03  0.12502694536E+03 0.  0.
    9000005    1    3    3    0    0 -0.13601754135E+01 -0.56998638989E+02 -0.16491835472E+03  0.17449859211E+03  0.10000000000E+01 0.  0.
    9000005    1    3    3    0    0  0.13601754135E+01  0.56998638989E+02 -0.40336085387E+03  0.40737166489E+03  0.10000000000E+01 0.  0.
<mgrwt>
<rscale>  0 0.12502695E+03</rscale>
<asrwt>0</asrwt>
<pdfrwt beam="1">  1        4 0.10454657E-02 0.12502695E+03</pdfrwt>
<pdfrwt beam="2">  1       -4 0.88472997E-01 0.12502695E+03</pdfrwt>
<totfact> 0.50002834E+03</totfact>
</mgrwt>
</event>
<event>
 5    1  0.3217852E-002  0.1249961E+03  0.7818608E-02  0.1235075E+00
         -4   -1    0    0    0  501 -0.00000000000E+00  0.00000000000E+00  0.80819789008E+02  0.80829766765E+02  0.12700000000E+01 0.  1.
          4   -1    0    0  501    0  0.00000000000E+00 -0.00000000000E+00 -0.48308535153E+02  0.48325226007E+02  0.12700000000E+01 0.  1.
         25    2    1    2    0    0  0.00000000000E+00  0.00000000000E+00  0.32511253855E+02  0.12915499277E+03  0.12499612206E+03 0.  0.
    9000005    1    3    3    0    0  0.11352997607E+02  0.16336095545E+02 -0.44954285215E+02  0.49169567127E+02  0.10000000000E+01 0.  0.
    9000005    1    3    3    0    0 -0.11352997607E+02 -0.16336095545E+02  0.77465539069E+02  0.79985425645E+02  0.10000000000E+01 0.  0.
<mgrwt>
<rscale>  0 0.12499612E+03</rscale>
<asrwt>0</asrwt>
<pdfrwt beam="2">  1        4 0.74341338E-02 0.12499612E+03</pdfrwt>
<pdfrwt beam="1">  1       -4 0.12435865E-01 0.12499612E+03</pdfrwt>
<totfact> 0.10363525E+04</totfact>
</mgrwt>
</event>
<event>
 5    1  0.3217852E-002  0.1249943E+03  0.7818608E-02  0.1235078E+00
          4   -1    0    0  501    0  0.00000000000E+00  0.00000000000E+00  0.14431688931E+03  0.14432247726E+03  0.12700000000E+01 0. -1.
         -4   -1    0    0    0  501 -0.00000000000E+00 -0.00000000000E+00 -0.27043706769E+02  0.27073510592E+02  0.12700000000E+01 0. -1.
         25    2    1    2    0    0  0.00000000000E+00  0.00000000000E+00  0.11727318255E+03  0.17139598785E+03  0.12499434110E+03 0.  0.
    9000005    1    3    3    0    0  0.39172136077E+02 -0.34225591440E+02  0.10611856469E+03  0.11818628146E+03  0.10000000000E+01 0.  0.
    9000005    1    3    3    0    0 -0.39172136077E+02  0.34225591440E+02  0.11154617858E+02  0.53209706387E+02  0.10000000000E+01 0.  0.
<mgrwt>
<rscale>  0 0.12499434E+03</rscale>
<asrwt>0</asrwt>
<pdfrwt beam="1">  1        4 0.22205321E-01 0.12499434E+03</pdfrwt>
<pdfrwt beam="2">  1       -4 0.41632926E-02 0.12499434E+03</pdfrwt>
<totfact> 0.95201171E+03</totfact>
</mgrwt>
</event>
<event>
 5    1  0.3217852E-002  0.1249953E+03  0.7818608E-02  0.1235077E+00
          4   -1    0    0  501    0  0.00000000000E+00  0.00000000000E+00  0.32363185982E+02  0.32388095142E+02  0.12700000000E+01 0. -1.
         -4   -1    0    0    0  501 -0.00000000000E+00 -0.00000000000E+00 -0.12061669186E+03  0.12062337773E+03  0.12700000000E+01 0. -1.
         25    2    1    2    0    0  0.00000000000E+00  0.00000000000E+00 -0.88253505880E+02  0.15301147287E+03  0.12499531804E+03 0.  0.
    9000005    1    3    3    0    0  0.24435118324E+02  0.19530932181E+01  0.26237928390E+02  0.35921003143E+02  0.10000000000E+01 0.  0.
    9000005    1    3    3    0    0 -0.24435118324E+02 -0.19530932181E+01 -0.11449143427E+03  0.11709046973E+03  0.10000000000E+01 0.  0.
<mgrwt>
<rscale>  0 0.12499532E+03</rscale>
<asrwt>0</asrwt>
<pdfrwt beam="1">  1        4 0.49813821E-02 0.12499532E+03</pdfrwt>
<pdfrwt beam="2">  1       -4 0.18558844E-01 0.12499532E+03</pdfrwt>
<totfact> 0.98717156E+03</totfact>
</mgrwt>
</event>
<event>
 5    1  0.3217852E-002  0.1249945E+03  0.7818608E-02  0.1235078E+00
         -4   -1    0    0    0  501 -0.00000000000E+00  0.00000000000E+00  0.39467687704E+03  0.39467892036E+03  0.12700000000E+01 0. -1.
          4   -1    0    0  501    0  0.00000000000E+00 -0.00000000000E+00 -0.98536461756E+01  0.99351518838E+01  0.12700000000E+01 0. -1.
         25    2    1    2    0    0  0.00000000000E+00  0.00000000000E+00  0.38482323087E+03  0.40461407224E+03  0.12499451363E+03 0.  0.
    9000005    1    3    3    0    0  0.40078273734E+02 -0.68466896535E+01  0.38804523271E+02  0.56213309910E+02  0.10000000000E+01 0.  0.
    9000005    1    3    3    0    0 -0.40078273734E+02  0.68466896535E+01  0.34601870760E+03  0.34840076233E+03  0.10000000000E+01 0.  0.
<mgrwt>
<rscale>  0 0.12499451E+03</rscale>
<asrwt>0</asrwt>
<pdfrwt beam="2">  1        4 0.15223725E-02 0.12499451E+03</pdfrwt>
<pdfrwt beam="1">  1       -4 0.60725942E-01 0.12499451E+03</pdfrwt>
<totfact> 0.64114255E+03</totfact>
</mgrwt>
</event>
<event>
 5    1  0.3217852E-002  0.1250016E+03  0.7818608E-02  0.1235067E+00
          4   -1    0    0  501    0  0.00000000000E+00  0.00000000000E+00  0.67264993615E+01  0.68453410186E+01  0.12700000000E+01 0.  1.
         -4   -1    0    0    0  501 -0.00000000000E+00 -0.00000000000E+00 -0.57553597182E+03  0.57553737304E+03  0.12700000000E+01 0.  1.
         25    2    1    2    0    0  0.00000000000E+00  0.00000000000E+00 -0.56880947246E+03  0.58238271405E+03  0.12500163866E+03 0.  0.
    9000005    1    3    3    0    0  0.22742621209E+02  0.40332187627E+02 -0.88868736393E+02  0.10021259645E+03  0.10000000000E+01 0.  0.
    9000005    1    3    3    0    0 -0.22742621209E+02 -0.40332187627E+02 -0.47994073607E+03  0.48217011761E+03  0.10000000000E+01 0.  0.
<mgrwt>
<rscale>  0 0.12500164E+03</rscale>
<asrwt>0</asrwt>
<pdfrwt beam="1">  1        4 0.10440960E-02 0.12500164E+03</pdfrwt>
<pdfrwt beam="2">  1       -4 0.88553206E-01 0.12500164E+03</pdfrwt>
<totfact> 0.49997107E+03</totfact>
</mgrwt>
</event>
<event>
 5    1  0.3217852E-002  0.1249983E+03  0.7818608E-02  0.1235072E+00
         -4   -1    0    0    0  501 -0.00000000000E+00  0.00000000000E+00  0.47188617601E+01  0.48867736096E+01  0.12700000000E+01 0.  1.
          4   -1    0    0  501    0  0.00000000000E+00 -0.00000000000E+00 -0.81313429576E+03  0.81313528754E+03  0.12700000000E+01 0.  1.
         25    2    1    2    0    0  0.00000000000E+00  0.00000000000E+00 -0.80841543400E+03  0.81802206115E+03  0.12499831437E+03 0.  0.
    9000005    1    3    3    0    0 -0.30598289789E+02  0.50155141457E+02 -0.54354848343E+03  0.54671541719E+03  0.10000000000E+01 0.  0.
    9000005    1    3    3    0    0  0.30598289789E+02 -0.50155141457E+02 -0.26486695057E+03  0.27130664396E+03  0.10000000000E+01 0.  0.
<mgrwt>
<rscale>  0 0.12499831E+03</rscale>
<asrwt>0</asrwt>
<pdfrwt beam="2">  1        4 0.12511047E+00 0.12499831E+03</pdfrwt>
<pdfrwt beam="1">  1       -4 0.73897197E-03 0.12499831E+03</pdfrwt>
<totfact> 0.37474139E+03</totfact>
</mgrwt>
</event>
<event>
 5    1  0.3217852E-002  0.1250058E+03  0.7818608E-02  0.1235060E+00
         -4   -1    0    0    0  501 -0.00000000000E+00  0.00000000000E+00  0.20488629999E+02  0.20527953118E+02  0.12700000000E+01 0.  1.
          4   -1    0    0  501    0  0.00000000000E+00 -0.00000000000E+00 -0.19044785922E+03  0.19045209367E+03  0.12700000000E+01 0.  1.
         25    2    1    2    0    0  0.00000000000E+00  0.00000000000E+00 -0.16995922923E+03  0.21098004679E+03  0.12500576204E+03 0.  0.
    9000005    1    3    3    0    0  0.14110518338E+02 -0.57131692503E+02 -0.49477452837E+02  0.76890541390E+02  0.10000000000E+01 0.  0.
    9000005    1    3    3    0    0 -0.14110518338E+02  0.57131692503E+02 -0.12048177639E+03  0.13408950540E+03  0.10000000000E+01 0.  0.
<mgrwt>
<rscale>  0 0.12500576E+03</rscale>
<asrwt>0</asrwt>
<pdfrwt beam="2">  1        4 0.29303020E-01 0.12500576E+03</pdfrwt>
<pdfrwt beam="1">  1       -4 0.31554476E-02 0.12500576E+03</pdfrwt>
<totfact> 0.88304702E+03</totfact>
</mgrwt>
</event>
<event>
 5    1  0.3217852E-002  0.1249903E+03  0.7818608E-02  0.1235085E+00
          4   -1    0    0  501    0  0.00000000000E+00  0.00000000000E+00  0.36613158304E+02  0.36635177916E+02  0.12700000000E+01 0.  1.
         -4   -1    0    0    0  501 -0.00000000000E+00 -0.00000000000E+00 -0.10661528149E+03  0.10662284534E+03  0.12700000000E+01 0.  1.
         25    2    1    2    0    0  0.00000000000E+00  0.00000000000E+00 -0.70002123188E+02  0.14325802325E+03  0.12499025552E+03 0.  0.
    9000005    1    3    3    0    0 -0.58808713568E+02  0.13360761768E+02 -0.16249406623E+02  0.62466134522E+02  0.10000000000E+01 0.  0.
    9000005    1    3    3    0    0  0.58808713568E+02 -0.13360761768E+02 -0.53752716565E+02  0.80791888730E+02  0.10000000000E+01 0.  0.
<mgrwt>
<rscale>  0 0.12499026E+03</rscale>
<asrwt>0</asrwt>
<pdfrwt beam="1">  1        4 0.56350693E-02 0.12499026E+03</pdfrwt>
<pdfrwt beam="2">  1       -4 0.16404627E-01 0.12499026E+03</pdfrwt>
<totfact> 0.10068712E+04</totfact>
</mgrwt>
</event>
<event>
 5    1  0.3217852E-002  0.1250190E+03  0.7818608E-02  0.1235040E+00
         -4   -1    0    0    0  501 -0.00000000000E+00  0.00000000000E+00  0.84081449467E+02  0.84091040215E+02  0.12700000000E+01 0.  1.
          4   -1    0    0  501    0  0.00000000000E+00 -0.00000000000E+00 -0.46451146518E+02  0.46468504525E+02  0.12700000000E+01 0.  1.
         25    2    1    2    0    0  0.00000000000E+00  0.00000000000E+00  0.37630302949E+02  0.13055954474E+03  0.12501901864E+03 0.  0.
    9000005    1    3    3    0    0 -0.44812126394E+02  0.28761096931E+02  0.52993404429E+02  0.75130741256E+02  0.10000000000E+01 0.  0.
    9000005    1    3    3    0    0  0.44812126394E+02 -0.28761096931E+02 -0.15363101480E+02  0.55428803485E+02  0.10000000000E+01 0.  0.
<mgrwt>
<rscale>  0 0.12501902E+03</rscale>
<asrwt>0</asrwt>
<pdfrwt beam="2">  1        4 0.71484033E-02 0.12501902E+03</pdfrwt>
<pdfrwt beam="1">  1       -4 0.12937680E-01 0.12501902E+03</pdfrwt>
<totfact> 0.10328109E+04</totfact>
</mgrwt>
</event>
<event>
 5    1  0.3217852E-002  0.1250036E+03  0.7818608E-02  0.1235064E+00
          4   -1    0    0  501    0  0.00000000000E+00  0.00000000000E+00  0.47209985152E+02  0.47227064254E+02  0.12700000000E+01 0. -1.
         -4   -1    0    0    0  501 -0.00000000000E+00 -0.00000000000E+00 -0.82709875635E+02  0.82719625407E+02  0.12700000000E+01 0. -1.
         25    2    1    2    0    0  0.00000000000E+00  0.00000000000E+00 -0.35499890482E+02  0.12994668966E+03  0.12500359967E+03 0.  0.
    9000005    1    3    3    0    0  0.49926358416E+02 -0.21772477335E+02 -0.49601278095E+02  0.73674750237E+02  0.10000000000E+01 0.  0.
    9000005    1    3    3    0    0 -0.49926358416E+02  0.21772477335E+02  0.14101387612E+02  0.56271939424E+02  0.10000000000E+01 0.  0.
<mgrwt>
<rscale>  0 0.12500360E+03</rscale>
<asrwt>0</asrwt>
<pdfrwt beam="1">  1        4 0.72651384E-02 0.12500360E+03</pdfrwt>
<pdfrwt beam="2">  1       -4 0.12726660E-01 0.12500360E+03</pdfrwt>
<totfact> 0.10344807E+04</totfact>
</mgrwt>
</event>
<event>
 5    1  0.3217852E-002  0.1250011E+03  0.7818608E-02  0.1235067E+00
         -4   -1    0    0    0  501 -0.00000000000E+00  0.00000000000E+00  0.10184663317E+03  0.10185455114E+03  0.12700000000E+01 0.  1.
          4   -1    0    0  501    0  0.00000000000E+00 -0.00000000000E+00 -0.38335012870E+02  0.38356044005E+02  0.12700000000E+01 0.  1.
         25    2    1    2    0    0  0.00000000000E+00  0.00000000000E+00  0.63511620298E+02  0.14021059514E+03  0.12500114031E+03 0.  0.
    9000005    1    3    3    0    0  0.36534973854E+02  0.50695037266E+02  0.32572518181E+02  0.70475244296E+02  0.10000000000E+01 0.  0.
    9000005    1    3    3    0    0 -0.36534973854E+02 -0.50695037266E+02  0.30939102117E+02  0.69735350847E+02  0.10000000000E+01 0.  0.
<mgrwt>
<rscale>  0 0.12500114E+03</rscale>
<asrwt>0</asrwt>
<pdfrwt beam="2">  1        4 0.58999211E-02 0.12500114E+03</pdfrwt>
<pdfrwt beam="1">  1       -4 0.15670940E-01 0.12500114E+03</pdfrwt>
<totfact> 0.10128963E+04</totfact>
</mgrwt>
</event>
<event>
 5    1  0.3217852E-002  0.1250046E+03  0.7818608E-02  0.1235062E+00
         -4   -1    0    0    0  501 -0.00000000000E+00  0.00000000000E+00  0.12766895314E+03  0.12767526971E+03  0.12700000000E+01 0.  1.
          4   -1    0    0  501    0  0.00000000000E+00 -0.00000000000E+00 -0.30578698794E+02  0.30605060364E+02  0.12700000000E+01 0.  1.
         25    2    1    2    0    0  0.00000000000E+00  0.00000000000E+00  0.97090254343E+02  0.15828033007E+03  0.12500458151E+03 0.  0.
    9000005    1    3    3    0    0  0.61658198118E+02 -0.10126155551E+02  0.49968642851E+02  0.80013359446E+02  0.10000000000E+01 0.  0.
    9000005    1    3    3    0    0 -0.61658198118E+02  0.10126155551E+02  0.47121611492E+02  0.78266970626E+02  0.10000000000E+01 0.  0.
<mgrwt>
<rscale>  0 0.12500458E+03</rscale>
<asrwt>0</asrwt>
<pdfrwt beam="2">  1        4 0.47069289E-02 0.12500458E+03</pdfrwt>
<pdfrwt beam="1">  1       -4 0.19643891E-01 0.12500458E+03</pdfrwt>
<totfact> 0.97665292E+03</totfact>
</mgrwt>
</event>
<event>
 5    1  0.3217852E-002  0.1249993E+03  0.7818608E-02  0.1235070E+00
          4   -1    0    0  501    0  0.00000000000E+00  0.00000000000E+00  0.24590580492E+04  0.24590583772E+04  0.12700000000E+01 0. -1.
         -4   -1    0    0    0  501 -0.00000000000E+00 -0.00000000000E+00 -0.13342757037E+01  0.18420617942E+01  0.12700000000E+01 0. -1.
         25    2    1    2    0    0  0.00000000000E+00  0.00000000000E+00  0.24577237735E+04  0.24609004390E+04  0.12499929436E+03 0.  0.
    9000005    1    3    3    0    0 -0.31263370953E+02 -0.27432691129E+01  0.16496661488E+03  0.16792828205E+03  0.10000000000E+01 0.  0.
    9000005    1    3    3    0    0  0.31263370953E+02  0.27432691129E+01  0.22927571587E+04  0.22929721569E+04  0.10000000000E+01 0.  0.
<mgrwt>
<rscale>  0 0.12499929E+03</rscale>
<asrwt>0</asrwt>
<pdfrwt beam="1">  1        4 0.37835505E+00 0.12499929E+03</pdfrwt>
<pdfrwt beam="2">  1       -4 0.24435930E-03 0.12499929E+03</pdfrwt>
<totfact> 0.49839834E+02</totfact>
</mgrwt>
</event>
<event>
 5    1  0.3217852E-002  0.1250003E+03  0.7818608E-02  0.1235069E+00
         -4   -1    0    0    0  501 -0.00000000000E+00  0.00000000000E+00  0.43688611504E+02  0.43707066650E+02  0.12700000000E+01 0.  1.
          4   -1    0    0  501    0  0.00000000000E+00 -0.00000000000E+00 -0.89369768274E+02  0.89378791563E+02  0.12700000000E+01 0.  1.
         25    2    1    2    0    0  0.00000000000E+00  0.00000000000E+00 -0.45681156769E+02  0.13308585821E+03  0.12500031029E+03 0.  0.
    9000005    1    3    3    0    0 -0.59682109947E+02 -0.18731614201E+01 -0.32143610827E+01  0.59806313200E+02  0.10000000000E+01 0.  0.
    9000005    1    3    3    0    0  0.59682109947E+02  0.18731614201E+01 -0.42466795686E+02  0.73279545013E+02  0.10000000000E+01 0.  0.
<mgrwt>
<rscale>  0 0.12500031E+03</rscale>
<asrwt>0</asrwt>
<pdfrwt beam="2">  1        4 0.13751309E-01 0.12500031E+03</pdfrwt>
<pdfrwt beam="1">  1       -4 0.67234386E-02 0.12500031E+03</pdfrwt>
<totfact> 0.10278504E+04</totfact>
</mgrwt>
</event>
<event>
 5    1  0.3217852E-002  0.1249980E+03  0.7818608E-02  0.1235072E+00
          4   -1    0    0  501    0  0.00000000000E+00  0.00000000000E+00  0.35698532571E+01  0.37890305194E+01  0.12700000000E+01 0.  1.
         -4   -1    0    0    0  501 -0.00000000000E+00 -0.00000000000E+00 -0.10613880501E+04  0.10613888099E+04  0.12700000000E+01 0.  1.
         25    2    1    2    0    0  0.00000000000E+00  0.00000000000E+00 -0.10578181968E+04  0.10651778404E+04  0.12499797663E+03 0.  0.
    9000005    1    3    3    0    0 -0.50654636188E+02  0.26377293443E+02 -0.31274517603E+03  0.31791854131E+03  0.10000000000E+01 0.  0.
    9000005    1    3    3    0    0  0.50654636188E+02 -0.26377293443E+02 -0.74507302081E+03  0.74725929912E+03  0.10000000000E+01 0.  0.
<mgrwt>
<rscale>  0 0.12499798E+03</rscale>
<asrwt>0</asrwt>
<pdfrwt beam="1">  1        4 0.56612728E-03 0.12499798E+03</pdfrwt>
<pdfrwt beam="2">  1       -4 0.16330714E+00 0.12499798E+03</pdfrwt>
<totfact> 0.28526859E+03</totfact>
</mgrwt>
</event>
<event>
 5    1  0.3217852E-002  0.1249991E+03  0.7818608E-02  0.1235071E+00
         -4   -1    0    0    0  501 -0.00000000000E+00  0.00000000000E+00  0.10533218038E+02  0.10609504335E+02  0.12700000000E+01 0. -1.
          4   -1    0    0  501    0  0.00000000000E+00 -0.00000000000E+00 -0.36943001495E+03  0.36943219790E+03  0.12700000000E+01 0. -1.
         25    2    1    2    0    0  0.00000000000E+00  0.00000000000E+00 -0.35889679691E+03  0.38004170224E+03  0.12499913842E+03 0.  0.
    9000005    1    3    3    0    0  0.26788979906E+02 -0.18943018375E+02 -0.17745295806E+02  0.37314647430E+02  0.10000000000E+01 0.  0.
    9000005    1    3    3    0    0 -0.26788979906E+02  0.18943018375E+02 -0.34115150111E+03  0.34272705481E+03  0.10000000000E+01 0.  0.
<mgrwt>
<rscale>  0 0.12499914E+03</rscale>
<asrwt>0</asrwt>
<pdfrwt beam="2">  1        4 0.56841413E-01 0.12499914E+03</pdfrwt>
<pdfrwt beam="1">  1       -4 0.16265315E-02 0.12499914E+03</pdfrwt>
<totfact> 0.66542581E+03</totfact>
</mgrwt>
</event>
<event>
 5    1  0.3217852E-002  0.1250001E+03  0.7818608E-02  0.1235069E+00
         -4   -1    0    0    0  501 -0.00000000000E+00  0.00000000000E+00  0.96278899285E+02  0.96287275107E+02  0.12700000000E+01 0.  1.
          4   -1    0    0  501    0  0.00000000000E+00 -0.00000000000E+00 -0.40552188848E+02  0.40572070694E+02  0.12700000000E+01 0.  1.
         25    2    1    2    0    0  0.00000000000E+00  0.00000000000E+00  0.55726710437E+02  0.13685934580E+03  0.12500005711E+03 0.  0.
    9000005    1    3    3    0    0  0.60421923653E+02  0.15944149176E+02  0.28387087861E+02  0.68642927590E+02  0.10000000000E+01 0.  0.
    9000005    1    3    3    0    0 -0.60421923653E+02 -0.15944149176E+02  0.27339622575E+02  0.68216418210E+02  0.10000000000E+01 0.  0.
<mgrwt>
<rscale>  0 0.12500006E+03</rscale>
<asrwt>0</asrwt>
<pdfrwt beam="2">  1        4 0.62409720E-02 0.12500006E+03</pdfrwt>
<pdfrwt beam="1">  1       -4 0.14814312E-01 0.12500006E+03</pdfrwt>
<totfact> 0.10199014E+04</totfact>
</mgrwt>
</event>
<event>
 5    1  0.3217852E-002  0.1250000E+03  0.7818608E-02  0.1235069E+00
         -4   -1    0    0    0  501 -0.00000000000E+00  0.00000000000E+00  0.12664749469E+03  0.12665386221E+03  0.12700000000E+01 0.  1.
          4   -1    0    0  501    0  0.00000000000E+00 -0.00000000000E+00 -0.30823276102E+02  0.30849428677E+02  0.12700000000E+01 0.  1.
         25    2    1    2    0    0  0.00000000000E+00  0.00000000000E+00  0.95824218589E+02  0.15750329088E+03  0.12500002308E+03 0.  0.
    9000005    1    3    3    0    0 -0.37709315541E+01 -0.34124086146E+02 -0.17882228953E+02  0.38722697380E+02  0.10000000000E+01 0.  0.
    9000005    1    3    3    0    0  0.37709315541E+01  0.34124086146E+02  0.11370644754E+03  0.11878059350E+03  0.10000000000E+01 0.  0.
<mgrwt>
<rscale>  0 0.12500002E+03</rscale>
<asrwt>0</asrwt>
<pdfrwt beam="2">  1        4 0.47445440E-02 0.12500002E+03</pdfrwt>
<pdfrwt beam="1">  1       -4 0.19486732E-01 0.12500002E+03</pdfrwt>
<totfact> 0.97826250E+03</totfact>
</mgrwt>
</event>
<event>
 5    1  0.3217852E-002  0.1250039E+03  0.7818608E-02  0.1235063E+00
         -4   -1    0    0    0  501 -0.00000000000E+00  0.00000000000E+00  0.11385313432E+02  0.11455926936E+02  0.12700000000E+01 0. -1.
          4   -1    0    0  501    0  0.00000000000E+00 -0.00000000000E+00 -0.34198440673E+03  0.34198676487E+03  0.12700000000E+01 0. -1.
         25    2    1    2    0    0  0.00000000000E+00  0.00000000000E+00 -0.33059909330E+03  0.35344269181E+03  0.12500390355E+03 0.  0.
    9000005    1    3    3    0    0  0.58942467522E+01 -0.59605265105E+02 -0.21571742257E+03  0.22388062929E+03  0.10000000000E+01 0.  0.
    9000005    1    3    3    0    0 -0.58942467522E+01  0.59605265105E+02 -0.11488167073E+03  0.12956206251E+03  0.10000000000E+01 0.  0.
<mgrwt>
<rscale>  0 0.12500390E+03</rscale>
<asrwt>0</asrwt>
<pdfrwt beam="2">  1        4 0.52618591E-01 0.12500390E+03</pdfrwt>
<pdfrwt beam="1">  1       -4 0.17572001E-02 0.12500390E+03</pdfrwt>
<totfact> 0.69341485E+03</totfact>
</mgrwt>
</event>
<event>
 5    1  0.3217852E-002  0.1249998E+03  0.7818608E-02  0.1235070E+00
         -4   -1    0    0    0  501 -0.00000000000E+00  0.00000000000E+00  0.66905343480E+02  0.66917395991E+02  0.12700000000E+01 0.  1.
          4   -1    0    0  501    0  0.00000000000E+00 -0.00000000000E+00 -0.58360305827E+02  0.58374122659E+02  0.12700000000E+01 0.  1.
         25    2    1    2    0    0  0.00000000000E+00  0.00000000000E+00  0.85450376532E+01  0.12529151865E+03  0.12499978791E+03 0.  0.
    9000005    1    3    3    0    0  0.56500917956E+02 -0.22971421450E+02 -0.93679453451E+01  0.61715462676E+02  0.10000000000E+01 0.  0.
    9000005    1    3    3    0    0 -0.56500917956E+02  0.22971421450E+02  0.17912982998E+02  0.63576055974E+02  0.10000000000E+01 0.  0.
<mgrwt>
<rscale>  0 0.12499979E+03</rscale>
<asrwt>0</asrwt>
<pdfrwt beam="2">  1        4 0.89804986E-02 0.12499979E+03</pdfrwt>
<pdfrwt beam="1">  1       -4 0.10295120E-01 0.12499979E+03</pdfrwt>
<totfact> 0.10446584E+04</totfact>
</mgrwt>
</event>
<event>
 5    1  0.3217852E-002  0.1249983E+03  0.7818608E-02  0.1235072E+00
         -4   -1    0    0    0  501 -0.00000000000E+00  0.00000000000E+00  0.16953360521E+03  0.16953836202E+03  0.12700000000E+01 0. -1.
          4   -1    0    0  501    0  0.00000000000E+00 -0.00000000000E+00 -0.23017942368E+02  0.23052951456E+02  0.12700000000E+01 0. -1.
         25    2    1    2    0    0  0.00000000000E+00  0.00000000000E+00  0.14651566284E+03  0.19259131347E+03  0.12499829826E+03 0.  0.
    9000005    1    3    3    0    0  0.12509747634E+02  0.36158281148E+02 -0.28688355536E+01  0.38381574992E+02  0.10000000000E+01 0.  0.
    9000005    1    3    3    0    0 -0.12509747634E+02 -0.36158281148E+02  0.14938449840E+03  0.15420973848E+03  0.10000000000E+01 0.  0.
<mgrwt>
<rscale>  0 0.12499830E+03</rscale>
<asrwt>0</asrwt>
<pdfrwt beam="2">  1        4 0.35442806E-02 0.12499830E+03</pdfrwt>
<pdfrwt beam="1">  1       -4 0.26085153E-01 0.12499830E+03</pdfrwt>
<totfact> 0.91401861E+03</totfact>
</mgrwt>
</event>
<event>
 5    1  0.3217852E-002  0.1250161E+03  0.7818608E-02  0.1235044E+00
         -4   -1    0    0    0  501 -0.00000000000E+00  0.00000000000E+00  0.14795869024E+04  0.14795874475E+04  0.12700000000E+01 0. -1.
          4   -1    0    0  501    0  0.00000000000E+00 -0.00000000000E+00 -0.24875075667E+01  0.27929543309E+01  0.12700000000E+01 0. -1.
         25    2    1    2    0    0  0.00000000000E+00  0.00000000000E+00  0.14770993949E+04  0.14823804018E+04  0.12501613244E+03 0.  0.
    9000005    1    3    3    0    0 -0.30091543993E+02 -0.54595467957E+02  0.68539919631E+03  0.68822904941E+03  0.10000000000E+01 0.  0.
    9000005    1    3    3    0    0  0.30091543993E+02  0.54595467957E+02  0.79170019855E+03  0.79415135240E+03  0.10000000000E+01 0.  0.
<mgrwt>
<rscale>  0 0.12501613E+03</rscale>
<asrwt>0</asrwt>
<pdfrwt beam="2">  1        4 0.40623204E-03 0.12501613E+03</pdfrwt>
<pdfrwt beam="1">  1       -4 0.22765188E+00 0.12501613E+03</pdfrwt>
<totfact> 0.18272728E+03</totfact>
</mgrwt>
</event>
<event>
 5    1  0.3217852E-002  0.1250003E+03  0.7818608E-02  0.1235069E+00
          4   -1    0    0  501    0  0.00000000000E+00  0.00000000000E+00  0.20765589088E+03  0.20765977444E+03  0.12700000000E+01 0.  1.
         -4   -1    0    0    0  501 -0.00000000000E+00 -0.00000000000E+00 -0.18785774317E+02  0.18828654139E+02  0.12700000000E+01 0.  1.
         25    2    1    2    0    0  0.00000000000E+00  0.00000000000E+00  0.18887011657E+03  0.22648842858E+03  0.12500034938E+03 0.  0.
    9000005    1    3    3    0    0  0.19995920494E+02  0.27157334905E+02  0.18976099915E+03  0.19273711234E+03  0.10000000000E+01 0.  0.
    9000005    1    3    3    0    0 -0.19995920494E+02 -0.27157334905E+02 -0.89088258479E+00  0.33751316231E+02  0.10000000000E+01 0.  0.
<mgrwt>
<rscale>  0 0.12500035E+03</rscale>
<asrwt>0</asrwt>
<pdfrwt beam="1">  1        4 0.31950657E-01 0.12500035E+03</pdfrwt>
<pdfrwt beam="2">  1       -4 0.28937163E-02 0.12500035E+03</pdfrwt>
<totfact> 0.85851065E+03</totfact>
</mgrwt>
</event>
<event>
 5    1  0.3217852E-002  0.1249910E+03  0.7818608E-02  0.1235083E+00
         -4   -1    0    0    0  501 -0.00000000000E+00  0.00000000000E+00  0.58888972669E+02  0.58902665491E+02  0.12700000000E+01 0. -1.
          4   -1    0    0  501    0  0.00000000000E+00 -0.00000000000E+00 -0.66295448213E+02  0.66307611583E+02  0.12700000000E+01 0. -1.
         25    2    1    2    0    0  0.00000000000E+00  0.00000000000E+00 -0.74064755446E+01  0.12521027707E+03  0.12499103010E+03 0.  0.
    9000005    1    3    3    0    0  0.12061674935E+02  0.41087063466E+02 -0.49291949993E+02  0.65301815599E+02  0.10000000000E+01 0.  0.
    9000005    1    3    3    0    0 -0.12061674935E+02 -0.41087063466E+02  0.41885474448E+02  0.59908461474E+02  0.10000000000E+01 0.  0.
<mgrwt>
<rscale>  0 0.12499103E+03</rscale>
<asrwt>0</asrwt>
<pdfrwt beam="2">  1        4 0.10201289E-01 0.12499103E+03</pdfrwt>
<pdfrwt beam="1">  1       -4 0.90618308E-02 0.12499103E+03</pdfrwt>
<totfact> 0.10450415E+04</totfact>
</mgrwt>
</event>
<event>
 5    1  0.3217852E-002  0.1249991E+03  0.7818608E-02  0.1235071E+00
         -4   -1    0    0    0  501 -0.00000000000E+00  0.00000000000E+00  0.13087574570E+03  0.13088190751E+03  0.12700000000E+01 0. -1.
          4   -1    0    0  501    0  0.00000000000E+00 -0.00000000000E+00 -0.29826181479E+02  0.29853207560E+02  0.12700000000E+01 0. -1.
         25    2    1    2    0    0  0.00000000000E+00  0.00000000000E+00  0.10104956422E+03  0.16073511507E+03  0.12499905114E+03 0.  0.
    9000005    1    3    3    0    0  0.16685287092E+02  0.63453671737E+00 -0.26910923255E+02  0.31685946927E+02  0.10000000000E+01 0.  0.
    9000005    1    3    3    0    0 -0.16685287092E+02 -0.63453671737E+00  0.12796048748E+03  0.12904916814E+03  0.10000000000E+01 0.  0.
<mgrwt>
<rscale>  0 0.12499905E+03</rscale>
<asrwt>0</asrwt>
<pdfrwt beam="2">  1        4 0.45911961E-02 0.12499905E+03</pdfrwt>
<pdfrwt beam="1">  1       -4 0.20137284E-01 0.12499905E+03</pdfrwt>
<totfact> 0.97203320E+03</totfact>
</mgrwt>
</event>
<event>
 5    1  0.3217852E-002  0.1249935E+03  0.7818608E-02  0.1235079E+00
          4   -1    0    0  501    0  0.00000000000E+00  0.00000000000E+00  0.11697523481E+04  0.11697530375E+04  0.12700000000E+01 0. -1.
         -4   -1    0    0    0  501 -0.00000000000E+00 -0.00000000000E+00 -0.32175591066E+01  0.34591309031E+01  0.12700000000E+01 0. -1.
         25    2    1    2    0    0  0.00000000000E+00  0.00000000000E+00  0.11665347890E+04  0.11732121684E+04  0.12499351264E+03 0.  0.
    9000005    1    3    3    0    0  0.16000351918E+02 -0.37745369926E+02  0.14060948723E+03  0.14646758041E+03  0.10000000000E+01 0.  0.
    9000005    1    3    3    0    0 -0.16000351918E+02  0.37745369926E+02  0.10259253018E+04  0.10267445880E+04  0.10000000000E+01 0.  0.
<mgrwt>
<rscale>  0 0.12499351E+03</rscale>
<asrwt>0</asrwt>
<pdfrwt beam="1">  1        4 0.17998028E+00 0.12499351E+03</pdfrwt>
<pdfrwt beam="2">  1       -4 0.51364529E-03 0.12499351E+03</pdfrwt>
<totfact> 0.25428525E+03</totfact>
</mgrwt>
</event>
<event>
 5    1  0.3217852E-002  0.1250011E+03  0.7818608E-02  0.1235068E+00
         -4   -1    0    0    0  501 -0.00000000000E+00  0.00000000000E+00  0.87597816586E+02  0.87607022382E+02  0.12700000000E+01 0.  1.
          4   -1    0    0  501    0  0.00000000000E+00 -0.00000000000E+00 -0.44573198961E+02  0.44591288001E+02  0.12700000000E+01 0.  1.
         25    2    1    2    0    0  0.00000000000E+00  0.00000000000E+00  0.43024617625E+02  0.13219831038E+03  0.12500110218E+03 0.  0.
    9000005    1    3    3    0    0 -0.41287619541E+02  0.46577294710E+02  0.27420273767E+02  0.68021932664E+02  0.10000000000E+01 0.  0.
    9000005    1    3    3    0    0  0.41287619541E+02 -0.46577294710E+02  0.15604343859E+02  0.64176377719E+02  0.10000000000E+01 0.  0.
<mgrwt>
<rscale>  0 0.12500110E+03</rscale>
<asrwt>0</asrwt>
<pdfrwt beam="2">  1        4 0.68595149E-02 0.12500110E+03</pdfrwt>
<pdfrwt beam="1">  1       -4 0.13478687E-01 0.12500110E+03</pdfrwt>
<totfact> 0.10297211E+04</totfact>
</mgrwt>
</event>
<event>
 5    1  0.3217852E-002  0.1250076E+03  0.7818608E-02  0.1235057E+00
          4   -1    0    0  501    0  0.00000000000E+00  0.00000000000E+00  0.10129947755E+03  0.10130743828E+03  0.12700000000E+01 0.  1.
         -4   -1    0    0    0  501 -0.00000000000E+00 -0.00000000000E+00 -0.38546135475E+02  0.38567051483E+02  0.12700000000E+01 0.  1.
         25    2    1    2    0    0  0.00000000000E+00  0.00000000000E+00  0.62753342070E+02  0.13987448976E+03  0.12500756355E+03 0.  0.
    9000005    1    3    3    0    0 -0.41756558972E+02 -0.45275775455E+02  0.19523598965E+02  0.64619478308E+02  0.10000000000E+01 0.  0.
    9000005    1    3    3    0    0  0.41756558972E+02  0.45275775455E+02  0.43229743106E+02  0.75255011456E+02  0.10000000000E+01 0.  0.
<mgrwt>
<rscale>  0 0.12500756E+03</rscale>
<asrwt>0</asrwt>
<pdfrwt beam="1">  1        4 0.15586756E-01 0.12500756E+03</pdfrwt>
<pdfrwt beam="2">  1       -4 0.59323961E-02 0.12500756E+03</pdfrwt>
<totfact> 0.10134461E+04</totfact>
</mgrwt>
</event>
<event>
 5    1  0.3217852E-002  0.1249992E+03  0.7818608E-02  0.1235071E+00
         -4   -1    0    0    0  501 -0.00000000000E+00  0.00000000000E+00  0.20693557850E+03  0.20693947557E+03  0.12700000000E+01 0. -1.
          4   -1    0    0  501    0  0.00000000000E+00 -0.00000000000E+00 -0.18850959167E+02  0.18893691051E+02  0.12700000000E+01 0. -1.
         25    2    1    2    0    0  0.00000000000E+00  0.00000000000E+00  0.18808461933E+03  0.22583316662E+03  0.12499918046E+03 0.  0.
    9000005    1    3    3    0    0 -0.20833492586E+02 -0.51796359044E+02  0.43316761335E+02  0.70669930212E+02  0.10000000000E+01 0.  0.
    9000005    1    3    3    0    0  0.20833492586E+02  0.51796359044E+02  0.14476785800E+03  0.15516323641E+03  0.10000000000E+01 0.  0.
<mgrwt>
<rscale>  0 0.12499918E+03</rscale>
<asrwt>0</asrwt>
<pdfrwt beam="2">  1        4 0.29037342E-02 0.12499918E+03</pdfrwt>
<pdfrwt beam="1">  1       -4 0.31839832E-01 0.12499918E+03</pdfrwt>
<totfact> 0.85955122E+03</totfact>
</mgrwt>
</event>
<event>
 5    1  0.3217852E-002  0.1249986E+03  0.7818608E-02  0.1235071E+00
          4   -1    0    0  501    0  0.00000000000E+00  0.00000000000E+00  0.98867645739E+03  0.98867727308E+03  0.12700000000E+01 0.  1.
         -4   -1    0    0    0  501 -0.00000000000E+00 -0.00000000000E+00 -0.38480055818E+01  0.40521657120E+01  0.12700000000E+01 0.  1.
         25    2    1    2    0    0  0.00000000000E+00  0.00000000000E+00  0.98482845181E+03  0.99272943879E+03  0.12499863657E+03 0.  0.
    9000005    1    3    3    0    0 -0.52666313263E+02  0.25740148155E+02  0.32044474207E+03  0.32576391528E+03  0.10000000000E+01 0.  0.
    9000005    1    3    3    0    0  0.52666313263E+02 -0.25740148155E+02  0.66438370974E+03  0.66696552351E+03  0.10000000000E+01 0.  0.
<mgrwt>
<rscale>  0 0.12499864E+03</rscale>
<asrwt>0</asrwt>
<pdfrwt beam="1">  1        4 0.15212000E+00 0.12499864E+03</pdfrwt>
<pdfrwt beam="2">  1       -4 0.60776756E-03 0.12499864E+03</pdfrwt>
<totfact> 0.30846643E+03</totfact>
</mgrwt>
</event>
<event>
 5    1  0.3217852E-002  0.1250010E+03  0.7818608E-02  0.1235068E+00
         -4   -1    0    0    0  501 -0.00000000000E+00  0.00000000000E+00  0.17892462810E+03  0.17892913525E+03  0.12700000000E+01 0. -1.
          4   -1    0    0  501    0  0.00000000000E+00 -0.00000000000E+00 -0.21808908528E+02  0.21845855240E+02  0.12700000000E+01 0. -1.
         25    2    1    2    0    0  0.00000000000E+00  0.00000000000E+00  0.15711571957E+03  0.20077499049E+03  0.12500098987E+03 0.  0.
    9000005    1    3    3    0    0  0.32680616420E+01  0.59900115676E+02  0.50433169486E+02  0.78378623803E+02  0.10000000000E+01 0.  0.
    9000005    1    3    3    0    0 -0.32680616420E+01 -0.59900115676E+02  0.10668255008E+03  0.12239636668E+03  0.10000000000E+01 0.  0.
<mgrwt>
<rscale>  0 0.12500099E+03</rscale>
<asrwt>0</asrwt>
<pdfrwt beam="2">  1        4 0.33584053E-02 0.12500099E+03</pdfrwt>
<pdfrwt beam="1">  1       -4 0.27530056E-01 0.12500099E+03</pdfrwt>
<totfact> 0.90002967E+03</totfact>
</mgrwt>
</event>
<event>
 5    1  0.3217852E-002  0.1250062E+03  0.7818608E-02  0.1235060E+00
          4   -1    0    0  501    0  0.00000000000E+00  0.00000000000E+00  0.48451542609E+03  0.48451709053E+03  0.12700000000E+01 0.  1.
         -4   -1    0    0    0  501 -0.00000000000E+00 -0.00000000000E+00 -0.80112843066E+01  0.81113239512E+01  0.12700000000E+01 0.  1.
         25    2    1    2    0    0  0.00000000000E+00  0.00000000000E+00  0.47650414178E+03  0.49262841448E+03  0.12500623033E+03 0.  0.
    9000005    1    3    3    0    0 -0.28116886216E+02 -0.16828434704E+02  0.28538989557E+02  0.43465266938E+02  0.10000000000E+01 0.  0.
    9000005    1    3    3    0    0  0.28116886216E+02  0.16828434704E+02  0.44796515222E+03  0.44916314754E+03  0.10000000000E+01 0.  0.
<mgrwt>
<rscale>  0 0.12500623E+03</rscale>
<asrwt>0</asrwt>
<pdfrwt beam="1">  1        4 0.74548652E-01 0.12500623E+03</pdfrwt>
<pdfrwt beam="2">  1       -4 0.12403288E-02 0.12500623E+03</pdfrwt>
<totfact> 0.56433149E+03</totfact>
</mgrwt>
</event>
<event>
 5    1  0.3217852E-002  0.1249996E+03  0.7818608E-02  0.1235070E+00
          4   -1    0    0  501    0  0.00000000000E+00  0.00000000000E+00  0.19408952610E+03  0.19409368110E+03  0.12700000000E+01 0. -1.
         -4   -1    0    0    0  501 -0.00000000000E+00 -0.00000000000E+00 -0.20101489948E+02  0.20141568910E+02  0.12700000000E+01 0. -1.
         25    2    1    2    0    0  0.00000000000E+00  0.00000000000E+00  0.17398803615E+03  0.21423525000E+03  0.12499962248E+03 0.  0.
    9000005    1    3    3    0    0 -0.17923327535E+02 -0.56549167342E+02  0.12067407754E+03  0.13447039446E+03  0.10000000000E+01 0.  0.
    9000005    1    3    3    0    0  0.17923327535E+02  0.56549167342E+02  0.53313958611E+02  0.79764855543E+02  0.10000000000E+01 0.  0.
<mgrwt>
<rscale>  0 0.12499962E+03</rscale>
<asrwt>0</asrwt>
<pdfrwt beam="1">  1        4 0.29863329E-01 0.12499962E+03</pdfrwt>
<pdfrwt beam="2">  1       -4 0.30959396E-02 0.12499962E+03</pdfrwt>
<totfact> 0.87789587E+03</totfact>
</mgrwt>
</event>
<event>
 5    1  0.3217852E-002  0.1249949E+03  0.7818608E-02  0.1235077E+00
          4   -1    0    0  501    0  0.00000000000E+00  0.00000000000E+00  0.31875310170E+03  0.31875563171E+03  0.12700000000E+01 0.  1.
         -4   -1    0    0    0  501 -0.00000000000E+00 -0.00000000000E+00 -0.12218283945E+02  0.12284110165E+02  0.12700000000E+01 0.  1.
         25    2    1    2    0    0  0.00000000000E+00  0.00000000000E+00  0.30653481776E+03  0.33103974187E+03  0.12499486470E+03 0.  0.
    9000005    1    3    3    0    0  0.16302286029E+02  0.56984687127E+02  0.20569756015E+03  0.21406892663E+03  0.10000000000E+01 0.  0.
    9000005    1    3    3    0    0 -0.16302286029E+02 -0.56984687127E+02  0.10083725761E+03  0.11697081524E+03  0.10000000000E+01 0.  0.
<mgrwt>
<rscale>  0 0.12499486E+03</rscale>
<asrwt>0</asrwt>
<pdfrwt beam="1">  1        4 0.49044194E-01 0.12499486E+03</pdfrwt>
<pdfrwt beam="2">  1       -4 0.18849943E-02 0.12499486E+03</pdfrwt>
<totfact> 0.71870227E+03</totfact>
</mgrwt>
</event>
<event>
 5    1  0.3217852E-002  0.1250005E+03  0.7818608E-02  0.1235068E+00
         -4   -1    0    0    0  501 -0.00000000000E+00  0.00000000000E+00  0.99527742577E+03  0.99527823605E+03  0.12700000000E+01 0. -1.
          4   -1    0    0  501    0  0.00000000000E+00 -0.00000000000E+00 -0.38212491940E+01  0.40267661221E+01  0.12700000000E+01 0. -1.
         25    2    1    2    0    0  0.00000000000E+00  0.00000000000E+00  0.99145617658E+03  0.99930500217E+03  0.12500054915E+03 0.  0.
    9000005    1    3    3    0    0  0.65420558982E+00 -0.61629814243E+02  0.41317938953E+03  0.41775216327E+03  0.10000000000E+01 0.  0.
    9000005    1    3    3    0    0 -0.65420558982E+00  0.61629814243E+02  0.57827678705E+03  0.58155283889E+03  0.10000000000E+01 0.  0.
<mgrwt>
<rscale>  0 0.12500055E+03</rscale>
<asrwt>0</asrwt>
<pdfrwt beam="2">  1        4 0.60375513E-03 0.12500055E+03</pdfrwt>
<pdfrwt beam="1">  1       -4 0.15313565E+00 0.12500055E+03</pdfrwt>
<totfact> 0.30627036E+03</totfact>
</mgrwt>
</event>
<event>
 5    1  0.3217852E-002  0.1250015E+03  0.7818608E-02  0.1235067E+00
          4   -1    0    0  501    0  0.00000000000E+00  0.00000000000E+00  0.80521223574E+01  0.81516608405E+01  0.12700000000E+01 0. -1.
         -4   -1    0    0    0  501 -0.00000000000E+00 -0.00000000000E+00 -0.48205167465E+03  0.48205334761E+03  0.12700000000E+01 0. -1.
         25    2    1    2    0    0  0.00000000000E+00  0.00000000000E+00 -0.47399955230E+03  0.49020500845E+03  0.12500149890E+03 0.  0.
    9000005    1    3    3    0    0  0.91057846452E+01  0.52379660671E+02 -0.36580482744E+03  0.36964945008E+03  0.10000000000E+01 0.  0.
    9000005    1    3    3    0    0 -0.91057846452E+01 -0.52379660671E+02 -0.10819472486E+03  0.12055555837E+03  0.10000000000E+01 0.  0.
<mgrwt>
<rscale>  0 0.12500150E+03</rscale>
<asrwt>0</asrwt>
<pdfrwt beam="1">  1        4 0.12465739E-02 0.12500150E+03</pdfrwt>
<pdfrwt beam="2">  1       -4 0.74169559E-01 0.12500150E+03</pdfrwt>
<totfact> 0.56630570E+03</totfact>
</mgrwt>
</event>
<event>
 5    1  0.3217852E-002  0.1250020E+03  0.7818608E-02  0.1235066E+00
          4   -1    0    0  501    0  0.00000000000E+00  0.00000000000E+00  0.44934468776E+02  0.44952412440E+02  0.12700000000E+01 0.  1.
         -4   -1    0    0    0  501 -0.00000000000E+00 -0.00000000000E+00 -0.86894991501E+02  0.86904271747E+02  0.12700000000E+01 0.  1.
         25    2    1    2    0    0  0.00000000000E+00  0.00000000000E+00 -0.41960522724E+02  0.13185668419E+03  0.12500199877E+03 0.  0.
    9000005    1    3    3    0    0 -0.57108493957E+02 -0.13358203761E+02  0.17796133540E+01  0.58685506843E+02  0.10000000000E+01 0.  0.
    9000005    1    3    3    0    0  0.57108493957E+02  0.13358203761E+02 -0.43740136078E+02  0.73171177344E+02  0.10000000000E+01 0.  0.
<mgrwt>
<rscale>  0 0.12500200E+03</rscale>
<asrwt>0</asrwt>
<pdfrwt beam="1">  1        4 0.69150894E-02 0.12500200E+03</pdfrwt>
<pdfrwt beam="2">  1       -4 0.13370554E-01 0.12500200E+03</pdfrwt>
<totfact> 0.10304294E+04</totfact>
</mgrwt>
</event>
<event>
 5    1  0.3217852E-002  0.1249996E+03  0.7818608E-02  0.1235070E+00
          4   -1    0    0  501    0  0.00000000000E+00  0.00000000000E+00  0.93589609234E+02  0.93598225713E+02  0.12700000000E+01 0.  1.
         -4   -1    0    0    0  501 -0.00000000000E+00 -0.00000000000E+00 -0.41717581905E+02  0.41736908606E+02  0.12700000000E+01 0.  1.
         25    2    1    2    0    0  0.00000000000E+00  0.00000000000E+00  0.51872027329E+02  0.13533513432E+03  0.12499956545E+03 0.  0.
    9000005    1    3    3    0    0  0.39464815334E+02  0.46858834958E+02  0.12587744365E+02  0.62551365861E+02  0.10000000000E+01 0.  0.
    9000005    1    3    3    0    0 -0.39464815334E+02 -0.46858834958E+02  0.39284282964E+02  0.72783768458E+02  0.10000000000E+01 0.  0.
<mgrwt>
<rscale>  0 0.12499957E+03</rscale>
<asrwt>0</asrwt>
<pdfrwt beam="1">  1        4 0.14400551E-01 0.12499957E+03</pdfrwt>
<pdfrwt beam="2">  1       -4 0.64202391E-02 0.12499957E+03</pdfrwt>
<totfact> 0.10231112E+04</totfact>
</mgrwt>
</event>
<event>
 5    1  0.3217852E-002  0.1250101E+03  0.7818608E-02  0.1235053E+00
         -4   -1    0    0    0  501 -0.00000000000E+00  0.00000000000E+00  0.60469711098E+03  0.60469844462E+03  0.12700000000E+01 0. -1.
          4   -1    0    0  501    0  0.00000000000E+00 -0.00000000000E+00 -0.63971263244E+01  0.65219724938E+01  0.12700000000E+01 0. -1.
         25    2    1    2    0    0  0.00000000000E+00  0.00000000000E+00  0.59829998466E+03  0.61122041712E+03  0.12501010623E+03 0.  0.
    9000005    1    3    3    0    0  0.39481701038E+02 -0.31597676918E+02  0.11959206948E+03  0.12984791483E+03  0.10000000000E+01 0.  0.
    9000005    1    3    3    0    0 -0.39481701038E+02  0.31597676918E+02  0.47870791518E+03  0.48137250229E+03  0.10000000000E+01 0.  0.
<mgrwt>
<rscale>  0 0.12501011E+03</rscale>
<asrwt>0</asrwt>
<pdfrwt beam="2">  1        4 0.99387949E-03 0.12501011E+03</pdfrwt>
<pdfrwt beam="1">  1       -4 0.93040025E-01 0.12501011E+03</pdfrwt>
<totfact> 0.48156252E+03</totfact>
</mgrwt>
</event>
<event>
 5    1  0.3217852E-002  0.1250110E+03  0.7818608E-02  0.1235052E+00
         -4   -1    0    0    0  501 -0.00000000000E+00  0.00000000000E+00  0.62997977007E+01  0.64265349194E+01  0.12700000000E+01 0. -1.
          4   -1    0    0  501    0  0.00000000000E+00 -0.00000000000E+00 -0.61386491939E+03  0.61386623311E+03  0.12700000000E+01 0. -1.
         25    2    1    2    0    0  0.00000000000E+00  0.00000000000E+00 -0.60756512169E+03  0.62029276803E+03  0.12501096344E+03 0.  0.
    9000005    1    3    3    0    0 -0.21130134616E+02  0.17212067102E+02 -0.24713453505E+02  0.36803432272E+02  0.10000000000E+01 0.  0.
    9000005    1    3    3    0    0  0.21130134616E+02 -0.17212067102E+02 -0.58285166818E+03  0.58348933576E+03  0.10000000000E+01 0.  0.
<mgrwt>
<rscale>  0 0.12501096E+03</rscale>
<asrwt>0</asrwt>
<pdfrwt beam="2">  1        4 0.94450560E-01 0.12501096E+03</pdfrwt>
<pdfrwt beam="1">  1       -4 0.97905021E-03 0.12501096E+03</pdfrwt>
<totfact> 0.47599804E+03</totfact>
</mgrwt>
</event>
<event>
 5    1  0.3217852E-002  0.1249962E+03  0.7818608E-02  0.1235075E+00
          4   -1    0    0  501    0  0.00000000000E+00  0.00000000000E+00  0.97784273325E+02  0.97792520213E+02  0.12700000000E+01 0. -1.
         -4   -1    0    0    0  501 -0.00000000000E+00 -0.00000000000E+00 -0.39925171792E+02  0.39945365722E+02  0.12700000000E+01 0. -1.
         25    2    1    2    0    0  0.00000000000E+00  0.00000000000E+00  0.57859101532E+02  0.13773788594E+03  0.12499619831E+03 0.  0.
    9000005    1    3    3    0    0  0.92307584260E+00  0.47782353256E+02 -0.15436325117E+02  0.50232315145E+02  0.10000000000E+01 0.  0.
    9000005    1    3    3    0    0 -0.92307584260E+00 -0.47782353256E+02  0.73295426649E+02  0.87505570791E+02  0.10000000000E+01 0.  0.
<mgrwt>
<rscale>  0 0.12499620E+03</rscale>
<asrwt>0</asrwt>
<pdfrwt beam="1">  1        4 0.15045922E-01 0.12499620E+03</pdfrwt>
<pdfrwt beam="2">  1       -4 0.61445220E-02 0.12499620E+03</pdfrwt>
<totfact> 0.10181553E+04</totfact>
</mgrwt>
</event>
<event>
 5    1  0.3217852E-002  0.1249977E+03  0.7818608E-02  0.1235073E+00
          4   -1    0    0  501    0  0.00000000000E+00  0.00000000000E+00  0.28941685847E+02  0.28969537098E+02  0.12700000000E+01 0. -1.
         -4   -1    0    0    0  501 -0.00000000000E+00 -0.00000000000E+00 -0.13486895852E+03  0.13487493790E+03  0.12700000000E+01 0. -1.
         25    2    1    2    0    0  0.00000000000E+00  0.00000000000E+00 -0.10592727267E+03  0.16384447499E+03  0.12499769954E+03 0.  0.
    9000005    1    3    3    0    0 -0.44720895712E+02 -0.35904853699E+02 -0.85496053019E+02  0.10295480617E+03  0.10000000000E+01 0.  0.
    9000005    1    3    3    0    0  0.44720895712E+02  0.35904853699E+02 -0.20431219655E+02  0.60889668820E+02  0.10000000000E+01 0.  0.
<mgrwt>
<rscale>  0 0.12499770E+03</rscale>
<asrwt>0</asrwt>
<pdfrwt beam="1">  1        4 0.44551695E-02 0.12499770E+03</pdfrwt>
<pdfrwt beam="2">  1       -4 0.20751673E-01 0.12499770E+03</pdfrwt>
<totfact> 0.96611672E+03</totfact>
</mgrwt>
</event>
<event>
 5    1  0.3217852E-002  0.1249941E+03  0.7818608E-02  0.1235079E+00
          4   -1    0    0  501    0  0.00000000000E+00  0.00000000000E+00  0.39247599538E+02  0.39268141916E+02  0.12700000000E+01 0. -1.
         -4   -1    0    0    0  501 -0.00000000000E+00 -0.00000000000E+00 -0.99468314456E+02  0.99476421732E+02  0.12700000000E+01 0. -1.
         25    2    1    2    0    0  0.00000000000E+00  0.00000000000E+00 -0.60220714917E+02  0.13874456365E+03  0.12499407761E+03 0.  0.
    9000005    1    3    3    0    0 -0.56200897392E+02  0.19580751605E+02 -0.89637909167E+01  0.60193822346E+02  0.10000000000E+01 0.  0.
    9000005    1    3    3    0    0  0.56200897392E+02 -0.19580751605E+02 -0.51256924000E+02  0.78550741302E+02  0.10000000000E+01 0.  0.
<mgrwt>
<rscale>  0 0.12499408E+03</rscale>
<asrwt>0</asrwt>
<pdfrwt beam="1">  1        4 0.60402961E-02 0.12499408E+03</pdfrwt>
<pdfrwt beam="2">  1       -4 0.15305021E-01 0.12499408E+03</pdfrwt>
<totfact> 0.10161028E+04</totfact>
</mgrwt>
</event>
<event>
 5    1  0.3217852E-002  0.1249996E+03  0.7818608E-02  0.1235070E+00
          4   -1    0    0  501    0  0.00000000000E+00  0.00000000000E+00  0.17754317535E+03  0.17754771757E+03  0.12700000000E+01 0.  1.
         -4   -1    0    0    0  501 -0.00000000000E+00 -0.00000000000E+00 -0.21978384801E+02  0.22015047092E+02  0.12700000000E+01 0.  1.
         25    2    1    2    0    0  0.00000000000E+00  0.00000000000E+00  0.15556479055E+03  0.19956276466E+03  0.12499957192E+03 0.  0.
    9000005    1    3    3    0    0 -0.27984859959E+02 -0.44553623649E+02  0.23947991965E+02  0.57815950103E+02  0.10000000000E+01 0.  0.
    9000005    1    3    3    0    0  0.27984859959E+02  0.44553623649E+02  0.13161679858E+03  0.14174681455E+03  0.10000000000E+01 0.  0.
<mgrwt>
<rscale>  0 0.12499957E+03</rscale>
<asrwt>0</asrwt>
<pdfrwt beam="1">  1        4 0.27317504E-01 0.12499957E+03</pdfrwt>
<pdfrwt beam="2">  1       -4 0.33844596E-02 0.12499957E+03</pdfrwt>
<totfact> 0.90210166E+03</totfact>
</mgrwt>
</event>
<event>
 5    1  0.3217852E-002  0.1250011E+03  0.7818608E-02  0.1235068E+00
         -4   -1    0    0    0  501 -0.00000000000E+00  0.00000000000E+00  0.45105060493E+01  0.46858899711E+01  0.12700000000E+01 0. -1.
          4   -1    0    0  501    0  0.00000000000E+00 -0.00000000000E+00 -0.84935701032E+03  0.84935795980E+03  0.12700000000E+01 0. -1.
         25    2    1    2    0    0  0.00000000000E+00  0.00000000000E+00 -0.84484650427E+03  0.85404384977E+03  0.12500112623E+03 0.  0.
    9000005    1    3    3    0    0 -0.30741624798E+01  0.40237152608E+02 -0.74843454165E+03  0.74952234260E+03  0.10000000000E+01 0.  0.
    9000005    1    3    3    0    0  0.30741624798E+01 -0.40237152608E+02 -0.96411962619E+02  0.10452150717E+03  0.10000000000E+01 0.  0.
<mgrwt>
<rscale>  0 0.12500113E+03</rscale>
<asrwt>0</asrwt>
<pdfrwt beam="2">  1        4 0.13068375E+00 0.12500113E+03</pdfrwt>
<pdfrwt beam="1">  1       -4 0.70748879E-03 0.12500113E+03</pdfrwt>
<totfact> 0.35961561E+03</totfact>
</mgrwt>
</event>
<event>
 5    1  0.3217852E-002  0.1249967E+03  0.7818608E-02  0.1235075E+00
          4   -1    0    0  501    0  0.00000000000E+00  0.00000000000E+00  0.85684735043E+02  0.85694146354E+02  0.12700000000E+01 0. -1.
         -4   -1    0    0    0  501 -0.00000000000E+00 -0.00000000000E+00 -0.45565431255E+02  0.45583126543E+02  0.12700000000E+01 0. -1.
         25    2    1    2    0    0  0.00000000000E+00  0.00000000000E+00  0.40119303788E+02  0.13127727290E+03  0.12499665533E+03 0.  0.
    9000005    1    3    3    0    0 -0.20726912093E+02 -0.58146427810E+02  0.98539267151E+01  0.62519691487E+02  0.10000000000E+01 0.  0.
    9000005    1    3    3    0    0  0.20726912093E+02  0.58146427810E+02  0.30265377073E+02  0.68757581410E+02  0.10000000000E+01 0.  0.
<mgrwt>
<rscale>  0 0.12499666E+03</rscale>
<asrwt>0</asrwt>
<pdfrwt beam="1">  1        4 0.13184352E-01 0.12499666E+03</pdfrwt>
<pdfrwt beam="2">  1       -4 0.70121516E-02 0.12499666E+03</pdfrwt>
<totfact> 0.10317927E+04</totfact>
</mgrwt>
</event>
<event>
 4    1  0.3217852E-002  0.1251049E+03  0.7818608E-02  0.1234905E+00
          4   -1    0    0  501    0  0.00000000000E+00  0.00000000000E+00  0.18613647660E+03  0.18614080912E+03  0.12700000000E+01 0. -1.
         -4   -1    0    0    0  501 -0.00000000000E+00 -0.00000000000E+00 -0.20997428844E+02  0.21035800865E+02  0.12700000000E+01 0. -1.
    9000005    1    1    2    0    0 -0.46131925524E+02 -0.12293757137E+02  0.15658832420E+02  0.50254254047E+02  0.10000000000E+01 0.  0.
    9000005    1    1    2    0    0  0.46131925524E+02  0.12293757137E+02  0.14948021533E+03  0.15692235594E+03  0.10000000000E+01 0.  0.
<mgrwt>
<rscale>  0 0.12510493E+03</rscale>
<asrwt>0</asrwt>
<pdfrwt beam="1">  1        4 0.28639665E-01 0.12510493E+03</pdfrwt>
<pdfrwt beam="2">  1       -4 0.32336587E-02 0.12510493E+03</pdfrwt>
<totfact> 0.88730698E+03</totfact>
</mgrwt>
</event>
<event>
 5    1  0.3217852E-002  0.1249958E+03  0.7818608E-02  0.1235076E+00
         -4   -1    0    0    0  501 -0.00000000000E+00  0.00000000000E+00  0.18135730626E+02  0.18180143710E+02  0.12700000000E+01 0. -1.
          4   -1    0    0  501    0  0.00000000000E+00 -0.00000000000E+00 -0.21506560863E+03  0.21506935839E+03  0.12700000000E+01 0. -1.
         25    2    1    2    0    0  0.00000000000E+00  0.00000000000E+00 -0.19692987801E+03  0.23324950210E+03  0.12499581343E+03 0.  0.
    9000005    1    3    3    0    0 -0.59723567606E+02  0.10622118983E+02 -0.70458241263E+02  0.92979017531E+02  0.10000000000E+01 0.  0.
    9000005    1    3    3    0    0  0.59723567606E+02 -0.10622118983E+02 -0.12647163674E+03  0.14027048456E+03  0.10000000000E+01 0.  0.
<mgrwt>
<rscale>  0 0.12499581E+03</rscale>
<asrwt>0</asrwt>
<pdfrwt beam="2">  1        4 0.33090720E-01 0.12499581E+03</pdfrwt>
<pdfrwt beam="1">  1       -4 0.27938174E-02 0.12499581E+03</pdfrwt>
<totfact> 0.84821039E+03</totfact>
</mgrwt>
</event>
<event>
 5    1  0.3217852E-002  0.1250055E+03  0.7818608E-02  0.1235061E+00
          4   -1    0    0  501    0  0.00000000000E+00  0.00000000000E+00  0.17668428266E+02  0.17714013023E+02  0.12700000000E+01 0. -1.
         -4   -1    0    0    0  501 -0.00000000000E+00 -0.00000000000E+00 -0.22077369103E+03  0.22077734383E+03  0.12700000000E+01 0. -1.
         25    2    1    2    0    0  0.00000000000E+00  0.00000000000E+00 -0.20310526276E+03  0.23849135685E+03  0.12500551801E+03 0.  0.
    9000005    1    3    3    0    0 -0.50757687615E+02 -0.79310650362E+00 -0.32011084698E+02  0.60022340953E+02  0.10000000000E+01 0.  0.
    9000005    1    3    3    0    0  0.50757687615E+02  0.79310650362E+00 -0.17109417806E+03  0.17846901590E+03  0.10000000000E+01 0.  0.
<mgrwt>
<rscale>  0 0.12500552E+03</rscale>
<asrwt>0</asrwt>
<pdfrwt beam="1">  1        4 0.27220074E-02 0.12500552E+03</pdfrwt>
<pdfrwt beam="2">  1       -4 0.33968969E-01 0.12500552E+03</pdfrwt>
<totfact> 0.84012232E+03</totfact>
</mgrwt>
</event>
<event>
 5    1  0.3217852E-002  0.1250008E+03  0.7818608E-02  0.1235068E+00
         -4   -1    0    0    0  501 -0.00000000000E+00  0.00000000000E+00  0.52887885730E+02  0.52903131826E+02  0.12700000000E+01 0.  1.
          4   -1    0    0  501    0  0.00000000000E+00 -0.00000000000E+00 -0.73828629270E+02  0.73839551731E+02  0.12700000000E+01 0.  1.
         25    2    1    2    0    0  0.00000000000E+00  0.00000000000E+00 -0.20940743540E+02  0.12674268356E+03  0.12500077238E+03 0.  0.
    9000005    1    3    3    0    0  0.10695964320E+02 -0.31071734965E+02 -0.64365981930E+02  0.72276109443E+02  0.10000000000E+01 0.  0.
    9000005    1    3    3    0    0 -0.10695964320E+02  0.31071734965E+02  0.43425238390E+02  0.54466574114E+02  0.10000000000E+01 0.  0.
<mgrwt>
<rscale>  0 0.12500077E+03</rscale>
<asrwt>0</asrwt>
<pdfrwt beam="2">  1        4 0.11360264E-01 0.12500077E+03</pdfrwt>
<pdfrwt beam="1">  1       -4 0.81386108E-02 0.12500077E+03</pdfrwt>
<totfact> 0.10414559E+04</totfact>
</mgrwt>
</event>
<event>
 5    1  0.3217852E-002  0.1250267E+03  0.7818608E-02  0.1235028E+00
          4   -1    0    0  501    0  0.00000000000E+00  0.00000000000E+00  0.71765493139E+02  0.71776729554E+02  0.12700000000E+01 0. -1.
         -4   -1    0    0    0  501 -0.00000000000E+00 -0.00000000000E+00 -0.54431081005E+02  0.54445894973E+02  0.12700000000E+01 0. -1.
         25    2    1    2    0    0  0.00000000000E+00  0.00000000000E+00  0.17334412133E+02  0.12622262453E+03  0.12502667355E+03 0.  0.
    9000005    1    3    3    0    0 -0.43881773564E+02 -0.21556528764E+02 -0.30649161831E+02  0.57711914752E+02  0.10000000000E+01 0.  0.
    9000005    1    3    3    0    0  0.43881773564E+02  0.21556528764E+02  0.47983573964E+02  0.68510709775E+02  0.10000000000E+01 0.  0.
<mgrwt>
<rscale>  0 0.12502667E+03</rscale>
<asrwt>0</asrwt>
<pdfrwt beam="1">  1        4 0.11042849E-01 0.12502667E+03</pdfrwt>
<pdfrwt beam="2">  1       -4 0.83760164E-02 0.12502667E+03</pdfrwt>
<totfact> 0.10419810E+04</totfact>
</mgrwt>
</event>
<event>
 5    1  0.3217852E-002  0.1249996E+03  0.7818608E-02  0.1235070E+00
          4   -1    0    0  501    0  0.00000000000E+00  0.00000000000E+00  0.14521896608E+03  0.14522451931E+03  0.12700000000E+01 0.  1.
         -4   -1    0    0    0  501 -0.00000000000E+00 -0.00000000000E+00 -0.26877792862E+02  0.26907780457E+02  0.12700000000E+01 0.  1.
         25    2    1    2    0    0  0.00000000000E+00  0.00000000000E+00  0.11834117321E+03  0.17213229977E+03  0.12499958138E+03 0.  0.
    9000005    1    3    3    0    0  0.61374375025E+01  0.62179213231E+02  0.60741367752E+02  0.87146063901E+02  0.10000000000E+01 0.  0.
    9000005    1    3    3    0    0 -0.61374375025E+01 -0.62179213231E+02  0.57599805462E+02  0.84986235864E+02  0.10000000000E+01 0.  0.
<mgrwt>
<rscale>  0 0.12499958E+03</rscale>
<asrwt>0</asrwt>
<pdfrwt beam="1">  1        4 0.22344113E-01 0.12499958E+03</pdfrwt>
<pdfrwt beam="2">  1       -4 0.41377790E-02 0.12499958E+03</pdfrwt>
<totfact> 0.95053585E+03</totfact>
</mgrwt>
</event>
<event>
 5    1  0.3217852E-002  0.1250026E+03  0.7818608E-02  0.1235065E+00
          4   -1    0    0  501    0  0.00000000000E+00  0.00000000000E+00  0.53532087233E+02  0.53547149910E+02  0.12700000000E+01 0. -1.
         -4   -1    0    0    0  501 -0.00000000000E+00 -0.00000000000E+00 -0.72942431259E+02  0.72953486401E+02  0.12700000000E+01 0. -1.
         25    2    1    2    0    0  0.00000000000E+00  0.00000000000E+00 -0.19410344026E+02  0.12650063631E+03  0.12500259810E+03 0.  0.
    9000005    1    3    3    0    0 -0.39439117171E+02 -0.19919425873E+02 -0.54429657041E+02  0.70112873682E+02  0.10000000000E+01 0.  0.
    9000005    1    3    3    0    0  0.39439117171E+02  0.19919425873E+02  0.35019313014E+02  0.56387762629E+02  0.10000000000E+01 0.  0.
<mgrwt>
<rscale>  0 0.12500260E+03</rscale>
<asrwt>0</asrwt>
<pdfrwt beam="1">  1        4 0.82377148E-02 0.12500260E+03</pdfrwt>
<pdfrwt beam="2">  1       -4 0.11223922E-01 0.12500260E+03</pdfrwt>
<totfact> 0.10419403E+04</totfact>
</mgrwt>
</event>
<event>
 5    1  0.3217852E-002  0.1250023E+03  0.7818608E-02  0.1235066E+00
          4   -1    0    0  501    0  0.00000000000E+00  0.00000000000E+00  0.30503964205E+02  0.30530390305E+02  0.12700000000E+01 0. -1.
         -4   -1    0    0    0  501 -0.00000000000E+00 -0.00000000000E+00 -0.12797681390E+03  0.12798311528E+03  0.12700000000E+01 0. -1.
         25    2    1    2    0    0  0.00000000000E+00  0.00000000000E+00 -0.97472849697E+02  0.15851350558E+03  0.12500230008E+03 0.  0.
    9000005    1    3    3    0    0 -0.26080270842E+02  0.45769295419E+02 -0.91370949565E+02  0.10547350072E+03  0.10000000000E+01 0.  0.
    9000005    1    3    3    0    0  0.26080270842E+02 -0.45769295419E+02 -0.61019001317E+01  0.53040004861E+02  0.10000000000E+01 0.  0.
<mgrwt>
<rscale>  0 0.12500230E+03</rscale>
<asrwt>0</asrwt>
<pdfrwt beam="1">  1        4 0.46954351E-02 0.12500230E+03</pdfrwt>
<pdfrwt beam="2">  1       -4 0.19691258E-01 0.12500230E+03</pdfrwt>
<totfact> 0.97625089E+03</totfact>
</mgrwt>
</event>
<event>
 5    1  0.3217852E-002  0.1249799E+03  0.7818608E-02  0.1235101E+00
         -4   -1    0    0    0  501 -0.00000000000E+00  0.00000000000E+00  0.88893731604E+03  0.88893822324E+03  0.12700000000E+01 0.  1.
          4   -1    0    0  501    0  0.00000000000E+00 -0.00000000000E+00 -0.43001588256E+01  0.44837780861E+01  0.12700000000E+01 0.  1.
         25    2    1    2    0    0  0.00000000000E+00  0.00000000000E+00  0.88463715721E+03  0.89342200133E+03  0.12497988854E+03 0.  0.
    9000005    1    3    3    0    0 -0.32420142222E+02  0.52535478518E+02  0.37339884859E+03  0.37846894490E+03  0.10000000000E+01 0.  0.
    9000005    1    3    3    0    0  0.32420142222E+02 -0.52535478518E+02  0.51123830862E+03  0.51495305643E+03  0.10000000000E+01 0.  0.
<mgrwt>
<rscale>  0 0.12497989E+03</rscale>
<asrwt>0</asrwt>
<pdfrwt beam="2">  1        4 0.67575789E-03 0.12497989E+03</pdfrwt>
<pdfrwt beam="1">  1       -4 0.13677365E+00 0.12497989E+03</pdfrwt>
<totfact> 0.34428193E+03</totfact>
</mgrwt>
</event>
<event>
 5    1  0.3217852E-002  0.1250010E+03  0.7818608E-02  0.1235068E+00
         -4   -1    0    0    0  501 -0.00000000000E+00  0.00000000000E+00  0.94847737677E+02  0.94856239871E+02  0.12700000000E+01 0. -1.
          4   -1    0    0  501    0  0.00000000000E+00 -0.00000000000E+00 -0.41164928942E+02  0.41184514988E+02  0.12700000000E+01 0. -1.
         25    2    1    2    0    0  0.00000000000E+00  0.00000000000E+00  0.53682808735E+02  0.13604075486E+03  0.12500097211E+03 0.  0.
    9000005    1    3    3    0    0 -0.11372892216E+02  0.60922322195E+02  0.18105071824E+02  0.64572948242E+02  0.10000000000E+01 0.  0.
    9000005    1    3    3    0    0  0.11372892216E+02 -0.60922322195E+02  0.35577736911E+02  0.71467806617E+02  0.10000000000E+01 0.  0.
<mgrwt>
<rscale>  0 0.12500097E+03</rscale>
<asrwt>0</asrwt>
<pdfrwt beam="2">  1        4 0.63352267E-02 0.12500097E+03</pdfrwt>
<pdfrwt beam="1">  1       -4 0.14594120E-01 0.12500097E+03</pdfrwt>
<totfact> 0.10215957E+04</totfact>
</mgrwt>
</event>
<event>
 5    1  0.3217852E-002  0.1249989E+03  0.7818608E-02  0.1235071E+00
         -4   -1    0    0    0  501 -0.00000000000E+00  0.00000000000E+00  0.29001664976E+02  0.29029458682E+02  0.12700000000E+01 0. -1.
          4   -1    0    0  501    0  0.00000000000E+00 -0.00000000000E+00 -0.13459291356E+03  0.13459890520E+03  0.12700000000E+01 0. -1.
         25    2    1    2    0    0  0.00000000000E+00  0.00000000000E+00 -0.10559124859E+03  0.16362836388E+03  0.12499891875E+03 0.  0.
    9000005    1    3    3    0    0 -0.32552339412E+02 -0.47302693716E+02 -0.20518266683E+02  0.60985235112E+02  0.10000000000E+01 0.  0.
    9000005    1    3    3    0    0  0.32552339412E+02  0.47302693716E+02 -0.85072981904E+02  0.10264312877E+03  0.10000000000E+01 0.  0.
<mgrwt>
<rscale>  0 0.12499892E+03</rscale>
<asrwt>0</asrwt>
<pdfrwt beam="2">  1        4 0.20709201E-01 0.12499892E+03</pdfrwt>
<pdfrwt beam="1">  1       -4 0.44643936E-02 0.12499892E+03</pdfrwt>
<totfact> 0.96650139E+03</totfact>
</mgrwt>
</event>
<event>
 5    1  0.3217852E-002  0.1249971E+03  0.7818608E-02  0.1235074E+00
         -4   -1    0    0    0  501 -0.00000000000E+00  0.00000000000E+00  0.42117855268E+02  0.42136998379E+02  0.12700000000E+01 0.  1.
          4   -1    0    0  501    0  0.00000000000E+00 -0.00000000000E+00 -0.92696832072E+02  0.92705531530E+02  0.12700000000E+01 0.  1.
         25    2    1    2    0    0  0.00000000000E+00  0.00000000000E+00 -0.50578976804E+02  0.13484252991E+03  0.12499709988E+03 0.  0.
    9000005    1    3    3    0    0  0.52409683860E+02 -0.13518819841E+02 -0.58983168496E+02  0.80059650374E+02  0.10000000000E+01 0.  0.
    9000005    1    3    3    0    0 -0.52409683860E+02  0.13518819841E+02  0.84041916918E+01  0.54782879535E+02  0.10000000000E+01 0.  0.
<mgrwt>
<rscale>  0 0.12499710E+03</rscale>
<asrwt>0</asrwt>
<pdfrwt beam="2">  1        4 0.14263193E-01 0.12499710E+03</pdfrwt>
<pdfrwt beam="1">  1       -4 0.64818118E-02 0.12499710E+03</pdfrwt>
<totfact> 0.10242061E+04</totfact>
</mgrwt>
</event>
<event>
 5    1  0.3217852E-002  0.1249978E+03  0.7818608E-02  0.1235073E+00
          4   -1    0    0  501    0  0.00000000000E+00  0.00000000000E+00  0.14978625847E+03  0.14979164238E+03  0.12700000000E+01 0.  1.
         -4   -1    0    0    0  501 -0.00000000000E+00 -0.00000000000E+00 -0.26056592370E+02  0.26087523952E+02  0.12700000000E+01 0.  1.
         25    2    1    2    0    0  0.00000000000E+00  0.00000000000E+00  0.12372966610E+03  0.17587916633E+03  0.12499780348E+03 0.  0.
    9000005    1    3    3    0    0 -0.47604129692E+02  0.36319061755E+01  0.51310934455E+01  0.48027825540E+02  0.10000000000E+01 0.  0.
    9000005    1    3    3    0    0  0.47604129692E+02 -0.36319061755E+01  0.11859857265E+03  0.12785134079E+03  0.10000000000E+01 0.  0.
<mgrwt>
<rscale>  0 0.12499780E+03</rscale>
<asrwt>0</asrwt>
<pdfrwt beam="1">  1        4 0.23046833E-01 0.12499780E+03</pdfrwt>
<pdfrwt beam="2">  1       -4 0.40115001E-02 0.12499780E+03</pdfrwt>
<totfact> 0.94368719E+03</totfact>
</mgrwt>
</event>
<event>
 5    1  0.3217852E-002  0.1250008E+03  0.7818608E-02  0.1235068E+00
         -4   -1    0    0    0  501 -0.00000000000E+00  0.00000000000E+00  0.45407659980E+02  0.45425416727E+02  0.12700000000E+01 0. -1.
          4   -1    0    0  501    0  0.00000000000E+00 -0.00000000000E+00 -0.85988137404E+02  0.85997515512E+02  0.12700000000E+01 0. -1.
         25    2    1    2    0    0  0.00000000000E+00  0.00000000000E+00 -0.40580477424E+02  0.13142293224E+03  0.12500084788E+03 0.  0.
    9000005    1    3    3    0    0 -0.57761179893E+02  0.23438721648E+02 -0.15638517159E+02  0.64275118001E+02  0.10000000000E+01 0.  0.
    9000005    1    3    3    0    0  0.57761179893E+02 -0.23438721648E+02 -0.24941960266E+02  0.67147814238E+02  0.10000000000E+01 0.  0.
<mgrwt>
<rscale>  0 0.12500085E+03</rscale>
<asrwt>0</asrwt>
<pdfrwt beam="2">  1        4 0.13231031E-01 0.12500085E+03</pdfrwt>
<pdfrwt beam="1">  1       -4 0.69878812E-02 0.12500085E+03</pdfrwt>
<totfact> 0.10313834E+04</totfact>
</mgrwt>
</event>
<event>
 5    1  0.3217852E-002  0.1250017E+03  0.7818608E-02  0.1235067E+00
          4   -1    0    0  501    0  0.00000000000E+00  0.00000000000E+00  0.13453141392E+03  0.13453740830E+03  0.12700000000E+01 0.  1.
         -4   -1    0    0    0  501 -0.00000000000E+00 -0.00000000000E+00 -0.29016237823E+02  0.29044017583E+02  0.12700000000E+01 0.  1.
         25    2    1    2    0    0  0.00000000000E+00  0.00000000000E+00  0.10551517610E+03  0.16358142589E+03  0.12500172202E+03 0.  0.
    9000005    1    3    3    0    0 -0.30650437678E+02  0.39046549352E+02  0.30764583585E+01  0.49744818245E+02  0.10000000000E+01 0.  0.
    9000005    1    3    3    0    0  0.30650437678E+02 -0.39046549352E+02  0.10243871774E+03  0.11383660764E+03  0.10000000000E+01 0.  0.
<mgrwt>
<rscale>  0 0.12500172E+03</rscale>
<asrwt>0</asrwt>
<pdfrwt beam="1">  1        4 0.20699739E-01 0.12500172E+03</pdfrwt>
<pdfrwt beam="2">  1       -4 0.44666346E-02 0.12500172E+03</pdfrwt>
<totfact> 0.96652984E+03</totfact>
</mgrwt>
</event>
<event>
 5    1  0.3217852E-002  0.1250027E+03  0.7818608E-02  0.1235065E+00
          4   -1    0    0  501    0  0.00000000000E+00  0.00000000000E+00  0.41786284569E+01  0.43673602761E+01  0.12700000000E+01 0. -1.
         -4   -1    0    0    0  501 -0.00000000000E+00 -0.00000000000E+00 -0.91402161726E+03  0.91402249957E+03  0.12700000000E+01 0. -1.
         25    2    1    2    0    0  0.00000000000E+00  0.00000000000E+00 -0.90984298880E+03  0.91838985984E+03  0.12500268154E+03 0.  0.
    9000005    1    3    3    0    0  0.42635296676E+02 -0.18593197445E+02 -0.76155852890E+03  0.76297828832E+03  0.10000000000E+01 0.  0.
    9000005    1    3    3    0    0 -0.42635296676E+02  0.18593197445E+02 -0.14828445990E+03  0.15541157152E+03  0.10000000000E+01 0.  0.
<mgrwt>
<rscale>  0 0.12500268E+03</rscale>
<asrwt>0</asrwt>
<pdfrwt beam="1">  1        4 0.65745235E-03 0.12500268E+03</pdfrwt>
<pdfrwt beam="2">  1       -4 0.14063314E+00 0.12500268E+03</pdfrwt>
<totfact> 0.33463549E+03</totfact>
</mgrwt>
</event>
<event>
 5    1  0.3217852E-002  0.1250010E+03  0.7818608E-02  0.1235068E+00
         -4   -1    0    0    0  501 -0.00000000000E+00  0.00000000000E+00  0.62966178490E+01  0.64234178080E+01  0.12700000000E+01 0. -1.
          4   -1    0    0  501    0  0.00000000000E+00 -0.00000000000E+00 -0.61407134323E+03  0.61407265652E+03  0.12700000000E+01 0. -1.
         25    2    1    2    0    0  0.00000000000E+00  0.00000000000E+00 -0.60777472538E+03  0.62049607432E+03  0.12500104574E+03 0.  0.
    9000005    1    3    3    0    0 -0.45823257131E+02 -0.20390987060E+01 -0.51457004977E+03  0.51661132869E+03  0.10000000000E+01 0.  0.
    9000005    1    3    3    0    0  0.45823257131E+02  0.20390987060E+01 -0.93204675618E+02  0.10388474563E+03  0.10000000000E+01 0.  0.
<mgrwt>
<rscale>  0 0.12500105E+03</rscale>
<asrwt>0</asrwt>
<pdfrwt beam="2">  1        4 0.94482323E-01 0.12500105E+03</pdfrwt>
<pdfrwt beam="1">  1       -4 0.97856578E-03 0.12500105E+03</pdfrwt>
<totfact> 0.47597807E+03</totfact>
</mgrwt>
</event>
<event>
 5    1  0.3217852E-002  0.1249991E+03  0.7818608E-02  0.1235071E+00
         -4   -1    0    0    0  501 -0.00000000000E+00  0.00000000000E+00  0.11817263705E+04  0.11817270530E+04  0.12700000000E+01 0. -1.
          4   -1    0    0  501    0  0.00000000000E+00 -0.00000000000E+00 -0.31828034648E+01  0.34268262132E+01  0.12700000000E+01 0. -1.
         25    2    1    2    0    0  0.00000000000E+00  0.00000000000E+00  0.11785435671E+04  0.11851538792E+04  0.12499911142E+03 0.  0.
    9000005    1    3    3    0    0 -0.77696369191E+01  0.61464777560E+02  0.51171712353E+03  0.51545484832E+03  0.10000000000E+01 0.  0.
    9000005    1    3    3    0    0  0.77696369191E+01 -0.61464777560E+02  0.66682644352E+03  0.66969903085E+03  0.10000000000E+01 0.  0.
<mgrwt>
<rscale>  0 0.12499911E+03</rscale>
<asrwt>0</asrwt>
<pdfrwt beam="2">  1        4 0.50848535E-03 0.12499911E+03</pdfrwt>
<pdfrwt beam="1">  1       -4 0.18182295E+00 0.12499911E+03</pdfrwt>
<totfact> 0.25105159E+03</totfact>
</mgrwt>
</event>
<event>
 5    1  0.3217852E-002  0.1250039E+03  0.7818608E-02  0.1235063E+00
          4   -1    0    0  501    0  0.00000000000E+00  0.00000000000E+00  0.85382027914E+02  0.85391472588E+02  0.12700000000E+01 0. -1.
         -4   -1    0    0    0  501 -0.00000000000E+00 -0.00000000000E+00 -0.45732349007E+02  0.45749979734E+02  0.12700000000E+01 0. -1.
         25    2    1    2    0    0  0.00000000000E+00  0.00000000000E+00  0.39649678907E+02  0.13114145232E+03  0.12500393386E+03 0.  0.
    9000005    1    3    3    0    0  0.18324978726E+02  0.16392539397E+02  0.80099874372E+02  0.83794451294E+02  0.10000000000E+01 0.  0.
    9000005    1    3    3    0    0 -0.18324978726E+02 -0.16392539397E+02 -0.40450195465E+02  0.47347001028E+02  0.10000000000E+01 0.  0.
<mgrwt>
<rscale>  0 0.12500393E+03</rscale>
<asrwt>0</asrwt>
<pdfrwt beam="1">  1        4 0.13137779E-01 0.12500393E+03</pdfrwt>
<pdfrwt beam="2">  1       -4 0.70378288E-02 0.12500393E+03</pdfrwt>
<totfact> 0.10319142E+04</totfact>
</mgrwt>
</event>
<event>
 5    1  0.3217852E-002  0.1250014E+03  0.7818608E-02  0.1235067E+00
         -4   -1    0    0    0  501 -0.00000000000E+00  0.00000000000E+00  0.39070781716E+02  0.39091417011E+02  0.12700000000E+01 0.  1.
          4   -1    0    0  501    0  0.00000000000E+00 -0.00000000000E+00 -0.99930040984E+02  0.99938110804E+02  0.12700000000E+01 0.  1.
         25    2    1    2    0    0  0.00000000000E+00  0.00000000000E+00 -0.60859259268E+02  0.13902952781E+03  0.12500144065E+03 0.  0.
    9000005    1    3    3    0    0 -0.28841593727E+02  0.51242620870E+02 -0.53962981659E+02  0.79816333616E+02  0.10000000000E+01 0.  0.
    9000005    1    3    3    0    0  0.28841593727E+02 -0.51242620870E+02 -0.68962776084E+01  0.59213194199E+02  0.10000000000E+01 0.  0.
<mgrwt>
<rscale>  0 0.12500144E+03</rscale>
<asrwt>0</asrwt>
<pdfrwt beam="2">  1        4 0.15376061E-01 0.12500144E+03</pdfrwt>
<pdfrwt beam="1">  1       -4 0.60130976E-02 0.12500144E+03</pdfrwt>
<totfact> 0.10153409E+04</totfact>
</mgrwt>
</event>
<event>
 5    1  0.3217852E-002  0.1250034E+03  0.7818608E-02  0.1235064E+00
         -4   -1    0    0    0  501 -0.00000000000E+00  0.00000000000E+00  0.31052206808E+02  0.31078166735E+02  0.12700000000E+01 0. -1.
          4   -1    0    0  501    0  0.00000000000E+00 -0.00000000000E+00 -0.12572125394E+03  0.12572766837E+03  0.12700000000E+01 0. -1.
         25    2    1    2    0    0  0.00000000000E+00  0.00000000000E+00 -0.94669047135E+02  0.15680583510E+03  0.12500336570E+03 0.  0.
    9000005    1    3    3    0    0  0.51349939973E+02 -0.33986425692E+02 -0.33966525175E+02  0.70332199589E+02  0.10000000000E+01 0.  0.
    9000005    1    3    3    0    0 -0.51349939973E+02  0.33986425692E+02 -0.60702521961E+02  0.86473635513E+02  0.10000000000E+01 0.  0.
<mgrwt>
<rscale>  0 0.12500337E+03</rscale>
<asrwt>0</asrwt>
<pdfrwt beam="2">  1        4 0.19344222E-01 0.12500337E+03</pdfrwt>
<pdfrwt beam="1">  1       -4 0.47797530E-02 0.12500337E+03</pdfrwt>
<totfact> 0.97954740E+03</totfact>
</mgrwt>
</event>
<event>
 5    1  0.3217852E-002  0.1250004E+03  0.7818608E-02  0.1235069E+00
         -4   -1    0    0    0  501 -0.00000000000E+00  0.00000000000E+00  0.46732075886E+02  0.46749329585E+02  0.12700000000E+01 0.  1.
          4   -1    0    0  501    0  0.00000000000E+00 -0.00000000000E+00 -0.83551167553E+02  0.83560819165E+02  0.12700000000E+01 0.  1.
         25    2    1    2    0    0  0.00000000000E+00  0.00000000000E+00 -0.36819091667E+02  0.13031014875E+03  0.12500035742E+03 0.  0.
    9000005    1    3    3    0    0 -0.42100948742E+02 -0.36755837327E+02 -0.47557782336E+02  0.73390899459E+02  0.10000000000E+01 0.  0.
    9000005    1    3    3    0    0  0.42100948742E+02  0.36755837327E+02  0.10738690669E+02  0.56919249291E+02  0.10000000000E+01 0.  0.
<mgrwt>
<rscale>  0 0.12500036E+03</rscale>
<asrwt>0</asrwt>
<pdfrwt beam="2">  1        4 0.12856095E-01 0.12500036E+03</pdfrwt>
<pdfrwt beam="1">  1       -4 0.71916198E-02 0.12500036E+03</pdfrwt>
<totfact> 0.10337794E+04</totfact>
</mgrwt>
</event>
<event>
 5    1  0.3217852E-002  0.1249920E+03  0.7818608E-02  0.1235082E+00
         -4   -1    0    0    0  501 -0.00000000000E+00  0.00000000000E+00  0.39039406732E+02  0.39060058602E+02  0.12700000000E+01 0. -1.
          4   -1    0    0  501    0  0.00000000000E+00 -0.00000000000E+00 -0.99995212793E+02  0.10000327735E+03  0.12700000000E+01 0. -1.
         25    2    1    2    0    0  0.00000000000E+00  0.00000000000E+00 -0.60955806061E+02  0.13906333596E+03  0.12499200420E+03 0.  0.
    9000005    1    3    3    0    0 -0.96957416045E+01  0.52411122221E+02  0.58101697004E+01  0.53625471650E+02  0.10000000000E+01 0.  0.
    9000005    1    3    3    0    0  0.96957416045E+01 -0.52411122221E+02 -0.66765975761E+02  0.85437864306E+02  0.10000000000E+01 0.  0.
<mgrwt>
<rscale>  0 0.12499200E+03</rscale>
<asrwt>0</asrwt>
<pdfrwt beam="2">  1        4 0.15386088E-01 0.12499200E+03</pdfrwt>
<pdfrwt beam="1">  1       -4 0.60082716E-02 0.12499200E+03</pdfrwt>
<totfact> 0.10154865E+04</totfact>
</mgrwt>
</event>
<event>
 5    1  0.3217852E-002  0.1249993E+03  0.7818608E-02  0.1235070E+00
         -4   -1    0    0    0  501 -0.00000000000E+00  0.00000000000E+00  0.16460274234E+02  0.16509195252E+02  0.12700000000E+01 0. -1.
          4   -1    0    0  501    0  0.00000000000E+00 -0.00000000000E+00 -0.23690826237E+03  0.23691166641E+03  0.12700000000E+01 0. -1.
         25    2    1    2    0    0  0.00000000000E+00  0.00000000000E+00 -0.22044798814E+03  0.25342086166E+03  0.12499927060E+03 0.  0.
    9000005    1    3    3    0    0  0.66490873372E+01  0.56005502100E+02 -0.16478940696E+03  0.17417627644E+03  0.10000000000E+01 0.  0.
    9000005    1    3    3    0    0 -0.66490873372E+01 -0.56005502100E+02 -0.55658581176E+02  0.79244585218E+02  0.10000000000E+01 0.  0.
<mgrwt>
<rscale>  0 0.12499927E+03</rscale>
<asrwt>0</asrwt>
<pdfrwt beam="2">  1        4 0.36451448E-01 0.12499927E+03</pdfrwt>
<pdfrwt beam="1">  1       -4 0.25363751E-02 0.12499927E+03</pdfrwt>
<totfact> 0.81839638E+03</totfact>
</mgrwt>
</event>
<event>
 5    1  0.3217852E-002  0.1249982E+03  0.7818608E-02  0.1235072E+00
         -4   -1    0    0    0  501 -0.00000000000E+00  0.00000000000E+00  0.10284659754E+04  0.10284667595E+04  0.12700000000E+01 0.  1.
          4   -1    0    0  501    0  0.00000000000E+00 -0.00000000000E+00 -0.36910490214E+01  0.39034270684E+01  0.12700000000E+01 0.  1.
         25    2    1    2    0    0  0.00000000000E+00  0.00000000000E+00  0.10247749264E+04  0.10323701866E+04  0.12499820975E+03 0.  0.
    9000005    1    3    3    0    0  0.23072652301E+02 -0.58025801902E+02  0.53227305573E+03  0.53592438536E+03  0.10000000000E+01 0.  0.
    9000005    1    3    3    0    0 -0.23072652301E+02  0.58025801902E+02  0.49250187066E+03  0.49644580125E+03  0.10000000000E+01 0.  0.
<mgrwt>
<rscale>  0 0.12499821E+03</rscale>
<asrwt>0</asrwt>
<pdfrwt beam="2">  1        4 0.58425089E-03 0.12499821E+03</pdfrwt>
<pdfrwt beam="1">  1       -4 0.15824190E+00 0.12499821E+03</pdfrwt>
<totfact> 0.29552845E+03</totfact>
</mgrwt>
</event>
<event>
 5    1  0.3217852E-002  0.1249915E+03  0.7818608E-02  0.1235083E+00
          4   -1    0    0  501    0  0.00000000000E+00  0.00000000000E+00  0.74657555013E+02  0.74668356220E+02  0.12700000000E+01 0. -1.
         -4   -1    0    0    0  501 -0.00000000000E+00 -0.00000000000E+00 -0.52292829873E+02  0.52308249408E+02  0.12700000000E+01 0. -1.
         25    2    1    2    0    0  0.00000000000E+00  0.00000000000E+00  0.22364725140E+02  0.12697660563E+03  0.12499150950E+03 0.  0.
    9000005    1    3    3    0    0  0.55813249704E+02  0.27841460692E+02  0.15044529138E+02  0.64168556419E+02  0.10000000000E+01 0.  0.
    9000005    1    3    3    0    0 -0.55813249704E+02 -0.27841460692E+02  0.73201960022E+01  0.62808049209E+02  0.10000000000E+01 0.  0.
<mgrwt>
<rscale>  0 0.12499151E+03</rscale>
<asrwt>0</asrwt>
<pdfrwt beam="1">  1        4 0.11487795E-01 0.12499151E+03</pdfrwt>
<pdfrwt beam="2">  1       -4 0.80470678E-02 0.12499151E+03</pdfrwt>
<totfact> 0.10411649E+04</totfact>
</mgrwt>
</event>
<event>
 5    1  0.3217852E-002  0.1249999E+03  0.7818608E-02  0.1235070E+00
         -4   -1    0    0    0  501 -0.00000000000E+00  0.00000000000E+00  0.57702991555E+02  0.57716965741E+02  0.12700000000E+01 0. -1.
          4   -1    0    0  501    0  0.00000000000E+00 -0.00000000000E+00 -0.67667514877E+02  0.67679431658E+02  0.12700000000E+01 0. -1.
         25    2    1    2    0    0  0.00000000000E+00  0.00000000000E+00 -0.99645233217E+01  0.12539639740E+03  0.12499985902E+03 0.  0.
    9000005    1    3    3    0    0  0.27962167178E+02  0.28775683597E+02  0.43079203716E+02  0.58879033217E+02  0.10000000000E+01 0.  0.
    9000005    1    3    3    0    0 -0.27962167178E+02 -0.28775683597E+02 -0.53043727037E+02  0.66517364183E+02  0.10000000000E+01 0.  0.
<mgrwt>
<rscale>  0 0.12499986E+03</rscale>
<asrwt>0</asrwt>
<pdfrwt beam="2">  1        4 0.10412379E-01 0.12499986E+03</pdfrwt>
<pdfrwt beam="1">  1       -4 0.88793749E-02 0.12499986E+03</pdfrwt>
<totfact> 0.10444280E+04</totfact>
</mgrwt>
</event>
<event>
 5    1  0.3217852E-002  0.1249972E+03  0.7818608E-02  0.1235074E+00
         -4   -1    0    0    0  501 -0.00000000000E+00  0.00000000000E+00  0.97890089636E+01  0.98710483987E+01  0.12700000000E+01 0. -1.
          4   -1    0    0  501    0  0.00000000000E+00 -0.00000000000E+00 -0.39727849798E+03  0.39728052792E+03  0.12700000000E+01 0. -1.
         25    2    1    2    0    0  0.00000000000E+00  0.00000000000E+00 -0.38748948902E+03  0.40715157631E+03  0.12499720794E+03 0.  0.
    9000005    1    3    3    0    0  0.32986041271E+02  0.37949720482E+02 -0.72881666782E+02  0.88549407430E+02  0.10000000000E+01 0.  0.
    9000005    1    3    3    0    0 -0.32986041271E+02 -0.37949720482E+02 -0.31460782224E+03  0.31860216888E+03  0.10000000000E+01 0.  0.
<mgrwt>
<rscale>  0 0.12499721E+03</rscale>
<asrwt>0</asrwt>
<pdfrwt beam="2">  1        4 0.61126224E-01 0.12499721E+03</pdfrwt>
<pdfrwt beam="1">  1       -4 0.15124686E-02 0.12499721E+03</pdfrwt>
<totfact> 0.63867069E+03</totfact>
</mgrwt>
</event>
<event>
 5    1  0.3217852E-002  0.1249920E+03  0.7818608E-02  0.1235082E+00
          4   -1    0    0  501    0  0.00000000000E+00  0.00000000000E+00  0.32588752849E+02  0.32613489728E+02  0.12700000000E+01 0.  1.
         -4   -1    0    0    0  501 -0.00000000000E+00 -0.00000000000E+00 -0.11977610614E+03  0.11978283893E+03  0.12700000000E+01 0.  1.
         25    2    1    2    0    0  0.00000000000E+00  0.00000000000E+00 -0.87187353296E+02  0.15239632866E+03  0.12499202541E+03 0.  0.
    9000005    1    3    3    0    0  0.28373502801E+02 -0.22869588877E+00  0.24287300056E+02  0.37362827878E+02  0.10000000000E+01 0.  0.
    9000005    1    3    3    0    0 -0.28373502801E+02  0.22869588877E+00 -0.11147465335E+03  0.11503350078E+03  0.10000000000E+01 0.  0.
<mgrwt>
<rscale>  0 0.12499203E+03</rscale>
<asrwt>0</asrwt>
<pdfrwt beam="1">  1        4 0.50160751E-02 0.12499203E+03</pdfrwt>
<pdfrwt beam="2">  1       -4 0.18429514E-01 0.12499203E+03</pdfrwt>
<totfact> 0.98845888E+03</totfact>
</mgrwt>
</event>
<event>
 5    1  0.3217852E-002  0.1250022E+03  0.7818608E-02  0.1235066E+00
         -4   -1    0    0    0  501 -0.00000000000E+00  0.00000000000E+00  0.20024904635E+03  0.20025307354E+03  0.12700000000E+01 0.  1.
          4   -1    0    0  501    0  0.00000000000E+00 -0.00000000000E+00 -0.19482746259E+02  0.19524095415E+02  0.12700000000E+01 0.  1.
         25    2    1    2    0    0  0.00000000000E+00  0.00000000000E+00  0.18076630009E+03  0.21977716896E+03  0.12500219497E+03 0.  0.
    9000005    1    3    3    0    0  0.12234695975E+02  0.60470366139E+02  0.10787990780E+03  0.12427963419E+03  0.10000000000E+01 0.  0.
    9000005    1    3    3    0    0 -0.12234695975E+02 -0.60470366139E+02  0.72886392290E+02  0.95497534773E+02  0.10000000000E+01 0.  0.
<mgrwt>
<rscale>  0 0.12500219E+03</rscale>
<asrwt>0</asrwt>
<pdfrwt beam="2">  1        4 0.30008361E-02 0.12500219E+03</pdfrwt>
<pdfrwt beam="1">  1       -4 0.30811036E-01 0.12500219E+03</pdfrwt>
<totfact> 0.86899360E+03</totfact>
</mgrwt>
</event>
<event>
 5    1  0.3217852E-002  0.1250079E+03  0.7818608E-02  0.1235057E+00
          4   -1    0    0  501    0  0.00000000000E+00  0.00000000000E+00  0.51554670725E+02  0.51570310970E+02  0.12700000000E+01 0.  1.
         -4   -1    0    0    0  501 -0.00000000000E+00 -0.00000000000E+00 -0.75746200166E+02  0.75756846156E+02  0.12700000000E+01 0.  1.
         25    2    1    2    0    0  0.00000000000E+00  0.00000000000E+00 -0.24191529441E+02  0.12732715713E+03  0.12500789913E+03 0.  0.
    9000005    1    3    3    0    0 -0.38120983412E+02  0.32719445532E+02 -0.49960353307E+02  0.70857662922E+02  0.10000000000E+01 0.  0.
    9000005    1    3    3    0    0  0.38120983412E+02 -0.32719445532E+02  0.25768823866E+02  0.56469494205E+02  0.10000000000E+01 0.  0.
<mgrwt>
<rscale>  0 0.12500790E+03</rscale>
<asrwt>0</asrwt>
<pdfrwt beam="1">  1        4 0.79335098E-02 0.12500790E+03</pdfrwt>
<pdfrwt beam="2">  1       -4 0.11655284E-01 0.12500790E+03</pdfrwt>
<totfact> 0.10400191E+04</totfact>
</mgrwt>
</event>
<event>
 4    1  0.3217852E-002  0.1247353E+03  0.7818608E-02  0.1235484E+00
         -4   -1    0    0    0  501 -0.00000000000E+00  0.00000000000E+00  0.10262814170E+02  0.10341095430E+02  0.12700000000E+01 0.  1.
          4   -1    0    0  501    0  0.00000000000E+00 -0.00000000000E+00 -0.37749206272E+03  0.37749419905E+03  0.12700000000E+01 0.  1.
    9000005    1    1    2    0    0  0.15215690762E+02  0.12177397188E+01 -0.37160890226E+03  0.37192361632E+03  0.10000000000E+01 0.  0.
    9000005    1    1    2    0    0 -0.15215690762E+02 -0.12177397188E+01  0.43796537100E+01  0.15911678164E+02  0.10000000000E+01 0.  0.
<mgrwt>
<rscale>  0 0.12473530E+03</rscale>
<asrwt>0</asrwt>
<pdfrwt beam="2">  1        4 0.58081878E-01 0.12473530E+03</pdfrwt>
<pdfrwt beam="1">  1       -4 0.15850807E-02 0.12473530E+03</pdfrwt>
<totfact> 0.66139317E+03</totfact>
</mgrwt>
</event>
<event>
 5    1  0.3217852E-002  0.1249991E+03  0.7818608E-02  0.1235071E+00
          4   -1    0    0  501    0  0.00000000000E+00  0.00000000000E+00  0.44600436159E+02  0.44618514157E+02  0.12700000000E+01 0.  1.
         -4   -1    0    0    0  501 -0.00000000000E+00 -0.00000000000E+00 -0.87541483829E+02  0.87550695548E+02  0.12700000000E+01 0.  1.
         25    2    1    2    0    0  0.00000000000E+00  0.00000000000E+00 -0.42941047670E+02  0.13216920971E+03  0.12499906567E+03 0.  0.
    9000005    1    3    3    0    0  0.37740322343E+02 -0.93103711449E+01 -0.73207569191E+02  0.82893685696E+02  0.10000000000E+01 0.  0.
    9000005    1    3    3    0    0 -0.37740322343E+02  0.93103711449E+01  0.30266521521E+02  0.49275524009E+02  0.10000000000E+01 0.  0.
<mgrwt>
<rscale>  0 0.12499907E+03</rscale>
<asrwt>0</asrwt>
<pdfrwt beam="1">  1        4 0.68637048E-02 0.12499907E+03</pdfrwt>
<pdfrwt beam="2">  1       -4 0.13470020E-01 0.12499907E+03</pdfrwt>
<totfact> 0.10298305E+04</totfact>
</mgrwt>
</event>
<event>
 5    1  0.3217852E-002  0.1250025E+03  0.7818608E-02  0.1235065E+00
         -4   -1    0    0    0  501 -0.00000000000E+00  0.00000000000E+00  0.26810042084E+03  0.26810342884E+03  0.12700000000E+01 0.  1.
          4   -1    0    0  501    0  0.00000000000E+00 -0.00000000000E+00 -0.14539905346E+02  0.14595264557E+02  0.12700000000E+01 0.  1.
         25    2    1    2    0    0  0.00000000000E+00  0.00000000000E+00  0.25356051549E+03  0.28269869339E+03  0.12500246489E+03 0.  0.
    9000005    1    3    3    0    0  0.42596050340E+01  0.57191803971E+02  0.18292660727E+03  0.19170860785E+03  0.10000000000E+01 0.  0.
    9000005    1    3    3    0    0 -0.42596050340E+01 -0.57191803971E+02  0.70633908225E+02  0.90990085546E+02  0.10000000000E+01 0.  0.
<mgrwt>
<rscale>  0 0.12500246E+03</rscale>
<asrwt>0</asrwt>
<pdfrwt beam="2">  1        4 0.22413986E-02 0.12500246E+03</pdfrwt>
<pdfrwt beam="1">  1       -4 0.41250704E-01 0.12500246E+03</pdfrwt>
<totfact> 0.77817373E+03</totfact>
</mgrwt>
</event>
<event>
 5    1  0.3217852E-002  0.1249977E+03  0.7818608E-02  0.1235073E+00
         -4   -1    0    0    0  501 -0.00000000000E+00  0.00000000000E+00  0.45631668939E+01  0.47366013239E+01  0.12700000000E+01 0. -1.
          4   -1    0    0  501    0  0.00000000000E+00 -0.00000000000E+00 -0.83986957259E+03  0.83987053280E+03  0.12700000000E+01 0. -1.
         25    2    1    2    0    0  0.00000000000E+00  0.00000000000E+00 -0.83530640570E+03  0.84460713413E+03  0.12499767843E+03 0.  0.
    9000005    1    3    3    0    0  0.18263019298E+02 -0.15335484386E+02 -0.27359808925E+02  0.36308044558E+02  0.10000000000E+01 0.  0.
    9000005    1    3    3    0    0 -0.18263019298E+02  0.15335484386E+02 -0.80794659678E+03  0.80829908957E+03  0.10000000000E+01 0.  0.
<mgrwt>
<rscale>  0 0.12499768E+03</rscale>
<asrwt>0</asrwt>
<pdfrwt beam="2">  1        4 0.12922400E+00 0.12499768E+03</pdfrwt>
<pdfrwt beam="1">  1       -4 0.71544131E-03 0.12499768E+03</pdfrwt>
<totfact> 0.36350900E+03</totfact>
</mgrwt>
</event>
<event>
 5    1  0.3217852E-002  0.1249965E+03  0.7818608E-02  0.1235075E+00
         -4   -1    0    0    0  501 -0.00000000000E+00  0.00000000000E+00  0.58319564016E+03  0.58319702298E+03  0.12700000000E+01 0.  1.
          4   -1    0    0  501    0  0.00000000000E+00 -0.00000000000E+00 -0.66360315661E+01  0.67564646781E+01  0.12700000000E+01 0.  1.
         25    2    1    2    0    0  0.00000000000E+00  0.00000000000E+00  0.57655960860E+03  0.58995348765E+03  0.12499654126E+03 0.  0.
    9000005    1    3    3    0    0  0.23040266516E+02 -0.22550832676E+02  0.35623241021E+02  0.48056313179E+02  0.10000000000E+01 0.  0.
    9000005    1    3    3    0    0 -0.23040266516E+02  0.22550832676E+02  0.54093636758E+03  0.54189717447E+03  0.10000000000E+01 0.  0.
<mgrwt>
<rscale>  0 0.12499654E+03</rscale>
<asrwt>0</asrwt>
<pdfrwt beam="2">  1        4 0.10302983E-02 0.12499654E+03</pdfrwt>
<pdfrwt beam="1">  1       -4 0.89731786E-01 0.12499654E+03</pdfrwt>
<totfact> 0.49511730E+03</totfact>
</mgrwt>
</event>
<event>
 5    1  0.3217852E-002  0.1250042E+03  0.7818608E-02  0.1235063E+00
          4   -1    0    0  501    0  0.00000000000E+00  0.00000000000E+00  0.10496215386E+02  0.10572768674E+02  0.12700000000E+01 0.  1.
         -4   -1    0    0    0  501 -0.00000000000E+00 -0.00000000000E+00 -0.37075288258E+03  0.37075505774E+03  0.12700000000E+01 0.  1.
         25    2    1    2    0    0  0.00000000000E+00  0.00000000000E+00 -0.36025666719E+03  0.38132782641E+03  0.12500417970E+03 0.  0.
    9000005    1    3    3    0    0 -0.12297813291E+02  0.18493359567E+02 -0.19332570936E+01  0.22315421637E+02  0.10000000000E+01 0.  0.
    9000005    1    3    3    0    0  0.12297813291E+02 -0.18493359567E+02 -0.35832341010E+03  0.35901240478E+03  0.10000000000E+01 0.  0.
<mgrwt>
<rscale>  0 0.12500418E+03</rscale>
<asrwt>0</asrwt>
<pdfrwt beam="1">  1        4 0.16208587E-02 0.12500418E+03</pdfrwt>
<pdfrwt beam="2">  1       -4 0.57044951E-01 0.12500418E+03</pdfrwt>
<totfact> 0.66404124E+03</totfact>
</mgrwt>
</event>
<event>
 5    1  0.3217852E-002  0.1250008E+03  0.7818608E-02  0.1235068E+00
          4   -1    0    0  501    0  0.00000000000E+00  0.00000000000E+00  0.21058615683E+03  0.21058998634E+03  0.12700000000E+01 0. -1.
         -4   -1    0    0    0  501 -0.00000000000E+00 -0.00000000000E+00 -0.18523915133E+02  0.18567399706E+02  0.12700000000E+01 0. -1.
         25    2    1    2    0    0  0.00000000000E+00  0.00000000000E+00  0.19206224169E+03  0.22915738605E+03  0.12500081158E+03 0.  0.
    9000005    1    3    3    0    0 -0.57101203161E+02 -0.84450873597E+01  0.13993093472E+03  0.15137216849E+03  0.10000000000E+01 0.  0.
    9000005    1    3    3    0    0  0.57101203161E+02  0.84450873597E+01  0.52131306977E+02  0.77785217555E+02  0.10000000000E+01 0.  0.
<mgrwt>
<rscale>  0 0.12500081E+03</rscale>
<asrwt>0</asrwt>
<pdfrwt beam="1">  1        4 0.32401511E-01 0.12500081E+03</pdfrwt>
<pdfrwt beam="2">  1       -4 0.28534725E-02 0.12500081E+03</pdfrwt>
<totfact> 0.85437600E+03</totfact>
</mgrwt>
</event>
<event>
 5    1  0.3217852E-002  0.1250027E+03  0.7818608E-02  0.1235065E+00
          4   -1    0    0  501    0  0.00000000000E+00  0.00000000000E+00  0.17543725978E+04  0.17543730574E+04  0.12700000000E+01 0. -1.
         -4   -1    0    0    0  501 -0.00000000000E+00 -0.00000000000E+00 -0.20450880449E+01  0.24073398413E+01  0.12700000000E+01 0. -1.
         25    2    1    2    0    0  0.00000000000E+00  0.00000000000E+00  0.17523275097E+04  0.17567803973E+04  0.12500265184E+03 0.  0.
    9000005    1    3    3    0    0 -0.32913111582E+02  0.48292837191E+02  0.11872435356E+04  0.11886814897E+04  0.10000000000E+01 0.  0.
    9000005    1    3    3    0    0  0.32913111582E+02 -0.48292837191E+02  0.56508397410E+03  0.56809890760E+03  0.10000000000E+01 0.  0.
<mgrwt>
<rscale>  0 0.12500265E+03</rscale>
<asrwt>0</asrwt>
<pdfrwt beam="1">  1        4 0.26993071E+00 0.12500265E+03</pdfrwt>
<pdfrwt beam="2">  1       -4 0.34253065E-03 0.12500265E+03</pdfrwt>
<totfact> 0.13380547E+03</totfact>
</mgrwt>
</event>
<event>
 5    1  0.3217852E-002  0.1250040E+03  0.7818608E-02  0.1235063E+00
         -4   -1    0    0    0  501 -0.00000000000E+00  0.00000000000E+00  0.89283639549E+02  0.89292671542E+02  0.12700000000E+01 0. -1.
          4   -1    0    0  501    0  0.00000000000E+00 -0.00000000000E+00 -0.43733328688E+02  0.43751764971E+02  0.12700000000E+01 0. -1.
         25    2    1    2    0    0  0.00000000000E+00  0.00000000000E+00  0.45550310861E+02  0.13304443651E+03  0.12500396501E+03 0.  0.
    9000005    1    3    3    0    0  0.39629367733E+02  0.28329776670E+02  0.64439440156E+02  0.80786784072E+02  0.10000000000E+01 0.  0.
    9000005    1    3    3    0    0 -0.39629367733E+02 -0.28329776670E+02 -0.18889129295E+02  0.52257652441E+02  0.10000000000E+01 0.  0.
<mgrwt>
<rscale>  0 0.12500397E+03</rscale>
<asrwt>0</asrwt>
<pdfrwt beam="2">  1        4 0.67303174E-02 0.12500397E+03</pdfrwt>
<pdfrwt beam="1">  1       -4 0.13738057E-01 0.12500397E+03</pdfrwt>
<totfact> 0.10278536E+04</totfact>
</mgrwt>
</event>
<event>
 5    1  0.3217852E-002  0.1249996E+03  0.7818608E-02  0.1235070E+00
          4   -1    0    0  501    0  0.00000000000E+00  0.00000000000E+00  0.14666838393E+02  0.14721720295E+02  0.12700000000E+01 0.  1.
         -4   -1    0    0    0  501 -0.00000000000E+00 -0.00000000000E+00 -0.26577672101E+03  0.26577975530E+03  0.12700000000E+01 0.  1.
         25    2    1    2    0    0  0.00000000000E+00  0.00000000000E+00 -0.25110988261E+03  0.28050147560E+03  0.12499961867E+03 0.  0.
    9000005    1    3    3    0    0  0.27670676709E+02  0.12158044612E+02 -0.24829561834E+03  0.25013036298E+03  0.10000000000E+01 0.  0.
    9000005    1    3    3    0    0 -0.27670676709E+02 -0.12158044612E+02 -0.28142642756E+01  0.30371112619E+02  0.10000000000E+01 0.  0.
<mgrwt>
<rscale>  0 0.12499962E+03</rscale>
<asrwt>0</asrwt>
<pdfrwt beam="1">  1        4 0.22608920E-02 0.12499962E+03</pdfrwt>
<pdfrwt beam="2">  1       -4 0.40893178E-01 0.12499962E+03</pdfrwt>
<totfact> 0.78112324E+03</totfact>
</mgrwt>
</event>
<event>
 5    1  0.3217852E-002  0.1250032E+03  0.7818608E-02  0.1235064E+00
         -4   -1    0    0    0  501 -0.00000000000E+00  0.00000000000E+00  0.18875140880E+04  0.18875145152E+04  0.12700000000E+01 0.  1.
          4   -1    0    0  501    0  0.00000000000E+00 -0.00000000000E+00 -0.18743290338E+01  0.22640691966E+01  0.12700000000E+01 0.  1.
         25    2    1    2    0    0  0.00000000000E+00  0.00000000000E+00  0.18856397590E+04  0.18897785844E+04  0.12500319059E+03 0.  0.
    9000005    1    3    3    0    0 -0.16076113687E+02  0.36622028031E+02  0.21687450423E+03  0.22053381816E+03  0.10000000000E+01 0.  0.
    9000005    1    3    3    0    0  0.16076113687E+02 -0.36622028031E+02  0.16687652547E+04  0.16692447663E+04  0.10000000000E+01 0.  0.
<mgrwt>
<rscale>  0 0.12500319E+03</rscale>
<asrwt>0</asrwt>
<pdfrwt beam="2">  1        4 0.31837130E-03 0.12500319E+03</pdfrwt>
<pdfrwt beam="1">  1       -4 0.29041669E+00 0.12500319E+03</pdfrwt>
<totfact> 0.11368499E+03</totfact>
</mgrwt>
</event>
<event>
 5    1  0.3217852E-002  0.1249989E+03  0.7818608E-02  0.1235071E+00
          4   -1    0    0  501    0  0.00000000000E+00  0.00000000000E+00  0.37904663437E+02  0.37925933216E+02  0.12700000000E+01 0.  1.
         -4   -1    0    0    0  501 -0.00000000000E+00 -0.00000000000E+00 -0.10299877929E+03  0.10300660870E+03  0.12700000000E+01 0.  1.
         25    2    1    2    0    0  0.00000000000E+00  0.00000000000E+00 -0.65094115851E+02  0.14093254191E+03  0.12499894980E+03 0.  0.
    9000005    1    3    3    0    0 -0.90964135639E+01  0.35232029353E+02  0.24733998012E+02  0.44009218236E+02  0.10000000000E+01 0.  0.
    9000005    1    3    3    0    0  0.90964135639E+01 -0.35232029353E+02 -0.89828113864E+02  0.96923323676E+02  0.10000000000E+01 0.  0.
<mgrwt>
<rscale>  0 0.12499895E+03</rscale>
<asrwt>0</asrwt>
<pdfrwt beam="1">  1        4 0.58337251E-02 0.12499895E+03</pdfrwt>
<pdfrwt beam="2">  1       -4 0.15848204E-01 0.12499895E+03</pdfrwt>
<totfact> 0.10114534E+04</totfact>
</mgrwt>
</event>
<event>
 5    1  0.3217852E-002  0.1249995E+03  0.7818608E-02  0.1235070E+00
          4   -1    0    0  501    0  0.00000000000E+00  0.00000000000E+00  0.91677123813E+02  0.91685920024E+02  0.12700000000E+01 0. -1.
         -4   -1    0    0    0  501 -0.00000000000E+00 -0.00000000000E+00 -0.42588113012E+02  0.42607044840E+02  0.12700000000E+01 0. -1.
         25    2    1    2    0    0  0.00000000000E+00  0.00000000000E+00  0.49089010800E+02  0.13429296486E+03  0.12499947772E+03 0.  0.
    9000005    1    3    3    0    0 -0.46558441367E+02 -0.73507578784E+00 -0.20231314039E+02  0.50779275957E+02  0.10000000000E+01 0.  0.
    9000005    1    3    3    0    0  0.46558441367E+02  0.73507578784E+00  0.69320324839E+02  0.83513688906E+02  0.10000000000E+01 0.  0.
<mgrwt>
<rscale>  0 0.12499948E+03</rscale>
<asrwt>0</asrwt>
<pdfrwt beam="1">  1        4 0.14106306E-01 0.12499948E+03</pdfrwt>
<pdfrwt beam="2">  1       -4 0.65541504E-02 0.12499948E+03</pdfrwt>
<totfact> 0.10253116E+04</totfact>
</mgrwt>
</event>
<event>
 5    1  0.3217852E-002  0.1250005E+03  0.7818608E-02  0.1235069E+00
         -4   -1    0    0    0  501 -0.00000000000E+00  0.00000000000E+00  0.17422850431E+02  0.17469076024E+02  0.12700000000E+01 0. -1.
          4   -1    0    0  501    0  0.00000000000E+00 -0.00000000000E+00 -0.22385936423E+03  0.22386296668E+03  0.12700000000E+01 0. -1.
         25    2    1    2    0    0  0.00000000000E+00  0.00000000000E+00 -0.20643651380E+03  0.24133204271E+03  0.12500048244E+03 0.  0.
    9000005    1    3    3    0    0 -0.17503876024E+02 -0.12882128662E+02 -0.21633756434E+03  0.21742878526E+03  0.10000000000E+01 0.  0.
    9000005    1    3    3    0    0  0.17503876024E+02  0.12882128662E+02  0.99010505445E+01  0.23903257448E+02  0.10000000000E+01 0.  0.
<mgrwt>
<rscale>  0 0.12500048E+03</rscale>
<asrwt>0</asrwt>
<pdfrwt beam="2">  1        4 0.34443733E-01 0.12500048E+03</pdfrwt>
<pdfrwt beam="1">  1       -4 0.26842716E-02 0.12500048E+03</pdfrwt>
<totfact> 0.83598484E+03</totfact>
</mgrwt>
</event>
<event>
 5    1  0.3217852E-002  0.1249917E+03  0.7818608E-02  0.1235082E+00
          4   -1    0    0  501    0  0.00000000000E+00  0.00000000000E+00  0.26872407540E+02  0.26902401138E+02  0.12700000000E+01 0.  1.
         -4   -1    0    0    0  501 -0.00000000000E+00 -0.00000000000E+00 -0.14522960734E+03  0.14523516017E+03  0.12700000000E+01 0.  1.
         25    2    1    2    0    0  0.00000000000E+00  0.00000000000E+00 -0.11835719980E+03  0.17213756131E+03  0.12499165279E+03 0.  0.
    9000005    1    3    3    0    0 -0.36365545009E+01  0.46433794839E+02 -0.18072269459E+01  0.46621753518E+02  0.10000000000E+01 0.  0.
    9000005    1    3    3    0    0  0.36365545009E+01 -0.46433794839E+02 -0.11654997286E+03  0.12551580779E+03  0.10000000000E+01 0.  0.
<mgrwt>
<rscale>  0 0.12499165E+03</rscale>
<asrwt>0</asrwt>
<pdfrwt beam="1">  1        4 0.41369510E-02 0.12499165E+03</pdfrwt>
<pdfrwt beam="2">  1       -4 0.22345750E-01 0.12499165E+03</pdfrwt>
<totfact> 0.95069526E+03</totfact>
</mgrwt>
</event>
<event>
 5    1  0.3217852E-002  0.1250015E+03  0.7818608E-02  0.1235067E+00
         -4   -1    0    0    0  501 -0.00000000000E+00  0.00000000000E+00  0.81202764767E+03  0.81202864080E+03  0.12700000000E+01 0.  1.
          4   -1    0    0  501    0  0.00000000000E+00 -0.00000000000E+00 -0.47257740512E+01  0.48934487208E+01  0.12700000000E+01 0.  1.
         25    2    1    2    0    0  0.00000000000E+00  0.00000000000E+00  0.80730187362E+03  0.81692208952E+03  0.12500154079E+03 0.  0.
    9000005    1    3    3    0    0 -0.38721852407E+02 -0.15455897308E+01  0.72405216076E+03  0.72508916845E+03  0.10000000000E+01 0.  0.
    9000005    1    3    3    0    0  0.38721852407E+02  0.15455897308E+01  0.83249712854E+02  0.91832921067E+02  0.10000000000E+01 0.  0.
<mgrwt>
<rscale>  0 0.12500154E+03</rscale>
<asrwt>0</asrwt>
<pdfrwt beam="2">  1        4 0.74001640E-03 0.12500154E+03</pdfrwt>
<pdfrwt beam="1">  1       -4 0.12494034E+00 0.12500154E+03</pdfrwt>
<totfact> 0.37519083E+03</totfact>
</mgrwt>
</event>
<event>
 5    1  0.3217852E-002  0.1250004E+03  0.7818608E-02  0.1235069E+00
         -4   -1    0    0    0  501 -0.00000000000E+00  0.00000000000E+00  0.40734649791E+01  0.42668509390E+01  0.12700000000E+01 0.  1.
          4   -1    0    0  501    0  0.00000000000E+00 -0.00000000000E+00 -0.93652759495E+03  0.93652845606E+03  0.12700000000E+01 0.  1.
         25    2    1    2    0    0  0.00000000000E+00  0.00000000000E+00 -0.93245412998E+03  0.94079530700E+03  0.12500042066E+03 0.  0.
    9000005    1    3    3    0    0  0.33396466899E+02  0.19828865735E+02 -0.97761675240E+02  0.10519911151E+03  0.10000000000E+01 0.  0.
    9000005    1    3    3    0    0 -0.33396466899E+02 -0.19828865735E+02 -0.83469245474E+03  0.83559619549E+03  0.10000000000E+01 0.  0.
<mgrwt>
<rscale>  0 0.12500042E+03</rscale>
<asrwt>0</asrwt>
<pdfrwt beam="2">  1        4 0.14409594E+00 0.12500042E+03</pdfrwt>
<pdfrwt beam="1">  1       -4 0.64162975E-03 0.12500042E+03</pdfrwt>
<totfact> 0.32644785E+03</totfact>
</mgrwt>
</event>
<event>
 5    1  0.3217852E-002  0.1250022E+03  0.7818608E-02  0.1235066E+00
          4   -1    0    0  501    0  0.00000000000E+00  0.00000000000E+00  0.49111931034E+01  0.50727426210E+01  0.12700000000E+01 0.  1.
         -4   -1    0    0    0  501 -0.00000000000E+00 -0.00000000000E+00 -0.78237296070E+03  0.78237399147E+03  0.12700000000E+01 0.  1.
         25    2    1    2    0    0  0.00000000000E+00  0.00000000000E+00 -0.77746176759E+03  0.78744673409E+03  0.12500223583E+03 0.  0.
    9000005    1    3    3    0    0  0.92242473426E+01  0.42452262462E+02 -0.67172385673E+03  0.67312793808E+03  0.10000000000E+01 0.  0.
    9000005    1    3    3    0    0 -0.92242473426E+01 -0.42452262462E+02 -0.10573791087E+03  0.11431879601E+03  0.10000000000E+01 0.  0.
<mgrwt>
<rscale>  0 0.12500224E+03</rscale>
<asrwt>0</asrwt>
<pdfrwt beam="1">  1        4 0.76807496E-03 0.12500224E+03</pdfrwt>
<pdfrwt beam="2">  1       -4 0.12037748E+00 0.12500224E+03</pdfrwt>
<totfact> 0.38829450E+03</totfact>
</mgrwt>
</event>
<event>
 5    1  0.3217852E-002  0.1250021E+03  0.7818608E-02  0.1235066E+00
         -4   -1    0    0    0  501 -0.00000000000E+00  0.00000000000E+00  0.60175554455E+02  0.60188954584E+02  0.12700000000E+01 0.  1.
          4   -1    0    0  501    0  0.00000000000E+00 -0.00000000000E+00 -0.64889612735E+02  0.64902039574E+02  0.12700000000E+01 0.  1.
         25    2    1    2    0    0  0.00000000000E+00  0.00000000000E+00 -0.47140582804E+01  0.12509099416E+03  0.12500213788E+03 0.  0.
    9000005    1    3    3    0    0  0.35260637813E+02 -0.40636745234E+02 -0.34171544885E+02  0.63744428164E+02  0.10000000000E+01 0.  0.
    9000005    1    3    3    0    0 -0.35260637813E+02  0.40636745234E+02  0.29457486605E+02  0.61346565994E+02  0.10000000000E+01 0.  0.
<mgrwt>
<rscale>  0 0.12500214E+03</rscale>
<asrwt>0</asrwt>
<pdfrwt beam="2">  1        4 0.99850040E-02 0.12500214E+03</pdfrwt>
<pdfrwt beam="1">  1       -4 0.92597643E-02 0.12500214E+03</pdfrwt>
<totfact> 0.10450382E+04</totfact>
</mgrwt>
</event>
<event>
 5    1  0.3217852E-002  0.1250001E+03  0.7818608E-02  0.1235069E+00
          4   -1    0    0  501    0  0.00000000000E+00  0.00000000000E+00  0.12977719081E+02  0.13039712134E+02  0.12700000000E+01 0. -1.
         -4   -1    0    0    0  501 -0.00000000000E+00 -0.00000000000E+00 -0.30021653191E+03  0.30021921812E+03  0.12700000000E+01 0. -1.
         25    2    1    2    0    0  0.00000000000E+00  0.00000000000E+00 -0.28723881283E+03  0.31325893026E+03  0.12500008717E+03 0.  0.
    9000005    1    3    3    0    0  0.43829296169E+02  0.14802579180E+02 -0.38330715523E+02  0.60086332103E+02  0.10000000000E+01 0.  0.
    9000005    1    3    3    0    0 -0.43829296169E+02 -0.14802579180E+02 -0.24890809730E+03  0.25317259815E+03  0.10000000000E+01 0.  0.
<mgrwt>
<rscale>  0 0.12500009E+03</rscale>
<asrwt>0</asrwt>
<pdfrwt beam="1">  1        4 0.20015477E-02 0.12500009E+03</pdfrwt>
<pdfrwt beam="2">  1       -4 0.46192129E-01 0.12500009E+03</pdfrwt>
<totfact> 0.73964984E+03</totfact>
</mgrwt>
</event>
<event>
 5    1  0.3217852E-002  0.1249977E+03  0.7818608E-02  0.1235073E+00
          4   -1    0    0  501    0  0.00000000000E+00  0.00000000000E+00  0.12220516957E+03  0.12221176854E+03  0.12700000000E+01 0.  1.
         -4   -1    0    0    0  501 -0.00000000000E+00 -0.00000000000E+00 -0.31943412833E+02  0.31968649071E+02  0.12700000000E+01 0.  1.
         25    2    1    2    0    0  0.00000000000E+00  0.00000000000E+00  0.90261756736E+02  0.15418041761E+03  0.12499766576E+03 0.  0.
    9000005    1    3    3    0    0 -0.42916376550E+02 -0.35775983064E+02  0.79654008452E+02  0.97301065785E+02  0.10000000000E+01 0.  0.
    9000005    1    3    3    0    0  0.42916376550E+02  0.35775983064E+02  0.10607748283E+02  0.56879351825E+02  0.10000000000E+01 0.  0.
<mgrwt>
<rscale>  0 0.12499767E+03</rscale>
<asrwt>0</asrwt>
<pdfrwt beam="1">  1        4 0.18803244E-01 0.12499767E+03</pdfrwt>
<pdfrwt beam="2">  1       -4 0.49168201E-02 0.12499767E+03</pdfrwt>
<totfact> 0.98481804E+03</totfact>
</mgrwt>
</event>
<event>
 5    1  0.3217852E-002  0.1250077E+03  0.7818608E-02  0.1235057E+00
          4   -1    0    0  501    0  0.00000000000E+00  0.00000000000E+00  0.88881443590E+01  0.89784191341E+01  0.12700000000E+01 0. -1.
         -4   -1    0    0    0  501 -0.00000000000E+00 -0.00000000000E+00 -0.43723222753E+03  0.43723407197E+03  0.12700000000E+01 0. -1.
         25    2    1    2    0    0  0.00000000000E+00  0.00000000000E+00 -0.42834408317E+03  0.44621249111E+03  0.12500773428E+03 0.  0.
    9000005    1    3    3    0    0  0.29636882711E+02 -0.62082150723E+01 -0.19027388255E+02  0.35776084960E+02  0.10000000000E+01 0.  0.
    9000005    1    3    3    0    0 -0.29636882711E+02  0.62082150723E+01 -0.40931669492E+03  0.41043640615E+03  0.10000000000E+01 0.  0.
<mgrwt>
<rscale>  0 0.12500773E+03</rscale>
<asrwt>0</asrwt>
<pdfrwt beam="1">  1        4 0.13744933E-02 0.12500773E+03</pdfrwt>
<pdfrwt beam="2">  1       -4 0.67273566E-01 0.12500773E+03</pdfrwt>
<totfact> 0.60283052E+03</totfact>
</mgrwt>
</event>
<event>
 5    1  0.3217852E-002  0.1250007E+03  0.7818608E-02  0.1235068E+00
          4   -1    0    0  501    0  0.00000000000E+00  0.00000000000E+00  0.53627924247E+02  0.53642960014E+02  0.12700000000E+01 0.  1.
         -4   -1    0    0    0  501 -0.00000000000E+00 -0.00000000000E+00 -0.72809896043E+02  0.72820971305E+02  0.12700000000E+01 0.  1.
         25    2    1    2    0    0  0.00000000000E+00  0.00000000000E+00 -0.19181971796E+02  0.12646393132E+03  0.12500071153E+03 0.  0.
    9000005    1    3    3    0    0 -0.33151742359E+02 -0.51337755407E+02  0.36268364482E+01  0.61227094446E+02  0.10000000000E+01 0.  0.
    9000005    1    3    3    0    0  0.33151742359E+02  0.51337755407E+02 -0.22808808244E+02  0.65236836873E+02  0.10000000000E+01 0.  0.
<mgrwt>
<rscale>  0 0.12500071E+03</rscale>
<asrwt>0</asrwt>
<pdfrwt beam="1">  1        4 0.82524585E-02 0.12500071E+03</pdfrwt>
<pdfrwt beam="2">  1       -4 0.11203531E-01 0.12500071E+03</pdfrwt>
<totfact> 0.10420647E+04</totfact>
</mgrwt>
</event>
<event>
 5    1  0.3217852E-002  0.1249978E+03  0.7818608E-02  0.1235073E+00
          4   -1    0    0  501    0  0.00000000000E+00  0.00000000000E+00  0.23420670166E+03  0.23421014496E+03  0.12700000000E+01 0.  1.
         -4   -1    0    0    0  501 -0.00000000000E+00 -0.00000000000E+00 -0.16650318310E+02  0.16698682578E+02  0.12700000000E+01 0.  1.
         25    2    1    2    0    0  0.00000000000E+00  0.00000000000E+00  0.21755638335E+03  0.25090882754E+03  0.12499783918E+03 0.  0.
    9000005    1    3    3    0    0 -0.17763262266E+02  0.32642353112E+02  0.79311594878E+01  0.38012629399E+02  0.10000000000E+01 0.  0.
    9000005    1    3    3    0    0  0.17763262266E+02 -0.32642353112E+02  0.20962522387E+03  0.21289619814E+03  0.10000000000E+01 0.  0.
<mgrwt>
<rscale>  0 0.12499784E+03</rscale>
<asrwt>0</asrwt>
<pdfrwt beam="1">  1        4 0.36035782E-01 0.12499784E+03</pdfrwt>
<pdfrwt beam="2">  1       -4 0.25655729E-02 0.12499784E+03</pdfrwt>
<totfact> 0.82203010E+03</totfact>
</mgrwt>
</event>
<event>
 5    1  0.3217852E-002  0.1249907E+03  0.7818608E-02  0.1235084E+00
         -4   -1    0    0    0  501 -0.00000000000E+00  0.00000000000E+00  0.25194129703E+03  0.25194449796E+03  0.12700000000E+01 0.  1.
          4   -1    0    0  501    0  0.00000000000E+00 -0.00000000000E+00 -0.15472989766E+02  0.15525022135E+02  0.12700000000E+01 0.  1.
         25    2    1    2    0    0  0.00000000000E+00  0.00000000000E+00  0.23646830727E+03  0.26746952009E+03  0.12499073500E+03 0.  0.
    9000005    1    3    3    0    0  0.47624038259E+02 -0.39615368581E+02  0.13578204337E+03  0.14924875125E+03  0.10000000000E+01 0.  0.
    9000005    1    3    3    0    0 -0.47624038259E+02  0.39615368581E+02  0.10068626390E+03  0.11822076884E+03  0.10000000000E+01 0.  0.
<mgrwt>
<rscale>  0 0.12499074E+03</rscale>
<asrwt>0</asrwt>
<pdfrwt beam="2">  1        4 0.23847088E-02 0.12499074E+03</pdfrwt>
<pdfrwt beam="1">  1       -4 0.38764446E-01 0.12499074E+03</pdfrwt>
<totfact> 0.79885580E+03</totfact>
</mgrwt>
</event>
<event>
 5    1  0.3217852E-002  0.1249992E+03  0.7818608E-02  0.1235071E+00
         -4   -1    0    0    0  501 -0.00000000000E+00  0.00000000000E+00  0.86483350843E+01  0.87410868735E+01  0.12700000000E+01 0. -1.
          4   -1    0    0  501    0  0.00000000000E+00 -0.00000000000E+00 -0.44916767075E+03  0.44916946617E+03  0.12700000000E+01 0. -1.
         25    2    1    2    0    0  0.00000000000E+00  0.00000000000E+00 -0.44051933566E+03  0.45791055305E+03  0.12499915800E+03 0.  0.
    9000005    1    3    3    0    0  0.47203438439E+02  0.58223412394E+01 -0.71765314542E+02  0.86100665673E+02  0.10000000000E+01 0.  0.
    9000005    1    3    3    0    0 -0.47203438439E+02 -0.58223412394E+01 -0.36875402112E+03  0.37180988737E+03  0.10000000000E+01 0.  0.
<mgrwt>
<rscale>  0 0.12499916E+03</rscale>
<asrwt>0</asrwt>
<pdfrwt beam="2">  1        4 0.69109973E-01 0.12499916E+03</pdfrwt>
<pdfrwt beam="1">  1       -4 0.13377863E-02 0.12499916E+03</pdfrwt>
<totfact> 0.59285686E+03</totfact>
</mgrwt>
</event>
<event>
 5    1  0.3217852E-002  0.1249795E+03  0.7818608E-02  0.1235101E+00
          4   -1    0    0  501    0  0.00000000000E+00  0.00000000000E+00  0.36674227790E+03  0.36674447685E+03  0.12700000000E+01 0. -1.
         -4   -1    0    0    0  501 -0.00000000000E+00 -0.00000000000E+00 -0.10607613800E+02  0.10683368876E+02  0.12700000000E+01 0. -1.
         25    2    1    2    0    0  0.00000000000E+00  0.00000000000E+00  0.35613466410E+03  0.37742784572E+03  0.12497951734E+03 0.  0.
    9000005    1    3    3    0    0  0.41450713942E+02 -0.80388675420E+01  0.38981031909E+02  0.57474393657E+02  0.10000000000E+01 0.  0.
    9000005    1    3    3    0    0 -0.41450713942E+02  0.80388675420E+01  0.31715363219E+03  0.31995345206E+03  0.10000000000E+01 0.  0.
<mgrwt>
<rscale>  0 0.12497952E+03</rscale>
<asrwt>0</asrwt>
<pdfrwt beam="1">  1        4 0.56427884E-01 0.12497952E+03</pdfrwt>
<pdfrwt beam="2">  1       -4 0.16379371E-02 0.12497952E+03</pdfrwt>
<totfact> 0.66839189E+03</totfact>
</mgrwt>
</event>
<event>
 5    1  0.3217852E-002  0.1249970E+03  0.7818608E-02  0.1235074E+00
         -4   -1    0    0    0  501 -0.00000000000E+00  0.00000000000E+00  0.21081364258E+03  0.21081746797E+03  0.12700000000E+01 0.  1.
          4   -1    0    0  501    0  0.00000000000E+00 -0.00000000000E+00 -0.18502761355E+02  0.18546295526E+02  0.12700000000E+01 0.  1.
         25    2    1    2    0    0  0.00000000000E+00  0.00000000000E+00  0.19231088123E+03  0.22936376349E+03  0.12499704382E+03 0.  0.
    9000005    1    3    3    0    0 -0.62614221025E+01 -0.47750946536E+02  0.16922500653E+03  0.17594732490E+03  0.10000000000E+01 0.  0.
    9000005    1    3    3    0    0  0.62614221025E+01  0.47750946536E+02  0.23085874697E+02  0.53416438597E+02  0.10000000000E+01 0.  0.
<mgrwt>
<rscale>  0 0.12499704E+03</rscale>
<asrwt>0</asrwt>
<pdfrwt beam="2">  1        4 0.28502216E-02 0.12499704E+03</pdfrwt>
<pdfrwt beam="1">  1       -4 0.32436512E-01 0.12499704E+03</pdfrwt>
<totfact> 0.85413020E+03</totfact>
</mgrwt>
</event>
<event>
 5    1  0.3217852E-002  0.1250019E+03  0.7818608E-02  0.1235066E+00
          4   -1    0    0  501    0  0.00000000000E+00  0.00000000000E+00  0.30452522571E+02  0.30478993273E+02  0.12700000000E+01 0.  1.
         -4   -1    0    0    0  501 -0.00000000000E+00 -0.00000000000E+00 -0.12819198046E+03  0.12819827126E+03  0.12700000000E+01 0.  1.
         25    2    1    2    0    0  0.00000000000E+00  0.00000000000E+00 -0.97739457888E+02  0.15867726453E+03  0.12500189059E+03 0.  0.
    9000005    1    3    3    0    0 -0.42379340802E+02  0.16882568231E+02 -0.10308864591E+03  0.11273552480E+03  0.10000000000E+01 0.  0.
    9000005    1    3    3    0    0  0.42379340802E+02 -0.16882568231E+02  0.53491880234E+01  0.45941739730E+02  0.10000000000E+01 0.  0.
<mgrwt>
<rscale>  0 0.12500189E+03</rscale>
<asrwt>0</asrwt>
<pdfrwt beam="1">  1        4 0.46875236E-02 0.12500189E+03</pdfrwt>
<pdfrwt beam="2">  1       -4 0.19724363E-01 0.12500189E+03</pdfrwt>
<totfact> 0.97594257E+03</totfact>
</mgrwt>
</event>
<event>
 5    1  0.3217852E-002  0.1249950E+03  0.7818608E-02  0.1235077E+00
         -4   -1    0    0    0  501 -0.00000000000E+00  0.00000000000E+00  0.79756032815E+03  0.79756133930E+03  0.12700000000E+01 0. -1.
          4   -1    0    0  501    0  0.00000000000E+00 -0.00000000000E+00 -0.48139931853E+01  0.49786976599E+01  0.12700000000E+01 0. -1.
         25    2    1    2    0    0  0.00000000000E+00  0.00000000000E+00  0.79274633497E+03  0.80254003696E+03  0.12499503717E+03 0.  0.
    9000005    1    3    3    0    0 -0.31025543800E+02 -0.54181334201E+02  0.41304007701E+03  0.41773353535E+03  0.10000000000E+01 0.  0.
    9000005    1    3    3    0    0  0.31025543800E+02  0.54181334201E+02  0.37970625796E+03  0.38480650160E+03  0.10000000000E+01 0.  0.
<mgrwt>
<rscale>  0 0.12499504E+03</rscale>
<asrwt>0</asrwt>
<pdfrwt beam="2">  1        4 0.75336084E-03 0.12499504E+03</pdfrwt>
<pdfrwt beam="1">  1       -4 0.12271447E+00 0.12499504E+03</pdfrwt>
<totfact> 0.38155678E+03</totfact>
</mgrwt>
</event>
<event>
 5    1  0.3217852E-002  0.1249972E+03  0.7818608E-02  0.1235074E+00
         -4   -1    0    0    0  501 -0.00000000000E+00  0.00000000000E+00  0.42763588281E+02  0.42782442458E+02  0.12700000000E+01 0.  1.
          4   -1    0    0  501    0  0.00000000000E+00 -0.00000000000E+00 -0.91297718878E+02  0.91306551639E+02  0.12700000000E+01 0.  1.
         25    2    1    2    0    0  0.00000000000E+00  0.00000000000E+00 -0.48534130596E+02  0.13408899410E+03  0.12499718599E+03 0.  0.
    9000005    1    3    3    0    0  0.55140526241E+02  0.29245464597E+02 -0.27538346341E+02  0.68228552328E+02  0.10000000000E+01 0.  0.
    9000005    1    3    3    0    0 -0.55140526241E+02 -0.29245464597E+02 -0.20995784255E+02  0.65860441769E+02  0.10000000000E+01 0.  0.
<mgrwt>
<rscale>  0 0.12499719E+03</rscale>
<asrwt>0</asrwt>
<pdfrwt beam="2">  1        4 0.14047933E-01 0.12499719E+03</pdfrwt>
<pdfrwt beam="1">  1       -4 0.65811434E-02 0.12499719E+03</pdfrwt>
<totfact> 0.10257959E+04</totfact>
</mgrwt>
</event>
<event>
 5    1  0.3217852E-002  0.1249994E+03  0.7818608E-02  0.1235070E+00
          4   -1    0    0  501    0  0.00000000000E+00  0.00000000000E+00  0.47805934558E+01  0.49464101922E+01  0.12700000000E+01 0. -1.
         -4   -1    0    0    0  501 -0.00000000000E+00 -0.00000000000E+00 -0.80300185947E+03  0.80300286377E+03  0.12700000000E+01 0. -1.
         25    2    1    2    0    0  0.00000000000E+00  0.00000000000E+00 -0.79822126602E+03  0.80794927396E+03  0.12499935907E+03 0.  0.
    9000005    1    3    3    0    0 -0.29181839047E+02 -0.51626195986E+02 -0.52648937802E+03  0.52981969481E+03  0.10000000000E+01 0.  0.
    9000005    1    3    3    0    0  0.29181839047E+02  0.51626195986E+02 -0.27173188800E+03  0.27812957915E+03  0.10000000000E+01 0.  0.
<mgrwt>
<rscale>  0 0.12499936E+03</rscale>
<asrwt>0</asrwt>
<pdfrwt beam="1">  1        4 0.74830894E-03 0.12499936E+03</pdfrwt>
<pdfrwt beam="2">  1       -4 0.12355147E+00 0.12499936E+03</pdfrwt>
<totfact> 0.37912863E+03</totfact>
</mgrwt>
</event>
<event>
 5    1  0.3217852E-002  0.1249979E+03  0.7818608E-02  0.1235073E+00
          4   -1    0    0  501    0  0.00000000000E+00  0.00000000000E+00  0.46554105073E+03  0.46554278301E+03  0.12700000000E+01 0.  1.
         -4   -1    0    0    0  501 -0.00000000000E+00 -0.00000000000E+00 -0.83406728904E+01  0.84368077058E+01  0.12700000000E+01 0.  1.
         25    2    1    2    0    0  0.00000000000E+00  0.00000000000E+00  0.45720037784E+03  0.47397959071E+03  0.12499786766E+03 0.  0.
    9000005    1    3    3    0    0 -0.30300957813E+02 -0.97518084882E+01  0.43251392837E+03  0.43368484416E+03  0.10000000000E+01 0.  0.
    9000005    1    3    3    0    0  0.30300957813E+02  0.97518084882E+01  0.24686449461E+02  0.40294746558E+02  0.10000000000E+01 0.  0.
<mgrwt>
<rscale>  0 0.12499787E+03</rscale>
<asrwt>0</asrwt>
<pdfrwt beam="1">  1        4 0.71629222E-01 0.12499787E+03</pdfrwt>
<pdfrwt beam="2">  1       -4 0.12907088E-02 0.12499787E+03</pdfrwt>
<totfact> 0.57944024E+03</totfact>
</mgrwt>
</event>
<event>
 5    1  0.3217852E-002  0.1249992E+03  0.7818608E-02  0.1235071E+00
         -4   -1    0    0    0  501 -0.00000000000E+00  0.00000000000E+00  0.16554440175E+02  0.16603083735E+02  0.12700000000E+01 0.  1.
          4   -1    0    0  501    0  0.00000000000E+00 -0.00000000000E+00 -0.23556440120E+03  0.23556782465E+03  0.12700000000E+01 0.  1.
         25    2    1    2    0    0  0.00000000000E+00  0.00000000000E+00 -0.21900996102E+03  0.25217090839E+03  0.12499921604E+03 0.  0.
    9000005    1    3    3    0    0  0.15322084837E+02 -0.60409296442E+02 -0.11878309083E+03  0.13414347561E+03  0.10000000000E+01 0.  0.
    9000005    1    3    3    0    0 -0.15322084837E+02  0.60409296442E+02 -0.10022687019E+03  0.11802743278E+03  0.10000000000E+01 0.  0.
<mgrwt>
<rscale>  0 0.12499922E+03</rscale>
<asrwt>0</asrwt>
<pdfrwt beam="2">  1        4 0.36244680E-01 0.12499922E+03</pdfrwt>
<pdfrwt beam="1">  1       -4 0.25508423E-02 0.12499922E+03</pdfrwt>
<totfact> 0.82018906E+03</totfact>
</mgrwt>
</event>
<event>
 5    1  0.3217852E-002  0.1250010E+03  0.7818608E-02  0.1235068E+00
          4   -1    0    0  501    0  0.00000000000E+00  0.00000000000E+00  0.37964358375E+03  0.37964570797E+03  0.12700000000E+01 0.  1.
         -4   -1    0    0    0  501 -0.00000000000E+00 -0.00000000000E+00 -0.10248063749E+02  0.10326456827E+02  0.12700000000E+01 0.  1.
         25    2    1    2    0    0  0.00000000000E+00  0.00000000000E+00  0.36939552000E+03  0.38997216480E+03  0.12500095648E+03 0.  0.
    9000005    1    3    3    0    0 -0.22958908329E+02 -0.58082754481E+02  0.19138302171E+03  0.20131860033E+03  0.10000000000E+01 0.  0.
    9000005    1    3    3    0    0  0.22958908329E+02  0.58082754481E+02  0.17801249829E+03  0.18865356447E+03  0.10000000000E+01 0.  0.
<mgrwt>
<rscale>  0 0.12500096E+03</rscale>
<asrwt>0</asrwt>
<pdfrwt beam="1">  1        4 0.58412886E-01 0.12500096E+03</pdfrwt>
<pdfrwt beam="2">  1       -4 0.15828192E-02 0.12500096E+03</pdfrwt>
<totfact> 0.65538532E+03</totfact>
</mgrwt>
</event>
<event>
 5    1  0.3217852E-002  0.1249941E+03  0.7818608E-02  0.1235078E+00
          4   -1    0    0  501    0  0.00000000000E+00  0.00000000000E+00  0.82315275006E+01  0.83289221988E+01  0.12700000000E+01 0. -1.
         -4   -1    0    0    0  501 -0.00000000000E+00 -0.00000000000E+00 -0.47161393456E+03  0.47161564454E+03  0.12700000000E+01 0. -1.
         25    2    1    2    0    0  0.00000000000E+00  0.00000000000E+00 -0.46338240706E+03  0.47994456673E+03  0.12499412773E+03 0.  0.
    9000005    1    3    3    0    0 -0.61983210835E+02  0.67385468612E+01 -0.24777990847E+03  0.25550579148E+03  0.10000000000E+01 0.  0.
    9000005    1    3    3    0    0  0.61983210835E+02 -0.67385468612E+01 -0.21560249859E+03  0.22443877525E+03  0.10000000000E+01 0.  0.
<mgrwt>
<rscale>  0 0.12499413E+03</rscale>
<asrwt>0</asrwt>
<pdfrwt beam="1">  1        4 0.12740127E-02 0.12499413E+03</pdfrwt>
<pdfrwt beam="2">  1       -4 0.72563592E-01 0.12499413E+03</pdfrwt>
<totfact> 0.57462137E+03</totfact>
</mgrwt>
</event>
<event>
 5    1  0.3217852E-002  0.1250246E+03  0.7818608E-02  0.1235031E+00
         -4   -1    0    0    0  501 -0.00000000000E+00  0.00000000000E+00  0.85950919605E+02  0.85960301774E+02  0.12700000000E+01 0. -1.
          4   -1    0    0  501    0  0.00000000000E+00 -0.00000000000E+00 -0.45444619737E+02  0.45462362048E+02  0.12700000000E+01 0. -1.
         25    2    1    2    0    0  0.00000000000E+00  0.00000000000E+00  0.40506299869E+02  0.13142266382E+03  0.12502462252E+03 0.  0.
    9000005    1    3    3    0    0  0.54490689655E+02  0.29268807973E+02  0.10798967972E+02  0.62797421034E+02  0.10000000000E+01 0.  0.
    9000005    1    3    3    0    0 -0.54490689655E+02 -0.29268807973E+02  0.29707331897E+02  0.68625242788E+02  0.10000000000E+01 0.  0.
<mgrwt>
<rscale>  0 0.12502462E+03</rscale>
<asrwt>0</asrwt>
<pdfrwt beam="2">  1        4 0.69935665E-02 0.12502462E+03</pdfrwt>
<pdfrwt beam="1">  1       -4 0.13225305E-01 0.12502462E+03</pdfrwt>
<totfact> 0.10308309E+04</totfact>
</mgrwt>
</event>
<event>
 5    1  0.3217852E-002  0.1249939E+03  0.7818608E-02  0.1235079E+00
          4   -1    0    0  501    0  0.00000000000E+00  0.00000000000E+00  0.37467649195E+03  0.37467864433E+03  0.12700000000E+01 0.  1.
         -4   -1    0    0    0  501 -0.00000000000E+00 -0.00000000000E+00 -0.10383766732E+02  0.10461142936E+02  0.12700000000E+01 0.  1.
         25    2    1    2    0    0  0.00000000000E+00  0.00000000000E+00  0.36429272522E+03  0.38513978727E+03  0.12499386422E+03 0.  0.
    9000005    1    3    3    0    0  0.65161174007E+01 -0.61001403754E+02  0.21876495043E+03  0.22720637003E+03  0.10000000000E+01 0.  0.
    9000005    1    3    3    0    0 -0.65161174007E+01  0.61001403754E+02  0.14552777478E+03  0.15793341724E+03  0.10000000000E+01 0.  0.
<mgrwt>
<rscale>  0 0.12499386E+03</rscale>
<asrwt>0</asrwt>
<pdfrwt beam="1">  1        4 0.57648637E-01 0.12499386E+03</pdfrwt>
<pdfrwt beam="2">  1       -4 0.16036207E-02 0.12499386E+03</pdfrwt>
<totfact> 0.66033159E+03</totfact>
</mgrwt>
</event>
<event>
 5    1  0.3217852E-002  0.1250032E+03  0.7818608E-02  0.1235064E+00
          4   -1    0    0  501    0  0.00000000000E+00  0.00000000000E+00  0.65704741855E+02  0.65717014556E+02  0.12700000000E+01 0. -1.
         -4   -1    0    0    0  501 -0.00000000000E+00 -0.00000000000E+00 -0.59430035001E+02  0.59443603190E+02  0.12700000000E+01 0. -1.
         25    2    1    2    0    0  0.00000000000E+00  0.00000000000E+00  0.62747068538E+01  0.12516061775E+03  0.12500323311E+03 0.  0.
    9000005    1    3    3    0    0 -0.48898679626E+02 -0.64584264420E+01 -0.35286214264E+02  0.60654011066E+02  0.10000000000E+01 0.  0.
    9000005    1    3    3    0    0  0.48898679626E+02  0.64584264420E+01  0.41560921118E+02  0.64506606680E+02  0.10000000000E+01 0.  0.
<mgrwt>
<rscale>  0 0.12500323E+03</rscale>
<asrwt>0</asrwt>
<pdfrwt beam="1">  1        4 0.10110409E-01 0.12500323E+03</pdfrwt>
<pdfrwt beam="2">  1       -4 0.91450702E-02 0.12500323E+03</pdfrwt>
<totfact> 0.10448612E+04</totfact>
</mgrwt>
</event>
<event>
 5    1  0.3217852E-002  0.1249985E+03  0.7818608E-02  0.1235072E+00
         -4   -1    0    0    0  501 -0.00000000000E+00  0.00000000000E+00  0.81029057263E+02  0.81039009255E+02  0.12700000000E+01 0.  1.
          4   -1    0    0  501    0  0.00000000000E+00 -0.00000000000E+00 -0.48185544890E+02  0.48202278331E+02  0.12700000000E+01 0.  1.
         25    2    1    2    0    0  0.00000000000E+00  0.00000000000E+00  0.32843512374E+02  0.12924128759E+03  0.12499845644E+03 0.  0.
    9000005    1    3    3    0    0 -0.63603126650E+01  0.43317900448E+02 -0.29681664960E+02  0.52904586864E+02  0.10000000000E+01 0.  0.
    9000005    1    3    3    0    0  0.63603126650E+01 -0.43317900448E+02  0.62525177334E+02  0.76336700722E+02  0.10000000000E+01 0.  0.
<mgrwt>
<rscale>  0 0.12499846E+03</rscale>
<asrwt>0</asrwt>
<pdfrwt beam="2">  1        4 0.74152136E-02 0.12499846E+03</pdfrwt>
<pdfrwt beam="1">  1       -4 0.12468061E-01 0.12499846E+03</pdfrwt>
<totfact> 0.10361126E+04</totfact>
</mgrwt>
</event>
<event>
 5    1  0.3217852E-002  0.1250013E+03  0.7818608E-02  0.1235067E+00
          4   -1    0    0  501    0  0.00000000000E+00  0.00000000000E+00  0.21410939139E+02  0.21448571393E+02  0.12700000000E+01 0.  1.
         -4   -1    0    0    0  501 -0.00000000000E+00 -0.00000000000E+00 -0.18224567462E+03  0.18225009964E+03  0.12700000000E+01 0.  1.
         25    2    1    2    0    0  0.00000000000E+00  0.00000000000E+00 -0.16083473549E+03  0.20369867103E+03  0.12500134576E+03 0.  0.
    9000005    1    3    3    0    0 -0.34920191255E+02  0.29525798092E+02 -0.11009436819E+02  0.47046787450E+02  0.10000000000E+01 0.  0.
    9000005    1    3    3    0    0  0.34920191255E+02 -0.29525798092E+02 -0.14982529867E+03  0.15665188359E+03  0.10000000000E+01 0.  0.
<mgrwt>
<rscale>  0 0.12500135E+03</rscale>
<asrwt>0</asrwt>
<pdfrwt beam="1">  1        4 0.32972259E-02 0.12500135E+03</pdfrwt>
<pdfrwt beam="2">  1       -4 0.28041030E-01 0.12500135E+03</pdfrwt>
<totfact> 0.89512729E+03</totfact>
</mgrwt>
</event>
<event>
 5    1  0.3217852E-002  0.1250296E+03  0.7818608E-02  0.1235023E+00
          4   -1    0    0  501    0  0.00000000000E+00  0.00000000000E+00  0.11431979647E+02  0.11502306667E+02  0.12700000000E+01 0.  1.
         -4   -1    0    0    0  501 -0.00000000000E+00 -0.00000000000E+00 -0.34073683644E+03  0.34073920321E+03  0.12700000000E+01 0.  1.
         25    2    1    2    0    0  0.00000000000E+00  0.00000000000E+00 -0.32930485679E+03  0.35224150988E+03  0.12502956681E+03 0.  0.
    9000005    1    3    3    0    0  0.36881516032E+02  0.48203865257E+02 -0.12255911360E+03  0.13676839977E+03  0.10000000000E+01 0.  0.
    9000005    1    3    3    0    0 -0.36881516032E+02 -0.48203865257E+02 -0.20674574320E+03  0.21547311011E+03  0.10000000000E+01 0.  0.
<mgrwt>
<rscale>  0 0.12502957E+03</rscale>
<asrwt>0</asrwt>
<pdfrwt beam="1">  1        4 0.17643582E-02 0.12502957E+03</pdfrwt>
<pdfrwt beam="2">  1       -4 0.52426636E-01 0.12502957E+03</pdfrwt>
<totfact> 0.69433231E+03</totfact>
</mgrwt>
</event>
<event>
 5    1  0.3217852E-002  0.1250014E+03  0.7818608E-02  0.1235067E+00
         -4   -1    0    0    0  501 -0.00000000000E+00  0.00000000000E+00  0.87799554599E+03  0.87799646450E+03  0.12700000000E+01 0.  1.
          4   -1    0    0  501    0  0.00000000000E+00 -0.00000000000E+00 -0.43575855326E+01  0.45388822053E+01  0.12700000000E+01 0.  1.
         25    2    1    2    0    0  0.00000000000E+00  0.00000000000E+00  0.87363796046E+03  0.88253534671E+03  0.12500140894E+03 0.  0.
    9000005    1    3    3    0    0 -0.39739288980E+02 -0.48228892420E+02  0.43457625448E+03  0.43904755792E+03  0.10000000000E+01 0.  0.
    9000005    1    3    3    0    0  0.39739288980E+02  0.48228892420E+02  0.43906170597E+03  0.44348778879E+03  0.10000000000E+01 0.  0.
<mgrwt>
<rscale>  0 0.12500141E+03</rscale>
<asrwt>0</asrwt>
<pdfrwt beam="2">  1        4 0.68441459E-03 0.12500141E+03</pdfrwt>
<pdfrwt beam="1">  1       -4 0.13509020E+00 0.12500141E+03</pdfrwt>
<totfact> 0.34830589E+03</totfact>
</mgrwt>
</event>
<event>
 5    1  0.3217852E-002  0.1250017E+03  0.7818608E-02  0.1235067E+00
          4   -1    0    0  501    0  0.00000000000E+00  0.00000000000E+00  0.11274967672E+03  0.11275682906E+03  0.12700000000E+01 0. -1.
         -4   -1    0    0    0  501 -0.00000000000E+00 -0.00000000000E+00 -0.34626359985E+02  0.34649642218E+02  0.12700000000E+01 0. -1.
         25    2    1    2    0    0  0.00000000000E+00  0.00000000000E+00  0.78123316734E+02  0.14740647128E+03  0.12500166062E+03 0.  0.
    9000005    1    3    3    0    0 -0.25607454306E+02 -0.44071269408E+02 -0.35760896833E+01  0.51105840378E+02  0.10000000000E+01 0.  0.
    9000005    1    3    3    0    0  0.25607454306E+02  0.44071269408E+02  0.81699406417E+02  0.96300630903E+02  0.10000000000E+01 0.  0.
<mgrwt>
<rscale>  0 0.12500166E+03</rscale>
<asrwt>0</asrwt>
<pdfrwt beam="1">  1        4 0.17348445E-01 0.12500166E+03</pdfrwt>
<pdfrwt beam="2">  1       -4 0.53294735E-02 0.12500166E+03</pdfrwt>
<totfact> 0.99819482E+03</totfact>
</mgrwt>
</event>
<event>
 5    1  0.3217852E-002  0.1250019E+03  0.7818608E-02  0.1235066E+00
         -4   -1    0    0    0  501 -0.00000000000E+00  0.00000000000E+00  0.95947638901E+01  0.96784499847E+01  0.12700000000E+01 0. -1.
          4   -1    0    0  501    0  0.00000000000E+00 -0.00000000000E+00 -0.40528289695E+03  0.40528488679E+03  0.12700000000E+01 0. -1.
         25    2    1    2    0    0  0.00000000000E+00  0.00000000000E+00 -0.39568813306E+03  0.41496333678E+03  0.12500188888E+03 0.  0.
    9000005    1    3    3    0    0 -0.56643321972E+02 -0.41184890242E+01 -0.11128182290E+03  0.12494027366E+03  0.10000000000E+01 0.  0.
    9000005    1    3    3    0    0  0.56643321972E+02  0.41184890242E+01 -0.28440631017E+03  0.29002306311E+03  0.10000000000E+01 0.  0.
<mgrwt>
<rscale>  0 0.12500189E+03</rscale>
<asrwt>0</asrwt>
<pdfrwt beam="2">  1        4 0.62357792E-01 0.12500189E+03</pdfrwt>
<pdfrwt beam="1">  1       -4 0.14827083E-02 0.12500189E+03</pdfrwt>
<totfact> 0.63120409E+03</totfact>
</mgrwt>
</event>
<event>
 5    1  0.3217852E-002  0.1249992E+03  0.7818608E-02  0.1235070E+00
         -4   -1    0    0    0  501 -0.00000000000E+00  0.00000000000E+00  0.26489700431E+03  0.26490004868E+03  0.12700000000E+01 0.  1.
          4   -1    0    0  501    0  0.00000000000E+00 -0.00000000000E+00 -0.14715634712E+02  0.14770335303E+02  0.12700000000E+01 0.  1.
         25    2    1    2    0    0  0.00000000000E+00  0.00000000000E+00  0.25018136959E+03  0.27967038398E+03  0.12499922394E+03 0.  0.
    9000005    1    3    3    0    0  0.77564092478E+01 -0.46476091835E+02  0.33248813192E+02  0.57677314217E+02  0.10000000000E+01 0.  0.
    9000005    1    3    3    0    0 -0.77564092478E+01  0.46476091835E+02  0.21693255640E+03  0.22199306976E+03  0.10000000000E+01 0.  0.
<mgrwt>
<rscale>  0 0.12499922E+03</rscale>
<asrwt>0</asrwt>
<pdfrwt beam="2">  1        4 0.22683860E-02 0.12499922E+03</pdfrwt>
<pdfrwt beam="1">  1       -4 0.40757822E-01 0.12499922E+03</pdfrwt>
<totfact> 0.78223182E+03</totfact>
</mgrwt>
</event>
<event>
 5    1  0.3217852E-002  0.1250370E+03  0.7818608E-02  0.1235012E+00
         -4   -1    0    0    0  501 -0.00000000000E+00  0.00000000000E+00  0.44787838100E+01  0.46553629737E+01  0.12700000000E+01 0. -1.
          4   -1    0    0  501    0  0.00000000000E+00 -0.00000000000E+00 -0.85563609785E+03  0.85563704036E+03  0.12700000000E+01 0. -1.
         25    2    1    2    0    0  0.00000000000E+00  0.00000000000E+00 -0.85115731404E+03  0.86029240333E+03  0.12503697852E+03 0.  0.
    9000005    1    3    3    0    0  0.47904267485E+02  0.35131902273E+01 -0.15033209114E+03  0.15782236525E+03  0.10000000000E+01 0.  0.
    9000005    1    3    3    0    0 -0.47904267485E+02 -0.35131902273E+01 -0.70082522290E+03  0.70247003808E+03  0.10000000000E+01 0.  0.
<mgrwt>
<rscale>  0 0.12503698E+03</rscale>
<asrwt>0</asrwt>
<pdfrwt beam="2">  1        4 0.13164985E+00 0.12503698E+03</pdfrwt>
<pdfrwt beam="1">  1       -4 0.70269985E-03 0.12503698E+03</pdfrwt>
<totfact> 0.35681027E+03</totfact>
</mgrwt>
</event>
<event>
 5    1  0.3217852E-002  0.1250031E+03  0.7818608E-02  0.1235064E+00
          4   -1    0    0  501    0  0.00000000000E+00  0.00000000000E+00  0.34776202208E+02  0.34799384190E+02  0.12700000000E+01 0. -1.
         -4   -1    0    0    0  501 -0.00000000000E+00 -0.00000000000E+00 -0.11226675895E+03  0.11227394206E+03  0.12700000000E+01 0. -1.
         25    2    1    2    0    0  0.00000000000E+00  0.00000000000E+00 -0.77490556746E+02  0.14707332625E+03  0.12500310760E+03 0.  0.
    9000005    1    3    3    0    0 -0.99545951562E+01 -0.45261627950E+02  0.10582305300E+02  0.47546757143E+02  0.10000000000E+01 0.  0.
    9000005    1    3    3    0    0  0.99545951562E+01  0.45261627950E+02 -0.88072862046E+02  0.99526569108E+02  0.10000000000E+01 0.  0.
<mgrwt>
<rscale>  0 0.12500311E+03</rscale>
<asrwt>0</asrwt>
<pdfrwt beam="1">  1        4 0.53525208E-02 0.12500311E+03</pdfrwt>
<pdfrwt beam="2">  1       -4 0.17274145E-01 0.12500311E+03</pdfrwt>
<totfact> 0.99883331E+03</totfact>
</mgrwt>
</event>
<event>
 5    1  0.3217852E-002  0.1249992E+03  0.7818608E-02  0.1235071E+00
          4   -1    0    0  501    0  0.00000000000E+00  0.00000000000E+00  0.62265149261E+01  0.63547138508E+01  0.12700000000E+01 0. -1.
         -4   -1    0    0    0  501 -0.00000000000E+00 -0.00000000000E+00 -0.62082775483E+03  0.62082905382E+03  0.12700000000E+01 0. -1.
         25    2    1    2    0    0  0.00000000000E+00  0.00000000000E+00 -0.61460123990E+03  0.62718376767E+03  0.12499917735E+03 0.  0.
    9000005    1    3    3    0    0 -0.43656921144E+02 -0.43436482684E+02 -0.36052963482E+03  0.36575302100E+03  0.10000000000E+01 0.  0.
    9000005    1    3    3    0    0  0.43656921144E+02  0.43436482684E+02 -0.25407160508E+03  0.26143074666E+03  0.10000000000E+01 0.  0.
<mgrwt>
<rscale>  0 0.12499918E+03</rscale>
<asrwt>0</asrwt>
<pdfrwt beam="1">  1        4 0.96788724E-03 0.12499918E+03</pdfrwt>
<pdfrwt beam="2">  1       -4 0.95521876E-01 0.12499918E+03</pdfrwt>
<totfact> 0.47196323E+03</totfact>
</mgrwt>
</event>
<event>
 5    1  0.3217852E-002  0.1250312E+03  0.7818608E-02  0.1235020E+00
         -4   -1    0    0    0  501 -0.00000000000E+00  0.00000000000E+00  0.17370030703E+03  0.17370494973E+03  0.12700000000E+01 0.  1.
          4   -1    0    0  501    0  0.00000000000E+00 -0.00000000000E+00 -0.22476816301E+02  0.22512666902E+02  0.12700000000E+01 0.  1.
         25    2    1    2    0    0  0.00000000000E+00  0.00000000000E+00  0.15122349073E+03  0.19621761663E+03  0.12503123182E+03 0.  0.
    9000005    1    3    3    0    0  0.18497186585E+02 -0.25732881071E+02  0.16016564952E+03  0.16327388758E+03  0.10000000000E+01 0.  0.
    9000005    1    3    3    0    0 -0.18497186585E+02  0.25732881071E+02 -0.89421587964E+01  0.32943729050E+02  0.10000000000E+01 0.  0.
<mgrwt>
<rscale>  0 0.12503123E+03</rscale>
<asrwt>0</asrwt>
<pdfrwt beam="2">  1        4 0.34610866E-02 0.12503123E+03</pdfrwt>
<pdfrwt beam="1">  1       -4 0.26726239E-01 0.12503123E+03</pdfrwt>
<totfact> 0.90713143E+03</totfact>
</mgrwt>
</event>
<event>
 5    1  0.3217852E-002  0.1250016E+03  0.7818608E-02  0.1235067E+00
         -4   -1    0    0    0  501 -0.00000000000E+00  0.00000000000E+00  0.13916609378E+04  0.13916615173E+04  0.12700000000E+01 0. -1.
          4   -1    0    0  501    0  0.00000000000E+00 -0.00000000000E+00 -0.26627088398E+01  0.29500709086E+01  0.12700000000E+01 0. -1.
         25    2    1    2    0    0  0.00000000000E+00  0.00000000000E+00  0.13889982290E+04  0.13946115882E+04  0.12500160749E+03 0.  0.
    9000005    1    3    3    0    0 -0.35823500982E+02 -0.51109515145E+02  0.65949338845E+03  0.66244096731E+03  0.10000000000E+01 0.  0.
    9000005    1    3    3    0    0  0.35823500982E+02  0.51109515145E+02  0.72950484050E+03  0.73217062087E+03  0.10000000000E+01 0.  0.
<mgrwt>
<rscale>  0 0.12500161E+03</rscale>
<asrwt>0</asrwt>
<pdfrwt beam="2">  1        4 0.43179608E-03 0.12500161E+03</pdfrwt>
<pdfrwt beam="1">  1       -4 0.21412422E+00 0.12500161E+03</pdfrwt>
<totfact> 0.20096093E+03</totfact>
</mgrwt>
</event>
<event>
 5    1  0.3217852E-002  0.1249984E+03  0.7818608E-02  0.1235072E+00
         -4   -1    0    0    0  501 -0.00000000000E+00  0.00000000000E+00  0.92948360538E+02  0.92957036456E+02  0.12700000000E+01 0. -1.
          4   -1    0    0  501    0  0.00000000000E+00 -0.00000000000E+00 -0.42004699989E+02  0.42023894646E+02  0.12700000000E+01 0. -1.
         25    2    1    2    0    0  0.00000000000E+00  0.00000000000E+00  0.50943660549E+02  0.13498093110E+03  0.12499838083E+03 0.  0.
    9000005    1    3    3    0    0  0.24322797500E+01 -0.56307544636E+01  0.92627816757E+02  0.92836058823E+02  0.10000000000E+01 0.  0.
    9000005    1    3    3    0    0 -0.24322797500E+01  0.56307544636E+01 -0.41684156208E+02  0.42144872279E+02  0.10000000000E+01 0.  0.
<mgrwt>
<rscale>  0 0.12499838E+03</rscale>
<asrwt>0</asrwt>
<pdfrwt beam="2">  1        4 0.64644054E-02 0.12499838E+03</pdfrwt>
<pdfrwt beam="1">  1       -4 0.14301892E-01 0.12499838E+03</pdfrwt>
<totfact> 0.10238847E+04</totfact>
</mgrwt>
</event>
<event>
 5    1  0.3217852E-002  0.1249995E+03  0.7818608E-02  0.1235070E+00
         -4   -1    0    0    0  501 -0.00000000000E+00  0.00000000000E+00  0.20202941720E+03  0.20203340891E+03  0.12700000000E+01 0.  1.
          4   -1    0    0  501    0  0.00000000000E+00 -0.00000000000E+00 -0.19309854171E+02  0.19351572756E+02  0.12700000000E+01 0.  1.
         25    2    1    2    0    0  0.00000000000E+00  0.00000000000E+00  0.18271956303E+03  0.22138498167E+03  0.12499948557E+03 0.  0.
    9000005    1    3    3    0    0 -0.42702789911E+02  0.30092922584E+02  0.15209814520E+03  0.16082275345E+03  0.10000000000E+01 0.  0.
    9000005    1    3    3    0    0  0.42702789911E+02 -0.30092922584E+02  0.30621417835E+02  0.60562228212E+02  0.10000000000E+01 0.  0.
<mgrwt>
<rscale>  0 0.12499949E+03</rscale>
<asrwt>0</asrwt>
<pdfrwt beam="2">  1        4 0.29742628E-02 0.12499949E+03</pdfrwt>
<pdfrwt beam="1">  1       -4 0.31084967E-01 0.12499949E+03</pdfrwt>
<totfact> 0.86650661E+03</totfact>
</mgrwt>
</event>
<event>
 5    1  0.3217852E-002  0.1250016E+03  0.7818608E-02  0.1235067E+00
         -4   -1    0    0    0  501 -0.00000000000E+00  0.00000000000E+00  0.10229300496E+03  0.10230088838E+03  0.12700000000E+01 0.  1.
          4   -1    0    0  501    0  0.00000000000E+00 -0.00000000000E+00 -0.38167945143E+02  0.38189068285E+02  0.12700000000E+01 0.  1.
         25    2    1    2    0    0  0.00000000000E+00  0.00000000000E+00  0.64125059814E+02  0.14048995666E+03  0.12500161850E+03 0.  0.
    9000005    1    3    3    0    0 -0.16798394185E+02 -0.31779071528E+02 -0.25391513394E+02  0.44020726786E+02  0.10000000000E+01 0.  0.
    9000005    1    3    3    0    0  0.16798394185E+02  0.31779071528E+02  0.89516573208E+02  0.96469229878E+02  0.10000000000E+01 0.  0.
<mgrwt>
<rscale>  0 0.12500162E+03</rscale>
<asrwt>0</asrwt>
<pdfrwt beam="2">  1        4 0.58742229E-02 0.12500162E+03</pdfrwt>
<pdfrwt beam="1">  1       -4 0.15739616E-01 0.12500162E+03</pdfrwt>
<totfact> 0.10123072E+04</totfact>
</mgrwt>
</event>
<event>
 5    1  0.3217852E-002  0.1250053E+03  0.7818608E-02  0.1235061E+00
         -4   -1    0    0    0  501 -0.00000000000E+00  0.00000000000E+00  0.33351411143E+02  0.33375582770E+02  0.12700000000E+01 0. -1.
          4   -1    0    0  501    0  0.00000000000E+00 -0.00000000000E+00 -0.11706384371E+03  0.11707073248E+03  0.12700000000E+01 0. -1.
         25    2    1    2    0    0  0.00000000000E+00  0.00000000000E+00 -0.83712432567E+02  0.15044631525E+03  0.12500528952E+03 0.  0.
    9000005    1    3    3    0    0  0.33459982566E+02 -0.48651211770E+02 -0.17218733844E+02  0.61514190519E+02  0.10000000000E+01 0.  0.
    9000005    1    3    3    0    0 -0.33459982566E+02  0.48651211770E+02 -0.66493698723E+02  0.88932124735E+02  0.10000000000E+01 0.  0.
<mgrwt>
<rscale>  0 0.12500529E+03</rscale>
<asrwt>0</asrwt>
<pdfrwt beam="2">  1        4 0.18012211E-01 0.12500529E+03</pdfrwt>
<pdfrwt beam="1">  1       -4 0.51333756E-02 0.12500529E+03</pdfrwt>
<totfact> 0.99202997E+03</totfact>
</mgrwt>
</event>
<event>
 5    1  0.3217852E-002  0.1249955E+03  0.7818608E-02  0.1235076E+00
         -4   -1    0    0    0  501 -0.00000000000E+00  0.00000000000E+00  0.16739796107E+03  0.16740277856E+03  0.12700000000E+01 0.  1.
          4   -1    0    0  501    0  0.00000000000E+00 -0.00000000000E+00 -0.23311008007E+02  0.23345577617E+02  0.12700000000E+01 0.  1.
         25    2    1    2    0    0  0.00000000000E+00  0.00000000000E+00  0.14408695306E+03  0.19074835618E+03  0.12499554129E+03 0.  0.
    9000005    1    3    3    0    0  0.16695887334E+02 -0.48922478985E+02  0.18462045375E+02  0.54899988373E+02  0.10000000000E+01 0.  0.
    9000005    1    3    3    0    0 -0.16695887334E+02  0.48922478985E+02  0.12562490769E+03  0.13584836780E+03  0.10000000000E+01 0.  0.
<mgrwt>
<rscale>  0 0.12499554E+03</rscale>
<asrwt>0</asrwt>
<pdfrwt beam="2">  1        4 0.35893388E-02 0.12499554E+03</pdfrwt>
<pdfrwt beam="1">  1       -4 0.25756562E-01 0.12499554E+03</pdfrwt>
<totfact> 0.91726426E+03</totfact>
</mgrwt>
</event>
<event>
 5    1  0.3217852E-002  0.1250046E+03  0.7818608E-02  0.1235062E+00
          4   -1    0    0  501    0  0.00000000000E+00  0.00000000000E+00  0.14122764841E+02  0.14179752705E+02  0.12700000000E+01 0. -1.
         -4   -1    0    0    0  501 -0.00000000000E+00 -0.00000000000E+00 -0.27599758465E+03  0.27600050658E+03  0.12700000000E+01 0. -1.
         25    2    1    2    0    0  0.00000000000E+00  0.00000000000E+00 -0.26187481981E+03  0.29018025929E+03  0.12500464643E+03 0.  0.
    9000005    1    3    3    0    0 -0.36135844796E+02  0.50783416976E+02 -0.12035404149E+03  0.13553910883E+03  0.10000000000E+01 0.  0.
    9000005    1    3    3    0    0  0.36135844796E+02 -0.50783416976E+02 -0.14152077832E+03  0.15464115046E+03  0.10000000000E+01 0.  0.
<mgrwt>
<rscale>  0 0.12500465E+03</rscale>
<asrwt>0</asrwt>
<pdfrwt beam="1">  1        4 0.21773417E-02 0.12500465E+03</pdfrwt>
<pdfrwt beam="2">  1       -4 0.42465771E-01 0.12500465E+03</pdfrwt>
<totfact> 0.76839424E+03</totfact>
</mgrwt>
</event>
<event>
 5    1  0.3217852E-002  0.1250005E+03  0.7818608E-02  0.1235069E+00
          4   -1    0    0  501    0  0.00000000000E+00  0.00000000000E+00  0.22487815452E+02  0.22523648546E+02  0.12700000000E+01 0.  1.
         -4   -1    0    0    0  501 -0.00000000000E+00 -0.00000000000E+00 -0.17352998895E+03  0.17353463621E+03  0.12700000000E+01 0.  1.
         25    2    1    2    0    0  0.00000000000E+00  0.00000000000E+00 -0.15104217349E+03  0.19605828475E+03  0.12500045139E+03 0.  0.
    9000005    1    3    3    0    0  0.91251850872E+01 -0.38210659904E+02  0.70601323131E+00  0.39304223538E+02  0.10000000000E+01 0.  0.
    9000005    1    3    3    0    0 -0.91251850872E+01  0.38210659904E+02 -0.15174818673E+03  0.15675406122E+03  0.10000000000E+01 0.  0.
<mgrwt>
<rscale>  0 0.12500045E+03</rscale>
<asrwt>0</asrwt>
<pdfrwt beam="1">  1        4 0.34627779E-02 0.12500045E+03</pdfrwt>
<pdfrwt beam="2">  1       -4 0.26700034E-01 0.12500045E+03</pdfrwt>
<totfact> 0.90802830E+03</totfact>
</mgrwt>
</event>
<event>
 5    1  0.3217852E-002  0.1249919E+03  0.7818608E-02  0.1235082E+00
         -4   -1    0    0    0  501 -0.00000000000E+00  0.00000000000E+00  0.15810038618E+02  0.15860965327E+02  0.12700000000E+01 0. -1.
          4   -1    0    0  501    0  0.00000000000E+00 -0.00000000000E+00 -0.24659207297E+03  0.24659534333E+03  0.12700000000E+01 0. -1.
         25    2    1    2    0    0  0.00000000000E+00  0.00000000000E+00 -0.23078203435E+03  0.26245630866E+03  0.12499186603E+03 0.  0.
    9000005    1    3    3    0    0 -0.17138267781E+02 -0.57866409277E+02 -0.81370571408E+02  0.10131343167E+03  0.10000000000E+01 0.  0.
    9000005    1    3    3    0    0  0.17138267781E+02  0.57866409277E+02 -0.14941146295E+03  0.16114287699E+03  0.10000000000E+01 0.  0.
<mgrwt>
<rscale>  0 0.12499187E+03</rscale>
<asrwt>0</asrwt>
<pdfrwt beam="2">  1        4 0.37941408E-01 0.12499187E+03</pdfrwt>
<pdfrwt beam="1">  1       -4 0.24364828E-02 0.12499187E+03</pdfrwt>
<totfact> 0.80577171E+03</totfact>
</mgrwt>
</event>
<event>
 5    1  0.3217852E-002  0.1250326E+03  0.7818608E-02  0.1235018E+00
          4   -1    0    0  501    0  0.00000000000E+00  0.00000000000E+00  0.65275540571E+02  0.65287893953E+02  0.12700000000E+01 0. -1.
         -4   -1    0    0    0  501 -0.00000000000E+00 -0.00000000000E+00 -0.59848897620E+02  0.59862370871E+02  0.12700000000E+01 0. -1.
         25    2    1    2    0    0  0.00000000000E+00  0.00000000000E+00  0.54266429510E+01  0.12515026482E+03  0.12503255709E+03 0.  0.
    9000005    1    3    3    0    0  0.32005281165E+02 -0.26426022508E+02  0.49497160482E+02  0.64603727322E+02  0.10000000000E+01 0.  0.
    9000005    1    3    3    0    0 -0.32005281165E+02  0.26426022508E+02 -0.44070517531E+02  0.60546537503E+02  0.10000000000E+01 0.  0.
<mgrwt>
<rscale>  0 0.12503256E+03</rscale>
<asrwt>0</asrwt>
<pdfrwt beam="1">  1        4 0.10044377E-01 0.12503256E+03</pdfrwt>
<pdfrwt beam="2">  1       -4 0.92095094E-02 0.12503256E+03</pdfrwt>
<totfact> 0.10441915E+04</totfact>
</mgrwt>
</event>
<event>
 5    1  0.3217852E-002  0.1249990E+03  0.7818608E-02  0.1235071E+00
          4   -1    0    0  501    0  0.00000000000E+00  0.00000000000E+00  0.42059812915E+02  0.42078982431E+02  0.12700000000E+01 0.  1.
         -4   -1    0    0    0  501 -0.00000000000E+00 -0.00000000000E+00 -0.92827468791E+02  0.92836156007E+02  0.12700000000E+01 0.  1.
         25    2    1    2    0    0  0.00000000000E+00  0.00000000000E+00 -0.50767655876E+02  0.13491513844E+03  0.12499895878E+03 0.  0.
    9000005    1    3    3    0    0 -0.57692178110E+02  0.12850823065E+02 -0.34850246895E+01  0.59217197380E+02  0.10000000000E+01 0.  0.
    9000005    1    3    3    0    0  0.57692178110E+02 -0.12850823065E+02 -0.47282631186E+02  0.75697941058E+02  0.10000000000E+01 0.  0.
<mgrwt>
<rscale>  0 0.12499896E+03</rscale>
<asrwt>0</asrwt>
<pdfrwt beam="1">  1        4 0.64728833E-02 0.12499896E+03</pdfrwt>
<pdfrwt beam="2">  1       -4 0.14283292E-01 0.12499896E+03</pdfrwt>
<totfact> 0.10240100E+04</totfact>
</mgrwt>
</event>
<event>
 5    1  0.3217852E-002  0.1249925E+03  0.7818608E-02  0.1235081E+00
          4   -1    0    0  501    0  0.00000000000E+00  0.00000000000E+00  0.25752976324E+02  0.25784272136E+02  0.12700000000E+01 0.  1.
         -4   -1    0    0    0  501 -0.00000000000E+00 -0.00000000000E+00 -0.15153726393E+03  0.15154258563E+03  0.12700000000E+01 0.  1.
         25    2    1    2    0    0  0.00000000000E+00  0.00000000000E+00 -0.12578428760E+03  0.17732685776E+03  0.12499250968E+03 0.  0.
    9000005    1    3    3    0    0  0.53510978493E+02 -0.98357796489E+00 -0.10865240939E+03  0.12112282325E+03  0.10000000000E+01 0.  0.
    9000005    1    3    3    0    0 -0.53510978493E+02  0.98357796489E+00 -0.17131878213E+02  0.56204034517E+02  0.10000000000E+01 0.  0.
<mgrwt>
<rscale>  0 0.12499251E+03</rscale>
<asrwt>0</asrwt>
<pdfrwt beam="1">  1        4 0.39648132E-02 0.12499251E+03</pdfrwt>
<pdfrwt beam="2">  1       -4 0.23316242E-01 0.12499251E+03</pdfrwt>
<totfact> 0.94116212E+03</totfact>
</mgrwt>
</event>
<event>
 5    1  0.3217852E-002  0.1249980E+03  0.7818608E-02  0.1235072E+00
          4   -1    0    0  501    0  0.00000000000E+00  0.00000000000E+00  0.76227012588E+03  0.76227118384E+03  0.12700000000E+01 0.  1.
         -4   -1    0    0    0  501 -0.00000000000E+00 -0.00000000000E+00 -0.50445659194E+01  0.52019751359E+01  0.12700000000E+01 0.  1.
         25    2    1    2    0    0  0.00000000000E+00  0.00000000000E+00  0.75722555996E+03  0.76747315898E+03  0.12499800433E+03 0.  0.
    9000005    1    3    3    0    0 -0.56100641229E+01 -0.62027717227E+02  0.34717636889E+03  0.35271991954E+03  0.10000000000E+01 0.  0.
    9000005    1    3    3    0    0  0.56100641229E+01  0.62027717227E+02  0.41004919107E+03  0.41475323943E+03  0.10000000000E+01 0.  0.
<mgrwt>
<rscale>  0 0.12499800E+03</rscale>
<asrwt>0</asrwt>
<pdfrwt beam="1">  1        4 0.11728451E+00 0.12499800E+03</pdfrwt>
<pdfrwt beam="2">  1       -4 0.78827691E-03 0.12499800E+03</pdfrwt>
<totfact> 0.39753748E+03</totfact>
</mgrwt>
</event>
<event>
 5    1  0.3217852E-002  0.1250015E+03  0.7818608E-02  0.1235067E+00
          4   -1    0    0  501    0  0.00000000000E+00  0.00000000000E+00  0.58936451601E+02  0.58950133395E+02  0.12700000000E+01 0.  1.
         -4   -1    0    0    0  501 -0.00000000000E+00 -0.00000000000E+00 -0.66253161233E+02  0.66265332365E+02  0.12700000000E+01 0.  1.
         25    2    1    2    0    0  0.00000000000E+00  0.00000000000E+00 -0.73167096325E+01  0.12521546576E+03  0.12500151449E+03 0.  0.
    9000005    1    3    3    0    0  0.19409334098E+01  0.18148474610E+02 -0.63528623587E+02  0.66106129580E+02  0.10000000000E+01 0.  0.
    9000005    1    3    3    0    0 -0.19409334098E+01 -0.18148474610E+02  0.56211913955E+02  0.59109336180E+02  0.10000000000E+01 0.  0.
<mgrwt>
<rscale>  0 0.12500151E+03</rscale>
<asrwt>0</asrwt>
<pdfrwt beam="1">  1        4 0.90691352E-02 0.12500151E+03</pdfrwt>
<pdfrwt beam="2">  1       -4 0.10194783E-01 0.12500151E+03</pdfrwt>
<totfact> 0.10447827E+04</totfact>
</mgrwt>
</event>
<event>
 5    1  0.3217852E-002  0.1250160E+03  0.7818608E-02  0.1235044E+00
         -4   -1    0    0    0  501 -0.00000000000E+00  0.00000000000E+00  0.78043538654E+02  0.78053871305E+02  0.12700000000E+01 0.  1.
          4   -1    0    0  501    0  0.00000000000E+00 -0.00000000000E+00 -0.50043260835E+02  0.50059373298E+02  0.12700000000E+01 0.  1.
         25    2    1    2    0    0  0.00000000000E+00  0.00000000000E+00  0.28000277819E+02  0.12811324460E+03  0.12501595052E+03 0.  0.
    9000005    1    3    3    0    0  0.20165555596E+02 -0.53318348973E+02 -0.12261932318E+02  0.58316815361E+02  0.10000000000E+01 0.  0.
    9000005    1    3    3    0    0 -0.20165555596E+02  0.53318348973E+02  0.40262210138E+02  0.69796429242E+02  0.10000000000E+01 0.  0.
<mgrwt>
<rscale>  0 0.12501595E+03</rscale>
<asrwt>0</asrwt>
<pdfrwt beam="2">  1        4 0.77009975E-02 0.12501595E+03</pdfrwt>
<pdfrwt beam="1">  1       -4 0.12008732E-01 0.12501595E+03</pdfrwt>
<totfact> 0.10381304E+04</totfact>
</mgrwt>
</event>
<event>
 5    1  0.3217852E-002  0.1250001E+03  0.7818608E-02  0.1235069E+00
         -4   -1    0    0    0  501 -0.00000000000E+00  0.00000000000E+00  0.38871423719E+03  0.38871631184E+03  0.12700000000E+01 0.  1.
          4   -1    0    0  501    0  0.00000000000E+00 -0.00000000000E+00 -0.10006944505E+02  0.10087211623E+02  0.12700000000E+01 0.  1.
         25    2    1    2    0    0  0.00000000000E+00  0.00000000000E+00  0.37870729268E+03  0.39880352346E+03  0.12500014719E+03 0.  0.
    9000005    1    3    3    0    0 -0.36102401960E+02 -0.40260082806E+02  0.89426542862E+02  0.10451011560E+03  0.10000000000E+01 0.  0.
    9000005    1    3    3    0    0  0.36102401960E+02  0.40260082806E+02  0.28928074982E+03  0.29429340786E+03  0.10000000000E+01 0.  0.
<mgrwt>
<rscale>  0 0.12500015E+03</rscale>
<asrwt>0</asrwt>
<pdfrwt beam="2">  1        4 0.15458635E-02 0.12500015E+03</pdfrwt>
<pdfrwt beam="1">  1       -4 0.59808538E-01 0.12500015E+03</pdfrwt>
<totfact> 0.64669103E+03</totfact>
</mgrwt>
</event>
<event>
 5    1  0.3217852E-002  0.1250007E+03  0.7818608E-02  0.1235068E+00
          4   -1    0    0  501    0  0.00000000000E+00  0.00000000000E+00  0.10888285258E+03  0.10889025892E+03  0.12700000000E+01 0.  1.
         -4   -1    0    0    0  501 -0.00000000000E+00 -0.00000000000E+00 -0.35856234848E+02  0.35878719005E+02  0.12700000000E+01 0.  1.
         25    2    1    2    0    0  0.00000000000E+00  0.00000000000E+00  0.73026617737E+02  0.14476897792E+03  0.12500068028E+03 0.  0.
    9000005    1    3    3    0    0 -0.18175412930E+02 -0.59739281130E+02  0.33637660712E+02  0.70933909826E+02  0.10000000000E+01 0.  0.
    9000005    1    3    3    0    0  0.18175412930E+02  0.59739281130E+02  0.39388957025E+02  0.73835068095E+02  0.10000000000E+01 0.  0.
<mgrwt>
<rscale>  0 0.12500068E+03</rscale>
<asrwt>0</asrwt>
<pdfrwt beam="1">  1        4 0.16753507E-01 0.12500068E+03</pdfrwt>
<pdfrwt beam="2">  1       -4 0.55186431E-02 0.12500068E+03</pdfrwt>
<totfact> 0.10035531E+04</totfact>
</mgrwt>
</event>
<event>
 5    1  0.3217852E-002  0.1249986E+03  0.7818608E-02  0.1235071E+00
         -4   -1    0    0    0  501 -0.00000000000E+00  0.00000000000E+00  0.23258291264E+01  0.26499775707E+01  0.12700000000E+01 0.  1.
          4   -1    0    0  501    0  0.00000000000E+00 -0.00000000000E+00 -0.15697376959E+04  0.15697382096E+04  0.12700000000E+01 0.  1.
         25    2    1    2    0    0  0.00000000000E+00  0.00000000000E+00 -0.15674118667E+04  0.15723881872E+04  0.12499860480E+03 0.  0.
    9000005    1    3    3    0    0  0.24488118247E+02  0.52143156086E+02 -0.10883694881E+04  0.10898934440E+04  0.10000000000E+01 0.  0.
    9000005    1    3    3    0    0 -0.24488118247E+02 -0.52143156086E+02 -0.47904237866E+03  0.48249474319E+03  0.10000000000E+01 0.  0.
<mgrwt>
<rscale>  0 0.12499860E+03</rscale>
<asrwt>0</asrwt>
<pdfrwt beam="2">  1        4 0.24152229E+00 0.12499860E+03</pdfrwt>
<pdfrwt beam="1">  1       -4 0.38279514E-03 0.12499860E+03</pdfrwt>
<totfact> 0.16551150E+03</totfact>
</mgrwt>
</event>
<event>
 5    1  0.3217852E-002  0.1249983E+03  0.7818608E-02  0.1235072E+00
          4   -1    0    0  501    0  0.00000000000E+00  0.00000000000E+00  0.79115911093E+02  0.79126103709E+02  0.12700000000E+01 0. -1.
         -4   -1    0    0    0  501 -0.00000000000E+00 -0.00000000000E+00 -0.49350853157E+02  0.49367191608E+02  0.12700000000E+01 0. -1.
         25    2    1    2    0    0  0.00000000000E+00  0.00000000000E+00  0.29765057937E+02  0.12849329532E+03  0.12499827306E+03 0.  0.
    9000005    1    3    3    0    0 -0.44638544191E+02  0.40525725573E+02 -0.20150918588E+01  0.60332368227E+02  0.10000000000E+01 0.  0.
    9000005    1    3    3    0    0  0.44638544191E+02 -0.40525725573E+02  0.31780149796E+02  0.68160927090E+02  0.10000000000E+01 0.  0.
<mgrwt>
<rscale>  0 0.12499827E+03</rscale>
<asrwt>0</asrwt>
<pdfrwt beam="1">  1        4 0.12173720E-01 0.12499827E+03</pdfrwt>
<pdfrwt beam="2">  1       -4 0.75944798E-02 0.12499827E+03</pdfrwt>
<totfact> 0.10377253E+04</totfact>
</mgrwt>
</event>
<event>
 5    1  0.3217852E-002  0.1250023E+03  0.7818608E-02  0.1235066E+00
         -4   -1    0    0    0  501 -0.00000000000E+00  0.00000000000E+00  0.86025009758E+03  0.86025103504E+03  0.12700000000E+01 0. -1.
          4   -1    0    0  501    0  0.00000000000E+00 -0.00000000000E+00 -0.44512423620E+01  0.46288722779E+01  0.12700000000E+01 0. -1.
         25    2    1    2    0    0  0.00000000000E+00  0.00000000000E+00  0.85579885522E+03  0.86487990732E+03  0.12500229393E+03 0.  0.
    9000005    1    3    3    0    0  0.45137128445E+02  0.43123476676E+02  0.40784798611E+03  0.41259904796E+03  0.10000000000E+01 0.  0.
    9000005    1    3    3    0    0 -0.45137128445E+02 -0.43123476676E+02  0.44795086911E+03  0.45228085935E+03  0.10000000000E+01 0.  0.
<mgrwt>
<rscale>  0 0.12500229E+03</rscale>
<asrwt>0</asrwt>
<pdfrwt beam="2">  1        4 0.69854234E-03 0.12500229E+03</pdfrwt>
<pdfrwt beam="1">  1       -4 0.13235993E+00 0.12500229E+03</pdfrwt>
<totfact> 0.35524257E+03</totfact>
</mgrwt>
</event>
<event>
 5    1  0.3217852E-002  0.1250015E+03  0.7818608E-02  0.1235067E+00
          4   -1    0    0  501    0  0.00000000000E+00  0.00000000000E+00  0.19698548160E+03  0.19698957552E+03  0.12700000000E+01 0.  1.
         -4   -1    0    0    0  501 -0.00000000000E+00 -0.00000000000E+00 -0.19805993081E+02  0.19846668787E+02  0.12700000000E+01 0.  1.
         25    2    1    2    0    0  0.00000000000E+00  0.00000000000E+00  0.17717948852E+03  0.21683624430E+03  0.12500154275E+03 0.  0.
    9000005    1    3    3    0    0  0.56855311057E+02 -0.24424391755E+02  0.73440503905E+02  0.96039496676E+02  0.10000000000E+01 0.  0.
    9000005    1    3    3    0    0 -0.56855311057E+02  0.24424391755E+02  0.10373898462E+03  0.12079674763E+03  0.10000000000E+01 0.  0.
<mgrwt>
<rscale>  0 0.12500154E+03</rscale>
<asrwt>0</asrwt>
<pdfrwt beam="1">  1        4 0.30308904E-01 0.12500154E+03</pdfrwt>
<pdfrwt beam="2">  1       -4 0.30505195E-02 0.12500154E+03</pdfrwt>
<totfact> 0.87368448E+03</totfact>
</mgrwt>
</event>
<event>
 5    1  0.3217852E-002  0.1250014E+03  0.7818608E-02  0.1235067E+00
         -4   -1    0    0    0  501 -0.00000000000E+00  0.00000000000E+00  0.14352727449E+02  0.14408805822E+02  0.12700000000E+01 0.  1.
          4   -1    0    0  501    0  0.00000000000E+00 -0.00000000000E+00 -0.27157848787E+03  0.27158145735E+03  0.12700000000E+01 0.  1.
         25    2    1    2    0    0  0.00000000000E+00  0.00000000000E+00 -0.25722576042E+03  0.28599026317E+03  0.12500135520E+03 0.  0.
    9000005    1    3    3    0    0  0.52207403961E+02 -0.32190798258E+02 -0.10120828439E+03  0.11834685188E+03  0.10000000000E+01 0.  0.
    9000005    1    3    3    0    0 -0.52207403961E+02  0.32190798258E+02 -0.15601747604E+03  0.16764341129E+03  0.10000000000E+01 0.  0.
<mgrwt>
<rscale>  0 0.12500136E+03</rscale>
<asrwt>0</asrwt>
<pdfrwt beam="2">  1        4 0.41785844E-01 0.12500136E+03</pdfrwt>
<pdfrwt beam="1">  1       -4 0.22126543E-02 0.12500136E+03</pdfrwt>
<totfact> 0.77388157E+03</totfact>
</mgrwt>
</event>
<event>
 5    1  0.3217852E-002  0.1249853E+03  0.7818608E-02  0.1235092E+00
          4   -1    0    0  501    0  0.00000000000E+00  0.00000000000E+00  0.18553607529E+02  0.18597022674E+02  0.12700000000E+01 0.  1.
         -4   -1    0    0    0  501 -0.00000000000E+00 -0.00000000000E+00 -0.21019774535E+03  0.21020158195E+03  0.12700000000E+01 0.  1.
         25    2    1    2    0    0  0.00000000000E+00  0.00000000000E+00 -0.19164413783E+03  0.22879860462E+03  0.12498530279E+03 0.  0.
    9000005    1    3    3    0    0  0.36491420242E+02  0.30732817776E+02 -0.16968873851E+03  0.17627080818E+03  0.10000000000E+01 0.  0.
    9000005    1    3    3    0    0 -0.36491420242E+02 -0.30732817776E+02 -0.21955399321E+02  0.52527796442E+02  0.10000000000E+01 0.  0.
<mgrwt>
<rscale>  0 0.12498530E+03</rscale>
<asrwt>0</asrwt>
<pdfrwt beam="1">  1        4 0.28580361E-02 0.12498530E+03</pdfrwt>
<pdfrwt beam="2">  1       -4 0.32341748E-01 0.12498530E+03</pdfrwt>
<totfact> 0.85522459E+03</totfact>
</mgrwt>
</event>
<event>
 5    1  0.3217852E-002  0.1249993E+03  0.7818608E-02  0.1235070E+00
          4   -1    0    0  501    0  0.00000000000E+00  0.00000000000E+00  0.11354738202E+02  0.11425540672E+02  0.12700000000E+01 0.  1.
         -4   -1    0    0    0  501 -0.00000000000E+00 -0.00000000000E+00 -0.34287421913E+03  0.34287657115E+03  0.12700000000E+01 0.  1.
         25    2    1    2    0    0  0.00000000000E+00  0.00000000000E+00 -0.33151948092E+03  0.35430211182E+03  0.12499928083E+03 0.  0.
    9000005    1    3    3    0    0 -0.59610928692E+02  0.16599045654E+02 -0.19050450720E+03  0.20030466394E+03  0.10000000000E+01 0.  0.
    9000005    1    3    3    0    0  0.59610928692E+02 -0.16599045654E+02 -0.14101497373E+03  0.15399744787E+03  0.10000000000E+01 0.  0.
<mgrwt>
<rscale>  0 0.12499928E+03</rscale>
<asrwt>0</asrwt>
<pdfrwt beam="1">  1        4 0.17525103E-02 0.12499928E+03</pdfrwt>
<pdfrwt beam="2">  1       -4 0.52755499E-01 0.12499928E+03</pdfrwt>
<totfact> 0.69254955E+03</totfact>
</mgrwt>
</event>
<event>
 5    1  0.3217852E-002  0.1250023E+03  0.7818608E-02  0.1235066E+00
         -4   -1    0    0    0  501 -0.00000000000E+00  0.00000000000E+00  0.16386644714E+03  0.16387136845E+03  0.12700000000E+01 0. -1.
          4   -1    0    0  501    0  0.00000000000E+00 -0.00000000000E+00 -0.23816703723E+02  0.23850540376E+02  0.12700000000E+01 0. -1.
         25    2    1    2    0    0  0.00000000000E+00  0.00000000000E+00  0.14004974341E+03  0.18772190882E+03  0.12500233767E+03 0.  0.
    9000005    1    3    3    0    0 -0.34191158124E+02  0.21473490208E+02  0.14165758328E+03  0.14730246765E+03  0.10000000000E+01 0.  0.
    9000005    1    3    3    0    0  0.34191158124E+02 -0.21473490208E+02 -0.16078398669E+01  0.40419441172E+02  0.10000000000E+01 0.  0.
<mgrwt>
<rscale>  0 0.12500234E+03</rscale>
<asrwt>0</asrwt>
<pdfrwt beam="2">  1        4 0.36670897E-02 0.12500234E+03</pdfrwt>
<pdfrwt beam="1">  1       -4 0.25213203E-01 0.12500234E+03</pdfrwt>
<totfact> 0.92240381E+03</totfact>
</mgrwt>
</event>
<event>
 5    1  0.3217852E-002  0.1250055E+03  0.7818608E-02  0.1235061E+00
          4   -1    0    0  501    0  0.00000000000E+00  0.00000000000E+00  0.70431821858E+03  0.70431936359E+03  0.12700000000E+01 0. -1.
         -4   -1    0    0    0  501 -0.00000000000E+00 -0.00000000000E+00 -0.54727656193E+01  0.56181904137E+01  0.12700000000E+01 0. -1.
         25    2    1    2    0    0  0.00000000000E+00  0.00000000000E+00  0.69884545296E+03  0.70993755400E+03  0.12500545371E+03 0.  0.
    9000005    1    3    3    0    0  0.40605857106E+02  0.21889510762E+02  0.10997607614E+03  0.11926325350E+03  0.10000000000E+01 0.  0.
    9000005    1    3    3    0    0 -0.40605857106E+02 -0.21889510762E+02  0.58886937682E+03  0.59067430050E+03  0.10000000000E+01 0.  0.
<mgrwt>
<rscale>  0 0.12500545E+03</rscale>
<asrwt>0</asrwt>
<pdfrwt beam="1">  1        4 0.10836789E+00 0.12500545E+03</pdfrwt>
<pdfrwt beam="2">  1       -4 0.85323882E-03 0.12500545E+03</pdfrwt>
<totfact> 0.42562208E+03</totfact>
</mgrwt>
</event>
<event>
 5    1  0.3217852E-002  0.1249963E+03  0.7818608E-02  0.1235075E+00
         -4   -1    0    0    0  501 -0.00000000000E+00  0.00000000000E+00  0.16524810300E+03  0.16525298316E+03  0.12700000000E+01 0.  1.
          4   -1    0    0  501    0  0.00000000000E+00 -0.00000000000E+00 -0.23615010729E+02  0.23649135961E+02  0.12700000000E+01 0.  1.
         25    2    1    2    0    0  0.00000000000E+00  0.00000000000E+00  0.14163309227E+03  0.18890211912E+03  0.12499631108E+03 0.  0.
    9000005    1    3    3    0    0  0.35718521859E+02 -0.51077302845E+02  0.64004833097E+02  0.89343843266E+02  0.10000000000E+01 0.  0.
    9000005    1    3    3    0    0 -0.35718521859E+02  0.51077302845E+02  0.77628259170E+02  0.99558275856E+02  0.10000000000E+01 0.  0.
<mgrwt>
<rscale>  0 0.12499631E+03</rscale>
<asrwt>0</asrwt>
<pdfrwt beam="2">  1        4 0.36360790E-02 0.12499631E+03</pdfrwt>
<pdfrwt beam="1">  1       -4 0.25425786E-01 0.12499631E+03</pdfrwt>
<totfact> 0.92046300E+03</totfact>
</mgrwt>
</event>
<event>
 5    1  0.3217852E-002  0.1249946E+03  0.7818608E-02  0.1235078E+00
         -4   -1    0    0    0  501 -0.00000000000E+00  0.00000000000E+00  0.16338288467E+04  0.16338293403E+04  0.12700000000E+01 0.  1.
          4   -1    0    0  501    0  0.00000000000E+00 -0.00000000000E+00 -0.22214547116E+01  0.25588593231E+01  0.12700000000E+01 0.  1.
         25    2    1    2    0    0  0.00000000000E+00  0.00000000000E+00  0.16316073920E+04  0.16363881996E+04  0.12499463292E+03 0.  0.
    9000005    1    3    3    0    0  0.25249159380E+02 -0.11527843953E+02  0.82845270856E+02  0.87377057280E+02  0.10000000000E+01 0.  0.
    9000005    1    3    3    0    0 -0.25249159380E+02  0.11527843953E+02  0.15487621211E+04  0.15490111423E+04  0.10000000000E+01 0.  0.
<mgrwt>
<rscale>  0 0.12499463E+03</rscale>
<asrwt>0</asrwt>
<pdfrwt beam="2">  1        4 0.36775508E-03 0.12499463E+03</pdfrwt>
<pdfrwt beam="1">  1       -4 0.25138383E+00 0.12499463E+03</pdfrwt>
<totfact> 0.15399178E+03</totfact>
</mgrwt>
</event>
<event>
 5    1  0.3217852E-002  0.1249964E+03  0.7818608E-02  0.1235075E+00
         -4   -1    0    0    0  501 -0.00000000000E+00  0.00000000000E+00  0.68530994573E+02  0.68542761231E+02  0.12700000000E+01 0.  1.
          4   -1    0    0  501    0  0.00000000000E+00 -0.00000000000E+00 -0.56972702293E+02  0.56986855560E+02  0.12700000000E+01 0.  1.
         25    2    1    2    0    0  0.00000000000E+00  0.00000000000E+00  0.11558292280E+02  0.12552961679E+03  0.12499636223E+03 0.  0.
    9000005    1    3    3    0    0  0.44418930953E+02 -0.23207143274E+02 -0.31708506446E+02  0.59313087148E+02  0.10000000000E+01 0.  0.
    9000005    1    3    3    0    0 -0.44418930953E+02  0.23207143274E+02  0.43266798727E+02  0.66216529643E+02  0.10000000000E+01 0.  0.
<mgrwt>
<rscale>  0 0.12499636E+03</rscale>
<asrwt>0</asrwt>
<pdfrwt beam="2">  1        4 0.87670250E-02 0.12499636E+03</pdfrwt>
<pdfrwt beam="1">  1       -4 0.10545224E-01 0.12499636E+03</pdfrwt>
<totfact> 0.10442157E+04</totfact>
</mgrwt>
</event>
<event>
 5    1  0.3217852E-002  0.1250004E+03  0.7818608E-02  0.1235069E+00
          4   -1    0    0  501    0  0.00000000000E+00  0.00000000000E+00  0.15484095886E+03  0.15484616702E+03  0.12700000000E+01 0.  1.
         -4   -1    0    0    0  501 -0.00000000000E+00 -0.00000000000E+00 -0.25206020307E+02  0.25237994368E+02  0.12700000000E+01 0.  1.
         25    2    1    2    0    0  0.00000000000E+00  0.00000000000E+00  0.12963493855E+03  0.18008416138E+03  0.12500035155E+03 0.  0.
    9000005    1    3    3    0    0 -0.11023114741E+02 -0.37964167595E+02 -0.49098040749E+01  0.39848378334E+02  0.10000000000E+01 0.  0.
    9000005    1    3    3    0    0  0.11023114741E+02  0.37964167595E+02  0.13454474262E+03  0.14023578305E+03  0.10000000000E+01 0.  0.
<mgrwt>
<rscale>  0 0.12500035E+03</rscale>
<asrwt>0</asrwt>
<pdfrwt beam="1">  1        4 0.23824546E-01 0.12500035E+03</pdfrwt>
<pdfrwt beam="2">  1       -4 0.38807094E-02 0.12500035E+03</pdfrwt>
<totfact> 0.93601118E+03</totfact>
</mgrwt>
</event>
<event>
 5    1  0.3217852E-002  0.1250006E+03  0.7818608E-02  0.1235068E+00
          4   -1    0    0  501    0  0.00000000000E+00  0.00000000000E+00  0.58318002496E+02  0.58331829348E+02  0.12700000000E+01 0.  1.
         -4   -1    0    0    0  501 -0.00000000000E+00 -0.00000000000E+00 -0.66954728138E+02  0.66966771760E+02  0.12700000000E+01 0.  1.
         25    2    1    2    0    0  0.00000000000E+00  0.00000000000E+00 -0.86367256415E+01  0.12529860111E+03  0.12500058564E+03 0.  0.
    9000005    1    3    3    0    0  0.92152346459E+01  0.51393300134E+02 -0.38738177543E+02  0.65021829008E+02  0.10000000000E+01 0.  0.
    9000005    1    3    3    0    0 -0.92152346459E+01 -0.51393300134E+02  0.30101451902E+02  0.60276772100E+02  0.10000000000E+01 0.  0.
<mgrwt>
<rscale>  0 0.12500059E+03</rscale>
<asrwt>0</asrwt>
<pdfrwt beam="1">  1        4 0.89739904E-02 0.12500059E+03</pdfrwt>
<pdfrwt beam="2">  1       -4 0.10302717E-01 0.12500059E+03</pdfrwt>
<totfact> 0.10446242E+04</totfact>
</mgrwt>
</event>
<event>
 5    1  0.3217852E-002  0.1250084E+03  0.7818608E-02  0.1235056E+00
         -4   -1    0    0    0  501 -0.00000000000E+00  0.00000000000E+00  0.30436741897E+03  0.30437006856E+03  0.12700000000E+01 0. -1.
          4   -1    0    0  501    0  0.00000000000E+00 -0.00000000000E+00 -0.12801599093E+02  0.12864440887E+02  0.12700000000E+01 0. -1.
         25    2    1    2    0    0  0.00000000000E+00  0.00000000000E+00  0.29156581988E+03  0.31723450944E+03  0.12500842635E+03 0.  0.
    9000005    1    3    3    0    0  0.58028585660E+02  0.87018145954E+01  0.91193440210E+02  0.10844483329E+03  0.10000000000E+01 0.  0.
    9000005    1    3    3    0    0 -0.58028585660E+02 -0.87018145954E+01  0.20037237967E+03  0.20878967615E+03  0.10000000000E+01 0.  0.
<mgrwt>
<rscale>  0 0.12500843E+03</rscale>
<asrwt>0</asrwt>
<pdfrwt beam="2">  1        4 0.19745144E-02 0.12500843E+03</pdfrwt>
<pdfrwt beam="1">  1       -4 0.46830798E-01 0.12500843E+03</pdfrwt>
<totfact> 0.73472524E+03</totfact>
</mgrwt>
</event>
<event>
 5    1  0.3217852E-002  0.1250069E+03  0.7818608E-02  0.1235058E+00
         -4   -1    0    0    0  501 -0.00000000000E+00  0.00000000000E+00  0.60576698744E+02  0.60590010156E+02  0.12700000000E+01 0. -1.
          4   -1    0    0  501    0  0.00000000000E+00 -0.00000000000E+00 -0.64464877662E+02  0.64477386361E+02  0.12700000000E+01 0. -1.
         25    2    1    2    0    0  0.00000000000E+00  0.00000000000E+00 -0.38881789176E+01  0.12506739652E+03  0.12500694275E+03 0.  0.
    9000005    1    3    3    0    0 -0.47521367730E+01 -0.60985470493E+02 -0.14751589478E+02  0.62931866390E+02  0.10000000000E+01 0.  0.
    9000005    1    3    3    0    0  0.47521367730E+01  0.60985470493E+02  0.10863410561E+02  0.62135530127E+02  0.10000000000E+01 0.  0.
<mgrwt>
<rscale>  0 0.12500694E+03</rscale>
<asrwt>0</asrwt>
<pdfrwt beam="2">  1        4 0.99196597E-02 0.12500694E+03</pdfrwt>
<pdfrwt beam="1">  1       -4 0.93214783E-02 0.12500694E+03</pdfrwt>
<totfact> 0.10449759E+04</totfact>
</mgrwt>
</event>
<event>
 5    1  0.3217852E-002  0.1249980E+03  0.7818608E-02  0.1235072E+00
         -4   -1    0    0    0  501 -0.00000000000E+00  0.00000000000E+00  0.74601083552E+01  0.75674379199E+01  0.12700000000E+01 0.  1.
          4   -1    0    0  501    0  0.00000000000E+00 -0.00000000000E+00 -0.51975393331E+03  0.51975548491E+03  0.12700000000E+01 0.  1.
         25    2    1    2    0    0  0.00000000000E+00  0.00000000000E+00 -0.51229382496E+03  0.52732292283E+03  0.12499800739E+03 0.  0.
    9000005    1    3    3    0    0  0.20326077711E+02 -0.36534409006E+02 -0.45208554545E+03  0.45401569673E+03  0.10000000000E+01 0.  0.
    9000005    1    3    3    0    0 -0.20326077711E+02  0.36534409006E+02 -0.60208279508E+02  0.73307226096E+02  0.10000000000E+01 0.  0.
<mgrwt>
<rscale>  0 0.12499801E+03</rscale>
<asrwt>0</asrwt>
<pdfrwt beam="2">  1        4 0.79970491E-01 0.12499801E+03</pdfrwt>
<pdfrwt beam="1">  1       -4 0.11560849E-02 0.12499801E+03</pdfrwt>
<totfact> 0.53807427E+03</totfact>
</mgrwt>
</event>
<event>
 5    1  0.3217852E-002  0.1249971E+03  0.7818608E-02  0.1235074E+00
          4   -1    0    0  501    0  0.00000000000E+00  0.00000000000E+00  0.43055731756E+02  0.43074458058E+02  0.12700000000E+01 0. -1.
         -4   -1    0    0    0  501 -0.00000000000E+00 -0.00000000000E+00 -0.90678291804E+02  0.90687184897E+02  0.12700000000E+01 0. -1.
         25    2    1    2    0    0  0.00000000000E+00  0.00000000000E+00 -0.47622560048E+02  0.13376164295E+03  0.12499707557E+03 0.  0.
    9000005    1    3    3    0    0 -0.61981693525E+02  0.13264705431E+01 -0.15413929044E+02  0.63891150130E+02  0.10000000000E+01 0.  0.
    9000005    1    3    3    0    0  0.61981693525E+02 -0.13264705431E+01 -0.32208631004E+02  0.69870492825E+02  0.10000000000E+01 0.  0.
<mgrwt>
<rscale>  0 0.12499708E+03</rscale>
<asrwt>0</asrwt>
<pdfrwt beam="1">  1        4 0.66260833E-02 0.12499708E+03</pdfrwt>
<pdfrwt beam="2">  1       -4 0.13952631E-01 0.12499708E+03</pdfrwt>
<totfact> 0.10264916E+04</totfact>
</mgrwt>
</event>
<event>
 5    1  0.3217852E-002  0.1249967E+03  0.7818608E-02  0.1235074E+00
         -4   -1    0    0    0  501 -0.00000000000E+00  0.00000000000E+00  0.36972983863E+03  0.36973201981E+03  0.12700000000E+01 0. -1.
          4   -1    0    0  501    0  0.00000000000E+00 -0.00000000000E+00 -0.10524199877E+02  0.10600551073E+02  0.12700000000E+01 0. -1.
         25    2    1    2    0    0  0.00000000000E+00  0.00000000000E+00  0.35920563875E+03  0.38033257088E+03  0.12499669421E+03 0.  0.
    9000005    1    3    3    0    0  0.18455940956E+02  0.29240798879E+02  0.33798318447E+03  0.33974884703E+03  0.10000000000E+01 0.  0.
    9000005    1    3    3    0    0 -0.18455940956E+02 -0.29240798879E+02  0.21222454280E+02  0.40583723848E+02  0.10000000000E+01 0.  0.
<mgrwt>
<rscale>  0 0.12499669E+03</rscale>
<asrwt>0</asrwt>
<pdfrwt beam="2">  1        4 0.16251489E-02 0.12499669E+03</pdfrwt>
<pdfrwt beam="1">  1       -4 0.56887545E-01 0.12499669E+03</pdfrwt>
<totfact> 0.66516496E+03</totfact>
</mgrwt>
</event>
<event>
 5    1  0.3217852E-002  0.1250007E+03  0.7818608E-02  0.1235068E+00
          4   -1    0    0  501    0  0.00000000000E+00  0.00000000000E+00  0.13743716694E+03  0.13744303458E+03  0.12700000000E+01 0.  1.
         -4   -1    0    0    0  501 -0.00000000000E+00 -0.00000000000E+00 -0.28401749606E+02  0.28430129804E+02  0.12700000000E+01 0.  1.
         25    2    1    2    0    0  0.00000000000E+00  0.00000000000E+00  0.10903541733E+03  0.16587316439E+03  0.12500073772E+03 0.  0.
    9000005    1    3    3    0    0  0.21054333185E+02  0.53869645342E+02  0.85921759203E+02  0.10357978731E+03  0.10000000000E+01 0.  0.
    9000005    1    3    3    0    0 -0.21054333185E+02 -0.53869645342E+02  0.23113658126E+02  0.62293377073E+02  0.10000000000E+01 0.  0.
<mgrwt>
<rscale>  0 0.12500074E+03</rscale>
<asrwt>0</asrwt>
<pdfrwt beam="1">  1        4 0.21146813E-01 0.12500074E+03</pdfrwt>
<pdfrwt beam="2">  1       -4 0.43721345E-02 0.12500074E+03</pdfrwt>
<totfact> 0.96220690E+03</totfact>
</mgrwt>
</event>
<event>
 5    1  0.3217852E-002  0.1249993E+03  0.7818608E-02  0.1235070E+00
         -4   -1    0    0    0  501 -0.00000000000E+00  0.00000000000E+00  0.18399677177E+02  0.18443454672E+02  0.12700000000E+01 0. -1.
          4   -1    0    0  501    0  0.00000000000E+00 -0.00000000000E+00 -0.21199966054E+03  0.21200346452E+03  0.12700000000E+01 0. -1.
         25    2    1    2    0    0  0.00000000000E+00  0.00000000000E+00 -0.19359998337E+03  0.23044691920E+03  0.12499931603E+03 0.  0.
    9000005    1    3    3    0    0  0.14766150355E+02  0.60147944546E+02 -0.11215749246E+03  0.12812539773E+03  0.10000000000E+01 0.  0.
    9000005    1    3    3    0    0 -0.14766150355E+02 -0.60147944546E+02 -0.81442490904E+02  0.10232152146E+03  0.10000000000E+01 0.  0.
<mgrwt>
<rscale>  0 0.12499932E+03</rscale>
<asrwt>0</asrwt>
<pdfrwt beam="2">  1        4 0.32618991E-01 0.12499932E+03</pdfrwt>
<pdfrwt beam="1">  1       -4 0.28343798E-02 0.12499932E+03</pdfrwt>
<totfact> 0.85242321E+03</totfact>
</mgrwt>
</event>
<event>
 5    1  0.3217852E-002  0.1249991E+03  0.7818608E-02  0.1235071E+00
         -4   -1    0    0    0  501 -0.00000000000E+00  0.00000000000E+00  0.84014364895E+01  0.84968838457E+01  0.12700000000E+01 0. -1.
          4   -1    0    0  501    0  0.00000000000E+00 -0.00000000000E+00 -0.46222106896E+03  0.46222281369E+03  0.12700000000E+01 0. -1.
         25    2    1    2    0    0  0.00000000000E+00  0.00000000000E+00 -0.45381963248E+03  0.47071969753E+03  0.12499909931E+03 0.  0.
    9000005    1    3    3    0    0 -0.22577699457E+02 -0.56649837829E+02 -0.27830099168E+03  0.28490594696E+03  0.10000000000E+01 0.  0.
    9000005    1    3    3    0    0  0.22577699457E+02  0.56649837829E+02 -0.17551864079E+03  0.18581375058E+03  0.10000000000E+01 0.  0.
<mgrwt>
<rscale>  0 0.12499910E+03</rscale>
<asrwt>0</asrwt>
<pdfrwt beam="2">  1        4 0.71118390E-01 0.12499910E+03</pdfrwt>
<pdfrwt beam="1">  1       -4 0.13000054E-02 0.12499910E+03</pdfrwt>
<totfact> 0.58211112E+03</totfact>
</mgrwt>
</event>
<event>
 5    1  0.3217852E-002  0.1250001E+03  0.7818608E-02  0.1235069E+00
          4   -1    0    0  501    0  0.00000000000E+00  0.00000000000E+00  0.54284640376E+02  0.54299494295E+02  0.12700000000E+01 0. -1.
         -4   -1    0    0    0  501 -0.00000000000E+00 -0.00000000000E+00 -0.71928456640E+02  0.71939667602E+02  0.12700000000E+01 0. -1.
         25    2    1    2    0    0  0.00000000000E+00  0.00000000000E+00 -0.17643816265E+02  0.12623916190E+03  0.12500008698E+03 0.  0.
    9000005    1    3    3    0    0  0.57446219068E+02  0.41180541077E+01  0.15671938619E+02  0.59696198496E+02  0.10000000000E+01 0.  0.
    9000005    1    3    3    0    0 -0.57446219068E+02 -0.41180541077E+01 -0.33315754883E+02  0.66542963401E+02  0.10000000000E+01 0.  0.
<mgrwt>
<rscale>  0 0.12500009E+03</rscale>
<asrwt>0</asrwt>
<pdfrwt beam="1">  1        4 0.83534881E-02 0.12500009E+03</pdfrwt>
<pdfrwt beam="2">  1       -4 0.11067921E-01 0.12500009E+03</pdfrwt>
<totfact> 0.10425702E+04</totfact>
</mgrwt>
</event>
<event>
 5    1  0.3217852E-002  0.1250023E+03  0.7818608E-02  0.1235066E+00
         -4   -1    0    0    0  501 -0.00000000000E+00  0.00000000000E+00  0.41078469599E+02  0.41098096848E+02  0.12700000000E+01 0. -1.
          4   -1    0    0  501    0  0.00000000000E+00 -0.00000000000E+00 -0.95049364209E+02  0.95057848369E+02  0.12700000000E+01 0. -1.
         25    2    1    2    0    0  0.00000000000E+00  0.00000000000E+00 -0.53970894610E+02  0.13615594522E+03  0.12500233579E+03 0.  0.
    9000005    1    3    3    0    0  0.45938937713E+02 -0.31627445833E+02  0.37206126396E+01  0.55906388602E+02  0.10000000000E+01 0.  0.
    9000005    1    3    3    0    0 -0.45938937713E+02  0.31627445833E+02 -0.57691507250E+02  0.80249556615E+02  0.10000000000E+01 0.  0.
<mgrwt>
<rscale>  0 0.12500234E+03</rscale>
<asrwt>0</asrwt>
<pdfrwt beam="2">  1        4 0.14625141E-01 0.12500234E+03</pdfrwt>
<pdfrwt beam="1">  1       -4 0.63219270E-02 0.12500234E+03</pdfrwt>
<totfact> 0.10213226E+04</totfact>
</mgrwt>
</event>
<event>
 5    1  0.3217852E-002  0.1249892E+03  0.7818608E-02  0.1235086E+00
         -4   -1    0    0    0  501 -0.00000000000E+00  0.00000000000E+00  0.22271142389E+02  0.22307323536E+02  0.12700000000E+01 0. -1.
          4   -1    0    0  501    0  0.00000000000E+00 -0.00000000000E+00 -0.17518390600E+03  0.17518850939E+03  0.12700000000E+01 0. -1.
         25    2    1    2    0    0  0.00000000000E+00  0.00000000000E+00 -0.15291276361E+03  0.19749583292E+03  0.12498916252E+03 0.  0.
    9000005    1    3    3    0    0 -0.11847161910E+01  0.43096498568E+02 -0.14792635752E+03  0.15408412958E+03  0.10000000000E+01 0.  0.
    9000005    1    3    3    0    0  0.11847161910E+01 -0.43096498568E+02 -0.49864060955E+01  0.43411703341E+02  0.10000000000E+01 0.  0.
<mgrwt>
<rscale>  0 0.12498916E+03</rscale>
<asrwt>0</asrwt>
<pdfrwt beam="2">  1        4 0.26954507E-01 0.12498916E+03</pdfrwt>
<pdfrwt beam="1">  1       -4 0.34294670E-02 0.12498916E+03</pdfrwt>
<totfact> 0.90581146E+03</totfact>
</mgrwt>
</event>
<event>
 5    1  0.3217852E-002  0.1249991E+03  0.7818608E-02  0.1235071E+00
         -4   -1    0    0    0  501 -0.00000000000E+00  0.00000000000E+00  0.35986654591E+01  0.38161882929E+01  0.12700000000E+01 0. -1.
          4   -1    0    0  501    0  0.00000000000E+00 -0.00000000000E+00 -0.10533949868E+04  0.10533957524E+04  0.12700000000E+01 0. -1.
         25    2    1    2    0    0  0.00000000000E+00  0.00000000000E+00 -0.10497963213E+04  0.10572119406E+04  0.12499908473E+03 0.  0.
    9000005    1    3    3    0    0 -0.54114128469E+02  0.50409787541E+01 -0.26401473778E+03  0.26955246638E+03  0.10000000000E+01 0.  0.
    9000005    1    3    3    0    0  0.54114128469E+02 -0.50409787541E+01 -0.78578158354E+03  0.78765947426E+03  0.10000000000E+01 0.  0.
<mgrwt>
<rscale>  0 0.12499908E+03</rscale>
<asrwt>0</asrwt>
<pdfrwt beam="2">  1        4 0.16207732E+00 0.12499908E+03</pdfrwt>
<pdfrwt beam="1">  1       -4 0.57043310E-03 0.12499908E+03</pdfrwt>
<totfact> 0.28771270E+03</totfact>
</mgrwt>
</event>
<event>
 5    1  0.3217852E-002  0.1249971E+03  0.7818608E-02  0.1235074E+00
         -4   -1    0    0    0  501 -0.00000000000E+00  0.00000000000E+00  0.59147359220E+02  0.59160992239E+02  0.12700000000E+01 0.  1.
          4   -1    0    0  501    0  0.00000000000E+00 -0.00000000000E+00 -0.66012259939E+02  0.66024475478E+02  0.12700000000E+01 0.  1.
         25    2    1    2    0    0  0.00000000000E+00  0.00000000000E+00 -0.68649007181E+01  0.12518546772E+03  0.12499709783E+03 0.  0.
    9000005    1    3    3    0    0  0.18547276392E+02 -0.44140964901E+02 -0.43650686520E+02  0.64798215081E+02  0.10000000000E+01 0.  0.
    9000005    1    3    3    0    0 -0.18547276392E+02  0.44140964901E+02  0.36785785802E+02  0.60387252637E+02  0.10000000000E+01 0.  0.
<mgrwt>
<rscale>  0 0.12499710E+03</rscale>
<asrwt>0</asrwt>
<pdfrwt beam="2">  1        4 0.10157721E-01 0.12499710E+03</pdfrwt>
<pdfrwt beam="1">  1       -4 0.91015820E-02 0.12499710E+03</pdfrwt>
<totfact> 0.10449521E+04</totfact>
</mgrwt>
</event>
<event>
 5    1  0.3217852E-002  0.1250008E+03  0.7818608E-02  0.1235068E+00
          4   -1    0    0  501    0  0.00000000000E+00  0.00000000000E+00  0.38129443192E+02  0.38150587652E+02  0.12700000000E+01 0.  1.
         -4   -1    0    0    0  501 -0.00000000000E+00 -0.00000000000E+00 -0.10239483355E+03  0.10240270913E+03  0.12700000000E+01 0.  1.
         25    2    1    2    0    0  0.00000000000E+00  0.00000000000E+00 -0.64265390360E+02  0.14055329679E+03  0.12500075536E+03 0.  0.
    9000005    1    3    3    0    0 -0.46151045354E+02  0.13872229993E+02 -0.76869045623E+02  0.90731515623E+02  0.10000000000E+01 0.  0.
    9000005    1    3    3    0    0  0.46151045354E+02 -0.13872229993E+02  0.12603655263E+02  0.49821781163E+02  0.10000000000E+01 0.  0.
<mgrwt>
<rscale>  0 0.12500076E+03</rscale>
<asrwt>0</asrwt>
<pdfrwt beam="1">  1        4 0.58683005E-02 0.12500076E+03</pdfrwt>
<pdfrwt beam="2">  1       -4 0.15755284E-01 0.12500076E+03</pdfrwt>
<totfact> 0.10121959E+04</totfact>
</mgrwt>
</event>
<event>
 5    1  0.3217852E-002  0.1249988E+03  0.7818608E-02  0.1235071E+00
         -4   -1    0    0    0  501 -0.00000000000E+00  0.00000000000E+00  0.14400391711E+01  0.19200554196E+01  0.12700000000E+01 0. -1.
          4   -1    0    0  501    0  0.00000000000E+00 -0.00000000000E+00 -0.23245599243E+04  0.23245602712E+04  0.12700000000E+01 0. -1.
         25    2    1    2    0    0  0.00000000000E+00  0.00000000000E+00 -0.23231198851E+04  0.23264803267E+04  0.12499883834E+03 0.  0.
    9000005    1    3    3    0    0 -0.42224679400E+02  0.16261048061E+02 -0.19637857812E+04  0.19643072416E+04  0.10000000000E+01 0.  0.
    9000005    1    3    3    0    0  0.42224679400E+02 -0.16261048061E+02 -0.35933410399E+03  0.36217308503E+03  0.10000000000E+01 0.  0.
<mgrwt>
<rscale>  0 0.12499884E+03</rscale>
<asrwt>0</asrwt>
<pdfrwt beam="2">  1        4 0.35765898E+00 0.12499884E+03</pdfrwt>
<pdfrwt beam="1">  1       -4 0.25849736E-03 0.12499884E+03</pdfrwt>
<totfact> 0.61797406E+02</totfact>
</mgrwt>
</event>
<event>
 5    1  0.3217852E-002  0.1250315E+03  0.7818608E-02  0.1235020E+00
         -4   -1    0    0    0  501 -0.00000000000E+00  0.00000000000E+00  0.12225934769E+03  0.12226594374E+03  0.12700000000E+01 0. -1.
          4   -1    0    0  501    0  0.00000000000E+00 -0.00000000000E+00 -0.31946542884E+02  0.31971776651E+02  0.12700000000E+01 0. -1.
         25    2    1    2    0    0  0.00000000000E+00  0.00000000000E+00  0.90312804811E+02  0.15423772039E+03  0.12503148275E+03 0.  0.
    9000005    1    3    3    0    0 -0.40646450628E+02  0.41335060443E+02  0.16318411020E+02  0.60232978580E+02  0.10000000000E+01 0.  0.
    9000005    1    3    3    0    0  0.40646450628E+02 -0.41335060443E+02  0.73994393791E+02  0.94004741811E+02  0.10000000000E+01 0.  0.
<mgrwt>
<rscale>  0 0.12503148E+03</rscale>
<asrwt>0</asrwt>
<pdfrwt beam="2">  1        4 0.49173011E-02 0.12503148E+03</pdfrwt>
<pdfrwt beam="1">  1       -4 0.18811579E-01 0.12503148E+03</pdfrwt>
<totfact> 0.98395661E+03</totfact>
</mgrwt>
</event>
<event>
 5    1  0.3217852E-002  0.1250275E+03  0.7818608E-02  0.1235026E+00
          4   -1    0    0  501    0  0.00000000000E+00  0.00000000000E+00  0.23627278267E+03  0.23627619586E+03  0.12700000000E+01 0.  1.
         -4   -1    0    0    0  501 -0.00000000000E+00 -0.00000000000E+00 -0.16512151175E+02  0.16560918949E+02  0.12700000000E+01 0.  1.
         25    2    1    2    0    0  0.00000000000E+00  0.00000000000E+00  0.21976063149E+03  0.25283711481E+03  0.12502748286E+03 0.  0.
    9000005    1    3    3    0    0  0.59678778558E+02  0.17961895673E+02  0.11953253276E+03  0.13480805872E+03  0.10000000000E+01 0.  0.
    9000005    1    3    3    0    0 -0.59678778558E+02 -0.17961895673E+02  0.10022809873E+03  0.11802905609E+03  0.10000000000E+01 0.  0.
<mgrwt>
<rscale>  0 0.12502748E+03</rscale>
<asrwt>0</asrwt>
<pdfrwt beam="1">  1        4 0.36353670E-01 0.12502748E+03</pdfrwt>
<pdfrwt beam="2">  1       -4 0.25443451E-02 0.12502748E+03</pdfrwt>
<totfact> 0.81871776E+03</totfact>
</mgrwt>
</event>
<event>
 5    1  0.3217852E-002  0.1250014E+03  0.7818608E-02  0.1235067E+00
         -4   -1    0    0    0  501 -0.00000000000E+00  0.00000000000E+00  0.55416281725E+02  0.55430832397E+02  0.12700000000E+01 0.  1.
          4   -1    0    0  501    0  0.00000000000E+00 -0.00000000000E+00 -0.70461297005E+02  0.70472741366E+02  0.12700000000E+01 0.  1.
         25    2    1    2    0    0  0.00000000000E+00  0.00000000000E+00 -0.15045015280E+02  0.12590357376E+03  0.12500142960E+03 0.  0.
    9000005    1    3    3    0    0  0.53775261298E+02 -0.60009035117E+01  0.23968932282E+02  0.59188675314E+02  0.10000000000E+01 0.  0.
    9000005    1    3    3    0    0 -0.53775261298E+02  0.60009035117E+01 -0.39013947562E+02  0.66714898449E+02  0.10000000000E+01 0.  0.
<mgrwt>
<rscale>  0 0.12500143E+03</rscale>
<asrwt>0</asrwt>
<pdfrwt beam="2">  1        4 0.10842199E-01 0.12500143E+03</pdfrwt>
<pdfrwt beam="1">  1       -4 0.85275814E-02 0.12500143E+03</pdfrwt>
<totfact> 0.10432735E+04</totfact>
</mgrwt>
</event>
<event>
 5    1  0.3217852E-002  0.1250186E+03  0.7818608E-02  0.1235040E+00
         -4   -1    0    0    0  501 -0.00000000000E+00  0.00000000000E+00  0.11595120388E+03  0.11595815876E+03  0.12700000000E+01 0. -1.
          4   -1    0    0  501    0  0.00000000000E+00 -0.00000000000E+00 -0.33678836657E+02  0.33702773455E+02  0.12700000000E+01 0. -1.
         25    2    1    2    0    0  0.00000000000E+00  0.00000000000E+00  0.82272367226E+02  0.14966093221E+03  0.12501860750E+03 0.  0.
    9000005    1    3    3    0    0 -0.29478428781E+02  0.38875010367E+02 -0.56303394619E+01  0.49121735687E+02  0.10000000000E+01 0.  0.
    9000005    1    3    3    0    0  0.29478428781E+02 -0.38875010367E+02  0.87902706688E+02  0.10053919652E+03  0.10000000000E+01 0.  0.
<mgrwt>
<rscale>  0 0.12501861E+03</rscale>
<asrwt>0</asrwt>
<pdfrwt beam="2">  1        4 0.51837357E-02 0.12501861E+03</pdfrwt>
<pdfrwt beam="1">  1       -4 0.17841023E-01 0.12501861E+03</pdfrwt>
<totfact> 0.99329724E+03</totfact>
</mgrwt>
</event>
<event>
 5    1  0.3217852E-002  0.1250087E+03  0.7818608E-02  0.1235056E+00
         -4   -1    0    0    0  501 -0.00000000000E+00  0.00000000000E+00  0.51549221994E+03  0.51549378436E+03  0.12700000000E+01 0.  1.
          4   -1    0    0  501    0  0.00000000000E+00 -0.00000000000E+00 -0.75239715765E+01  0.76304028913E+01  0.12700000000E+01 0.  1.
         25    2    1    2    0    0  0.00000000000E+00  0.00000000000E+00  0.50796824836E+03  0.52312418725E+03  0.12500869548E+03 0.  0.
    9000005    1    3    3    0    0  0.34573678108E+02 -0.33524980688E+02  0.87302120149E+02  0.99709195817E+02  0.10000000000E+01 0.  0.
    9000005    1    3    3    0    0 -0.34573678108E+02  0.33524980688E+02  0.42066612821E+03  0.42341499144E+03  0.10000000000E+01 0.  0.
<mgrwt>
<rscale>  0 0.12500870E+03</rscale>
<asrwt>0</asrwt>
<pdfrwt beam="2">  1        4 0.11658417E-02 0.12500870E+03</pdfrwt>
<pdfrwt beam="1">  1       -4 0.79314785E-01 0.12500870E+03</pdfrwt>
<totfact> 0.54103484E+03</totfact>
</mgrwt>
</event>
<event>
 5    1  0.3217852E-002  0.1249947E+03  0.7818608E-02  0.1235078E+00
         -4   -1    0    0    0  501 -0.00000000000E+00  0.00000000000E+00  0.46376844314E+02  0.46394230121E+02  0.12700000000E+01 0. -1.
          4   -1    0    0  501    0  0.00000000000E+00 -0.00000000000E+00 -0.84183307233E+02  0.84192886378E+02  0.12700000000E+01 0. -1.
         25    2    1    2    0    0  0.00000000000E+00  0.00000000000E+00 -0.37806462919E+02  0.13058711650E+03  0.12499466531E+03 0.  0.
    9000005    1    3    3    0    0 -0.28489314419E+02  0.54141935978E+02 -0.32197595893E+02  0.69142428716E+02  0.10000000000E+01 0.  0.
    9000005    1    3    3    0    0  0.28489314419E+02 -0.54141935978E+02 -0.56088670258E+01  0.61444687783E+02  0.10000000000E+01 0.  0.
<mgrwt>
<rscale>  0 0.12499467E+03</rscale>
<asrwt>0</asrwt>
<pdfrwt beam="2">  1        4 0.12953352E-01 0.12499467E+03</pdfrwt>
<pdfrwt beam="1">  1       -4 0.71369734E-02 0.12499467E+03</pdfrwt>
<totfact> 0.10333193E+04</totfact>
</mgrwt>
</event>
<event>
 5    1  0.3217852E-002  0.1250026E+03  0.7818608E-02  0.1235065E+00
         -4   -1    0    0    0  501 -0.00000000000E+00  0.00000000000E+00  0.40004620399E+02  0.40024774243E+02  0.12700000000E+01 0.  1.
          4   -1    0    0  501    0  0.00000000000E+00 -0.00000000000E+00 -0.97600168809E+02  0.97608431252E+02  0.12700000000E+01 0.  1.
         25    2    1    2    0    0  0.00000000000E+00  0.00000000000E+00 -0.57595548410E+02  0.13763320550E+03  0.12500260821E+03 0.  0.
    9000005    1    3    3    0    0 -0.35548327421E+02 -0.19785296642E+02  0.23432415944E+02  0.46959766424E+02  0.10000000000E+01 0.  0.
    9000005    1    3    3    0    0  0.35548327421E+02  0.19785296642E+02 -0.81027964354E+02  0.90673439071E+02  0.10000000000E+01 0.  0.
<mgrwt>
<rscale>  0 0.12500261E+03</rscale>
<asrwt>0</asrwt>
<pdfrwt beam="2">  1        4 0.15017596E-01 0.12500261E+03</pdfrwt>
<pdfrwt beam="1">  1       -4 0.61567428E-02 0.12500261E+03</pdfrwt>
<totfact> 0.10182264E+04</totfact>
</mgrwt>
</event>
<event>
 5    1  0.3217852E-002  0.1249907E+03  0.7818608E-02  0.1235084E+00
         -4   -1    0    0    0  501 -0.00000000000E+00  0.00000000000E+00  0.64690280043E+03  0.64690404706E+03  0.12700000000E+01 0. -1.
          4   -1    0    0  501    0  0.00000000000E+00 -0.00000000000E+00 -0.59694370922E+01  0.61030385218E+01  0.12700000000E+01 0. -1.
         25    2    1    2    0    0  0.00000000000E+00  0.00000000000E+00  0.64093336334E+03  0.65300708558E+03  0.12499070998E+03 0.  0.
    9000005    1    3    3    0    0 -0.95752283484E+01 -0.61366129772E+02  0.35635314827E+03  0.36172648944E+03  0.10000000000E+01 0.  0.
    9000005    1    3    3    0    0  0.95752283484E+01  0.61366129772E+02  0.28458021506E+03  0.29128059614E+03  0.10000000000E+01 0.  0.
<mgrwt>
<rscale>  0 0.12499071E+03</rscale>
<asrwt>0</asrwt>
<pdfrwt beam="2">  1        4 0.92874777E-03 0.12499071E+03</pdfrwt>
<pdfrwt beam="1">  1       -4 0.99533891E-01 0.12499071E+03</pdfrwt>
<totfact> 0.45693014E+03</totfact>
</mgrwt>
</event>
<event>
 5    1  0.3217852E-002  0.1250017E+03  0.7818608E-02  0.1235067E+00
         -4   -1    0    0    0  501 -0.00000000000E+00  0.00000000000E+00  0.48225760801E+02  0.48242480293E+02  0.12700000000E+01 0.  1.
          4   -1    0    0  501    0  0.00000000000E+00 -0.00000000000E+00 -0.80965708479E+02  0.80975668256E+02  0.12700000000E+01 0.  1.
         25    2    1    2    0    0  0.00000000000E+00  0.00000000000E+00 -0.32739947678E+02  0.12921814855E+03  0.12500170295E+03 0.  0.
    9000005    1    3    3    0    0  0.56096653189E+02 -0.19718288452E+02  0.35064748622E+01  0.59572986868E+02  0.10000000000E+01 0.  0.
    9000005    1    3    3    0    0 -0.56096653189E+02  0.19718288452E+02 -0.36246422540E+02  0.69645161680E+02  0.10000000000E+01 0.  0.
<mgrwt>
<rscale>  0 0.12500170E+03</rscale>
<asrwt>0</asrwt>
<pdfrwt beam="2">  1        4 0.12458315E-01 0.12500170E+03</pdfrwt>
<pdfrwt beam="1">  1       -4 0.74214001E-02 0.12500170E+03</pdfrwt>
<totfact> 0.10360863E+04</totfact>
</mgrwt>
</event>
<event>
 5    1  0.3217852E-002  0.1249945E+03  0.7818608E-02  0.1235078E+00
          4   -1    0    0  501    0  0.00000000000E+00  0.00000000000E+00  0.82363536209E+01  0.83336919171E+01  0.12700000000E+01 0. -1.
         -4   -1    0    0    0  501 -0.00000000000E+00 -0.00000000000E+00 -0.47134377199E+03  0.47134548294E+03  0.12700000000E+01 0. -1.
         25    2    1    2    0    0  0.00000000000E+00  0.00000000000E+00 -0.46310741836E+03  0.47967917486E+03  0.12499451928E+03 0.  0.
    9000005    1    3    3    0    0 -0.55125805165E+02 -0.17314214768E+02 -0.14023241300E+03  0.15167322138E+03  0.10000000000E+01 0.  0.
    9000005    1    3    3    0    0  0.55125805165E+02  0.17314214768E+02 -0.32287500536E+03  0.32800595348E+03  0.10000000000E+01 0.  0.
<mgrwt>
<rscale>  0 0.12499452E+03</rscale>
<asrwt>0</asrwt>
<pdfrwt beam="1">  1        4 0.12747509E-02 0.12499452E+03</pdfrwt>
<pdfrwt beam="2">  1       -4 0.72522025E-01 0.12499452E+03</pdfrwt>
<totfact> 0.57483159E+03</totfact>
</mgrwt>
</event>
<event>
 5    1  0.3217852E-002  0.1250033E+03  0.7818608E-02  0.1235064E+00
         -4   -1    0    0    0  501 -0.00000000000E+00  0.00000000000E+00  0.71000582386E+02  0.71011939835E+02  0.12700000000E+01 0.  1.
          4   -1    0    0  501    0  0.00000000000E+00 -0.00000000000E+00 -0.54997008359E+02  0.55011669929E+02  0.12700000000E+01 0.  1.
         25    2    1    2    0    0  0.00000000000E+00  0.00000000000E+00  0.16003574027E+02  0.12602360976E+03  0.12500334330E+03 0.  0.
    9000005    1    3    3    0    0 -0.26929257909E+01  0.53599548674E+01 -0.54711054212E+02  0.55047982874E+02  0.10000000000E+01 0.  0.
    9000005    1    3    3    0    0  0.26929257909E+01 -0.53599548674E+01  0.70714628239E+02  0.70975626890E+02  0.10000000000E+01 0.  0.
<mgrwt>
<rscale>  0 0.12500334E+03</rscale>
<asrwt>0</asrwt>
<pdfrwt beam="2">  1        4 0.84630797E-02 0.12500334E+03</pdfrwt>
<pdfrwt beam="1">  1       -4 0.10925168E-01 0.12500334E+03</pdfrwt>
<totfact> 0.10429653E+04</totfact>
</mgrwt>
</event>
<event>
 5    1  0.3217852E-002  0.1250245E+03  0.7818608E-02  0.1235031E+00
          4   -1    0    0  501    0  0.00000000000E+00  0.00000000000E+00  0.32524160034E+02  0.32548946003E+02  0.12700000000E+01 0. -1.
         -4   -1    0    0    0  501 -0.00000000000E+00 -0.00000000000E+00 -0.12007617695E+03  0.12008289292E+03  0.12700000000E+01 0. -1.
         25    2    1    2    0    0  0.00000000000E+00  0.00000000000E+00 -0.87552016916E+02  0.15263183892E+03  0.12502448794E+03 0.  0.
    9000005    1    3    3    0    0 -0.60310114677E+02  0.71465348082E+01 -0.61817570506E+02  0.86664842442E+02  0.10000000000E+01 0.  0.
    9000005    1    3    3    0    0  0.60310114677E+02 -0.71465348082E+01 -0.25734446409E+02  0.65966996477E+02  0.10000000000E+01 0.  0.
<mgrwt>
<rscale>  0 0.12502449E+03</rscale>
<asrwt>0</asrwt>
<pdfrwt beam="1">  1        4 0.50061402E-02 0.12502449E+03</pdfrwt>
<pdfrwt beam="2">  1       -4 0.18475681E-01 0.12502449E+03</pdfrwt>
<totfact> 0.98727240E+03</totfact>
</mgrwt>
</event>
<event>
 5    1  0.3217852E-002  0.1250043E+03  0.7818608E-02  0.1235063E+00
          4   -1    0    0  501    0  0.00000000000E+00  0.00000000000E+00  0.34200036370E+03  0.34200272173E+03  0.12700000000E+01 0.  1.
         -4   -1    0    0    0  501 -0.00000000000E+00 -0.00000000000E+00 -0.11384855736E+02  0.11455472060E+02  0.12700000000E+01 0.  1.
         25    2    1    2    0    0  0.00000000000E+00  0.00000000000E+00  0.33061550797E+03  0.35345819379E+03  0.12500432253E+03 0.  0.
    9000005    1    3    3    0    0  0.53445833716E+02 -0.32165172721E+02  0.17606169162E+03  0.18678804762E+03  0.10000000000E+01 0.  0.
    9000005    1    3    3    0    0 -0.53445833716E+02  0.32165172721E+02  0.15455381635E+03  0.16667014617E+03  0.10000000000E+01 0.  0.
<mgrwt>
<rscale>  0 0.12500432E+03</rscale>
<asrwt>0</asrwt>
<pdfrwt beam="1">  1        4 0.52621051E-01 0.12500432E+03</pdfrwt>
<pdfrwt beam="2">  1       -4 0.17571298E-02 0.12500432E+03</pdfrwt>
<totfact> 0.69339149E+03</totfact>
</mgrwt>
</event>
<event>
 5    1  0.3217852E-002  0.1249990E+03  0.7818608E-02  0.1235071E+00
         -4   -1    0    0    0  501 -0.00000000000E+00  0.00000000000E+00  0.14483828864E+04  0.14483834432E+04  0.12700000000E+01 0. -1.
          4   -1    0    0  501    0  0.00000000000E+00 -0.00000000000E+00 -0.25468309293E+01  0.28459177400E+01  0.12700000000E+01 0. -1.
         25    2    1    2    0    0  0.00000000000E+00  0.00000000000E+00  0.14458360555E+04  0.14512293610E+04  0.12499903494E+03 0.  0.
    9000005    1    3    3    0    0  0.10294239017E+01  0.43327041161E+02  0.12456093466E+04  0.12463634849E+04  0.10000000000E+01 0.  0.
    9000005    1    3    3    0    0 -0.10294239017E+01 -0.43327041161E+02  0.20022670893E+03  0.20486587607E+03  0.10000000000E+01 0.  0.
<mgrwt>
<rscale>  0 0.12499903E+03</rscale>
<asrwt>0</asrwt>
<pdfrwt beam="2">  1        4 0.41486961E-03 0.12499903E+03</pdfrwt>
<pdfrwt beam="1">  1       -4 0.22285121E+00 0.12499903E+03</pdfrwt>
<totfact> 0.18907961E+03</totfact>
</mgrwt>
</event>
<event>
 5    1  0.3217852E-002  0.1250006E+03  0.7818608E-02  0.1235068E+00
         -4   -1    0    0    0  501 -0.00000000000E+00  0.00000000000E+00  0.37387190880E+01  0.39485339582E+01  0.12700000000E+01 0. -1.
          4   -1    0    0  501    0  0.00000000000E+00 -0.00000000000E+00 -0.10160930194E+04  0.10160938131E+04  0.12700000000E+01 0. -1.
         25    2    1    2    0    0  0.00000000000E+00  0.00000000000E+00 -0.10123543003E+04  0.10200423471E+04  0.12500064154E+03 0.  0.
    9000005    1    3    3    0    0  0.40978341896E+02  0.38040242331E+02 -0.27841778834E+03  0.28397843124E+03  0.10000000000E+01 0.  0.
    9000005    1    3    3    0    0 -0.40978341896E+02 -0.38040242331E+02 -0.73393651199E+03  0.73606391582E+03  0.10000000000E+01 0.  0.
<mgrwt>
<rscale>  0 0.12500064E+03</rscale>
<asrwt>0</asrwt>
<pdfrwt beam="2">  1        4 0.15633799E+00 0.12500064E+03</pdfrwt>
<pdfrwt beam="1">  1       -4 0.59138902E-03 0.12500064E+03</pdfrwt>
<totfact> 0.29948516E+03</totfact>
</mgrwt>
</event>
<event>
 5    1  0.3217852E-002  0.1250005E+03  0.7818608E-02  0.1235069E+00
          4   -1    0    0  501    0  0.00000000000E+00  0.00000000000E+00  0.15762856095E+02  0.15813934750E+02  0.12700000000E+01 0. -1.
         -4   -1    0    0    0  501 -0.00000000000E+00 -0.00000000000E+00 -0.24736181520E+03  0.24736507538E+03  0.12700000000E+01 0. -1.
         25    2    1    2    0    0  0.00000000000E+00  0.00000000000E+00 -0.23159895910E+03  0.26317901013E+03  0.12500045406E+03 0.  0.
    9000005    1    3    3    0    0  0.43622014651E+02  0.37845984491E+02 -0.16606931193E+03  0.17582723073E+03  0.10000000000E+01 0.  0.
    9000005    1    3    3    0    0 -0.43622014651E+02 -0.37845984491E+02 -0.65529647174E+02  0.87351779393E+02  0.10000000000E+01 0.  0.
<mgrwt>
<rscale>  0 0.12500045E+03</rscale>
<asrwt>0</asrwt>
<pdfrwt beam="1">  1        4 0.24292349E-02 0.12500045E+03</pdfrwt>
<pdfrwt beam="2">  1       -4 0.38059841E-01 0.12500045E+03</pdfrwt>
<totfact> 0.80461180E+03</totfact>
</mgrwt>
</event>
<event>
 5    1  0.3217852E-002  0.1250011E+03  0.7818608E-02  0.1235068E+00
         -4   -1    0    0    0  501 -0.00000000000E+00  0.00000000000E+00  0.16091664282E+04  0.16091669294E+04  0.12700000000E+01 0. -1.
          4   -1    0    0  501    0  0.00000000000E+00 -0.00000000000E+00 -0.22609016943E+01  0.25931788352E+01  0.12700000000E+01 0. -1.
         25    2    1    2    0    0  0.00000000000E+00  0.00000000000E+00  0.16069055265E+04  0.16117601082E+04  0.12500110101E+03 0.  0.
    9000005    1    3    3    0    0  0.66050001591E+01 -0.58892811637E+02  0.10591728468E+04  0.10608299150E+04  0.10000000000E+01 0.  0.
    9000005    1    3    3    0    0 -0.66050001591E+01  0.58892811637E+02  0.54773267974E+03  0.55093019317E+03  0.10000000000E+01 0.  0.
<mgrwt>
<rscale>  0 0.12500110E+03</rscale>
<asrwt>0</asrwt>
<pdfrwt beam="2">  1        4 0.37342918E-03 0.12500110E+03</pdfrwt>
<pdfrwt beam="1">  1       -4 0.24758978E+00 0.12500110E+03</pdfrwt>
<totfact> 0.15834170E+03</totfact>
</mgrwt>
</event>
<event>
 5    1  0.3217852E-002  0.1249967E+03  0.7818608E-02  0.1235074E+00
         -4   -1    0    0    0  501 -0.00000000000E+00  0.00000000000E+00  0.11890840577E+03  0.11891518769E+03  0.12700000000E+01 0. -1.
          4   -1    0    0  501    0  0.00000000000E+00 -0.00000000000E+00 -0.32829209676E+02  0.32853765506E+02  0.12700000000E+01 0. -1.
         25    2    1    2    0    0  0.00000000000E+00  0.00000000000E+00  0.86079196093E+02  0.15176895319E+03  0.12499674857E+03 0.  0.
    9000005    1    3    3    0    0 -0.19528781953E+02 -0.48209507969E+02  0.85091669220E+02  0.99735260333E+02  0.10000000000E+01 0.  0.
    9000005    1    3    3    0    0  0.19528781953E+02  0.48209507969E+02  0.98752687319E+00  0.52033692859E+02  0.10000000000E+01 0.  0.
<mgrwt>
<rscale>  0 0.12499675E+03</rscale>
<asrwt>0</asrwt>
<pdfrwt beam="2">  1        4 0.50530583E-02 0.12499675E+03</pdfrwt>
<pdfrwt beam="1">  1       -4 0.18296011E-01 0.12499675E+03</pdfrwt>
<totfact> 0.98959486E+03</totfact>
</mgrwt>
</event>
<event>
 5    1  0.3217852E-002  0.1249902E+03  0.7818608E-02  0.1235085E+00
         -4   -1    0    0    0  501 -0.00000000000E+00  0.00000000000E+00  0.17867384393E+02  0.17912462841E+02  0.12700000000E+01 0.  1.
          4   -1    0    0  501    0  0.00000000000E+00 -0.00000000000E+00 -0.21826809931E+03  0.21827179405E+03  0.12700000000E+01 0.  1.
         25    2    1    2    0    0  0.00000000000E+00  0.00000000000E+00 -0.20040071492E+03  0.23618425689E+03  0.12499022627E+03 0.  0.
    9000005    1    3    3    0    0 -0.25368853399E+00 -0.31391882014E+02 -0.20229458896E+03  0.20471838056E+03  0.10000000000E+01 0.  0.
    9000005    1    3    3    0    0  0.25368853399E+00  0.31391882014E+02  0.18938740472E+01  0.31465876330E+02  0.10000000000E+01 0.  0.
<mgrwt>
<rscale>  0 0.12499023E+03</rscale>
<asrwt>0</asrwt>
<pdfrwt beam="2">  1        4 0.33583457E-01 0.12499023E+03</pdfrwt>
<pdfrwt beam="1">  1       -4 0.27525803E-02 0.12499023E+03</pdfrwt>
<totfact> 0.84387349E+03</totfact>
</mgrwt>
</event>
<event>
 5    1  0.3217852E-002  0.1249976E+03  0.7818608E-02  0.1235073E+00
         -4   -1    0    0    0  501 -0.00000000000E+00  0.00000000000E+00  0.73595870148E+01  0.74683613349E+01  0.12700000000E+01 0. -1.
          4   -1    0    0  501    0  0.00000000000E+00 -0.00000000000E+00 -0.52674724795E+03  0.52674877895E+03  0.12700000000E+01 0. -1.
         25    2    1    2    0    0  0.00000000000E+00  0.00000000000E+00 -0.51938766094E+03  0.53421714028E+03  0.12499764254E+03 0.  0.
    9000005    1    3    3    0    0  0.58318551022E+02  0.22029683540E+02 -0.24119145233E+03  0.24911980456E+03  0.10000000000E+01 0.  0.
    9000005    1    3    3    0    0 -0.58318551022E+02 -0.22029683540E+02 -0.27819620861E+03  0.28509733572E+03  0.10000000000E+01 0.  0.
<mgrwt>
<rscale>  0 0.12499764E+03</rscale>
<asrwt>0</asrwt>
<pdfrwt beam="2">  1        4 0.81046494E-01 0.12499764E+03</pdfrwt>
<pdfrwt beam="1">  1       -4 0.11407296E-02 0.12499764E+03</pdfrwt>
<totfact> 0.53306725E+03</totfact>
</mgrwt>
</event>
<event>
 5    1  0.3217852E-002  0.1250041E+03  0.7818608E-02  0.1235063E+00
          4   -1    0    0  501    0  0.00000000000E+00  0.00000000000E+00  0.11138349525E+03  0.11139073531E+03  0.12700000000E+01 0.  1.
         -4   -1    0    0    0  501 -0.00000000000E+00 -0.00000000000E+00 -0.35052686404E+02  0.35075685654E+02  0.12700000000E+01 0.  1.
         25    2    1    2    0    0  0.00000000000E+00  0.00000000000E+00  0.76330808843E+02  0.14646642097E+03  0.12500408030E+03 0.  0.
    9000005    1    3    3    0    0  0.58448109902E+02  0.14657900497E+02  0.57576983536E+02  0.83349532879E+02  0.10000000000E+01 0.  0.
    9000005    1    3    3    0    0 -0.58448109902E+02 -0.14657900497E+02  0.18753825307E+02  0.63116888087E+02  0.10000000000E+01 0.  0.
<mgrwt>
<rscale>  0 0.12500408E+03</rscale>
<asrwt>0</asrwt>
<pdfrwt beam="1">  1        4 0.17138248E-01 0.12500408E+03</pdfrwt>
<pdfrwt beam="2">  1       -4 0.53950472E-02 0.12500408E+03</pdfrwt>
<totfact> 0.10000360E+04</totfact>
</mgrwt>
</event>
<event>
 5    1  0.3217852E-002  0.1249993E+03  0.7818608E-02  0.1235070E+00
         -4   -1    0    0    0  501 -0.00000000000E+00  0.00000000000E+00  0.16898968638E+03  0.16899445850E+03  0.12700000000E+01 0.  1.
          4   -1    0    0  501    0  0.00000000000E+00 -0.00000000000E+00 -0.23092526023E+02  0.23127422211E+02  0.12700000000E+01 0.  1.
         25    2    1    2    0    0  0.00000000000E+00  0.00000000000E+00  0.14589716036E+03  0.19212188071E+03  0.12499934259E+03 0.  0.
    9000005    1    3    3    0    0  0.17884203144E+02  0.24077063192E+02 -0.11314818072E+02  0.32071401623E+02  0.10000000000E+01 0.  0.
    9000005    1    3    3    0    0 -0.17884203144E+02 -0.24077063192E+02  0.15721197843E+03  0.16005047909E+03  0.10000000000E+01 0.  0.
<mgrwt>
<rscale>  0 0.12499934E+03</rscale>
<asrwt>0</asrwt>
<pdfrwt beam="2">  1        4 0.35557478E-02 0.12499934E+03</pdfrwt>
<pdfrwt beam="1">  1       -4 0.26001464E-01 0.12499934E+03</pdfrwt>
<totfact> 0.91480767E+03</totfact>
</mgrwt>
</event>
<event>
 5    1  0.3217852E-002  0.1249921E+03  0.7818608E-02  0.1235082E+00
         -4   -1    0    0    0  501 -0.00000000000E+00  0.00000000000E+00  0.31166979844E+01  0.33655172449E+01  0.12700000000E+01 0. -1.
          4   -1    0    0  501    0  0.00000000000E+00 -0.00000000000E+00 -0.12048197314E+04  0.12048204008E+04  0.12700000000E+01 0. -1.
         25    2    1    2    0    0  0.00000000000E+00  0.00000000000E+00 -0.12017030334E+04  0.12081859180E+04  0.12499212747E+03 0.  0.
    9000005    1    3    3    0    0 -0.55909159839E+02 -0.21144659826E+02 -0.77693032631E+03  0.77922696484E+03  0.10000000000E+01 0.  0.
    9000005    1    3    3    0    0  0.55909159839E+02  0.21144659826E+02 -0.42477270713E+03  0.42895895319E+03  0.10000000000E+01 0.  0.
<mgrwt>
<rscale>  0 0.12499213E+03</rscale>
<asrwt>0</asrwt>
<pdfrwt beam="2">  1        4 0.18537572E+00 0.12499213E+03</pdfrwt>
<pdfrwt beam="1">  1       -4 0.49868439E-03 0.12499213E+03</pdfrwt>
<totfact> 0.24503752E+03</totfact>
</mgrwt>
</event>
<event>
 5    1  0.3217852E-002  0.1249999E+03  0.7818608E-02  0.1235069E+00
          4   -1    0    0  501    0  0.00000000000E+00  0.00000000000E+00  0.15196629928E+03  0.15197160596E+03  0.12700000000E+01 0.  1.
         -4   -1    0    0    0  501 -0.00000000000E+00 -0.00000000000E+00 -0.25683224027E+02  0.25714604730E+02  0.12700000000E+01 0.  1.
         25    2    1    2    0    0  0.00000000000E+00  0.00000000000E+00  0.12628307525E+03  0.17768621069E+03  0.12499989749E+03 0.  0.
    9000005    1    3    3    0    0  0.66695907661E+01  0.14088683901E+02 -0.22882376151E+02  0.27705190729E+02  0.10000000000E+01 0.  0.
    9000005    1    3    3    0    0 -0.66695907661E+01 -0.14088683901E+02  0.14916545140E+03  0.14998101996E+03  0.10000000000E+01 0.  0.
<mgrwt>
<rscale>  0 0.12499990E+03</rscale>
<asrwt>0</asrwt>
<pdfrwt beam="1">  1        4 0.23382253E-01 0.12499990E+03</pdfrwt>
<pdfrwt beam="2">  1       -4 0.39540873E-02 0.12499990E+03</pdfrwt>
<totfact> 0.94035374E+03</totfact>
</mgrwt>
</event>
<event>
 5    1  0.3217852E-002  0.1249998E+03  0.7818608E-02  0.1235070E+00
         -4   -1    0    0    0  501 -0.00000000000E+00  0.00000000000E+00  0.17801096886E+02  0.17846342773E+02  0.12700000000E+01 0.  1.
          4   -1    0    0  501    0  0.00000000000E+00 -0.00000000000E+00 -0.21911239279E+03  0.21911607329E+03  0.12700000000E+01 0.  1.
         25    2    1    2    0    0  0.00000000000E+00  0.00000000000E+00 -0.20131129591E+03  0.23696241606E+03  0.12499979507E+03 0.  0.
    9000005    1    3    3    0    0  0.41801064543E+02  0.42661094090E+02 -0.65806715096E+02  0.88875315457E+02  0.10000000000E+01 0.  0.
    9000005    1    3    3    0    0 -0.41801064543E+02 -0.42661094090E+02 -0.13550458081E+03  0.14808710061E+03  0.10000000000E+01 0.  0.
<mgrwt>
<rscale>  0 0.12499980E+03</rscale>
<asrwt>0</asrwt>
<pdfrwt beam="2">  1        4 0.33713361E-01 0.12499980E+03</pdfrwt>
<pdfrwt beam="1">  1       -4 0.27423940E-02 0.12499980E+03</pdfrwt>
<totfact> 0.84252237E+03</totfact>
</mgrwt>
</event>
<event>
 5    1  0.3217852E-002  0.1249980E+03  0.7818608E-02  0.1235072E+00
         -4   -1    0    0    0  501 -0.00000000000E+00  0.00000000000E+00  0.26344022748E+04  0.26344025809E+04  0.12700000000E+01 0. -1.
          4   -1    0    0  501    0  0.00000000000E+00 -0.00000000000E+00 -0.12104290925E+01  0.17544339793E+01  0.12700000000E+01 0. -1.
         25    2    1    2    0    0  0.00000000000E+00  0.00000000000E+00  0.26331918457E+04  0.26361570149E+04  0.12499804365E+03 0.  0.
    9000005    1    3    3    0    0 -0.35523486016E+02 -0.11615842711E+01  0.24005802180E+04  0.24008435289E+04  0.10000000000E+01 0.  0.
    9000005    1    3    3    0    0  0.35523486016E+02  0.11615842711E+01  0.23261162767E+03  0.23531348593E+03  0.10000000000E+01 0.  0.
<mgrwt>
<rscale>  0 0.12499804E+03</rscale>
<asrwt>0</asrwt>
<pdfrwt beam="2">  1        4 0.22809272E-03 0.12499804E+03</pdfrwt>
<pdfrwt beam="1">  1       -4 0.40532958E+00 0.12499804E+03</pdfrwt>
<totfact> 0.36861809E+02</totfact>
</mgrwt>
</event>
<event>
 5    1  0.3217852E-002  0.1250460E+03  0.7818608E-02  0.1234997E+00
          4   -1    0    0  501    0  0.00000000000E+00  0.00000000000E+00  0.63087029199E+03  0.63087157031E+03  0.12700000000E+01 0. -1.
         -4   -1    0    0    0  501 -0.00000000000E+00 -0.00000000000E+00 -0.61300267910E+01  0.62602019502E+01  0.12700000000E+01 0. -1.
         25    2    1    2    0    0  0.00000000000E+00  0.00000000000E+00  0.62474026520E+03  0.63713177226E+03  0.12504597656E+03 0.  0.
    9000005    1    3    3    0    0  0.40239040167E+02 -0.37973117253E+02  0.46065528765E+03  0.46396705921E+03  0.10000000000E+01 0.  0.
    9000005    1    3    3    0    0 -0.40239040167E+02  0.37973117253E+02  0.16408497755E+03  0.17316471305E+03  0.10000000000E+01 0.  0.
<mgrwt>
<rscale>  0 0.12504598E+03</rscale>
<asrwt>0</asrwt>
<pdfrwt beam="1">  1        4 0.97067129E-01 0.12504598E+03</pdfrwt>
<pdfrwt beam="2">  1       -4 0.95319237E-03 0.12504598E+03</pdfrwt>
<totfact> 0.46557667E+03</totfact>
</mgrwt>
</event>
<event>
 5    1  0.3217852E-002  0.1249999E+03  0.7818608E-02  0.1235070E+00
          4   -1    0    0  501    0  0.00000000000E+00  0.00000000000E+00  0.43456097432E+03  0.43456283009E+03  0.12700000000E+01 0. -1.
         -4   -1    0    0    0  501 -0.00000000000E+00 -0.00000000000E+00 -0.89421936917E+01  0.90319282559E+01  0.12700000000E+01 0. -1.
         25    2    1    2    0    0  0.00000000000E+00  0.00000000000E+00  0.42561878062E+03  0.44359475835E+03  0.12499985286E+03 0.  0.
    9000005    1    3    3    0    0 -0.12675598589E+02  0.83356185765E+01 -0.23254476853E+01  0.15380541070E+02  0.10000000000E+01 0.  0.
    9000005    1    3    3    0    0  0.12675598589E+02 -0.83356185765E+01  0.42794422831E+03  0.42821421728E+03  0.10000000000E+01 0.  0.
<mgrwt>
<rscale>  0 0.12499985E+03</rscale>
<asrwt>0</asrwt>
<pdfrwt beam="1">  1        4 0.66862591E-01 0.12499985E+03</pdfrwt>
<pdfrwt beam="2">  1       -4 0.13827673E-02 0.12499985E+03</pdfrwt>
<totfact> 0.60522913E+03</totfact>
</mgrwt>
</event>
<event>
 5    1  0.3217852E-002  0.1250026E+03  0.7818608E-02  0.1235065E+00
          4   -1    0    0  501    0  0.00000000000E+00  0.00000000000E+00  0.23027664469E+03  0.23028014675E+03  0.12700000000E+01 0. -1.
         -4   -1    0    0    0  501 -0.00000000000E+00 -0.00000000000E+00 -0.16936579647E+02  0.16984128772E+02  0.12700000000E+01 0. -1.
         25    2    1    2    0    0  0.00000000000E+00  0.00000000000E+00  0.21334006504E+03  0.24726427553E+03  0.12500255437E+03 0.  0.
    9000005    1    3    3    0    0 -0.12655338139E+02  0.32937098397E+02  0.46428426666E+01  0.35602893453E+02  0.10000000000E+01 0.  0.
    9000005    1    3    3    0    0  0.12655338139E+02 -0.32937098397E+02  0.20869722238E+03  0.21166138207E+03  0.10000000000E+01 0.  0.
<mgrwt>
<rscale>  0 0.12500255E+03</rscale>
<asrwt>0</asrwt>
<pdfrwt beam="1">  1        4 0.35431101E-01 0.12500255E+03</pdfrwt>
<pdfrwt beam="2">  1       -4 0.26095548E-02 0.12500255E+03</pdfrwt>
<totfact> 0.82722532E+03</totfact>
</mgrwt>
</event>
<event>
 5    1  0.3217852E-002  0.1249979E+03  0.7818608E-02  0.1235073E+00
          4   -1    0    0  501    0  0.00000000000E+00  0.00000000000E+00  0.85584473924E+01  0.86521628376E+01  0.12700000000E+01 0.  1.
         -4   -1    0    0    0  501 -0.00000000000E+00 -0.00000000000E+00 -0.45382552815E+03  0.45382730515E+03  0.12700000000E+01 0.  1.
         25    2    1    2    0    0  0.00000000000E+00  0.00000000000E+00 -0.44526708076E+03  0.46247946799E+03  0.12499794040E+03 0.  0.
    9000005    1    3    3    0    0  0.18863535663E+01  0.57434955669E+02 -0.31347250839E+03  0.31869789140E+03  0.10000000000E+01 0.  0.
    9000005    1    3    3    0    0 -0.18863535663E+01 -0.57434955669E+02 -0.13179457236E+03  0.14378157659E+03  0.10000000000E+01 0.  0.
<mgrwt>
<rscale>  0 0.12499794E+03</rscale>
<asrwt>0</asrwt>
<pdfrwt beam="1">  1        4 0.13240301E-02 0.12499794E+03</pdfrwt>
<pdfrwt beam="2">  1       -4 0.69826639E-01 0.12499794E+03</pdfrwt>
<totfact> 0.58900421E+03</totfact>
</mgrwt>
</event>
<event>
 5    1  0.3217852E-002  0.1249981E+03  0.7818608E-02  0.1235072E+00
          4   -1    0    0  501    0  0.00000000000E+00  0.00000000000E+00  0.57908685848E+02  0.57922610409E+02  0.12700000000E+01 0. -1.
         -4   -1    0    0    0  501 -0.00000000000E+00 -0.00000000000E+00 -0.67425250834E+02  0.67437210425E+02  0.12700000000E+01 0. -1.
         25    2    1    2    0    0  0.00000000000E+00  0.00000000000E+00 -0.95165649856E+01  0.12535982083E+03  0.12499807867E+03 0.  0.
    9000005    1    3    3    0    0  0.61572744856E+01 -0.59906214317E+02  0.11977231923E+02  0.61409450637E+02  0.10000000000E+01 0.  0.
    9000005    1    3    3    0    0 -0.61572744856E+01  0.59906214317E+02 -0.21493796909E+02  0.63950370198E+02  0.10000000000E+01 0.  0.
<mgrwt>
<rscale>  0 0.12499808E+03</rscale>
<asrwt>0</asrwt>
<pdfrwt beam="1">  1        4 0.89110197E-02 0.12499808E+03</pdfrwt>
<pdfrwt beam="2">  1       -4 0.10375107E-01 0.12499808E+03</pdfrwt>
<totfact> 0.10445506E+04</totfact>
</mgrwt>
</event>
<event>
 5    1  0.3217852E-002  0.1249981E+03  0.7818608E-02  0.1235072E+00
          4   -1    0    0  501    0  0.00000000000E+00  0.00000000000E+00  0.33213563024E+02  0.33237834899E+02  0.12700000000E+01 0.  1.
         -4   -1    0    0    0  501 -0.00000000000E+00 -0.00000000000E+00 -0.11753582959E+03  0.11754269070E+03  0.12700000000E+01 0.  1.
         25    2    1    2    0    0  0.00000000000E+00  0.00000000000E+00 -0.84322266563E+02  0.15078052560E+03  0.12499808903E+03 0.  0.
    9000005    1    3    3    0    0 -0.39905885948E+02  0.34952193876E+02 -0.23180210756E+01  0.53108462713E+02  0.10000000000E+01 0.  0.
    9000005    1    3    3    0    0  0.39905885948E+02 -0.34952193876E+02 -0.82004245488E+02  0.97672062884E+02  0.10000000000E+01 0.  0.
<mgrwt>
<rscale>  0 0.12499809E+03</rscale>
<asrwt>0</asrwt>
<pdfrwt beam="1">  1        4 0.51121738E-02 0.12499809E+03</pdfrwt>
<pdfrwt beam="2">  1       -4 0.18084830E-01 0.12499809E+03</pdfrwt>
<totfact> 0.99152603E+03</totfact>
</mgrwt>
</event>
<event>
 5    1  0.3217852E-002  0.1249976E+03  0.7818608E-02  0.1235073E+00
          4   -1    0    0  501    0  0.00000000000E+00  0.00000000000E+00  0.16112851627E+03  0.16113352121E+03  0.12700000000E+01 0. -1.
         -4   -1    0    0    0  501 -0.00000000000E+00 -0.00000000000E+00 -0.24220116804E+02  0.24253390649E+02  0.12700000000E+01 0. -1.
         25    2    1    2    0    0  0.00000000000E+00  0.00000000000E+00  0.13690839947E+03  0.18538691186E+03  0.12499758895E+03 0.  0.
    9000005    1    3    3    0    0  0.47694265603E+02  0.39184390398E+02  0.54003070258E+02  0.82021283943E+02  0.10000000000E+01 0.  0.
    9000005    1    3    3    0    0 -0.47694265603E+02 -0.39184390398E+02  0.82905329211E+02  0.10336562791E+03  0.10000000000E+01 0.  0.
<mgrwt>
<rscale>  0 0.12499759E+03</rscale>
<asrwt>0</asrwt>
<pdfrwt beam="1">  1        4 0.24791947E-01 0.12499759E+03</pdfrwt>
<pdfrwt beam="2">  1       -4 0.37291164E-02 0.12499759E+03</pdfrwt>
<totfact> 0.92661237E+03</totfact>
</mgrwt>
</event>
<event>
 5    1  0.3217852E-002  0.1250030E+03  0.7818608E-02  0.1235065E+00
          4   -1    0    0  501    0  0.00000000000E+00  0.00000000000E+00  0.53980342390E+02  0.53995280021E+02  0.12700000000E+01 0.  1.
         -4   -1    0    0    0  501 -0.00000000000E+00 -0.00000000000E+00 -0.72337308569E+02  0.72348456176E+02  0.12700000000E+01 0.  1.
         25    2    1    2    0    0  0.00000000000E+00  0.00000000000E+00 -0.18356966180E+02  0.12634373620E+03  0.12500304584E+03 0.  0.
    9000005    1    3    3    0    0 -0.52735051308E+01 -0.62268890858E+02 -0.87090208044E+01  0.63103658122E+02  0.10000000000E+01 0.  0.
    9000005    1    3    3    0    0  0.52735051308E+01  0.62268890858E+02 -0.96479453751E+01  0.63240078075E+02  0.10000000000E+01 0.  0.
<mgrwt>
<rscale>  0 0.12500305E+03</rscale>
<asrwt>0</asrwt>
<pdfrwt beam="1">  1        4 0.83066746E-02 0.12500305E+03</pdfrwt>
<pdfrwt beam="2">  1       -4 0.11130823E-01 0.12500305E+03</pdfrwt>
<totfact> 0.10422721E+04</totfact>
</mgrwt>
</event>
<event>
 5    1  0.3217852E-002  0.1249943E+03  0.7818608E-02  0.1235078E+00
          4   -1    0    0  501    0  0.00000000000E+00  0.00000000000E+00  0.43127517620E+02  0.43146212766E+02  0.12700000000E+01 0. -1.
         -4   -1    0    0    0  501 -0.00000000000E+00 -0.00000000000E+00 -0.90523380121E+02  0.90532288431E+02  0.12700000000E+01 0. -1.
         25    2    1    2    0    0  0.00000000000E+00  0.00000000000E+00 -0.47395862500E+02  0.13367850120E+03  0.12499429547E+03 0.  0.
    9000005    1    3    3    0    0 -0.98056973532E+01 -0.61198405611E+02 -0.15175809746E+02  0.63817722863E+02  0.10000000000E+01 0.  0.
    9000005    1    3    3    0    0  0.98056973532E+01  0.61198405611E+02 -0.32220052755E+02  0.69860778334E+02  0.10000000000E+01 0.  0.
<mgrwt>
<rscale>  0 0.12499430E+03</rscale>
<asrwt>0</asrwt>
<pdfrwt beam="1">  1        4 0.66371261E-02 0.12499430E+03</pdfrwt>
<pdfrwt beam="2">  1       -4 0.13928797E-01 0.12499430E+03</pdfrwt>
<totfact> 0.10267321E+04</totfact>
</mgrwt>
</event>
<event>
 5    1  0.3217852E-002  0.1250012E+03  0.7818608E-02  0.1235067E+00
          4   -1    0    0  501    0  0.00000000000E+00  0.00000000000E+00  0.14271764884E+03  0.14272329939E+03  0.12700000000E+01 0. -1.
         -4   -1    0    0    0  501 -0.00000000000E+00 -0.00000000000E+00 -0.27350088671E+02  0.27379558986E+02  0.12700000000E+01 0. -1.
         25    2    1    2    0    0  0.00000000000E+00  0.00000000000E+00  0.11536756017E+03  0.17010285838E+03  0.12500123395E+03 0.  0.
    9000005    1    3    3    0    0 -0.41289054821E+02 -0.41685830670E+02  0.86959614357E+02  0.10490695428E+03  0.10000000000E+01 0.  0.
    9000005    1    3    3    0    0  0.41289054821E+02  0.41685830670E+02  0.28407945811E+02  0.65195904103E+02  0.10000000000E+01 0.  0.
<mgrwt>
<rscale>  0 0.12500123E+03</rscale>
<asrwt>0</asrwt>
<pdfrwt beam="1">  1        4 0.21959263E-01 0.12500123E+03</pdfrwt>
<pdfrwt beam="2">  1       -4 0.42104075E-02 0.12500123E+03</pdfrwt>
<totfact> 0.95426825E+03</totfact>
</mgrwt>
</event>
<event>
 5    1  0.3217852E-002  0.1249948E+03  0.7818608E-02  0.1235077E+00
         -4   -1    0    0    0  501 -0.00000000000E+00  0.00000000000E+00  0.42558600612E+03  0.42558790103E+03  0.12700000000E+01 0. -1.
          4   -1    0    0  501    0  0.00000000000E+00 -0.00000000000E+00 -0.91319043613E+01  0.92197926909E+01  0.12700000000E+01 0. -1.
         25    2    1    2    0    0  0.00000000000E+00  0.00000000000E+00  0.41645410176E+03  0.43480769372E+03  0.12499484649E+03 0.  0.
    9000005    1    3    3    0    0  0.15538857688E+02 -0.60240544869E+02  0.18778049620E+03  0.19782035815E+03  0.10000000000E+01 0.  0.
    9000005    1    3    3    0    0 -0.15538857688E+02  0.60240544869E+02  0.22867360556E+03  0.23698733558E+03  0.10000000000E+01 0.  0.
<mgrwt>
<rscale>  0 0.12499485E+03</rscale>
<asrwt>0</asrwt>
<pdfrwt beam="2">  1        4 0.14118149E-02 0.12499485E+03</pdfrwt>
<pdfrwt beam="1">  1       -4 0.65481670E-01 0.12499485E+03</pdfrwt>
<totfact> 0.61309575E+03</totfact>
</mgrwt>
</event>
<event>
 5    1  0.3217852E-002  0.1250027E+03  0.7818608E-02  0.1235065E+00
         -4   -1    0    0    0  501 -0.00000000000E+00  0.00000000000E+00  0.75831735581E+02  0.75842369565E+02  0.12700000000E+01 0. -1.
          4   -1    0    0  501    0  0.00000000000E+00 -0.00000000000E+00 -0.51492182773E+02  0.51507841992E+02  0.12700000000E+01 0. -1.
         25    2    1    2    0    0  0.00000000000E+00  0.00000000000E+00  0.24339552809E+02  0.12735021156E+03  0.12500265018E+03 0.  0.
    9000005    1    3    3    0    0  0.17211580101E+02  0.25703839858E+02 -0.43149980433E+02  0.53102228620E+02  0.10000000000E+01 0.  0.
    9000005    1    3    3    0    0 -0.17211580101E+02 -0.25703839858E+02  0.67489533242E+02  0.74247982937E+02  0.10000000000E+01 0.  0.
<mgrwt>
<rscale>  0 0.12500265E+03</rscale>
<asrwt>0</asrwt>
<pdfrwt beam="2">  1        4 0.79238969E-02 0.12500265E+03</pdfrwt>
<pdfrwt beam="1">  1       -4 0.11668443E-01 0.12500265E+03</pdfrwt>
<totfact> 0.10400924E+04</totfact>
</mgrwt>
</event>
<event>
 5    1  0.3217852E-002  0.1250065E+03  0.7818608E-02  0.1235059E+00
          4   -1    0    0  501    0  0.00000000000E+00  0.00000000000E+00  0.38213261457E+02  0.38234359563E+02  0.12700000000E+01 0.  1.
         -4   -1    0    0    0  501 -0.00000000000E+00 -0.00000000000E+00 -0.10217980926E+03  0.10218770141E+03  0.12700000000E+01 0.  1.
         25    2    1    2    0    0  0.00000000000E+00  0.00000000000E+00 -0.63966547798E+02  0.14042206097E+03  0.12500654371E+03 0.  0.
    9000005    1    3    3    0    0 -0.21099394933E+02  0.10536675553E+02 -0.96994676958E+02  0.99825714906E+02  0.10000000000E+01 0.  0.
    9000005    1    3    3    0    0  0.21099394933E+02 -0.10536675553E+02  0.33028129160E+02  0.40596346068E+02  0.10000000000E+01 0.  0.
<mgrwt>
<rscale>  0 0.12500654E+03</rscale>
<asrwt>0</asrwt>
<pdfrwt beam="1">  1        4 0.58811934E-02 0.12500654E+03</pdfrwt>
<pdfrwt beam="2">  1       -4 0.15722201E-01 0.12500654E+03</pdfrwt>
<totfact> 0.10123353E+04</totfact>
</mgrwt>
</event>
<event>
 5    1  0.3217852E-002  0.1249976E+03  0.7818608E-02  0.1235073E+00
         -4   -1    0    0    0  501 -0.00000000000E+00  0.00000000000E+00  0.14240124073E+02  0.14296644138E+02  0.12700000000E+01 0.  1.
          4   -1    0    0  501    0  0.00000000000E+00 -0.00000000000E+00 -0.27370107485E+03  0.27370402130E+03  0.12700000000E+01 0.  1.
         25    2    1    2    0    0  0.00000000000E+00  0.00000000000E+00 -0.25946095078E+03  0.28800066544E+03  0.12499759323E+03 0.  0.
    9000005    1    3    3    0    0  0.33216291046E+02  0.52186188700E+02 -0.15012870708E+03  0.16237718119E+03  0.10000000000E+01 0.  0.
    9000005    1    3    3    0    0 -0.33216291046E+02 -0.52186188700E+02 -0.10933224370E+03  0.12562348424E+03  0.10000000000E+01 0.  0.
<mgrwt>
<rscale>  0 0.12499759E+03</rscale>
<asrwt>0</asrwt>
<pdfrwt beam="2">  1        4 0.42112428E-01 0.12499759E+03</pdfrwt>
<pdfrwt beam="1">  1       -4 0.21953629E-02 0.12499759E+03</pdfrwt>
<totfact> 0.77133221E+03</totfact>
</mgrwt>
</event>
<event>
 5    1  0.3217852E-002  0.1249981E+03  0.7818608E-02  0.1235072E+00
          4   -1    0    0  501    0  0.00000000000E+00  0.00000000000E+00  0.27346713400E+02  0.27376187349E+02  0.12700000000E+01 0. -1.
         -4   -1    0    0    0  501 -0.00000000000E+00 -0.00000000000E+00 -0.14272819880E+03  0.14273384894E+03  0.12700000000E+01 0. -1.
         25    2    1    2    0    0  0.00000000000E+00  0.00000000000E+00 -0.11538148540E+03  0.17011003629E+03  0.12499814908E+03 0.  0.
    9000005    1    3    3    0    0  0.22204452381E+02  0.58322745253E+02 -0.62111888864E+02  0.88053773671E+02  0.10000000000E+01 0.  0.
    9000005    1    3    3    0    0 -0.22204452381E+02 -0.58322745253E+02 -0.53269596535E+02  0.82056262615E+02  0.10000000000E+01 0.  0.
<mgrwt>
<rscale>  0 0.12499815E+03</rscale>
<asrwt>0</asrwt>
<pdfrwt beam="1">  1        4 0.42098886E-02 0.12499815E+03</pdfrwt>
<pdfrwt beam="2">  1       -4 0.21960886E-01 0.12499815E+03</pdfrwt>
<totfact> 0.95432096E+03</totfact>
</mgrwt>
</event>
<event>
 5    1  0.3217852E-002  0.1249960E+03  0.7818608E-02  0.1235075E+00
         -4   -1    0    0    0  501 -0.00000000000E+00  0.00000000000E+00  0.44572818319E+01  0.46346802834E+01  0.12700000000E+01 0. -1.
          4   -1    0    0  501    0  0.00000000000E+00 -0.00000000000E+00 -0.85904300415E+03  0.85904394293E+03  0.12700000000E+01 0. -1.
         25    2    1    2    0    0  0.00000000000E+00  0.00000000000E+00 -0.85458572232E+03  0.86367862321E+03  0.12499602954E+03 0.  0.
    9000005    1    3    3    0    0  0.13919546859E+02  0.12884617053E+02 -0.83870627631E+03  0.83892132233E+03  0.10000000000E+01 0.  0.
    9000005    1    3    3    0    0 -0.13919546859E+02 -0.12884617053E+02 -0.15879446015E+02  0.24757300885E+02  0.10000000000E+01 0.  0.
<mgrwt>
<rscale>  0 0.12499603E+03</rscale>
<asrwt>0</asrwt>
<pdfrwt beam="2">  1        4 0.13217405E+00 0.12499603E+03</pdfrwt>
<pdfrwt beam="1">  1       -4 0.69945460E-03 0.12499603E+03</pdfrwt>
<totfact> 0.35577145E+03</totfact>
</mgrwt>
</event>
<event>
 5    1  0.3217852E-002  0.1250003E+03  0.7818608E-02  0.1235069E+00
          4   -1    0    0  501    0  0.00000000000E+00  0.00000000000E+00  0.22997566664E+02  0.23032606723E+02  0.12700000000E+01 0. -1.
         -4   -1    0    0    0  501 -0.00000000000E+00 -0.00000000000E+00 -0.16968913889E+03  0.16969389133E+03  0.12700000000E+01 0. -1.
         25    2    1    2    0    0  0.00000000000E+00  0.00000000000E+00 -0.14669157222E+03  0.19272649806E+03  0.12500034277E+03 0.  0.
    9000005    1    3    3    0    0  0.47849201334E+02  0.11447005977E+02 -0.13937322100E+02  0.51145175349E+02  0.10000000000E+01 0.  0.
    9000005    1    3    3    0    0 -0.47849201334E+02 -0.11447005977E+02 -0.13275425012E+03  0.14158132271E+03  0.10000000000E+01 0.  0.
<mgrwt>
<rscale>  0 0.12500034E+03</rscale>
<asrwt>0</asrwt>
<pdfrwt beam="1">  1        4 0.35411483E-02 0.12500034E+03</pdfrwt>
<pdfrwt beam="2">  1       -4 0.26109081E-01 0.12500034E+03</pdfrwt>
<totfact> 0.91374365E+03</totfact>
</mgrwt>
</event>
<event>
 5    1  0.3217852E-002  0.1250049E+03  0.7818608E-02  0.1235062E+00
         -4   -1    0    0    0  501 -0.00000000000E+00  0.00000000000E+00  0.28056571983E+03  0.28056859419E+03  0.12700000000E+01 0. -1.
          4   -1    0    0  501    0  0.00000000000E+00 -0.00000000000E+00 -0.13891938762E+02  0.13949869625E+02  0.12700000000E+01 0. -1.
         25    2    1    2    0    0  0.00000000000E+00  0.00000000000E+00  0.26667378107E+03  0.29451846381E+03  0.12500487997E+03 0.  0.
    9000005    1    3    3    0    0  0.46039750527E+02  0.19990961735E+02  0.45615084516E+02  0.67830915629E+02  0.10000000000E+01 0.  0.
    9000005    1    3    3    0    0 -0.46039750527E+02 -0.19990961735E+02  0.22105869655E+03  0.22668754818E+03  0.10000000000E+01 0.  0.
<mgrwt>
<rscale>  0 0.12500488E+03</rscale>
<asrwt>0</asrwt>
<pdfrwt beam="2">  1        4 0.21418988E-02 0.12500488E+03</pdfrwt>
<pdfrwt beam="1">  1       -4 0.43168631E-01 0.12500488E+03</pdfrwt>
<totfact> 0.76283351E+03</totfact>
</mgrwt>
</event>
<event>
 5    1  0.3217852E-002  0.1249990E+03  0.7818608E-02  0.1235071E+00
         -4   -1    0    0    0  501 -0.00000000000E+00  0.00000000000E+00  0.14476742747E+02  0.14532342570E+02  0.12700000000E+01 0. -1.
          4   -1    0    0  501    0  0.00000000000E+00 -0.00000000000E+00 -0.26925061478E+03  0.26925360992E+03  0.12700000000E+01 0. -1.
         25    2    1    2    0    0  0.00000000000E+00  0.00000000000E+00 -0.25477387203E+03  0.28378595249E+03  0.12499896385E+03 0.  0.
    9000005    1    3    3    0    0 -0.56044518615E+02 -0.27460188929E+02 -0.12015922786E+03  0.13540417306E+03  0.10000000000E+01 0.  0.
    9000005    1    3    3    0    0  0.56044518615E+02  0.27460188929E+02 -0.13461464417E+03  0.14838177943E+03  0.10000000000E+01 0.  0.
<mgrwt>
<rscale>  0 0.12499896E+03</rscale>
<asrwt>0</asrwt>
<pdfrwt beam="2">  1        4 0.41427675E-01 0.12499896E+03</pdfrwt>
<pdfrwt beam="1">  1       -4 0.22316987E-02 0.12499896E+03</pdfrwt>
<totfact> 0.77680569E+03</totfact>
</mgrwt>
</event>
<event>
 5    1  0.3217852E-002  0.1249893E+03  0.7818608E-02  0.1235086E+00
         -4   -1    0    0    0  501 -0.00000000000E+00  0.00000000000E+00  0.49328809288E+02  0.49345155038E+02  0.12700000000E+01 0. -1.
          4   -1    0    0  501    0  0.00000000000E+00 -0.00000000000E+00 -0.79139892637E+02  0.79150082164E+02  0.12700000000E+01 0. -1.
         25    2    1    2    0    0  0.00000000000E+00  0.00000000000E+00 -0.29811083349E+02  0.12849523720E+03  0.12498930072E+03 0.  0.
    9000005    1    3    3    0    0 -0.18769045376E+02 -0.68026839061E+01  0.45967060423E+02  0.50125085702E+02  0.10000000000E+01 0.  0.
    9000005    1    3    3    0    0  0.18769045376E+02  0.68026839061E+01 -0.75778143772E+02  0.78370151501E+02  0.10000000000E+01 0.  0.
<mgrwt>
<rscale>  0 0.12498930E+03</rscale>
<asrwt>0</asrwt>
<pdfrwt beam="2">  1        4 0.12177409E-01 0.12498930E+03</pdfrwt>
<pdfrwt beam="1">  1       -4 0.75910887E-02 0.12498930E+03</pdfrwt>
<totfact> 0.10379313E+04</totfact>
</mgrwt>
</event>
<event>
 5    1  0.3217852E-002  0.1249987E+03  0.7818608E-02  0.1235071E+00
         -4   -1    0    0    0  501 -0.00000000000E+00  0.00000000000E+00  0.46874993121E+03  0.46875165163E+03  0.12700000000E+01 0. -1.
          4   -1    0    0  501    0  0.00000000000E+00 -0.00000000000E+00 -0.82830207035E+01  0.83798169416E+01  0.12700000000E+01 0. -1.
         25    2    1    2    0    0  0.00000000000E+00  0.00000000000E+00  0.46046691051E+03  0.47713146858E+03  0.12499865053E+03 0.  0.
    9000005    1    3    3    0    0  0.51586903517E+02 -0.28519353527E+02  0.15102500369E+03  0.16212376100E+03  0.10000000000E+01 0.  0.
    9000005    1    3    3    0    0 -0.51586903517E+02  0.28519353527E+02  0.30944190681E+03  0.31500770758E+03  0.10000000000E+01 0.  0.
<mgrwt>
<rscale>  0 0.12499865E+03</rscale>
<asrwt>0</asrwt>
<pdfrwt beam="2">  1        4 0.12818891E-02 0.12499865E+03</pdfrwt>
<pdfrwt beam="1">  1       -4 0.72122953E-01 0.12499865E+03</pdfrwt>
<totfact> 0.57685101E+03</totfact>
</mgrwt>
</event>
<event>
 5    1  0.3217852E-002  0.1249993E+03  0.7818608E-02  0.1235070E+00
          4   -1    0    0  501    0  0.00000000000E+00  0.00000000000E+00  0.20630795647E+03  0.20631186540E+03  0.12700000000E+01 0. -1.
         -4   -1    0    0    0  501 -0.00000000000E+00 -0.00000000000E+00 -0.18908461543E+02  0.18951063768E+02  0.12700000000E+01 0. -1.
         25    2    1    2    0    0  0.00000000000E+00  0.00000000000E+00  0.18739949493E+03  0.22526292916E+03  0.12499926622E+03 0.  0.
    9000005    1    3    3    0    0  0.57470000405E+02  0.20131382125E+02  0.11900200876E+03  0.13368078240E+03  0.10000000000E+01 0.  0.
    9000005    1    3    3    0    0 -0.57470000405E+02 -0.20131382125E+02  0.68397486166E+02  0.91582146768E+02  0.10000000000E+01 0.  0.
<mgrwt>
<rscale>  0 0.12499927E+03</rscale>
<asrwt>0</asrwt>
<pdfrwt beam="1">  1        4 0.31743265E-01 0.12499927E+03</pdfrwt>
<pdfrwt beam="2">  1       -4 0.29125718E-02 0.12499927E+03</pdfrwt>
<totfact> 0.86043734E+03</totfact>
</mgrwt>
</event>
<event>
 5    1  0.3217852E-002  0.1249996E+03  0.7818608E-02  0.1235070E+00
          4   -1    0    0  501    0  0.00000000000E+00  0.00000000000E+00  0.22212950614E+03  0.22213313665E+03  0.12700000000E+01 0. -1.
         -4   -1    0    0    0  501 -0.00000000000E+00 -0.00000000000E+00 -0.17558628054E+02  0.17604497128E+02  0.12700000000E+01 0. -1.
         25    2    1    2    0    0  0.00000000000E+00  0.00000000000E+00  0.20457087808E+03  0.23973763378E+03  0.12499955555E+03 0.  0.
    9000005    1    3    3    0    0 -0.39695728978E+02 -0.47229559345E+02  0.12135295935E+03  0.13613935110E+03  0.10000000000E+01 0.  0.
    9000005    1    3    3    0    0  0.39695728978E+02  0.47229559345E+02  0.83217918736E+02  0.10359828268E+03  0.10000000000E+01 0.  0.
<mgrwt>
<rscale>  0 0.12499956E+03</rscale>
<asrwt>0</asrwt>
<pdfrwt beam="1">  1        4 0.34177575E-01 0.12499956E+03</pdfrwt>
<pdfrwt beam="2">  1       -4 0.27051352E-02 0.12499956E+03</pdfrwt>
<totfact> 0.83837290E+03</totfact>
</mgrwt>
</event>
<event>
 5    1  0.3217852E-002  0.1249962E+03  0.7818608E-02  0.1235075E+00
          4   -1    0    0  501    0  0.00000000000E+00  0.00000000000E+00  0.63993361432E+03  0.63993487453E+03  0.12700000000E+01 0. -1.
         -4   -1    0    0    0  501 -0.00000000000E+00 -0.00000000000E+00 -0.60364351076E+01  0.61685856408E+01  0.12700000000E+01 0. -1.
         25    2    1    2    0    0  0.00000000000E+00  0.00000000000E+00  0.63389717921E+03  0.64610346017E+03  0.12499618965E+03 0.  0.
    9000005    1    3    3    0    0  0.61322833532E+02 -0.83969648899E+01  0.27247941409E+03  0.27942267273E+03  0.10000000000E+01 0.  0.
    9000005    1    3    3    0    0 -0.61322833532E+02  0.83969648899E+01  0.36141776512E+03  0.36668078744E+03  0.10000000000E+01 0.  0.
<mgrwt>
<rscale>  0 0.12499619E+03</rscale>
<asrwt>0</asrwt>
<pdfrwt beam="1">  1        4 0.98461604E-01 0.12499619E+03</pdfrwt>
<pdfrwt beam="2">  1       -4 0.93894453E-03 0.12499619E+03</pdfrwt>
<totfact> 0.46084716E+03</totfact>
</mgrwt>
</event>
<event>
 5    1  0.3217852E-002  0.1250004E+03  0.7818608E-02  0.1235069E+00
         -4   -1    0    0    0  501 -0.00000000000E+00  0.00000000000E+00  0.72921635537E+02  0.72932693831E+02  0.12700000000E+01 0.  1.
          4   -1    0    0  501    0  0.00000000000E+00 -0.00000000000E+00 -0.53545507363E+02  0.53560566266E+02  0.12700000000E+01 0.  1.
         25    2    1    2    0    0  0.00000000000E+00  0.00000000000E+00  0.19376128175E+02  0.12649326010E+03  0.12500044203E+03 0.  0.
    9000005    1    3    3    0    0  0.53159960751E+02 -0.27234112307E+02  0.28281370342E+02  0.66094736619E+02  0.10000000000E+01 0.  0.
    9000005    1    3    3    0    0 -0.53159960751E+02  0.27234112307E+02 -0.89052421673E+01  0.60398523478E+02  0.10000000000E+01 0.  0.
<mgrwt>
<rscale>  0 0.12500044E+03</rscale>
<asrwt>0</asrwt>
<pdfrwt beam="2">  1        4 0.82397794E-02 0.12500044E+03</pdfrwt>
<pdfrwt beam="1">  1       -4 0.11220722E-01 0.12500044E+03</pdfrwt>
<totfact> 0.10420071E+04</totfact>
</mgrwt>
</event>
<event>
 5    1  0.3217852E-002  0.1250015E+03  0.7818608E-02  0.1235067E+00
          4   -1    0    0  501    0  0.00000000000E+00  0.00000000000E+00  0.36844687865E+02  0.36866569190E+02  0.12700000000E+01 0.  1.
         -4   -1    0    0    0  501 -0.00000000000E+00 -0.00000000000E+00 -0.10596477616E+03  0.10597238643E+03  0.12700000000E+01 0.  1.
         25    2    1    2    0    0  0.00000000000E+00  0.00000000000E+00 -0.69120088294E+02  0.14283895562E+03  0.12500152254E+03 0.  0.
    9000005    1    3    3    0    0 -0.10156303869E+01 -0.61895312740E+02 -0.44342225164E+02  0.76153096961E+02  0.10000000000E+01 0.  0.
    9000005    1    3    3    0    0  0.10156303869E+01  0.61895312740E+02 -0.24777863130E+02  0.66685858663E+02  0.10000000000E+01 0.  0.
<mgrwt>
<rscale>  0 0.12500152E+03</rscale>
<asrwt>0</asrwt>
<pdfrwt beam="1">  1        4 0.56706821E-02 0.12500152E+03</pdfrwt>
<pdfrwt beam="2">  1       -4 0.16304542E-01 0.12500152E+03</pdfrwt>
<totfact> 0.10074737E+04</totfact>
</mgrwt>
</event>
<event>
 5    1  0.3217852E-002  0.1249807E+03  0.7818608E-02  0.1235100E+00
          4   -1    0    0  501    0  0.00000000000E+00  0.00000000000E+00  0.14595521650E+03  0.14596074172E+03  0.12700000000E+01 0.  1.
         -4   -1    0    0    0  501 -0.00000000000E+00 -0.00000000000E+00 -0.26733959035E+02  0.26764107788E+02  0.12700000000E+01 0.  1.
         25    2    1    2    0    0  0.00000000000E+00  0.00000000000E+00  0.11922125747E+03  0.17272484951E+03  0.12498066013E+03 0.  0.
    9000005    1    3    3    0    0 -0.40202536369E+02  0.29692346313E+02  0.77867772387E+01  0.50591632310E+02  0.10000000000E+01 0.  0.
    9000005    1    3    3    0    0  0.40202536369E+02 -0.29692346313E+02  0.11143448023E+03  0.12213321720E+03  0.10000000000E+01 0.  0.
<mgrwt>
<rscale>  0 0.12498066E+03</rscale>
<asrwt>0</asrwt>
<pdfrwt beam="1">  1        4 0.22457393E-01 0.12498066E+03</pdfrwt>
<pdfrwt beam="2">  1       -4 0.41156609E-02 0.12498066E+03</pdfrwt>
<totfact> 0.94984401E+03</totfact>
</mgrwt>
</event>
<event>
 5    1  0.3217852E-002  0.1249971E+03  0.7818608E-02  0.1235074E+00
          4   -1    0    0  501    0  0.00000000000E+00  0.00000000000E+00  0.34326099561E+02  0.34349585311E+02  0.12700000000E+01 0.  1.
         -4   -1    0    0    0  501 -0.00000000000E+00 -0.00000000000E+00 -0.11372699786E+03  0.11373408874E+03  0.12700000000E+01 0.  1.
         25    2    1    2    0    0  0.00000000000E+00  0.00000000000E+00 -0.79400898301E+02  0.14808367406E+03  0.12499708745E+03 0.  0.
    9000005    1    3    3    0    0  0.45360319653E+02  0.37816200375E+02 -0.15495365650E+02  0.61063327508E+02  0.10000000000E+01 0.  0.
    9000005    1    3    3    0    0 -0.45360319653E+02 -0.37816200375E+02 -0.63905532651E+02  0.87020346547E+02  0.10000000000E+01 0.  0.
<mgrwt>
<rscale>  0 0.12499709E+03</rscale>
<asrwt>0</asrwt>
<pdfrwt beam="1">  1        4 0.52832905E-02 0.12499709E+03</pdfrwt>
<pdfrwt beam="2">  1       -4 0.17498813E-01 0.12499709E+03</pdfrwt>
<totfact> 0.99693605E+03</totfact>
</mgrwt>
</event>
<event>
 5    1  0.3217852E-002  0.1250033E+03  0.7818608E-02  0.1235064E+00
         -4   -1    0    0    0  501 -0.00000000000E+00  0.00000000000E+00  0.69973064596E+02  0.69984588796E+02  0.12700000000E+01 0. -1.
          4   -1    0    0  501    0  0.00000000000E+00 -0.00000000000E+00 -0.55804639625E+02  0.55819089061E+02  0.12700000000E+01 0. -1.
         25    2    1    2    0    0  0.00000000000E+00  0.00000000000E+00  0.14168424971E+02  0.12580367786E+03  0.12500328434E+03 0.  0.
    9000005    1    3    3    0    0 -0.18155400526E+02  0.59699119946E+02  0.10548897588E+02  0.63292043188E+02  0.10000000000E+01 0.  0.
    9000005    1    3    3    0    0  0.18155400526E+02 -0.59699119946E+02  0.36195273830E+01  0.62511634670E+02  0.10000000000E+01 0.  0.
<mgrwt>
<rscale>  0 0.12500328E+03</rscale>
<asrwt>0</asrwt>
<pdfrwt beam="2">  1        4 0.85873271E-02 0.12500328E+03</pdfrwt>
<pdfrwt beam="1">  1       -4 0.10767085E-01 0.12500328E+03</pdfrwt>
<totfact> 0.10434491E+04</totfact>
</mgrwt>
</event>
<event>
 5    1  0.3217852E-002  0.1249973E+03  0.7818608E-02  0.1235073E+00
         -4   -1    0    0    0  501 -0.00000000000E+00  0.00000000000E+00  0.16373167907E+02  0.16422348410E+02  0.12700000000E+01 0. -1.
          4   -1    0    0  501    0  0.00000000000E+00 -0.00000000000E+00 -0.23815740626E+03  0.23816079244E+03  0.12700000000E+01 0. -1.
         25    2    1    2    0    0  0.00000000000E+00  0.00000000000E+00 -0.22178423835E+03  0.25458314085E+03  0.12499730887E+03 0.  0.
    9000005    1    3    3    0    0 -0.11385904771E+02  0.10627833456E+02  0.12366508343E+02  0.19912814970E+02  0.10000000000E+01 0.  0.
    9000005    1    3    3    0    0  0.11385904771E+02 -0.10627833456E+02 -0.23415074670E+03  0.23467032588E+03  0.10000000000E+01 0.  0.
<mgrwt>
<rscale>  0 0.12499731E+03</rscale>
<asrwt>0</asrwt>
<pdfrwt beam="2">  1        4 0.36643642E-01 0.12499731E+03</pdfrwt>
<pdfrwt beam="1">  1       -4 0.25229927E-02 0.12499731E+03</pdfrwt>
<totfact> 0.81677197E+03</totfact>
</mgrwt>
</event>
<event>
 5    1  0.3217852E-002  0.1249994E+03  0.7818608E-02  0.1235070E+00
         -4   -1    0    0    0  501 -0.00000000000E+00  0.00000000000E+00  0.41019921267E+02  0.41039576518E+02  0.12700000000E+01 0. -1.
          4   -1    0    0  501    0  0.00000000000E+00 -0.00000000000E+00 -0.95180525931E+02  0.95188998401E+02  0.12700000000E+01 0. -1.
         25    2    1    2    0    0  0.00000000000E+00  0.00000000000E+00 -0.54160604664E+02  0.13622857492E+03  0.12499941411E+03 0.  0.
    9000005    1    3    3    0    0 -0.41764146029E+02  0.44259048731E+02 -0.11586787936E+02  0.61954507042E+02  0.10000000000E+01 0.  0.
    9000005    1    3    3    0    0  0.41764146029E+02 -0.44259048731E+02 -0.42573816728E+02  0.74274067877E+02  0.10000000000E+01 0.  0.
<mgrwt>
<rscale>  0 0.12499941E+03</rscale>
<asrwt>0</asrwt>
<pdfrwt beam="2">  1        4 0.14645321E-01 0.12499941E+03</pdfrwt>
<pdfrwt beam="1">  1       -4 0.63129208E-02 0.12499941E+03</pdfrwt>
<totfact> 0.10212375E+04</totfact>
</mgrwt>
</event>
<event>
 5    1  0.3217852E-002  0.1250091E+03  0.7818608E-02  0.1235055E+00
          4   -1    0    0  501    0  0.00000000000E+00  0.00000000000E+00  0.29535714098E+02  0.29563005721E+02  0.12700000000E+01 0.  1.
         -4   -1    0    0    0  501 -0.00000000000E+00 -0.00000000000E+00 -0.13218290561E+03  0.13218900649E+03  0.12700000000E+01 0.  1.
         25    2    1    2    0    0  0.00000000000E+00  0.00000000000E+00 -0.10264719151E+03  0.16175201221E+03  0.12500906978E+03 0.  0.
    9000005    1    3    3    0    0  0.29423492125E+02 -0.54312521111E+02 -0.63614157105E+02  0.88675548053E+02  0.10000000000E+01 0.  0.
    9000005    1    3    3    0    0 -0.29423492125E+02  0.54312521111E+02 -0.39033034407E+02  0.73076464154E+02  0.10000000000E+01 0.  0.
<mgrwt>
<rscale>  0 0.12500907E+03</rscale>
<asrwt>0</asrwt>
<pdfrwt beam="1">  1        4 0.45465247E-02 0.12500907E+03</pdfrwt>
<pdfrwt beam="2">  1       -4 0.20338400E-01 0.12500907E+03</pdfrwt>
<totfact> 0.96986301E+03</totfact>
</mgrwt>
</event>
<event>
 5    1  0.3217852E-002  0.1249971E+03  0.7818608E-02  0.1235074E+00
         -4   -1    0    0    0  501 -0.00000000000E+00  0.00000000000E+00  0.45875165806E+03  0.45875341598E+03  0.12700000000E+01 0. -1.
          4   -1    0    0  501    0  0.00000000000E+00 -0.00000000000E+00 -0.84654154539E+01  0.85601494617E+01  0.12700000000E+01 0. -1.
         25    2    1    2    0    0  0.00000000000E+00  0.00000000000E+00  0.45028624260E+03  0.46731356544E+03  0.12499707262E+03 0.  0.
    9000005    1    3    3    0    0  0.59296157690E+02 -0.18299991638E+02  0.19763380314E+03  0.20714981089E+03  0.10000000000E+01 0.  0.
    9000005    1    3    3    0    0 -0.59296157690E+02  0.18299991638E+02  0.25265243947E+03  0.26016375454E+03  0.10000000000E+01 0.  0.
<mgrwt>
<rscale>  0 0.12499707E+03</rscale>
<asrwt>0</asrwt>
<pdfrwt beam="2">  1        4 0.13097940E-02 0.12499707E+03</pdfrwt>
<pdfrwt beam="1">  1       -4 0.70584603E-01 0.12499707E+03</pdfrwt>
<totfact> 0.58496492E+03</totfact>
</mgrwt>
</event>
<event>
 5    1  0.3217852E-002  0.1249954E+03  0.7818608E-02  0.1235077E+00
         -4   -1    0    0    0  501 -0.00000000000E+00  0.00000000000E+00  0.10008282362E+03  0.10009088112E+03  0.12700000000E+01 0. -1.
          4   -1    0    0  501    0  0.00000000000E+00 -0.00000000000E+00 -0.39007314332E+02  0.39027983184E+02  0.12700000000E+01 0. -1.
         25    2    1    2    0    0  0.00000000000E+00  0.00000000000E+00  0.61075509289E+02  0.13911886431E+03  0.12499536220E+03 0.  0.
    9000005    1    3    3    0    0  0.34838298114E+02 -0.10706886207E+02 -0.25958147757E+02  0.44756785661E+02  0.10000000000E+01 0.  0.
    9000005    1    3    3    0    0 -0.34838298114E+02  0.10706886207E+02  0.87033657046E+02  0.94362078647E+02  0.10000000000E+01 0.  0.
<mgrwt>
<rscale>  0 0.12499536E+03</rscale>
<asrwt>0</asrwt>
<pdfrwt beam="2">  1        4 0.60033350E-02 0.12499536E+03</pdfrwt>
<pdfrwt beam="1">  1       -4 0.15399567E-01 0.12499536E+03</pdfrwt>
<totfact> 0.10152941E+04</totfact>
</mgrwt>
</event>
<event>
 4    1  0.3217852E-002  0.1251950E+03  0.7818608E-02  0.1234765E+00
         -4   -1    0    0    0  501 -0.00000000000E+00  0.00000000000E+00  0.10330077694E+03  0.10330858346E+03  0.12700000000E+01 0. -1.
          4   -1    0    0  501    0  0.00000000000E+00 -0.00000000000E+00 -0.37912508281E+02  0.37933773661E+02  0.12700000000E+01 0. -1.
    9000005    1    1    2    0    0  0.59467833224E+02 -0.16903659797E+02  0.21681374473E+02  0.65522812073E+02  0.10000000000E+01 0.  0.
    9000005    1    1    2    0    0 -0.59467833224E+02  0.16903659797E+02  0.43706894185E+02  0.75719545048E+02  0.10000000000E+01 0.  0.
<mgrwt>
<rscale>  0 0.12519496E+03</rscale>
<asrwt>0</asrwt>
<pdfrwt beam="2">  1        4 0.58349298E-02 0.12519496E+03</pdfrwt>
<pdfrwt beam="1">  1       -4 0.15894664E-01 0.12519496E+03</pdfrwt>
<totfact> 0.10063638E+04</totfact>
</mgrwt>
</event>
<event>
 5    1  0.3217852E-002  0.1250013E+03  0.7818608E-02  0.1235067E+00
         -4   -1    0    0    0  501 -0.00000000000E+00  0.00000000000E+00  0.96995622274E+01  0.97823518339E+01  0.12700000000E+01 0.  1.
          4   -1    0    0  501    0  0.00000000000E+00 -0.00000000000E+00 -0.40093737003E+03  0.40093938144E+03  0.12700000000E+01 0.  1.
         25    2    1    2    0    0  0.00000000000E+00  0.00000000000E+00 -0.39123780780E+03  0.41072173327E+03  0.12500127970E+03 0.  0.
    9000005    1    3    3    0    0 -0.36350822299E+02 -0.36384006102E+02 -0.78979670409E+02  0.94254795739E+02  0.10000000000E+01 0.  0.
    9000005    1    3    3    0    0  0.36350822299E+02  0.36384006102E+02 -0.31225813740E+03  0.31646693753E+03  0.10000000000E+01 0.  0.
<mgrwt>
<rscale>  0 0.12500128E+03</rscale>
<asrwt>0</asrwt>
<pdfrwt beam="2">  1        4 0.61689183E-01 0.12500128E+03</pdfrwt>
<pdfrwt beam="1">  1       -4 0.14987638E-02 0.12500128E+03</pdfrwt>
<totfact> 0.63521408E+03</totfact>
</mgrwt>
</event>
<event>
 5    1  0.3217852E-002  0.1250042E+03  0.7818608E-02  0.1235063E+00
          4   -1    0    0  501    0  0.00000000000E+00  0.00000000000E+00  0.15309371228E+02  0.15361957799E+02  0.12700000000E+01 0.  1.
         -4   -1    0    0    0  501 -0.00000000000E+00 -0.00000000000E+00 -0.25467950000E+03  0.25468266651E+03  0.12700000000E+01 0.  1.
         25    2    1    2    0    0  0.00000000000E+00  0.00000000000E+00 -0.23937012877E+03  0.27004462431E+03  0.12500416221E+03 0.  0.
    9000005    1    3    3    0    0 -0.23737447609E+02  0.49968736446E+02 -0.56881705986E+02  0.79352816692E+02  0.10000000000E+01 0.  0.
    9000005    1    3    3    0    0  0.23737447609E+02 -0.49968736446E+02 -0.18248842278E+03  0.19069180762E+03  0.10000000000E+01 0.  0.
<mgrwt>
<rscale>  0 0.12500416E+03</rscale>
<asrwt>0</asrwt>
<pdfrwt beam="1">  1        4 0.23595768E-02 0.12500416E+03</pdfrwt>
<pdfrwt beam="2">  1       -4 0.39185747E-01 0.12500416E+03</pdfrwt>
<totfact> 0.79509423E+03</totfact>
</mgrwt>
</event>
<event>
 5    1  0.3217852E-002  0.1250041E+03  0.7818608E-02  0.1235063E+00
          4   -1    0    0  501    0  0.00000000000E+00  0.00000000000E+00  0.21402769619E+01  0.24887116091E+01  0.12700000000E+01 0.  1.
         -4   -1    0    0    0  501 -0.00000000000E+00 -0.00000000000E+00 -0.16874955947E+04  0.16874960726E+04  0.12700000000E+01 0.  1.
         25    2    1    2    0    0  0.00000000000E+00  0.00000000000E+00 -0.16853553177E+04  0.16899847842E+04  0.12500409522E+03 0.  0.
    9000005    1    3    3    0    0 -0.14520296487E+02 -0.88027738705E+01 -0.16557767972E+04  0.16558641641E+04  0.10000000000E+01 0.  0.
    9000005    1    3    3    0    0  0.14520296487E+02  0.88027738705E+01 -0.29578520465E+02  0.34120620023E+02  0.10000000000E+01 0.  0.
<mgrwt>
<rscale>  0 0.12500410E+03</rscale>
<asrwt>0</asrwt>
<pdfrwt beam="1">  1        4 0.35611415E-03 0.12500410E+03</pdfrwt>
<pdfrwt beam="2">  1       -4 0.25964056E+00 0.12500410E+03</pdfrwt>
<totfact> 0.14474504E+03</totfact>
</mgrwt>
</event>
<event>
 5    1  0.3217852E-002  0.1249970E+03  0.7818608E-02  0.1235074E+00
         -4   -1    0    0    0  501 -0.00000000000E+00  0.00000000000E+00  0.10718284793E+03  0.10719037172E+03  0.12700000000E+01 0. -1.
          4   -1    0    0  501    0  0.00000000000E+00 -0.00000000000E+00 -0.36423098857E+02  0.36445233301E+02  0.12700000000E+01 0. -1.
         25    2    1    2    0    0  0.00000000000E+00  0.00000000000E+00  0.70759749071E+02  0.14363560502E+03  0.12499697973E+03 0.  0.
    9000005    1    3    3    0    0  0.32221754430E+02  0.47572811864E+01  0.96663117993E+02  0.10200799754E+03  0.10000000000E+01 0.  0.
    9000005    1    3    3    0    0 -0.32221754430E+02 -0.47572811864E+01 -0.25903368922E+02  0.41627607478E+02  0.10000000000E+01 0.  0.
<mgrwt>
<rscale>  0 0.12499698E+03</rscale>
<asrwt>0</asrwt>
<pdfrwt beam="2">  1        4 0.56058352E-02 0.12499698E+03</pdfrwt>
<pdfrwt beam="1">  1       -4 0.16491950E-01 0.12499698E+03</pdfrwt>
<totfact> 0.10059468E+04</totfact>
</mgrwt>
</event>
<event>
 5    1  0.3217852E-002  0.1249997E+03  0.7818608E-02  0.1235070E+00
         -4   -1    0    0    0  501 -0.00000000000E+00  0.00000000000E+00  0.24791113183E+02  0.24823621670E+02  0.12700000000E+01 0.  1.
          4   -1    0    0  501    0  0.00000000000E+00 -0.00000000000E+00 -0.15742746270E+03  0.15743258529E+03  0.12700000000E+01 0.  1.
         25    2    1    2    0    0  0.00000000000E+00  0.00000000000E+00 -0.13263634951E+03  0.18225620696E+03  0.12499969505E+03 0.  0.
    9000005    1    3    3    0    0  0.93362709632E+01  0.50302719058E+02 -0.11863976857E+03  0.12920496967E+03  0.10000000000E+01 0.  0.
    9000005    1    3    3    0    0 -0.93362709632E+01 -0.50302719058E+02 -0.13996580942E+02  0.53051237292E+02  0.10000000000E+01 0.  0.
<mgrwt>
<rscale>  0 0.12499970E+03</rscale>
<asrwt>0</asrwt>
<pdfrwt beam="2">  1        4 0.24222504E-01 0.12499970E+03</pdfrwt>
<pdfrwt beam="1">  1       -4 0.38169122E-02 0.12499970E+03</pdfrwt>
<totfact> 0.93213085E+03</totfact>
</mgrwt>
</event>
<event>
 5    1  0.3217852E-002  0.1250027E+03  0.7818608E-02  0.1235065E+00
         -4   -1    0    0    0  501 -0.00000000000E+00  0.00000000000E+00  0.14848138921E+03  0.14848682043E+03  0.12700000000E+01 0. -1.
          4   -1    0    0  501    0  0.00000000000E+00 -0.00000000000E+00 -0.26287899474E+02  0.26318559207E+02  0.12700000000E+01 0. -1.
         25    2    1    2    0    0  0.00000000000E+00  0.00000000000E+00  0.12219348974E+03  0.17480537964E+03  0.12500268724E+03 0.  0.
    9000005    1    3    3    0    0  0.57549869580E+02 -0.18197617326E+02  0.83744006893E+02  0.10323371279E+03  0.10000000000E+01 0.  0.
    9000005    1    3    3    0    0 -0.57549869580E+02  0.18197617326E+02  0.38449482843E+02  0.71571666852E+02  0.10000000000E+01 0.  0.
<mgrwt>
<rscale>  0 0.12500269E+03</rscale>
<asrwt>0</asrwt>
<pdfrwt beam="2">  1        4 0.40470684E-02 0.12500269E+03</pdfrwt>
<pdfrwt beam="1">  1       -4 0.22846067E-01 0.12500269E+03</pdfrwt>
<totfact> 0.94554796E+03</totfact>
</mgrwt>
</event>
<event>
 5    1  0.3217852E-002  0.1249920E+03  0.7818608E-02  0.1235082E+00
         -4   -1    0    0    0  501 -0.00000000000E+00  0.00000000000E+00  0.45805333528E+02  0.45822936174E+02  0.12700000000E+01 0.  1.
          4   -1    0    0  501    0  0.00000000000E+00 -0.00000000000E+00 -0.85229784395E+02  0.85239245938E+02  0.12700000000E+01 0.  1.
         25    2    1    2    0    0  0.00000000000E+00  0.00000000000E+00 -0.39424450867E+02  0.13106218211E+03  0.12499203276E+03 0.  0.
    9000005    1    3    3    0    0 -0.30405510360E+02  0.74955198619E+01 -0.76413034602E+02  0.82587103928E+02  0.10000000000E+01 0.  0.
    9000005    1    3    3    0    0  0.30405510360E+02 -0.74955198619E+01  0.36988583735E+02  0.48475078184E+02  0.10000000000E+01 0.  0.
<mgrwt>
<rscale>  0 0.12499203E+03</rscale>
<asrwt>0</asrwt>
<pdfrwt beam="2">  1        4 0.13114356E-01 0.12499203E+03</pdfrwt>
<pdfrwt beam="1">  1       -4 0.70490562E-02 0.12499203E+03</pdfrwt>
<totfact> 0.10323612E+04</totfact>
</mgrwt>
</event>
<event>
 5    1  0.3217852E-002  0.1249982E+03  0.7818608E-02  0.1235072E+00
          4   -1    0    0  501    0  0.00000000000E+00  0.00000000000E+00  0.27534619791E+02  0.27563892813E+02  0.12700000000E+01 0. -1.
         -4   -1    0    0    0  501 -0.00000000000E+00 -0.00000000000E+00 -0.14175527302E+03  0.14176096194E+03  0.12700000000E+01 0. -1.
         25    2    1    2    0    0  0.00000000000E+00  0.00000000000E+00 -0.11422065323E+03  0.16932485475E+03  0.12499819524E+03 0.  0.
    9000005    1    3    3    0    0  0.38807538167E+02  0.42977311042E+02 -0.25282186718E+02  0.63192272060E+02  0.10000000000E+01 0.  0.
    9000005    1    3    3    0    0 -0.38807538167E+02 -0.42977311042E+02 -0.88938466515E+02  0.10613258269E+03  0.10000000000E+01 0.  0.
<mgrwt>
<rscale>  0 0.12499820E+03</rscale>
<asrwt>0</asrwt>
<pdfrwt beam="1">  1        4 0.42387848E-02 0.12499820E+03</pdfrwt>
<pdfrwt beam="2">  1       -4 0.21811192E-01 0.12499820E+03</pdfrwt>
<totfact> 0.95578418E+03</totfact>
</mgrwt>
</event>
<event>
 5    1  0.3217852E-002  0.1249991E+03  0.7818608E-02  0.1235071E+00
         -4   -1    0    0    0  501 -0.00000000000E+00  0.00000000000E+00  0.44936379279E+01  0.46696554292E+01  0.12700000000E+01 0.  1.
          4   -1    0    0  501    0  0.00000000000E+00 -0.00000000000E+00 -0.85239724570E+03  0.85239819179E+03  0.12700000000E+01 0.  1.
         25    2    1    2    0    0  0.00000000000E+00  0.00000000000E+00 -0.84790360777E+03  0.85706784722E+03  0.12499906669E+03 0.  0.
    9000005    1    3    3    0    0 -0.12116779130E+02  0.38484829260E+00 -0.84429105838E+03  0.84437868028E+03  0.10000000000E+01 0.  0.
    9000005    1    3    3    0    0  0.12116779130E+02 -0.38484829260E+00 -0.36125493889E+01  0.12689166946E+02  0.10000000000E+01 0.  0.
<mgrwt>
<rscale>  0 0.12499907E+03</rscale>
<asrwt>0</asrwt>
<pdfrwt beam="2">  1        4 0.13115152E+00 0.12499907E+03</pdfrwt>
<pdfrwt beam="1">  1       -4 0.70494218E-03 0.12499907E+03</pdfrwt>
<totfact> 0.35840596E+03</totfact>
</mgrwt>
</event>
<event>
 5    1  0.3217852E-002  0.1250038E+03  0.7818608E-02  0.1235063E+00
         -4   -1    0    0    0  501 -0.00000000000E+00  0.00000000000E+00  0.82315584962E+01  0.83289528319E+01  0.12700000000E+01 0. -1.
          4   -1    0    0  501    0  0.00000000000E+00 -0.00000000000E+00 -0.47168521902E+03  0.47168692874E+03  0.12700000000E+01 0. -1.
         25    2    1    2    0    0  0.00000000000E+00  0.00000000000E+00 -0.46345366052E+03  0.48001588157E+03  0.12500380437E+03 0.  0.
    9000005    1    3    3    0    0  0.55658707655E+02 -0.18470680691E+02 -0.31465949323E+03  0.32007913781E+03  0.10000000000E+01 0.  0.
    9000005    1    3    3    0    0 -0.55658707655E+02  0.18470680691E+02 -0.14879416729E+03  0.15993674376E+03  0.10000000000E+01 0.  0.
<mgrwt>
<rscale>  0 0.12500380E+03</rscale>
<asrwt>0</asrwt>
<pdfrwt beam="2">  1        4 0.72574559E-01 0.12500380E+03</pdfrwt>
<pdfrwt beam="1">  1       -4 0.12740174E-02 0.12500380E+03</pdfrwt>
<totfact> 0.57444125E+03</totfact>
</mgrwt>
</event>
<event>
 5    1  0.3217852E-002  0.1249995E+03  0.7818608E-02  0.1235070E+00
         -4   -1    0    0    0  501 -0.00000000000E+00  0.00000000000E+00  0.19320608775E+02  0.19362304187E+02  0.12700000000E+01 0. -1.
          4   -1    0    0  501    0  0.00000000000E+00 -0.00000000000E+00 -0.20191733331E+03  0.20192132723E+03  0.12700000000E+01 0. -1.
         25    2    1    2    0    0  0.00000000000E+00  0.00000000000E+00 -0.18259672454E+03  0.22128363142E+03  0.12499952689E+03 0.  0.
    9000005    1    3    3    0    0 -0.55081332717E+02 -0.12280446805E+02 -0.43781778701E+02  0.71432532742E+02  0.10000000000E+01 0.  0.
    9000005    1    3    3    0    0  0.55081332717E+02  0.12280446805E+02 -0.13881494584E+03  0.14985109868E+03  0.10000000000E+01 0.  0.
<mgrwt>
<rscale>  0 0.12499953E+03</rscale>
<asrwt>0</asrwt>
<pdfrwt beam="2">  1        4 0.31067718E-01 0.12499953E+03</pdfrwt>
<pdfrwt beam="1">  1       -4 0.29759160E-02 0.12499953E+03</pdfrwt>
<totfact> 0.86666555E+03</totfact>
</mgrwt>
</event>
<event>
 5    1  0.3217852E-002  0.1250015E+03  0.7818608E-02  0.1235067E+00
          4   -1    0    0  501    0  0.00000000000E+00  0.00000000000E+00  0.22141232287E+03  0.22141596514E+03  0.12700000000E+01 0. -1.
         -4   -1    0    0    0  501 -0.00000000000E+00 -0.00000000000E+00 -0.17616201764E+02  0.17661921316E+02  0.12700000000E+01 0. -1.
         25    2    1    2    0    0  0.00000000000E+00  0.00000000000E+00  0.20379612111E+03  0.23907788646E+03  0.12500150725E+03 0.  0.
    9000005    1    3    3    0    0  0.43595710281E+02 -0.43751481258E+02  0.12009955630E+03  0.13505436494E+03  0.10000000000E+01 0.  0.
    9000005    1    3    3    0    0 -0.43595710281E+02  0.43751481258E+02  0.83696564807E+02  0.10402352151E+03  0.10000000000E+01 0.  0.
<mgrwt>
<rscale>  0 0.12500151E+03</rscale>
<asrwt>0</asrwt>
<pdfrwt beam="1">  1        4 0.34067228E-01 0.12500151E+03</pdfrwt>
<pdfrwt beam="2">  1       -4 0.27139822E-02 0.12500151E+03</pdfrwt>
<totfact> 0.83932073E+03</totfact>
</mgrwt>
</event>
<event>
 5    1  0.3217852E-002  0.1250021E+03  0.7818608E-02  0.1235066E+00
          4   -1    0    0  501    0  0.00000000000E+00  0.00000000000E+00  0.15512168346E+03  0.15512688220E+03  0.12700000000E+01 0.  1.
         -4   -1    0    0    0  501 -0.00000000000E+00 -0.00000000000E+00 -0.25161046293E+02  0.25193077433E+02  0.12700000000E+01 0.  1.
         25    2    1    2    0    0  0.00000000000E+00  0.00000000000E+00  0.12996063717E+03  0.18031995963E+03  0.12500208249E+03 0.  0.
    9000005    1    3    3    0    0  0.19486444250E+02  0.50311824104E+02  0.19491723298E+02  0.57375329466E+02  0.10000000000E+01 0.  0.
    9000005    1    3    3    0    0 -0.19486444250E+02 -0.50311824104E+02  0.11046891387E+03  0.12294463016E+03  0.10000000000E+01 0.  0.
<mgrwt>
<rscale>  0 0.12500208E+03</rscale>
<asrwt>0</asrwt>
<pdfrwt beam="1">  1        4 0.23867738E-01 0.12500208E+03</pdfrwt>
<pdfrwt beam="2">  1       -4 0.38737940E-02 0.12500208E+03</pdfrwt>
<totfact> 0.93555072E+03</totfact>
</mgrwt>
</event>
<event>
 5    1  0.3217852E-002  0.1250239E+03  0.7818608E-02  0.1235032E+00
         -4   -1    0    0    0  501 -0.00000000000E+00  0.00000000000E+00  0.13131317586E+02  0.13192588887E+02  0.12700000000E+01 0. -1.
          4   -1    0    0  501    0  0.00000000000E+00 -0.00000000000E+00 -0.29683430565E+03  0.29683702247E+03  0.12700000000E+01 0. -1.
         25    2    1    2    0    0  0.00000000000E+00  0.00000000000E+00 -0.28370298806E+03  0.31002961136E+03  0.12502389565E+03 0.  0.
    9000005    1    3    3    0    0 -0.39450351253E+02 -0.17228508506E+01 -0.21705891600E+02  0.45071544894E+02  0.10000000000E+01 0.  0.
    9000005    1    3    3    0    0  0.39450351253E+02  0.17228508506E+01 -0.26199709646E+03  0.26495806647E+03  0.10000000000E+01 0.  0.
<mgrwt>
<rscale>  0 0.12502390E+03</rscale>
<asrwt>0</asrwt>
<pdfrwt beam="2">  1        4 0.45671733E-01 0.12502390E+03</pdfrwt>
<pdfrwt beam="1">  1       -4 0.20251251E-02 0.12502390E+03</pdfrwt>
<totfact> 0.74318319E+03</totfact>
</mgrwt>
</event>
<event>
 5    1  0.3217852E-002  0.1249990E+03  0.7818608E-02  0.1235071E+00
         -4   -1    0    0    0  501 -0.00000000000E+00  0.00000000000E+00  0.12618859722E+02  0.12682607015E+02  0.12700000000E+01 0. -1.
          4   -1    0    0  501    0  0.00000000000E+00 -0.00000000000E+00 -0.30870648931E+03  0.30870910165E+03  0.12700000000E+01 0. -1.
         25    2    1    2    0    0  0.00000000000E+00  0.00000000000E+00 -0.29608762959E+03  0.32139170867E+03  0.12499898401E+03 0.  0.
    9000005    1    3    3    0    0  0.20589227621E+01  0.33019607230E+02 -0.11732536156E+02  0.35116748557E+02  0.10000000000E+01 0.  0.
    9000005    1    3    3    0    0 -0.20589227621E+01 -0.33019607230E+02 -0.28435509343E+03  0.28627496011E+03  0.10000000000E+01 0.  0.
<mgrwt>
<rscale>  0 0.12499898E+03</rscale>
<asrwt>0</asrwt>
<pdfrwt beam="2">  1        4 0.47498405E-01 0.12499898E+03</pdfrwt>
<pdfrwt beam="1">  1       -4 0.19464679E-02 0.12499898E+03</pdfrwt>
<totfact> 0.72992551E+03</totfact>
</mgrwt>
</event>
<event>
 5    1  0.3217852E-002  0.1250009E+03  0.7818608E-02  0.1235068E+00
          4   -1    0    0  501    0  0.00000000000E+00  0.00000000000E+00  0.10681933904E+02  0.10757165608E+02  0.12700000000E+01 0.  1.
         -4   -1    0    0    0  501 -0.00000000000E+00 -0.00000000000E+00 -0.36433308060E+03  0.36433529409E+03  0.12700000000E+01 0.  1.
         25    2    1    2    0    0  0.00000000000E+00  0.00000000000E+00 -0.35365114670E+03  0.37509245970E+03  0.12500087905E+03 0.  0.
    9000005    1    3    3    0    0 -0.92319755964E+01 -0.80619454311E+00  0.86233409171E+01  0.12698083778E+02  0.10000000000E+01 0.  0.
    9000005    1    3    3    0    0  0.92319755964E+01  0.80619454311E+00 -0.36227448762E+03  0.36239437592E+03  0.10000000000E+01 0.  0.
<mgrwt>
<rscale>  0 0.12500088E+03</rscale>
<asrwt>0</asrwt>
<pdfrwt beam="1">  1        4 0.16493320E-02 0.12500088E+03</pdfrwt>
<pdfrwt beam="2">  1       -4 0.56057191E-01 0.12500088E+03</pdfrwt>
<totfact> 0.67048216E+03</totfact>
</mgrwt>
</event>
<event>
 5    1  0.3217852E-002  0.1249570E+03  0.7818608E-02  0.1235137E+00
         -4   -1    0    0    0  501 -0.00000000000E+00  0.00000000000E+00  0.11370796179E+03  0.11371505386E+03  0.12700000000E+01 0.  1.
          4   -1    0    0  501    0  0.00000000000E+00 -0.00000000000E+00 -0.34309787939E+02  0.34333284847E+02  0.12700000000E+01 0.  1.
         25    2    1    2    0    0  0.00000000000E+00  0.00000000000E+00  0.79398173856E+02  0.14804833871E+03  0.12495695492E+03 0.  0.
    9000005    1    3    3    0    0 -0.45263428435E+02 -0.38869075205E+02  0.17757111679E+02  0.62256710290E+02  0.10000000000E+01 0.  0.
    9000005    1    3    3    0    0  0.45263428435E+02  0.38869075205E+02  0.61641062177E+02  0.85791628422E+02  0.10000000000E+01 0.  0.
<mgrwt>
<rscale>  0 0.12495695E+03</rscale>
<asrwt>0</asrwt>
<pdfrwt beam="2">  1        4 0.52807819E-02 0.12495695E+03</pdfrwt>
<pdfrwt beam="1">  1       -4 0.17495886E-01 0.12495695E+03</pdfrwt>
<totfact> 0.99790825E+03</totfact>
</mgrwt>
</event>
<event>
 5    1  0.3217852E-002  0.1250022E+03  0.7818608E-02  0.1235066E+00
         -4   -1    0    0    0  501 -0.00000000000E+00  0.00000000000E+00  0.14454036077E+04  0.14454041657E+04  0.12700000000E+01 0.  1.
          4   -1    0    0  501    0  0.00000000000E+00 -0.00000000000E+00 -0.25528403301E+01  0.28512968542E+01  0.12700000000E+01 0.  1.
         25    2    1    2    0    0  0.00000000000E+00  0.00000000000E+00  0.14428507674E+04  0.14482554625E+04  0.12500219097E+03 0.  0.
    9000005    1    3    3    0    0  0.96655824174E+01  0.32154802085E+02  0.11077000841E+03  0.11575123992E+03  0.10000000000E+01 0.  0.
    9000005    1    3    3    0    0 -0.96655824174E+01 -0.32154802085E+02  0.13320807590E+04  0.13325042226E+04  0.10000000000E+01 0.  0.
<mgrwt>
<rscale>  0 0.12500219E+03</rscale>
<asrwt>0</asrwt>
<pdfrwt beam="2">  1        4 0.41574633E-03 0.12500219E+03</pdfrwt>
<pdfrwt beam="1">  1       -4 0.22239249E+00 0.12500219E+03</pdfrwt>
<totfact> 0.18967622E+03</totfact>
</mgrwt>
</event>
<event>
 5    1  0.3217852E-002  0.1249997E+03  0.7818608E-02  0.1235070E+00
         -4   -1    0    0    0  501 -0.00000000000E+00  0.00000000000E+00  0.22424826855E+03  0.22425186475E+03  0.12700000000E+01 0.  1.
          4   -1    0    0  501    0  0.00000000000E+00 -0.00000000000E+00 -0.17392343211E+02  0.17438649671E+02  0.12700000000E+01 0.  1.
         25    2    1    2    0    0  0.00000000000E+00  0.00000000000E+00  0.20685592533E+03  0.24169051442E+03  0.12499972367E+03 0.  0.
    9000005    1    3    3    0    0  0.12002878224E+02 -0.12322352732E+02  0.21958979226E+03  0.22026480955E+03  0.10000000000E+01 0.  0.
    9000005    1    3    3    0    0 -0.12002878224E+02  0.12322352732E+02 -0.12733866924E+02  0.21425704874E+02  0.10000000000E+01 0.  0.
<mgrwt>
<rscale>  0 0.12499972E+03</rscale>
<asrwt>0</asrwt>
<pdfrwt beam="2">  1        4 0.26795840E-02 0.12499972E+03</pdfrwt>
<pdfrwt beam="1">  1       -4 0.34503569E-01 0.12499972E+03</pdfrwt>
<totfact> 0.83546754E+03</totfact>
</mgrwt>
</event>
<event>
 5    1  0.3217852E-002  0.1249867E+03  0.7818608E-02  0.1235090E+00
          4   -1    0    0  501    0  0.00000000000E+00  0.00000000000E+00  0.63662627077E+01  0.64917024627E+01  0.12700000000E+01 0.  1.
         -4   -1    0    0    0  501 -0.00000000000E+00 -0.00000000000E+00 -0.60734511206E+03  0.60734643989E+03  0.12700000000E+01 0.  1.
         25    2    1    2    0    0  0.00000000000E+00  0.00000000000E+00 -0.60097884935E+03  0.61383814235E+03  0.12498674983E+03 0.  0.
    9000005    1    3    3    0    0 -0.49194502926E+01  0.61639761380E+01 -0.60491516244E+03  0.60496739527E+03  0.10000000000E+01 0.  0.
    9000005    1    3    3    0    0  0.49194502926E+01 -0.61639761380E+01  0.39363130864E+01  0.88707470782E+01  0.10000000000E+01 0.  0.
<mgrwt>
<rscale>  0 0.12498675E+03</rscale>
<asrwt>0</asrwt>
<pdfrwt beam="1">  1        4 0.98917686E-03 0.12498675E+03</pdfrwt>
<pdfrwt beam="2">  1       -4 0.93447416E-01 0.12498675E+03</pdfrwt>
<totfact> 0.48019560E+03</totfact>
</mgrwt>
</event>
<event>
 5    1  0.3217852E-002  0.1249983E+03  0.7818608E-02  0.1235072E+00
          4   -1    0    0  501    0  0.00000000000E+00  0.00000000000E+00  0.24126171152E+03  0.24126505413E+03  0.12700000000E+01 0.  1.
         -4   -1    0    0    0  501 -0.00000000000E+00 -0.00000000000E+00 -0.16162113952E+02  0.16211934721E+02  0.12700000000E+01 0.  1.
         25    2    1    2    0    0  0.00000000000E+00  0.00000000000E+00  0.22509959757E+03  0.25747698886E+03  0.12499828385E+03 0.  0.
    9000005    1    3    3    0    0  0.10425165415E+02  0.74075536522E+01 -0.13447804581E+02  0.18584923274E+02  0.10000000000E+01 0.  0.
    9000005    1    3    3    0    0 -0.10425165415E+02 -0.74075536522E+01  0.23854740215E+03  0.23889206558E+03  0.10000000000E+01 0.  0.
<mgrwt>
<rscale>  0 0.12499828E+03</rscale>
<asrwt>0</asrwt>
<pdfrwt beam="1">  1        4 0.37121275E-01 0.12499828E+03</pdfrwt>
<pdfrwt beam="2">  1       -4 0.24905686E-02 0.12499828E+03</pdfrwt>
<totfact> 0.81264543E+03</totfact>
</mgrwt>
</event>
<event>
 5    1  0.3217852E-002  0.1250008E+03  0.7818608E-02  0.1235068E+00
          4   -1    0    0  501    0  0.00000000000E+00  0.00000000000E+00  0.10644997446E+04  0.10645005022E+04  0.12700000000E+01 0.  1.
         -4   -1    0    0    0  501 -0.00000000000E+00 -0.00000000000E+00 -0.35589486877E+01  0.37787584948E+01  0.12700000000E+01 0.  1.
         25    2    1    2    0    0  0.00000000000E+00  0.00000000000E+00  0.10609407959E+04  0.10682792607E+04  0.12500082547E+03 0.  0.
    9000005    1    3    3    0    0  0.32621070849E+02  0.45831818918E+02  0.29789316376E+03  0.30316006812E+03  0.10000000000E+01 0.  0.
    9000005    1    3    3    0    0 -0.32621070849E+02 -0.45831818918E+02  0.76304763217E+03  0.76511919258E+03  0.10000000000E+01 0.  0.
<mgrwt>
<rscale>  0 0.12500083E+03</rscale>
<asrwt>0</asrwt>
<pdfrwt beam="1">  1        4 0.16378607E+00 0.12500083E+03</pdfrwt>
<pdfrwt beam="2">  1       -4 0.56449758E-03 0.12500083E+03</pdfrwt>
<totfact> 0.28430321E+03</totfact>
</mgrwt>
</event>
<event>
 5    1  0.3217852E-002  0.1250009E+03  0.7818608E-02  0.1235068E+00
          4   -1    0    0  501    0  0.00000000000E+00  0.00000000000E+00  0.76931905707E+02  0.76942387640E+02  0.12700000000E+01 0.  1.
         -4   -1    0    0    0  501 -0.00000000000E+00 -0.00000000000E+00 -0.50754263025E+02  0.50770149844E+02  0.12700000000E+01 0.  1.
         25    2    1    2    0    0  0.00000000000E+00  0.00000000000E+00  0.26177642682E+02  0.12771253748E+03  0.12500089301E+03 0.  0.
    9000005    1    3    3    0    0 -0.40414277004E+01 -0.58552027801E+02 -0.88391173499E+01  0.59361629804E+02  0.10000000000E+01 0.  0.
    9000005    1    3    3    0    0  0.40414277004E+01  0.58552027801E+02  0.35016760032E+02  0.68350907680E+02  0.10000000000E+01 0.  0.
<mgrwt>
<rscale>  0 0.12500089E+03</rscale>
<asrwt>0</asrwt>
<pdfrwt beam="1">  1        4 0.11837706E-01 0.12500089E+03</pdfrwt>
<pdfrwt beam="2">  1       -4 0.78103765E-02 0.12500089E+03</pdfrwt>
<totfact> 0.10393491E+04</totfact>
</mgrwt>
</event>
<event>
 5    1  0.3217852E-002  0.1250019E+03  0.7818608E-02  0.1235066E+00
         -4   -1    0    0    0  501 -0.00000000000E+00  0.00000000000E+00  0.35829599340E+03  0.35829824419E+03  0.12700000000E+01 0.  1.
          4   -1    0    0  501    0  0.00000000000E+00 -0.00000000000E+00 -0.10863346900E+02  0.10937330839E+02  0.12700000000E+01 0.  1.
         25    2    1    2    0    0  0.00000000000E+00  0.00000000000E+00  0.34743264650E+03  0.36923557503E+03  0.12500186403E+03 0.  0.
    9000005    1    3    3    0    0  0.11733777544E+02  0.37802720304E+02  0.30870130195E+02  0.50206494959E+02  0.10000000000E+01 0.  0.
    9000005    1    3    3    0    0 -0.11733777544E+02 -0.37802720304E+02  0.31656251631E+03  0.31902908007E+03  0.10000000000E+01 0.  0.
<mgrwt>
<rscale>  0 0.12500186E+03</rscale>
<asrwt>0</asrwt>
<pdfrwt beam="2">  1        4 0.16771483E-02 0.12500186E+03</pdfrwt>
<pdfrwt beam="1">  1       -4 0.55128327E-01 0.12500186E+03</pdfrwt>
<totfact> 0.67656195E+03</totfact>
</mgrwt>
</event>
<event>
 5    1  0.3217852E-002  0.1249982E+03  0.7818608E-02  0.1235072E+00
         -4   -1    0    0    0  501 -0.00000000000E+00  0.00000000000E+00  0.10575675547E+02  0.10651657772E+02  0.12700000000E+01 0.  1.
          4   -1    0    0  501    0  0.00000000000E+00 -0.00000000000E+00 -0.36795205956E+03  0.36795425128E+03  0.12700000000E+01 0.  1.
         25    2    1    2    0    0  0.00000000000E+00  0.00000000000E+00 -0.35737638401E+03  0.37860590905E+03  0.12499821806E+03 0.  0.
    9000005    1    3    3    0    0 -0.31573184057E+02  0.19442803722E+02 -0.26330183235E+02  0.45488098634E+02  0.10000000000E+01 0.  0.
    9000005    1    3    3    0    0  0.31573184057E+02 -0.19442803722E+02 -0.33104620078E+03  0.33311781041E+03  0.10000000000E+01 0.  0.
<mgrwt>
<rscale>  0 0.12499822E+03</rscale>
<asrwt>0</asrwt>
<pdfrwt beam="2">  1        4 0.56614013E-01 0.12499822E+03</pdfrwt>
<pdfrwt beam="1">  1       -4 0.16330407E-02 0.12499822E+03</pdfrwt>
<totfact> 0.66690737E+03</totfact>
</mgrwt>
</event>
<event>
 5    1  0.3217852E-002  0.1250012E+03  0.7818608E-02  0.1235067E+00
         -4   -1    0    0    0  501 -0.00000000000E+00  0.00000000000E+00  0.50294466318E+02  0.50310498330E+02  0.12700000000E+01 0.  1.
          4   -1    0    0  501    0  0.00000000000E+00 -0.00000000000E+00 -0.77635441136E+02  0.77645828094E+02  0.12700000000E+01 0.  1.
         25    2    1    2    0    0  0.00000000000E+00  0.00000000000E+00 -0.27340974818E+02  0.12795632642E+03  0.12500117027E+03 0.  0.
    9000005    1    3    3    0    0  0.33913869280E+02 -0.52445258021E+02 -0.15882007756E+02  0.64450708210E+02  0.10000000000E+01 0.  0.
    9000005    1    3    3    0    0 -0.33913869280E+02  0.52445258021E+02 -0.11458967062E+02  0.63505618213E+02  0.10000000000E+01 0.  0.
<mgrwt>
<rscale>  0 0.12500117E+03</rscale>
<asrwt>0</asrwt>
<pdfrwt beam="2">  1        4 0.11945946E-01 0.12500117E+03</pdfrwt>
<pdfrwt beam="1">  1       -4 0.77396424E-02 0.12500117E+03</pdfrwt>
<totfact> 0.10388156E+04</totfact>
</mgrwt>
</event>
<event>
 5    1  0.3217852E-002  0.1250037E+03  0.7818608E-02  0.1235063E+00
          4   -1    0    0  501    0  0.00000000000E+00  0.00000000000E+00  0.33852094439E+02  0.33875908813E+02  0.12700000000E+01 0. -1.
         -4   -1    0    0    0  501 -0.00000000000E+00 -0.00000000000E+00 -0.11533068936E+03  0.11533768165E+03  0.12700000000E+01 0. -1.
         25    2    1    2    0    0  0.00000000000E+00  0.00000000000E+00 -0.81478594922E+02  0.14921359046E+03  0.12500373654E+03 0.  0.
    9000005    1    3    3    0    0  0.24032917780E+02  0.65970360249E+01  0.27669536128E+02  0.37251916070E+02  0.10000000000E+01 0.  0.
    9000005    1    3    3    0    0 -0.24032917780E+02 -0.65970360249E+01 -0.10914813105E+03  0.11196167439E+03  0.10000000000E+01 0.  0.
<mgrwt>
<rscale>  0 0.12500374E+03</rscale>
<asrwt>0</asrwt>
<pdfrwt beam="1">  1        4 0.52103843E-02 0.12500374E+03</pdfrwt>
<pdfrwt beam="2">  1       -4 0.17745552E-01 0.12500374E+03</pdfrwt>
<totfact> 0.99452324E+03</totfact>
</mgrwt>
</event>
<event>
 5    1  0.3217852E-002  0.1249974E+03  0.7818608E-02  0.1235073E+00
         -4   -1    0    0    0  501 -0.00000000000E+00  0.00000000000E+00  0.18343161072E+02  0.18387073126E+02  0.12700000000E+01 0. -1.
          4   -1    0    0  501    0  0.00000000000E+00 -0.00000000000E+00 -0.21264478202E+03  0.21264857447E+03  0.12700000000E+01 0. -1.
         25    2    1    2    0    0  0.00000000000E+00  0.00000000000E+00 -0.19430162095E+03  0.23103564759E+03  0.12499740219E+03 0.  0.
    9000005    1    3    3    0    0  0.59131332521E+02 -0.15347521224E+02 -0.12146359080E+03  0.13596493953E+03  0.10000000000E+01 0.  0.
    9000005    1    3    3    0    0 -0.59131332521E+02  0.15347521224E+02 -0.72838030156E+02  0.95070708057E+02  0.10000000000E+01 0.  0.
<mgrwt>
<rscale>  0 0.12499740E+03</rscale>
<asrwt>0</asrwt>
<pdfrwt beam="2">  1        4 0.32718250E-01 0.12499740E+03</pdfrwt>
<pdfrwt beam="1">  1       -4 0.28256945E-02 0.12499740E+03</pdfrwt>
<totfact> 0.85155762E+03</totfact>
</mgrwt>
</event>
<event>
 5    1  0.3217852E-002  0.1249743E+03  0.7818608E-02  0.1235109E+00
         -4   -1    0    0    0  501 -0.00000000000E+00  0.00000000000E+00  0.41309865554E+02  0.41329382915E+02  0.12700000000E+01 0. -1.
          4   -1    0    0  501    0  0.00000000000E+00 -0.00000000000E+00 -0.94474770496E+02  0.94483306251E+02  0.12700000000E+01 0. -1.
         25    2    1    2    0    0  0.00000000000E+00  0.00000000000E+00 -0.53164904941E+02  0.13581268917E+03  0.12497431505E+03 0.  0.
    9000005    1    3    3    0    0 -0.44918082613E+02  0.13754454481E+02 -0.71347412289E+02  0.85429926864E+02  0.10000000000E+01 0.  0.
    9000005    1    3    3    0    0  0.44918082613E+02 -0.13754454481E+02  0.18182507347E+02  0.50382762302E+02  0.10000000000E+01 0.  0.
<mgrwt>
<rscale>  0 0.12497432E+03</rscale>
<asrwt>0</asrwt>
<pdfrwt beam="2">  1        4 0.14536738E-01 0.12497432E+03</pdfrwt>
<pdfrwt beam="1">  1       -4 0.63575219E-02 0.12497432E+03</pdfrwt>
<totfact> 0.10226892E+04</totfact>
</mgrwt>
</event>
<event>
 5    1  0.3217852E-002  0.1249985E+03  0.7818608E-02  0.1235072E+00
          4   -1    0    0  501    0  0.00000000000E+00  0.00000000000E+00  0.53841603194E+01  0.55319148896E+01  0.12700000000E+01 0. -1.
         -4   -1    0    0    0  501 -0.00000000000E+00 -0.00000000000E+00 -0.71552219860E+03  0.71552332568E+03  0.12700000000E+01 0. -1.
         25    2    1    2    0    0  0.00000000000E+00  0.00000000000E+00 -0.71013803828E+03  0.72105524057E+03  0.12499850614E+03 0.  0.
    9000005    1    3    3    0    0  0.12295446380E+02  0.46035426199E+02 -0.58829942037E+03  0.59022677547E+03  0.10000000000E+01 0.  0.
    9000005    1    3    3    0    0 -0.12295446380E+02 -0.46035426199E+02 -0.12183861791E+03  0.13082846510E+03  0.10000000000E+01 0.  0.
<mgrwt>
<rscale>  0 0.12499851E+03</rscale>
<asrwt>0</asrwt>
<pdfrwt beam="1">  1        4 0.83978536E-03 0.12499851E+03</pdfrwt>
<pdfrwt beam="2">  1       -4 0.11009172E+00 0.12499851E+03</pdfrwt>
<totfact> 0.41999649E+03</totfact>
</mgrwt>
</event>
<event>
 5    1  0.3217852E-002  0.1250043E+03  0.7818608E-02  0.1235063E+00
         -4   -1    0    0    0  501 -0.00000000000E+00  0.00000000000E+00  0.76005453410E+02  0.76016063092E+02  0.12700000000E+01 0.  1.
          4   -1    0    0  501    0  0.00000000000E+00 -0.00000000000E+00 -0.51375811999E+02  0.51391506678E+02  0.12700000000E+01 0.  1.
         25    2    1    2    0    0  0.00000000000E+00  0.00000000000E+00  0.24629641410E+02  0.12740756977E+03  0.12500427832E+03 0.  0.
    9000005    1    3    3    0    0 -0.32550288372E+02  0.11957110156E+02 -0.40675344919E+02  0.53460054626E+02  0.10000000000E+01 0.  0.
    9000005    1    3    3    0    0  0.32550288372E+02 -0.11957110156E+02  0.65304986329E+02  0.73947515143E+02  0.10000000000E+01 0.  0.
<mgrwt>
<rscale>  0 0.12500428E+03</rscale>
<asrwt>0</asrwt>
<pdfrwt beam="2">  1        4 0.79059945E-02 0.12500428E+03</pdfrwt>
<pdfrwt beam="1">  1       -4 0.11695170E-01 0.12500428E+03</pdfrwt>
<totfact> 0.10399298E+04</totfact>
</mgrwt>
</event>
<event>
 5    1  0.3217852E-002  0.1250002E+03  0.7818608E-02  0.1235069E+00
          4   -1    0    0  501    0  0.00000000000E+00  0.00000000000E+00  0.45192352937E+02  0.45210194249E+02  0.12700000000E+01 0.  1.
         -4   -1    0    0    0  501 -0.00000000000E+00 -0.00000000000E+00 -0.86396724834E+02  0.86406058596E+02  0.12700000000E+01 0.  1.
         25    2    1    2    0    0  0.00000000000E+00  0.00000000000E+00 -0.41204371897E+02  0.13161625284E+03  0.12500015100E+03 0.  0.
    9000005    1    3    3    0    0  0.57726924265E+02 -0.15075278336E+02 -0.10279704351E+01  0.59680135098E+02  0.10000000000E+01 0.  0.
    9000005    1    3    3    0    0 -0.57726924265E+02  0.15075278336E+02 -0.40176401462E+02  0.71936117747E+02  0.10000000000E+01 0.  0.
<mgrwt>
<rscale>  0 0.12500015E+03</rscale>
<asrwt>0</asrwt>
<pdfrwt beam="1">  1        4 0.69547601E-02 0.12500015E+03</pdfrwt>
<pdfrwt beam="2">  1       -4 0.13293894E-01 0.12500015E+03</pdfrwt>
<totfact> 0.10309861E+04</totfact>
</mgrwt>
</event>
<event>
 5    1  0.3217852E-002  0.1250068E+03  0.7818608E-02  0.1235059E+00
         -4   -1    0    0    0  501 -0.00000000000E+00  0.00000000000E+00  0.13830750196E+03  0.13831333269E+03  0.12700000000E+01 0.  1.
          4   -1    0    0  501    0  0.00000000000E+00 -0.00000000000E+00 -0.28225602319E+02  0.28254159451E+02  0.12700000000E+01 0.  1.
         25    2    1    2    0    0  0.00000000000E+00  0.00000000000E+00  0.11008189964E+03  0.16656749214E+03  0.12500681905E+03 0.  0.
    9000005    1    3    3    0    0  0.43957269366E+02 -0.40766036906E+02  0.78560597425E+02  0.98827520271E+02  0.10000000000E+01 0.  0.
    9000005    1    3    3    0    0 -0.43957269366E+02  0.40766036906E+02  0.31521302218E+02  0.67739971867E+02  0.10000000000E+01 0.  0.
<mgrwt>
<rscale>  0 0.12500682E+03</rscale>
<asrwt>0</asrwt>
<pdfrwt beam="2">  1        4 0.43450457E-02 0.12500682E+03</pdfrwt>
<pdfrwt beam="1">  1       -4 0.21280722E-01 0.12500682E+03</pdfrwt>
<totfact> 0.96076640E+03</totfact>
</mgrwt>
</event>
<event>
 5    1  0.3217852E-002  0.1249991E+03  0.7818608E-02  0.1235071E+00
         -4   -1    0    0    0  501 -0.00000000000E+00  0.00000000000E+00  0.41078007233E+01  0.42996426342E+01  0.12700000000E+01 0. -1.
          4   -1    0    0  501    0  0.00000000000E+00 -0.00000000000E+00 -0.92903037938E+03  0.92903124743E+03  0.12700000000E+01 0. -1.
         25    2    1    2    0    0  0.00000000000E+00  0.00000000000E+00 -0.92492257865E+03  0.93333089007E+03  0.12499909539E+03 0.  0.
    9000005    1    3    3    0    0 -0.33940740061E+02 -0.27822986639E+02 -0.13028949440E+03  0.13748616211E+03  0.10000000000E+01 0.  0.
    9000005    1    3    3    0    0  0.33940740061E+02  0.27822986639E+02 -0.79463308426E+03  0.79584472796E+03  0.10000000000E+01 0.  0.
<mgrwt>
<rscale>  0 0.12499910E+03</rscale>
<asrwt>0</asrwt>
<pdfrwt beam="2">  1        4 0.14294241E+00 0.12499910E+03</pdfrwt>
<pdfrwt beam="1">  1       -4 0.64679392E-03 0.12499910E+03</pdfrwt>
<totfact> 0.32915970E+03</totfact>
</mgrwt>
</event>
<event>
 5    1  0.3217852E-002  0.1249997E+03  0.7818608E-02  0.1235070E+00
         -4   -1    0    0    0  501 -0.00000000000E+00  0.00000000000E+00  0.10783158658E+03  0.10783906511E+03  0.12700000000E+01 0. -1.
          4   -1    0    0  501    0  0.00000000000E+00 -0.00000000000E+00 -0.36205417684E+02  0.36227685127E+02  0.12700000000E+01 0. -1.
         25    2    1    2    0    0  0.00000000000E+00  0.00000000000E+00  0.71626168896E+02  0.14406675024E+03  0.12499968182E+03 0.  0.
    9000005    1    3    3    0    0 -0.35871566043E+02  0.50848166578E+02  0.42426358936E+02  0.75321319872E+02  0.10000000000E+01 0.  0.
    9000005    1    3    3    0    0  0.35871566043E+02 -0.50848166578E+02  0.29199809961E+02  0.68745430368E+02  0.10000000000E+01 0.  0.
<mgrwt>
<rscale>  0 0.12499968E+03</rscale>
<asrwt>0</asrwt>
<pdfrwt beam="2">  1        4 0.55723524E-02 0.12499968E+03</pdfrwt>
<pdfrwt beam="1">  1       -4 0.16591763E-01 0.12499968E+03</pdfrwt>
<totfact> 0.10050056E+04</totfact>
</mgrwt>
</event>
<event>
 5    1  0.3217852E-002  0.1249982E+03  0.7818608E-02  0.1235072E+00
         -4   -1    0    0    0  501 -0.00000000000E+00  0.00000000000E+00  0.43687706285E+02  0.43706161813E+02  0.12700000000E+01 0. -1.
          4   -1    0    0  501    0  0.00000000000E+00 -0.00000000000E+00 -0.89368611762E+02  0.89377635168E+02  0.12700000000E+01 0. -1.
         25    2    1    2    0    0  0.00000000000E+00  0.00000000000E+00 -0.45680905477E+02  0.13308379698E+03  0.12499820756E+03 0.  0.
    9000005    1    3    3    0    0 -0.47183443515E+02  0.13034846595E+02  0.18517526659E+02  0.52345805574E+02  0.10000000000E+01 0.  0.
    9000005    1    3    3    0    0  0.47183443515E+02 -0.13034846595E+02 -0.64198432136E+02  0.80737991407E+02  0.10000000000E+01 0.  0.
<mgrwt>
<rscale>  0 0.12499821E+03</rscale>
<asrwt>0</asrwt>
<pdfrwt beam="2">  1        4 0.13751131E-01 0.12499821E+03</pdfrwt>
<pdfrwt beam="1">  1       -4 0.67232994E-02 0.12499821E+03</pdfrwt>
<totfact> 0.10279035E+04</totfact>
</mgrwt>
</event>
<event>
 5    1  0.3217852E-002  0.1250003E+03  0.7818608E-02  0.1235069E+00
          4   -1    0    0  501    0  0.00000000000E+00  0.00000000000E+00  0.10839121016E+03  0.10839865008E+03  0.12700000000E+01 0. -1.
         -4   -1    0    0    0  501 -0.00000000000E+00 -0.00000000000E+00 -0.36018727574E+02  0.36041110361E+02  0.12700000000E+01 0. -1.
         25    2    1    2    0    0  0.00000000000E+00  0.00000000000E+00  0.72372482588E+02  0.14443976045E+03  0.12500027265E+03 0.  0.
    9000005    1    3    3    0    0  0.31561596477E+01 -0.60651957444E+02  0.19178333565E+02  0.63697957297E+02  0.10000000000E+01 0.  0.
    9000005    1    3    3    0    0 -0.31561596477E+01  0.60651957444E+02  0.53194149022E+02  0.80741803149E+02  0.10000000000E+01 0.  0.
<mgrwt>
<rscale>  0 0.12500027E+03</rscale>
<asrwt>0</asrwt>
<pdfrwt beam="1">  1        4 0.16677865E-01 0.12500027E+03</pdfrwt>
<pdfrwt beam="2">  1       -4 0.55436369E-02 0.12500027E+03</pdfrwt>
<totfact> 0.10042322E+04</totfact>
</mgrwt>
</event>
<event>
 5    1  0.3217852E-002  0.1249974E+03  0.7818608E-02  0.1235073E+00
         -4   -1    0    0    0  501 -0.00000000000E+00  0.00000000000E+00  0.86832518391E+01  0.87756345925E+01  0.12700000000E+01 0. -1.
          4   -1    0    0  501    0  0.00000000000E+00 -0.00000000000E+00 -0.44736778103E+03  0.44736958368E+03  0.12700000000E+01 0. -1.
         25    2    1    2    0    0  0.00000000000E+00  0.00000000000E+00 -0.43868452919E+03  0.45614521827E+03  0.12499737598E+03 0.  0.
    9000005    1    3    3    0    0 -0.43522992819E+02 -0.15996155612E+02 -0.37221696070E+03  0.37509544616E+03  0.10000000000E+01 0.  0.
    9000005    1    3    3    0    0  0.43522992819E+02  0.15996155612E+02 -0.66467568486E+02  0.81049772108E+02  0.10000000000E+01 0.  0.
<mgrwt>
<rscale>  0 0.12499738E+03</rscale>
<asrwt>0</asrwt>
<pdfrwt beam="2">  1        4 0.68833040E-01 0.12499738E+03</pdfrwt>
<pdfrwt beam="1">  1       -4 0.13431303E-02 0.12499738E+03</pdfrwt>
<totfact> 0.59438550E+03</totfact>
</mgrwt>
</event>
<event>
 4    1  0.3217852E-002  0.1250649E+03  0.7818608E-02  0.1234968E+00
         -4   -1    0    0    0  501 -0.00000000000E+00  0.00000000000E+00  0.13013240427E+02  0.13075065063E+02  0.12700000000E+01 0. -1.
          4   -1    0    0  501    0  0.00000000000E+00 -0.00000000000E+00 -0.29971153864E+03  0.29971422938E+03  0.12700000000E+01 0. -1.
    9000005    1    1    2    0    0 -0.61686844602E+01  0.50034978370E+02 -0.50853635309E+02  0.71614551263E+02  0.10000000000E+01 0.  0.
    9000005    1    1    2    0    0  0.61686844602E+01 -0.50034978370E+02 -0.23584466291E+03  0.24117474318E+03  0.10000000000E+01 0.  0.
<mgrwt>
<rscale>  0 0.12506490E+03</rscale>
<asrwt>0</asrwt>
<pdfrwt beam="2">  1        4 0.46114425E-01 0.12506490E+03</pdfrwt>
<pdfrwt beam="1">  1       -4 0.20069999E-02 0.12506490E+03</pdfrwt>
<totfact> 0.73915601E+03</totfact>
</mgrwt>
</event>
<event>
 5    1  0.3217852E-002  0.1249991E+03  0.7818608E-02  0.1235071E+00
         -4   -1    0    0    0  501 -0.00000000000E+00  0.00000000000E+00  0.87819149581E+03  0.87819241411E+03  0.12700000000E+01 0. -1.
          4   -1    0    0  501    0  0.00000000000E+00 -0.00000000000E+00 -0.43564016802E+01  0.45377456516E+01  0.12700000000E+01 0. -1.
         25    2    1    2    0    0  0.00000000000E+00  0.00000000000E+00  0.87383509413E+03  0.88273015977E+03  0.12499905293E+03 0.  0.
    9000005    1    3    3    0    0  0.42210846572E+02  0.44191826726E+02  0.52913347984E+03  0.53265177424E+03  0.10000000000E+01 0.  0.
    9000005    1    3    3    0    0 -0.42210846572E+02 -0.44191826726E+02  0.34470161429E+03  0.35007838553E+03  0.10000000000E+01 0.  0.
<mgrwt>
<rscale>  0 0.12499905E+03</rscale>
<asrwt>0</asrwt>
<pdfrwt beam="2">  1        4 0.68423593E-03 0.12499905E+03</pdfrwt>
<pdfrwt beam="1">  1       -4 0.13512038E+00 0.12499905E+03</pdfrwt>
<totfact> 0.34824821E+03</totfact>
</mgrwt>
</event>
<event>
 5    1  0.3217852E-002  0.1250007E+03  0.7818608E-02  0.1235068E+00
         -4   -1    0    0    0  501 -0.00000000000E+00  0.00000000000E+00  0.42416355622E+02  0.42435364076E+02  0.12700000000E+01 0. -1.
          4   -1    0    0  501    0  0.00000000000E+00 -0.00000000000E+00 -0.92050001597E+02  0.92058762179E+02  0.12700000000E+01 0. -1.
         25    2    1    2    0    0  0.00000000000E+00  0.00000000000E+00 -0.49633645975E+02  0.13449412625E+03  0.12500068474E+03 0.  0.
    9000005    1    3    3    0    0 -0.21344390436E+02  0.58644916449E+02 -0.21333085053E+02  0.65961426199E+02  0.10000000000E+01 0.  0.
    9000005    1    3    3    0    0  0.21344390436E+02 -0.58644916449E+02 -0.28300560922E+02  0.68532700055E+02  0.10000000000E+01 0.  0.
<mgrwt>
<rscale>  0 0.12500068E+03</rscale>
<asrwt>0</asrwt>
<pdfrwt beam="2">  1        4 0.14163675E-01 0.12500068E+03</pdfrwt>
<pdfrwt beam="1">  1       -4 0.65277293E-02 0.12500068E+03</pdfrwt>
<totfact> 0.10248586E+04</totfact>
</mgrwt>
</event>
<event>
 5    1  0.3217852E-002  0.1249994E+03  0.7818608E-02  0.1235070E+00
         -4   -1    0    0    0  501 -0.00000000000E+00  0.00000000000E+00  0.18886501194E+01  0.22759392069E+01  0.12700000000E+01 0. -1.
          4   -1    0    0  501    0  0.00000000000E+00 -0.00000000000E+00 -0.18755296639E+04  0.18755300939E+04  0.12700000000E+01 0. -1.
         25    2    1    2    0    0  0.00000000000E+00  0.00000000000E+00 -0.18736410138E+04  0.18778060331E+04  0.12499939758E+03 0.  0.
    9000005    1    3    3    0    0  0.59977242487E+01  0.60318189120E+02 -0.11651211663E+04  0.11666972996E+04  0.10000000000E+01 0.  0.
    9000005    1    3    3    0    0 -0.59977242487E+01 -0.60318189120E+02 -0.70851984747E+03  0.71110873353E+03  0.10000000000E+01 0.  0.
<mgrwt>
<rscale>  0 0.12499940E+03</rscale>
<asrwt>0</asrwt>
<pdfrwt beam="2">  1        4 0.28857150E+00 0.12499940E+03</pdfrwt>
<pdfrwt beam="1">  1       -4 0.32038760E-03 0.12499940E+03</pdfrwt>
<totfact> 0.11541950E+03</totfact>
</mgrwt>
</event>
<event>
 5    1  0.3217852E-002  0.1250057E+03  0.7818608E-02  0.1235060E+00
          4   -1    0    0  501    0  0.00000000000E+00  0.00000000000E+00  0.87941285805E+02  0.87950455649E+02  0.12700000000E+01 0. -1.
         -4   -1    0    0    0  501 -0.00000000000E+00 -0.00000000000E+00 -0.44402307882E+02  0.44420466513E+02  0.12700000000E+01 0. -1.
         25    2    1    2    0    0  0.00000000000E+00  0.00000000000E+00  0.43538977923E+02  0.13237092216E+03  0.12500567361E+03 0.  0.
    9000005    1    3    3    0    0  0.47789806636E+02 -0.35043941098E+02  0.42779397713E+02  0.73095966337E+02  0.10000000000E+01 0.  0.
    9000005    1    3    3    0    0 -0.47789806636E+02  0.35043941098E+02  0.75958020989E+00  0.59274955826E+02  0.10000000000E+01 0.  0.
<mgrwt>
<rscale>  0 0.12500567E+03</rscale>
<asrwt>0</asrwt>
<pdfrwt beam="1">  1        4 0.13531531E-01 0.12500567E+03</pdfrwt>
<pdfrwt beam="2">  1       -4 0.68332265E-02 0.12500567E+03</pdfrwt>
<totfact> 0.10292470E+04</totfact>
</mgrwt>
</event>
<event>
 5    1  0.3217852E-002  0.1249987E+03  0.7818608E-02  0.1235071E+00
         -4   -1    0    0    0  501 -0.00000000000E+00  0.00000000000E+00  0.30333520500E+03  0.30333786360E+03  0.12700000000E+01 0.  1.
          4   -1    0    0  501    0  0.00000000000E+00 -0.00000000000E+00 -0.12843355867E+02  0.12905994341E+02  0.12700000000E+01 0.  1.
         25    2    1    2    0    0  0.00000000000E+00  0.00000000000E+00  0.29049184913E+03  0.31624385794E+03  0.12499865308E+03 0.  0.
    9000005    1    3    3    0    0  0.62253949652E+02 -0.31403155534E+01  0.15648939014E+03  0.16844982949E+03  0.10000000000E+01 0.  0.
    9000005    1    3    3    0    0 -0.62253949652E+02  0.31403155534E+01  0.13400245899E+03  0.14779402845E+03  0.10000000000E+01 0.  0.
<mgrwt>
<rscale>  0 0.12499865E+03</rscale>
<asrwt>0</asrwt>
<pdfrwt beam="2">  1        4 0.19809238E-02 0.12499865E+03</pdfrwt>
<pdfrwt beam="1">  1       -4 0.46671976E-01 0.12499865E+03</pdfrwt>
<totfact> 0.73607304E+03</totfact>
</mgrwt>
</event>
<event>
 5    1  0.3217852E-002  0.1249989E+03  0.7818608E-02  0.1235071E+00
         -4   -1    0    0    0  501 -0.00000000000E+00  0.00000000000E+00  0.42929879081E+02  0.42948660258E+02  0.12700000000E+01 0. -1.
          4   -1    0    0  501    0  0.00000000000E+00 -0.00000000000E+00 -0.90946648940E+02  0.90955515794E+02  0.12700000000E+01 0. -1.
         25    2    1    2    0    0  0.00000000000E+00  0.00000000000E+00 -0.48016769858E+02  0.13390417605E+03  0.12499887270E+03 0.  0.
    9000005    1    3    3    0    0 -0.47492043449E+02  0.38532840556E+02 -0.37764812433E+02  0.71885012697E+02  0.10000000000E+01 0.  0.
    9000005    1    3    3    0    0  0.47492043449E+02 -0.38532840556E+02 -0.10251957425E+02  0.62019163355E+02  0.10000000000E+01 0.  0.
<mgrwt>
<rscale>  0 0.12499887E+03</rscale>
<asrwt>0</asrwt>
<pdfrwt beam="2">  1        4 0.13993919E-01 0.12499887E+03</pdfrwt>
<pdfrwt beam="1">  1       -4 0.66067236E-02 0.12499887E+03</pdfrwt>
<totfact> 0.10261481E+04</totfact>
</mgrwt>
</event>
<event>
 5    1  0.3217852E-002  0.1250152E+03  0.7818608E-02  0.1235045E+00
          4   -1    0    0  501    0  0.00000000000E+00  0.00000000000E+00  0.52210479830E+01  0.53732896852E+01  0.12700000000E+01 0. -1.
         -4   -1    0    0    0  501 -0.00000000000E+00 -0.00000000000E+00 -0.73744912408E+03  0.73745021764E+03  0.12700000000E+01 0. -1.
         25    2    1    2    0    0  0.00000000000E+00  0.00000000000E+00 -0.73222807609E+03  0.74282350733E+03  0.12501522955E+03 0.  0.
    9000005    1    3    3    0    0 -0.97813516180E+01  0.33010599046E+02 -0.56177188790E+02  0.65895758811E+02  0.10000000000E+01 0.  0.
    9000005    1    3    3    0    0  0.97813516180E+01 -0.33010599046E+02 -0.67605088730E+03  0.67692774852E+03  0.10000000000E+01 0.  0.
<mgrwt>
<rscale>  0 0.12501523E+03</rscale>
<asrwt>0</asrwt>
<pdfrwt beam="1">  1        4 0.81503375E-03 0.12501523E+03</pdfrwt>
<pdfrwt beam="2">  1       -4 0.11346543E+00 0.12501523E+03</pdfrwt>
<totfact> 0.40906164E+03</totfact>
</mgrwt>
</event>
<event>
 5    1  0.3217852E-002  0.1250009E+03  0.7818608E-02  0.1235068E+00
         -4   -1    0    0    0  501 -0.00000000000E+00  0.00000000000E+00  0.41727802897E+01  0.43617651641E+01  0.12700000000E+01 0.  1.
          4   -1    0    0  501    0  0.00000000000E+00 -0.00000000000E+00 -0.91522073180E+03  0.91522161295E+03  0.12700000000E+01 0.  1.
         25    2    1    2    0    0  0.00000000000E+00  0.00000000000E+00 -0.91104795151E+03  0.91958337811E+03  0.12500087743E+03 0.  0.
    9000005    1    3    3    0    0 -0.57248246024E+02  0.72810677176E+01 -0.63191855784E+03  0.63454900470E+03  0.10000000000E+01 0.  0.
    9000005    1    3    3    0    0  0.57248246024E+02 -0.72810677176E+01 -0.27912939366E+03  0.28503437341E+03  0.10000000000E+01 0.  0.
<mgrwt>
<rscale>  0 0.12500088E+03</rscale>
<asrwt>0</asrwt>
<pdfrwt beam="2">  1        4 0.14081764E+00 0.12500088E+03</pdfrwt>
<pdfrwt beam="1">  1       -4 0.65657201E-03 0.12500088E+03</pdfrwt>
<totfact> 0.33420457E+03</totfact>
</mgrwt>
</event>
<event>
 5    1  0.3217852E-002  0.1249974E+03  0.7818608E-02  0.1235073E+00
          4   -1    0    0  501    0  0.00000000000E+00  0.00000000000E+00  0.22372047031E+02  0.22408065253E+02  0.12700000000E+01 0. -1.
         -4   -1    0    0    0  501 -0.00000000000E+00 -0.00000000000E+00 -0.17441796541E+03  0.17442258901E+03  0.12700000000E+01 0. -1.
         25    2    1    2    0    0  0.00000000000E+00  0.00000000000E+00 -0.15204591838E+03  0.19683065426E+03  0.12499738062E+03 0.  0.
    9000005    1    3    3    0    0 -0.30054136191E+02 -0.37503207087E+02 -0.13127530223E+02  0.49830449463E+02  0.10000000000E+01 0.  0.
    9000005    1    3    3    0    0  0.30054136191E+02  0.37503207087E+02 -0.13891838815E+03  0.14700020480E+03  0.10000000000E+01 0.  0.
<mgrwt>
<rscale>  0 0.12499738E+03</rscale>
<asrwt>0</asrwt>
<pdfrwt beam="1">  1        4 0.34449798E-02 0.12499738E+03</pdfrwt>
<pdfrwt beam="2">  1       -4 0.26836659E-01 0.12499738E+03</pdfrwt>
<totfact> 0.90677516E+03</totfact>
</mgrwt>
</event>
<event>
 5    1  0.3217852E-002  0.1249994E+03  0.7818608E-02  0.1235070E+00
         -4   -1    0    0    0  501 -0.00000000000E+00  0.00000000000E+00  0.43367752971E+02  0.43386344600E+02  0.12700000000E+01 0.  1.
          4   -1    0    0  501    0  0.00000000000E+00 -0.00000000000E+00 -0.90029390048E+02  0.90038347233E+02  0.12700000000E+01 0.  1.
         25    2    1    2    0    0  0.00000000000E+00  0.00000000000E+00 -0.46661637077E+02  0.13342469183E+03  0.12499936006E+03 0.  0.
    9000005    1    3    3    0    0  0.24851463358E+02  0.14407432650E+02  0.35908034796E+02  0.45995177024E+02  0.10000000000E+01 0.  0.
    9000005    1    3    3    0    0 -0.24851463358E+02 -0.14407432650E+02 -0.82569671873E+02  0.87429514809E+02  0.10000000000E+01 0.  0.
<mgrwt>
<rscale>  0 0.12499936E+03</rscale>
<asrwt>0</asrwt>
<pdfrwt beam="2">  1        4 0.13852794E-01 0.12499936E+03</pdfrwt>
<pdfrwt beam="1">  1       -4 0.66740812E-02 0.12499936E+03</pdfrwt>
<totfact> 0.10271530E+04</totfact>
</mgrwt>
</event>
<event>
 5    1  0.3217852E-002  0.1250021E+03  0.7818608E-02  0.1235066E+00
         -4   -1    0    0    0  501 -0.00000000000E+00  0.00000000000E+00  0.46863383761E+01  0.48553751014E+01  0.12700000000E+01 0.  1.
          4   -1    0    0  501    0  0.00000000000E+00 -0.00000000000E+00 -0.81863089565E+03  0.81863188077E+03  0.12700000000E+01 0.  1.
         25    2    1    2    0    0  0.00000000000E+00  0.00000000000E+00 -0.81394455727E+03  0.82348725587E+03  0.12500207305E+03 0.  0.
    9000005    1    3    3    0    0  0.61852516198E+02  0.89180901524E+01 -0.40919144075E+03  0.41393707405E+03  0.10000000000E+01 0.  0.
    9000005    1    3    3    0    0 -0.61852516198E+02 -0.89180901524E+01 -0.40475311652E+03  0.40955018182E+03  0.10000000000E+01 0.  0.
<mgrwt>
<rscale>  0 0.12500207E+03</rscale>
<asrwt>0</asrwt>
<pdfrwt beam="2">  1        4 0.12595618E+00 0.12500207E+03</pdfrwt>
<pdfrwt beam="1">  1       -4 0.73405439E-03 0.12500207E+03</pdfrwt>
<totfact> 0.37235799E+03</totfact>
</mgrwt>
</event>
<event>
 5    1  0.3217852E-002  0.1250006E+03  0.7818608E-02  0.1235068E+00
         -4   -1    0    0    0  501 -0.00000000000E+00  0.00000000000E+00  0.27760637266E+03  0.27760927765E+03  0.12700000000E+01 0.  1.
          4   -1    0    0  501    0  0.00000000000E+00 -0.00000000000E+00 -0.14039682428E+02  0.14097006161E+02  0.12700000000E+01 0.  1.
         25    2    1    2    0    0  0.00000000000E+00  0.00000000000E+00  0.26356669023E+03  0.29170628381E+03  0.12500062327E+03 0.  0.
    9000005    1    3    3    0    0  0.15661112655E+02  0.53036905999E+02  0.63862629000E+02  0.84484431882E+02  0.10000000000E+01 0.  0.
    9000005    1    3    3    0    0 -0.15661112655E+02 -0.53036905999E+02  0.19970406123E+03  0.20722185193E+03  0.10000000000E+01 0.  0.
<mgrwt>
<rscale>  0 0.12500062E+03</rscale>
<asrwt>0</asrwt>
<pdfrwt beam="2">  1        4 0.21645846E-02 0.12500062E+03</pdfrwt>
<pdfrwt beam="1">  1       -4 0.42713296E-01 0.12500062E+03</pdfrwt>
<totfact> 0.76650050E+03</totfact>
</mgrwt>
</event>
<event>
 5    1  0.3217852E-002  0.1249925E+03  0.7818608E-02  0.1235081E+00
          4   -1    0    0  501    0  0.00000000000E+00  0.00000000000E+00  0.11106721015E+04  0.11106728276E+04  0.12700000000E+01 0.  1.
         -4   -1    0    0    0  501 -0.00000000000E+00 -0.00000000000E+00 -0.34011794392E+01  0.36305538940E+01  0.12700000000E+01 0.  1.
         25    2    1    2    0    0  0.00000000000E+00  0.00000000000E+00  0.11072709221E+04  0.11143033815E+04  0.12499252437E+03 0.  0.
    9000005    1    3    3    0    0  0.50067945702E+02  0.19184849656E+02  0.26753257438E+03  0.27285442272E+03  0.10000000000E+01 0.  0.
    9000005    1    3    3    0    0 -0.50067945702E+02 -0.19184849656E+02  0.83973834770E+03  0.84144895878E+03  0.10000000000E+01 0.  0.
<mgrwt>
<rscale>  0 0.12499252E+03</rscale>
<asrwt>0</asrwt>
<pdfrwt beam="1">  1        4 0.17089044E+00 0.12499252E+03</pdfrwt>
<pdfrwt beam="2">  1       -4 0.54095807E-03 0.12499252E+03</pdfrwt>
<totfact> 0.27072898E+03</totfact>
</mgrwt>
</event>
<event>
 5    1  0.3217852E-002  0.1250003E+03  0.7818608E-02  0.1235069E+00
          4   -1    0    0  501    0  0.00000000000E+00  0.00000000000E+00  0.49348506776E+01  0.50956502244E+01  0.12700000000E+01 0. -1.
         -4   -1    0    0    0  501 -0.00000000000E+00 -0.00000000000E+00 -0.77871620762E+03  0.77871724324E+03  0.12700000000E+01 0. -1.
         25    2    1    2    0    0  0.00000000000E+00  0.00000000000E+00 -0.77378135694E+03  0.78381289346E+03  0.12500025440E+03 0.  0.
    9000005    1    3    3    0    0  0.17481716095E+02  0.40482565390E+02 -0.66455500250E+03  0.66601711678E+03  0.10000000000E+01 0.  0.
    9000005    1    3    3    0    0 -0.17481716095E+02 -0.40482565390E+02 -0.10922635445E+03  0.11779577668E+03  0.10000000000E+01 0.  0.
<mgrwt>
<rscale>  0 0.12500025E+03</rscale>
<asrwt>0</asrwt>
<pdfrwt beam="1">  1        4 0.77165728E-03 0.12500025E+03</pdfrwt>
<pdfrwt beam="2">  1       -4 0.11981485E+00 0.12500025E+03</pdfrwt>
<totfact> 0.38997468E+03</totfact>
</mgrwt>
</event>
<event>
 5    1  0.3217852E-002  0.1250039E+03  0.7818608E-02  0.1235063E+00
         -4   -1    0    0    0  501 -0.00000000000E+00  0.00000000000E+00  0.99524538026E+01  0.10033156866E+02  0.12700000000E+01 0. -1.
          4   -1    0    0  501    0  0.00000000000E+00 -0.00000000000E+00 -0.39084864048E+03  0.39085070380E+03  0.12700000000E+01 0. -1.
         25    2    1    2    0    0  0.00000000000E+00  0.00000000000E+00 -0.38089618667E+03  0.40088386067E+03  0.12500385882E+03 0.  0.
    9000005    1    3    3    0    0 -0.17753576555E+01  0.26937888280E+02 -0.37119985282E+03  0.37218158532E+03  0.10000000000E+01 0.  0.
    9000005    1    3    3    0    0  0.17753576555E+01 -0.26937888280E+02 -0.96963338550E+01  0.28702275346E+02  0.10000000000E+01 0.  0.
<mgrwt>
<rscale>  0 0.12500386E+03</rscale>
<asrwt>0</asrwt>
<pdfrwt beam="2">  1        4 0.60136915E-01 0.12500386E+03</pdfrwt>
<pdfrwt beam="1">  1       -4 0.15375137E-02 0.12500386E+03</pdfrwt>
<totfact> 0.64461431E+03</totfact>
</mgrwt>
</event>
<event>
 5    1  0.3217852E-002  0.1250016E+03  0.7818608E-02  0.1235067E+00
         -4   -1    0    0    0  501 -0.00000000000E+00  0.00000000000E+00  0.40098978932E+02  0.40119085375E+02  0.12700000000E+01 0. -1.
          4   -1    0    0  501    0  0.00000000000E+00 -0.00000000000E+00 -0.97368996440E+02  0.97377278499E+02  0.12700000000E+01 0. -1.
         25    2    1    2    0    0  0.00000000000E+00  0.00000000000E+00 -0.57270017509E+02  0.13749636387E+03  0.12500158068E+03 0.  0.
    9000005    1    3    3    0    0  0.36175916677E+02 -0.34880869489E+02 -0.69496254169E+02  0.85767717395E+02  0.10000000000E+01 0.  0.
    9000005    1    3    3    0    0 -0.36175916677E+02  0.34880869489E+02  0.12226236660E+02  0.51728646479E+02  0.10000000000E+01 0.  0.
<mgrwt>
<rscale>  0 0.12500158E+03</rscale>
<asrwt>0</asrwt>
<pdfrwt beam="2">  1        4 0.14982029E-01 0.12500158E+03</pdfrwt>
<pdfrwt beam="1">  1       -4 0.61712574E-02 0.12500158E+03</pdfrwt>
<totfact> 0.10185355E+04</totfact>
</mgrwt>
</event>
<event>
 5    1  0.3217852E-002  0.1250029E+03  0.7818608E-02  0.1235065E+00
         -4   -1    0    0    0  501 -0.00000000000E+00  0.00000000000E+00  0.14064255237E+02  0.14121479221E+02  0.12700000000E+01 0.  1.
          4   -1    0    0  501    0  0.00000000000E+00 -0.00000000000E+00 -0.27713355052E+03  0.27713646047E+03  0.12700000000E+01 0.  1.
         25    2    1    2    0    0  0.00000000000E+00  0.00000000000E+00 -0.26306929528E+03  0.29125793969E+03  0.12500293322E+03 0.  0.
    9000005    1    3    3    0    0  0.24210081656E+02 -0.50246561632E+02 -0.19721396908E+03  0.20495168848E+03  0.10000000000E+01 0.  0.
    9000005    1    3    3    0    0 -0.24210081656E+02  0.50246561632E+02 -0.65855326197E+02  0.86306251211E+02  0.10000000000E+01 0.  0.
<mgrwt>
<rscale>  0 0.12500293E+03</rscale>
<asrwt>0</asrwt>
<pdfrwt beam="2">  1        4 0.42640552E-01 0.12500293E+03</pdfrwt>
<pdfrwt beam="1">  1       -4 0.21683575E-02 0.12500293E+03</pdfrwt>
<totfact> 0.76703681E+03</totfact>
</mgrwt>
</event>
<event>
 5    1  0.3217852E-002  0.1249934E+03  0.7818608E-02  0.1235080E+00
         -4   -1    0    0    0  501 -0.00000000000E+00  0.00000000000E+00  0.21984933517E+02  0.22021584905E+02  0.12700000000E+01 0.  1.
          4   -1    0    0  501    0  0.00000000000E+00 -0.00000000000E+00 -0.17747278186E+03  0.17747732588E+03  0.12700000000E+01 0.  1.
         25    2    1    2    0    0  0.00000000000E+00  0.00000000000E+00 -0.15548784834E+03  0.19949891078E+03  0.12499337751E+03 0.  0.
    9000005    1    3    3    0    0  0.39404421083E+02 -0.11200299925E+02 -0.15305910544E+03  0.15844950261E+03  0.10000000000E+01 0.  0.
    9000005    1    3    3    0    0 -0.39404421083E+02  0.11200299925E+02 -0.24287429036E+01  0.41049408174E+02  0.10000000000E+01 0.  0.
<mgrwt>
<rscale>  0 0.12499338E+03</rscale>
<asrwt>0</asrwt>
<pdfrwt beam="2">  1        4 0.27306673E-01 0.12499338E+03</pdfrwt>
<pdfrwt beam="1">  1       -4 0.33854665E-02 0.12499338E+03</pdfrwt>
<totfact> 0.90233460E+03</totfact>
</mgrwt>
</event>
<event>
 5    1  0.3217852E-002  0.1250001E+03  0.7818608E-02  0.1235069E+00
         -4   -1    0    0    0  501 -0.00000000000E+00  0.00000000000E+00  0.75251715868E+02  0.75262431804E+02  0.12700000000E+01 0.  1.
          4   -1    0    0  501    0  0.00000000000E+00 -0.00000000000E+00 -0.51887014725E+02  0.51902554822E+02  0.12700000000E+01 0.  1.
         25    2    1    2    0    0  0.00000000000E+00  0.00000000000E+00  0.23364701143E+02  0.12716498663E+03  0.12500009826E+03 0.  0.
    9000005    1    3    3    0    0  0.29803941465E+02  0.28071409257E+01  0.67487669002E+02  0.73835902069E+02  0.10000000000E+01 0.  0.
    9000005    1    3    3    0    0 -0.29803941465E+02 -0.28071409257E+01 -0.44122967859E+02  0.53329084557E+02  0.10000000000E+01 0.  0.
<mgrwt>
<rscale>  0 0.12500010E+03</rscale>
<asrwt>0</asrwt>
<pdfrwt beam="2">  1        4 0.79846373E-02 0.12500010E+03</pdfrwt>
<pdfrwt beam="1">  1       -4 0.11579207E-01 0.12500010E+03</pdfrwt>
<totfact> 0.10405540E+04</totfact>
</mgrwt>
</event>
<event>
 5    1  0.3217852E-002  0.1249590E+03  0.7818608E-02  0.1235133E+00
         -4   -1    0    0    0  501 -0.00000000000E+00  0.00000000000E+00  0.11721933096E+02  0.11790530756E+02  0.12700000000E+01 0. -1.
          4   -1    0    0  501    0  0.00000000000E+00 -0.00000000000E+00 -0.33198258847E+03  0.33198501766E+03  0.12700000000E+01 0. -1.
         25    2    1    2    0    0  0.00000000000E+00  0.00000000000E+00 -0.32026065538E+03  0.34377554841E+03  0.12495895448E+03 0.  0.
    9000005    1    3    3    0    0  0.54366472198E+02  0.24938214660E+02 -0.11052966107E+03  0.12567988632E+03  0.10000000000E+01 0.  0.
    9000005    1    3    3    0    0 -0.54366472198E+02 -0.24938214660E+02 -0.20973099431E+03  0.21809566209E+03  0.10000000000E+01 0.  0.
<mgrwt>
<rscale>  0 0.12495895E+03</rscale>
<asrwt>0</asrwt>
<pdfrwt beam="2">  1        4 0.51079701E-01 0.12495895E+03</pdfrwt>
<pdfrwt beam="1">  1       -4 0.18088382E-02 0.12495895E+03</pdfrwt>
<totfact> 0.70478817E+03</totfact>
</mgrwt>
</event>
<event>
 5    1  0.3217852E-002  0.1250031E+03  0.7818608E-02  0.1235064E+00
         -4   -1    0    0    0  501 -0.00000000000E+00  0.00000000000E+00  0.50506583823E+01  0.52078834564E+01  0.12700000000E+01 0.  1.
          4   -1    0    0  501    0  0.00000000000E+00 -0.00000000000E+00 -0.76144015386E+03  0.76144121297E+03  0.12700000000E+01 0.  1.
         25    2    1    2    0    0  0.00000000000E+00  0.00000000000E+00 -0.75638949548E+03  0.76664909643E+03  0.12500307270E+03 0.  0.
    9000005    1    3    3    0    0 -0.28224703720E+02 -0.50067328745E+02 -0.22770749991E+03  0.23485118016E+03  0.10000000000E+01 0.  0.
    9000005    1    3    3    0    0  0.28224703720E+02  0.50067328745E+02 -0.52868199557E+03  0.53179791627E+03  0.10000000000E+01 0.  0.
<mgrwt>
<rscale>  0 0.12500307E+03</rscale>
<asrwt>0</asrwt>
<pdfrwt beam="2">  1        4 0.11715673E+00 0.12500307E+03</pdfrwt>
<pdfrwt beam="1">  1       -4 0.78920068E-03 0.12500307E+03</pdfrwt>
<totfact> 0.39787541E+03</totfact>
</mgrwt>
</event>
<event>
 5    1  0.3217852E-002  0.1249932E+03  0.7818608E-02  0.1235080E+00
         -4   -1    0    0    0  501 -0.00000000000E+00  0.00000000000E+00  0.22879220968E+03  0.22879573446E+03  0.12700000000E+01 0.  1.
          4   -1    0    0  501    0  0.00000000000E+00 -0.00000000000E+00 -0.17044209007E+02  0.17091458706E+02  0.12700000000E+01 0.  1.
         25    2    1    2    0    0  0.00000000000E+00  0.00000000000E+00  0.21174800067E+03  0.24588719317E+03  0.12499318372E+03 0.  0.
    9000005    1    3    3    0    0 -0.57750117941E+02  0.23861732597E+02  0.10706345109E+03  0.12396790296E+03  0.10000000000E+01 0.  0.
    9000005    1    3    3    0    0  0.57750117941E+02 -0.23861732597E+02  0.10468454958E+03  0.12191929021E+03  0.10000000000E+01 0.  0.
<mgrwt>
<rscale>  0 0.12499318E+03</rscale>
<asrwt>0</asrwt>
<pdfrwt beam="2">  1        4 0.26260919E-02 0.12499318E+03</pdfrwt>
<pdfrwt beam="1">  1       -4 0.35202705E-01 0.12499318E+03</pdfrwt>
<totfact> 0.82940912E+03</totfact>
</mgrwt>
</event>
<event>
 5    1  0.3217852E-002  0.1249989E+03  0.7818608E-02  0.1235071E+00
          4   -1    0    0  501    0  0.00000000000E+00  0.00000000000E+00  0.21270082129E+03  0.21270461274E+03  0.12700000000E+01 0.  1.
         -4   -1    0    0    0  501 -0.00000000000E+00 -0.00000000000E+00 -0.18338763441E+02  0.18382685999E+02  0.12700000000E+01 0.  1.
         25    2    1    2    0    0  0.00000000000E+00  0.00000000000E+00  0.19436205785E+03  0.23108729874E+03  0.12499892041E+03 0.  0.
    9000005    1    3    3    0    0  0.23420565880E+02  0.56796873494E+02  0.76039722801E+02  0.97762197134E+02  0.10000000000E+01 0.  0.
    9000005    1    3    3    0    0 -0.23420565880E+02 -0.56796873494E+02  0.11832233505E+03  0.13332510160E+03  0.10000000000E+01 0.  0.
<mgrwt>
<rscale>  0 0.12499892E+03</rscale>
<asrwt>0</asrwt>
<pdfrwt beam="1">  1        4 0.32726873E-01 0.12499892E+03</pdfrwt>
<pdfrwt beam="2">  1       -4 0.28250186E-02 0.12499892E+03</pdfrwt>
<totfact> 0.85144971E+03</totfact>
</mgrwt>
</event>
<event>
 5    1  0.3217852E-002  0.1249984E+03  0.7818608E-02  0.1235072E+00
         -4   -1    0    0    0  501 -0.00000000000E+00  0.00000000000E+00  0.15383310207E+02  0.15435644883E+02  0.12700000000E+01 0.  1.
          4   -1    0    0  501    0  0.00000000000E+00 -0.00000000000E+00 -0.25343623950E+03  0.25343942155E+03  0.12700000000E+01 0.  1.
         25    2    1    2    0    0  0.00000000000E+00  0.00000000000E+00 -0.23805292930E+03  0.26887506643E+03  0.12499841679E+03 0.  0.
    9000005    1    3    3    0    0  0.43213953187E+02  0.20856475655E+02 -0.20514048407E+03  0.21067998608E+03  0.10000000000E+01 0.  0.
    9000005    1    3    3    0    0 -0.43213953187E+02 -0.20856475655E+02 -0.32912445222E+02  0.58195080353E+02  0.10000000000E+01 0.  0.
<mgrwt>
<rscale>  0 0.12499842E+03</rscale>
<asrwt>0</asrwt>
<pdfrwt beam="2">  1        4 0.38994458E-01 0.12499842E+03</pdfrwt>
<pdfrwt beam="1">  1       -4 0.23709338E-02 0.12499842E+03</pdfrwt>
<totfact> 0.79679289E+03</totfact>
</mgrwt>
</event>
<event>
 5    1  0.3217852E-002  0.1250011E+03  0.7818608E-02  0.1235068E+00
         -4   -1    0    0    0  501 -0.00000000000E+00  0.00000000000E+00  0.34622429581E+03  0.34622662507E+03  0.12700000000E+01 0. -1.
          4   -1    0    0  501    0  0.00000000000E+00 -0.00000000000E+00 -0.11244514968E+02  0.11316007108E+02  0.12700000000E+01 0. -1.
         25    2    1    2    0    0  0.00000000000E+00  0.00000000000E+00  0.33497978084E+03  0.35754263218E+03  0.12500112101E+03 0.  0.
    9000005    1    3    3    0    0 -0.23160160071E+01 -0.22743311769E+02  0.33384859595E+03  0.33463189802E+03  0.10000000000E+01 0.  0.
    9000005    1    3    3    0    0  0.23160160071E+01  0.22743311769E+02  0.11311848975E+01  0.22910734158E+02  0.10000000000E+01 0.  0.
<mgrwt>
<rscale>  0 0.12500112E+03</rscale>
<asrwt>0</asrwt>
<pdfrwt beam="2">  1        4 0.17356041E-02 0.12500112E+03</pdfrwt>
<pdfrwt beam="1">  1       -4 0.53270951E-01 0.12500112E+03</pdfrwt>
<totfact> 0.68900960E+03</totfact>
</mgrwt>
</event>
<event>
 5    1  0.3217852E-002  0.1250021E+03  0.7818608E-02  0.1235066E+00
          4   -1    0    0  501    0  0.00000000000E+00  0.00000000000E+00  0.24662899180E+03  0.24663226167E+03  0.12700000000E+01 0. -1.
         -4   -1    0    0    0  501 -0.00000000000E+00 -0.00000000000E+00 -0.15810260374E+02  0.15861186371E+02  0.12700000000E+01 0. -1.
         25    2    1    2    0    0  0.00000000000E+00  0.00000000000E+00  0.23081873143E+03  0.26249344804E+03  0.12500209393E+03 0.  0.
    9000005    1    3    3    0    0  0.43248675221E+02 -0.35690594808E+02  0.17334238333E+03  0.18218904557E+03  0.10000000000E+01 0.  0.
    9000005    1    3    3    0    0 -0.43248675221E+02  0.35690594808E+02  0.57476348093E+02  0.80304402471E+02  0.10000000000E+01 0.  0.
<mgrwt>
<rscale>  0 0.12500209E+03</rscale>
<asrwt>0</asrwt>
<pdfrwt beam="1">  1        4 0.37947089E-01 0.12500209E+03</pdfrwt>
<pdfrwt beam="2">  1       -4 0.24365168E-02 0.12500209E+03</pdfrwt>
<totfact> 0.80553655E+03</totfact>
</mgrwt>
</event>
<event>
 5    1  0.3217852E-002  0.1250007E+03  0.7818608E-02  0.1235068E+00
          4   -1    0    0  501    0  0.00000000000E+00  0.00000000000E+00  0.15727103446E+03  0.15727616214E+03  0.12700000000E+01 0. -1.
         -4   -1    0    0    0  501 -0.00000000000E+00 -0.00000000000E+00 -0.24816210761E+02  0.24848686415E+02  0.12700000000E+01 0. -1.
         25    2    1    2    0    0  0.00000000000E+00  0.00000000000E+00  0.13245482369E+03  0.18212484856E+03  0.12500072057E+03 0.  0.
    9000005    1    3    3    0    0 -0.53913483782E+02 -0.19852016304E+02  0.30404146719E+02  0.65009064157E+02  0.10000000000E+01 0.  0.
    9000005    1    3    3    0    0  0.53913483782E+02  0.19852016304E+02  0.10205067698E+03  0.11711578440E+03  0.10000000000E+01 0.  0.
<mgrwt>
<rscale>  0 0.12500072E+03</rscale>
<asrwt>0</asrwt>
<pdfrwt beam="1">  1        4 0.24198436E-01 0.12500072E+03</pdfrwt>
<pdfrwt beam="2">  1       -4 0.38207712E-02 0.12500072E+03</pdfrwt>
<totfact> 0.93234410E+03</totfact>
</mgrwt>
</event>
<event>
 5    1  0.3217852E-002  0.1250010E+03  0.7818608E-02  0.1235068E+00
         -4   -1    0    0    0  501 -0.00000000000E+00  0.00000000000E+00  0.71862956906E+02  0.71874178084E+02  0.12700000000E+01 0. -1.
          4   -1    0    0  501    0  0.00000000000E+00 -0.00000000000E+00 -0.54334910070E+02  0.54349750251E+02  0.12700000000E+01 0. -1.
         25    2    1    2    0    0  0.00000000000E+00  0.00000000000E+00  0.17528046836E+02  0.12622392833E+03  0.12500099063E+03 0.  0.
    9000005    1    3    3    0    0 -0.74265777613E+01 -0.38914685306E+02 -0.40038978966E+02  0.56334950310E+02  0.10000000000E+01 0.  0.
    9000005    1    3    3    0    0  0.74265777613E+01  0.38914685306E+02  0.57567025802E+02  0.69888978025E+02  0.10000000000E+01 0.  0.
<mgrwt>
<rscale>  0 0.12500099E+03</rscale>
<asrwt>0</asrwt>
<pdfrwt beam="2">  1        4 0.83612218E-02 0.12500099E+03</pdfrwt>
<pdfrwt beam="1">  1       -4 0.11057844E-01 0.12500099E+03</pdfrwt>
<totfact> 0.10425823E+04</totfact>
</mgrwt>
</event>
<event>
 5    1  0.3217852E-002  0.1249974E+03  0.7818608E-02  0.1235073E+00
          4   -1    0    0  501    0  0.00000000000E+00  0.00000000000E+00  0.26204871342E+03  0.26205179088E+03  0.12700000000E+01 0. -1.
         -4   -1    0    0    0  501 -0.00000000000E+00 -0.00000000000E+00 -0.14875747535E+02  0.14929861510E+02  0.12700000000E+01 0. -1.
         25    2    1    2    0    0  0.00000000000E+00  0.00000000000E+00  0.24717296588E+03  0.27698165239E+03  0.12499744277E+03 0.  0.
    9000005    1    3    3    0    0 -0.42601485863E+01 -0.60797725185E+01 -0.13906007708E+02  0.15795238214E+02  0.10000000000E+01 0.  0.
    9000005    1    3    3    0    0  0.42601485863E+01  0.60797725185E+01  0.26107897359E+03  0.26118641418E+03  0.10000000000E+01 0.  0.
<mgrwt>
<rscale>  0 0.12499744E+03</rscale>
<asrwt>0</asrwt>
<pdfrwt beam="1">  1        4 0.40319585E-01 0.12499744E+03</pdfrwt>
<pdfrwt beam="2">  1       -4 0.22929759E-02 0.12499744E+03</pdfrwt>
<totfact> 0.78584493E+03</totfact>
</mgrwt>
</event>
<event>
 5    1  0.3217852E-002  0.1249992E+03  0.7818608E-02  0.1235070E+00
         -4   -1    0    0    0  501 -0.00000000000E+00  0.00000000000E+00  0.15491322673E+02  0.15543293672E+02  0.12700000000E+01 0.  1.
          4   -1    0    0  501    0  0.00000000000E+00 -0.00000000000E+00 -0.25167831094E+03  0.25168151521E+03  0.12700000000E+01 0.  1.
         25    2    1    2    0    0  0.00000000000E+00  0.00000000000E+00 -0.23618698827E+03  0.26722480888E+03  0.12499922022E+03 0.  0.
    9000005    1    3    3    0    0  0.48206528596E+01 -0.58811122493E+02 -0.74114052581E+02  0.94741118913E+02  0.10000000000E+01 0.  0.
    9000005    1    3    3    0    0 -0.48206528596E+01  0.58811122493E+02 -0.16207293569E+03  0.17248368997E+03  0.10000000000E+01 0.  0.
<mgrwt>
<rscale>  0 0.12499922E+03</rscale>
<asrwt>0</asrwt>
<pdfrwt beam="2">  1        4 0.38723982E-01 0.12499922E+03</pdfrwt>
<pdfrwt beam="1">  1       -4 0.23875248E-02 0.12499922E+03</pdfrwt>
<totfact> 0.79904120E+03</totfact>
</mgrwt>
</event>
<event>
 5    1  0.3217852E-002  0.1249999E+03  0.7818608E-02  0.1235069E+00
          4   -1    0    0  501    0  0.00000000000E+00  0.00000000000E+00  0.23081906553E+03  0.23082255937E+03  0.12700000000E+01 0. -1.
         -4   -1    0    0    0  501 -0.00000000000E+00 -0.00000000000E+00 -0.16895956586E+02  0.16943619712E+02  0.12700000000E+01 0. -1.
         25    2    1    2    0    0  0.00000000000E+00  0.00000000000E+00  0.21392310894E+03  0.24776617908E+03  0.12499993182E+03 0.  0.
    9000005    1    3    3    0    0  0.27349455663E+02 -0.67454044010E+00  0.21832832970E+03  0.22003796781E+03  0.10000000000E+01 0.  0.
    9000005    1    3    3    0    0 -0.27349455663E+02  0.67454044010E+00 -0.44052207577E+01  0.27728211262E+02  0.10000000000E+01 0.  0.
<mgrwt>
<rscale>  0 0.12499993E+03</rscale>
<asrwt>0</asrwt>
<pdfrwt beam="1">  1        4 0.35514562E-01 0.12499993E+03</pdfrwt>
<pdfrwt beam="2">  1       -4 0.26033130E-02 0.12499993E+03</pdfrwt>
<totfact> 0.82654283E+03</totfact>
</mgrwt>
</event>
<event>
 5    1  0.3217852E-002  0.1249979E+03  0.7818608E-02  0.1235073E+00
         -4   -1    0    0    0  501 -0.00000000000E+00  0.00000000000E+00  0.89252414964E+03  0.89252505320E+03  0.12700000000E+01 0. -1.
          4   -1    0    0  501    0  0.00000000000E+00 -0.00000000000E+00 -0.42834259256E+01  0.44677329441E+01  0.12700000000E+01 0. -1.
         25    2    1    2    0    0  0.00000000000E+00  0.00000000000E+00  0.88824072371E+03  0.89699278614E+03  0.12499790051E+03 0.  0.
    9000005    1    3    3    0    0  0.42081032307E+02 -0.44275269230E+02  0.34945994989E+03  0.35475959370E+03  0.10000000000E+01 0.  0.
    9000005    1    3    3    0    0 -0.42081032307E+02  0.44275269230E+02  0.53878077382E+03  0.54223319244E+03  0.10000000000E+01 0.  0.
<mgrwt>
<rscale>  0 0.12499790E+03</rscale>
<asrwt>0</asrwt>
<pdfrwt beam="2">  1        4 0.67323572E-03 0.12499790E+03</pdfrwt>
<pdfrwt beam="1">  1       -4 0.13732563E+00 0.12499790E+03</pdfrwt>
<totfact> 0.34276904E+03</totfact>
</mgrwt>
</event>
<event>
 5    1  0.3217852E-002  0.1249660E+03  0.7818608E-02  0.1235122E+00
          4   -1    0    0  501    0  0.00000000000E+00  0.00000000000E+00  0.32065519188E+03  0.32065770688E+03  0.12700000000E+01 0.  1.
         -4   -1    0    0    0  501 -0.00000000000E+00 -0.00000000000E+00 -0.12139777732E+02  0.12206027339E+02  0.12700000000E+01 0.  1.
         25    2    1    2    0    0  0.00000000000E+00  0.00000000000E+00  0.30851541415E+03  0.33286373422E+03  0.12496601454E+03 0.  0.
    9000005    1    3    3    0    0 -0.17697605743E+02  0.33675913338E+02  0.22257133899E+02  0.44086873302E+02  0.10000000000E+01 0.  0.
    9000005    1    3    3    0    0  0.17697605743E+02 -0.33675913338E+02  0.28625828025E+03  0.28877686092E+03  0.10000000000E+01 0.  0.
<mgrwt>
<rscale>  0 0.12496601E+03</rscale>
<asrwt>0</asrwt>
<pdfrwt beam="1">  1        4 0.49336862E-01 0.12496601E+03</pdfrwt>
<pdfrwt beam="2">  1       -4 0.18729475E-02 0.12496601E+03</pdfrwt>
<totfact> 0.71705792E+03</totfact>
</mgrwt>
</event>
<event>
 5    1  0.3217852E-002  0.1249577E+03  0.7818608E-02  0.1235135E+00
         -4   -1    0    0    0  501 -0.00000000000E+00  0.00000000000E+00  0.49701742809E+03  0.49701905067E+03  0.12700000000E+01 0. -1.
          4   -1    0    0  501    0  0.00000000000E+00 -0.00000000000E+00 -0.78010829323E+01  0.79037835824E+01  0.12700000000E+01 0. -1.
         25    2    1    2    0    0  0.00000000000E+00  0.00000000000E+00  0.48921634516E+03  0.50492283425E+03  0.12495773756E+03 0.  0.
    9000005    1    3    3    0    0  0.22758841856E+02  0.46942136713E+01  0.47892312993E+03  0.47948760663E+03  0.10000000000E+01 0.  0.
    9000005    1    3    3    0    0 -0.22758841856E+02 -0.46942136713E+01  0.10293215229E+02  0.25435227625E+02  0.10000000000E+01 0.  0.
<mgrwt>
<rscale>  0 0.12495774E+03</rscale>
<asrwt>0</asrwt>
<pdfrwt beam="2">  1        4 0.12081915E-02 0.12495774E+03</pdfrwt>
<pdfrwt beam="1">  1       -4 0.76472243E-01 0.12495774E+03</pdfrwt>
<totfact> 0.55536012E+03</totfact>
</mgrwt>
</event>
<event>
 5    1  0.3217852E-002  0.1250091E+03  0.7818608E-02  0.1235055E+00
         -4   -1    0    0    0  501 -0.00000000000E+00  0.00000000000E+00  0.48202036392E+02  0.48218764110E+02  0.12700000000E+01 0.  1.
          4   -1    0    0  501    0  0.00000000000E+00 -0.00000000000E+00 -0.81015132862E+02  0.81025086564E+02  0.12700000000E+01 0.  1.
         25    2    1    2    0    0  0.00000000000E+00  0.00000000000E+00 -0.32813096470E+02  0.12924385067E+03  0.12500909422E+03 0.  0.
    9000005    1    3    3    0    0  0.42140781979E+02  0.93279023428E+01 -0.63136845755E+02  0.76486054675E+02  0.10000000000E+01 0.  0.
    9000005    1    3    3    0    0 -0.42140781979E+02 -0.93279023428E+01  0.30323749285E+02  0.52757795998E+02  0.10000000000E+01 0.  0.
<mgrwt>
<rscale>  0 0.12500909E+03</rscale>
<asrwt>0</asrwt>
<pdfrwt beam="2">  1        4 0.12465919E-01 0.12500909E+03</pdfrwt>
<pdfrwt beam="1">  1       -4 0.74177503E-02 0.12500909E+03</pdfrwt>
<totfact> 0.10358583E+04</totfact>
</mgrwt>
</event>
<event>
 5    1  0.3217852E-002  0.1249889E+03  0.7818608E-02  0.1235087E+00
         -4   -1    0    0    0  501 -0.00000000000E+00  0.00000000000E+00  0.35996946314E+03  0.35997170346E+03  0.12700000000E+01 0.  1.
          4   -1    0    0  501    0  0.00000000000E+00 -0.00000000000E+00 -0.10810248228E+02  0.10884593091E+02  0.12700000000E+01 0.  1.
         25    2    1    2    0    0  0.00000000000E+00  0.00000000000E+00  0.34915921491E+03  0.37085629655E+03  0.12498894085E+03 0.  0.
    9000005    1    3    3    0    0 -0.62121575174E+02  0.66048356372E+01  0.17054948847E+03  0.18163381286E+03  0.10000000000E+01 0.  0.
    9000005    1    3    3    0    0  0.62121575174E+02 -0.66048356372E+01  0.17860972644E+03  0.18922248369E+03  0.10000000000E+01 0.  0.
<mgrwt>
<rscale>  0 0.12498894E+03</rscale>
<asrwt>0</asrwt>
<pdfrwt beam="2">  1        4 0.16690066E-02 0.12498894E+03</pdfrwt>
<pdfrwt beam="1">  1       -4 0.55385798E-01 0.12498894E+03</pdfrwt>
<totfact> 0.67505955E+03</totfact>
</mgrwt>
</event>
<event>
 5    1  0.3217852E-002  0.1250003E+03  0.7818608E-02  0.1235069E+00
         -4   -1    0    0    0  501 -0.00000000000E+00  0.00000000000E+00  0.57949889236E+03  0.57950028399E+03  0.12700000000E+01 0. -1.
          4   -1    0    0  501    0  0.00000000000E+00 -0.00000000000E+00 -0.66795440341E+01  0.67992064613E+01  0.12700000000E+01 0. -1.
         25    2    1    2    0    0  0.00000000000E+00  0.00000000000E+00  0.57281934833E+03  0.58629949045E+03  0.12500034676E+03 0.  0.
    9000005    1    3    3    0    0 -0.29865074856E+02  0.20335750811E+02  0.47255047118E+02  0.59493738623E+02  0.10000000000E+01 0.  0.
    9000005    1    3    3    0    0  0.29865074856E+02 -0.20335750811E+02  0.52556430121E+03  0.52680575183E+03  0.10000000000E+01 0.  0.
<mgrwt>
<rscale>  0 0.12500035E+03</rscale>
<asrwt>0</asrwt>
<pdfrwt beam="2">  1        4 0.10369337E-02 0.12500035E+03</pdfrwt>
<pdfrwt beam="1">  1       -4 0.89163015E-01 0.12500035E+03</pdfrwt>
<totfact> 0.49743616E+03</totfact>
</mgrwt>
</event>
<event>
 5    1  0.3217852E-002  0.1250036E+03  0.7818608E-02  0.1235064E+00
         -4   -1    0    0    0  501 -0.00000000000E+00  0.00000000000E+00  0.25772401969E+03  0.25772714880E+03  0.12700000000E+01 0. -1.
          4   -1    0    0  501    0  0.00000000000E+00 -0.00000000000E+00 -0.15127755077E+02  0.15180970775E+02  0.12700000000E+01 0. -1.
         25    2    1    2    0    0  0.00000000000E+00  0.00000000000E+00  0.24259626462E+03  0.27290811957E+03  0.12500357644E+03 0.  0.
    9000005    1    3    3    0    0  0.36821030185E+02  0.49742002702E+02  0.14025788957E+03  0.15330796028E+03  0.10000000000E+01 0.  0.
    9000005    1    3    3    0    0 -0.36821030185E+02 -0.49742002702E+02  0.10233837504E+03  0.11960015930E+03  0.10000000000E+01 0.  0.
<mgrwt>
<rscale>  0 0.12500358E+03</rscale>
<asrwt>0</asrwt>
<pdfrwt beam="2">  1        4 0.23316812E-02 0.12500358E+03</pdfrwt>
<pdfrwt beam="1">  1       -4 0.39654182E-01 0.12500358E+03</pdfrwt>
<totfact> 0.79121639E+03</totfact>
</mgrwt>
</event>
<event>
 5    1  0.3217852E-002  0.1249991E+03  0.7818608E-02  0.1235071E+00
          4   -1    0    0  501    0  0.00000000000E+00  0.00000000000E+00  0.48779350585E+02  0.48795880395E+02  0.12700000000E+01 0. -1.
         -4   -1    0    0    0  501 -0.00000000000E+00 -0.00000000000E+00 -0.80043700445E+02  0.80053774933E+02  0.12700000000E+01 0. -1.
         25    2    1    2    0    0  0.00000000000E+00  0.00000000000E+00 -0.31264349860E+02  0.12884965533E+03  0.12499909642E+03 0.  0.
    9000005    1    3    3    0    0  0.55805422195E+02  0.27784869358E+02 -0.20119363177E+02  0.65513608405E+02  0.10000000000E+01 0.  0.
    9000005    1    3    3    0    0 -0.55805422195E+02 -0.27784869358E+02 -0.11144986683E+02  0.63336046922E+02  0.10000000000E+01 0.  0.
<mgrwt>
<rscale>  0 0.12499910E+03</rscale>
<asrwt>0</asrwt>
<pdfrwt beam="1">  1        4 0.75065619E-02 0.12499910E+03</pdfrwt>
<pdfrwt beam="2">  1       -4 0.12316462E-01 0.12499910E+03</pdfrwt>
<totfact> 0.10369390E+04</totfact>
</mgrwt>
</event>
<event>
 5    1  0.3217852E-002  0.1250002E+03  0.7818608E-02  0.1235069E+00
          4   -1    0    0  501    0  0.00000000000E+00  0.00000000000E+00  0.11852525537E+02  0.11920371706E+02  0.12700000000E+01 0.  1.
         -4   -1    0    0    0  501 -0.00000000000E+00 -0.00000000000E+00 -0.32856239491E+03  0.32856484939E+03  0.12700000000E+01 0.  1.
         25    2    1    2    0    0  0.00000000000E+00  0.00000000000E+00 -0.31670986938E+03  0.34048522109E+03  0.12500017769E+03 0.  0.
    9000005    1    3    3    0    0 -0.33546292639E+02  0.51083658705E+02 -0.19390828965E+03  0.20331335109E+03  0.10000000000E+01 0.  0.
    9000005    1    3    3    0    0  0.33546292639E+02 -0.51083658705E+02 -0.12280157973E+03  0.13717187001E+03  0.10000000000E+01 0.  0.
<mgrwt>
<rscale>  0 0.12500018E+03</rscale>
<asrwt>0</asrwt>
<pdfrwt beam="1">  1        4 0.18288735E-02 0.12500018E+03</pdfrwt>
<pdfrwt beam="2">  1       -4 0.50553462E-01 0.12500018E+03</pdfrwt>
<totfact> 0.70783864E+03</totfact>
</mgrwt>
</event>
<event>
 5    1  0.3217852E-002  0.1250001E+03  0.7818608E-02  0.1235069E+00
          4   -1    0    0  501    0  0.00000000000E+00  0.00000000000E+00  0.15489070627E+04  0.15489075833E+04  0.12700000000E+01 0.  1.
         -4   -1    0    0    0  501 -0.00000000000E+00 -0.00000000000E+00 -0.23615043998E+01  0.26813435121E+01  0.12700000000E+01 0.  1.
         25    2    1    2    0    0  0.00000000000E+00  0.00000000000E+00  0.15465455583E+04  0.15515889268E+04  0.12500013634E+03 0.  0.
    9000005    1    3    3    0    0 -0.64341223413E+01 -0.62075087323E+02  0.81357894198E+03  0.81596961293E+03  0.10000000000E+01 0.  0.
    9000005    1    3    3    0    0  0.64341223413E+01  0.62075087323E+02  0.73296661630E+03  0.73561931391E+03  0.10000000000E+01 0.  0.
<mgrwt>
<rscale>  0 0.12500014E+03</rscale>
<asrwt>0</asrwt>
<pdfrwt beam="1">  1        4 0.23831800E+00 0.12500014E+03</pdfrwt>
<pdfrwt beam="2">  1       -4 0.38795149E-03 0.12500014E+03</pdfrwt>
<totfact> 0.16938280E+03</totfact>
</mgrwt>
</event>
<event>
 5    1  0.3217852E-002  0.1249992E+03  0.7818608E-02  0.1235070E+00
         -4   -1    0    0    0  501 -0.00000000000E+00  0.00000000000E+00  0.54692222445E+02  0.54706965699E+02  0.12700000000E+01 0.  1.
          4   -1    0    0  501    0  0.00000000000E+00 -0.00000000000E+00 -0.71391516573E+02  0.71402811839E+02  0.12700000000E+01 0.  1.
         25    2    1    2    0    0  0.00000000000E+00  0.00000000000E+00 -0.16699294128E+02  0.12610977754E+03  0.12499923826E+03 0.  0.
    9000005    1    3    3    0    0 -0.15269781817E+02 -0.34277472074E+02  0.42065215001E+02  0.56379017743E+02  0.10000000000E+01 0.  0.
    9000005    1    3    3    0    0  0.15269781817E+02  0.34277472074E+02 -0.58764509129E+02  0.69730759796E+02  0.10000000000E+01 0.  0.
<mgrwt>
<rscale>  0 0.12499924E+03</rscale>
<asrwt>0</asrwt>
<pdfrwt beam="2">  1        4 0.10985313E-01 0.12499924E+03</pdfrwt>
<pdfrwt beam="1">  1       -4 0.84161910E-02 0.12499924E+03</pdfrwt>
<totfact> 0.10428732E+04</totfact>
</mgrwt>
</event>
<event>
 5    1  0.3217852E-002  0.1250021E+03  0.7818608E-02  0.1235066E+00
         -4   -1    0    0    0  501 -0.00000000000E+00  0.00000000000E+00  0.59300124149E+02  0.59313722056E+02  0.12700000000E+01 0.  1.
          4   -1    0    0  501    0  0.00000000000E+00 -0.00000000000E+00 -0.65847505656E+02  0.65859751754E+02  0.12700000000E+01 0.  1.
         25    2    1    2    0    0  0.00000000000E+00  0.00000000000E+00 -0.65473815066E+01  0.12517347381E+03  0.12500212135E+03 0.  0.
    9000005    1    3    3    0    0 -0.52496801397E+02  0.16461661685E+02 -0.32953519156E+02  0.64139183711E+02  0.10000000000E+01 0.  0.
    9000005    1    3    3    0    0  0.52496801397E+02 -0.16461661685E+02  0.26406137650E+02  0.61034290099E+02  0.10000000000E+01 0.  0.
<mgrwt>
<rscale>  0 0.12500212E+03</rscale>
<asrwt>0</asrwt>
<pdfrwt beam="2">  1        4 0.10132373E-01 0.12500212E+03</pdfrwt>
<pdfrwt beam="1">  1       -4 0.91250841E-02 0.12500212E+03</pdfrwt>
<totfact> 0.10448595E+04</totfact>
</mgrwt>
</event>
<event>
 5    1  0.3217852E-002  0.1250016E+03  0.7818608E-02  0.1235067E+00
          4   -1    0    0  501    0  0.00000000000E+00  0.00000000000E+00  0.10345938317E+02  0.10423595333E+02  0.12700000000E+01 0. -1.
         -4   -1    0    0    0  501 -0.00000000000E+00 -0.00000000000E+00 -0.37608266403E+03  0.37608480837E+03  0.12700000000E+01 0. -1.
         25    2    1    2    0    0  0.00000000000E+00  0.00000000000E+00 -0.36573672571E+03  0.38650840370E+03  0.12500157437E+03 0.  0.
    9000005    1    3    3    0    0  0.66395398779E+01  0.42829801526E+02 -0.43662755982E+02  0.61529762299E+02  0.10000000000E+01 0.  0.
    9000005    1    3    3    0    0 -0.66395398779E+01 -0.42829801526E+02 -0.32207396973E+03  0.32497864140E+03  0.10000000000E+01 0.  0.
<mgrwt>
<rscale>  0 0.12500157E+03</rscale>
<asrwt>0</asrwt>
<pdfrwt beam="1">  1        4 0.15978217E-02 0.12500157E+03</pdfrwt>
<pdfrwt beam="2">  1       -4 0.57864999E-01 0.12500157E+03</pdfrwt>
<totfact> 0.65884177E+03</totfact>
</mgrwt>
</event>
<event>
 5    1  0.3217852E-002  0.1250018E+03  0.7818608E-02  0.1235067E+00
          4   -1    0    0  501    0  0.00000000000E+00  0.00000000000E+00  0.16279486214E+02  0.16328948876E+02  0.12700000000E+01 0.  1.
         -4   -1    0    0    0  501 -0.00000000000E+00 -0.00000000000E+00 -0.23954081297E+03  0.23954417960E+03  0.12700000000E+01 0.  1.
         25    2    1    2    0    0  0.00000000000E+00  0.00000000000E+00 -0.22326132676E+03  0.25587312847E+03  0.12500175138E+03 0.  0.
    9000005    1    3    3    0    0  0.41739935982E+02 -0.42910523601E+02 -0.14835195180E+03  0.15997761373E+03  0.10000000000E+01 0.  0.
    9000005    1    3    3    0    0 -0.41739935982E+02  0.42910523601E+02 -0.74909374961E+02  0.95895514747E+02  0.10000000000E+01 0.  0.
<mgrwt>
<rscale>  0 0.12500175E+03</rscale>
<asrwt>0</asrwt>
<pdfrwt beam="1">  1        4 0.25086003E-02 0.12500175E+03</pdfrwt>
<pdfrwt beam="2">  1       -4 0.36856494E-01 0.12500175E+03</pdfrwt>
<totfact> 0.81485543E+03</totfact>
</mgrwt>
</event>
<event>
 5    1  0.3217852E-002  0.1249952E+03  0.7818608E-02  0.1235077E+00
          4   -1    0    0  501    0  0.00000000000E+00  0.00000000000E+00  0.13589072155E+02  0.13648288611E+02  0.12700000000E+01 0.  1.
         -4   -1    0    0    0  501 -0.00000000000E+00 -0.00000000000E+00 -0.28674751988E+03  0.28675033227E+03  0.12700000000E+01 0.  1.
         25    2    1    2    0    0  0.00000000000E+00  0.00000000000E+00 -0.27315844773E+03  0.30039862088E+03  0.12499517536E+03 0.  0.
    9000005    1    3    3    0    0 -0.34040488931E+02 -0.26935217257E+02 -0.28546760757E+02  0.51963240517E+02  0.10000000000E+01 0.  0.
    9000005    1    3    3    0    0  0.34040488931E+02  0.26935217257E+02 -0.24461168697E+03  0.24843538037E+03  0.10000000000E+01 0.  0.
<mgrwt>
<rscale>  0 0.12499518E+03</rscale>
<asrwt>0</asrwt>
<pdfrwt beam="1">  1        4 0.20953981E-02 0.12499518E+03</pdfrwt>
<pdfrwt beam="2">  1       -4 0.44119770E-01 0.12499518E+03</pdfrwt>
<totfact> 0.75556957E+03</totfact>
</mgrwt>
</event>
<event>
 5    1  0.3217852E-002  0.1249988E+03  0.7818608E-02  0.1235071E+00
         -4   -1    0    0    0  501 -0.00000000000E+00  0.00000000000E+00  0.33586594594E+03  0.33586834703E+03  0.12700000000E+01 0.  1.
          4   -1    0    0  501    0  0.00000000000E+00 -0.00000000000E+00 -0.11593039735E+02  0.11662395564E+02  0.12700000000E+01 0.  1.
         25    2    1    2    0    0  0.00000000000E+00  0.00000000000E+00  0.32427290620E+03  0.34753074260E+03  0.12499879741E+03 0.  0.
    9000005    1    3    3    0    0 -0.26771801654E+02  0.53849173631E+02  0.11489537592E+03  0.12968581369E+03  0.10000000000E+01 0.  0.
    9000005    1    3    3    0    0  0.26771801654E+02 -0.53849173631E+02  0.20937753028E+03  0.21784492891E+03  0.10000000000E+01 0.  0.
<mgrwt>
<rscale>  0 0.12499880E+03</rscale>
<asrwt>0</asrwt>
<pdfrwt beam="2">  1        4 0.17890645E-02 0.12499880E+03</pdfrwt>
<pdfrwt beam="1">  1       -4 0.51677199E-01 0.12499880E+03</pdfrwt>
<totfact> 0.69998926E+03</totfact>
</mgrwt>
</event>
<event>
 5    1  0.3217852E-002  0.1249977E+03  0.7818608E-02  0.1235073E+00
          4   -1    0    0  501    0  0.00000000000E+00  0.00000000000E+00  0.10270747323E+03  0.10271532484E+03  0.12700000000E+01 0.  1.
         -4   -1    0    0    0  501 -0.00000000000E+00 -0.00000000000E+00 -0.38011476109E+02  0.38032686153E+02  0.12700000000E+01 0.  1.
         25    2    1    2    0    0  0.00000000000E+00  0.00000000000E+00  0.64695997119E+02  0.14074801099E+03  0.12499772220E+03 0.  0.
    9000005    1    3    3    0    0 -0.15137736989E+02 -0.95579447749E+01  0.99763637303E+02  0.10136216610E+03  0.10000000000E+01 0.  0.
    9000005    1    3    3    0    0  0.15137736989E+02  0.95579447749E+01 -0.35067640184E+02  0.39385844888E+02  0.10000000000E+01 0.  0.
<mgrwt>
<rscale>  0 0.12499772E+03</rscale>
<asrwt>0</asrwt>
<pdfrwt beam="1">  1        4 0.15803385E-01 0.12499772E+03</pdfrwt>
<pdfrwt beam="2">  1       -4 0.58501550E-02 0.12499772E+03</pdfrwt>
<totfact> 0.10118626E+04</totfact>
</mgrwt>
</event>
<event>
 5    1  0.3217852E-002  0.1249980E+03  0.7818608E-02  0.1235072E+00
         -4   -1    0    0    0  501 -0.00000000000E+00  0.00000000000E+00  0.36655773599E+02  0.36677767628E+02  0.12700000000E+01 0.  1.
          4   -1    0    0  501    0  0.00000000000E+00 -0.00000000000E+00 -0.10650462159E+03  0.10651219329E+03  0.12700000000E+01 0.  1.
         25    2    1    2    0    0  0.00000000000E+00  0.00000000000E+00 -0.69848847987E+02  0.14318996092E+03  0.12499801335E+03 0.  0.
    9000005    1    3    3    0    0  0.21899259184E+02 -0.52638322888E+02 -0.56121876726E+01  0.57296310874E+02  0.10000000000E+01 0.  0.
    9000005    1    3    3    0    0 -0.21899259184E+02  0.52638322888E+02 -0.64236660314E+02  0.85893650042E+02  0.10000000000E+01 0.  0.
<mgrwt>
<rscale>  0 0.12499801E+03</rscale>
<asrwt>0</asrwt>
<pdfrwt beam="2">  1        4 0.16387601E-01 0.12499801E+03</pdfrwt>
<pdfrwt beam="1">  1       -4 0.56416241E-02 0.12499801E+03</pdfrwt>
<totfact> 0.10068345E+04</totfact>
</mgrwt>
</event>
<event>
 5    1  0.3217852E-002  0.1249993E+03  0.7818608E-02  0.1235070E+00
         -4   -1    0    0    0  501 -0.00000000000E+00  0.00000000000E+00  0.53880397346E+03  0.53880547019E+03  0.12700000000E+01 0. -1.
          4   -1    0    0  501    0  0.00000000000E+00 -0.00000000000E+00 -0.71926319818E+01  0.73038931280E+01  0.12700000000E+01 0. -1.
         25    2    1    2    0    0  0.00000000000E+00  0.00000000000E+00  0.53161134147E+03  0.54610936332E+03  0.12499927330E+03 0.  0.
    9000005    1    3    3    0    0 -0.25288021558E+01  0.61713298906E+02  0.30731677165E+03  0.31346375267E+03  0.10000000000E+01 0.  0.
    9000005    1    3    3    0    0  0.25288021558E+01 -0.61713298906E+02  0.22429456982E+03  0.23264561065E+03  0.10000000000E+01 0.  0.
<mgrwt>
<rscale>  0 0.12499927E+03</rscale>
<asrwt>0</asrwt>
<pdfrwt beam="2">  1        4 0.11152324E-02 0.12499927E+03</pdfrwt>
<pdfrwt beam="1">  1       -4 0.82901594E-01 0.12499927E+03</pdfrwt>
<totfact> 0.52457137E+03</totfact>
</mgrwt>
</event>
<event>
 5    1  0.3217852E-002  0.1250047E+03  0.7818608E-02  0.1235062E+00
          4   -1    0    0  501    0  0.00000000000E+00  0.00000000000E+00  0.36136605401E+02  0.36158915221E+02  0.12700000000E+01 0. -1.
         -4   -1    0    0    0  501 -0.00000000000E+00 -0.00000000000E+00 -0.10804544774E+03  0.10805291147E+03  0.12700000000E+01 0. -1.
         25    2    1    2    0    0  0.00000000000E+00  0.00000000000E+00 -0.71908842340E+02  0.14421182669E+03  0.12500467732E+03 0.  0.
    9000005    1    3    3    0    0  0.32470169896E+02  0.53372872223E+02 -0.37802754906E+02  0.73027554395E+02  0.10000000000E+01 0.  0.
    9000005    1    3    3    0    0 -0.32470169896E+02 -0.53372872223E+02 -0.34106087434E+02  0.71184272298E+02  0.10000000000E+01 0.  0.
<mgrwt>
<rscale>  0 0.12500468E+03</rscale>
<asrwt>0</asrwt>
<pdfrwt beam="1">  1        4 0.55617681E-02 0.12500468E+03</pdfrwt>
<pdfrwt beam="2">  1       -4 0.16624667E-01 0.12500468E+03</pdfrwt>
<totfact> 0.10045969E+04</totfact>
</mgrwt>
</event>
<event>
 5    1  0.3217852E-002  0.1249964E+03  0.7818608E-02  0.1235075E+00
         -4   -1    0    0    0  501 -0.00000000000E+00  0.00000000000E+00  0.31663465382E+02  0.31688924563E+02  0.12700000000E+01 0.  1.
          4   -1    0    0  501    0  0.00000000000E+00 -0.00000000000E+00 -0.12328227454E+03  0.12328881586E+03  0.12700000000E+01 0.  1.
         25    2    1    2    0    0  0.00000000000E+00  0.00000000000E+00 -0.91618809162E+02  0.15497774043E+03  0.12499637529E+03 0.  0.
    9000005    1    3    3    0    0 -0.31294933608E+02 -0.35053278183E+02 -0.96883698228E+02  0.10768266417E+03  0.10000000000E+01 0.  0.
    9000005    1    3    3    0    0  0.31294933608E+02  0.35053278183E+02  0.52648890655E+01  0.47295076253E+02  0.10000000000E+01 0.  0.
<mgrwt>
<rscale>  0 0.12499638E+03</rscale>
<asrwt>0</asrwt>
<pdfrwt beam="2">  1        4 0.18968965E-01 0.12499638E+03</pdfrwt>
<pdfrwt beam="1">  1       -4 0.48737640E-02 0.12499638E+03</pdfrwt>
<totfact> 0.98327884E+03</totfact>
</mgrwt>
</event>
<event>
 5    1  0.3217852E-002  0.1250016E+03  0.7818608E-02  0.1235067E+00
         -4   -1    0    0    0  501 -0.00000000000E+00  0.00000000000E+00  0.24006594227E+03  0.24006930153E+03  0.12700000000E+01 0. -1.
          4   -1    0    0  501    0  0.00000000000E+00 -0.00000000000E+00 -0.16243732267E+02  0.16293303469E+02  0.12700000000E+01 0. -1.
         25    2    1    2    0    0  0.00000000000E+00  0.00000000000E+00  0.22382221000E+03  0.25636260500E+03  0.12500161420E+03 0.  0.
    9000005    1    3    3    0    0 -0.17083828661E+02  0.16279178836E+02  0.23058714343E+03  0.23179365733E+03  0.10000000000E+01 0.  0.
    9000005    1    3    3    0    0  0.17083828661E+02 -0.16279178836E+02 -0.67649334246E+01  0.24568947669E+02  0.10000000000E+01 0.  0.
<mgrwt>
<rscale>  0 0.12500161E+03</rscale>
<asrwt>0</asrwt>
<pdfrwt beam="2">  1        4 0.25031074E-02 0.12500161E+03</pdfrwt>
<pdfrwt beam="1">  1       -4 0.36937291E-01 0.12500161E+03</pdfrwt>
<totfact> 0.81416317E+03</totfact>
</mgrwt>
</event>
<event>
 5    1  0.3217852E-002  0.1250007E+03  0.7818608E-02  0.1235068E+00
          4   -1    0    0  501    0  0.00000000000E+00  0.00000000000E+00  0.58933053546E+03  0.58933190387E+03  0.12700000000E+01 0. -1.
         -4   -1    0    0    0  501 -0.00000000000E+00 -0.00000000000E+00 -0.65661338342E+01  0.66878257699E+01  0.12700000000E+01 0. -1.
         25    2    1    2    0    0  0.00000000000E+00  0.00000000000E+00  0.58276440162E+03  0.59601972964E+03  0.12500068129E+03 0.  0.
    9000005    1    3    3    0    0  0.44083492434E+02 -0.44286511447E+02  0.28755823123E+03  0.29427093936E+03  0.10000000000E+01 0.  0.
    9000005    1    3    3    0    0 -0.44083492434E+02  0.44286511447E+02  0.29520617039E+03  0.30174879028E+03  0.10000000000E+01 0.  0.
<mgrwt>
<rscale>  0 0.12500068E+03</rscale>
<asrwt>0</asrwt>
<pdfrwt beam="1">  1        4 0.90675705E-01 0.12500068E+03</pdfrwt>
<pdfrwt beam="2">  1       -4 0.10196406E-02 0.12500068E+03</pdfrwt>
<totfact> 0.49119089E+03</totfact>
</mgrwt>
</event>
<event>
 5    1  0.3217852E-002  0.1249911E+03  0.7818608E-02  0.1235083E+00
         -4   -1    0    0    0  501 -0.00000000000E+00  0.00000000000E+00  0.20110780232E+03  0.20111181232E+03  0.12700000000E+01 0.  1.
          4   -1    0    0  501    0  0.00000000000E+00 -0.00000000000E+00 -0.19395923589E+02  0.19437457443E+02  0.12700000000E+01 0.  1.
         25    2    1    2    0    0  0.00000000000E+00  0.00000000000E+00  0.18171187873E+03  0.22054926976E+03  0.12499109377E+03 0.  0.
    9000005    1    3    3    0    0 -0.42460228516E+02 -0.20014196339E+02  0.16363579271E+03  0.17023839672E+03  0.10000000000E+01 0.  0.
    9000005    1    3    3    0    0  0.42460228516E+02  0.20014196339E+02  0.18076086021E+02  0.50310873045E+02  0.10000000000E+01 0.  0.
<mgrwt>
<rscale>  0 0.12499109E+03</rscale>
<asrwt>0</asrwt>
<pdfrwt beam="2">  1        4 0.29874917E-02 0.12499109E+03</pdfrwt>
<pdfrwt beam="1">  1       -4 0.30943165E-01 0.12499109E+03</pdfrwt>
<totfact> 0.86798775E+03</totfact>
</mgrwt>
</event>
<event>
 5    1  0.3217852E-002  0.1249990E+03  0.7818608E-02  0.1235071E+00
          4   -1    0    0  501    0  0.00000000000E+00  0.00000000000E+00  0.89810033266E+01  0.90703539486E+01  0.12700000000E+01 0.  1.
         -4   -1    0    0    0  501 -0.00000000000E+00 -0.00000000000E+00 -0.43269569371E+03  0.43269755749E+03  0.12700000000E+01 0.  1.
         25    2    1    2    0    0  0.00000000000E+00  0.00000000000E+00 -0.42371469038E+03  0.44176791143E+03  0.12499899491E+03 0.  0.
    9000005    1    3    3    0    0 -0.15907201294E+02  0.45646288541E+02 -0.35182859257E+03  0.35513515915E+03  0.10000000000E+01 0.  0.
    9000005    1    3    3    0    0  0.15907201294E+02 -0.45646288541E+02 -0.71886097809E+02  0.86632752287E+02  0.10000000000E+01 0.  0.
<mgrwt>
<rscale>  0 0.12499899E+03</rscale>
<asrwt>0</asrwt>
<pdfrwt beam="1">  1        4 0.13887096E-02 0.12499899E+03</pdfrwt>
<pdfrwt beam="2">  1       -4 0.66575569E-01 0.12499899E+03</pdfrwt>
<totfact> 0.60684948E+03</totfact>
</mgrwt>
</event>
<event>
 5    1  0.3217852E-002  0.1249985E+03  0.7818608E-02  0.1235072E+00
          4   -1    0    0  501    0  0.00000000000E+00  0.00000000000E+00  0.79956395046E+02  0.79966480532E+02  0.12700000000E+01 0. -1.
         -4   -1    0    0    0  501 -0.00000000000E+00 -0.00000000000E+00 -0.48832178951E+02  0.48848690884E+02  0.12700000000E+01 0. -1.
         25    2    1    2    0    0  0.00000000000E+00  0.00000000000E+00  0.31124216095E+02  0.12881517142E+03  0.12499852623E+03 0.  0.
    9000005    1    3    3    0    0 -0.46398629739E+02 -0.41229999530E+02  0.23022785491E+02  0.66210228474E+02  0.10000000000E+01 0.  0.
    9000005    1    3    3    0    0  0.46398629739E+02  0.41229999530E+02  0.81014306045E+01  0.62604942942E+02  0.10000000000E+01 0.  0.
<mgrwt>
<rscale>  0 0.12499853E+03</rscale>
<asrwt>0</asrwt>
<pdfrwt beam="1">  1        4 0.12303030E-01 0.12499853E+03</pdfrwt>
<pdfrwt beam="2">  1       -4 0.75146889E-02 0.12499853E+03</pdfrwt>
<totfact> 0.10370265E+04</totfact>
</mgrwt>
</event>
<event>
 5    1  0.3217852E-002  0.1249933E+03  0.7818608E-02  0.1235080E+00
         -4   -1    0    0    0  501 -0.00000000000E+00  0.00000000000E+00  0.57824286060E+01  0.59202517331E+01  0.12700000000E+01 0.  1.
          4   -1    0    0  501    0  0.00000000000E+00 -0.00000000000E+00 -0.66737229197E+03  0.66737350036E+03  0.12700000000E+01 0.  1.
         25    2    1    2    0    0  0.00000000000E+00  0.00000000000E+00 -0.66158986336E+03  0.67329375210E+03  0.12499331705E+03 0.  0.
    9000005    1    3    3    0    0  0.10627022309E+02 -0.48498916600E+01 -0.12479187012E+00  0.11724786790E+02  0.10000000000E+01 0.  0.
    9000005    1    3    3    0    0 -0.10627022309E+02  0.48498916600E+01 -0.66146507149E+03  0.66156896531E+03  0.10000000000E+01 0.  0.
<mgrwt>
<rscale>  0 0.12499332E+03</rscale>
<asrwt>0</asrwt>
<pdfrwt beam="2">  1        4 0.10268329E+00 0.12499332E+03</pdfrwt>
<pdfrwt beam="1">  1       -4 0.90029966E-03 0.12499332E+03</pdfrwt>
<totfact> 0.44541005E+03</totfact>
</mgrwt>
</event>
<event>
 5    1  0.3217852E-002  0.1249990E+03  0.7818608E-02  0.1235071E+00
         -4   -1    0    0    0  501 -0.00000000000E+00  0.00000000000E+00  0.31971000076E+02  0.31996214555E+02  0.12700000000E+01 0.  1.
          4   -1    0    0  501    0  0.00000000000E+00 -0.00000000000E+00 -0.12210232516E+03  0.12210892968E+03  0.12700000000E+01 0.  1.
         25    2    1    2    0    0  0.00000000000E+00  0.00000000000E+00 -0.90131325080E+02  0.15410514424E+03  0.12499895888E+03 0.  0.
    9000005    1    3    3    0    0  0.58331677334E+02 -0.22048062789E+02 -0.50070990234E+02  0.79980033235E+02  0.10000000000E+01 0.  0.
    9000005    1    3    3    0    0 -0.58331677334E+02  0.22048062789E+02 -0.40060334846E+02  0.74125111003E+02  0.10000000000E+01 0.  0.
<mgrwt>
<rscale>  0 0.12499896E+03</rscale>
<asrwt>0</asrwt>
<pdfrwt beam="2">  1        4 0.18787420E-01 0.12499896E+03</pdfrwt>
<pdfrwt beam="1">  1       -4 0.49210631E-02 0.12499896E+03</pdfrwt>
<totfact> 0.98493764E+03</totfact>
</mgrwt>
</event>
<event>
 5    1  0.3217852E-002  0.1249870E+03  0.7818608E-02  0.1235090E+00
         -4   -1    0    0    0  501 -0.00000000000E+00  0.00000000000E+00  0.48066862799E+02  0.48083637543E+02  0.12700000000E+01 0.  1.
          4   -1    0    0  501    0  0.00000000000E+00 -0.00000000000E+00 -0.81214230825E+02  0.81224160128E+02  0.12700000000E+01 0.  1.
         25    2    1    2    0    0  0.00000000000E+00  0.00000000000E+00 -0.33147368025E+02  0.12930779767E+03  0.12498703345E+03 0.  0.
    9000005    1    3    3    0    0 -0.38521318334E+02  0.31495829724E+02 -0.55676591891E+02  0.74677721850E+02  0.10000000000E+01 0.  0.
    9000005    1    3    3    0    0  0.38521318334E+02 -0.31495829724E+02  0.22529223865E+02  0.54630075821E+02  0.10000000000E+01 0.  0.
<mgrwt>
<rscale>  0 0.12498703E+03</rscale>
<asrwt>0</asrwt>
<pdfrwt beam="2">  1        4 0.12496551E-01 0.12498703E+03</pdfrwt>
<pdfrwt beam="1">  1       -4 0.73969561E-02 0.12498703E+03</pdfrwt>
<totfact> 0.10362370E+04</totfact>
</mgrwt>
</event>
<event>
 5    1  0.3217852E-002  0.1249987E+03  0.7818608E-02  0.1235071E+00
          4   -1    0    0  501    0  0.00000000000E+00  0.00000000000E+00  0.43754231060E+03  0.43754415373E+03  0.12700000000E+01 0.  1.
         -4   -1    0    0    0  501 -0.00000000000E+00 -0.00000000000E+00 -0.88804864345E+01  0.89708382726E+01  0.12700000000E+01 0.  1.
         25    2    1    2    0    0  0.00000000000E+00  0.00000000000E+00  0.42866182416E+03  0.44651499200E+03  0.12499871435E+03 0.  0.
    9000005    1    3    3    0    0 -0.22252159403E+02  0.40237826377E+01  0.42243227069E+03  0.42303826392E+03  0.10000000000E+01 0.  0.
    9000005    1    3    3    0    0  0.22252159403E+02 -0.40237826377E+01  0.62295534754E+01  0.23476728079E+02  0.10000000000E+01 0.  0.
<mgrwt>
<rscale>  0 0.12499871E+03</rscale>
<asrwt>0</asrwt>
<pdfrwt beam="1">  1        4 0.67321289E-01 0.12499871E+03</pdfrwt>
<pdfrwt beam="2">  1       -4 0.13733207E-02 0.12499871E+03</pdfrwt>
<totfact> 0.60268601E+03</totfact>
</mgrwt>
</event>
<event>
 5    1  0.3217852E-002  0.1249914E+03  0.7818608E-02  0.1235083E+00
         -4   -1    0    0    0  501 -0.00000000000E+00  0.00000000000E+00  0.18520837777E+02  0.18564329558E+02  0.12700000000E+01 0. -1.
          4   -1    0    0  501    0  0.00000000000E+00 -0.00000000000E+00 -0.21058934901E+03  0.21059317846E+03  0.12700000000E+01 0. -1.
         25    2    1    2    0    0  0.00000000000E+00  0.00000000000E+00 -0.19206851123E+03  0.22915750802E+03  0.12499140161E+03 0.  0.
    9000005    1    3    3    0    0 -0.18153718586E+02  0.53839465742E+02 -0.14371876034E+03  0.15454555200E+03  0.10000000000E+01 0.  0.
    9000005    1    3    3    0    0  0.18153718586E+02 -0.53839465742E+02 -0.48349750890E+02  0.74611956019E+02  0.10000000000E+01 0.  0.
<mgrwt>
<rscale>  0 0.12499140E+03</rscale>
<asrwt>0</asrwt>
<pdfrwt beam="2">  1        4 0.32402000E-01 0.12499140E+03</pdfrwt>
<pdfrwt beam="1">  1       -4 0.28529999E-02 0.12499140E+03</pdfrwt>
<totfact> 0.85455525E+03</totfact>
</mgrwt>
</event>
<event>
 5    1  0.3217852E-002  0.1249992E+03  0.7818608E-02  0.1235071E+00
         -4   -1    0    0    0  501 -0.00000000000E+00  0.00000000000E+00  0.63216880171E+02  0.63229635762E+02  0.12700000000E+01 0.  1.
          4   -1    0    0  501    0  0.00000000000E+00 -0.00000000000E+00 -0.61764948810E+02  0.61778004188E+02  0.12700000000E+01 0.  1.
         25    2    1    2    0    0  0.00000000000E+00  0.00000000000E+00  0.14519313611E+01  0.12500763995E+03  0.12499920776E+03 0.  0.
    9000005    1    3    3    0    0 -0.11346122243E+02 -0.19834435186E+02  0.58893977682E+02  0.63179426369E+02  0.10000000000E+01 0.  0.
    9000005    1    3    3    0    0  0.11346122243E+02  0.19834435186E+02 -0.57442046321E+02  0.61828213581E+02  0.10000000000E+01 0.  0.
<mgrwt>
<rscale>  0 0.12499921E+03</rscale>
<asrwt>0</asrwt>
<pdfrwt beam="2">  1        4 0.95042852E-02 0.12499921E+03</pdfrwt>
<pdfrwt beam="1">  1       -4 0.97276594E-02 0.12499921E+03</pdfrwt>
<totfact> 0.10452884E+04</totfact>
</mgrwt>
</event>
<event>
 5    1  0.3217852E-002  0.1250073E+03  0.7818608E-02  0.1235058E+00
          4   -1    0    0  501    0  0.00000000000E+00  0.00000000000E+00  0.72791607147E+02  0.72802685191E+02  0.12700000000E+01 0. -1.
         -4   -1    0    0    0  501 -0.00000000000E+00 -0.00000000000E+00 -0.53647032689E+02  0.53662063102E+02  0.12700000000E+01 0. -1.
         25    2    1    2    0    0  0.00000000000E+00  0.00000000000E+00  0.19144574458E+02  0.12646474829E+03  0.12500727111E+03 0.  0.
    9000005    1    3    3    0    0 -0.19783148550E+02  0.10140744832E+02 -0.49516719880E+02  0.54287320987E+02  0.10000000000E+01 0.  0.
    9000005    1    3    3    0    0  0.19783148550E+02 -0.10140744832E+02  0.68661294338E+02  0.72177427306E+02  0.10000000000E+01 0.  0.
<mgrwt>
<rscale>  0 0.12500727E+03</rscale>
<asrwt>0</asrwt>
<pdfrwt beam="1">  1        4 0.11200717E-01 0.12500727E+03</pdfrwt>
<pdfrwt beam="2">  1       -4 0.82553980E-02 0.12500727E+03</pdfrwt>
<totfact> 0.10419087E+04</totfact>
</mgrwt>
</event>
<event>
 5    1  0.3217852E-002  0.1250007E+03  0.7818608E-02  0.1235068E+00
         -4   -1    0    0    0  501 -0.00000000000E+00  0.00000000000E+00  0.18242902606E+03  0.18243344663E+03  0.12700000000E+01 0. -1.
          4   -1    0    0  501    0  0.00000000000E+00 -0.00000000000E+00 -0.21389145808E+02  0.21426816338E+02  0.12700000000E+01 0. -1.
         25    2    1    2    0    0  0.00000000000E+00  0.00000000000E+00  0.16103988025E+03  0.20386026297E+03  0.12500065514E+03 0.  0.
    9000005    1    3    3    0    0  0.21103571778E+02  0.57950338714E+02  0.96965781600E+02  0.11492156151E+03  0.10000000000E+01 0.  0.
    9000005    1    3    3    0    0 -0.21103571778E+02 -0.57950338714E+02  0.64074098654E+02  0.88938701459E+02  0.10000000000E+01 0.  0.
<mgrwt>
<rscale>  0 0.12500066E+03</rscale>
<asrwt>0</asrwt>
<pdfrwt beam="2">  1        4 0.32938755E-02 0.12500066E+03</pdfrwt>
<pdfrwt beam="1">  1       -4 0.28069242E-01 0.12500066E+03</pdfrwt>
<totfact> 0.89487189E+03</totfact>
</mgrwt>
</event>
<event>
 5    1  0.3217852E-002  0.1249999E+03  0.7818608E-02  0.1235069E+00
          4   -1    0    0  501    0  0.00000000000E+00  0.00000000000E+00  0.28122719011E+02  0.28151380509E+02  0.12700000000E+01 0. -1.
         -4   -1    0    0    0  501 -0.00000000000E+00 -0.00000000000E+00 -0.13879760261E+03  0.13880341275E+03  0.12700000000E+01 0. -1.
         25    2    1    2    0    0  0.00000000000E+00  0.00000000000E+00 -0.11067488360E+03  0.16695479325E+03  0.12499989253E+03 0.  0.
    9000005    1    3    3    0    0  0.36983932308E+02 -0.39436868378E+02 -0.13479142588E+02  0.55729391898E+02  0.10000000000E+01 0.  0.
    9000005    1    3    3    0    0 -0.36983932308E+02  0.39436868378E+02 -0.97195741009E+02  0.11122540136E+03  0.10000000000E+01 0.  0.
<mgrwt>
<rscale>  0 0.12499989E+03</rscale>
<asrwt>0</asrwt>
<pdfrwt beam="1">  1        4 0.43292239E-02 0.12499989E+03</pdfrwt>
<pdfrwt beam="2">  1       -4 0.21356129E-01 0.12499989E+03</pdfrwt>
<totfact> 0.96018693E+03</totfact>
</mgrwt>
</event>
<event>
 5    1  0.3217852E-002  0.1249955E+03  0.7818608E-02  0.1235076E+00
         -4   -1    0    0    0  501 -0.00000000000E+00  0.00000000000E+00  0.27858285301E+03  0.27858574782E+03  0.12700000000E+01 0. -1.
          4   -1    0    0  501    0  0.00000000000E+00 -0.00000000000E+00 -0.13989118539E+02  0.14046648621E+02  0.12700000000E+01 0. -1.
         25    2    1    2    0    0  0.00000000000E+00  0.00000000000E+00  0.26459373447E+03  0.29263239644E+03  0.12499550043E+03 0.  0.
    9000005    1    3    3    0    0  0.59549938631E+02  0.18939542038E+02  0.13290438623E+03  0.14686550760E+03  0.10000000000E+01 0.  0.
    9000005    1    3    3    0    0 -0.59549938631E+02 -0.18939542038E+02  0.13168934823E+03  0.14576688884E+03  0.10000000000E+01 0.  0.
<mgrwt>
<rscale>  0 0.12499550E+03</rscale>
<asrwt>0</asrwt>
<pdfrwt beam="2">  1        4 0.21568201E-02 0.12499550E+03</pdfrwt>
<pdfrwt beam="1">  1       -4 0.42863550E-01 0.12499550E+03</pdfrwt>
<totfact> 0.76540056E+03</totfact>
</mgrwt>
</event>
<event>
 5    1  0.3217852E-002  0.1250000E+03  0.7818608E-02  0.1235069E+00
         -4   -1    0    0    0  501 -0.00000000000E+00  0.00000000000E+00  0.79230946813E+02  0.79241124631E+02  0.12700000000E+01 0. -1.
          4   -1    0    0  501    0  0.00000000000E+00 -0.00000000000E+00 -0.49280587422E+02  0.49296949162E+02  0.12700000000E+01 0. -1.
         25    2    1    2    0    0  0.00000000000E+00  0.00000000000E+00  0.29950359390E+02  0.12853807379E+03  0.12500004955E+03 0.  0.
    9000005    1    3    3    0    0 -0.57568140837E+02 -0.24065342286E+02  0.18540528129E+02  0.65099790492E+02  0.10000000000E+01 0.  0.
    9000005    1    3    3    0    0  0.57568140837E+02  0.24065342286E+02  0.11409831262E+02  0.63438283301E+02  0.10000000000E+01 0.  0.
<mgrwt>
<rscale>  0 0.12500005E+03</rscale>
<asrwt>0</asrwt>
<pdfrwt beam="2">  1        4 0.75836704E-02 0.12500005E+03</pdfrwt>
<pdfrwt beam="1">  1       -4 0.12191418E-01 0.12500005E+03</pdfrwt>
<totfact> 0.10375872E+04</totfact>
</mgrwt>
</event>
<event>
 5    1  0.3217852E-002  0.1250003E+03  0.7818608E-02  0.1235069E+00
         -4   -1    0    0    0  501 -0.00000000000E+00  0.00000000000E+00  0.57982082541E+01  0.59356649971E+01  0.12700000000E+01 0. -1.
          4   -1    0    0  501    0  0.00000000000E+00 -0.00000000000E+00 -0.66567241623E+03  0.66567362771E+03  0.12700000000E+01 0. -1.
         25    2    1    2    0    0  0.00000000000E+00  0.00000000000E+00 -0.65987420797E+03  0.67160929270E+03  0.12500028680E+03 0.  0.
    9000005    1    3    3    0    0 -0.52174443037E+02 -0.28441907720E+02 -0.22600960420E+03  0.23369308037E+03  0.10000000000E+01 0.  0.
    9000005    1    3    3    0    0  0.52174443037E+02  0.28441907720E+02 -0.43386460377E+03  0.43791621234E+03  0.10000000000E+01 0.  0.
<mgrwt>
<rscale>  0 0.12500029E+03</rscale>
<asrwt>0</asrwt>
<pdfrwt beam="2">  1        4 0.10242175E+00 0.12500029E+03</pdfrwt>
<pdfrwt beam="1">  1       -4 0.90269935E-03 0.12500029E+03</pdfrwt>
<totfact> 0.44628101E+03</totfact>
</mgrwt>
</event>
<event>
 5    1  0.3217852E-002  0.1250002E+03  0.7818608E-02  0.1235069E+00
         -4   -1    0    0    0  501 -0.00000000000E+00  0.00000000000E+00  0.41983370822E+03  0.41983562910E+03  0.12700000000E+01 0. -1.
          4   -1    0    0  501    0  0.00000000000E+00 -0.00000000000E+00 -0.92590128108E+01  0.93457058712E+01  0.12700000000E+01 0. -1.
         25    2    1    2    0    0  0.00000000000E+00  0.00000000000E+00  0.41057469541E+03  0.42918133497E+03  0.12500015109E+03 0.  0.
    9000005    1    3    3    0    0  0.14068061048E+02  0.42701938450E+02  0.56262574889E+02  0.72026684098E+02  0.10000000000E+01 0.  0.
    9000005    1    3    3    0    0 -0.14068061048E+02 -0.42701938450E+02  0.35431212052E+03  0.35715465087E+03  0.10000000000E+01 0.  0.
<mgrwt>
<rscale>  0 0.12500015E+03</rscale>
<asrwt>0</asrwt>
<pdfrwt beam="2">  1        4 0.14312798E-02 0.12500015E+03</pdfrwt>
<pdfrwt beam="1">  1       -4 0.64596624E-01 0.12500015E+03</pdfrwt>
<totfact> 0.61810057E+03</totfact>
</mgrwt>
</event>
<event>
 5    1  0.3217852E-002  0.1250024E+03  0.7818608E-02  0.1235065E+00
          4   -1    0    0  501    0  0.00000000000E+00  0.00000000000E+00  0.16399026635E+02  0.16448129820E+02  0.12700000000E+01 0.  1.
         -4   -1    0    0    0  501 -0.00000000000E+00 -0.00000000000E+00 -0.23780244792E+03  0.23780583916E+03  0.12700000000E+01 0.  1.
         25    2    1    2    0    0  0.00000000000E+00  0.00000000000E+00 -0.22140342129E+03  0.25425396898E+03  0.12500242311E+03 0.  0.
    9000005    1    3    3    0    0 -0.55892978403E+02 -0.27360649240E+02 -0.99057875713E+02  0.11698757585E+03  0.10000000000E+01 0.  0.
    9000005    1    3    3    0    0  0.55892978403E+02  0.27360649240E+02 -0.12234554557E+03  0.13726639313E+03  0.10000000000E+01 0.  0.
<mgrwt>
<rscale>  0 0.12500242E+03</rscale>
<asrwt>0</asrwt>
<pdfrwt beam="1">  1        4 0.25269654E-02 0.12500242E+03</pdfrwt>
<pdfrwt beam="2">  1       -4 0.36589027E-01 0.12500242E+03</pdfrwt>
<totfact> 0.81714850E+03</totfact>
</mgrwt>
</event>
<event>
 5    1  0.3217852E-002  0.1250009E+03  0.7818608E-02  0.1235068E+00
         -4   -1    0    0    0  501 -0.00000000000E+00  0.00000000000E+00  0.14713254603E+04  0.14713260084E+04  0.12700000000E+01 0.  1.
          4   -1    0    0  501    0  0.00000000000E+00 -0.00000000000E+00 -0.25024987847E+01  0.28063143387E+01  0.12700000000E+01 0.  1.
         25    2    1    2    0    0  0.00000000000E+00  0.00000000000E+00  0.14688229615E+04  0.14741323227E+04  0.12500085080E+03 0.  0.
    9000005    1    3    3    0    0 -0.20790151852E+02 -0.58913940137E+02  0.75198427960E+03  0.75457566852E+03  0.10000000000E+01 0.  0.
    9000005    1    3    3    0    0  0.20790151852E+02  0.58913940137E+02  0.71683868188E+03  0.71955665419E+03  0.10000000000E+01 0.  0.
<mgrwt>
<rscale>  0 0.12500085E+03</rscale>
<asrwt>0</asrwt>
<pdfrwt beam="2">  1        4 0.40841222E-03 0.12500085E+03</pdfrwt>
<pdfrwt beam="1">  1       -4 0.22638128E+00 0.12500085E+03</pdfrwt>
<totfact> 0.18443462E+03</totfact>
</mgrwt>
</event>
<event>
 5    1  0.3217852E-002  0.1250021E+03  0.7818608E-02  0.1235066E+00
          4   -1    0    0  501    0  0.00000000000E+00  0.00000000000E+00  0.12267777477E+03  0.12268434832E+03  0.12700000000E+01 0. -1.
         -4   -1    0    0    0  501 -0.00000000000E+00 -0.00000000000E+00 -0.31822533023E+02  0.31847865047E+02  0.12700000000E+01 0. -1.
         25    2    1    2    0    0  0.00000000000E+00  0.00000000000E+00  0.90855241748E+02  0.15453221337E+03  0.12500212004E+03 0.  0.
    9000005    1    3    3    0    0  0.16452735265E+02  0.30977752607E+02  0.10936710506E+03  0.11485851002E+03  0.10000000000E+01 0.  0.
    9000005    1    3    3    0    0 -0.16452735265E+02 -0.30977752607E+02 -0.18511863311E+02  0.39673703350E+02  0.10000000000E+01 0.  0.
<mgrwt>
<rscale>  0 0.12500212E+03</rscale>
<asrwt>0</asrwt>
<pdfrwt beam="1">  1        4 0.18875958E-01 0.12500212E+03</pdfrwt>
<pdfrwt beam="2">  1       -4 0.48982286E-02 0.12500212E+03</pdfrwt>
<totfact> 0.98402717E+03</totfact>
</mgrwt>
</event>
<event>
 5    1  0.3217852E-002  0.1249899E+03  0.7818608E-02  0.1235085E+00
          4   -1    0    0  501    0  0.00000000000E+00  0.00000000000E+00  0.36516248142E+01  0.38661691354E+01  0.12700000000E+01 0.  1.
         -4   -1    0    0    0  501 -0.00000000000E+00 -0.00000000000E+00 -0.10388188415E+04  0.10388196178E+04  0.12700000000E+01 0.  1.
         25    2    1    2    0    0  0.00000000000E+00  0.00000000000E+00 -0.10351672166E+04  0.10426857869E+04  0.12498993481E+03 0.  0.
    9000005    1    3    3    0    0  0.33344318571E+02 -0.36273588757E+02 -0.83818785210E+03  0.83963533289E+03  0.10000000000E+01 0.  0.
    9000005    1    3    3    0    0 -0.33344318571E+02  0.36273588757E+02 -0.19697936454E+03  0.20305045402E+03  0.10000000000E+01 0.  0.
<mgrwt>
<rscale>  0 0.12498993E+03</rscale>
<asrwt>0</asrwt>
<pdfrwt beam="1">  1        4 0.57835239E-03 0.12498993E+03</pdfrwt>
<pdfrwt beam="2">  1       -4 0.15983462E+00 0.12498993E+03</pdfrwt>
<totfact> 0.29230711E+03</totfact>
</mgrwt>
</event>
<event>
 5    1  0.3217852E-002  0.1249997E+03  0.7818608E-02  0.1235070E+00
         -4   -1    0    0    0  501 -0.00000000000E+00  0.00000000000E+00  0.77092011836E+01  0.78131096812E+01  0.12700000000E+01 0.  1.
          4   -1    0    0  501    0  0.00000000000E+00 -0.00000000000E+00 -0.50320079212E+03  0.50320239476E+03  0.12700000000E+01 0.  1.
         25    2    1    2    0    0  0.00000000000E+00  0.00000000000E+00 -0.49549159094E+03  0.51101550444E+03  0.12499971635E+03 0.  0.
    9000005    1    3    3    0    0 -0.37735434032E+01 -0.21807734442E+02 -0.48666266363E+03  0.48716667074E+03  0.10000000000E+01 0.  0.
    9000005    1    3    3    0    0  0.37735434032E+01  0.21807734442E+02 -0.88289273065E+01  0.23848833696E+02  0.10000000000E+01 0.  0.
<mgrwt>
<rscale>  0 0.12499972E+03</rscale>
<asrwt>0</asrwt>
<pdfrwt beam="2">  1        4 0.77423597E-01 0.12499972E+03</pdfrwt>
<pdfrwt beam="1">  1       -4 0.11941476E-02 0.12499972E+03</pdfrwt>
<totfact> 0.55020069E+03</totfact>
</mgrwt>
</event>
<event>
 5    1  0.3217852E-002  0.1250021E+03  0.7818608E-02  0.1235066E+00
          4   -1    0    0  501    0  0.00000000000E+00  0.00000000000E+00  0.15568969716E+02  0.15620682380E+02  0.12700000000E+01 0. -1.
         -4   -1    0    0    0  501 -0.00000000000E+00 -0.00000000000E+00 -0.25043864946E+03  0.25044186959E+03  0.12700000000E+01 0. -1.
         25    2    1    2    0    0  0.00000000000E+00  0.00000000000E+00 -0.23486967974E+03  0.26606255197E+03  0.12500206037E+03 0.  0.
    9000005    1    3    3    0    0  0.30460315849E+02  0.53755005080E+02 -0.97474037772E+02  0.11541065571E+03  0.10000000000E+01 0.  0.
    9000005    1    3    3    0    0 -0.30460315849E+02 -0.53755005080E+02 -0.13739564197E+03  0.15065189626E+03  0.10000000000E+01 0.  0.
<mgrwt>
<rscale>  0 0.12500206E+03</rscale>
<asrwt>0</asrwt>
<pdfrwt beam="1">  1        4 0.23994519E-02 0.12500206E+03</pdfrwt>
<pdfrwt beam="2">  1       -4 0.38533246E-01 0.12500206E+03</pdfrwt>
<totfact> 0.80059056E+03</totfact>
</mgrwt>
</event>
<event>
 5    1  0.3217852E-002  0.1250011E+03  0.7818608E-02  0.1235068E+00
         -4   -1    0    0    0  501 -0.00000000000E+00  0.00000000000E+00  0.22058326252E+02  0.22094855895E+02  0.12700000000E+01 0.  1.
          4   -1    0    0  501    0  0.00000000000E+00 -0.00000000000E+00 -0.17690504911E+03  0.17690960772E+03  0.12700000000E+01 0.  1.
         25    2    1    2    0    0  0.00000000000E+00  0.00000000000E+00 -0.15484672286E+03  0.19900446361E+03  0.12500107582E+03 0.  0.
    9000005    1    3    3    0    0 -0.30681307179E+02  0.28828826023E+02 -0.38989413435E+01  0.42292381863E+02  0.10000000000E+01 0.  0.
    9000005    1    3    3    0    0  0.30681307179E+02 -0.28828826023E+02 -0.15094778152E+03  0.15671208175E+03  0.10000000000E+01 0.  0.
<mgrwt>
<rscale>  0 0.12500108E+03</rscale>
<asrwt>0</asrwt>
<pdfrwt beam="2">  1        4 0.27219321E-01 0.12500108E+03</pdfrwt>
<pdfrwt beam="1">  1       -4 0.33967494E-02 0.12500108E+03</pdfrwt>
<totfact> 0.90301510E+03</totfact>
</mgrwt>
</event>
<event>
 5    1  0.3217852E-002  0.1250007E+03  0.7818608E-02  0.1235068E+00
         -4   -1    0    0    0  501 -0.00000000000E+00  0.00000000000E+00  0.35485909064E+03  0.35486136322E+03  0.12700000000E+01 0.  1.
          4   -1    0    0  501    0  0.00000000000E+00 -0.00000000000E+00 -0.10969059819E+02  0.11042335501E+02  0.12700000000E+01 0.  1.
         25    2    1    2    0    0  0.00000000000E+00  0.00000000000E+00  0.34389003082E+03  0.36590369872E+03  0.12500065377E+03 0.  0.
    9000005    1    3    3    0    0 -0.53418047999E+02  0.16829912699E+02  0.25309577135E+03  0.25922037591E+03  0.10000000000E+01 0.  0.
    9000005    1    3    3    0    0  0.53418047999E+02 -0.16829912699E+02  0.90794259466E+02  0.10668332281E+03  0.10000000000E+01 0.  0.
<mgrwt>
<rscale>  0 0.12500065E+03</rscale>
<asrwt>0</asrwt>
<pdfrwt beam="2">  1        4 0.16933588E-02 0.12500065E+03</pdfrwt>
<pdfrwt beam="1">  1       -4 0.54599527E-01 0.12500065E+03</pdfrwt>
<totfact> 0.68008684E+03</totfact>
</mgrwt>
</event>
<event>
 5    1  0.3217852E-002  0.1250011E+03  0.7818608E-02  0.1235068E+00
         -4   -1    0    0    0  501 -0.00000000000E+00  0.00000000000E+00  0.93361491269E+02  0.93370128799E+02  0.12700000000E+01 0.  1.
          4   -1    0    0  501    0  0.00000000000E+00 -0.00000000000E+00 -0.41820588875E+02  0.41839867995E+02  0.12700000000E+01 0.  1.
         25    2    1    2    0    0  0.00000000000E+00  0.00000000000E+00  0.51540902394E+02  0.13520999679E+03  0.12500111445E+03 0.  0.
    9000005    1    3    3    0    0  0.16631990503E+01  0.56555763701E+02  0.54470388177E+02  0.78545170616E+02  0.10000000000E+01 0.  0.
    9000005    1    3    3    0    0 -0.16631990503E+01 -0.56555763701E+02 -0.29294857834E+01  0.56664826179E+02  0.10000000000E+01 0.  0.
<mgrwt>
<rscale>  0 0.12500111E+03</rscale>
<asrwt>0</asrwt>
<pdfrwt beam="2">  1        4 0.64360843E-02 0.12500111E+03</pdfrwt>
<pdfrwt beam="1">  1       -4 0.14365454E-01 0.12500111E+03</pdfrwt>
<totfact> 0.10233389E+04</totfact>
</mgrwt>
</event>
<event>
 5    1  0.3217852E-002  0.1250029E+03  0.7818608E-02  0.1235065E+00
          4   -1    0    0  501    0  0.00000000000E+00  0.00000000000E+00  0.56523949392E+02  0.56538214995E+02  0.12700000000E+01 0. -1.
         -4   -1    0    0    0  501 -0.00000000000E+00 -0.00000000000E+00 -0.69082218820E+02  0.69093891605E+02  0.12700000000E+01 0. -1.
         25    2    1    2    0    0  0.00000000000E+00  0.00000000000E+00 -0.12558269428E+02  0.12563210660E+03  0.12500286428E+03 0.  0.
    9000005    1    3    3    0    0  0.29855275958E+02  0.96223726083E+01 -0.60602132930E+02  0.68246216546E+02  0.10000000000E+01 0.  0.
    9000005    1    3    3    0    0 -0.29855275958E+02 -0.96223726083E+01  0.48043863502E+02  0.57385890054E+02  0.10000000000E+01 0.  0.
<mgrwt>
<rscale>  0 0.12500286E+03</rscale>
<asrwt>0</asrwt>
<pdfrwt beam="1">  1        4 0.86979874E-02 0.12500286E+03</pdfrwt>
<pdfrwt beam="2">  1       -4 0.10630029E-01 0.12500286E+03</pdfrwt>
<totfact> 0.10438365E+04</totfact>
</mgrwt>
</event>
<event>
 5    1  0.3217852E-002  0.1249993E+03  0.7818608E-02  0.1235070E+00
         -4   -1    0    0    0  501 -0.00000000000E+00  0.00000000000E+00  0.48892883228E+01  0.50515384096E+01  0.12700000000E+01 0.  1.
          4   -1    0    0  501    0  0.00000000000E+00 -0.00000000000E+00 -0.78572858146E+03  0.78572960783E+03  0.12700000000E+01 0.  1.
         25    2    1    2    0    0  0.00000000000E+00  0.00000000000E+00 -0.78083929314E+03  0.79078114624E+03  0.12499927817E+03 0.  0.
    9000005    1    3    3    0    0  0.30618529227E+02 -0.19842860282E+02 -0.69459829407E+02  0.78465924690E+02  0.10000000000E+01 0.  0.
    9000005    1    3    3    0    0 -0.30618529227E+02  0.19842860282E+02 -0.71137946373E+03  0.71231522155E+03  0.10000000000E+01 0.  0.
<mgrwt>
<rscale>  0 0.12499928E+03</rscale>
<asrwt>0</asrwt>
<pdfrwt beam="2">  1        4 0.12089378E+00 0.12499928E+03</pdfrwt>
<pdfrwt beam="1">  1       -4 0.76475855E-03 0.12499928E+03</pdfrwt>
<totfact> 0.38680247E+03</totfact>
</mgrwt>
</event>
<event>
 5    1  0.3217852E-002  0.1250002E+03  0.7818608E-02  0.1235069E+00
          4   -1    0    0  501    0  0.00000000000E+00  0.00000000000E+00  0.17107599961E+04  0.17107604675E+04  0.12700000000E+01 0.  1.
         -4   -1    0    0    0  501 -0.00000000000E+00 -0.00000000000E+00 -0.21062473848E+01  0.24595076837E+01  0.12700000000E+01 0.  1.
         25    2    1    2    0    0  0.00000000000E+00  0.00000000000E+00  0.17086537487E+04  0.17132199751E+04  0.12500020146E+03 0.  0.
    9000005    1    3    3    0    0 -0.55248504839E+02  0.22402479512E+02  0.59755207628E+03  0.60051956857E+03  0.10000000000E+01 0.  0.
    9000005    1    3    3    0    0  0.55248504839E+02 -0.22402479512E+02  0.11111016724E+04  0.11127004066E+04  0.10000000000E+01 0.  0.
<mgrwt>
<rscale>  0 0.12500020E+03</rscale>
<asrwt>0</asrwt>
<pdfrwt beam="1">  1        4 0.26322113E+00 0.12500020E+03</pdfrwt>
<pdfrwt beam="2">  1       -4 0.35124809E-03 0.12500020E+03</pdfrwt>
<totfact> 0.14088466E+03</totfact>
</mgrwt>
</event>
<event>
 5    1  0.3217852E-002  0.1250005E+03  0.7818608E-02  0.1235069E+00
          4   -1    0    0  501    0  0.00000000000E+00  0.00000000000E+00  0.24075590850E+02  0.24109064162E+02  0.12700000000E+01 0. -1.
         -4   -1    0    0    0  501 -0.00000000000E+00 -0.00000000000E+00 -0.16210194339E+03  0.16210691827E+03  0.12700000000E+01 0. -1.
         25    2    1    2    0    0  0.00000000000E+00  0.00000000000E+00 -0.13802635254E+03  0.18621598243E+03  0.12500047247E+03 0.  0.
    9000005    1    3    3    0    0  0.57226692660E+02  0.19789716740E+02 -0.92031784904E+02  0.11016976298E+03  0.10000000000E+01 0.  0.
    9000005    1    3    3    0    0 -0.57226692660E+02 -0.19789716740E+02 -0.45994567635E+02  0.76046219455E+02  0.10000000000E+01 0.  0.
<mgrwt>
<rscale>  0 0.12500047E+03</rscale>
<asrwt>0</asrwt>
<pdfrwt beam="1">  1        4 0.37068947E-02 0.12500047E+03</pdfrwt>
<pdfrwt beam="2">  1       -4 0.24941717E-01 0.12500047E+03</pdfrwt>
<totfact> 0.92508943E+03</totfact>
</mgrwt>
</event>
<event>
 5    1  0.3217852E-002  0.1249995E+03  0.7818608E-02  0.1235070E+00
          4   -1    0    0  501    0  0.00000000000E+00  0.00000000000E+00  0.32632458367E+01  0.35016672301E+01  0.12700000000E+01 0. -1.
         -4   -1    0    0    0  501 -0.00000000000E+00 -0.00000000000E+00 -0.11546087438E+04  0.11546094423E+04  0.12700000000E+01 0. -1.
         25    2    1    2    0    0  0.00000000000E+00  0.00000000000E+00 -0.11513454980E+04  0.11581111095E+04  0.12499954499E+03 0.  0.
    9000005    1    3    3    0    0 -0.52552621380E+02 -0.21666122520E+02 -0.81620817693E+03  0.81818579001E+03  0.10000000000E+01 0.  0.
    9000005    1    3    3    0    0  0.52552621380E+02  0.21666122520E+02 -0.33513732107E+03  0.33992531952E+03  0.10000000000E+01 0.  0.
<mgrwt>
<rscale>  0 0.12499954E+03</rscale>
<asrwt>0</asrwt>
<pdfrwt beam="1">  1        4 0.52043258E-03 0.12499954E+03</pdfrwt>
<pdfrwt beam="2">  1       -4 0.17765019E+00 0.12499954E+03</pdfrwt>
<totfact> 0.25836561E+03</totfact>
</mgrwt>
</event>
<event>
 5    1  0.3217852E-002  0.1249992E+03  0.7818608E-02  0.1235070E+00
         -4   -1    0    0    0  501 -0.00000000000E+00  0.00000000000E+00  0.13433223618E+02  0.13493124055E+02  0.12700000000E+01 0. -1.
          4   -1    0    0  501    0  0.00000000000E+00 -0.00000000000E+00 -0.29007842187E+03  0.29008120196E+03  0.12700000000E+01 0. -1.
         25    2    1    2    0    0  0.00000000000E+00  0.00000000000E+00 -0.27664519825E+03  0.30357432602E+03  0.12499922281E+03 0.  0.
    9000005    1    3    3    0    0 -0.11568492371E+01 -0.62005330497E+02 -0.11963616905E+03  0.13475834763E+03  0.10000000000E+01 0.  0.
    9000005    1    3    3    0    0  0.11568492371E+01  0.62005330497E+02 -0.15700902920E+03  0.16881597839E+03  0.10000000000E+01 0.  0.
<mgrwt>
<rscale>  0 0.12499922E+03</rscale>
<asrwt>0</asrwt>
<pdfrwt beam="2">  1        4 0.44632266E-01 0.12499922E+03</pdfrwt>
<pdfrwt beam="1">  1       -4 0.20714716E-02 0.12499922E+03</pdfrwt>
<totfact> 0.75153957E+03</totfact>
</mgrwt>
</event>
<event>
 5    1  0.3217852E-002  0.1250010E+03  0.7818608E-02  0.1235068E+00
          4   -1    0    0  501    0  0.00000000000E+00  0.00000000000E+00  0.32083781329E+03  0.32084032686E+03  0.12700000000E+01 0. -1.
         -4   -1    0    0    0  501 -0.00000000000E+00 -0.00000000000E+00 -0.12139653853E+02  0.12205904132E+02  0.12700000000E+01 0. -1.
         25    2    1    2    0    0  0.00000000000E+00  0.00000000000E+00  0.30869815944E+03  0.33304623099E+03  0.12500095334E+03 0.  0.
    9000005    1    3    3    0    0  0.57738953778E+02 -0.22546054430E+02  0.17552994295E+03  0.18615550550E+03  0.10000000000E+01 0.  0.
    9000005    1    3    3    0    0 -0.57738953778E+02  0.22546054430E+02  0.13316821648E+03  0.14689072549E+03  0.10000000000E+01 0.  0.
<mgrwt>
<rscale>  0 0.12500095E+03</rscale>
<asrwt>0</asrwt>
<pdfrwt beam="1">  1        4 0.49364953E-01 0.12500095E+03</pdfrwt>
<pdfrwt beam="2">  1       -4 0.18729286E-02 0.12500095E+03</pdfrwt>
<totfact> 0.71629338E+03</totfact>
</mgrwt>
</event>
<event>
 5    1  0.3217852E-002  0.1249971E+03  0.7818608E-02  0.1235074E+00
         -4   -1    0    0    0  501 -0.00000000000E+00  0.00000000000E+00  0.41733313731E+03  0.41733506970E+03  0.12700000000E+01 0. -1.
          4   -1    0    0  501    0  0.00000000000E+00 -0.00000000000E+00 -0.93145453196E+01  0.94007262757E+01  0.12700000000E+01 0. -1.
         25    2    1    2    0    0  0.00000000000E+00  0.00000000000E+00  0.40801859199E+03  0.42673579597E+03  0.12499707258E+03 0.  0.
    9000005    1    3    3    0    0  0.41756863575E+02  0.43232505890E+02  0.14563328530E+03  0.15755233737E+03  0.10000000000E+01 0.  0.
    9000005    1    3    3    0    0 -0.41756863575E+02 -0.43232505890E+02  0.26238530669E+03  0.26918345861E+03  0.10000000000E+01 0.  0.
<mgrwt>
<rscale>  0 0.12499707E+03</rscale>
<asrwt>0</asrwt>
<pdfrwt beam="2">  1        4 0.14397848E-02 0.12499707E+03</pdfrwt>
<pdfrwt beam="1">  1       -4 0.64211882E-01 0.12499707E+03</pdfrwt>
<totfact> 0.62036989E+03</totfact>
</mgrwt>
</event>
<event>
 5    1  0.3217852E-002  0.1249971E+03  0.7818608E-02  0.1235074E+00
          4   -1    0    0  501    0  0.00000000000E+00  0.00000000000E+00  0.15679341805E+03  0.15679856135E+03  0.12700000000E+01 0.  1.
         -4   -1    0    0    0  501 -0.00000000000E+00 -0.00000000000E+00 -0.24890454779E+02  0.24922833689E+02  0.12700000000E+01 0.  1.
         25    2    1    2    0    0  0.00000000000E+00  0.00000000000E+00  0.13190296327E+03  0.18172139504E+03  0.12499709476E+03 0.  0.
    9000005    1    3    3    0    0  0.31820579953E+02 -0.12991820831E+02 -0.99217018201E+01  0.35787943277E+02  0.10000000000E+01 0.  0.
    9000005    1    3    3    0    0 -0.31820579953E+02  0.12991820831E+02  0.14182466509E+03  0.14593345177E+03  0.10000000000E+01 0.  0.
<mgrwt>
<rscale>  0 0.12499709E+03</rscale>
<asrwt>0</asrwt>
<pdfrwt beam="1">  1        4 0.24124951E-01 0.12499709E+03</pdfrwt>
<pdfrwt beam="2">  1       -4 0.38321870E-02 0.12499709E+03</pdfrwt>
<totfact> 0.93314138E+03</totfact>
</mgrwt>
</event>
<event>
 5    1  0.3217852E-002  0.1249917E+03  0.7818608E-02  0.1235082E+00
         -4   -1    0    0    0  501 -0.00000000000E+00  0.00000000000E+00  0.14451383234E+03  0.14451941267E+03  0.12700000000E+01 0. -1.
          4   -1    0    0  501    0  0.00000000000E+00 -0.00000000000E+00 -0.27005677791E+02  0.27035523538E+02  0.12700000000E+01 0. -1.
         25    2    1    2    0    0  0.00000000000E+00  0.00000000000E+00  0.11750815455E+03  0.17155493621E+03  0.12499171873E+03 0.  0.
    9000005    1    3    3    0    0  0.18289860286E+02 -0.10280912955E+02 -0.22033257692E+02  0.30441429089E+02  0.10000000000E+01 0.  0.
    9000005    1    3    3    0    0 -0.18289860286E+02  0.10280912955E+02  0.13954141224E+03  0.14111350712E+03  0.10000000000E+01 0.  0.
<mgrwt>
<rscale>  0 0.12499172E+03</rscale>
<asrwt>0</asrwt>
<pdfrwt beam="2">  1        4 0.41574447E-02 0.12499172E+03</pdfrwt>
<pdfrwt beam="1">  1       -4 0.22235623E-01 0.12499172E+03</pdfrwt>
<totfact> 0.95177296E+03</totfact>
</mgrwt>
</event>
