<event>
 5    1  0.3212987E-002  0.1250054E+03  0.7818608E-02  0.1235061E+00
          4   -1    0    0  501    0  0.00000000000E+00  0.00000000000E+00  0.41693015569E+01  0.43584372741E+01  0.12700000000E+01 0.  1.
         -4   -1    0    0    0  501 -0.00000000000E+00 -0.00000000000E+00 -0.91601697821E+03  0.91601785860E+03  0.12700000000E+01 0.  1.
         25    2    1    2    0    0  0.00000000000E+00  0.00000000000E+00 -0.91184767665E+03  0.92037629587E+03  0.12500536222E+03 0.  0.
    9000005    1    3    3    0    0 -0.49372940858E+02 -0.27957749491E+02 -0.64880143666E+03  0.65127845601E+03  0.10000000000E+01 0.  0.
    9000005    1    3    3    0    0  0.49372940858E+02  0.27957749491E+02 -0.26304623999E+03  0.26909783986E+03  0.10000000000E+01 0.  0.
<mgrwt>
<rscale>  0 0.12500536E+03</rscale>
<asrwt>0</asrwt>
<pdfrwt beam="1">  1        4 0.65604836E-03 0.12500536E+03</pdfrwt>
<pdfrwt beam="2">  1       -4 0.14094015E+00 0.12500536E+03</pdfrwt>
<totfact> 0.33387731E+03</totfact>
</mgrwt>
</event>
<event>
 5    1  0.3212987E-002  0.1249991E+03  0.7818608E-02  0.1235071E+00
          4   -1    0    0  501    0  0.00000000000E+00  0.00000000000E+00  0.85530494423E+02  0.85539922704E+02  0.12700000000E+01 0. -1.
         -4   -1    0    0    0  501 -0.00000000000E+00 -0.00000000000E+00 -0.45649412549E+02  0.45667075295E+02  0.12700000000E+01 0. -1.
         25    2    1    2    0    0  0.00000000000E+00  0.00000000000E+00  0.39881081874E+02  0.13120699800E+03  0.12499910253E+03 0.  0.
    9000005    1    3    3    0    0  0.45978892446E+02  0.38073418838E+02  0.54163062470E+00  0.59707094522E+02  0.10000000000E+01 0.  0.
    9000005    1    3    3    0    0 -0.45978892446E+02 -0.38073418838E+02  0.39339451250E+02  0.71499903477E+02  0.10000000000E+01 0.  0.
<mgrwt>
<rscale>  0 0.12499910E+03</rscale>
<asrwt>0</asrwt>
<pdfrwt beam="1">  1        4 0.13160622E-01 0.12499910E+03</pdfrwt>
<pdfrwt beam="2">  1       -4 0.70250705E-02 0.12499910E+03</pdfrwt>
<totfact> 0.10318863E+04</totfact>
</mgrwt>
</event>
<event>
 5    1  0.3212987E-002  0.1250026E+03  0.7818608E-02  0.1235065E+00
          4   -1    0    0  501    0  0.00000000000E+00  0.00000000000E+00  0.71828740531E+02  0.71839967053E+02  0.12700000000E+01 0.  1.
         -4   -1    0    0    0  501 -0.00000000000E+00 -0.00000000000E+00 -0.54362202786E+02  0.54377035518E+02  0.12700000000E+01 0.  1.
         25    2    1    2    0    0  0.00000000000E+00  0.00000000000E+00  0.17466537745E+02  0.12621700257E+03  0.12500260716E+03 0.  0.
    9000005    1    3    3    0    0  0.77279214619E+01  0.40587516102E+02 -0.38608751374E+02  0.56557076623E+02  0.10000000000E+01 0.  0.
    9000005    1    3    3    0    0 -0.77279214619E+01 -0.40587516102E+02  0.56075289118E+02  0.69659925949E+02  0.10000000000E+01 0.  0.
<mgrwt>
<rscale>  0 0.12500261E+03</rscale>
<asrwt>0</asrwt>
<pdfrwt beam="1">  1        4 0.11052580E-01 0.12500261E+03</pdfrwt>
<pdfrwt beam="2">  1       -4 0.83654204E-02 0.12500261E+03</pdfrwt>
<totfact> 0.10425594E+04</totfact>
</mgrwt>
</event>
<event>
 5    1  0.3212987E-002  0.1249983E+03  0.7818608E-02  0.1235072E+00
          4   -1    0    0  501    0  0.00000000000E+00  0.00000000000E+00  0.74194922309E+01  0.75274009435E+01  0.12700000000E+01 0.  1.
         -4   -1    0    0    0  501 -0.00000000000E+00 -0.00000000000E+00 -0.52256117025E+03  0.52256271351E+03  0.12700000000E+01 0.  1.
         25    2    1    2    0    0  0.00000000000E+00  0.00000000000E+00 -0.51514167802E+03  0.53009011446E+03  0.12499832403E+03 0.  0.
    9000005    1    3    3    0    0 -0.19190526851E+02 -0.41909988223E+02 -0.43651064788E+03  0.43893879886E+03  0.10000000000E+01 0.  0.
    9000005    1    3    3    0    0  0.19190526851E+02  0.41909988223E+02 -0.78631030137E+02  0.91151315591E+02  0.10000000000E+01 0.  0.
<mgrwt>
<rscale>  0 0.12499832E+03</rscale>
<asrwt>0</asrwt>
<pdfrwt beam="1">  1        4 0.11498801E-02 0.12499832E+03</pdfrwt>
<pdfrwt beam="2">  1       -4 0.80402417E-01 0.12499832E+03</pdfrwt>
<totfact> 0.53605043E+03</totfact>
</mgrwt>
</event>
<event>
 5    1  0.3212987E-002  0.1249955E+03  0.7818608E-02  0.1235076E+00
         -4   -1    0    0    0  501 -0.00000000000E+00  0.00000000000E+00  0.34074132416E+02  0.34097791716E+02  0.12700000000E+01 0.  1.
          4   -1    0    0  501    0  0.00000000000E+00 -0.00000000000E+00 -0.11456449484E+03  0.11457153389E+03  0.12700000000E+01 0.  1.
         25    2    1    2    0    0  0.00000000000E+00  0.00000000000E+00 -0.80490362424E+02  0.14866932561E+03  0.12499547965E+03 0.  0.
    9000005    1    3    3    0    0  0.28756562823E+02  0.41789240634E+02  0.31586569124E+01  0.50835594337E+02  0.10000000000E+01 0.  0.
    9000005    1    3    3    0    0 -0.28756562823E+02 -0.41789240634E+02 -0.83649019336E+02  0.97833731269E+02  0.10000000000E+01 0.  0.
<mgrwt>
<rscale>  0 0.12499548E+03</rscale>
<asrwt>0</asrwt>
<pdfrwt beam="2">  1        4 0.17627668E-01 0.12499548E+03</pdfrwt>
<pdfrwt beam="1">  1       -4 0.52445357E-02 0.12499548E+03</pdfrwt>
<totfact> 0.99579743E+03</totfact>
</mgrwt>
</event>
<event>
 5    1  0.3212987E-002  0.1249916E+03  0.7818608E-02  0.1235082E+00
         -4   -1    0    0    0  501 -0.00000000000E+00  0.00000000000E+00  0.19430862473E+02  0.19472321804E+02  0.12700000000E+01 0.  1.
          4   -1    0    0  501    0  0.00000000000E+00 -0.00000000000E+00 -0.20074873516E+03  0.20075275233E+03  0.12700000000E+01 0.  1.
         25    2    1    2    0    0  0.00000000000E+00  0.00000000000E+00 -0.18131787269E+03  0.22022507414E+03  0.12499164901E+03 0.  0.
    9000005    1    3    3    0    0  0.34585147427E+02  0.51556007836E+02 -0.78129019416E+02  0.99796282704E+02  0.10000000000E+01 0.  0.
    9000005    1    3    3    0    0 -0.34585147427E+02 -0.51556007836E+02 -0.10318885327E+03  0.12042879143E+03  0.10000000000E+01 0.  0.
<mgrwt>
<rscale>  0 0.12499165E+03</rscale>
<asrwt>0</asrwt>
<pdfrwt beam="2">  1        4 0.30887918E-01 0.12499165E+03</pdfrwt>
<pdfrwt beam="1">  1       -4 0.29928618E-02 0.12499165E+03</pdfrwt>
<totfact> 0.86848947E+03</totfact>
</mgrwt>
</event>
<event>
 5    1  0.3212987E-002  0.1249953E+03  0.7818608E-02  0.1235077E+00
         -4   -1    0    0    0  501 -0.00000000000E+00  0.00000000000E+00  0.36297925907E+03  0.36298148082E+03  0.12700000000E+01 0. -1.
          4   -1    0    0  501    0  0.00000000000E+00 -0.00000000000E+00 -0.10721098866E+02  0.10796057655E+02  0.12700000000E+01 0. -1.
         25    2    1    2    0    0  0.00000000000E+00  0.00000000000E+00  0.35225816021E+03  0.37377753847E+03  0.12499534725E+03 0.  0.
    9000005    1    3    3    0    0  0.43094111621E+02 -0.29360492928E+02  0.73154884191E+02  0.89843074760E+02  0.10000000000E+01 0.  0.
    9000005    1    3    3    0    0 -0.43094111621E+02  0.29360492928E+02  0.27910327601E+03  0.28393446371E+03  0.10000000000E+01 0.  0.
<mgrwt>
<rscale>  0 0.12499535E+03</rscale>
<asrwt>0</asrwt>
<pdfrwt beam="2">  1        4 0.16553373E-02 0.12499535E+03</pdfrwt>
<pdfrwt beam="1">  1       -4 0.55848883E-01 0.12499535E+03</pdfrwt>
<totfact> 0.67192498E+03</totfact>
</mgrwt>
</event>
<event>
 5    1  0.3212987E-002  0.1250030E+03  0.7818608E-02  0.1235065E+00
         -4   -1    0    0    0  501 -0.00000000000E+00  0.00000000000E+00  0.30711052023E+02  0.30737300083E+02  0.12700000000E+01 0. -1.
          4   -1    0    0  501    0  0.00000000000E+00 -0.00000000000E+00 -0.12711599396E+03  0.12712233800E+03  0.12700000000E+01 0. -1.
         25    2    1    2    0    0  0.00000000000E+00  0.00000000000E+00 -0.96404941932E+02  0.15785963809E+03  0.12500300999E+03 0.  0.
    9000005    1    3    3    0    0  0.38535186501E+02  0.21070902302E+01 -0.11027543523E+03  0.11683780229E+03  0.10000000000E+01 0.  0.
    9000005    1    3    3    0    0 -0.38535186501E+02 -0.21070902302E+01  0.13870493299E+02  0.41021835798E+02  0.10000000000E+01 0.  0.
<mgrwt>
<rscale>  0 0.12500301E+03</rscale>
<asrwt>0</asrwt>
<pdfrwt beam="2">  1        4 0.19558814E-01 0.12500301E+03</pdfrwt>
<pdfrwt beam="1">  1       -4 0.47272844E-02 0.12500301E+03</pdfrwt>
<totfact> 0.97750409E+03</totfact>
</mgrwt>
</event>
<event>
 5    1  0.3212987E-002  0.1250196E+03  0.7818608E-02  0.1235039E+00
          4   -1    0    0  501    0  0.00000000000E+00  0.00000000000E+00  0.10574612480E+02  0.10650602288E+02  0.12700000000E+01 0.  1.
         -4   -1    0    0    0  501 -0.00000000000E+00 -0.00000000000E+00 -0.36811485213E+03  0.36811704288E+03  0.12700000000E+01 0.  1.
         25    2    1    2    0    0  0.00000000000E+00  0.00000000000E+00 -0.35754023965E+03  0.37876764517E+03  0.12501962269E+03 0.  0.
    9000005    1    3    3    0    0  0.82846394857E+01 -0.43692015164E+02 -0.31182898449E+03  0.31498562350E+03  0.10000000000E+01 0.  0.
    9000005    1    3    3    0    0 -0.82846394857E+01  0.43692015164E+02 -0.45711255163E+02  0.63782021676E+02  0.10000000000E+01 0.  0.
<mgrwt>
<rscale>  0 0.12501962E+03</rscale>
<asrwt>0</asrwt>
<pdfrwt beam="1">  1        4 0.16328776E-02 0.12501962E+03</pdfrwt>
<pdfrwt beam="2">  1       -4 0.56639058E-01 0.12501962E+03</pdfrwt>
<totfact> 0.66642646E+03</totfact>
</mgrwt>
</event>
<event>
 5    1  0.3212987E-002  0.1249983E+03  0.7818608E-02  0.1235072E+00
         -4   -1    0    0    0  501 -0.00000000000E+00  0.00000000000E+00  0.36783883095E+01  0.38914573819E+01  0.12700000000E+01 0.  1.
          4   -1    0    0  501    0  0.00000000000E+00 -0.00000000000E+00 -0.10318142657E+04  0.10318150473E+04  0.12700000000E+01 0.  1.
         25    2    1    2    0    0  0.00000000000E+00  0.00000000000E+00 -0.10281358774E+04  0.10357065047E+04  0.12499832571E+03 0.  0.
    9000005    1    3    3    0    0 -0.22906362024E+02 -0.32652087735E+02 -0.91267128273E+03  0.91354295497E+03  0.10000000000E+01 0.  0.
    9000005    1    3    3    0    0  0.22906362024E+02  0.32652087735E+02 -0.11546459468E+03  0.12216354972E+03  0.10000000000E+01 0.  0.
<mgrwt>
<rscale>  0 0.12499833E+03</rscale>
<asrwt>0</asrwt>
<pdfrwt beam="2">  1        4 0.15875688E+00 0.12499833E+03</pdfrwt>
<pdfrwt beam="1">  1       -4 0.58235677E-03 0.12499833E+03</pdfrwt>
<totfact> 0.29446417E+03</totfact>
</mgrwt>
</event>
<event>
 5    1  0.3212987E-002  0.1250011E+03  0.7818608E-02  0.1235068E+00
         -4   -1    0    0    0  501 -0.00000000000E+00  0.00000000000E+00  0.33720569677E+03  0.33720808833E+03  0.12700000000E+01 0.  1.
          4   -1    0    0  501    0  0.00000000000E+00 -0.00000000000E+00 -0.11547126526E+02  0.11616756476E+02  0.12700000000E+01 0.  1.
         25    2    1    2    0    0  0.00000000000E+00  0.00000000000E+00  0.32565857024E+03  0.34882484480E+03  0.12500107191E+03 0.  0.
    9000005    1    3    3    0    0 -0.48704517636E+02 -0.25662939022E+02  0.80301813967E+02  0.97365793807E+02  0.10000000000E+01 0.  0.
    9000005    1    3    3    0    0  0.48704517636E+02  0.25662939022E+02  0.24535675628E+03  0.25145905100E+03  0.10000000000E+01 0.  0.
<mgrwt>
<rscale>  0 0.12500107E+03</rscale>
<asrwt>0</asrwt>
<pdfrwt beam="2">  1        4 0.17820213E-02 0.12500107E+03</pdfrwt>
<pdfrwt beam="1">  1       -4 0.51883335E-01 0.12500107E+03</pdfrwt>
<totfact> 0.69852375E+03</totfact>
</mgrwt>
</event>
<event>
 5    1  0.3212987E-002  0.1249987E+03  0.7818608E-02  0.1235071E+00
         -4   -1    0    0    0  501 -0.00000000000E+00  0.00000000000E+00  0.38816231026E+02  0.38837001572E+02  0.12700000000E+01 0. -1.
          4   -1    0    0  501    0  0.00000000000E+00 -0.00000000000E+00 -0.10058067650E+03  0.10058869412E+03  0.12700000000E+01 0. -1.
         25    2    1    2    0    0  0.00000000000E+00  0.00000000000E+00 -0.61764445476E+02  0.13942569570E+03  0.12499871157E+03 0.  0.
    9000005    1    3    3    0    0  0.44326285808E+02  0.55932371447E+00 -0.80011716822E+02  0.91476812829E+02  0.10000000000E+01 0.  0.
    9000005    1    3    3    0    0 -0.44326285808E+02 -0.55932371447E+00  0.18247271346E+02  0.47948882867E+02  0.10000000000E+01 0.  0.
<mgrwt>
<rscale>  0 0.12499871E+03</rscale>
<asrwt>0</asrwt>
<pdfrwt beam="2">  1        4 0.15476165E-01 0.12499871E+03</pdfrwt>
<pdfrwt beam="1">  1       -4 0.59739424E-02 0.12499871E+03</pdfrwt>
<totfact> 0.10145797E+04</totfact>
</mgrwt>
</event>
<event>
 5    1  0.3212987E-002  0.1250040E+03  0.7818608E-02  0.1235063E+00
         -4   -1    0    0    0  501 -0.00000000000E+00  0.00000000000E+00  0.11342132605E+02  0.11413013275E+02  0.12700000000E+01 0. -1.
          4   -1    0    0  501    0  0.00000000000E+00 -0.00000000000E+00 -0.34327887245E+03  0.34328122170E+03  0.12700000000E+01 0. -1.
         25    2    1    2    0    0  0.00000000000E+00  0.00000000000E+00 -0.33193673985E+03  0.35469423498E+03  0.12500400419E+03 0.  0.
    9000005    1    3    3    0    0  0.85750514750E+01 -0.30686348287E+02 -0.31851510873E+03  0.32010632291E+03  0.10000000000E+01 0.  0.
    9000005    1    3    3    0    0 -0.85750514750E+01  0.30686348287E+02 -0.13421631115E+02  0.34587912061E+02  0.10000000000E+01 0.  0.
<mgrwt>
<rscale>  0 0.12500400E+03</rscale>
<asrwt>0</asrwt>
<pdfrwt beam="2">  1        4 0.52817760E-01 0.12500400E+03</pdfrwt>
<pdfrwt beam="1">  1       -4 0.17505768E-02 0.12500400E+03</pdfrwt>
<totfact> 0.69205074E+03</totfact>
</mgrwt>
</event>
<event>
 5    1  0.3212987E-002  0.1249977E+03  0.7818608E-02  0.1235073E+00
          4   -1    0    0  501    0  0.00000000000E+00  0.00000000000E+00  0.18317176085E+02  0.18361150283E+02  0.12700000000E+01 0. -1.
         -4   -1    0    0    0  501 -0.00000000000E+00 -0.00000000000E+00 -0.21294680529E+03  0.21295059235E+03  0.12700000000E+01 0. -1.
         25    2    1    2    0    0  0.00000000000E+00  0.00000000000E+00 -0.19462962920E+03  0.23131174263E+03  0.12499771884E+03 0.  0.
    9000005    1    3    3    0    0  0.15918904311E+02 -0.45722352796E+02 -0.17043202780E+03  0.17717793643E+03  0.10000000000E+01 0.  0.
    9000005    1    3    3    0    0 -0.15918904311E+02  0.45722352796E+02 -0.24197601403E+02  0.54133806197E+02  0.10000000000E+01 0.  0.
<mgrwt>
<rscale>  0 0.12499772E+03</rscale>
<asrwt>0</asrwt>
<pdfrwt beam="1">  1        4 0.28217012E-02 0.12499772E+03</pdfrwt>
<pdfrwt beam="2">  1       -4 0.32764719E-01 0.12499772E+03</pdfrwt>
<totfact> 0.85112916E+03</totfact>
</mgrwt>
</event>
<event>
 5    1  0.3212987E-002  0.1249994E+03  0.7818608E-02  0.1235070E+00
         -4   -1    0    0    0  501 -0.00000000000E+00  0.00000000000E+00  0.18474789788E+02  0.18518389717E+02  0.12700000000E+01 0. -1.
          4   -1    0    0  501    0  0.00000000000E+00 -0.00000000000E+00 -0.21113997278E+03  0.21114379225E+03  0.12700000000E+01 0. -1.
         25    2    1    2    0    0  0.00000000000E+00  0.00000000000E+00 -0.19266518299E+03  0.22966218197E+03  0.12499938035E+03 0.  0.
    9000005    1    3    3    0    0  0.21797674251E+02 -0.38699164649E+02 -0.17709987176E+03  0.18258731754E+03  0.10000000000E+01 0.  0.
    9000005    1    3    3    0    0 -0.21797674251E+02  0.38699164649E+02 -0.15565311228E+02  0.47074864428E+02  0.10000000000E+01 0.  0.
<mgrwt>
<rscale>  0 0.12499938E+03</rscale>
<asrwt>0</asrwt>
<pdfrwt beam="2">  1        4 0.32486719E-01 0.12499938E+03</pdfrwt>
<pdfrwt beam="1">  1       -4 0.28459232E-02 0.12499938E+03</pdfrwt>
<totfact> 0.85362677E+03</totfact>
</mgrwt>
</event>
<event>
 5    1  0.3212987E-002  0.1249964E+03  0.7818608E-02  0.1235075E+00
         -4   -1    0    0    0  501 -0.00000000000E+00  0.00000000000E+00  0.28391067525E+03  0.28391351574E+03  0.12700000000E+01 0. -1.
          4   -1    0    0  501    0  0.00000000000E+00 -0.00000000000E+00 -0.13725706169E+02  0.13784335669E+02  0.12700000000E+01 0. -1.
         25    2    1    2    0    0  0.00000000000E+00  0.00000000000E+00  0.27018496908E+03  0.29769785141E+03  0.12499637281E+03 0.  0.
    9000005    1    3    3    0    0 -0.60202364319E+02 -0.55936900015E+01  0.17270519079E+03  0.18298551026E+03  0.10000000000E+01 0.  0.
    9000005    1    3    3    0    0  0.60202364319E+02  0.55936900015E+01  0.97479778283E+02  0.11471234115E+03  0.10000000000E+01 0.  0.
<mgrwt>
<rscale>  0 0.12499637E+03</rscale>
<asrwt>0</asrwt>
<pdfrwt beam="2">  1        4 0.21163754E-02 0.12499637E+03</pdfrwt>
<pdfrwt beam="1">  1       -4 0.43683296E-01 0.12499637E+03</pdfrwt>
<totfact> 0.75894635E+03</totfact>
</mgrwt>
</event>
<event>
 5    1  0.3212987E-002  0.1249990E+03  0.7818608E-02  0.1235071E+00
         -4   -1    0    0    0  501 -0.00000000000E+00  0.00000000000E+00  0.30338225800E+02  0.30364796141E+02  0.12700000000E+01 0. -1.
          4   -1    0    0  501    0  0.00000000000E+00 -0.00000000000E+00 -0.12866861771E+03  0.12867488521E+03  0.12700000000E+01 0. -1.
         25    2    1    2    0    0  0.00000000000E+00  0.00000000000E+00 -0.98330391912E+02  0.15903968135E+03  0.12499901708E+03 0.  0.
    9000005    1    3    3    0    0 -0.63210351061E+01 -0.31400983268E+02 -0.11743610262E+03  0.12173009255E+03  0.10000000000E+01 0.  0.
    9000005    1    3    3    0    0  0.63210351061E+01  0.31400983268E+02  0.19105710703E+02  0.37309588801E+02  0.10000000000E+01 0.  0.
<mgrwt>
<rscale>  0 0.12499902E+03</rscale>
<asrwt>0</asrwt>
<pdfrwt beam="2">  1        4 0.19797698E-01 0.12499902E+03</pdfrwt>
<pdfrwt beam="1">  1       -4 0.46699454E-02 0.12499902E+03</pdfrwt>
<totfact> 0.97530402E+03</totfact>
</mgrwt>
</event>
<event>
 5    1  0.3212987E-002  0.1249961E+03  0.7818608E-02  0.1235075E+00
         -4   -1    0    0    0  501 -0.00000000000E+00  0.00000000000E+00  0.68009984955E+01  0.69185605826E+01  0.12700000000E+01 0.  1.
          4   -1    0    0  501    0  0.00000000000E+00 -0.00000000000E+00 -0.56928889539E+03  0.56929031198E+03  0.12700000000E+01 0.  1.
         25    2    1    2    0    0  0.00000000000E+00  0.00000000000E+00 -0.56248789690E+03  0.57620887257E+03  0.12499612261E+03 0.  0.
    9000005    1    3    3    0    0  0.22409881453E+01  0.26594368634E+02 -0.20770074171E+02  0.33833096991E+02  0.10000000000E+01 0.  0.
    9000005    1    3    3    0    0 -0.22409881453E+01 -0.26594368634E+02 -0.54171782273E+03  0.54237577558E+03  0.10000000000E+01 0.  0.
<mgrwt>
<rscale>  0 0.12499612E+03</rscale>
<asrwt>0</asrwt>
<pdfrwt beam="2">  1        4 0.87592022E-01 0.12499612E+03</pdfrwt>
<pdfrwt beam="1">  1       -4 0.10554601E-02 0.12499612E+03</pdfrwt>
<totfact> 0.50408960E+03</totfact>
</mgrwt>
</event>
<event>
 5    1  0.3212987E-002  0.1250013E+03  0.7818608E-02  0.1235067E+00
          4   -1    0    0  501    0  0.00000000000E+00  0.00000000000E+00  0.19437490148E+02  0.19478935373E+02  0.12700000000E+01 0. -1.
         -4   -1    0    0    0  501 -0.00000000000E+00 -0.00000000000E+00 -0.20071129539E+03  0.20071531331E+03  0.12700000000E+01 0. -1.
         25    2    1    2    0    0  0.00000000000E+00  0.00000000000E+00 -0.18127380524E+03  0.22019424868E+03  0.12500125874E+03 0.  0.
    9000005    1    3    3    0    0  0.41067490885E+02 -0.47028541240E+02 -0.95332701257E+02  0.11396291690E+03  0.10000000000E+01 0.  0.
    9000005    1    3    3    0    0 -0.41067490885E+02  0.47028541240E+02 -0.85941103982E+02  0.10623133178E+03  0.10000000000E+01 0.  0.
<mgrwt>
<rscale>  0 0.12500126E+03</rscale>
<asrwt>0</asrwt>
<pdfrwt beam="1">  1        4 0.29938804E-02 0.12500126E+03</pdfrwt>
<pdfrwt beam="2">  1       -4 0.30882157E-01 0.12500126E+03</pdfrwt>
<totfact> 0.86835181E+03</totfact>
</mgrwt>
</event>
<event>
 5    1  0.3212987E-002  0.1250104E+03  0.7818608E-02  0.1235053E+00
          4   -1    0    0  501    0  0.00000000000E+00  0.00000000000E+00  0.61511202504E+02  0.61524311727E+02  0.12700000000E+01 0. -1.
         -4   -1    0    0    0  501 -0.00000000000E+00 -0.00000000000E+00 -0.63489010348E+02  0.63501711276E+02  0.12700000000E+01 0. -1.
         25    2    1    2    0    0  0.00000000000E+00  0.00000000000E+00 -0.19778078436E+01  0.12502602300E+03  0.12501037839E+03 0.  0.
    9000005    1    3    3    0    0  0.17325132469E+02  0.27734223268E+02 -0.54254853029E+02  0.63355634576E+02  0.10000000000E+01 0.  0.
    9000005    1    3    3    0    0 -0.17325132469E+02 -0.27734223268E+02  0.52277045186E+02  0.61670388427E+02  0.10000000000E+01 0.  0.
<mgrwt>
<rscale>  0 0.12501038E+03</rscale>
<asrwt>0</asrwt>
<pdfrwt beam="1">  1        4 0.94652473E-02 0.12501038E+03</pdfrwt>
<pdfrwt beam="2">  1       -4 0.97695255E-02 0.12501038E+03</pdfrwt>
<totfact> 0.10449846E+04</totfact>
</mgrwt>
</event>
<event>
 5    1  0.3212987E-002  0.1249997E+03  0.7818608E-02  0.1235070E+00
         -4   -1    0    0    0  501 -0.00000000000E+00  0.00000000000E+00  0.45841878497E+02  0.45859467116E+02  0.12700000000E+01 0. -1.
          4   -1    0    0  501    0  0.00000000000E+00 -0.00000000000E+00 -0.85172296267E+02  0.85181764195E+02  0.12700000000E+01 0. -1.
         25    2    1    2    0    0  0.00000000000E+00  0.00000000000E+00 -0.39330417770E+02  0.13104123131E+03  0.12499969017E+03 0.  0.
    9000005    1    3    3    0    0  0.23800291736E+02  0.45356604004E+02 -0.57194269257E+02  0.76784502664E+02  0.10000000000E+01 0.  0.
    9000005    1    3    3    0    0 -0.23800291736E+02 -0.45356604004E+02  0.17863851488E+02  0.54256728647E+02  0.10000000000E+01 0.  0.
<mgrwt>
<rscale>  0 0.12499969E+03</rscale>
<asrwt>0</asrwt>
<pdfrwt beam="2">  1        4 0.13105511E-01 0.12499969E+03</pdfrwt>
<pdfrwt beam="1">  1       -4 0.70546780E-02 0.12499969E+03</pdfrwt>
<totfact> 0.10322278E+04</totfact>
</mgrwt>
</event>
<event>
 5    1  0.3212987E-002  0.1250071E+03  0.7818608E-02  0.1235058E+00
          4   -1    0    0  501    0  0.00000000000E+00  0.00000000000E+00  0.11407950937E+03  0.11408657835E+03  0.12700000000E+01 0. -1.
         -4   -1    0    0    0  501 -0.00000000000E+00 -0.00000000000E+00 -0.34225444703E+02  0.34248999476E+02  0.12700000000E+01 0. -1.
         25    2    1    2    0    0  0.00000000000E+00  0.00000000000E+00  0.79854064671E+02  0.14833557782E+03  0.12500708781E+03 0.  0.
    9000005    1    3    3    0    0  0.38114519739E+02 -0.51827883234E+01  0.98374592871E+02  0.10563208997E+03  0.10000000000E+01 0.  0.
    9000005    1    3    3    0    0 -0.38114519739E+02  0.51827883234E+01 -0.18520528200E+02  0.42703487850E+02  0.10000000000E+01 0.  0.
<mgrwt>
<rscale>  0 0.12500709E+03</rscale>
<asrwt>0</asrwt>
<pdfrwt beam="1">  1        4 0.17553049E-01 0.12500709E+03</pdfrwt>
<pdfrwt beam="2">  1       -4 0.52678088E-02 0.12500709E+03</pdfrwt>
<totfact> 0.99620621E+03</totfact>
</mgrwt>
</event>
<event>
 5    1  0.3212987E-002  0.1249774E+03  0.7818608E-02  0.1235105E+00
          4   -1    0    0  501    0  0.00000000000E+00  0.00000000000E+00  0.21218160750E+02  0.21256134306E+02  0.12700000000E+01 0. -1.
         -4   -1    0    0    0  501 -0.00000000000E+00 -0.00000000000E+00 -0.18382813003E+03  0.18383251696E+03  0.12700000000E+01 0. -1.
         25    2    1    2    0    0  0.00000000000E+00  0.00000000000E+00 -0.16260996928E+03  0.20508865126E+03  0.12497740903E+03 0.  0.
    9000005    1    3    3    0    0  0.24586743517E+02 -0.55115933601E+02 -0.54765090945E+02  0.81501467960E+02  0.10000000000E+01 0.  0.
    9000005    1    3    3    0    0 -0.24586743517E+02  0.55115933601E+02 -0.10784487834E+03  0.12358718330E+03  0.10000000000E+01 0.  0.
<mgrwt>
<rscale>  0 0.12497741E+03</rscale>
<asrwt>0</asrwt>
<pdfrwt beam="1">  1        4 0.32675910E-02 0.12497741E+03</pdfrwt>
<pdfrwt beam="2">  1       -4 0.28284508E-01 0.12497741E+03</pdfrwt>
<totfact> 0.89329432E+03</totfact>
</mgrwt>
</event>
<event>
 5    1  0.3212987E-002  0.1250008E+03  0.7818608E-02  0.1235068E+00
         -4   -1    0    0    0  501 -0.00000000000E+00  0.00000000000E+00  0.43067536592E+02  0.43086257764E+02  0.12700000000E+01 0.  1.
          4   -1    0    0  501    0  0.00000000000E+00 -0.00000000000E+00 -0.90658917538E+02  0.90667812531E+02  0.12700000000E+01 0.  1.
         25    2    1    2    0    0  0.00000000000E+00  0.00000000000E+00 -0.47591380946E+02  0.13375407029E+03  0.12500084712E+03 0.  0.
    9000005    1    3    3    0    0  0.22393172197E+02 -0.50824064316E+02 -0.54450809550E+02  0.77784512181E+02  0.10000000000E+01 0.  0.
    9000005    1    3    3    0    0 -0.22393172197E+02  0.50824064316E+02  0.68594286039E+01  0.55969558113E+02  0.10000000000E+01 0.  0.
<mgrwt>
<rscale>  0 0.12500085E+03</rscale>
<asrwt>0</asrwt>
<pdfrwt beam="2">  1        4 0.13949650E-01 0.12500085E+03</pdfrwt>
<pdfrwt beam="1">  1       -4 0.66278992E-02 0.12500085E+03</pdfrwt>
<totfact> 0.10264203E+04</totfact>
</mgrwt>
</event>
<event>
 5    1  0.3212987E-002  0.1249957E+03  0.7818608E-02  0.1235076E+00
         -4   -1    0    0    0  501 -0.00000000000E+00  0.00000000000E+00  0.45350156972E+02  0.45367936226E+02  0.12700000000E+01 0.  1.
          4   -1    0    0  501    0  0.00000000000E+00 -0.00000000000E+00 -0.86090090734E+02  0.86099457737E+02  0.12700000000E+01 0.  1.
         25    2    1    2    0    0  0.00000000000E+00  0.00000000000E+00 -0.40739933762E+02  0.13146739396E+03  0.12499573382E+03 0.  0.
    9000005    1    3    3    0    0  0.48805494616E+02  0.30500519282E+02  0.52364981345E+01  0.57798606332E+02  0.10000000000E+01 0.  0.
    9000005    1    3    3    0    0 -0.48805494616E+02 -0.30500519282E+02 -0.45976431896E+02  0.73668787631E+02  0.10000000000E+01 0.  0.
<mgrwt>
<rscale>  0 0.12499573E+03</rscale>
<asrwt>0</asrwt>
<pdfrwt beam="2">  1        4 0.13246717E-01 0.12499573E+03</pdfrwt>
<pdfrwt beam="1">  1       -4 0.69790354E-02 0.12499573E+03</pdfrwt>
<totfact> 0.10314072E+04</totfact>
</mgrwt>
</event>
<event>
 5    1  0.3212987E-002  0.1249891E+03  0.7818608E-02  0.1235086E+00
          4   -1    0    0  501    0  0.00000000000E+00  0.00000000000E+00  0.54608462892E+01  0.56065802584E+01  0.12700000000E+01 0. -1.
         -4   -1    0    0    0  501 -0.00000000000E+00 -0.00000000000E+00 -0.70563137214E+03  0.70563251502E+03  0.12700000000E+01 0. -1.
         25    2    1    2    0    0  0.00000000000E+00  0.00000000000E+00 -0.70017052586E+03  0.71123909528E+03  0.12498914104E+03 0.  0.
    9000005    1    3    3    0    0  0.43836849815E+01  0.15526865415E+02 -0.65679136450E+01  0.17448144121E+02  0.10000000000E+01 0.  0.
    9000005    1    3    3    0    0 -0.43836849815E+01 -0.15526865415E+02 -0.69360261221E+03  0.69379095116E+03  0.10000000000E+01 0.  0.
<mgrwt>
<rscale>  0 0.12498914E+03</rscale>
<asrwt>0</asrwt>
<pdfrwt beam="1">  1        4 0.85142898E-03 0.12498914E+03</pdfrwt>
<pdfrwt beam="2">  1       -4 0.10856990E+00 0.12498914E+03</pdfrwt>
<totfact> 0.42510126E+03</totfact>
</mgrwt>
</event>
<event>
 5    1  0.3212987E-002  0.1249982E+03  0.7818608E-02  0.1235072E+00
         -4   -1    0    0    0  501 -0.00000000000E+00  0.00000000000E+00  0.62871124211E+01  0.64141002951E+01  0.12700000000E+01 0. -1.
          4   -1    0    0  501    0  0.00000000000E+00 -0.00000000000E+00 -0.61495377928E+03  0.61495509067E+03  0.12700000000E+01 0. -1.
         25    2    1    2    0    0  0.00000000000E+00  0.00000000000E+00 -0.60866666685E+03  0.62136919097E+03  0.12499824057E+03 0.  0.
    9000005    1    3    3    0    0  0.60689385504E+02  0.14228642235E+01 -0.37805111141E+03  0.38289537591E+03  0.10000000000E+01 0.  0.
    9000005    1    3    3    0    0 -0.60689385504E+02 -0.14228642235E+01 -0.23061555545E+03  0.23847381506E+03  0.10000000000E+01 0.  0.
<mgrwt>
<rscale>  0 0.12499824E+03</rscale>
<asrwt>0</asrwt>
<pdfrwt beam="2">  1        4 0.94618096E-01 0.12499824E+03</pdfrwt>
<pdfrwt beam="1">  1       -4 0.97711772E-03 0.12499824E+03</pdfrwt>
<totfact> 0.47547774E+03</totfact>
</mgrwt>
</event>
<event>
 5    1  0.3212987E-002  0.1249936E+03  0.7818608E-02  0.1235079E+00
         -4   -1    0    0    0  501 -0.00000000000E+00  0.00000000000E+00  0.13057427730E+02  0.13119044131E+02  0.12700000000E+01 0.  1.
          4   -1    0    0  501    0  0.00000000000E+00 -0.00000000000E+00 -0.29836127478E+03  0.29836397770E+03  0.12700000000E+01 0.  1.
         25    2    1    2    0    0  0.00000000000E+00  0.00000000000E+00 -0.28530384705E+03  0.31148302183E+03  0.12499355082E+03 0.  0.
    9000005    1    3    3    0    0  0.59442787904E+02 -0.18215543403E+02 -0.12697099479E+03  0.14137851525E+03  0.10000000000E+01 0.  0.
    9000005    1    3    3    0    0 -0.59442787904E+02  0.18215543403E+02 -0.15833285226E+03  0.17010450658E+03  0.10000000000E+01 0.  0.
<mgrwt>
<rscale>  0 0.12499355E+03</rscale>
<asrwt>0</asrwt>
<pdfrwt beam="2">  1        4 0.45906677E-01 0.12499355E+03</pdfrwt>
<pdfrwt beam="1">  1       -4 0.20137829E-02 0.12499355E+03</pdfrwt>
<totfact> 0.74191257E+03</totfact>
</mgrwt>
</event>
<event>
 5    1  0.3212987E-002  0.1250010E+03  0.7818608E-02  0.1235068E+00
         -4   -1    0    0    0  501 -0.00000000000E+00  0.00000000000E+00  0.41467010411E+01  0.43368225147E+01  0.12700000000E+01 0.  1.
          4   -1    0    0  501    0  0.00000000000E+00 -0.00000000000E+00 -0.92072652205E+03  0.92072739794E+03  0.12700000000E+01 0.  1.
         25    2    1    2    0    0  0.00000000000E+00  0.00000000000E+00 -0.91657982101E+03  0.92506422045E+03  0.12500097469E+03 0.  0.
    9000005    1    3    3    0    0 -0.21360874928E+02  0.24865160811E+02 -0.85202948466E+03  0.85266042826E+03  0.10000000000E+01 0.  0.
    9000005    1    3    3    0    0  0.21360874928E+02 -0.24865160811E+02 -0.64550336355E+02  0.72403792189E+02  0.10000000000E+01 0.  0.
<mgrwt>
<rscale>  0 0.12500097E+03</rscale>
<asrwt>0</asrwt>
<pdfrwt beam="2">  1        4 0.14166477E+00 0.12500097E+03</pdfrwt>
<pdfrwt beam="1">  1       -4 0.65264685E-03 0.12500097E+03</pdfrwt>
<totfact> 0.33217482E+03</totfact>
</mgrwt>
</event>
<event>
 5    1  0.3212987E-002  0.1250034E+03  0.7818608E-02  0.1235064E+00
         -4   -1    0    0    0  501 -0.00000000000E+00  0.00000000000E+00  0.10101621373E+03  0.10102419679E+03  0.12700000000E+01 0. -1.
          4   -1    0    0  501    0  0.00000000000E+00 -0.00000000000E+00 -0.38651721736E+02  0.38672580638E+02  0.12700000000E+01 0. -1.
         25    2    1    2    0    0  0.00000000000E+00  0.00000000000E+00  0.62364491993E+02  0.13969677742E+03  0.12500343900E+03 0.  0.
    9000005    1    3    3    0    0 -0.26679859546E+02  0.55286211729E+02  0.44266805954E+02  0.75689696935E+02  0.10000000000E+01 0.  0.
    9000005    1    3    3    0    0  0.26679859546E+02 -0.55286211729E+02  0.18097686039E+02  0.64007080489E+02  0.10000000000E+01 0.  0.
<mgrwt>
<rscale>  0 0.12500344E+03</rscale>
<asrwt>0</asrwt>
<pdfrwt beam="2">  1        4 0.59486374E-02 0.12500344E+03</pdfrwt>
<pdfrwt beam="1">  1       -4 0.15543174E-01 0.12500344E+03</pdfrwt>
<totfact> 0.10139088E+04</totfact>
</mgrwt>
</event>
<event>
 5    1  0.3212987E-002  0.1249993E+03  0.7818608E-02  0.1235070E+00
         -4   -1    0    0    0  501 -0.00000000000E+00  0.00000000000E+00  0.87882193247E+02  0.87891369257E+02  0.12700000000E+01 0. -1.
          4   -1    0    0  501    0  0.00000000000E+00 -0.00000000000E+00 -0.44427614516E+02  0.44445762808E+02  0.12700000000E+01 0. -1.
         25    2    1    2    0    0  0.00000000000E+00  0.00000000000E+00  0.43454578731E+02  0.13233713207E+03  0.12499926444E+03 0.  0.
    9000005    1    3    3    0    0  0.15725847293E+02  0.15957230379E+02 -0.40034855773E+02  0.45888180954E+02  0.10000000000E+01 0.  0.
    9000005    1    3    3    0    0 -0.15725847293E+02 -0.15957230379E+02  0.83489434504E+02  0.86448951112E+02  0.10000000000E+01 0.  0.
<mgrwt>
<rscale>  0 0.12499926E+03</rscale>
<asrwt>0</asrwt>
<pdfrwt beam="2">  1        4 0.68371195E-02 0.12499926E+03</pdfrwt>
<pdfrwt beam="1">  1       -4 0.13522439E-01 0.12499926E+03</pdfrwt>
<totfact> 0.10294679E+04</totfact>
</mgrwt>
</event>
<event>
 5    1  0.3212987E-002  0.1249943E+03  0.7818608E-02  0.1235078E+00
          4   -1    0    0  501    0  0.00000000000E+00  0.00000000000E+00  0.29796890124E+03  0.29797160772E+03  0.12700000000E+01 0. -1.
         -4   -1    0    0    0  501 -0.00000000000E+00 -0.00000000000E+00 -0.13074856300E+02  0.13136390953E+02  0.12700000000E+01 0. -1.
         25    2    1    2    0    0  0.00000000000E+00  0.00000000000E+00  0.28489404494E+03  0.31110799868E+03  0.12499427985E+03 0.  0.
    9000005    1    3    3    0    0  0.11651355232E+02  0.40347378878E+02  0.25762048892E+03  0.26102295181E+03  0.10000000000E+01 0.  0.
    9000005    1    3    3    0    0 -0.11651355232E+02 -0.40347378878E+02  0.27273556022E+02  0.50085046862E+02  0.10000000000E+01 0.  0.
<mgrwt>
<rscale>  0 0.12499428E+03</rscale>
<asrwt>0</asrwt>
<pdfrwt beam="1">  1        4 0.45846313E-01 0.12499428E+03</pdfrwt>
<pdfrwt beam="2">  1       -4 0.20164579E-02 0.12499428E+03</pdfrwt>
<totfact> 0.74235684E+03</totfact>
</mgrwt>
</event>
<event>
 5    1  0.3212987E-002  0.1249998E+03  0.7818608E-02  0.1235070E+00
         -4   -1    0    0    0  501 -0.00000000000E+00  0.00000000000E+00  0.12008622390E+03  0.12009293931E+03  0.12700000000E+01 0.  1.
          4   -1    0    0  501    0  0.00000000000E+00 -0.00000000000E+00 -0.32508560072E+02  0.32533357926E+02  0.12700000000E+01 0.  1.
         25    2    1    2    0    0  0.00000000000E+00  0.00000000000E+00  0.87577663829E+02  0.15262629723E+03  0.12499975762E+03 0.  0.
    9000005    1    3    3    0    0 -0.55576493504E+02 -0.41497050423E+01  0.92691761621E+01  0.56505613074E+02  0.10000000000E+01 0.  0.
    9000005    1    3    3    0    0  0.55576493504E+02  0.41497050423E+01  0.78308487667E+02  0.96120684157E+02  0.10000000000E+01 0.  0.
<mgrwt>
<rscale>  0 0.12499976E+03</rscale>
<asrwt>0</asrwt>
<pdfrwt beam="2">  1        4 0.50037411E-02 0.12499976E+03</pdfrwt>
<pdfrwt beam="1">  1       -4 0.18477227E-01 0.12499976E+03</pdfrwt>
<totfact> 0.98783277E+03</totfact>
</mgrwt>
</event>
<event>
 5    1  0.3212987E-002  0.1249971E+03  0.7818608E-02  0.1235074E+00
          4   -1    0    0  501    0  0.00000000000E+00  0.00000000000E+00  0.10782681239E+03  0.10783429125E+03  0.12700000000E+01 0. -1.
         -4   -1    0    0    0  501 -0.00000000000E+00 -0.00000000000E+00 -0.36205500660E+02  0.36227768053E+02  0.12700000000E+01 0. -1.
         25    2    1    2    0    0  0.00000000000E+00  0.00000000000E+00  0.71621311729E+02  0.14406205931E+03  0.12499705852E+03 0.  0.
    9000005    1    3    3    0    0 -0.15058655002E+02 -0.21610177750E+02 -0.29500968812E+02  0.39560966036E+02  0.10000000000E+01 0.  0.
    9000005    1    3    3    0    0  0.15058655002E+02  0.21610177750E+02  0.10112228054E+03  0.10450109327E+03  0.10000000000E+01 0.  0.
<mgrwt>
<rscale>  0 0.12499706E+03</rscale>
<asrwt>0</asrwt>
<pdfrwt beam="1">  1        4 0.16591029E-01 0.12499706E+03</pdfrwt>
<pdfrwt beam="2">  1       -4 0.55723652E-02 0.12499706E+03</pdfrwt>
<totfact> 0.10050746E+04</totfact>
</mgrwt>
</event>
<event>
 5    1  0.3212987E-002  0.1250062E+03  0.7818608E-02  0.1235060E+00
          4   -1    0    0  501    0  0.00000000000E+00  0.00000000000E+00  0.13708618035E+02  0.13767320307E+02  0.12700000000E+01 0.  1.
         -4   -1    0    0    0  501 -0.00000000000E+00 -0.00000000000E+00 -0.28430769289E+03  0.28431052942E+03  0.12700000000E+01 0.  1.
         25    2    1    2    0    0  0.00000000000E+00  0.00000000000E+00 -0.27059907486E+03  0.29807784972E+03  0.12500618058E+03 0.  0.
    9000005    1    3    3    0    0  0.57775228735E+02  0.10255887693E+02 -0.18657892413E+03  0.19559104074E+03  0.10000000000E+01 0.  0.
    9000005    1    3    3    0    0 -0.57775228735E+02 -0.10255887693E+02 -0.84020150726E+02  0.10248680898E+03  0.10000000000E+01 0.  0.
<mgrwt>
<rscale>  0 0.12500618E+03</rscale>
<asrwt>0</asrwt>
<pdfrwt beam="1">  1        4 0.21137521E-02 0.12500618E+03</pdfrwt>
<pdfrwt beam="2">  1       -4 0.43744375E-01 0.12500618E+03</pdfrwt>
<totfact> 0.75830180E+03</totfact>
</mgrwt>
</event>
<event>
 5    1  0.3212987E-002  0.1250015E+03  0.7818608E-02  0.1235067E+00
         -4   -1    0    0    0  501 -0.00000000000E+00  0.00000000000E+00  0.11951980395E+02  0.12019265175E+02  0.12700000000E+01 0.  1.
          4   -1    0    0  501    0  0.00000000000E+00 -0.00000000000E+00 -0.32585078926E+03  0.32585326415E+03  0.12700000000E+01 0.  1.
         25    2    1    2    0    0  0.00000000000E+00  0.00000000000E+00 -0.31389880886E+03  0.33787252933E+03  0.12500153547E+03 0.  0.
    9000005    1    3    3    0    0  0.58969909395E+02 -0.13134192854E+02 -0.11375391485E+03  0.12880570787E+03  0.10000000000E+01 0.  0.
    9000005    1    3    3    0    0 -0.58969909395E+02  0.13134192854E+02 -0.20014489401E+03  0.20906682146E+03  0.10000000000E+01 0.  0.
<mgrwt>
<rscale>  0 0.12500154E+03</rscale>
<asrwt>0</asrwt>
<pdfrwt beam="2">  1        4 0.50136250E-01 0.12500154E+03</pdfrwt>
<pdfrwt beam="1">  1       -4 0.18441326E-02 0.12500154E+03</pdfrwt>
<totfact> 0.71077246E+03</totfact>
</mgrwt>
</event>
<event>
 5    1  0.3212987E-002  0.1249980E+03  0.7818608E-02  0.1235072E+00
         -4   -1    0    0    0  501 -0.00000000000E+00  0.00000000000E+00  0.46014095313E+03  0.46014270575E+03  0.12700000000E+01 0.  1.
          4   -1    0    0  501    0  0.00000000000E+00 -0.00000000000E+00 -0.84396910942E+01  0.85347106433E+01  0.12700000000E+01 0.  1.
         25    2    1    2    0    0  0.00000000000E+00  0.00000000000E+00  0.45170126204E+03  0.46867741639E+03  0.12499796200E+03 0.  0.
    9000005    1    3    3    0    0 -0.23785854167E+02  0.57454749187E+02  0.24905732956E+03  0.25670482752E+03  0.10000000000E+01 0.  0.
    9000005    1    3    3    0    0  0.23785854167E+02 -0.57454749187E+02  0.20264393248E+03  0.21197258887E+03  0.10000000000E+01 0.  0.
<mgrwt>
<rscale>  0 0.12499796E+03</rscale>
<asrwt>0</asrwt>
<pdfrwt beam="2">  1        4 0.13058581E-02 0.12499796E+03</pdfrwt>
<pdfrwt beam="1">  1       -4 0.70798359E-01 0.12499796E+03</pdfrwt>
<totfact> 0.58381860E+03</totfact>
</mgrwt>
</event>
<event>
 5    1  0.3212987E-002  0.1250023E+03  0.7818608E-02  0.1235066E+00
         -4   -1    0    0    0  501 -0.00000000000E+00  0.00000000000E+00  0.78080861108E+02  0.78091188821E+02  0.12700000000E+01 0. -1.
          4   -1    0    0  501    0  0.00000000000E+00 -0.00000000000E+00 -0.50008386897E+02  0.50024510592E+02  0.12700000000E+01 0. -1.
         25    2    1    2    0    0  0.00000000000E+00  0.00000000000E+00  0.28072474212E+02  0.12811569941E+03  0.12500227449E+03 0.  0.
    9000005    1    3    3    0    0 -0.60173105456E+02 -0.31089676588E+00 -0.32507830079E+01  0.60269949952E+02  0.10000000000E+01 0.  0.
    9000005    1    3    3    0    0  0.60173105456E+02  0.31089676588E+00  0.31323257220E+02  0.67845749461E+02  0.10000000000E+01 0.  0.
<mgrwt>
<rscale>  0 0.12500227E+03</rscale>
<asrwt>0</asrwt>
<pdfrwt beam="2">  1        4 0.76956328E-02 0.12500227E+03</pdfrwt>
<pdfrwt beam="1">  1       -4 0.12014475E-01 0.12500227E+03</pdfrwt>
<totfact> 0.10384456E+04</totfact>
</mgrwt>
</event>
<event>
 5    1  0.3212987E-002  0.1249998E+03  0.7818608E-02  0.1235070E+00
          4   -1    0    0  501    0  0.00000000000E+00  0.00000000000E+00  0.58385193533E+02  0.58399004477E+02  0.12700000000E+01 0. -1.
         -4   -1    0    0    0  501 -0.00000000000E+00 -0.00000000000E+00 -0.66876876177E+02  0.66888933817E+02  0.12700000000E+01 0. -1.
         25    2    1    2    0    0  0.00000000000E+00  0.00000000000E+00 -0.84916826435E+01  0.12528793829E+03  0.12499983523E+03 0.  0.
    9000005    1    3    3    0    0  0.11125254976E+02 -0.12257950003E+02 -0.64644260057E+02  0.66737613045E+02  0.10000000000E+01 0.  0.
    9000005    1    3    3    0    0 -0.11125254976E+02  0.12257950003E+02  0.56152577414E+02  0.58550325249E+02  0.10000000000E+01 0.  0.
<mgrwt>
<rscale>  0 0.12499984E+03</rscale>
<asrwt>0</asrwt>
<pdfrwt beam="1">  1        4 0.89843273E-02 0.12499984E+03</pdfrwt>
<pdfrwt beam="2">  1       -4 0.10290740E-01 0.12499984E+03</pdfrwt>
<totfact> 0.10446651E+04</totfact>
</mgrwt>
</event>
<event>
 5    1  0.3212987E-002  0.1250000E+03  0.7818608E-02  0.1235069E+00
         -4   -1    0    0    0  501 -0.00000000000E+00  0.00000000000E+00  0.61688462860E+01  0.62982191531E+01  0.12700000000E+01 0.  1.
          4   -1    0    0  501    0  0.00000000000E+00 -0.00000000000E+00 -0.62652085201E+03  0.62652213920E+03  0.12700000000E+01 0.  1.
         25    2    1    2    0    0  0.00000000000E+00  0.00000000000E+00 -0.62035200572E+03  0.63282035835E+03  0.12499997974E+03 0.  0.
    9000005    1    3    3    0    0  0.57440464609E+02  0.21248070189E+01 -0.18603197400E+03  0.19471213915E+03  0.10000000000E+01 0.  0.
    9000005    1    3    3    0    0 -0.57440464609E+02 -0.21248070189E+01 -0.43432003172E+03  0.43810821920E+03  0.10000000000E+01 0.  0.
<mgrwt>
<rscale>  0 0.12499998E+03</rscale>
<asrwt>0</asrwt>
<pdfrwt beam="2">  1        4 0.96397824E-01 0.12499998E+03</pdfrwt>
<pdfrwt beam="1">  1       -4 0.95910454E-03 0.12499998E+03</pdfrwt>
<totfact> 0.46859375E+03</totfact>
</mgrwt>
</event>
<event>
 5    1  0.3212987E-002  0.1249981E+03  0.7818608E-02  0.1235072E+00
          4   -1    0    0  501    0  0.00000000000E+00  0.00000000000E+00  0.14021056016E+03  0.14021631175E+03  0.12700000000E+01 0.  1.
         -4   -1    0    0    0  501 -0.00000000000E+00 -0.00000000000E+00 -0.27838241739E+02  0.27867195824E+02  0.12700000000E+01 0.  1.
         25    2    1    2    0    0  0.00000000000E+00  0.00000000000E+00  0.11237231842E+03  0.16808350757E+03  0.12499811027E+03 0.  0.
    9000005    1    3    3    0    0 -0.38842329249E+02  0.20333029965E+02  0.11606592350E+03  0.12407440206E+03  0.10000000000E+01 0.  0.
    9000005    1    3    3    0    0  0.38842329249E+02 -0.20333029965E+02 -0.36936050829E+01  0.44009105508E+02  0.10000000000E+01 0.  0.
<mgrwt>
<rscale>  0 0.12499811E+03</rscale>
<asrwt>0</asrwt>
<pdfrwt beam="1">  1        4 0.21573524E-01 0.12499811E+03</pdfrwt>
<pdfrwt beam="2">  1       -4 0.42854763E-02 0.12499811E+03</pdfrwt>
<totfact> 0.95810658E+03</totfact>
</mgrwt>
</event>
<event>
 5    1  0.3212987E-002  0.1250002E+03  0.7818608E-02  0.1235069E+00
         -4   -1    0    0    0  501 -0.00000000000E+00  0.00000000000E+00  0.34377844974E+01  0.36648686540E+01  0.12700000000E+01 0. -1.
          4   -1    0    0  501    0  0.00000000000E+00 -0.00000000000E+00 -0.10997169241E+04  0.10997176574E+04  0.12700000000E+01 0. -1.
         25    2    1    2    0    0  0.00000000000E+00  0.00000000000E+00 -0.10962791396E+04  0.11033825261E+04  0.12500018771E+03 0.  0.
    9000005    1    3    3    0    0  0.45089279743E+02 -0.31217704890E+02 -0.81260848607E+03  0.81445757402E+03  0.10000000000E+01 0.  0.
    9000005    1    3    3    0    0 -0.45089279743E+02  0.31217704890E+02 -0.28367065353E+03  0.28892495206E+03  0.10000000000E+01 0.  0.
<mgrwt>
<rscale>  0 0.12500019E+03</rscale>
<asrwt>0</asrwt>
<pdfrwt beam="2">  1        4 0.16920447E+00 0.12500019E+03</pdfrwt>
<pdfrwt beam="1">  1       -4 0.54641522E-03 0.12500019E+03</pdfrwt>
<totfact> 0.27384543E+03</totfact>
</mgrwt>
</event>
<event>
 5    1  0.3212987E-002  0.1250047E+03  0.7818608E-02  0.1235062E+00
          4   -1    0    0  501    0  0.00000000000E+00  0.00000000000E+00  0.18789867326E+03  0.18790296515E+03  0.12700000000E+01 0.  1.
         -4   -1    0    0    0  501 -0.00000000000E+00 -0.00000000000E+00 -0.20766781699E+02  0.20805579111E+02  0.12700000000E+01 0.  1.
         25    2    1    2    0    0  0.00000000000E+00  0.00000000000E+00  0.16713189156E+03  0.20870854426E+03  0.12500474900E+03 0.  0.
    9000005    1    3    3    0    0 -0.48545771547E+02 -0.14785776071E+02  0.14446043857E+03  0.15311802448E+03  0.10000000000E+01 0.  0.
    9000005    1    3    3    0    0  0.48545771547E+02  0.14785776071E+02  0.22671452995E+02  0.55590519785E+02  0.10000000000E+01 0.  0.
<mgrwt>
<rscale>  0 0.12500475E+03</rscale>
<asrwt>0</asrwt>
<pdfrwt beam="1">  1        4 0.28910803E-01 0.12500475E+03</pdfrwt>
<pdfrwt beam="2">  1       -4 0.31982041E-02 0.12500475E+03</pdfrwt>
<totfact> 0.88677811E+03</totfact>
</mgrwt>
</event>
<event>
 5    1  0.3212987E-002  0.1250035E+03  0.7818608E-02  0.1235064E+00
          4   -1    0    0  501    0  0.00000000000E+00  0.00000000000E+00  0.50909582575E+01  0.52469758890E+01  0.12700000000E+01 0. -1.
         -4   -1    0    0    0  501 -0.00000000000E+00 -0.00000000000E+00 -0.75559776101E+03  0.75559882831E+03  0.12700000000E+01 0. -1.
         25    2    1    2    0    0  0.00000000000E+00  0.00000000000E+00 -0.75050680275E+03  0.76084580420E+03  0.12500350711E+03 0.  0.
    9000005    1    3    3    0    0 -0.25847877228E+02  0.48637957000E+02 -0.19554873069E+03  0.20316020696E+03  0.10000000000E+01 0.  0.
    9000005    1    3    3    0    0  0.25847877228E+02 -0.48637957000E+02 -0.55495807206E+03  0.55768559724E+03  0.10000000000E+01 0.  0.
<mgrwt>
<rscale>  0 0.12500351E+03</rscale>
<asrwt>0</asrwt>
<pdfrwt beam="1">  1        4 0.79530840E-03 0.12500351E+03</pdfrwt>
<pdfrwt beam="2">  1       -4 0.11625781E+00 0.12500351E+03</pdfrwt>
<totfact> 0.40057634E+03</totfact>
</mgrwt>
</event>
<event>
 5    1  0.3212987E-002  0.1250004E+03  0.7818608E-02  0.1235069E+00
         -4   -1    0    0    0  501 -0.00000000000E+00  0.00000000000E+00  0.43041228918E+02  0.43059961527E+02  0.12700000000E+01 0. -1.
          4   -1    0    0  501    0  0.00000000000E+00 -0.00000000000E+00 -0.90713707801E+02  0.90722597422E+02  0.12700000000E+01 0. -1.
         25    2    1    2    0    0  0.00000000000E+00  0.00000000000E+00 -0.47672478883E+02  0.13378255895E+03  0.12500043134E+03 0.  0.
    9000005    1    3    3    0    0 -0.46703686309E+02  0.40015336689E+02 -0.11975424462E+02  0.62664761040E+02  0.10000000000E+01 0.  0.
    9000005    1    3    3    0    0  0.46703686309E+02 -0.40015336689E+02 -0.35697054421E+02  0.71117797909E+02  0.10000000000E+01 0.  0.
<mgrwt>
<rscale>  0 0.12500043E+03</rscale>
<asrwt>0</asrwt>
<pdfrwt beam="2">  1        4 0.13958080E-01 0.12500043E+03</pdfrwt>
<pdfrwt beam="1">  1       -4 0.66238523E-02 0.12500043E+03</pdfrwt>
<totfact> 0.10263696E+04</totfact>
</mgrwt>
</event>
<event>
 5    1  0.3212987E-002  0.1250016E+03  0.7818608E-02  0.1235067E+00
         -4   -1    0    0    0  501 -0.00000000000E+00  0.00000000000E+00  0.50835085580E+02  0.50850947149E+02  0.12700000000E+01 0. -1.
          4   -1    0    0  501    0  0.00000000000E+00 -0.00000000000E+00 -0.76810486759E+02  0.76820985259E+02  0.12700000000E+01 0. -1.
         25    2    1    2    0    0  0.00000000000E+00  0.00000000000E+00 -0.25975401179E+02  0.12767193241E+03  0.12500160342E+03 0.  0.
    9000005    1    3    3    0    0  0.12838266955E+02 -0.48622135964E+02  0.24904939385E+02  0.56126546392E+02  0.10000000000E+01 0.  0.
    9000005    1    3    3    0    0 -0.12838266955E+02  0.48622135964E+02 -0.50880340565E+02  0.71545386015E+02  0.10000000000E+01 0.  0.
<mgrwt>
<rscale>  0 0.12500160E+03</rscale>
<asrwt>0</asrwt>
<pdfrwt beam="2">  1        4 0.11819026E-01 0.12500160E+03</pdfrwt>
<pdfrwt beam="1">  1       -4 0.78228100E-02 0.12500160E+03</pdfrwt>
<totfact> 0.10394203E+04</totfact>
</mgrwt>
</event>
<event>
 5    1  0.3212987E-002  0.1249823E+03  0.7818608E-02  0.1235097E+00
         -4   -1    0    0    0  501 -0.00000000000E+00  0.00000000000E+00  0.55649320425E+02  0.55663810180E+02  0.12700000000E+01 0.  1.
          4   -1    0    0  501    0  0.00000000000E+00 -0.00000000000E+00 -0.70144755757E+02  0.70156251754E+02  0.12700000000E+01 0.  1.
         25    2    1    2    0    0  0.00000000000E+00  0.00000000000E+00 -0.14495435332E+02  0.12582006193E+03  0.12498228010E+03 0.  0.
    9000005    1    3    3    0    0 -0.18545403253E+02  0.58839723525E+01 -0.67022406162E+02  0.69796533153E+02  0.10000000000E+01 0.  0.
    9000005    1    3    3    0    0  0.18545403253E+02 -0.58839723525E+01  0.52526970830E+02  0.56023528781E+02  0.10000000000E+01 0.  0.
<mgrwt>
<rscale>  0 0.12498228E+03</rscale>
<asrwt>0</asrwt>
<pdfrwt beam="2">  1        4 0.10793500E-01 0.12498228E+03</pdfrwt>
<pdfrwt beam="1">  1       -4 0.85634328E-02 0.12498228E+03</pdfrwt>
<totfact> 0.10439078E+04</totfact>
</mgrwt>
</event>
<event>
 5    1  0.3212987E-002  0.1250006E+03  0.7818608E-02  0.1235068E+00
          4   -1    0    0  501    0  0.00000000000E+00  0.00000000000E+00  0.74589059664E+02  0.74599870788E+02  0.12700000000E+01 0. -1.
         -4   -1    0    0    0  501 -0.00000000000E+00 -0.00000000000E+00 -0.52348510222E+02  0.52363913361E+02  0.12700000000E+01 0. -1.
         25    2    1    2    0    0  0.00000000000E+00  0.00000000000E+00  0.22240549441E+02  0.12696378415E+03  0.12500064178E+03 0.  0.
    9000005    1    3    3    0    0  0.33771229016E+02 -0.37418009405E+02 -0.26401563501E+02  0.56909102017E+02  0.10000000000E+01 0.  0.
    9000005    1    3    3    0    0 -0.33771229016E+02  0.37418009405E+02  0.48642112942E+02  0.70054682132E+02  0.10000000000E+01 0.  0.
<mgrwt>
<rscale>  0 0.12500064E+03</rscale>
<asrwt>0</asrwt>
<pdfrwt beam="1">  1        4 0.11477256E-01 0.12500064E+03</pdfrwt>
<pdfrwt beam="2">  1       -4 0.80556334E-02 0.12500064E+03</pdfrwt>
<totfact> 0.10409782E+04</totfact>
</mgrwt>
</event>
<event>
 5    1  0.3212987E-002  0.1249917E+03  0.7818608E-02  0.1235082E+00
         -4   -1    0    0    0  501 -0.00000000000E+00  0.00000000000E+00  0.35278515152E+02  0.35301367273E+02  0.12700000000E+01 0.  1.
          4   -1    0    0  501    0  0.00000000000E+00 -0.00000000000E+00 -0.11064890556E+03  0.11065619369E+03  0.12700000000E+01 0.  1.
         25    2    1    2    0    0  0.00000000000E+00  0.00000000000E+00 -0.75370390406E+02  0.14595756096E+03  0.12499165513E+03 0.  0.
    9000005    1    3    3    0    0  0.55379920667E+02  0.25205792702E+02 -0.21069591652E+02  0.64398721193E+02  0.10000000000E+01 0.  0.
    9000005    1    3    3    0    0 -0.55379920667E+02 -0.25205792702E+02 -0.54300798753E+02  0.81558839767E+02  0.10000000000E+01 0.  0.
<mgrwt>
<rscale>  0 0.12499166E+03</rscale>
<asrwt>0</asrwt>
<pdfrwt beam="2">  1        4 0.17025227E-01 0.12499166E+03</pdfrwt>
<pdfrwt beam="1">  1       -4 0.54297824E-02 0.12499166E+03</pdfrwt>
<totfact> 0.10013450E+04</totfact>
</mgrwt>
</event>
<event>
 5    1  0.3212987E-002  0.1249955E+03  0.7818608E-02  0.1235076E+00
         -4   -1    0    0    0  501 -0.00000000000E+00  0.00000000000E+00  0.65662923266E+01  0.66879813785E+01  0.12700000000E+01 0.  1.
          4   -1    0    0  501    0  0.00000000000E+00 -0.00000000000E+00 -0.58926775363E+03  0.58926912219E+03  0.12700000000E+01 0.  1.
         25    2    1    2    0    0  0.00000000000E+00  0.00000000000E+00 -0.58270146131E+03  0.59595710357E+03  0.12499550508E+03 0.  0.
    9000005    1    3    3    0    0 -0.38654866979E+02  0.26631695656E+02 -0.48802137109E+03  0.49027472359E+03  0.10000000000E+01 0.  0.
    9000005    1    3    3    0    0  0.38654866979E+02 -0.26631695656E+02 -0.94680090219E+02  0.10568237998E+03  0.10000000000E+01 0.  0.
<mgrwt>
<rscale>  0 0.12499551E+03</rscale>
<asrwt>0</asrwt>
<pdfrwt beam="2">  1        4 0.90666002E-01 0.12499551E+03</pdfrwt>
<pdfrwt beam="1">  1       -4 0.10196653E-02 0.12499551E+03</pdfrwt>
<totfact> 0.49128667E+03</totfact>
</mgrwt>
</event>
<event>
 5    1  0.3212987E-002  0.1249985E+03  0.7818608E-02  0.1235072E+00
          4   -1    0    0  501    0  0.00000000000E+00  0.00000000000E+00  0.47015314540E+03  0.47015486069E+03  0.12700000000E+01 0. -1.
         -4   -1    0    0    0  501 -0.00000000000E+00 -0.00000000000E+00 -0.82579929230E+01  0.83550791209E+01  0.12700000000E+01 0. -1.
         25    2    1    2    0    0  0.00000000000E+00  0.00000000000E+00  0.46189515248E+03  0.47850993981E+03  0.12499852245E+03 0.  0.
    9000005    1    3    3    0    0  0.43985369860E+02  0.31136942339E+02  0.35206013421E+03  0.35616226644E+03  0.10000000000E+01 0.  0.
    9000005    1    3    3    0    0 -0.43985369860E+02 -0.31136942339E+02  0.10983501827E+03  0.12234767337E+03  0.10000000000E+01 0.  0.
<mgrwt>
<rscale>  0 0.12499852E+03</rscale>
<asrwt>0</asrwt>
<pdfrwt beam="1">  1        4 0.72338873E-01 0.12499852E+03</pdfrwt>
<pdfrwt beam="2">  1       -4 0.12780602E-02 0.12499852E+03</pdfrwt>
<totfact> 0.57573013E+03</totfact>
</mgrwt>
</event>
<event>
 5    1  0.3212987E-002  0.1249996E+03  0.7818608E-02  0.1235070E+00
          4   -1    0    0  501    0  0.00000000000E+00  0.00000000000E+00  0.89169449639E+01  0.90069310805E+01  0.12700000000E+01 0. -1.
         -4   -1    0    0    0  501 -0.00000000000E+00 -0.00000000000E+00 -0.43577762567E+03  0.43577947626E+03  0.12700000000E+01 0. -1.
         25    2    1    2    0    0  0.00000000000E+00  0.00000000000E+00 -0.42686068070E+03  0.44478640734E+03  0.12499962971E+03 0.  0.
    9000005    1    3    3    0    0  0.45840800442E+02  0.41594995594E+02 -0.24397877332E+03  0.25171047749E+03  0.10000000000E+01 0.  0.
    9000005    1    3    3    0    0 -0.45840800442E+02 -0.41594995594E+02 -0.18288190738E+03  0.19307592986E+03  0.10000000000E+01 0.  0.
<mgrwt>
<rscale>  0 0.12499963E+03</rscale>
<asrwt>0</asrwt>
<pdfrwt beam="1">  1        4 0.13789024E-02 0.12499963E+03</pdfrwt>
<pdfrwt beam="2">  1       -4 0.67049760E-01 0.12499963E+03</pdfrwt>
<totfact> 0.60418624E+03</totfact>
</mgrwt>
</event>
<event>
 5    1  0.3212987E-002  0.1250057E+03  0.7818608E-02  0.1235060E+00
          4   -1    0    0  501    0  0.00000000000E+00  0.00000000000E+00  0.11686428206E+02  0.11755233056E+02  0.12700000000E+01 0.  1.
         -4   -1    0    0    0  501 -0.00000000000E+00 -0.00000000000E+00 -0.33323435945E+03  0.33323677951E+03  0.12700000000E+01 0.  1.
         25    2    1    2    0    0  0.00000000000E+00  0.00000000000E+00 -0.32154793125E+03  0.34499201257E+03  0.12500566646E+03 0.  0.
    9000005    1    3    3    0    0  0.18880699901E+02 -0.75939450583E+01 -0.32384716259E+03  0.32448749367E+03  0.10000000000E+01 0.  0.
    9000005    1    3    3    0    0 -0.18880699901E+02  0.75939450583E+01  0.22992313475E+01  0.20504518895E+02  0.10000000000E+01 0.  0.
<mgrwt>
<rscale>  0 0.12500567E+03</rscale>
<asrwt>0</asrwt>
<pdfrwt beam="1">  1        4 0.18033911E-02 0.12500567E+03</pdfrwt>
<pdfrwt beam="2">  1       -4 0.51272296E-01 0.12500567E+03</pdfrwt>
<totfact> 0.70270221E+03</totfact>
</mgrwt>
</event>
<event>
 5    1  0.3212987E-002  0.1249987E+03  0.7818608E-02  0.1235071E+00
         -4   -1    0    0    0  501 -0.00000000000E+00  0.00000000000E+00  0.48800234988E+02  0.48816757726E+02  0.12700000000E+01 0.  1.
          4   -1    0    0  501    0  0.00000000000E+00 -0.00000000000E+00 -0.80008967223E+02  0.80019046083E+02  0.12700000000E+01 0.  1.
         25    2    1    2    0    0  0.00000000000E+00  0.00000000000E+00 -0.31208732235E+02  0.12883580381E+03  0.12499871749E+03 0.  0.
    9000005    1    3    3    0    0 -0.74783044890E+01 -0.56256236175E+02  0.11361328810E+02  0.57885826754E+02  0.10000000000E+01 0.  0.
    9000005    1    3    3    0    0  0.74783044890E+01  0.56256236175E+02 -0.42570061045E+02  0.70949977055E+02  0.10000000000E+01 0.  0.
<mgrwt>
<rscale>  0 0.12499872E+03</rscale>
<asrwt>0</asrwt>
<pdfrwt beam="2">  1        4 0.12311118E-01 0.12499872E+03</pdfrwt>
<pdfrwt beam="1">  1       -4 0.75097747E-02 0.12499872E+03</pdfrwt>
<totfact> 0.10369777E+04</totfact>
</mgrwt>
</event>
<event>
 5    1  0.3212987E-002  0.1249983E+03  0.7818608E-02  0.1235072E+00
         -4   -1    0    0    0  501 -0.00000000000E+00  0.00000000000E+00  0.37720388571E+02  0.37741762200E+02  0.12700000000E+01 0. -1.
          4   -1    0    0  501    0  0.00000000000E+00 -0.00000000000E+00 -0.10350061050E+03  0.10350840195E+03  0.12700000000E+01 0. -1.
         25    2    1    2    0    0  0.00000000000E+00  0.00000000000E+00 -0.65780221929E+02  0.14125016415E+03  0.12499828509E+03 0.  0.
    9000005    1    3    3    0    0  0.48378943557E+01  0.62255173442E+02 -0.30115010382E+02  0.69332717330E+02  0.10000000000E+01 0.  0.
    9000005    1    3    3    0    0 -0.48378943557E+01 -0.62255173442E+02 -0.35665211547E+02  0.71917446818E+02  0.10000000000E+01 0.  0.
<mgrwt>
<rscale>  0 0.12499829E+03</rscale>
<asrwt>0</asrwt>
<pdfrwt beam="2">  1        4 0.15925414E-01 0.12499829E+03</pdfrwt>
<pdfrwt beam="1">  1       -4 0.58053802E-02 0.12499829E+03</pdfrwt>
<totfact> 0.10108131E+04</totfact>
</mgrwt>
</event>
<event>
 5    1  0.3212987E-002  0.1249994E+03  0.7818608E-02  0.1235070E+00
          4   -1    0    0  501    0  0.00000000000E+00  0.00000000000E+00  0.11305063911E+02  0.11376175546E+02  0.12700000000E+01 0.  1.
         -4   -1    0    0    0  501 -0.00000000000E+00 -0.00000000000E+00 -0.34437222360E+03  0.34437456539E+03  0.12700000000E+01 0.  1.
         25    2    1    2    0    0  0.00000000000E+00  0.00000000000E+00 -0.33306715969E+03  0.35575074094E+03  0.12499942725E+03 0.  0.
    9000005    1    3    3    0    0 -0.44893185603E+02 -0.16860294839E+00 -0.29025482863E+03  0.29370783456E+03  0.10000000000E+01 0.  0.
    9000005    1    3    3    0    0  0.44893185603E+02  0.16860294839E+00 -0.42812331061E+02  0.62042906375E+02  0.10000000000E+01 0.  0.
<mgrwt>
<rscale>  0 0.12499943E+03</rscale>
<asrwt>0</asrwt>
<pdfrwt beam="1">  1        4 0.17448911E-02 0.12499943E+03</pdfrwt>
<pdfrwt beam="2">  1       -4 0.52985984E-01 0.12499943E+03</pdfrwt>
<totfact> 0.69097382E+03</totfact>
</mgrwt>
</event>
<event>
 5    1  0.3212987E-002  0.1249962E+03  0.7818608E-02  0.1235075E+00
         -4   -1    0    0    0  501 -0.00000000000E+00  0.00000000000E+00  0.13534159322E+03  0.13534755171E+03  0.12700000000E+01 0. -1.
          4   -1    0    0  501    0  0.00000000000E+00 -0.00000000000E+00 -0.28839848799E+02  0.28867798301E+02  0.12700000000E+01 0. -1.
         25    2    1    2    0    0  0.00000000000E+00  0.00000000000E+00  0.10650174442E+03  0.16421535001E+03  0.12499623841E+03 0.  0.
    9000005    1    3    3    0    0  0.59422103069E+02 -0.13057154412E+02  0.71993951121E+02  0.94263485043E+02  0.10000000000E+01 0.  0.
    9000005    1    3    3    0    0 -0.59422103069E+02  0.13057154412E+02  0.34507793297E+02  0.69951864970E+02  0.10000000000E+01 0.  0.
<mgrwt>
<rscale>  0 0.12499624E+03</rscale>
<asrwt>0</asrwt>
<pdfrwt beam="2">  1        4 0.44395082E-02 0.12499624E+03</pdfrwt>
<pdfrwt beam="1">  1       -4 0.20824392E-01 0.12499624E+03</pdfrwt>
<totfact> 0.96544358E+03</totfact>
</mgrwt>
</event>
<event>
 5    1  0.3212987E-002  0.1249964E+03  0.7818608E-02  0.1235075E+00
         -4   -1    0    0    0  501 -0.00000000000E+00  0.00000000000E+00  0.79123227821E+01  0.80135979315E+01  0.12700000000E+01 0.  1.
          4   -1    0    0  501    0  0.00000000000E+00 -0.00000000000E+00 -0.49042228581E+03  0.49042393021E+03  0.12700000000E+01 0.  1.
         25    2    1    2    0    0  0.00000000000E+00  0.00000000000E+00 -0.48250996303E+03  0.49843752814E+03  0.12499642009E+03 0.  0.
    9000005    1    3    3    0    0  0.61779415950E+02 -0.90858033412E+01 -0.25084036493E+03  0.25849784668E+03  0.10000000000E+01 0.  0.
    9000005    1    3    3    0    0 -0.61779415950E+02  0.90858033412E+01 -0.23166959809E+03  0.23993968146E+03  0.10000000000E+01 0.  0.
<mgrwt>
<rscale>  0 0.12499642E+03</rscale>
<asrwt>0</asrwt>
<pdfrwt beam="2">  1        4 0.75457476E-01 0.12499642E+03</pdfrwt>
<pdfrwt beam="1">  1       -4 0.12251977E-02 0.12499642E+03</pdfrwt>
<totfact> 0.55990217E+03</totfact>
</mgrwt>
</event>
<event>
 5    1  0.3212987E-002  0.1250026E+03  0.7818608E-02  0.1235065E+00
         -4   -1    0    0    0  501 -0.00000000000E+00  0.00000000000E+00  0.22671575882E+03  0.22671931589E+03  0.12700000000E+01 0.  1.
          4   -1    0    0  501    0  0.00000000000E+00 -0.00000000000E+00 -0.17203352794E+02  0.17250166590E+02  0.12700000000E+01 0.  1.
         25    2    1    2    0    0  0.00000000000E+00  0.00000000000E+00  0.20951240602E+03  0.24396948248E+03  0.12500264038E+03 0.  0.
    9000005    1    3    3    0    0 -0.54117871693E+02 -0.13592870401E+02  0.49833383574E+02  0.74818956693E+02  0.10000000000E+01 0.  0.
    9000005    1    3    3    0    0  0.54117871693E+02  0.13592870401E+02  0.15967902245E+03  0.16915052579E+03  0.10000000000E+01 0.  0.
<mgrwt>
<rscale>  0 0.12500264E+03</rscale>
<asrwt>0</asrwt>
<pdfrwt beam="2">  1        4 0.26505444E-02 0.12500264E+03</pdfrwt>
<pdfrwt beam="1">  1       -4 0.34883221E-01 0.12500264E+03</pdfrwt>
<totfact> 0.83204816E+03</totfact>
</mgrwt>
</event>
<event>
 5    1  0.3212987E-002  0.1250051E+03  0.7818608E-02  0.1235061E+00
          4   -1    0    0  501    0  0.00000000000E+00  0.00000000000E+00  0.80074846390E+02  0.80084916960E+02  0.12700000000E+01 0.  1.
         -4   -1    0    0    0  501 -0.00000000000E+00 -0.00000000000E+00 -0.48765049193E+02  0.48781583848E+02  0.12700000000E+01 0.  1.
         25    2    1    2    0    0  0.00000000000E+00  0.00000000000E+00  0.31309797198E+02  0.12886650081E+03  0.12500508642E+03 0.  0.
    9000005    1    3    3    0    0  0.49077100168E+01  0.47271985172E+02 -0.26179957555E+02  0.54268926443E+02  0.10000000000E+01 0.  0.
    9000005    1    3    3    0    0 -0.49077100168E+01 -0.47271985172E+02  0.57489754753E+02  0.74597574365E+02  0.10000000000E+01 0.  0.
<mgrwt>
<rscale>  0 0.12500509E+03</rscale>
<asrwt>0</asrwt>
<pdfrwt beam="1">  1        4 0.12321254E-01 0.12500509E+03</pdfrwt>
<pdfrwt beam="2">  1       -4 0.75043619E-02 0.12500509E+03</pdfrwt>
<totfact> 0.10367626E+04</totfact>
</mgrwt>
</event>
<event>
 5    1  0.3212987E-002  0.1249983E+03  0.7818608E-02  0.1235072E+00
         -4   -1    0    0    0  501 -0.00000000000E+00  0.00000000000E+00  0.24352683645E+03  0.24353014797E+03  0.12700000000E+01 0. -1.
          4   -1    0    0  501    0  0.00000000000E+00 -0.00000000000E+00 -0.16011316540E+02  0.16061605067E+02  0.12700000000E+01 0. -1.
         25    2    1    2    0    0  0.00000000000E+00  0.00000000000E+00  0.22751551991E+03  0.25959175304E+03  0.12499826577E+03 0.  0.
    9000005    1    3    3    0    0  0.42269133622E+02  0.37104885001E+02  0.17031626977E+03  0.17936578241E+03  0.10000000000E+01 0.  0.
    9000005    1    3    3    0    0 -0.42269133622E+02 -0.37104885001E+02  0.57199250139E+02  0.80225970637E+02  0.10000000000E+01 0.  0.
<mgrwt>
<rscale>  0 0.12499827E+03</rscale>
<asrwt>0</asrwt>
<pdfrwt beam="2">  1        4 0.24674027E-02 0.12499827E+03</pdfrwt>
<pdfrwt beam="1">  1       -4 0.37469788E-01 0.12499827E+03</pdfrwt>
<totfact> 0.80966513E+03</totfact>
</mgrwt>
</event>
<event>
 5    1  0.3212987E-002  0.1249925E+03  0.7818608E-02  0.1235081E+00
         -4   -1    0    0    0  501 -0.00000000000E+00  0.00000000000E+00  0.83771278304E+02  0.83780904559E+02  0.12700000000E+01 0. -1.
          4   -1    0    0  501    0  0.00000000000E+00 -0.00000000000E+00 -0.46603405279E+02  0.46620706597E+02  0.12700000000E+01 0. -1.
         25    2    1    2    0    0  0.00000000000E+00  0.00000000000E+00  0.37167873026E+02  0.13040161116E+03  0.12499251740E+03 0.  0.
    9000005    1    3    3    0    0  0.12657674838E+02  0.54546859708E+02  0.47518717104E+02  0.73447975544E+02  0.10000000000E+01 0.  0.
    9000005    1    3    3    0    0 -0.12657674838E+02 -0.54546859708E+02 -0.10350844078E+02  0.56953635612E+02  0.10000000000E+01 0.  0.
<mgrwt>
<rscale>  0 0.12499252E+03</rscale>
<asrwt>0</asrwt>
<pdfrwt beam="2">  1        4 0.71718261E-02 0.12499252E+03</pdfrwt>
<pdfrwt beam="1">  1       -4 0.12889960E-01 0.12499252E+03</pdfrwt>
<totfact> 0.10337670E+04</totfact>
</mgrwt>
</event>
<event>
 5    1  0.3212987E-002  0.1249999E+03  0.7818608E-02  0.1235069E+00
         -4   -1    0    0    0  501 -0.00000000000E+00  0.00000000000E+00  0.36355909022E+03  0.36356130843E+03  0.12700000000E+01 0.  1.
          4   -1    0    0  501    0  0.00000000000E+00 -0.00000000000E+00 -0.10704670832E+02  0.10779743857E+02  0.12700000000E+01 0.  1.
         25    2    1    2    0    0  0.00000000000E+00  0.00000000000E+00  0.35285441939E+03  0.37434105228E+03  0.12499992856E+03 0.  0.
    9000005    1    3    3    0    0  0.42476593467E+02 -0.42511214886E+02  0.12509739976E+03  0.13878697277E+03  0.10000000000E+01 0.  0.
    9000005    1    3    3    0    0 -0.42476593467E+02  0.42511214886E+02  0.22775701963E+03  0.23555407951E+03  0.10000000000E+01 0.  0.
<mgrwt>
<rscale>  0 0.12499993E+03</rscale>
<asrwt>0</asrwt>
<pdfrwt beam="2">  1        4 0.16528177E-02 0.12499993E+03</pdfrwt>
<pdfrwt beam="1">  1       -4 0.55938120E-01 0.12499993E+03</pdfrwt>
<totfact> 0.67127314E+03</totfact>
</mgrwt>
</event>
<event>
 5    1  0.3212987E-002  0.1250011E+03  0.7818608E-02  0.1235068E+00
         -4   -1    0    0    0  501 -0.00000000000E+00  0.00000000000E+00  0.10204616721E+02  0.10283341014E+02  0.12700000000E+01 0. -1.
          4   -1    0    0  501    0  0.00000000000E+00 -0.00000000000E+00 -0.38124864806E+03  0.38125076334E+03  0.12700000000E+01 0. -1.
         25    2    1    2    0    0  0.00000000000E+00  0.00000000000E+00 -0.37104403134E+03  0.39153410435E+03  0.12500112672E+03 0.  0.
    9000005    1    3    3    0    0 -0.19595379673E+02 -0.58642162264E+02 -0.15708262826E+03  0.16881597733E+03  0.10000000000E+01 0.  0.
    9000005    1    3    3    0    0  0.19595379673E+02  0.58642162264E+02 -0.21396140307E+03  0.22271812702E+03  0.10000000000E+01 0.  0.
<mgrwt>
<rscale>  0 0.12500113E+03</rscale>
<asrwt>0</asrwt>
<pdfrwt beam="2">  1        4 0.58659846E-01 0.12500113E+03</pdfrwt>
<pdfrwt beam="1">  1       -4 0.15761598E-02 0.12500113E+03</pdfrwt>
<totfact> 0.65382963E+03</totfact>
</mgrwt>
</event>
<event>
 5    1  0.3212987E-002  0.1249954E+03  0.7818608E-02  0.1235076E+00
         -4   -1    0    0    0  501 -0.00000000000E+00  0.00000000000E+00  0.91170310292E+01  0.92050613680E+01  0.12700000000E+01 0. -1.
          4   -1    0    0  501    0  0.00000000000E+00 -0.00000000000E+00 -0.42627731975E+03  0.42627921159E+03  0.12700000000E+01 0. -1.
         25    2    1    2    0    0  0.00000000000E+00  0.00000000000E+00 -0.41716028872E+03  0.43548427296E+03  0.12499538195E+03 0.  0.
    9000005    1    3    3    0    0 -0.18163236276E+02  0.11875401703E+02 -0.41274488602E+03  0.41331618557E+03  0.10000000000E+01 0.  0.
    9000005    1    3    3    0    0  0.18163236276E+02 -0.11875401703E+02 -0.44154027059E+01  0.22168087393E+02  0.10000000000E+01 0.  0.
<mgrwt>
<rscale>  0 0.12499538E+03</rscale>
<asrwt>0</asrwt>
<pdfrwt beam="2">  1        4 0.65588028E-01 0.12499538E+03</pdfrwt>
<pdfrwt beam="1">  1       -4 0.14095376E-02 0.12499538E+03</pdfrwt>
<totfact> 0.61248244E+03</totfact>
</mgrwt>
</event>
<event>
 5    1  0.3212987E-002  0.1249930E+03  0.7818608E-02  0.1235080E+00
         -4   -1    0    0    0  501 -0.00000000000E+00  0.00000000000E+00  0.55223513525E+02  0.55238114975E+02  0.12700000000E+01 0. -1.
          4   -1    0    0  501    0  0.00000000000E+00 -0.00000000000E+00 -0.70697744864E+02  0.70709150955E+02  0.12700000000E+01 0. -1.
         25    2    1    2    0    0  0.00000000000E+00  0.00000000000E+00 -0.15474231339E+02  0.12594726593E+03  0.12499304765E+03 0.  0.
    9000005    1    3    3    0    0 -0.93792879028E+00 -0.59965037521E+02  0.99505254279E+01  0.60800480193E+02  0.10000000000E+01 0.  0.
    9000005    1    3    3    0    0  0.93792879028E+00  0.59965037521E+02 -0.25424756767E+02  0.65146785738E+02  0.10000000000E+01 0.  0.
<mgrwt>
<rscale>  0 0.12499305E+03</rscale>
<asrwt>0</asrwt>
<pdfrwt beam="2">  1        4 0.10878577E-01 0.12499305E+03</pdfrwt>
<pdfrwt beam="1">  1       -4 0.84979257E-02 0.12499305E+03</pdfrwt>
<totfact> 0.10433750E+04</totfact>
</mgrwt>
</event>
<event>
 5    1  0.3212987E-002  0.1250001E+03  0.7818608E-02  0.1235069E+00
          4   -1    0    0  501    0  0.00000000000E+00  0.00000000000E+00  0.47489693724E+02  0.47506672268E+02  0.12700000000E+01 0. -1.
         -4   -1    0    0    0  501 -0.00000000000E+00 -0.00000000000E+00 -0.82218277224E+02  0.82228085285E+02  0.12700000000E+01 0. -1.
         25    2    1    2    0    0  0.00000000000E+00  0.00000000000E+00 -0.34728583499E+02  0.12973475755E+03  0.12500013122E+03 0.  0.
    9000005    1    3    3    0    0  0.31871505106E+02  0.51301107303E+02 -0.34024132830E+02  0.69327037028E+02  0.10000000000E+01 0.  0.
    9000005    1    3    3    0    0 -0.31871505106E+02 -0.51301107303E+02 -0.70445066929E+00  0.60407720525E+02  0.10000000000E+01 0.  0.
<mgrwt>
<rscale>  0 0.12500013E+03</rscale>
<asrwt>0</asrwt>
<pdfrwt beam="1">  1        4 0.73081672E-02 0.12500013E+03</pdfrwt>
<pdfrwt beam="2">  1       -4 0.12651026E-01 0.12500013E+03</pdfrwt>
<totfact> 0.10350154E+04</totfact>
</mgrwt>
</event>
<event>
 5    1  0.3212987E-002  0.1250252E+03  0.7818608E-02  0.1235030E+00
          4   -1    0    0  501    0  0.00000000000E+00  0.00000000000E+00  0.67327689338E+03  0.67327809117E+03  0.12700000000E+01 0. -1.
         -4   -1    0    0    0  501 -0.00000000000E+00 -0.00000000000E+00 -0.57335008186E+01  0.58724723615E+01  0.12700000000E+01 0. -1.
         25    2    1    2    0    0  0.00000000000E+00  0.00000000000E+00  0.66754339256E+03  0.67915056354E+03  0.12502522547E+03 0.  0.
    9000005    1    3    3    0    0  0.17968805657E+02  0.43242166892E+02  0.55866778759E+03  0.56062773733E+03  0.10000000000E+01 0.  0.
    9000005    1    3    3    0    0 -0.17968805657E+02 -0.43242166892E+02  0.10887560497E+03  0.11852282620E+03  0.10000000000E+01 0.  0.
<mgrwt>
<rscale>  0 0.12502523E+03</rscale>
<asrwt>0</asrwt>
<pdfrwt beam="1">  1        4 0.10359185E+00 0.12502523E+03</pdfrwt>
<pdfrwt beam="2">  1       -4 0.89285929E-03 0.12502523E+03</pdfrwt>
<totfact> 0.44186001E+03</totfact>
</mgrwt>
</event>
<event>
 5    1  0.3212987E-002  0.1249994E+03  0.7818608E-02  0.1235070E+00
          4   -1    0    0  501    0  0.00000000000E+00  0.00000000000E+00  0.86996176211E+02  0.87005445665E+02  0.12700000000E+01 0. -1.
         -4   -1    0    0    0  501 -0.00000000000E+00 -0.00000000000E+00 -0.44880300776E+02  0.44898266088E+02  0.12700000000E+01 0. -1.
         25    2    1    2    0    0  0.00000000000E+00  0.00000000000E+00  0.42115875435E+02  0.13190371175E+03  0.12499936884E+03 0.  0.
    9000005    1    3    3    0    0  0.47181221460E+02  0.15603631336E+02 -0.18925160728E+02  0.53185549521E+02  0.10000000000E+01 0.  0.
    9000005    1    3    3    0    0 -0.47181221460E+02 -0.15603631336E+02  0.61041036163E+02  0.78718162232E+02  0.10000000000E+01 0.  0.
<mgrwt>
<rscale>  0 0.12499937E+03</rscale>
<asrwt>0</asrwt>
<pdfrwt beam="1">  1        4 0.13386122E-01 0.12499937E+03</pdfrwt>
<pdfrwt beam="2">  1       -4 0.69067567E-02 0.12499937E+03</pdfrwt>
<totfact> 0.10303901E+04</totfact>
</mgrwt>
</event>
<event>
 5    1  0.3212987E-002  0.1250012E+03  0.7818608E-02  0.1235067E+00
         -4   -1    0    0    0  501 -0.00000000000E+00  0.00000000000E+00  0.51195951286E+03  0.51196108808E+03  0.12700000000E+01 0.  1.
          4   -1    0    0  501    0  0.00000000000E+00 -0.00000000000E+00 -0.75757033747E+01  0.76814179434E+01  0.12700000000E+01 0.  1.
         25    2    1    2    0    0  0.00000000000E+00  0.00000000000E+00  0.50438380949E+03  0.51964250603E+03  0.12500122718E+03 0.  0.
    9000005    1    3    3    0    0  0.41943184343E+01 -0.19733778545E+02  0.49806991226E+03  0.49847933942E+03  0.10000000000E+01 0.  0.
    9000005    1    3    3    0    0 -0.41943184343E+01  0.19733778545E+02  0.63138972244E+01  0.21163166609E+02  0.10000000000E+01 0.  0.
<mgrwt>
<rscale>  0 0.12500123E+03</rscale>
<asrwt>0</asrwt>
<pdfrwt beam="2">  1        4 0.11737458E-02 0.12500123E+03</pdfrwt>
<pdfrwt beam="1">  1       -4 0.78771258E-01 0.12500123E+03</pdfrwt>
<totfact> 0.54370451E+03</totfact>
</mgrwt>
</event>
<event>
 5    1  0.3212987E-002  0.1249955E+03  0.7818608E-02  0.1235076E+00
         -4   -1    0    0    0  501 -0.00000000000E+00  0.00000000000E+00  0.23077847902E+01  0.26341546344E+01  0.12700000000E+01 0.  1.
          4   -1    0    0  501    0  0.00000000000E+00 -0.00000000000E+00 -0.15804175684E+04  0.15804180787E+04  0.12700000000E+01 0.  1.
         25    2    1    2    0    0  0.00000000000E+00  0.00000000000E+00 -0.15781097837E+04  0.15830522334E+04  0.12499553698E+03 0.  0.
    9000005    1    3    3    0    0 -0.33711811987E+02  0.73208218264E+01 -0.12915677891E+03  0.13368827262E+03  0.10000000000E+01 0.  0.
    9000005    1    3    3    0    0  0.33711811987E+02 -0.73208218264E+01 -0.14489530047E+04  0.14493639607E+04  0.10000000000E+01 0.  0.
<mgrwt>
<rscale>  0 0.12499554E+03</rscale>
<asrwt>0</asrwt>
<pdfrwt beam="2">  1        4 0.24316550E+00 0.12499554E+03</pdfrwt>
<pdfrwt beam="1">  1       -4 0.38018970E-03 0.12499554E+03</pdfrwt>
<totfact> 0.16356049E+03</totfact>
</mgrwt>
</event>
<event>
 5    1  0.3212987E-002  0.1250001E+03  0.7818608E-02  0.1235069E+00
         -4   -1    0    0    0  501 -0.00000000000E+00  0.00000000000E+00  0.20541093912E+03  0.20541486511E+03  0.12700000000E+01 0.  1.
          4   -1    0    0  501    0  0.00000000000E+00 -0.00000000000E+00 -0.18991460770E+02  0.19033877224E+02  0.12700000000E+01 0.  1.
         25    2    1    2    0    0  0.00000000000E+00  0.00000000000E+00  0.18641947835E+03  0.22444874234E+03  0.12500006412E+03 0.  0.
    9000005    1    3    3    0    0 -0.34951967051E+02  0.50640041955E+02  0.73605709331E+02  0.95941931897E+02  0.10000000000E+01 0.  0.
    9000005    1    3    3    0    0  0.34951967051E+02 -0.50640041955E+02  0.11281376902E+03  0.12850681044E+03  0.10000000000E+01 0.  0.
<mgrwt>
<rscale>  0 0.12500006E+03</rscale>
<asrwt>0</asrwt>
<pdfrwt beam="2">  1        4 0.29253278E-02 0.12500006E+03</pdfrwt>
<pdfrwt beam="1">  1       -4 0.31605250E-01 0.12500006E+03</pdfrwt>
<totfact> 0.86169127E+03</totfact>
</mgrwt>
</event>
<event>
 5    1  0.3212987E-002  0.1249990E+03  0.7818608E-02  0.1235071E+00
         -4   -1    0    0    0  501 -0.00000000000E+00  0.00000000000E+00  0.50178658705E+02  0.50194727706E+02  0.12700000000E+01 0.  1.
          4   -1    0    0  501    0  0.00000000000E+00 -0.00000000000E+00 -0.77811830861E+02  0.77822194276E+02  0.12700000000E+01 0.  1.
         25    2    1    2    0    0  0.00000000000E+00  0.00000000000E+00 -0.27633172155E+02  0.12801692198E+03  0.12499896044E+03 0.  0.
    9000005    1    3    3    0    0 -0.13053531935E+02  0.11352421107E+02  0.47682490359E+02  0.50733539674E+02  0.10000000000E+01 0.  0.
    9000005    1    3    3    0    0  0.13053531935E+02 -0.11352421107E+02 -0.75315662515E+02  0.77283382308E+02  0.10000000000E+01 0.  0.
<mgrwt>
<rscale>  0 0.12499896E+03</rscale>
<asrwt>0</asrwt>
<pdfrwt beam="2">  1        4 0.11973084E-01 0.12499896E+03</pdfrwt>
<pdfrwt beam="1">  1       -4 0.77218269E-02 0.12499896E+03</pdfrwt>
<totfact> 0.10387366E+04</totfact>
</mgrwt>
</event>
<event>
 5    1  0.3212987E-002  0.1249996E+03  0.7818608E-02  0.1235070E+00
         -4   -1    0    0    0  501 -0.00000000000E+00  0.00000000000E+00  0.35037418257E+02  0.35060427523E+02  0.12700000000E+01 0.  1.
          4   -1    0    0  501    0  0.00000000000E+00 -0.00000000000E+00 -0.11142396792E+03  0.11143120536E+03  0.12700000000E+01 0.  1.
         25    2    1    2    0    0  0.00000000000E+00  0.00000000000E+00 -0.76386549664E+02  0.14649163288E+03  0.12499957414E+03 0.  0.
    9000005    1    3    3    0    0 -0.30660819667E+02  0.49315061650E+02 -0.65253659662E+02  0.87356174753E+02  0.10000000000E+01 0.  0.
    9000005    1    3    3    0    0  0.30660819667E+02 -0.49315061650E+02 -0.11132890002E+02  0.59135458128E+02  0.10000000000E+01 0.  0.
<mgrwt>
<rscale>  0 0.12499957E+03</rscale>
<asrwt>0</asrwt>
<pdfrwt beam="2">  1        4 0.17144475E-01 0.12499957E+03</pdfrwt>
<pdfrwt beam="1">  1       -4 0.53926988E-02 0.12499957E+03</pdfrwt>
<totfact> 0.10000865E+04</totfact>
</mgrwt>
</event>
<event>
 5    1  0.3212987E-002  0.1249967E+03  0.7818608E-02  0.1235074E+00
          4   -1    0    0  501    0  0.00000000000E+00  0.00000000000E+00  0.19085326076E+03  0.19085748621E+03  0.12700000000E+01 0.  1.
         -4   -1    0    0    0  501 -0.00000000000E+00 -0.00000000000E+00 -0.20442067335E+02  0.20481479852E+02  0.12700000000E+01 0.  1.
         25    2    1    2    0    0  0.00000000000E+00  0.00000000000E+00  0.17041119343E+03  0.21133896607E+03  0.12499673489E+03 0.  0.
    9000005    1    3    3    0    0  0.41967271851E+02  0.12354962904E+02  0.97601940525E+01  0.44834790096E+02  0.10000000000E+01 0.  0.
    9000005    1    3    3    0    0 -0.41967271851E+02 -0.12354962904E+02  0.16065099938E+03  0.16650417597E+03  0.10000000000E+01 0.  0.
<mgrwt>
<rscale>  0 0.12499673E+03</rscale>
<asrwt>0</asrwt>
<pdfrwt beam="1">  1        4 0.29365396E-01 0.12499673E+03</pdfrwt>
<pdfrwt beam="2">  1       -4 0.31482902E-02 0.12499673E+03</pdfrwt>
<totfact> 0.88264118E+03</totfact>
</mgrwt>
</event>
<event>
 5    1  0.3212987E-002  0.1250050E+03  0.7818608E-02  0.1235061E+00
          4   -1    0    0  501    0  0.00000000000E+00  0.00000000000E+00  0.39610006779E+01  0.41596185367E+01  0.12700000000E+01 0.  1.
         -4   -1    0    0    0  501 -0.00000000000E+00 -0.00000000000E+00 -0.96193533291E+03  0.96193617127E+03  0.12700000000E+01 0.  1.
         25    2    1    2    0    0  0.00000000000E+00  0.00000000000E+00 -0.95797433223E+03  0.96609578981E+03  0.12500501538E+03 0.  0.
    9000005    1    3    3    0    0  0.10978007959E+01 -0.23737656831E+02 -0.32279591558E+02  0.40095555235E+02  0.10000000000E+01 0.  0.
    9000005    1    3    3    0    0 -0.10978007959E+01  0.23737656831E+02 -0.92569474067E+03  0.92600023457E+03  0.10000000000E+01 0.  0.
<mgrwt>
<rscale>  0 0.12500502E+03</rscale>
<asrwt>0</asrwt>
<pdfrwt beam="1">  1        4 0.62472827E-03 0.12500502E+03</pdfrwt>
<pdfrwt beam="2">  1       -4 0.14800521E+00 0.12500502E+03</pdfrwt>
<totfact> 0.31747878E+03</totfact>
</mgrwt>
</event>
<event>
 5    1  0.3212987E-002  0.1249967E+03  0.7818608E-02  0.1235075E+00
         -4   -1    0    0    0  501 -0.00000000000E+00  0.00000000000E+00  0.80164995680E+02  0.80175054926E+02  0.12700000000E+01 0.  1.
          4   -1    0    0  501    0  0.00000000000E+00 -0.00000000000E+00 -0.48703622942E+02  0.48720178444E+02  0.12700000000E+01 0.  1.
         25    2    1    2    0    0  0.00000000000E+00  0.00000000000E+00  0.31461372738E+02  0.12889523337E+03  0.12499665280E+03 0.  0.
    9000005    1    3    3    0    0 -0.25262975690E+01 -0.52017186547E+02 -0.19884498308E+02  0.55754489942E+02  0.10000000000E+01 0.  0.
    9000005    1    3    3    0    0  0.25262975690E+01  0.52017186547E+02  0.51345871046E+02  0.73140743428E+02  0.10000000000E+01 0.  0.
<mgrwt>
<rscale>  0 0.12499665E+03</rscale>
<asrwt>0</asrwt>
<pdfrwt beam="2">  1        4 0.74949124E-02 0.12499665E+03</pdfrwt>
<pdfrwt beam="1">  1       -4 0.12335124E-01 0.12499665E+03</pdfrwt>
<totfact> 0.10368982E+04</totfact>
</mgrwt>
</event>
<event>
 5    1  0.3212987E-002  0.1250012E+03  0.7818608E-02  0.1235067E+00
          4   -1    0    0  501    0  0.00000000000E+00  0.00000000000E+00  0.11727997046E+02  0.11796559444E+02  0.12700000000E+01 0.  1.
         -4   -1    0    0    0  501 -0.00000000000E+00 -0.00000000000E+00 -0.33203630777E+03  0.33203873656E+03  0.12700000000E+01 0.  1.
         25    2    1    2    0    0  0.00000000000E+00  0.00000000000E+00 -0.32030831073E+03  0.34383529601E+03  0.12500118744E+03 0.  0.
    9000005    1    3    3    0    0  0.61294165942E+02 -0.11436346571E+02 -0.14862781807E+03  0.16118000219E+03  0.10000000000E+01 0.  0.
    9000005    1    3    3    0    0 -0.61294165942E+02  0.11436346571E+02 -0.17168049266E+03  0.18265529382E+03  0.10000000000E+01 0.  0.
<mgrwt>
<rscale>  0 0.12500119E+03</rscale>
<asrwt>0</asrwt>
<pdfrwt beam="1">  1        4 0.18097684E-02 0.12500119E+03</pdfrwt>
<pdfrwt beam="2">  1       -4 0.51087963E-01 0.12500119E+03</pdfrwt>
<totfact> 0.70406268E+03</totfact>
</mgrwt>
</event>
<event>
 5    1  0.3212987E-002  0.1249967E+03  0.7818608E-02  0.1235074E+00
         -4   -1    0    0    0  501 -0.00000000000E+00  0.00000000000E+00  0.21364759887E+03  0.21365137351E+03  0.12700000000E+01 0.  1.
          4   -1    0    0  501    0  0.00000000000E+00 -0.00000000000E+00 -0.18256646387E+02  0.18300766030E+02  0.12700000000E+01 0.  1.
         25    2    1    2    0    0  0.00000000000E+00  0.00000000000E+00  0.19539095249E+03  0.23195213955E+03  0.12499668286E+03 0.  0.
    9000005    1    3    3    0    0 -0.53358928177E+02  0.30459757221E+02  0.11885907695E+03  0.13380378245E+03  0.10000000000E+01 0.  0.
    9000005    1    3    3    0    0  0.53358928177E+02 -0.30459757221E+02  0.76531875542E+02  0.98148357093E+02  0.10000000000E+01 0.  0.
<mgrwt>
<rscale>  0 0.12499668E+03</rscale>
<asrwt>0</asrwt>
<pdfrwt beam="2">  1        4 0.28123990E-02 0.12499668E+03</pdfrwt>
<pdfrwt beam="1">  1       -4 0.32872546E-01 0.12499668E+03</pdfrwt>
<totfact> 0.85017032E+03</totfact>
</mgrwt>
</event>
<event>
 5    1  0.3212987E-002  0.1249935E+03  0.7818608E-02  0.1235080E+00
         -4   -1    0    0    0  501 -0.00000000000E+00  0.00000000000E+00  0.35844184566E+02  0.35866676278E+02  0.12700000000E+01 0.  1.
          4   -1    0    0  501    0  0.00000000000E+00 -0.00000000000E+00 -0.10890683982E+03  0.10891424452E+03  0.12700000000E+01 0.  1.
         25    2    1    2    0    0  0.00000000000E+00  0.00000000000E+00 -0.73062655254E+02  0.14478092080E+03  0.12499345357E+03 0.  0.
    9000005    1    3    3    0    0  0.14715087557E+02  0.26473308193E+02  0.26779197598E+02  0.40441257058E+02  0.10000000000E+01 0.  0.
    9000005    1    3    3    0    0 -0.14715087557E+02 -0.26473308193E+02 -0.99841852852E+02  0.10433966374E+03  0.10000000000E+01 0.  0.
<mgrwt>
<rscale>  0 0.12499345E+03</rscale>
<asrwt>0</asrwt>
<pdfrwt beam="2">  1        4 0.16757198E-01 0.12499345E+03</pdfrwt>
<pdfrwt beam="1">  1       -4 0.55167897E-02 0.12499345E+03</pdfrwt>
<totfact> 0.10036921E+04</totfact>
</mgrwt>
</event>
<event>
 5    1  0.3212987E-002  0.1250037E+03  0.7818608E-02  0.1235063E+00
          4   -1    0    0  501    0  0.00000000000E+00  0.00000000000E+00  0.20003708410E+02  0.20043982892E+02  0.12700000000E+01 0. -1.
         -4   -1    0    0    0  501 -0.00000000000E+00 -0.00000000000E+00 -0.19504917816E+03  0.19505331272E+03  0.12700000000E+01 0. -1.
         25    2    1    2    0    0  0.00000000000E+00  0.00000000000E+00 -0.17504546975E+03  0.21509729561E+03  0.12500372033E+03 0.  0.
    9000005    1    3    3    0    0  0.41003620066E+02  0.21877964569E+02 -0.15941413727E+03  0.16605363397E+03  0.10000000000E+01 0.  0.
    9000005    1    3    3    0    0 -0.41003620066E+02 -0.21877964569E+02 -0.15631332484E+02  0.49043661644E+02  0.10000000000E+01 0.  0.
<mgrwt>
<rscale>  0 0.12500372E+03</rscale>
<asrwt>0</asrwt>
<pdfrwt beam="1">  1        4 0.30809098E-02 0.12500372E+03</pdfrwt>
<pdfrwt beam="2">  1       -4 0.30010981E-01 0.12500372E+03</pdfrwt>
<totfact> 0.87642847E+03</totfact>
</mgrwt>
</event>
<event>
 5    1  0.3212987E-002  0.1250084E+03  0.7818608E-02  0.1235056E+00
          4   -1    0    0  501    0  0.00000000000E+00  0.00000000000E+00  0.25074751518E+02  0.25106892753E+02  0.12700000000E+01 0.  1.
         -4   -1    0    0    0  501 -0.00000000000E+00 -0.00000000000E+00 -0.15567071197E+03  0.15567589237E+03  0.12700000000E+01 0.  1.
         25    2    1    2    0    0  0.00000000000E+00  0.00000000000E+00 -0.13059596045E+03  0.18078278512E+03  0.12500844176E+03 0.  0.
    9000005    1    3    3    0    0 -0.23605899853E+02 -0.56449672460E+01 -0.14858342113E+03  0.15055609319E+03  0.10000000000E+01 0.  0.
    9000005    1    3    3    0    0  0.23605899853E+02  0.56449672460E+01  0.17987460681E+02  0.30226691926E+02  0.10000000000E+01 0.  0.
<mgrwt>
<rscale>  0 0.12500844E+03</rscale>
<asrwt>0</asrwt>
<pdfrwt beam="1">  1        4 0.38605251E-02 0.12500844E+03</pdfrwt>
<pdfrwt beam="2">  1       -4 0.23952211E-01 0.12500844E+03</pdfrwt>
<totfact> 0.93458599E+03</totfact>
</mgrwt>
</event>
<event>
 5    1  0.3212987E-002  0.1250183E+03  0.7818608E-02  0.1235041E+00
         -4   -1    0    0    0  501 -0.00000000000E+00  0.00000000000E+00  0.47542188500E+03  0.47542358128E+03  0.12700000000E+01 0.  1.
          4   -1    0    0  501    0  0.00000000000E+00 -0.00000000000E+00 -0.81680152040E+01  0.82661582596E+01  0.12700000000E+01 0.  1.
         25    2    1    2    0    0  0.00000000000E+00  0.00000000000E+00  0.46725386980E+03  0.48368973954E+03  0.12501833984E+03 0.  0.
    9000005    1    3    3    0    0 -0.53502379384E+02  0.11297876280E+02  0.35073857790E+03  0.35497703677E+03  0.10000000000E+01 0.  0.
    9000005    1    3    3    0    0  0.53502379384E+02 -0.11297876280E+02  0.11651529190E+03  0.12871270277E+03  0.10000000000E+01 0.  0.
<mgrwt>
<rscale>  0 0.12501834E+03</rscale>
<asrwt>0</asrwt>
<pdfrwt beam="2">  1        4 0.12642977E-02 0.12501834E+03</pdfrwt>
<pdfrwt beam="1">  1       -4 0.73149507E-01 0.12501834E+03</pdfrwt>
<totfact> 0.57129372E+03</totfact>
</mgrwt>
</event>
<event>
 5    1  0.3212987E-002  0.1249476E+03  0.7818608E-02  0.1235151E+00
          4   -1    0    0  501    0  0.00000000000E+00  0.00000000000E+00  0.51013516752E+01  0.52570608627E+01  0.12700000000E+01 0.  1.
         -4   -1    0    0    0  501 -0.00000000000E+00 -0.00000000000E+00 -0.75342996916E+03  0.75343103953E+03  0.12700000000E+01 0.  1.
         25    2    1    2    0    0  0.00000000000E+00  0.00000000000E+00 -0.74832861748E+03  0.75868810039E+03  0.12494764476E+03 0.  0.
    9000005    1    3    3    0    0  0.37711857210E+02 -0.43646431903E+02 -0.51973946521E+03  0.52293145525E+03  0.10000000000E+01 0.  0.
    9000005    1    3    3    0    0 -0.37711857210E+02  0.43646431903E+02 -0.22858915227E+03  0.23575664514E+03  0.10000000000E+01 0.  0.
<mgrwt>
<rscale>  0 0.12494764E+03</rscale>
<asrwt>0</asrwt>
<pdfrwt beam="1">  1        4 0.79688390E-03 0.12494764E+03</pdfrwt>
<pdfrwt beam="2">  1       -4 0.11592428E+00 0.12494764E+03</pdfrwt>
<totfact> 0.40208020E+03</totfact>
</mgrwt>
</event>
<event>
 5    1  0.3212987E-002  0.1250006E+03  0.7818608E-02  0.1235068E+00
          4   -1    0    0  501    0  0.00000000000E+00  0.00000000000E+00  0.85643968093E+02  0.85653383884E+02  0.12700000000E+01 0.  1.
         -4   -1    0    0    0  501 -0.00000000000E+00 -0.00000000000E+00 -0.45590018615E+02  0.45607704364E+02  0.12700000000E+01 0.  1.
         25    2    1    2    0    0  0.00000000000E+00  0.00000000000E+00  0.40053949478E+02  0.13126108825E+03  0.12500061768E+03 0.  0.
    9000005    1    3    3    0    0 -0.25052143503E+02  0.57216582433E+02  0.17942246773E+02  0.64994395287E+02  0.10000000000E+01 0.  0.
    9000005    1    3    3    0    0  0.25052143503E+02 -0.57216582433E+02  0.22111702705E+02  0.66266692961E+02  0.10000000000E+01 0.  0.
<mgrwt>
<rscale>  0 0.12500062E+03</rscale>
<asrwt>0</asrwt>
<pdfrwt beam="1">  1        4 0.13178080E-01 0.12500062E+03</pdfrwt>
<pdfrwt beam="2">  1       -4 0.70159337E-02 0.12500062E+03</pdfrwt>
<totfact> 0.10317351E+04</totfact>
</mgrwt>
</event>
<event>
 5    1  0.3212987E-002  0.1249987E+03  0.7818608E-02  0.1235071E+00
          4   -1    0    0  501    0  0.00000000000E+00  0.00000000000E+00  0.40478656871E+01  0.42424187230E+01  0.12700000000E+01 0.  1.
         -4   -1    0    0    0  501 -0.00000000000E+00 -0.00000000000E+00 -0.94215400085E+03  0.94215485682E+03  0.12700000000E+01 0.  1.
         25    2    1    2    0    0  0.00000000000E+00  0.00000000000E+00 -0.93810613517E+03  0.94639727554E+03  0.12499872925E+03 0.  0.
    9000005    1    3    3    0    0 -0.26989514561E+02  0.52175991307E+02 -0.63044740512E+03  0.63317904149E+03  0.10000000000E+01 0.  0.
    9000005    1    3    3    0    0  0.26989514561E+02 -0.52175991307E+02 -0.30765873005E+03  0.31321823405E+03  0.10000000000E+01 0.  0.
<mgrwt>
<rscale>  0 0.12499873E+03</rscale>
<asrwt>0</asrwt>
<pdfrwt beam="1">  1        4 0.63778078E-03 0.12499873E+03</pdfrwt>
<pdfrwt beam="2">  1       -4 0.14496163E+00 0.12499873E+03</pdfrwt>
<totfact> 0.32445166E+03</totfact>
</mgrwt>
</event>
<event>
 5    1  0.3212987E-002  0.1249974E+03  0.7818608E-02  0.1235073E+00
          4   -1    0    0  501    0  0.00000000000E+00  0.00000000000E+00  0.86125274882E+02  0.86134638059E+02  0.12700000000E+01 0. -1.
         -4   -1    0    0    0  501 -0.00000000000E+00 -0.00000000000E+00 -0.45332853218E+02  0.45350639255E+02  0.12700000000E+01 0. -1.
         25    2    1    2    0    0  0.00000000000E+00  0.00000000000E+00  0.40792421664E+02  0.13148527731E+03  0.12499742591E+03 0.  0.
    9000005    1    3    3    0    0  0.45826820660E+02  0.33366567922E+02 -0.72683367469E+01  0.57159899106E+02  0.10000000000E+01 0.  0.
    9000005    1    3    3    0    0 -0.45826820660E+02 -0.33366567922E+02  0.48060758411E+02  0.74325378208E+02  0.10000000000E+01 0.  0.
<mgrwt>
<rscale>  0 0.12499743E+03</rscale>
<asrwt>0</asrwt>
<pdfrwt beam="1">  1        4 0.13252131E-01 0.12499743E+03</pdfrwt>
<pdfrwt beam="2">  1       -4 0.69763735E-02 0.12499743E+03</pdfrwt>
<totfact> 0.10313296E+04</totfact>
</mgrwt>
</event>
<event>
 5    1  0.3212987E-002  0.1250033E+03  0.7818608E-02  0.1235064E+00
          4   -1    0    0  501    0  0.00000000000E+00  0.00000000000E+00  0.41300692223E+02  0.41320213916E+02  0.12700000000E+01 0. -1.
         -4   -1    0    0    0  501 -0.00000000000E+00 -0.00000000000E+00 -0.94539599244E+02  0.94548129147E+02  0.12700000000E+01 0. -1.
         25    2    1    2    0    0  0.00000000000E+00  0.00000000000E+00 -0.53238907021E+02  0.13586834306E+03  0.12500330166E+03 0.  0.
    9000005    1    3    3    0    0  0.57186086348E+02 -0.21637582028E+02 -0.12572412757E+02  0.62429952670E+02  0.10000000000E+01 0.  0.
    9000005    1    3    3    0    0 -0.57186086348E+02  0.21637582028E+02 -0.40666494264E+02  0.73438390394E+02  0.10000000000E+01 0.  0.
<mgrwt>
<rscale>  0 0.12500330E+03</rscale>
<asrwt>0</asrwt>
<pdfrwt beam="1">  1        4 0.63561105E-02 0.12500330E+03</pdfrwt>
<pdfrwt beam="2">  1       -4 0.14546712E-01 0.12500330E+03</pdfrwt>
<totfact> 0.10219040E+04</totfact>
</mgrwt>
</event>
<event>
 5    1  0.3212987E-002  0.1250005E+03  0.7818608E-02  0.1235069E+00
          4   -1    0    0  501    0  0.00000000000E+00  0.00000000000E+00  0.50689548945E+02  0.50705456040E+02  0.12700000000E+01 0.  1.
         -4   -1    0    0    0  501 -0.00000000000E+00 -0.00000000000E+00 -0.77029603027E+02  0.77040071667E+02  0.12700000000E+01 0.  1.
         25    2    1    2    0    0  0.00000000000E+00  0.00000000000E+00 -0.26340054082E+02  0.12774552771E+03  0.12500048560E+03 0.  0.
    9000005    1    3    3    0    0 -0.17775711297E+02 -0.54225483511E+02 -0.39202975111E+02  0.69240538933E+02  0.10000000000E+01 0.  0.
    9000005    1    3    3    0    0  0.17775711297E+02  0.54225483511E+02  0.12862921029E+02  0.58504988775E+02  0.10000000000E+01 0.  0.
<mgrwt>
<rscale>  0 0.12500049E+03</rscale>
<asrwt>0</asrwt>
<pdfrwt beam="1">  1        4 0.78004211E-02 0.12500049E+03</pdfrwt>
<pdfrwt beam="2">  1       -4 0.11852737E-01 0.12500049E+03</pdfrwt>
<totfact> 0.10392873E+04</totfact>
</mgrwt>
</event>
<event>
 5    1  0.3212987E-002  0.1250003E+03  0.7818608E-02  0.1235069E+00
         -4   -1    0    0    0  501 -0.00000000000E+00  0.00000000000E+00  0.54578293262E+03  0.54578441022E+03  0.12700000000E+01 0. -1.
          4   -1    0    0  501    0  0.00000000000E+00 -0.00000000000E+00 -0.70993480872E+01  0.72120484790E+01  0.12700000000E+01 0. -1.
         25    2    1    2    0    0  0.00000000000E+00  0.00000000000E+00  0.53868358453E+03  0.55299645870E+03  0.12500031635E+03 0.  0.
    9000005    1    3    3    0    0 -0.17110653107E+02  0.14835991815E+02  0.52701190057E+03  0.52749921749E+03  0.10000000000E+01 0.  0.
    9000005    1    3    3    0    0  0.17110653107E+02 -0.14835991815E+02  0.11671683955E+02  0.25497241209E+02  0.10000000000E+01 0.  0.
<mgrwt>
<rscale>  0 0.12500032E+03</rscale>
<asrwt>0</asrwt>
<pdfrwt beam="2">  1        4 0.11009907E-02 0.12500032E+03</pdfrwt>
<pdfrwt beam="1">  1       -4 0.83975362E-01 0.12500032E+03</pdfrwt>
<totfact> 0.51975361E+03</totfact>
</mgrwt>
</event>
<event>
 5    1  0.3212987E-002  0.1249980E+03  0.7818608E-02  0.1235072E+00
         -4   -1    0    0    0  501 -0.00000000000E+00  0.00000000000E+00  0.87023264123E+02  0.87032530692E+02  0.12700000000E+01 0.  1.
          4   -1    0    0  501    0  0.00000000000E+00 -0.00000000000E+00 -0.44865341533E+02  0.44883312833E+02  0.12700000000E+01 0.  1.
         25    2    1    2    0    0  0.00000000000E+00  0.00000000000E+00  0.42157922590E+02  0.13191584353E+03  0.12499799733E+03 0.  0.
    9000005    1    3    3    0    0 -0.93073970869E+01  0.38266817367E+02 -0.30125850507E+02  0.49593788126E+02  0.10000000000E+01 0.  0.
    9000005    1    3    3    0    0  0.93073970869E+01 -0.38266817367E+02  0.72283773097E+02  0.82322055399E+02  0.10000000000E+01 0.  0.
<mgrwt>
<rscale>  0 0.12499800E+03</rscale>
<asrwt>0</asrwt>
<pdfrwt beam="2">  1        4 0.69044555E-02 0.12499800E+03</pdfrwt>
<pdfrwt beam="1">  1       -4 0.13390290E-01 0.12499800E+03</pdfrwt>
<totfact> 0.10303960E+04</totfact>
</mgrwt>
</event>
<event>
 5    1  0.3212987E-002  0.1250010E+03  0.7818608E-02  0.1235068E+00
          4   -1    0    0  501    0  0.00000000000E+00  0.00000000000E+00  0.23565988481E+02  0.23600184599E+02  0.12700000000E+01 0. -1.
         -4   -1    0    0    0  501 -0.00000000000E+00 -0.00000000000E+00 -0.16560376974E+03  0.16560863942E+03  0.12700000000E+01 0. -1.
         25    2    1    2    0    0  0.00000000000E+00  0.00000000000E+00 -0.14203778126E+03  0.18920882402E+03  0.12500099113E+03 0.  0.
    9000005    1    3    3    0    0  0.30462121339E+02 -0.50028555032E+02 -0.10399146124E+03  0.11935669720E+03  0.10000000000E+01 0.  0.
    9000005    1    3    3    0    0 -0.30462121339E+02  0.50028555032E+02 -0.38046320018E+02  0.69852126825E+02  0.10000000000E+01 0.  0.
<mgrwt>
<rscale>  0 0.12500099E+03</rscale>
<asrwt>0</asrwt>
<pdfrwt beam="1">  1        4 0.36285419E-02 0.12500099E+03</pdfrwt>
<pdfrwt beam="2">  1       -4 0.25480507E-01 0.12500099E+03</pdfrwt>
<totfact> 0.91983117E+03</totfact>
</mgrwt>
</event>
<event>
 5    1  0.3212987E-002  0.1250028E+03  0.7818608E-02  0.1235065E+00
         -4   -1    0    0    0  501 -0.00000000000E+00  0.00000000000E+00  0.23556268666E+02  0.23590478873E+02  0.12700000000E+01 0. -1.
          4   -1    0    0  501    0  0.00000000000E+00 -0.00000000000E+00 -0.16567685763E+03  0.16568172516E+03  0.12700000000E+01 0. -1.
         25    2    1    2    0    0  0.00000000000E+00  0.00000000000E+00 -0.14212058896E+03  0.18927220404E+03  0.12500282163E+03 0.  0.
    9000005    1    3    3    0    0  0.11475614779E+02 -0.19324007521E+02  0.17232828183E+02  0.28338619734E+02  0.10000000000E+01 0.  0.
    9000005    1    3    3    0    0 -0.11475614779E+02  0.19324007521E+02 -0.15935341714E+03  0.16093358430E+03  0.10000000000E+01 0.  0.
<mgrwt>
<rscale>  0 0.12500282E+03</rscale>
<asrwt>0</asrwt>
<pdfrwt beam="2">  1        4 0.25491753E-01 0.12500282E+03</pdfrwt>
<pdfrwt beam="1">  1       -4 0.36270474E-02 0.12500282E+03</pdfrwt>
<totfact> 0.91968290E+03</totfact>
</mgrwt>
</event>
<event>
 5    1  0.3212987E-002  0.1250038E+03  0.7818608E-02  0.1235063E+00
         -4   -1    0    0    0  501 -0.00000000000E+00  0.00000000000E+00  0.46691341142E+03  0.46691513861E+03  0.12700000000E+01 0.  1.
          4   -1    0    0  501    0  0.00000000000E+00 -0.00000000000E+00 -0.83166789404E+01  0.84130879347E+01  0.12700000000E+01 0.  1.
         25    2    1    2    0    0  0.00000000000E+00  0.00000000000E+00  0.45859673248E+03  0.47532822655E+03  0.12500383958E+03 0.  0.
    9000005    1    3    3    0    0  0.58825174136E+02  0.13994289194E+02  0.16926582420E+03  0.17974470920E+03  0.10000000000E+01 0.  0.
    9000005    1    3    3    0    0 -0.58825174136E+02 -0.13994289194E+02  0.28933090828E+03  0.29558351735E+03  0.10000000000E+01 0.  0.
<mgrwt>
<rscale>  0 0.12500384E+03</rscale>
<asrwt>0</asrwt>
<pdfrwt beam="2">  1        4 0.12870384E-02 0.12500384E+03</pdfrwt>
<pdfrwt beam="1">  1       -4 0.71840362E-01 0.12500384E+03</pdfrwt>
<totfact> 0.57825850E+03</totfact>
</mgrwt>
</event>
<event>
 5    1  0.3212987E-002  0.1250019E+03  0.7818608E-02  0.1235066E+00
         -4   -1    0    0    0  501 -0.00000000000E+00  0.00000000000E+00  0.78541754769E+02  0.78552021885E+02  0.12700000000E+01 0. -1.
          4   -1    0    0  501    0  0.00000000000E+00 -0.00000000000E+00 -0.49714548592E+02  0.49730767556E+02  0.12700000000E+01 0. -1.
         25    2    1    2    0    0  0.00000000000E+00  0.00000000000E+00  0.28827206177E+02  0.12828278944E+03  0.12500186499E+03 0.  0.
    9000005    1    3    3    0    0  0.53270149961E+02 -0.22972439097E+02  0.38259766254E+02  0.69500011142E+02  0.10000000000E+01 0.  0.
    9000005    1    3    3    0    0 -0.53270149961E+02  0.22972439097E+02 -0.94325600775E+01  0.58782778299E+02  0.10000000000E+01 0.  0.
<mgrwt>
<rscale>  0 0.12500186E+03</rscale>
<asrwt>0</asrwt>
<pdfrwt beam="2">  1        4 0.76504295E-02 0.12500186E+03</pdfrwt>
<pdfrwt beam="1">  1       -4 0.12085384E-01 0.12500186E+03</pdfrwt>
<totfact> 0.10380948E+04</totfact>
</mgrwt>
</event>
<event>
 5    1  0.3212987E-002  0.1249966E+03  0.7818608E-02  0.1235075E+00
         -4   -1    0    0    0  501 -0.00000000000E+00  0.00000000000E+00  0.16548642676E+02  0.16597303227E+02  0.12700000000E+01 0.  1.
          4   -1    0    0  501    0  0.00000000000E+00 -0.00000000000E+00 -0.23563671260E+03  0.23564013500E+03  0.12700000000E+01 0.  1.
         25    2    1    2    0    0  0.00000000000E+00  0.00000000000E+00 -0.21908806992E+03  0.25223743823E+03  0.12499657140E+03 0.  0.
    9000005    1    3    3    0    0  0.57991864091E+02  0.63087460297E+01 -0.64322970608E+02  0.86840665158E+02  0.10000000000E+01 0.  0.
    9000005    1    3    3    0    0 -0.57991864091E+02 -0.63087460297E+01 -0.15476509932E+03  0.16539677307E+03  0.10000000000E+01 0.  0.
<mgrwt>
<rscale>  0 0.12499657E+03</rscale>
<asrwt>0</asrwt>
<pdfrwt beam="2">  1        4 0.36255806E-01 0.12499657E+03</pdfrwt>
<pdfrwt beam="1">  1       -4 0.25499516E-02 0.12499657E+03</pdfrwt>
<totfact> 0.82014184E+03</totfact>
</mgrwt>
</event>
<event>
 5    1  0.3212987E-002  0.1250082E+03  0.7818608E-02  0.1235056E+00
         -4   -1    0    0    0  501 -0.00000000000E+00  0.00000000000E+00  0.30608137825E+01  0.33138317717E+01  0.12700000000E+01 0. -1.
          4   -1    0    0  501    0  0.00000000000E+00 -0.00000000000E+00 -0.12254655576E+04  0.12254662157E+04  0.12700000000E+01 0. -1.
         25    2    1    2    0    0  0.00000000000E+00  0.00000000000E+00 -0.12224047438E+04  0.12287800474E+04  0.12500818893E+03 0.  0.
    9000005    1    3    3    0    0  0.81184457841E+00  0.60580071639E+02 -0.76193776790E+03  0.76434335631E+03  0.10000000000E+01 0.  0.
    9000005    1    3    3    0    0 -0.81184457841E+00 -0.60580071639E+02 -0.46046697591E+03  0.46443669113E+03  0.10000000000E+01 0.  0.
<mgrwt>
<rscale>  0 0.12500819E+03</rscale>
<asrwt>0</asrwt>
<pdfrwt beam="2">  1        4 0.18855230E+00 0.12500819E+03</pdfrwt>
<pdfrwt beam="1">  1       -4 0.49040895E-03 0.12500819E+03</pdfrwt>
<totfact> 0.23967405E+03</totfact>
</mgrwt>
</event>
<event>
 5    1  0.3212987E-002  0.1250011E+03  0.7818608E-02  0.1235068E+00
         -4   -1    0    0    0  501 -0.00000000000E+00  0.00000000000E+00  0.24423489152E+03  0.24423819344E+03  0.12700000000E+01 0. -1.
          4   -1    0    0  501    0  0.00000000000E+00 -0.00000000000E+00 -0.15965468640E+02  0.16015901127E+02  0.12700000000E+01 0. -1.
         25    2    1    2    0    0  0.00000000000E+00  0.00000000000E+00  0.22826942287E+03  0.26025409456E+03  0.12500105727E+03 0.  0.
    9000005    1    3    3    0    0 -0.27152455469E+02 -0.14725880027E+02  0.10291796970E+01  0.30921943525E+02  0.10000000000E+01 0.  0.
    9000005    1    3    3    0    0  0.27152455469E+02  0.14725880027E+02  0.22724024318E+03  0.22933215104E+03  0.10000000000E+01 0.  0.
<mgrwt>
<rscale>  0 0.12500106E+03</rscale>
<asrwt>0</asrwt>
<pdfrwt beam="2">  1        4 0.24603594E-02 0.12500106E+03</pdfrwt>
<pdfrwt beam="1">  1       -4 0.37578731E-01 0.12500106E+03</pdfrwt>
<totfact> 0.80868512E+03</totfact>
</mgrwt>
</event>
<event>
 5    1  0.3212987E-002  0.1249953E+03  0.7818608E-02  0.1235077E+00
         -4   -1    0    0    0  501 -0.00000000000E+00  0.00000000000E+00  0.21307816523E+03  0.21308194995E+03  0.12700000000E+01 0. -1.
          4   -1    0    0  501    0  0.00000000000E+00 -0.00000000000E+00 -0.18305156681E+02  0.18349159685E+02  0.12700000000E+01 0. -1.
         25    2    1    2    0    0  0.00000000000E+00  0.00000000000E+00  0.19477300855E+03  0.23143110964E+03  0.12499533452E+03 0.  0.
    9000005    1    3    3    0    0 -0.60070986209E+02  0.16392731621E+02  0.10713354256E+03  0.12391868695E+03  0.10000000000E+01 0.  0.
    9000005    1    3    3    0    0  0.60070986209E+02 -0.16392731621E+02  0.87639465986E+02  0.10751242269E+03  0.10000000000E+01 0.  0.
<mgrwt>
<rscale>  0 0.12499533E+03</rscale>
<asrwt>0</asrwt>
<pdfrwt beam="2">  1        4 0.28198540E-02 0.12499533E+03</pdfrwt>
<pdfrwt beam="1">  1       -4 0.32784932E-01 0.12499533E+03</pdfrwt>
<totfact> 0.85099189E+03</totfact>
</mgrwt>
</event>
<event>
 5    1  0.3212987E-002  0.1249984E+03  0.7818608E-02  0.1235072E+00
          4   -1    0    0  501    0  0.00000000000E+00  0.00000000000E+00  0.17024669081E+03  0.17025142769E+03  0.12700000000E+01 0. -1.
         -4   -1    0    0    0  501 -0.00000000000E+00 -0.00000000000E+00 -0.22921430293E+02  0.22956586564E+02  0.12700000000E+01 0. -1.
         25    2    1    2    0    0  0.00000000000E+00  0.00000000000E+00  0.14732526052E+03  0.19320801426E+03  0.12499841754E+03 0.  0.
    9000005    1    3    3    0    0 -0.48792368325E+02  0.34370173230E+02  0.45030030851E+02  0.74771035120E+02  0.10000000000E+01 0.  0.
    9000005    1    3    3    0    0  0.48792368325E+02 -0.34370173230E+02  0.10229522966E+03  0.11843697914E+03  0.10000000000E+01 0.  0.
<mgrwt>
<rscale>  0 0.12499842E+03</rscale>
<asrwt>0</asrwt>
<pdfrwt beam="1">  1        4 0.26194867E-01 0.12499842E+03</pdfrwt>
<pdfrwt beam="2">  1       -4 0.35294426E-02 0.12499842E+03</pdfrwt>
<totfact> 0.91295342E+03</totfact>
</mgrwt>
</event>
<event>
 5    1  0.3212987E-002  0.1250006E+03  0.7818608E-02  0.1235068E+00
          4   -1    0    0  501    0  0.00000000000E+00  0.00000000000E+00  0.11967955378E+04  0.11967962116E+04  0.12700000000E+01 0. -1.
         -4   -1    0    0    0  501 -0.00000000000E+00 -0.00000000000E+00 -0.31397177043E+01  0.33868462119E+01  0.12700000000E+01 0. -1.
         25    2    1    2    0    0  0.00000000000E+00  0.00000000000E+00  0.11936558201E+04  0.12001830579E+04  0.12500062203E+03 0.  0.
    9000005    1    3    3    0    0  0.45166321889E+02 -0.24549034150E+02  0.25565495106E+03  0.26077405108E+03  0.10000000000E+01 0.  0.
    9000005    1    3    3    0    0 -0.45166321889E+02  0.24549034150E+02  0.93800086903E+03  0.93940900678E+03  0.10000000000E+01 0.  0.
<mgrwt>
<rscale>  0 0.12500062E+03</rscale>
<asrwt>0</asrwt>
<pdfrwt beam="1">  1        4 0.18414145E+00 0.12500062E+03</pdfrwt>
<pdfrwt beam="2">  1       -4 0.50209521E-03 0.12500062E+03</pdfrwt>
<totfact> 0.24707621E+03</totfact>
</mgrwt>
</event>
<event>
 5    1  0.3212987E-002  0.1249974E+03  0.7818608E-02  0.1235073E+00
         -4   -1    0    0    0  501 -0.00000000000E+00  0.00000000000E+00  0.73976847906E+01  0.75059070246E+01  0.12700000000E+01 0.  1.
          4   -1    0    0  501    0  0.00000000000E+00 -0.00000000000E+00 -0.52407172356E+03  0.52407326238E+03  0.12700000000E+01 0.  1.
         25    2    1    2    0    0  0.00000000000E+00  0.00000000000E+00 -0.51667403877E+03  0.53157916940E+03  0.12499740397E+03 0.  0.
    9000005    1    3    3    0    0  0.21952136899E+02  0.12784097729E+02 -0.50114315638E+03  0.50178759715E+03  0.10000000000E+01 0.  0.
    9000005    1    3    3    0    0 -0.21952136899E+02 -0.12784097729E+02 -0.15530882392E+02  0.29791572249E+02  0.10000000000E+01 0.  0.
<mgrwt>
<rscale>  0 0.12499740E+03</rscale>
<asrwt>0</asrwt>
<pdfrwt beam="2">  1        4 0.80634833E-01 0.12499740E+03</pdfrwt>
<pdfrwt beam="1">  1       -4 0.11465489E-02 0.12499740E+03</pdfrwt>
<totfact> 0.53497904E+03</totfact>
</mgrwt>
</event>
<event>
 5    1  0.3212987E-002  0.1250020E+03  0.7818608E-02  0.1235066E+00
          4   -1    0    0  501    0  0.00000000000E+00  0.00000000000E+00  0.15389189865E+03  0.15389713893E+03  0.12700000000E+01 0.  1.
         -4   -1    0    0    0  501 -0.00000000000E+00 -0.00000000000E+00 -0.25362324756E+02  0.25394102013E+02  0.12700000000E+01 0.  1.
         25    2    1    2    0    0  0.00000000000E+00  0.00000000000E+00  0.12852957390E+03  0.17929124094E+03  0.12500199084E+03 0.  0.
    9000005    1    3    3    0    0 -0.32911616885E+02  0.44198679545E+02  0.10653857950E+03  0.11995068454E+03  0.10000000000E+01 0.  0.
    9000005    1    3    3    0    0  0.32911616885E+02 -0.44198679545E+02  0.21990994393E+02  0.59340556401E+02  0.10000000000E+01 0.  0.
<mgrwt>
<rscale>  0 0.12500199E+03</rscale>
<asrwt>0</asrwt>
<pdfrwt beam="1">  1        4 0.23678524E-01 0.12500199E+03</pdfrwt>
<pdfrwt beam="2">  1       -4 0.39047436E-02 0.12500199E+03</pdfrwt>
<totfact> 0.93740553E+03</totfact>
</mgrwt>
</event>
<event>
 5    1  0.3212987E-002  0.1249971E+03  0.7818608E-02  0.1235074E+00
         -4   -1    0    0    0  501 -0.00000000000E+00  0.00000000000E+00  0.10863628756E+03  0.10864371070E+03  0.12700000000E+01 0. -1.
          4   -1    0    0  501    0  0.00000000000E+00 -0.00000000000E+00 -0.35935628164E+02  0.35958062678E+02  0.12700000000E+01 0. -1.
         25    2    1    2    0    0  0.00000000000E+00  0.00000000000E+00  0.72700659396E+02  0.14460177338E+03  0.12499714792E+03 0.  0.
    9000005    1    3    3    0    0 -0.11194751883E+01  0.53786545220E+02  0.73130330440E+02  0.90792570740E+02  0.10000000000E+01 0.  0.
    9000005    1    3    3    0    0  0.11194751883E+01 -0.53786545220E+02 -0.42967104395E+00  0.53809202638E+02  0.10000000000E+01 0.  0.
<mgrwt>
<rscale>  0 0.12499715E+03</rscale>
<asrwt>0</asrwt>
<pdfrwt beam="2">  1        4 0.55308550E-02 0.12499715E+03</pdfrwt>
<pdfrwt beam="1">  1       -4 0.16715571E-01 0.12499715E+03</pdfrwt>
<totfact> 0.10039731E+04</totfact>
</mgrwt>
</event>
<event>
 5    1  0.3212987E-002  0.1249892E+03  0.7818608E-02  0.1235086E+00
          4   -1    0    0  501    0  0.00000000000E+00  0.00000000000E+00  0.10782309575E+02  0.10856845756E+02  0.12700000000E+01 0.  1.
         -4   -1    0    0    0  501 -0.00000000000E+00 -0.00000000000E+00 -0.36089746708E+03  0.36089970164E+03  0.12700000000E+01 0.  1.
         25    2    1    2    0    0  0.00000000000E+00  0.00000000000E+00 -0.35011515751E+03  0.37175654740E+03  0.12498922761E+03 0.  0.
    9000005    1    3    3    0    0 -0.23392620504E+02 -0.11504221412E+02 -0.61489221096E+01  0.26802444804E+02  0.10000000000E+01 0.  0.
    9000005    1    3    3    0    0  0.23392620504E+02  0.11504221412E+02 -0.34396623540E+03  0.34495410260E+03  0.10000000000E+01 0.  0.
<mgrwt>
<rscale>  0 0.12498923E+03</rscale>
<asrwt>0</asrwt>
<pdfrwt beam="1">  1        4 0.16647226E-02 0.12498923E+03</pdfrwt>
<pdfrwt beam="2">  1       -4 0.55528583E-01 0.12498923E+03</pdfrwt>
<totfact> 0.67411625E+03</totfact>
</mgrwt>
</event>
<event>
 5    1  0.3212987E-002  0.1249990E+03  0.7818608E-02  0.1235071E+00
         -4   -1    0    0    0  501 -0.00000000000E+00  0.00000000000E+00  0.15260332864E+03  0.15260861316E+03  0.12700000000E+01 0.  1.
          4   -1    0    0  501    0  0.00000000000E+00 -0.00000000000E+00 -0.25575502186E+02  0.25607014900E+02  0.12700000000E+01 0.  1.
         25    2    1    2    0    0  0.00000000000E+00  0.00000000000E+00  0.12702782645E+03  0.17821562806E+03  0.12499896557E+03 0.  0.
    9000005    1    3    3    0    0 -0.12124253573E+02 -0.52481394174E+02  0.10868730146E+03  0.12130632200E+03  0.10000000000E+01 0.  0.
    9000005    1    3    3    0    0  0.12124253573E+02  0.52481394174E+02  0.18340524991E+02  0.56909306058E+02  0.10000000000E+01 0.  0.
<mgrwt>
<rscale>  0 0.12499897E+03</rscale>
<asrwt>0</asrwt>
<pdfrwt beam="2">  1        4 0.39375232E-02 0.12499897E+03</pdfrwt>
<pdfrwt beam="1">  1       -4 0.23480266E-01 0.12499897E+03</pdfrwt>
<totfact> 0.93941364E+03</totfact>
</mgrwt>
</event>
<event>
 5    1  0.3212987E-002  0.1249996E+03  0.7818608E-02  0.1235070E+00
         -4   -1    0    0    0  501 -0.00000000000E+00  0.00000000000E+00  0.28895807376E+02  0.28923702804E+02  0.12700000000E+01 0.  1.
          4   -1    0    0  501    0  0.00000000000E+00 -0.00000000000E+00 -0.13508706562E+03  0.13509303534E+03  0.12700000000E+01 0.  1.
         25    2    1    2    0    0  0.00000000000E+00  0.00000000000E+00 -0.10619125825E+03  0.16401673815E+03  0.12499962826E+03 0.  0.
    9000005    1    3    3    0    0  0.59034576371E+02  0.20481962705E+02 -0.54141035409E+02  0.82685208585E+02  0.10000000000E+01 0.  0.
    9000005    1    3    3    0    0 -0.59034576371E+02 -0.20481962705E+02 -0.52050222837E+02  0.81331529562E+02  0.10000000000E+01 0.  0.
<mgrwt>
<rscale>  0 0.12499963E+03</rscale>
<asrwt>0</asrwt>
<pdfrwt beam="2">  1        4 0.20785230E-01 0.12499963E+03</pdfrwt>
<pdfrwt beam="1">  1       -4 0.44481139E-02 0.12499963E+03</pdfrwt>
<totfact> 0.96574738E+03</totfact>
</mgrwt>
</event>
<event>
 5    1  0.3212987E-002  0.1250006E+03  0.7818608E-02  0.1235068E+00
          4   -1    0    0  501    0  0.00000000000E+00  0.00000000000E+00  0.10158105874E+02  0.10237187843E+02  0.12700000000E+01 0.  1.
         -4   -1    0    0    0  501 -0.00000000000E+00 -0.00000000000E+00 -0.38297767467E+03  0.38297978040E+03  0.12700000000E+01 0.  1.
         25    2    1    2    0    0  0.00000000000E+00  0.00000000000E+00 -0.37281956880E+03  0.39321696824E+03  0.12500061295E+03 0.  0.
    9000005    1    3    3    0    0 -0.26099162796E+02  0.16846659517E+02 -0.15834218239E+02  0.34881208448E+02  0.10000000000E+01 0.  0.
    9000005    1    3    3    0    0  0.26099162796E+02 -0.16846659517E+02 -0.35698535056E+03  0.35833575980E+03  0.10000000000E+01 0.  0.
<mgrwt>
<rscale>  0 0.12500061E+03</rscale>
<asrwt>0</asrwt>
<pdfrwt beam="1">  1        4 0.15690310E-02 0.12500061E+03</pdfrwt>
<pdfrwt beam="2">  1       -4 0.58925876E-01 0.12500061E+03</pdfrwt>
<totfact> 0.65217011E+03</totfact>
</mgrwt>
</event>
<event>
 5    1  0.3212987E-002  0.1250014E+03  0.7818608E-02  0.1235067E+00
          4   -1    0    0  501    0  0.00000000000E+00  0.00000000000E+00  0.78812174950E+03  0.78812277276E+03  0.12700000000E+01 0. -1.
         -4   -1    0    0    0  501 -0.00000000000E+00 -0.00000000000E+00 -0.48741191162E+01  0.50368578657E+01  0.12700000000E+01 0. -1.
         25    2    1    2    0    0  0.00000000000E+00  0.00000000000E+00  0.78324763039E+03  0.79315963062E+03  0.12500139657E+03 0.  0.
    9000005    1    3    3    0    0 -0.32099145022E+02 -0.30481716918E+02  0.67152200734E+03  0.67298016057E+03  0.10000000000E+01 0.  0.
    9000005    1    3    3    0    0  0.32099145022E+02  0.30481716918E+02  0.11172562304E+03  0.12017947005E+03  0.10000000000E+01 0.  0.
<mgrwt>
<rscale>  0 0.12500140E+03</rscale>
<asrwt>0</asrwt>
<pdfrwt beam="1">  1        4 0.12126203E+00 0.12500140E+03</pdfrwt>
<pdfrwt beam="2">  1       -4 0.76246195E-03 0.12500140E+03</pdfrwt>
<totfact> 0.38570769E+03</totfact>
</mgrwt>
</event>
<event>
 5    1  0.3212987E-002  0.1250000E+03  0.7818608E-02  0.1235069E+00
          4   -1    0    0  501    0  0.00000000000E+00  0.00000000000E+00  0.76695459350E+03  0.76695564499E+03  0.12700000000E+01 0.  1.
         -4   -1    0    0    0  501 -0.00000000000E+00 -0.00000000000E+00 -0.50129515099E+01  0.51713231228E+01  0.12700000000E+01 0.  1.
         25    2    1    2    0    0  0.00000000000E+00  0.00000000000E+00  0.76194164199E+03  0.77212696812E+03  0.12499995639E+03 0.  0.
    9000005    1    3    3    0    0 -0.42709723227E+02  0.23173481198E+02  0.13824336521E+03  0.14653790880E+03  0.10000000000E+01 0.  0.
    9000005    1    3    3    0    0  0.42709723227E+02 -0.23173481198E+02  0.62369827677E+03  0.62558905932E+03  0.10000000000E+01 0.  0.
<mgrwt>
<rscale>  0 0.12499996E+03</rscale>
<asrwt>0</asrwt>
<pdfrwt beam="1">  1        4 0.11800524E+00 0.12499996E+03</pdfrwt>
<pdfrwt beam="2">  1       -4 0.78348685E-03 0.12499996E+03</pdfrwt>
<totfact> 0.39537531E+03</totfact>
</mgrwt>
</event>
<event>
 5    1  0.3212987E-002  0.1249963E+03  0.7818608E-02  0.1235075E+00
          4   -1    0    0  501    0  0.00000000000E+00  0.00000000000E+00  0.26920359251E+03  0.26920658818E+03  0.12700000000E+01 0. -1.
         -4   -1    0    0    0  501 -0.00000000000E+00 -0.00000000000E+00 -0.14478656935E+02  0.14534249435E+02  0.12700000000E+01 0. -1.
         25    2    1    2    0    0  0.00000000000E+00  0.00000000000E+00  0.25472493557E+03  0.28374083762E+03  0.12499628046E+03 0.  0.
    9000005    1    3    3    0    0  0.19493458803E+02 -0.18782705615E+02  0.25521439129E+03  0.25664795048E+03  0.10000000000E+01 0.  0.
    9000005    1    3    3    0    0 -0.19493458803E+02  0.18782705615E+02 -0.48945571384E+00  0.27092887133E+02  0.10000000000E+01 0.  0.
<mgrwt>
<rscale>  0 0.12499628E+03</rscale>
<asrwt>0</asrwt>
<pdfrwt beam="1">  1        4 0.41420443E-01 0.12499628E+03</pdfrwt>
<pdfrwt beam="2">  1       -4 0.22319925E-02 0.12499628E+03</pdfrwt>
<totfact> 0.77691119E+03</totfact>
</mgrwt>
</event>
<event>
 4    1  0.3212987E-002  0.1251191E+03  0.7818608E-02  0.1234883E+00
          4   -1    0    0  501    0  0.00000000000E+00  0.00000000000E+00  0.17823641838E+03  0.17824094293E+03  0.12700000000E+01 0.  1.
         -4   -1    0    0    0  501 -0.00000000000E+00 -0.00000000000E+00 -0.21934734219E+02  0.21971469346E+02  0.12700000000E+01 0.  1.
    9000005    1    1    2    0    0 -0.43608450866E+02 -0.43674092124E+02  0.94436112103E+02  0.11281977920E+03  0.10000000000E+01 0.  0.
    9000005    1    1    2    0    0  0.43608450866E+02  0.43674092124E+02  0.61865572055E+02  0.87392633073E+02  0.10000000000E+01 0.  0.
<mgrwt>
<rscale>  0 0.12511912E+03</rscale>
<asrwt>0</asrwt>
<pdfrwt beam="1">  1        4 0.27424161E-01 0.12511912E+03</pdfrwt>
<pdfrwt beam="2">  1       -4 0.33777484E-02 0.12511912E+03</pdfrwt>
<totfact> 0.89859956E+03</totfact>
</mgrwt>
</event>
<event>
 5    1  0.3212987E-002  0.1249985E+03  0.7818608E-02  0.1235072E+00
         -4   -1    0    0    0  501 -0.00000000000E+00  0.00000000000E+00  0.17288975023E+02  0.17335557601E+02  0.12700000000E+01 0.  1.
          4   -1    0    0  501    0  0.00000000000E+00 -0.00000000000E+00 -0.22558114435E+03  0.22558471931E+03  0.12700000000E+01 0.  1.
         25    2    1    2    0    0  0.00000000000E+00  0.00000000000E+00 -0.20829216932E+03  0.24292027691E+03  0.12499853252E+03 0.  0.
    9000005    1    3    3    0    0 -0.50194772977E+02 -0.28628873178E+02 -0.57910235878E+02  0.81815176056E+02  0.10000000000E+01 0.  0.
    9000005    1    3    3    0    0  0.50194772977E+02  0.28628873178E+02 -0.15038193344E+03  0.16110510085E+03  0.10000000000E+01 0.  0.
<mgrwt>
<rscale>  0 0.12499853E+03</rscale>
<asrwt>0</asrwt>
<pdfrwt beam="2">  1        4 0.34708648E-01 0.12499853E+03</pdfrwt>
<pdfrwt beam="1">  1       -4 0.26637007E-02 0.12499853E+03</pdfrwt>
<totfact> 0.83367085E+03</totfact>
</mgrwt>
</event>
<event>
 5    1  0.3212987E-002  0.1250292E+03  0.7818608E-02  0.1235024E+00
          4   -1    0    0  501    0  0.00000000000E+00  0.00000000000E+00  0.29701310342E+03  0.29701581861E+03  0.12700000000E+01 0.  1.
         -4   -1    0    0    0  501 -0.00000000000E+00 -0.00000000000E+00 -0.13124497534E+02  0.13185800526E+02  0.12700000000E+01 0.  1.
         25    2    1    2    0    0  0.00000000000E+00  0.00000000000E+00  0.28388860589E+03  0.31020161914E+03  0.12502921243E+03 0.  0.
    9000005    1    3    3    0    0 -0.13755495663E+02  0.26296701098E+02  0.27843147734E+03  0.28001038859E+03  0.10000000000E+01 0.  0.
    9000005    1    3    3    0    0  0.13755495663E+02 -0.26296701098E+02  0.54571285521E+01  0.30191230541E+02  0.10000000000E+01 0.  0.
<mgrwt>
<rscale>  0 0.12502921E+03</rscale>
<asrwt>0</asrwt>
<pdfrwt beam="1">  1        4 0.45699246E-01 0.12502921E+03</pdfrwt>
<pdfrwt beam="2">  1       -4 0.20240781E-02 0.12502921E+03</pdfrwt>
<totfact> 0.74288574E+03</totfact>
</mgrwt>
</event>
<event>
 5    1  0.3212987E-002  0.1250025E+03  0.7818608E-02  0.1235065E+00
          4   -1    0    0  501    0  0.00000000000E+00  0.00000000000E+00  0.15958292506E+02  0.16008747599E+02  0.12700000000E+01 0.  1.
         -4   -1    0    0    0  501 -0.00000000000E+00 -0.00000000000E+00 -0.24435009008E+03  0.24435339045E+03  0.12700000000E+01 0.  1.
         25    2    1    2    0    0  0.00000000000E+00  0.00000000000E+00 -0.22839179758E+03  0.26036213805E+03  0.12500251889E+03 0.  0.
    9000005    1    3    3    0    0  0.35495499144E+02  0.28214404773E+02 -0.20376894599E+03  0.20875527885E+03  0.10000000000E+01 0.  0.
    9000005    1    3    3    0    0 -0.35495499144E+02 -0.28214404773E+02 -0.24622851584E+02  0.51606859199E+02  0.10000000000E+01 0.  0.
<mgrwt>
<rscale>  0 0.12500252E+03</rscale>
<asrwt>0</asrwt>
<pdfrwt beam="1">  1        4 0.24592571E-02 0.12500252E+03</pdfrwt>
<pdfrwt beam="2">  1       -4 0.37596454E-01 0.12500252E+03</pdfrwt>
<totfact> 0.80850735E+03</totfact>
</mgrwt>
</event>
<event>
 5    1  0.3212987E-002  0.1249916E+03  0.7818608E-02  0.1235082E+00
         -4   -1    0    0    0  501 -0.00000000000E+00  0.00000000000E+00  0.12039932107E+02  0.12106728094E+02  0.12700000000E+01 0.  1.
          4   -1    0    0  501    0  0.00000000000E+00 -0.00000000000E+00 -0.32343233379E+03  0.32343482719E+03  0.12700000000E+01 0.  1.
         25    2    1    2    0    0  0.00000000000E+00  0.00000000000E+00 -0.31139240168E+03  0.33554155529E+03  0.12499162971E+03 0.  0.
    9000005    1    3    3    0    0 -0.34361435479E+02  0.52171947892E+02 -0.15179997601E+03  0.16415496676E+03  0.10000000000E+01 0.  0.
    9000005    1    3    3    0    0  0.34361435479E+02 -0.52171947892E+02 -0.15959242567E+03  0.17138658853E+03  0.10000000000E+01 0.  0.
<mgrwt>
<rscale>  0 0.12499163E+03</rscale>
<asrwt>0</asrwt>
<pdfrwt beam="2">  1        4 0.49764144E-01 0.12499163E+03</pdfrwt>
<pdfrwt beam="1">  1       -4 0.18576274E-02 0.12499163E+03</pdfrwt>
<totfact> 0.71358239E+03</totfact>
</mgrwt>
</event>
<event>
 5    1  0.3212987E-002  0.1250257E+03  0.7818608E-02  0.1235029E+00
          4   -1    0    0  501    0  0.00000000000E+00  0.00000000000E+00  0.37182765292E+02  0.37204447782E+02  0.12700000000E+01 0. -1.
         -4   -1    0    0    0  501 -0.00000000000E+00 -0.00000000000E+00 -0.10504241512E+03  0.10505009221E+03  0.12700000000E+01 0. -1.
         25    2    1    2    0    0  0.00000000000E+00  0.00000000000E+00 -0.67859649826E+02  0.14225453999E+03  0.12502568566E+03 0.  0.
    9000005    1    3    3    0    0  0.60898659971E+01  0.43727387149E+02 -0.84272728453E+02  0.95142333457E+02  0.10000000000E+01 0.  0.
    9000005    1    3    3    0    0 -0.60898659971E+01 -0.43727387149E+02  0.16413078627E+02  0.47112206537E+02  0.10000000000E+01 0.  0.
<mgrwt>
<rscale>  0 0.12502569E+03</rscale>
<asrwt>0</asrwt>
<pdfrwt beam="1">  1        4 0.57226839E-02 0.12502569E+03</pdfrwt>
<pdfrwt beam="2">  1       -4 0.16162630E-01 0.12502569E+03</pdfrwt>
<totfact> 0.10081238E+04</totfact>
</mgrwt>
</event>
<event>
 5    1  0.3212987E-002  0.1249965E+03  0.7818608E-02  0.1235075E+00
         -4   -1    0    0    0  501 -0.00000000000E+00  0.00000000000E+00  0.42215849026E+02  0.42234947721E+02  0.12700000000E+01 0.  1.
          4   -1    0    0  501    0  0.00000000000E+00 -0.00000000000E+00 -0.92480884203E+02  0.92489603972E+02  0.12700000000E+01 0.  1.
         25    2    1    2    0    0  0.00000000000E+00  0.00000000000E+00 -0.50265035177E+02  0.13472455169E+03  0.12499652422E+03 0.  0.
    9000005    1    3    3    0    0 -0.64770207283E+01 -0.41639124063E+02 -0.74867686631E+02  0.85918210827E+02  0.10000000000E+01 0.  0.
    9000005    1    3    3    0    0  0.64770207283E+01  0.41639124063E+02  0.24602651454E+02  0.48806340867E+02  0.10000000000E+01 0.  0.
<mgrwt>
<rscale>  0 0.12499652E+03</rscale>
<asrwt>0</asrwt>
<pdfrwt beam="2">  1        4 0.14229968E-01 0.12499652E+03</pdfrwt>
<pdfrwt beam="1">  1       -4 0.64968859E-02 0.12499652E+03</pdfrwt>
<totfact> 0.10244683E+04</totfact>
</mgrwt>
</event>
<event>
 5    1  0.3212987E-002  0.1249981E+03  0.7818608E-02  0.1235072E+00
         -4   -1    0    0    0  501 -0.00000000000E+00  0.00000000000E+00  0.65976274803E+02  0.65988497005E+02  0.12700000000E+01 0.  1.
          4   -1    0    0  501    0  0.00000000000E+00 -0.00000000000E+00 -0.59180616966E+02  0.59194242325E+02  0.12700000000E+01 0.  1.
         25    2    1    2    0    0  0.00000000000E+00  0.00000000000E+00  0.67956578377E+01  0.12518273933E+03  0.12499814903E+03 0.  0.
    9000005    1    3    3    0    0 -0.19495620724E+02  0.10033006880E+02  0.62002566241E+02  0.65772780654E+02  0.10000000000E+01 0.  0.
    9000005    1    3    3    0    0  0.19495620724E+02 -0.10033006880E+02 -0.55206908403E+02  0.59409958676E+02  0.10000000000E+01 0.  0.
<mgrwt>
<rscale>  0 0.12499815E+03</rscale>
<asrwt>0</asrwt>
<pdfrwt beam="2">  1        4 0.91066986E-02 0.12499815E+03</pdfrwt>
<pdfrwt beam="1">  1       -4 0.10152184E-01 0.12499815E+03</pdfrwt>
<totfact> 0.10449332E+04</totfact>
</mgrwt>
</event>
<event>
 5    1  0.3212987E-002  0.1250009E+03  0.7818608E-02  0.1235068E+00
         -4   -1    0    0    0  501 -0.00000000000E+00  0.00000000000E+00  0.76188661297E+01  0.77239899730E+01  0.12700000000E+01 0.  1.
          4   -1    0    0  501    0  0.00000000000E+00 -0.00000000000E+00 -0.50909597741E+03  0.50909756149E+03  0.12700000000E+01 0.  1.
         25    2    1    2    0    0  0.00000000000E+00  0.00000000000E+00 -0.50147711129E+03  0.51682155147E+03  0.12500089167E+03 0.  0.
    9000005    1    3    3    0    0 -0.46054628347E+01  0.34445347486E+02 -0.35996371554E+02  0.50044290548E+02  0.10000000000E+01 0.  0.
    9000005    1    3    3    0    0  0.46054628347E+01 -0.34445347486E+02 -0.46548073973E+03  0.46677726092E+03  0.10000000000E+01 0.  0.
<mgrwt>
<rscale>  0 0.12500089E+03</rscale>
<asrwt>0</asrwt>
<pdfrwt beam="2">  1        4 0.78330640E-01 0.12500089E+03</pdfrwt>
<pdfrwt beam="1">  1       -4 0.11803420E-02 0.12500089E+03</pdfrwt>
<totfact> 0.54581382E+03</totfact>
</mgrwt>
</event>
<event>
 5    1  0.3212987E-002  0.1249999E+03  0.7818608E-02  0.1235069E+00
         -4   -1    0    0    0  501 -0.00000000000E+00  0.00000000000E+00  0.91086278418E+03  0.91086366955E+03  0.12700000000E+01 0. -1.
          4   -1    0    0  501    0  0.00000000000E+00 -0.00000000000E+00 -0.41935798294E+01  0.43816676945E+01  0.12700000000E+01 0. -1.
         25    2    1    2    0    0  0.00000000000E+00  0.00000000000E+00  0.90666920435E+03  0.91524533724E+03  0.12499992491E+03 0.  0.
    9000005    1    3    3    0    0  0.28633602170E+02  0.34134140737E+02  0.13248348345E+03  0.13977802447E+03  0.10000000000E+01 0.  0.
    9000005    1    3    3    0    0 -0.28633602170E+02 -0.34134140737E+02  0.77418572090E+03  0.77546731278E+03  0.10000000000E+01 0.  0.
<mgrwt>
<rscale>  0 0.12499992E+03</rscale>
<asrwt>0</asrwt>
<pdfrwt beam="2">  1        4 0.65970243E-03 0.12499992E+03</pdfrwt>
<pdfrwt beam="1">  1       -4 0.14014729E+00 0.12499992E+03</pdfrwt>
<totfact> 0.33582898E+03</totfact>
</mgrwt>
</event>
<event>
 5    1  0.3212987E-002  0.1249988E+03  0.7818608E-02  0.1235071E+00
          4   -1    0    0  501    0  0.00000000000E+00  0.00000000000E+00  0.60668210761E+02  0.60681502099E+02  0.12700000000E+01 0. -1.
         -4   -1    0    0    0  501 -0.00000000000E+00 -0.00000000000E+00 -0.64359287356E+02  0.64371816574E+02  0.12700000000E+01 0. -1.
         25    2    1    2    0    0  0.00000000000E+00  0.00000000000E+00 -0.36910765953E+01  0.12505331867E+03  0.12499883385E+03 0.  0.
    9000005    1    3    3    0    0  0.59270588442E+02  0.36484081777E+01  0.17627364202E+02  0.61951896704E+02  0.10000000000E+01 0.  0.
    9000005    1    3    3    0    0 -0.59270588442E+02 -0.36484081777E+01 -0.21318440797E+02  0.63101421969E+02  0.10000000000E+01 0.  0.
<mgrwt>
<rscale>  0 0.12499883E+03</rscale>
<asrwt>0</asrwt>
<pdfrwt beam="1">  1        4 0.93355571E-02 0.12499883E+03</pdfrwt>
<pdfrwt beam="2">  1       -4 0.99034151E-02 0.12499883E+03</pdfrwt>
<totfact> 0.10451980E+04</totfact>
</mgrwt>
</event>
<event>
 5    1  0.3212987E-002  0.1249989E+03  0.7818608E-02  0.1235071E+00
          4   -1    0    0  501    0  0.00000000000E+00  0.00000000000E+00  0.49085149653E+02  0.49101576517E+02  0.12700000000E+01 0. -1.
         -4   -1    0    0    0  501 -0.00000000000E+00 -0.00000000000E+00 -0.79544934217E+02  0.79555071866E+02  0.12700000000E+01 0. -1.
         25    2    1    2    0    0  0.00000000000E+00  0.00000000000E+00 -0.30459784564E+02  0.12865664838E+03  0.12499893879E+03 0.  0.
    9000005    1    3    3    0    0 -0.61174350231E+01 -0.47642506531E+02 -0.56374014767E+02  0.74069298503E+02  0.10000000000E+01 0.  0.
    9000005    1    3    3    0    0  0.61174350231E+01  0.47642506531E+02  0.25914230203E+02  0.54587349879E+02  0.10000000000E+01 0.  0.
<mgrwt>
<rscale>  0 0.12499894E+03</rscale>
<asrwt>0</asrwt>
<pdfrwt beam="1">  1        4 0.75536049E-02 0.12499894E+03</pdfrwt>
<pdfrwt beam="2">  1       -4 0.12239726E-01 0.12499894E+03</pdfrwt>
<totfact> 0.10373579E+04</totfact>
</mgrwt>
</event>
<event>
 5    1  0.3212987E-002  0.1249985E+03  0.7818608E-02  0.1235072E+00
         -4   -1    0    0    0  501 -0.00000000000E+00  0.00000000000E+00  0.12878478667E+02  0.12940947136E+02  0.12700000000E+01 0.  1.
          4   -1    0    0  501    0  0.00000000000E+00 -0.00000000000E+00 -0.30251098950E+03  0.30251365534E+03  0.12700000000E+01 0.  1.
         25    2    1    2    0    0  0.00000000000E+00  0.00000000000E+00 -0.28963251083E+03  0.31545460247E+03  0.12499845956E+03 0.  0.
    9000005    1    3    3    0    0 -0.44495876091E+02  0.42564699205E+02 -0.11792798415E+03  0.13304001674E+03  0.10000000000E+01 0.  0.
    9000005    1    3    3    0    0  0.44495876091E+02 -0.42564699205E+02 -0.17170452668E+03  0.18241458574E+03  0.10000000000E+01 0.  0.
<mgrwt>
<rscale>  0 0.12499846E+03</rscale>
<asrwt>0</asrwt>
<pdfrwt beam="2">  1        4 0.46545157E-01 0.12499846E+03</pdfrwt>
<pdfrwt beam="1">  1       -4 0.19863150E-02 0.12499846E+03</pdfrwt>
<totfact> 0.73702541E+03</totfact>
</mgrwt>
</event>
<event>
 5    1  0.3212987E-002  0.1249980E+03  0.7818608E-02  0.1235072E+00
         -4   -1    0    0    0  501 -0.00000000000E+00  0.00000000000E+00  0.20339743825E+02  0.20379354231E+02  0.12700000000E+01 0.  1.
          4   -1    0    0  501    0  0.00000000000E+00 -0.00000000000E+00 -0.19181555486E+03  0.19181975911E+03  0.12700000000E+01 0.  1.
         25    2    1    2    0    0  0.00000000000E+00  0.00000000000E+00 -0.17147581103E+03  0.21219911334E+03  0.12499803972E+03 0.  0.
    9000005    1    3    3    0    0 -0.11736905564E+01  0.56157989088E+02 -0.39245744132E+02  0.68529743326E+02  0.10000000000E+01 0.  0.
    9000005    1    3    3    0    0  0.11736905564E+01 -0.56157989088E+02 -0.13223006690E+03  0.14366937001E+03  0.10000000000E+01 0.  0.
<mgrwt>
<rscale>  0 0.12499804E+03</rscale>
<asrwt>0</asrwt>
<pdfrwt beam="2">  1        4 0.29513455E-01 0.12499804E+03</pdfrwt>
<pdfrwt beam="1">  1       -4 0.31325618E-02 0.12499804E+03</pdfrwt>
<totfact> 0.88121853E+03</totfact>
</mgrwt>
</event>
<event>
 5    1  0.3212987E-002  0.1249987E+03  0.7818608E-02  0.1235071E+00
          4   -1    0    0  501    0  0.00000000000E+00  0.00000000000E+00  0.99421085443E+02  0.99429196571E+02  0.12700000000E+01 0. -1.
         -4   -1    0    0    0  501 -0.00000000000E+00 -0.00000000000E+00 -0.39269159216E+02  0.39289690321E+02  0.12700000000E+01 0. -1.
         25    2    1    2    0    0  0.00000000000E+00  0.00000000000E+00  0.60151926227E+02  0.13871888689E+03  0.12499870140E+03 0.  0.
    9000005    1    3    3    0    0  0.31321300973E+02 -0.53525836991E+02  0.21542349072E+02  0.65659058200E+02  0.10000000000E+01 0.  0.
    9000005    1    3    3    0    0 -0.31321300973E+02  0.53525836991E+02  0.38609577155E+02  0.73059828691E+02  0.10000000000E+01 0.  0.
<mgrwt>
<rscale>  0 0.12499870E+03</rscale>
<asrwt>0</asrwt>
<pdfrwt beam="1">  1        4 0.15297755E-01 0.12499870E+03</pdfrwt>
<pdfrwt beam="2">  1       -4 0.60436123E-02 0.12499870E+03</pdfrwt>
<totfact> 0.10160504E+04</totfact>
</mgrwt>
</event>
<event>
 4    1  0.3212987E-002  0.1248931E+03  0.7818608E-02  0.1235236E+00
          4   -1    0    0  501    0  0.00000000000E+00  0.00000000000E+00  0.32240624477E+02  0.32265628254E+02  0.12700000000E+01 0. -1.
         -4   -1    0    0    0  501 -0.00000000000E+00 -0.00000000000E+00 -0.12087695245E+03  0.12088362393E+03  0.12700000000E+01 0. -1.
    9000005    1    1    2    0    0  0.61873657186E+02  0.29415995685E+01 -0.34696165841E+02  0.71005819379E+02  0.10000000000E+01 0.  0.
    9000005    1    1    2    0    0 -0.61873657186E+02 -0.29415995685E+01 -0.53940162132E+02  0.82143432802E+02  0.10000000000E+01 0.  0.
<mgrwt>
<rscale>  0 0.12489313E+03</rscale>
<asrwt>0</asrwt>
<pdfrwt beam="1">  1        4 0.49625327E-02 0.12489313E+03</pdfrwt>
<pdfrwt beam="2">  1       -4 0.18598891E-01 0.12489313E+03</pdfrwt>
<totfact> 0.98917231E+03</totfact>
</mgrwt>
</event>
<event>
 5    1  0.3212987E-002  0.1250011E+03  0.7818608E-02  0.1235068E+00
          4   -1    0    0  501    0  0.00000000000E+00  0.00000000000E+00  0.60225692719E+02  0.60239081695E+02  0.12700000000E+01 0. -1.
         -4   -1    0    0    0  501 -0.00000000000E+00 -0.00000000000E+00 -0.64834538338E+02  0.64846975732E+02  0.12700000000E+01 0. -1.
         25    2    1    2    0    0  0.00000000000E+00  0.00000000000E+00 -0.46088456198E+01  0.12508605743E+03  0.12500112121E+03 0.  0.
    9000005    1    3    3    0    0 -0.12527965091E+01 -0.38501200982E+01 -0.64708059501E+02  0.64842315569E+02  0.10000000000E+01 0.  0.
    9000005    1    3    3    0    0  0.12527965091E+01  0.38501200982E+01  0.60099213882E+02  0.60243741858E+02  0.10000000000E+01 0.  0.
<mgrwt>
<rscale>  0 0.12500112E+03</rscale>
<asrwt>0</asrwt>
<pdfrwt beam="1">  1        4 0.92674778E-02 0.12500112E+03</pdfrwt>
<pdfrwt beam="2">  1       -4 0.99765311E-02 0.12500112E+03</pdfrwt>
<totfact> 0.10450729E+04</totfact>
</mgrwt>
</event>
<event>
 5    1  0.3212987E-002  0.1249936E+03  0.7818608E-02  0.1235079E+00
         -4   -1    0    0    0  501 -0.00000000000E+00  0.00000000000E+00  0.85384105811E+03  0.85384200261E+03  0.12700000000E+01 0. -1.
          4   -1    0    0  501    0  0.00000000000E+00 -0.00000000000E+00 -0.44853342416E+01  0.46616652882E+01  0.12700000000E+01 0. -1.
         25    2    1    2    0    0  0.00000000000E+00  0.00000000000E+00  0.84935572387E+03  0.85850366790E+03  0.12499360832E+03 0.  0.
    9000005    1    3    3    0    0  0.29042621116E+02 -0.52301617383E+02  0.30068171362E+03  0.30657694944E+03  0.10000000000E+01 0.  0.
    9000005    1    3    3    0    0 -0.29042621116E+02  0.52301617383E+02  0.54867401025E+03  0.55192671845E+03  0.10000000000E+01 0.  0.
<mgrwt>
<rscale>  0 0.12499361E+03</rscale>
<asrwt>0</asrwt>
<pdfrwt beam="2">  1        4 0.70368801E-03 0.12499361E+03</pdfrwt>
<pdfrwt beam="1">  1       -4 0.13137380E+00 0.12499361E+03</pdfrwt>
<totfact> 0.35786844E+03</totfact>
</mgrwt>
</event>
<event>
 5    1  0.3212987E-002  0.1249990E+03  0.7818608E-02  0.1235071E+00
          4   -1    0    0  501    0  0.00000000000E+00  0.00000000000E+00  0.38987703773E+01  0.41004036942E+01  0.12700000000E+01 0.  1.
         -4   -1    0    0    0  501 -0.00000000000E+00 -0.00000000000E+00 -0.97644520514E+03  0.97644603105E+03  0.12700000000E+01 0.  1.
         25    2    1    2    0    0  0.00000000000E+00  0.00000000000E+00 -0.97254643477E+03  0.98054643474E+03  0.12499897163E+03 0.  0.
    9000005    1    3    3    0    0  0.27951828219E+02  0.50629778158E+02 -0.67199039985E+03  0.67447518608E+03  0.10000000000E+01 0.  0.
    9000005    1    3    3    0    0 -0.27951828219E+02 -0.50629778158E+02 -0.30055603491E+03  0.30607124866E+03  0.10000000000E+01 0.  0.
<mgrwt>
<rscale>  0 0.12499897E+03</rscale>
<asrwt>0</asrwt>
<pdfrwt beam="1">  1        4 0.61538539E-03 0.12499897E+03</pdfrwt>
<pdfrwt beam="2">  1       -4 0.15023772E+00 0.12499897E+03</pdfrwt>
<totfact> 0.31256409E+03</totfact>
</mgrwt>
</event>
<event>
 5    1  0.3212987E-002  0.1250001E+03  0.7818608E-02  0.1235069E+00
         -4   -1    0    0    0  501 -0.00000000000E+00  0.00000000000E+00  0.25868916623E+02  0.25900072341E+02  0.12700000000E+01 0. -1.
          4   -1    0    0  501    0  0.00000000000E+00 -0.00000000000E+00 -0.15087721836E+03  0.15088256334E+03  0.12700000000E+01 0. -1.
         25    2    1    2    0    0  0.00000000000E+00  0.00000000000E+00 -0.12500830174E+03  0.17678263568E+03  0.12500009910E+03 0.  0.
    9000005    1    3    3    0    0  0.15563031863E+02  0.12470299022E+02  0.21254670175E+02  0.29162944342E+02  0.10000000000E+01 0.  0.
    9000005    1    3    3    0    0 -0.15563031863E+02 -0.12470299022E+02 -0.14626297191E+03  0.14761969134E+03  0.10000000000E+01 0.  0.
<mgrwt>
<rscale>  0 0.12500010E+03</rscale>
<asrwt>0</asrwt>
<pdfrwt beam="2">  1        4 0.23214687E-01 0.12500010E+03</pdfrwt>
<pdfrwt beam="1">  1       -4 0.39826412E-02 0.12500010E+03</pdfrwt>
<totfact> 0.94199157E+03</totfact>
</mgrwt>
</event>
<event>
 5    1  0.3212987E-002  0.1250021E+03  0.7818608E-02  0.1235066E+00
          4   -1    0    0  501    0  0.00000000000E+00  0.00000000000E+00  0.16302217814E+02  0.16351611714E+02  0.12700000000E+01 0.  1.
         -4   -1    0    0    0  501 -0.00000000000E+00 -0.00000000000E+00 -0.23920933102E+03  0.23921270231E+03  0.12700000000E+01 0.  1.
         25    2    1    2    0    0  0.00000000000E+00  0.00000000000E+00 -0.22290711320E+03  0.25556431402E+03  0.12500214992E+03 0.  0.
    9000005    1    3    3    0    0 -0.32968520681E+02 -0.22961320634E+02 -0.20931641639E+03  0.21313964383E+03  0.10000000000E+01 0.  0.
    9000005    1    3    3    0    0  0.32968520681E+02  0.22961320634E+02 -0.13590696812E+02  0.42424670193E+02  0.10000000000E+01 0.  0.
<mgrwt>
<rscale>  0 0.12500215E+03</rscale>
<asrwt>0</asrwt>
<pdfrwt beam="1">  1        4 0.25120926E-02 0.12500215E+03</pdfrwt>
<pdfrwt beam="2">  1       -4 0.36805492E-01 0.12500215E+03</pdfrwt>
<totfact> 0.81528702E+03</totfact>
</mgrwt>
</event>
<event>
 5    1  0.3212987E-002  0.1250020E+03  0.7818608E-02  0.1235066E+00
          4   -1    0    0  501    0  0.00000000000E+00  0.00000000000E+00  0.16109354962E+03  0.16109855564E+03  0.12700000000E+01 0.  1.
         -4   -1    0    0    0  501 -0.00000000000E+00 -0.00000000000E+00 -0.24227082342E+02  0.24260346634E+02  0.12700000000E+01 0.  1.
         25    2    1    2    0    0  0.00000000000E+00  0.00000000000E+00  0.13686646728E+03  0.18535890227E+03  0.12500197113E+03 0.  0.
    9000005    1    3    3    0    0 -0.46505025868E+02 -0.23131123029E+02  0.16903323781E+02  0.54630473532E+02  0.10000000000E+01 0.  0.
    9000005    1    3    3    0    0  0.46505025868E+02  0.23131123029E+02  0.11996314349E+03  0.13072842874E+03  0.10000000000E+01 0.  0.
<mgrwt>
<rscale>  0 0.12500197E+03</rscale>
<asrwt>0</asrwt>
<pdfrwt beam="1">  1        4 0.24786567E-01 0.12500197E+03</pdfrwt>
<pdfrwt beam="2">  1       -4 0.37301874E-02 0.12500197E+03</pdfrwt>
<totfact> 0.92657088E+03</totfact>
</mgrwt>
</event>
<event>
 5    1  0.3212987E-002  0.1250008E+03  0.7818608E-02  0.1235068E+00
         -4   -1    0    0    0  501 -0.00000000000E+00  0.00000000000E+00  0.16961701910E+03  0.16962177357E+03  0.12700000000E+01 0.  1.
          4   -1    0    0  501    0  0.00000000000E+00 -0.00000000000E+00 -0.23007538896E+02  0.23042563791E+02  0.12700000000E+01 0.  1.
         25    2    1    2    0    0  0.00000000000E+00  0.00000000000E+00  0.14660948021E+03  0.19266433736E+03  0.12500082882E+03 0.  0.
    9000005    1    3    3    0    0  0.71458826255E+01 -0.35031275082E+02 -0.56944135695E+01  0.36217126035E+02  0.10000000000E+01 0.  0.
    9000005    1    3    3    0    0 -0.71458826255E+01  0.35031275082E+02  0.15230389378E+03  0.15644721133E+03  0.10000000000E+01 0.  0.
<mgrwt>
<rscale>  0 0.12500083E+03</rscale>
<asrwt>0</asrwt>
<pdfrwt beam="2">  1        4 0.35426814E-02 0.12500083E+03</pdfrwt>
<pdfrwt beam="1">  1       -4 0.26097986E-01 0.12500083E+03</pdfrwt>
<totfact> 0.91384088E+03</totfact>
</mgrwt>
</event>
<event>
 5    1  0.3212987E-002  0.1249949E+03  0.7818608E-02  0.1235077E+00
         -4   -1    0    0    0  501 -0.00000000000E+00  0.00000000000E+00  0.20061663711E+03  0.20062065693E+03  0.12700000000E+01 0. -1.
          4   -1    0    0  501    0  0.00000000000E+00 -0.00000000000E+00 -0.19444709970E+02  0.19486139839E+02  0.12700000000E+01 0. -1.
         25    2    1    2    0    0  0.00000000000E+00  0.00000000000E+00  0.18117192714E+03  0.22010679676E+03  0.12499493909E+03 0.  0.
    9000005    1    3    3    0    0  0.13460611502E+02 -0.59023113745E+02  0.11786711162E+03  0.13250876205E+03  0.10000000000E+01 0.  0.
    9000005    1    3    3    0    0 -0.13460611502E+02  0.59023113745E+02  0.63304815522E+02  0.87598034717E+02  0.10000000000E+01 0.  0.
<mgrwt>
<rscale>  0 0.12499494E+03</rscale>
<asrwt>0</asrwt>
<pdfrwt beam="2">  1        4 0.29949898E-02 0.12499494E+03</pdfrwt>
<pdfrwt beam="1">  1       -4 0.30867596E-01 0.12499494E+03</pdfrwt>
<totfact> 0.86861270E+03</totfact>
</mgrwt>
</event>
<event>
 5    1  0.3212987E-002  0.1249588E+03  0.7818608E-02  0.1235134E+00
          4   -1    0    0  501    0  0.00000000000E+00  0.00000000000E+00  0.56912966924E+03  0.56913108623E+03  0.12700000000E+01 0. -1.
         -4   -1    0    0    0  501 -0.00000000000E+00 -0.00000000000E+00 -0.67988019221E+01  0.69164013458E+01  0.12700000000E+01 0. -1.
         25    2    1    2    0    0  0.00000000000E+00  0.00000000000E+00  0.56233086732E+03  0.57604748757E+03  0.12495880761E+03 0.  0.
    9000005    1    3    3    0    0 -0.58392395745E+02 -0.13405649079E+02  0.19956988309E+03  0.20837111494E+03  0.10000000000E+01 0.  0.
    9000005    1    3    3    0    0  0.58392395745E+02  0.13405649079E+02  0.36276098423E+03  0.36767637263E+03  0.10000000000E+01 0.  0.
<mgrwt>
<rscale>  0 0.12495881E+03</rscale>
<asrwt>0</asrwt>
<pdfrwt beam="1">  1        4 0.87567578E-01 0.12495881E+03</pdfrwt>
<pdfrwt beam="2">  1       -4 0.10551245E-02 0.12495881E+03</pdfrwt>
<totfact> 0.50460915E+03</totfact>
</mgrwt>
</event>
<event>
 5    1  0.3212987E-002  0.1249984E+03  0.7818608E-02  0.1235072E+00
         -4   -1    0    0    0  501 -0.00000000000E+00  0.00000000000E+00  0.42023539201E+03  0.42023731105E+03  0.12700000000E+01 0.  1.
          4   -1    0    0  501    0  0.00000000000E+00 -0.00000000000E+00 -0.92498244734E+01  0.93366028506E+01  0.12700000000E+01 0.  1.
         25    2    1    2    0    0  0.00000000000E+00  0.00000000000E+00  0.41098556754E+03  0.42957391390E+03  0.12499844311E+03 0.  0.
    9000005    1    3    3    0    0 -0.28728209048E+02 -0.26813416359E+02  0.37247513291E+03  0.37454371431E+03  0.10000000000E+01 0.  0.
    9000005    1    3    3    0    0  0.28728209048E+02  0.26813416359E+02  0.38510434627E+02  0.55030199591E+02  0.10000000000E+01 0.  0.
<mgrwt>
<rscale>  0 0.12499844E+03</rscale>
<asrwt>0</asrwt>
<pdfrwt beam="2">  1        4 0.14298725E-02 0.12499844E+03</pdfrwt>
<pdfrwt beam="1">  1       -4 0.64658437E-01 0.12499844E+03</pdfrwt>
<totfact> 0.61776742E+03</totfact>
</mgrwt>
</event>
<event>
 5    1  0.3212987E-002  0.1250019E+03  0.7818608E-02  0.1235066E+00
          4   -1    0    0  501    0  0.00000000000E+00  0.00000000000E+00  0.39209815829E+01  0.41215284269E+01  0.12700000000E+01 0.  1.
         -4   -1    0    0    0  501 -0.00000000000E+00 -0.00000000000E+00 -0.97122977971E+03  0.97123061005E+03  0.12700000000E+01 0.  1.
         25    2    1    2    0    0  0.00000000000E+00  0.00000000000E+00 -0.96730879813E+03  0.97535213848E+03  0.12500193236E+03 0.  0.
    9000005    1    3    3    0    0  0.94527265340E+01 -0.61741380134E+02 -0.46801254397E+03  0.47216320629E+03  0.10000000000E+01 0.  0.
    9000005    1    3    3    0    0 -0.94527265340E+01  0.61741380134E+02 -0.49929625415E+03  0.50318893218E+03  0.10000000000E+01 0.  0.
<mgrwt>
<rscale>  0 0.12500193E+03</rscale>
<asrwt>0</asrwt>
<pdfrwt beam="1">  1        4 0.61871926E-03 0.12500193E+03</pdfrwt>
<pdfrwt beam="2">  1       -4 0.14943527E+00 0.12500193E+03</pdfrwt>
<totfact> 0.31431341E+03</totfact>
</mgrwt>
</event>
<event>
 5    1  0.3212987E-002  0.1249909E+03  0.7818608E-02  0.1235083E+00
          4   -1    0    0  501    0  0.00000000000E+00  0.00000000000E+00  0.18302430812E+03  0.18302871431E+03  0.12700000000E+01 0. -1.
         -4   -1    0    0    0  501 -0.00000000000E+00 -0.00000000000E+00 -0.21316132556E+02  0.21353931890E+02  0.12700000000E+01 0. -1.
         25    2    1    2    0    0  0.00000000000E+00  0.00000000000E+00  0.16170817556E+03  0.20438264620E+03  0.12499092777E+03 0.  0.
    9000005    1    3    3    0    0 -0.50977282483E+02  0.27553088294E+02  0.42616498683E+02  0.71937625509E+02  0.10000000000E+01 0.  0.
    9000005    1    3    3    0    0  0.50977282483E+02 -0.27553088294E+02  0.11909167688E+03  0.13244502069E+03  0.10000000000E+01 0.  0.
<mgrwt>
<rscale>  0 0.12499093E+03</rscale>
<asrwt>0</asrwt>
<pdfrwt beam="1">  1        4 0.28160832E-01 0.12499093E+03</pdfrwt>
<pdfrwt beam="2">  1       -4 0.32826516E-02 0.12499093E+03</pdfrwt>
<totfact> 0.89419709E+03</totfact>
</mgrwt>
</event>
<event>
 5    1  0.3212987E-002  0.1249956E+03  0.7818608E-02  0.1235076E+00
          4   -1    0    0  501    0  0.00000000000E+00  0.00000000000E+00  0.17593203025E+03  0.17593661407E+03  0.12700000000E+01 0.  1.
         -4   -1    0    0    0  501 -0.00000000000E+00 -0.00000000000E+00 -0.22178587872E+02  0.22214919762E+02  0.12700000000E+01 0.  1.
         25    2    1    2    0    0  0.00000000000E+00  0.00000000000E+00  0.15375344238E+03  0.19815153383E+03  0.12499563718E+03 0.  0.
    9000005    1    3    3    0    0  0.45246972540E+02 -0.21858938666E+02  0.17989297829E+02  0.53382736535E+02  0.10000000000E+01 0.  0.
    9000005    1    3    3    0    0 -0.45246972540E+02  0.21858938666E+02  0.13576414455E+03  0.14476879729E+03  0.10000000000E+01 0.  0.
<mgrwt>
<rscale>  0 0.12499564E+03</rscale>
<asrwt>0</asrwt>
<pdfrwt beam="1">  1        4 0.27069613E-01 0.12499564E+03</pdfrwt>
<pdfrwt beam="2">  1       -4 0.34152378E-02 0.12499564E+03</pdfrwt>
<totfact> 0.90456833E+03</totfact>
</mgrwt>
</event>
<event>
 5    1  0.3212987E-002  0.1250007E+03  0.7818608E-02  0.1235068E+00
          4   -1    0    0  501    0  0.00000000000E+00  0.00000000000E+00  0.11513655128E+03  0.11514355535E+03  0.12700000000E+01 0. -1.
         -4   -1    0    0    0  501 -0.00000000000E+00 -0.00000000000E+00 -0.33907566978E+02  0.33931342419E+02  0.12700000000E+01 0. -1.
         25    2    1    2    0    0  0.00000000000E+00  0.00000000000E+00  0.81228984298E+02  0.14907489777E+03  0.12500070902E+03 0.  0.
    9000005    1    3    3    0    0  0.50981551776E+02  0.33978517222E+02  0.55300146071E+02  0.82539471827E+02  0.10000000000E+01 0.  0.
    9000005    1    3    3    0    0 -0.50981551776E+02 -0.33978517222E+02  0.25928838227E+02  0.66535425947E+02  0.10000000000E+01 0.  0.
<mgrwt>
<rscale>  0 0.12500071E+03</rscale>
<asrwt>0</asrwt>
<pdfrwt beam="1">  1        4 0.17715683E-01 0.12500071E+03</pdfrwt>
<pdfrwt beam="2">  1       -4 0.52189165E-02 0.12500071E+03</pdfrwt>
<totfact> 0.99486836E+03</totfact>
</mgrwt>
</event>
<event>
 5    1  0.3212987E-002  0.1249994E+03  0.7818608E-02  0.1235070E+00
         -4   -1    0    0    0  501 -0.00000000000E+00  0.00000000000E+00  0.39175809222E+03  0.39176015075E+03  0.12700000000E+01 0.  1.
          4   -1    0    0  501    0  0.00000000000E+00 -0.00000000000E+00 -0.99284513482E+01  0.10009347939E+02  0.12700000000E+01 0.  1.
         25    2    1    2    0    0  0.00000000000E+00  0.00000000000E+00  0.38182964087E+03  0.40176949869E+03  0.12499942173E+03 0.  0.
    9000005    1    3    3    0    0 -0.75427091009E+01 -0.71607244545E+01  0.38897257704E+03  0.38911288096E+03  0.10000000000E+01 0.  0.
    9000005    1    3    3    0    0  0.75427091009E+01  0.71607244545E+01 -0.71429361742E+01  0.12656617735E+02  0.10000000000E+01 0.  0.
<mgrwt>
<rscale>  0 0.12499942E+03</rscale>
<asrwt>0</asrwt>
<pdfrwt beam="2">  1        4 0.15338352E-02 0.12499942E+03</pdfrwt>
<pdfrwt beam="1">  1       -4 0.60276858E-01 0.12499942E+03</pdfrwt>
<totfact> 0.64381872E+03</totfact>
</mgrwt>
</event>
<event>
 5    1  0.3212987E-002  0.1249969E+03  0.7818608E-02  0.1235074E+00
         -4   -1    0    0    0  501 -0.00000000000E+00  0.00000000000E+00  0.17255158862E+03  0.17255626223E+03  0.12700000000E+01 0.  1.
          4   -1    0    0  501    0  0.00000000000E+00 -0.00000000000E+00 -0.22614237775E+02  0.22649870864E+02  0.12700000000E+01 0.  1.
         25    2    1    2    0    0  0.00000000000E+00  0.00000000000E+00  0.14993735084E+03  0.19520613309E+03  0.12499690084E+03 0.  0.
    9000005    1    3    3    0    0 -0.14559017305E+02 -0.46574410772E+02  0.14004505076E+02  0.50776637208E+02  0.10000000000E+01 0.  0.
    9000005    1    3    3    0    0  0.14559017305E+02  0.46574410772E+02  0.13593284577E+03  0.14442949589E+03  0.10000000000E+01 0.  0.
<mgrwt>
<rscale>  0 0.12499690E+03</rscale>
<asrwt>0</asrwt>
<pdfrwt beam="2">  1        4 0.34822141E-02 0.12499690E+03</pdfrwt>
<pdfrwt beam="1">  1       -4 0.26549498E-01 0.12499690E+03</pdfrwt>
<totfact> 0.90955583E+03</totfact>
</mgrwt>
</event>
<event>
 5    1  0.3212987E-002  0.1249979E+03  0.7818608E-02  0.1235073E+00
         -4   -1    0    0    0  501 -0.00000000000E+00  0.00000000000E+00  0.11221027615E+02  0.11292668451E+02  0.12700000000E+01 0.  1.
          4   -1    0    0  501    0  0.00000000000E+00 -0.00000000000E+00 -0.34692674556E+03  0.34692907011E+03  0.12700000000E+01 0.  1.
         25    2    1    2    0    0  0.00000000000E+00  0.00000000000E+00 -0.33570571795E+03  0.35822173856E+03  0.12499793964E+03 0.  0.
    9000005    1    3    3    0    0  0.20406137312E+02  0.35904599131E+02 -0.33447052560E+02  0.53153137290E+02  0.10000000000E+01 0.  0.
    9000005    1    3    3    0    0 -0.20406137312E+02 -0.35904599131E+02 -0.30225866539E+03  0.30506860127E+03  0.10000000000E+01 0.  0.
<mgrwt>
<rscale>  0 0.12499794E+03</rscale>
<asrwt>0</asrwt>
<pdfrwt beam="2">  1        4 0.53379027E-01 0.12499794E+03</pdfrwt>
<pdfrwt beam="1">  1       -4 0.17320019E-02 0.12499794E+03</pdfrwt>
<totfact> 0.68832576E+03</totfact>
</mgrwt>
</event>
<event>
 5    1  0.3212987E-002  0.1250014E+03  0.7818608E-02  0.1235067E+00
          4   -1    0    0  501    0  0.00000000000E+00  0.00000000000E+00  0.34769432269E+02  0.34792618762E+02  0.12700000000E+01 0.  1.
         -4   -1    0    0    0  501 -0.00000000000E+00 -0.00000000000E+00 -0.11228551423E+03  0.11229269614E+03  0.12700000000E+01 0.  1.
         25    2    1    2    0    0  0.00000000000E+00  0.00000000000E+00 -0.77516081960E+02  0.14708531490E+03  0.12500138758E+03 0.  0.
    9000005    1    3    3    0    0  0.27531358600E+02  0.53655780646E+02 -0.58035974469E+02  0.83702406391E+02  0.10000000000E+01 0.  0.
    9000005    1    3    3    0    0 -0.27531358600E+02 -0.53655780646E+02 -0.19480107491E+02  0.63382908508E+02  0.10000000000E+01 0.  0.
<mgrwt>
<rscale>  0 0.12500139E+03</rscale>
<asrwt>0</asrwt>
<pdfrwt beam="1">  1        4 0.53514795E-02 0.12500139E+03</pdfrwt>
<pdfrwt beam="2">  1       -4 0.17277030E-01 0.12500139E+03</pdfrwt>
<totfact> 0.99884782E+03</totfact>
</mgrwt>
</event>
<event>
 5    1  0.3212987E-002  0.1250017E+03  0.7818608E-02  0.1235067E+00
         -4   -1    0    0    0  501 -0.00000000000E+00  0.00000000000E+00  0.15528977680E+03  0.15529496991E+03  0.12700000000E+01 0.  1.
          4   -1    0    0  501    0  0.00000000000E+00 -0.00000000000E+00 -0.25133629662E+02  0.25165695698E+02  0.12700000000E+01 0.  1.
         25    2    1    2    0    0  0.00000000000E+00  0.00000000000E+00  0.13015614714E+03  0.18046066561E+03  0.12500171676E+03 0.  0.
    9000005    1    3    3    0    0  0.22803572466E+02  0.53472326064E+02  0.98190131141E+02  0.11411220104E+03  0.10000000000E+01 0.  0.
    9000005    1    3    3    0    0 -0.22803572466E+02 -0.53472326064E+02  0.31966015997E+02  0.66348464569E+02  0.10000000000E+01 0.  0.
<mgrwt>
<rscale>  0 0.12500172E+03</rscale>
<asrwt>0</asrwt>
<pdfrwt beam="2">  1        4 0.38695782E-02 0.12500172E+03</pdfrwt>
<pdfrwt beam="1">  1       -4 0.23893602E-01 0.12500172E+03</pdfrwt>
<totfact> 0.93530546E+03</totfact>
</mgrwt>
</event>
<event>
 5    1  0.3212987E-002  0.1250015E+03  0.7818608E-02  0.1235067E+00
         -4   -1    0    0    0  501 -0.00000000000E+00  0.00000000000E+00  0.27862266333E+03  0.27862555774E+03  0.12700000000E+01 0. -1.
          4   -1    0    0  501    0  0.00000000000E+00 -0.00000000000E+00 -0.13988450746E+02  0.14045983564E+02  0.12700000000E+01 0. -1.
         25    2    1    2    0    0  0.00000000000E+00  0.00000000000E+00  0.26463421259E+03  0.29267154130E+03  0.12500145845E+03 0.  0.
    9000005    1    3    3    0    0 -0.35802318013E+02 -0.12794670861E+02  0.24844006711E+03  0.25133439184E+03  0.10000000000E+01 0.  0.
    9000005    1    3    3    0    0  0.35802318013E+02  0.12794670861E+02  0.16194145482E+02  0.41337149460E+02  0.10000000000E+01 0.  0.
<mgrwt>
<rscale>  0 0.12500146E+03</rscale>
<asrwt>0</asrwt>
<pdfrwt beam="2">  1        4 0.21567177E-02 0.12500146E+03</pdfrwt>
<pdfrwt beam="1">  1       -4 0.42869672E-01 0.12500146E+03</pdfrwt>
<totfact> 0.76524920E+03</totfact>
</mgrwt>
</event>
<event>
 5    1  0.3212987E-002  0.1250004E+03  0.7818608E-02  0.1235069E+00
         -4   -1    0    0    0  501 -0.00000000000E+00  0.00000000000E+00  0.56014191814E+02  0.56028587208E+02  0.12700000000E+01 0.  1.
          4   -1    0    0  501    0  0.00000000000E+00 -0.00000000000E+00 -0.69708057737E+02  0.69719625741E+02  0.12700000000E+01 0.  1.
         25    2    1    2    0    0  0.00000000000E+00  0.00000000000E+00 -0.13693865923E+02  0.12574821295E+03  0.12500036438E+03 0.  0.
    9000005    1    3    3    0    0 -0.20900601935E+02 -0.20828841490E+02  0.48569817142E+02  0.56839272834E+02  0.10000000000E+01 0.  0.
    9000005    1    3    3    0    0  0.20900601935E+02  0.20828841490E+02 -0.62263683065E+02  0.68908940116E+02  0.10000000000E+01 0.  0.
<mgrwt>
<rscale>  0 0.12500036E+03</rscale>
<asrwt>0</asrwt>
<pdfrwt beam="2">  1        4 0.10726314E-01 0.12500036E+03</pdfrwt>
<pdfrwt beam="1">  1       -4 0.86195651E-02 0.12500036E+03</pdfrwt>
<totfact> 0.10436398E+04</totfact>
</mgrwt>
</event>
<event>
 5    1  0.3212987E-002  0.1250009E+03  0.7818608E-02  0.1235068E+00
         -4   -1    0    0    0  501 -0.00000000000E+00  0.00000000000E+00  0.24875858120E+02  0.24908256005E+02  0.12700000000E+01 0. -1.
          4   -1    0    0  501    0  0.00000000000E+00 -0.00000000000E+00 -0.15689484235E+03  0.15689998234E+03  0.12700000000E+01 0. -1.
         25    2    1    2    0    0  0.00000000000E+00  0.00000000000E+00 -0.13201898423E+03  0.18180823834E+03  0.12500089332E+03 0.  0.
    9000005    1    3    3    0    0  0.36449277332E+02  0.50761351253E+02 -0.66304834873E+02  0.91118580578E+02  0.10000000000E+01 0.  0.
    9000005    1    3    3    0    0 -0.36449277332E+02 -0.50761351253E+02 -0.65714149361E+02  0.90689657764E+02  0.10000000000E+01 0.  0.
<mgrwt>
<rscale>  0 0.12500089E+03</rscale>
<asrwt>0</asrwt>
<pdfrwt beam="2">  1        4 0.24140555E-01 0.12500089E+03</pdfrwt>
<pdfrwt beam="1">  1       -4 0.38299427E-02 0.12500089E+03</pdfrwt>
<totfact> 0.93290655E+03</totfact>
</mgrwt>
</event>
<event>
 5    1  0.3212987E-002  0.1249888E+03  0.7818608E-02  0.1235087E+00
          4   -1    0    0  501    0  0.00000000000E+00  0.00000000000E+00  0.74903149817E+02  0.74913915613E+02  0.12700000000E+01 0. -1.
         -4   -1    0    0    0  501 -0.00000000000E+00 -0.00000000000E+00 -0.52119085120E+02  0.52134556042E+02  0.12700000000E+01 0. -1.
         25    2    1    2    0    0  0.00000000000E+00  0.00000000000E+00  0.22784064697E+02  0.12704847166E+03  0.12498880168E+03 0.  0.
    9000005    1    3    3    0    0 -0.36601041645E+02  0.46387125188E+02 -0.92689721765E+01  0.59819022710E+02  0.10000000000E+01 0.  0.
    9000005    1    3    3    0    0  0.36601041645E+02 -0.46387125188E+02  0.32053036874E+02  0.67229448946E+02  0.10000000000E+01 0.  0.
<mgrwt>
<rscale>  0 0.12498880E+03</rscale>
<asrwt>0</asrwt>
<pdfrwt beam="1">  1        4 0.11525580E-01 0.12498880E+03</pdfrwt>
<pdfrwt beam="2">  1       -4 0.80203390E-02 0.12498880E+03</pdfrwt>
<totfact> 0.10410724E+04</totfact>
</mgrwt>
</event>
<event>
 5    1  0.3212987E-002  0.1250003E+03  0.7818608E-02  0.1235069E+00
         -4   -1    0    0    0  501 -0.00000000000E+00  0.00000000000E+00  0.14700288797E+02  0.14755046280E+02  0.12700000000E+01 0.  1.
          4   -1    0    0  501    0  0.00000000000E+00 -0.00000000000E+00 -0.26517714906E+03  0.26518019022E+03  0.12700000000E+01 0.  1.
         25    2    1    2    0    0  0.00000000000E+00  0.00000000000E+00 -0.25047686027E+03  0.27993523650E+03  0.12500031642E+03 0.  0.
    9000005    1    3    3    0    0  0.10333473879E+02  0.20091212583E+01  0.12711351573E+02  0.16534682018E+02  0.10000000000E+01 0.  0.
    9000005    1    3    3    0    0 -0.10333473879E+02 -0.20091212583E+01 -0.26318821184E+03  0.26340055448E+03  0.10000000000E+01 0.  0.
<mgrwt>
<rscale>  0 0.12500032E+03</rscale>
<asrwt>0</asrwt>
<pdfrwt beam="2">  1        4 0.40800927E-01 0.12500032E+03</pdfrwt>
<pdfrwt beam="1">  1       -4 0.22660291E-02 0.12500032E+03</pdfrwt>
<totfact> 0.78186145E+03</totfact>
</mgrwt>
</event>
<event>
 5    1  0.3212987E-002  0.1250006E+03  0.7818608E-02  0.1235068E+00
          4   -1    0    0  501    0  0.00000000000E+00  0.00000000000E+00  0.76270833223E+01  0.77320954472E+01  0.12700000000E+01 0. -1.
         -4   -1    0    0    0  501 -0.00000000000E+00 -0.00000000000E+00 -0.50855276186E+03  0.50855434763E+03  0.12700000000E+01 0. -1.
         25    2    1    2    0    0  0.00000000000E+00  0.00000000000E+00 -0.50092567853E+03  0.51628644308E+03  0.12500062355E+03 0.  0.
    9000005    1    3    3    0    0  0.16159480985E+02  0.21115443358E+02 -0.16881567591E+02  0.31511554996E+02  0.10000000000E+01 0.  0.
    9000005    1    3    3    0    0 -0.16159480985E+02 -0.21115443358E+02 -0.48404411094E+03  0.48477488808E+03  0.10000000000E+01 0.  0.
<mgrwt>
<rscale>  0 0.12500062E+03</rscale>
<asrwt>0</asrwt>
<pdfrwt beam="1">  1        4 0.11815977E-02 0.12500062E+03</pdfrwt>
<pdfrwt beam="2">  1       -4 0.78247060E-01 0.12500062E+03</pdfrwt>
<totfact> 0.54621779E+03</totfact>
</mgrwt>
</event>
<event>
 5    1  0.3212987E-002  0.1250017E+03  0.7818608E-02  0.1235067E+00
          4   -1    0    0  501    0  0.00000000000E+00  0.00000000000E+00  0.32131610456E+03  0.32131861438E+03  0.12700000000E+01 0.  1.
         -4   -1    0    0    0  501 -0.00000000000E+00 -0.00000000000E+00 -0.12121621481E+02  0.12187969779E+02  0.12700000000E+01 0.  1.
         25    2    1    2    0    0  0.00000000000E+00  0.00000000000E+00  0.30919448308E+03  0.33350658416E+03  0.12500165324E+03 0.  0.
    9000005    1    3    3    0    0  0.37059850853E+02 -0.37917148112E+02  0.24285220236E+03  0.24857460622E+03  0.10000000000E+01 0.  0.
    9000005    1    3    3    0    0 -0.37059850853E+02  0.37917148112E+02  0.66342280714E+02  0.84931977939E+02  0.10000000000E+01 0.  0.
<mgrwt>
<rscale>  0 0.12500165E+03</rscale>
<asrwt>0</asrwt>
<pdfrwt beam="1">  1        4 0.49438540E-01 0.12500165E+03</pdfrwt>
<pdfrwt beam="2">  1       -4 0.18701617E-02 0.12500165E+03</pdfrwt>
<totfact> 0.71575358E+03</totfact>
</mgrwt>
</event>
<event>
 5    1  0.3212987E-002  0.1249961E+03  0.7818608E-02  0.1235075E+00
         -4   -1    0    0    0  501 -0.00000000000E+00  0.00000000000E+00  0.12812788970E+02  0.12875576150E+02  0.12700000000E+01 0. -1.
          4   -1    0    0  501    0  0.00000000000E+00 -0.00000000000E+00 -0.30404279431E+03  0.30404544672E+03  0.12700000000E+01 0. -1.
         25    2    1    2    0    0  0.00000000000E+00  0.00000000000E+00 -0.29123000534E+03  0.31692102287E+03  0.12499607485E+03 0.  0.
    9000005    1    3    3    0    0 -0.49638338232E+02 -0.37883134972E+02 -0.15177783297E+03  0.16412375550E+03  0.10000000000E+01 0.  0.
    9000005    1    3    3    0    0  0.49638338232E+02  0.37883134972E+02 -0.13945217237E+03  0.15279726737E+03  0.10000000000E+01 0.  0.
<mgrwt>
<rscale>  0 0.12499607E+03</rscale>
<asrwt>0</asrwt>
<pdfrwt beam="2">  1        4 0.46780843E-01 0.12499607E+03</pdfrwt>
<pdfrwt beam="1">  1       -4 0.19762323E-02 0.12499607E+03</pdfrwt>
<totfact> 0.73530232E+03</totfact>
</mgrwt>
</event>
<event>
 5    1  0.3212987E-002  0.1249910E+03  0.7818608E-02  0.1235083E+00
          4   -1    0    0  501    0  0.00000000000E+00  0.00000000000E+00  0.41454865770E+02  0.41474314895E+02  0.12700000000E+01 0.  1.
         -4   -1    0    0    0  501 -0.00000000000E+00 -0.00000000000E+00 -0.94169579140E+02  0.94178142556E+02  0.12700000000E+01 0.  1.
         25    2    1    2    0    0  0.00000000000E+00  0.00000000000E+00 -0.52714713370E+02  0.13565245745E+03  0.12499099250E+03 0.  0.
    9000005    1    3    3    0    0  0.32086939295E+02  0.51439326424E+02 -0.42784876173E+02  0.74209983192E+02  0.10000000000E+01 0.  0.
    9000005    1    3    3    0    0 -0.32086939295E+02 -0.51439326424E+02 -0.99298371968E+01  0.61442474259E+02  0.10000000000E+01 0.  0.
<mgrwt>
<rscale>  0 0.12499099E+03</rscale>
<asrwt>0</asrwt>
<pdfrwt beam="1">  1        4 0.63798265E-02 0.12499099E+03</pdfrwt>
<pdfrwt beam="2">  1       -4 0.14489782E-01 0.12499099E+03</pdfrwt>
<totfact> 0.10226414E+04</totfact>
</mgrwt>
</event>
<event>
 5    1  0.3212987E-002  0.1249996E+03  0.7818608E-02  0.1235070E+00
         -4   -1    0    0    0  501 -0.00000000000E+00  0.00000000000E+00  0.11593269901E+02  0.11662624361E+02  0.12700000000E+01 0.  1.
          4   -1    0    0  501    0  0.00000000000E+00 -0.00000000000E+00 -0.33586356906E+03  0.33586597018E+03  0.12700000000E+01 0.  1.
         25    2    1    2    0    0  0.00000000000E+00  0.00000000000E+00 -0.32427029916E+03  0.34752859454E+03  0.12499958842E+03 0.  0.
    9000005    1    3    3    0    0 -0.18429028375E+02  0.56893338693E+02 -0.21254441295E+03  0.22079992879E+03  0.10000000000E+01 0.  0.
    9000005    1    3    3    0    0  0.18429028375E+02 -0.56893338693E+02 -0.11172588621E+03  0.12672866575E+03  0.10000000000E+01 0.  0.
<mgrwt>
<rscale>  0 0.12499959E+03</rscale>
<asrwt>0</asrwt>
<pdfrwt beam="2">  1        4 0.51676831E-01 0.12499959E+03</pdfrwt>
<pdfrwt beam="1">  1       -4 0.17890999E-02 0.12499959E+03</pdfrwt>
<totfact> 0.69997940E+03</totfact>
</mgrwt>
</event>
<event>
 5    1  0.3212987E-002  0.1250001E+03  0.7818608E-02  0.1235069E+00
         -4   -1    0    0    0  501 -0.00000000000E+00  0.00000000000E+00  0.13712962464E+03  0.13713550545E+03  0.12700000000E+01 0.  1.
          4   -1    0    0  501    0  0.00000000000E+00 -0.00000000000E+00 -0.28465209943E+02  0.28493526934E+02  0.12700000000E+01 0.  1.
         25    2    1    2    0    0  0.00000000000E+00  0.00000000000E+00  0.10866441470E+03  0.16562903238E+03  0.12500008538E+03 0.  0.
    9000005    1    3    3    0    0  0.14004555749E+02 -0.58701200411E+02  0.32831687226E+02  0.68708647181E+02  0.10000000000E+01 0.  0.
    9000005    1    3    3    0    0 -0.14004555749E+02  0.58701200411E+02  0.75832727473E+02  0.96920385200E+02  0.10000000000E+01 0.  0.
<mgrwt>
<rscale>  0 0.12500009E+03</rscale>
<asrwt>0</asrwt>
<pdfrwt beam="2">  1        4 0.43818936E-02 0.12500009E+03</pdfrwt>
<pdfrwt beam="1">  1       -4 0.21099496E-01 0.12500009E+03</pdfrwt>
<totfact> 0.96268211E+03</totfact>
</mgrwt>
</event>
<event>
 5    1  0.3212987E-002  0.1249984E+03  0.7818608E-02  0.1235072E+00
          4   -1    0    0  501    0  0.00000000000E+00  0.00000000000E+00  0.51294990483E+02  0.51310709883E+02  0.12700000000E+01 0.  1.
         -4   -1    0    0    0  501 -0.00000000000E+00 -0.00000000000E+00 -0.76118043632E+02  0.76128637623E+02  0.12700000000E+01 0.  1.
         25    2    1    2    0    0  0.00000000000E+00  0.00000000000E+00 -0.24823053149E+02  0.12743934751E+03  0.12499841329E+03 0.  0.
    9000005    1    3    3    0    0  0.54769231671E+02  0.15487223535E+02 -0.38715104705E+02  0.68843170779E+02  0.10000000000E+01 0.  0.
    9000005    1    3    3    0    0 -0.54769231671E+02 -0.15487223535E+02  0.13892051556E+02  0.58596176727E+02  0.10000000000E+01 0.  0.
<mgrwt>
<rscale>  0 0.12499841E+03</rscale>
<asrwt>0</asrwt>
<pdfrwt beam="1">  1        4 0.78935611E-02 0.12499841E+03</pdfrwt>
<pdfrwt beam="2">  1       -4 0.11712492E-01 0.12499841E+03</pdfrwt>
<totfact> 0.10399987E+04</totfact>
</mgrwt>
</event>
<event>
 5    1  0.3212987E-002  0.1249951E+03  0.7818608E-02  0.1235077E+00
          4   -1    0    0  501    0  0.00000000000E+00  0.00000000000E+00  0.49685509286E+02  0.49701737727E+02  0.12700000000E+01 0. -1.
         -4   -1    0    0    0  501 -0.00000000000E+00 -0.00000000000E+00 -0.78579099454E+02  0.78589361691E+02  0.12700000000E+01 0. -1.
         25    2    1    2    0    0  0.00000000000E+00  0.00000000000E+00 -0.28893590167E+02  0.12829109942E+03  0.12499506645E+03 0.  0.
    9000005    1    3    3    0    0 -0.25478503425E+01 -0.35923058528E+02 -0.66861858449E+02  0.75950416659E+02  0.10000000000E+01 0.  0.
    9000005    1    3    3    0    0  0.25478503425E+01  0.35923058528E+02  0.37968268281E+02  0.52340682759E+02  0.10000000000E+01 0.  0.
<mgrwt>
<rscale>  0 0.12499507E+03</rscale>
<asrwt>0</asrwt>
<pdfrwt beam="1">  1        4 0.76459623E-02 0.12499507E+03</pdfrwt>
<pdfrwt beam="2">  1       -4 0.12091130E-01 0.12499507E+03</pdfrwt>
<totfact> 0.10382362E+04</totfact>
</mgrwt>
</event>
<event>
 5    1  0.3212987E-002  0.1249998E+03  0.7818608E-02  0.1235070E+00
          4   -1    0    0  501    0  0.00000000000E+00  0.00000000000E+00  0.21045910439E+03  0.21046293621E+03  0.12700000000E+01 0.  1.
         -4   -1    0    0    0  501 -0.00000000000E+00 -0.00000000000E+00 -0.18534819111E+02  0.18578278163E+02  0.12700000000E+01 0.  1.
         25    2    1    2    0    0  0.00000000000E+00  0.00000000000E+00  0.19192428528E+03  0.22904121438E+03  0.12499978642E+03 0.  0.
    9000005    1    3    3    0    0 -0.61855686911E+02  0.52824810668E+01  0.10907402272E+03  0.12550766129E+03  0.10000000000E+01 0.  0.
    9000005    1    3    3    0    0  0.61855686911E+02 -0.52824810668E+01  0.82850262555E+02  0.10353355309E+03  0.10000000000E+01 0.  0.
<mgrwt>
<rscale>  0 0.12499979E+03</rscale>
<asrwt>0</asrwt>
<pdfrwt beam="1">  1        4 0.32381960E-01 0.12499979E+03</pdfrwt>
<pdfrwt beam="2">  1       -4 0.28551486E-02 0.12499979E+03</pdfrwt>
<totfact> 0.85457445E+03</totfact>
</mgrwt>
</event>
<event>
 5    1  0.3212987E-002  0.1250009E+03  0.7818608E-02  0.1235068E+00
          4   -1    0    0  501    0  0.00000000000E+00  0.00000000000E+00  0.20739404044E+02  0.20778252576E+02  0.12700000000E+01 0.  1.
         -4   -1    0    0    0  501 -0.00000000000E+00 -0.00000000000E+00 -0.18813456779E+03  0.18813885430E+03  0.12700000000E+01 0.  1.
         25    2    1    2    0    0  0.00000000000E+00  0.00000000000E+00 -0.16739516374E+03  0.20891710688E+03  0.12500086680E+03 0.  0.
    9000005    1    3    3    0    0 -0.13630021117E+02  0.57211933944E+02 -0.11900653097E+03  0.13274990499E+03  0.10000000000E+01 0.  0.
    9000005    1    3    3    0    0  0.13630021117E+02 -0.57211933944E+02 -0.48388632774E+02  0.76167201885E+02  0.10000000000E+01 0.  0.
<mgrwt>
<rscale>  0 0.12500087E+03</rscale>
<asrwt>0</asrwt>
<pdfrwt beam="1">  1        4 0.31939958E-02 0.12500087E+03</pdfrwt>
<pdfrwt beam="2">  1       -4 0.28947097E-01 0.12500087E+03</pdfrwt>
<totfact> 0.88651320E+03</totfact>
</mgrwt>
</event>
<event>
 5    1  0.3212987E-002  0.1250003E+03  0.7818608E-02  0.1235069E+00
         -4   -1    0    0    0  501 -0.00000000000E+00  0.00000000000E+00  0.14960117527E+03  0.14960656584E+03  0.12700000000E+01 0.  1.
          4   -1    0    0  501    0  0.00000000000E+00 -0.00000000000E+00 -0.26089888873E+02  0.26120781026E+02  0.12700000000E+01 0.  1.
         25    2    1    2    0    0  0.00000000000E+00  0.00000000000E+00  0.12351128640E+03  0.17572734686E+03  0.12500025027E+03 0.  0.
    9000005    1    3    3    0    0 -0.34864215480E+02  0.48280817387E+02  0.35129815745E+02  0.69149510504E+02  0.10000000000E+01 0.  0.
    9000005    1    3    3    0    0  0.34864215480E+02 -0.48280817387E+02  0.88381470653E+02  0.10657783636E+03  0.10000000000E+01 0.  0.
<mgrwt>
<rscale>  0 0.12500025E+03</rscale>
<asrwt>0</asrwt>
<pdfrwt beam="2">  1        4 0.40166201E-02 0.12500025E+03</pdfrwt>
<pdfrwt beam="1">  1       -4 0.23018356E-01 0.12500025E+03</pdfrwt>
<totfact> 0.94391268E+03</totfact>
</mgrwt>
</event>
<event>
 5    1  0.3212987E-002  0.1250091E+03  0.7818608E-02  0.1235055E+00
          4   -1    0    0  501    0  0.00000000000E+00  0.00000000000E+00  0.78390054008E+03  0.78390156884E+03  0.12700000000E+01 0. -1.
         -4   -1    0    0    0  501 -0.00000000000E+00 -0.00000000000E+00 -0.49018652042E+01  0.50637123220E+01  0.12700000000E+01 0. -1.
         25    2    1    2    0    0  0.00000000000E+00  0.00000000000E+00  0.77899867487E+03  0.78896528116E+03  0.12500911738E+03 0.  0.
    9000005    1    3    3    0    0  0.57649781014E+02  0.14039735244E+02  0.51336875648E+03  0.51678727881E+03  0.10000000000E+01 0.  0.
    9000005    1    3    3    0    0 -0.57649781014E+02 -0.14039735244E+02  0.26562991840E+03  0.27217800235E+03  0.10000000000E+01 0.  0.
<mgrwt>
<rscale>  0 0.12500912E+03</rscale>
<asrwt>0</asrwt>
<pdfrwt beam="1">  1        4 0.12061268E+00 0.12500912E+03</pdfrwt>
<pdfrwt beam="2">  1       -4 0.76666158E-03 0.12500912E+03</pdfrwt>
<totfact> 0.38754377E+03</totfact>
</mgrwt>
</event>
<event>
 5    1  0.3212987E-002  0.1249973E+03  0.7818608E-02  0.1235073E+00
         -4   -1    0    0    0  501 -0.00000000000E+00  0.00000000000E+00  0.30008647050E+02  0.30035508948E+02  0.12700000000E+01 0.  1.
          4   -1    0    0  501    0  0.00000000000E+00 -0.00000000000E+00 -0.13007704936E+03  0.13008324900E+03  0.12700000000E+01 0.  1.
         25    2    1    2    0    0  0.00000000000E+00  0.00000000000E+00 -0.10006840231E+03  0.16011875794E+03  0.12499732599E+03 0.  0.
    9000005    1    3    3    0    0  0.12905759552E+02 -0.60903300919E+02 -0.43098895942E+02  0.75725065361E+02  0.10000000000E+01 0.  0.
    9000005    1    3    3    0    0 -0.12905759552E+02  0.60903300919E+02 -0.56969506365E+02  0.84393692584E+02  0.10000000000E+01 0.  0.
<mgrwt>
<rscale>  0 0.12499733E+03</rscale>
<asrwt>0</asrwt>
<pdfrwt beam="2">  1        4 0.20014397E-01 0.12499733E+03</pdfrwt>
<pdfrwt beam="1">  1       -4 0.46192582E-02 0.12499733E+03</pdfrwt>
<totfact> 0.97325744E+03</totfact>
</mgrwt>
</event>
<event>
 5    1  0.3212987E-002  0.1250004E+03  0.7818608E-02  0.1235069E+00
         -4   -1    0    0    0  501 -0.00000000000E+00  0.00000000000E+00  0.80255595283E+01  0.81254234193E+01  0.12700000000E+01 0.  1.
          4   -1    0    0  501    0  0.00000000000E+00 -0.00000000000E+00 -0.48361910279E+03  0.48362077031E+03  0.12700000000E+01 0.  1.
         25    2    1    2    0    0  0.00000000000E+00  0.00000000000E+00 -0.47559354326E+03  0.49174619373E+03  0.12500040265E+03 0.  0.
    9000005    1    3    3    0    0 -0.27483229340E+02  0.45466157413E+02 -0.10834772221E+03  0.12067612968E+03  0.10000000000E+01 0.  0.
    9000005    1    3    3    0    0  0.27483229340E+02 -0.45466157413E+02 -0.36724582104E+03  0.37107006406E+03  0.10000000000E+01 0.  0.
<mgrwt>
<rscale>  0 0.12500040E+03</rscale>
<asrwt>0</asrwt>
<pdfrwt beam="2">  1        4 0.74410727E-01 0.12500040E+03</pdfrwt>
<pdfrwt beam="1">  1       -4 0.12425120E-02 0.12500040E+03</pdfrwt>
<totfact> 0.56510005E+03</totfact>
</mgrwt>
</event>
<event>
 5    1  0.3212987E-002  0.1249970E+03  0.7818608E-02  0.1235074E+00
          4   -1    0    0  501    0  0.00000000000E+00  0.00000000000E+00  0.33975536881E+03  0.33975774242E+03  0.12700000000E+01 0. -1.
         -4   -1    0    0    0  501 -0.00000000000E+00 -0.00000000000E+00 -0.11459190556E+02  0.11529351595E+02  0.12700000000E+01 0. -1.
         25    2    1    2    0    0  0.00000000000E+00  0.00000000000E+00  0.32829617825E+03  0.35128709402E+03  0.12499696703E+03 0.  0.
    9000005    1    3    3    0    0  0.57014933927E+02  0.14686159188E+02  0.22300993860E+03  0.23065302659E+03  0.10000000000E+01 0.  0.
    9000005    1    3    3    0    0 -0.57014933927E+02 -0.14686159188E+02  0.10528623966E+03  0.12063406742E+03  0.10000000000E+01 0.  0.
<mgrwt>
<rscale>  0 0.12499697E+03</rscale>
<asrwt>0</asrwt>
<pdfrwt beam="1">  1        4 0.52275639E-01 0.12499697E+03</pdfrwt>
<pdfrwt beam="2">  1       -4 0.17685319E-02 0.12499697E+03</pdfrwt>
<totfact> 0.69587858E+03</totfact>
</mgrwt>
</event>
<event>
 5    1  0.3212987E-002  0.1250063E+03  0.7818608E-02  0.1235059E+00
         -4   -1    0    0    0  501 -0.00000000000E+00  0.00000000000E+00  0.37451603296E+02  0.37473130233E+02  0.12700000000E+01 0. -1.
          4   -1    0    0  501    0  0.00000000000E+00 -0.00000000000E+00 -0.10425635733E+03  0.10426409230E+03  0.12700000000E+01 0. -1.
         25    2    1    2    0    0  0.00000000000E+00  0.00000000000E+00 -0.66804754030E+02  0.14173722253E+03  0.12500626020E+03 0.  0.
    9000005    1    3    3    0    0  0.10062414596E+02  0.36886532199E+02  0.22648520515E+02  0.44450241019E+02  0.10000000000E+01 0.  0.
    9000005    1    3    3    0    0 -0.10062414596E+02 -0.36886532199E+02 -0.89453274545E+02  0.97286981513E+02  0.10000000000E+01 0.  0.
<mgrwt>
<rscale>  0 0.12500626E+03</rscale>
<asrwt>0</asrwt>
<pdfrwt beam="2">  1        4 0.16041690E-01 0.12500626E+03</pdfrwt>
<pdfrwt beam="1">  1       -4 0.57640361E-02 0.12500626E+03</pdfrwt>
<totfact> 0.10096283E+04</totfact>
</mgrwt>
</event>
<event>
 5    1  0.3212987E-002  0.1249919E+03  0.7818608E-02  0.1235082E+00
         -4   -1    0    0    0  501 -0.00000000000E+00  0.00000000000E+00  0.63841100656E+02  0.63853731551E+02  0.12700000000E+01 0. -1.
          4   -1    0    0  501    0  0.00000000000E+00 -0.00000000000E+00 -0.61153817430E+02  0.61167003247E+02  0.12700000000E+01 0. -1.
         25    2    1    2    0    0  0.00000000000E+00  0.00000000000E+00  0.26872832260E+01  0.12502073480E+03  0.12499185029E+03 0.  0.
    9000005    1    3    3    0    0  0.84153937457E+01  0.41113077076E+02 -0.44966482187E+02  0.61514945167E+02  0.10000000000E+01 0.  0.
    9000005    1    3    3    0    0 -0.84153937457E+01 -0.41113077076E+02  0.47653765413E+02  0.63505789631E+02  0.10000000000E+01 0.  0.
<mgrwt>
<rscale>  0 0.12499185E+03</rscale>
<asrwt>0</asrwt>
<pdfrwt beam="2">  1        4 0.94102655E-02 0.12499185E+03</pdfrwt>
<pdfrwt beam="1">  1       -4 0.98236937E-02 0.12499185E+03</pdfrwt>
<totfact> 0.10454338E+04</totfact>
</mgrwt>
</event>
<event>
 5    1  0.3212987E-002  0.1249975E+03  0.7818608E-02  0.1235073E+00
         -4   -1    0    0    0  501 -0.00000000000E+00  0.00000000000E+00  0.97897531444E+01  0.98717863949E+01  0.12700000000E+01 0. -1.
          4   -1    0    0  501    0  0.00000000000E+00 -0.00000000000E+00 -0.39725035634E+03  0.39725238642E+03  0.12700000000E+01 0. -1.
         25    2    1    2    0    0  0.00000000000E+00  0.00000000000E+00 -0.38746060320E+03  0.40712417281E+03  0.12499749220E+03 0.  0.
    9000005    1    3    3    0    0  0.43923483391E+02 -0.13824478325E+02 -0.33132723954E+03  0.33451327067E+03  0.10000000000E+01 0.  0.
    9000005    1    3    3    0    0 -0.43923483391E+02  0.13824478325E+02 -0.56133363658E+02  0.72610902141E+02  0.10000000000E+01 0.  0.
<mgrwt>
<rscale>  0 0.12499749E+03</rscale>
<asrwt>0</asrwt>
<pdfrwt beam="2">  1        4 0.61121894E-01 0.12499749E+03</pdfrwt>
<pdfrwt beam="1">  1       -4 0.15125826E-02 0.12499749E+03</pdfrwt>
<totfact> 0.63869289E+03</totfact>
</mgrwt>
</event>
<event>
 5    1  0.3212987E-002  0.1249972E+03  0.7818608E-02  0.1235074E+00
          4   -1    0    0  501    0  0.00000000000E+00  0.00000000000E+00  0.68538243928E+02  0.68550009342E+02  0.12700000000E+01 0. -1.
         -4   -1    0    0    0  501 -0.00000000000E+00 -0.00000000000E+00 -0.56967470847E+02  0.56981625413E+02  0.12700000000E+01 0. -1.
         25    2    1    2    0    0  0.00000000000E+00  0.00000000000E+00  0.11570773082E+02  0.12553163475E+03  0.12499723411E+03 0.  0.
    9000005    1    3    3    0    0  0.56155124384E+02 -0.12674548576E+02  0.30200534783E+02  0.65016263176E+02  0.10000000000E+01 0.  0.
    9000005    1    3    3    0    0 -0.56155124384E+02  0.12674548576E+02 -0.18629761701E+02  0.60515371578E+02  0.10000000000E+01 0.  0.
<mgrwt>
<rscale>  0 0.12499723E+03</rscale>
<asrwt>0</asrwt>
<pdfrwt beam="1">  1        4 0.10546339E-01 0.12499723E+03</pdfrwt>
<pdfrwt beam="2">  1       -4 0.87662202E-02 0.12499723E+03</pdfrwt>
<totfact> 0.10441907E+04</totfact>
</mgrwt>
</event>
<event>
 5    1  0.3212987E-002  0.1249982E+03  0.7818608E-02  0.1235072E+00
         -4   -1    0    0    0  501 -0.00000000000E+00  0.00000000000E+00  0.20366886584E+03  0.20367282542E+03  0.12700000000E+01 0.  1.
          4   -1    0    0  501    0  0.00000000000E+00 -0.00000000000E+00 -0.19153693805E+02  0.19195751779E+02  0.12700000000E+01 0.  1.
         25    2    1    2    0    0  0.00000000000E+00  0.00000000000E+00  0.18451517204E+03  0.22286857720E+03  0.12499821595E+03 0.  0.
    9000005    1    3    3    0    0  0.51878149485E+02  0.30287443762E+02  0.12295721298E+03  0.13685082341E+03  0.10000000000E+01 0.  0.
    9000005    1    3    3    0    0 -0.51878149485E+02 -0.30287443762E+02  0.61557959061E+02  0.86017753791E+02  0.10000000000E+01 0.  0.
<mgrwt>
<rscale>  0 0.12499822E+03</rscale>
<asrwt>0</asrwt>
<pdfrwt beam="2">  1        4 0.29502618E-02 0.12499822E+03</pdfrwt>
<pdfrwt beam="1">  1       -4 0.31337213E-01 0.12499822E+03</pdfrwt>
<totfact> 0.86419901E+03</totfact>
</mgrwt>
</event>
<event>
 5    1  0.3212987E-002  0.1249999E+03  0.7818608E-02  0.1235069E+00
         -4   -1    0    0    0  501 -0.00000000000E+00  0.00000000000E+00  0.52195512795E+02  0.52210961070E+02  0.12700000000E+01 0.  1.
          4   -1    0    0  501    0  0.00000000000E+00 -0.00000000000E+00 -0.74806736484E+02  0.74817516153E+02  0.12700000000E+01 0.  1.
         25    2    1    2    0    0  0.00000000000E+00  0.00000000000E+00 -0.22611223689E+02  0.12702847722E+03  0.12499986636E+03 0.  0.
    9000005    1    3    3    0    0 -0.36043086183E+02  0.50983382775E+02 -0.86493313149E+01  0.63041417442E+02  0.10000000000E+01 0.  0.
    9000005    1    3    3    0    0  0.36043086183E+02 -0.50983382775E+02 -0.13961892374E+02  0.63987059782E+02  0.10000000000E+01 0.  0.
<mgrwt>
<rscale>  0 0.12499987E+03</rscale>
<asrwt>0</asrwt>
<pdfrwt beam="2">  1        4 0.11510746E-01 0.12499987E+03</pdfrwt>
<pdfrwt beam="1">  1       -4 0.80320964E-02 0.12499987E+03</pdfrwt>
<totfact> 0.10408558E+04</totfact>
</mgrwt>
</event>
<event>
 5    1  0.3212987E-002  0.1249962E+03  0.7818608E-02  0.1235075E+00
          4   -1    0    0  501    0  0.00000000000E+00  0.00000000000E+00  0.24817281721E+03  0.24817606674E+03  0.12700000000E+01 0.  1.
         -4   -1    0    0    0  501 -0.00000000000E+00 -0.00000000000E+00 -0.15710103601E+02  0.15761353215E+02  0.12700000000E+01 0.  1.
         25    2    1    2    0    0  0.00000000000E+00  0.00000000000E+00  0.23246271361E+03  0.26393741995E+03  0.12499619368E+03 0.  0.
    9000005    1    3    3    0    0  0.60738133708E+02 -0.14555188559E+02  0.11198837044E+03  0.12823170245E+03  0.10000000000E+01 0.  0.
    9000005    1    3    3    0    0 -0.60738133708E+02  0.14555188559E+02  0.12047434317E+03  0.13570571750E+03  0.10000000000E+01 0.  0.
<mgrwt>
<rscale>  0 0.12499619E+03</rscale>
<asrwt>0</asrwt>
<pdfrwt beam="1">  1        4 0.38184624E-01 0.12499619E+03</pdfrwt>
<pdfrwt beam="2">  1       -4 0.24211313E-02 0.12499619E+03</pdfrwt>
<totfact> 0.80363463E+03</totfact>
</mgrwt>
</event>
<event>
 5    1  0.3212987E-002  0.1249968E+03  0.7818608E-02  0.1235074E+00
          4   -1    0    0  501    0  0.00000000000E+00  0.00000000000E+00  0.20256997263E+01  0.23908909179E+01  0.12700000000E+01 0. -1.
         -4   -1    0    0    0  501 -0.00000000000E+00 -0.00000000000E+00 -0.17684411661E+04  0.17684416222E+04  0.12700000000E+01 0. -1.
         25    2    1    2    0    0  0.00000000000E+00  0.00000000000E+00 -0.17664154664E+04  0.17708325131E+04  0.12499675755E+03 0.  0.
    9000005    1    3    3    0    0 -0.59699336148E+02 -0.26369569052E+01 -0.62426366033E+03  0.62711807651E+03  0.10000000000E+01 0.  0.
    9000005    1    3    3    0    0  0.59699336148E+02  0.26369569052E+01 -0.11421518061E+04  0.11437144366E+04  0.10000000000E+01 0.  0.
<mgrwt>
<rscale>  0 0.12499676E+03</rscale>
<asrwt>0</asrwt>
<pdfrwt beam="1">  1        4 0.33977423E-03 0.12499676E+03</pdfrwt>
<pdfrwt beam="2">  1       -4 0.27209487E+00 0.12499676E+03</pdfrwt>
<totfact> 0.13159311E+03</totfact>
</mgrwt>
</event>
<event>
 5    1  0.3212987E-002  0.1250024E+03  0.7818608E-02  0.1235065E+00
          4   -1    0    0  501    0  0.00000000000E+00  0.00000000000E+00  0.22944537435E+02  0.22979658355E+02  0.12700000000E+01 0. -1.
         -4   -1    0    0    0  501 -0.00000000000E+00 -0.00000000000E+00 -0.17008646812E+03  0.17009120947E+03  0.12700000000E+01 0. -1.
         25    2    1    2    0    0  0.00000000000E+00  0.00000000000E+00 -0.14714193069E+03  0.19307086782E+03  0.12500244892E+03 0.  0.
    9000005    1    3    3    0    0 -0.33557605063E+02  0.22373377821E+02  0.15898065257E+00  0.40344840656E+02  0.10000000000E+01 0.  0.
    9000005    1    3    3    0    0  0.33557605063E+02 -0.22373377821E+02 -0.14730091134E+03  0.15272602717E+03  0.10000000000E+01 0.  0.
<mgrwt>
<rscale>  0 0.12500245E+03</rscale>
<asrwt>0</asrwt>
<pdfrwt beam="1">  1        4 0.35329953E-02 0.12500245E+03</pdfrwt>
<pdfrwt beam="2">  1       -4 0.26170214E-01 0.12500245E+03</pdfrwt>
<totfact> 0.91310715E+03</totfact>
</mgrwt>
</event>
<event>
 5    1  0.3212987E-002  0.1249945E+03  0.7818608E-02  0.1235078E+00
          4   -1    0    0  501    0  0.00000000000E+00  0.00000000000E+00  0.37328947158E+02  0.37350544787E+02  0.12700000000E+01 0. -1.
         -4   -1    0    0    0  501 -0.00000000000E+00 -0.00000000000E+00 -0.10457904643E+03  0.10458675754E+03  0.12700000000E+01 0. -1.
         25    2    1    2    0    0  0.00000000000E+00  0.00000000000E+00 -0.67250099274E+02  0.14193730233E+03  0.12499448764E+03 0.  0.
    9000005    1    3    3    0    0 -0.37945525730E+02 -0.47652144332E+02 -0.49454273989E+02  0.78468560572E+02  0.10000000000E+01 0.  0.
    9000005    1    3    3    0    0  0.37945525730E+02  0.47652144332E+02 -0.17795825284E+02  0.63468741755E+02  0.10000000000E+01 0.  0.
<mgrwt>
<rscale>  0 0.12499449E+03</rscale>
<asrwt>0</asrwt>
<pdfrwt beam="1">  1        4 0.57451695E-02 0.12499449E+03</pdfrwt>
<pdfrwt beam="2">  1       -4 0.16091338E-01 0.12499449E+03</pdfrwt>
<totfact> 0.10094844E+04</totfact>
</mgrwt>
</event>
<event>
 5    1  0.3212987E-002  0.1250077E+03  0.7818608E-02  0.1235057E+00
         -4   -1    0    0    0  501 -0.00000000000E+00  0.00000000000E+00  0.33481844647E+03  0.33482085508E+03  0.12700000000E+01 0. -1.
          4   -1    0    0  501    0  0.00000000000E+00 -0.00000000000E+00 -0.11631185836E+02  0.11700315550E+02  0.12700000000E+01 0. -1.
         25    2    1    2    0    0  0.00000000000E+00  0.00000000000E+00  0.32318726063E+03  0.34652117063E+03  0.12500766480E+03 0.  0.
    9000005    1    3    3    0    0  0.51030452111E+02 -0.36077151162E+02  0.16227930724E+03  0.17390009039E+03  0.10000000000E+01 0.  0.
    9000005    1    3    3    0    0 -0.51030452111E+02  0.36077151162E+02  0.16090795339E+03  0.17262108024E+03  0.10000000000E+01 0.  0.
<mgrwt>
<rscale>  0 0.12500766E+03</rscale>
<asrwt>0</asrwt>
<pdfrwt beam="2">  1        4 0.17949161E-02 0.12500766E+03</pdfrwt>
<pdfrwt beam="1">  1       -4 0.51516033E-01 0.12500766E+03</pdfrwt>
<totfact> 0.70097077E+03</totfact>
</mgrwt>
</event>
<event>
 5    1  0.3212987E-002  0.1249969E+03  0.7818608E-02  0.1235074E+00
          4   -1    0    0  501    0  0.00000000000E+00  0.00000000000E+00  0.13024438533E+03  0.13025057700E+03  0.12700000000E+01 0.  1.
         -4   -1    0    0    0  501 -0.00000000000E+00 -0.00000000000E+00 -0.29969875690E+02  0.29996772308E+02  0.12700000000E+01 0.  1.
         25    2    1    2    0    0  0.00000000000E+00  0.00000000000E+00  0.10027450964E+03  0.16024734931E+03  0.12499694268E+03 0.  0.
    9000005    1    3    3    0    0 -0.44023276735E+02  0.31819719118E+02  0.89745258754E+02  0.10490831658E+03  0.10000000000E+01 0.  0.
    9000005    1    3    3    0    0  0.44023276735E+02 -0.31819719118E+02  0.10529250885E+02  0.55339032730E+02  0.10000000000E+01 0.  0.
<mgrwt>
<rscale>  0 0.12499694E+03</rscale>
<asrwt>0</asrwt>
<pdfrwt beam="1">  1        4 0.20040143E-01 0.12499694E+03</pdfrwt>
<pdfrwt beam="2">  1       -4 0.46132955E-02 0.12499694E+03</pdfrwt>
<totfact> 0.97301806E+03</totfact>
</mgrwt>
</event>
<event>
 5    1  0.3212987E-002  0.1249987E+03  0.7818608E-02  0.1235071E+00
         -4   -1    0    0    0  501 -0.00000000000E+00  0.00000000000E+00  0.18445272187E+02  0.18488941724E+02  0.12700000000E+01 0. -1.
          4   -1    0    0  501    0  0.00000000000E+00 -0.00000000000E+00 -0.21147473488E+03  0.21147854831E+03  0.12700000000E+01 0. -1.
         25    2    1    2    0    0  0.00000000000E+00  0.00000000000E+00 -0.19302946270E+03  0.22996749003E+03  0.12499869200E+03 0.  0.
    9000005    1    3    3    0    0  0.32161871489E+01 -0.34284330810E+02 -0.19245440703E+03  0.19551331919E+03  0.10000000000E+01 0.  0.
    9000005    1    3    3    0    0 -0.32161871489E+01  0.34284330810E+02 -0.57505566945E+00  0.34454170835E+02  0.10000000000E+01 0.  0.
<mgrwt>
<rscale>  0 0.12499869E+03</rscale>
<asrwt>0</asrwt>
<pdfrwt beam="2">  1        4 0.32538225E-01 0.12499869E+03</pdfrwt>
<pdfrwt beam="1">  1       -4 0.28413869E-02 0.12499869E+03</pdfrwt>
<totfact> 0.85317080E+03</totfact>
</mgrwt>
</event>
<event>
 5    1  0.3212987E-002  0.1250033E+03  0.7818608E-02  0.1235064E+00
          4   -1    0    0  501    0  0.00000000000E+00  0.00000000000E+00  0.69665168714E+02  0.69676743838E+02  0.12700000000E+01 0.  1.
         -4   -1    0    0    0  501 -0.00000000000E+00 -0.00000000000E+00 -0.56051343746E+02  0.56065729601E+02  0.12700000000E+01 0.  1.
         25    2    1    2    0    0  0.00000000000E+00  0.00000000000E+00  0.13613824968E+02  0.12574247344E+03  0.12500333354E+03 0.  0.
    9000005    1    3    3    0    0  0.26283856031E+02  0.26096532006E+02 -0.43825477155E+02  0.57389393780E+02  0.10000000000E+01 0.  0.
    9000005    1    3    3    0    0 -0.26283856031E+02 -0.26096532006E+02  0.57439302123E+02  0.68353079659E+02  0.10000000000E+01 0.  0.
<mgrwt>
<rscale>  0 0.12500333E+03</rscale>
<asrwt>0</asrwt>
<pdfrwt beam="1">  1        4 0.10719715E-01 0.12500333E+03</pdfrwt>
<pdfrwt beam="2">  1       -4 0.86252806E-02 0.12500333E+03</pdfrwt>
<totfact> 0.10435825E+04</totfact>
</mgrwt>
</event>
<event>
 5    1  0.3212987E-002  0.1250007E+03  0.7818608E-02  0.1235068E+00
          4   -1    0    0  501    0  0.00000000000E+00  0.00000000000E+00  0.28268246404E+02  0.28296760499E+02  0.12700000000E+01 0.  1.
         -4   -1    0    0    0  501 -0.00000000000E+00 -0.00000000000E+00 -0.13808563263E+03  0.13809147272E+03  0.12700000000E+01 0.  1.
         25    2    1    2    0    0  0.00000000000E+00  0.00000000000E+00 -0.10981738623E+03  0.16638823322E+03  0.12500074335E+03 0.  0.
    9000005    1    3    3    0    0 -0.41404941638E+02  0.19044218742E+02 -0.11182375491E+03  0.12075845155E+03  0.10000000000E+01 0.  0.
    9000005    1    3    3    0    0  0.41404941638E+02 -0.19044218742E+02  0.20063686856E+01  0.45629781666E+02  0.10000000000E+01 0.  0.
<mgrwt>
<rscale>  0 0.12500074E+03</rscale>
<asrwt>0</asrwt>
<pdfrwt beam="1">  1        4 0.43516037E-02 0.12500074E+03</pdfrwt>
<pdfrwt beam="2">  1       -4 0.21246586E-01 0.12500074E+03</pdfrwt>
<totfact> 0.96123522E+03</totfact>
</mgrwt>
</event>
<event>
 5    1  0.3212987E-002  0.1249631E+03  0.7818608E-02  0.1235127E+00
          4   -1    0    0  501    0  0.00000000000E+00  0.00000000000E+00  0.12687182272E+03  0.12687817898E+03  0.12700000000E+01 0. -1.
         -4   -1    0    0    0  501 -0.00000000000E+00 -0.00000000000E+00 -0.30750528206E+02  0.30776742598E+02  0.12700000000E+01 0. -1.
         25    2    1    2    0    0  0.00000000000E+00  0.00000000000E+00  0.96121294517E+02  0.15765492158E+03  0.12496307870E+03 0.  0.
    9000005    1    3    3    0    0  0.44304647797E+01  0.56815944459E+02  0.15765789713E+02  0.59137472792E+02  0.10000000000E+01 0.  0.
    9000005    1    3    3    0    0 -0.44304647797E+01 -0.56815944459E+02  0.80355504804E+02  0.98517448786E+02  0.10000000000E+01 0.  0.
<mgrwt>
<rscale>  0 0.12496308E+03</rscale>
<asrwt>0</asrwt>
<pdfrwt beam="1">  1        4 0.19521248E-01 0.12496308E+03</pdfrwt>
<pdfrwt beam="2">  1       -4 0.47333559E-02 0.12496308E+03</pdfrwt>
<totfact> 0.97878038E+03</totfact>
</mgrwt>
</event>
<event>
 5    1  0.3212987E-002  0.1249992E+03  0.7818608E-02  0.1235070E+00
         -4   -1    0    0    0  501 -0.00000000000E+00  0.00000000000E+00  0.19421153360E+02  0.19462633373E+02  0.12700000000E+01 0.  1.
          4   -1    0    0  501    0  0.00000000000E+00 -0.00000000000E+00 -0.20087325824E+03  0.20087727292E+03  0.12700000000E+01 0.  1.
         25    2    1    2    0    0  0.00000000000E+00  0.00000000000E+00 -0.18145210488E+03  0.22033990630E+03  0.12499923176E+03 0.  0.
    9000005    1    3    3    0    0  0.44647927910E+02  0.42672381132E+02 -0.73926170577E+02  0.96335083299E+02  0.10000000000E+01 0.  0.
    9000005    1    3    3    0    0 -0.44647927910E+02 -0.42672381132E+02 -0.10752593431E+03  0.12400482300E+03  0.10000000000E+01 0.  0.
<mgrwt>
<rscale>  0 0.12499923E+03</rscale>
<asrwt>0</asrwt>
<pdfrwt beam="2">  1        4 0.30907076E-01 0.12499923E+03</pdfrwt>
<pdfrwt beam="1">  1       -4 0.29913695E-02 0.12499923E+03</pdfrwt>
<totfact> 0.86816083E+03</totfact>
</mgrwt>
</event>
<event>
 5    1  0.3212987E-002  0.1249959E+03  0.7818608E-02  0.1235076E+00
          4   -1    0    0  501    0  0.00000000000E+00  0.00000000000E+00  0.90987172046E+02  0.90996034952E+02  0.12700000000E+01 0.  1.
         -4   -1    0    0    0  501 -0.00000000000E+00 -0.00000000000E+00 -0.42908716944E+02  0.42927507379E+02  0.12700000000E+01 0.  1.
         25    2    1    2    0    0  0.00000000000E+00  0.00000000000E+00  0.48078455102E+02  0.13392354233E+03  0.12499590932E+03 0.  0.
    9000005    1    3    3    0    0 -0.26140058953E+02  0.50464325449E+02  0.51876521238E+02  0.76955339521E+02  0.10000000000E+01 0.  0.
    9000005    1    3    3    0    0  0.26140058953E+02 -0.50464325449E+02 -0.37980661367E+01  0.56968202810E+02  0.10000000000E+01 0.  0.
<mgrwt>
<rscale>  0 0.12499591E+03</rscale>
<asrwt>0</asrwt>
<pdfrwt beam="1">  1        4 0.14000154E-01 0.12499591E+03</pdfrwt>
<pdfrwt beam="2">  1       -4 0.66034682E-02 0.12499591E+03</pdfrwt>
<totfact> 0.10261757E+04</totfact>
</mgrwt>
</event>
<event>
 5    1  0.3212987E-002  0.1249997E+03  0.7818608E-02  0.1235070E+00
         -4   -1    0    0    0  501 -0.00000000000E+00  0.00000000000E+00  0.16070490933E+02  0.16120594866E+02  0.12700000000E+01 0. -1.
          4   -1    0    0  501    0  0.00000000000E+00 -0.00000000000E+00 -0.24263841413E+03  0.24264173777E+03  0.12700000000E+01 0. -1.
         25    2    1    2    0    0  0.00000000000E+00  0.00000000000E+00 -0.22656792319E+03  0.25876233264E+03  0.12499968389E+03 0.  0.
    9000005    1    3    3    0    0 -0.56174936542E+02 -0.26172471515E+02 -0.12992333290E+03  0.14395031848E+03  0.10000000000E+01 0.  0.
    9000005    1    3    3    0    0  0.56174936542E+02  0.26172471515E+02 -0.96644590298E+02  0.11481201416E+03  0.10000000000E+01 0.  0.
<mgrwt>
<rscale>  0 0.12499968E+03</rscale>
<asrwt>0</asrwt>
<pdfrwt beam="2">  1        4 0.37333094E-01 0.12499968E+03</pdfrwt>
<pdfrwt beam="1">  1       -4 0.24764932E-02 0.12499968E+03</pdfrwt>
<totfact> 0.81080636E+03</totfact>
</mgrwt>
</event>
<event>
 5    1  0.3212987E-002  0.1250022E+03  0.7818608E-02  0.1235066E+00
          4   -1    0    0  501    0  0.00000000000E+00  0.00000000000E+00  0.32283449496E+02  0.32308420131E+02  0.12700000000E+01 0.  1.
         -4   -1    0    0    0  501 -0.00000000000E+00 -0.00000000000E+00 -0.12092772338E+03  0.12093439205E+03  0.12700000000E+01 0.  1.
         25    2    1    2    0    0  0.00000000000E+00  0.00000000000E+00 -0.88644273881E+02  0.15324281218E+03  0.12500220876E+03 0.  0.
    9000005    1    3    3    0    0  0.26209700974E+02 -0.55976608284E+02 -0.55628487076E+02  0.83161635834E+02  0.10000000000E+01 0.  0.
    9000005    1    3    3    0    0 -0.26209700974E+02  0.55976608284E+02 -0.33015786805E+02  0.70081176350E+02  0.10000000000E+01 0.  0.
<mgrwt>
<rscale>  0 0.12500221E+03</rscale>
<asrwt>0</asrwt>
<pdfrwt beam="1">  1        4 0.49691184E-02 0.12500221E+03</pdfrwt>
<pdfrwt beam="2">  1       -4 0.18606699E-01 0.12500221E+03</pdfrwt>
<totfact> 0.98656273E+03</totfact>
</mgrwt>
</event>
<event>
 5    1  0.3212987E-002  0.1249993E+03  0.7818608E-02  0.1235070E+00
          4   -1    0    0  501    0  0.00000000000E+00  0.00000000000E+00  0.10346188087E+04  0.10346195882E+04  0.12700000000E+01 0. -1.
         -4   -1    0    0    0  501 -0.00000000000E+00 -0.00000000000E+00 -0.36678984670E+01  0.38815433997E+01  0.12700000000E+01 0. -1.
         25    2    1    2    0    0  0.00000000000E+00  0.00000000000E+00  0.10309509103E+04  0.10385011316E+04  0.12499928381E+03 0.  0.
    9000005    1    3    3    0    0 -0.46487706112E+02  0.41683413791E+02  0.49414552761E+03  0.49807571338E+03  0.10000000000E+01 0.  0.
    9000005    1    3    3    0    0  0.46487706112E+02 -0.41683413791E+02  0.53680538266E+03  0.54042541822E+03  0.10000000000E+01 0.  0.
<mgrwt>
<rscale>  0 0.12499928E+03</rscale>
<asrwt>0</asrwt>
<pdfrwt beam="1">  1        4 0.15918866E+00 0.12499928E+03</pdfrwt>
<pdfrwt beam="2">  1       -4 0.58078610E-03 0.12499928E+03</pdfrwt>
<totfact> 0.29356989E+03</totfact>
</mgrwt>
</event>
<event>
 5    1  0.3212987E-002  0.1249987E+03  0.7818608E-02  0.1235071E+00
          4   -1    0    0  501    0  0.00000000000E+00  0.00000000000E+00  0.31580599362E+03  0.31580854723E+03  0.12700000000E+01 0.  1.
         -4   -1    0    0    0  501 -0.00000000000E+00 -0.00000000000E+00 -0.12333670451E+02  0.12398884094E+02  0.12700000000E+01 0.  1.
         25    2    1    2    0    0  0.00000000000E+00  0.00000000000E+00  0.30347232317E+03  0.32820743133E+03  0.12499866819E+03 0.  0.
    9000005    1    3    3    0    0 -0.57287809391E+02 -0.22867637912E+02  0.17803826294E+03  0.18842357878E+03  0.10000000000E+01 0.  0.
    9000005    1    3    3    0    0  0.57287809391E+02  0.22867637912E+02  0.12543406023E+03  0.13978385255E+03  0.10000000000E+01 0.  0.
<mgrwt>
<rscale>  0 0.12499867E+03</rscale>
<asrwt>0</asrwt>
<pdfrwt beam="1">  1        4 0.48590759E-01 0.12499867E+03</pdfrwt>
<pdfrwt beam="2">  1       -4 0.19027003E-02 0.12499867E+03</pdfrwt>
<totfact> 0.72192599E+03</totfact>
</mgrwt>
</event>
<event>
 5    1  0.3212987E-002  0.1250012E+03  0.7818608E-02  0.1235067E+00
         -4   -1    0    0    0  501 -0.00000000000E+00  0.00000000000E+00  0.72147553752E+02  0.72158730674E+02  0.12700000000E+01 0. -1.
          4   -1    0    0  501    0  0.00000000000E+00 -0.00000000000E+00 -0.54120766071E+02  0.54135664955E+02  0.12700000000E+01 0. -1.
         25    2    1    2    0    0  0.00000000000E+00  0.00000000000E+00  0.18026787681E+02  0.12629439563E+03  0.12500123717E+03 0.  0.
    9000005    1    3    3    0    0  0.13628755659E+02 -0.18271036491E+02 -0.49775791222E+02  0.54755850346E+02  0.10000000000E+01 0.  0.
    9000005    1    3    3    0    0 -0.13628755659E+02  0.18271036491E+02  0.67802578903E+02  0.71538545283E+02  0.10000000000E+01 0.  0.
<mgrwt>
<rscale>  0 0.12500124E+03</rscale>
<asrwt>0</asrwt>
<pdfrwt beam="2">  1        4 0.83282775E-02 0.12500124E+03</pdfrwt>
<pdfrwt beam="1">  1       -4 0.11101629E-01 0.12500124E+03</pdfrwt>
<totfact> 0.10424225E+04</totfact>
</mgrwt>
</event>
<event>
 5    1  0.3212987E-002  0.1249928E+03  0.7818608E-02  0.1235081E+00
         -4   -1    0    0    0  501 -0.00000000000E+00  0.00000000000E+00  0.57150655355E+02  0.57164764562E+02  0.12700000000E+01 0.  1.
          4   -1    0    0  501    0  0.00000000000E+00 -0.00000000000E+00 -0.68313692840E+02  0.68325496921E+02  0.12700000000E+01 0.  1.
         25    2    1    2    0    0  0.00000000000E+00  0.00000000000E+00 -0.11163037485E+02  0.12549026148E+03  0.12499276908E+03 0.  0.
    9000005    1    3    3    0    0  0.51501645942E+01  0.52876087689E+02 -0.38612210527E+02  0.65683389425E+02  0.10000000000E+01 0.  0.
    9000005    1    3    3    0    0 -0.51501645942E+01 -0.52876087689E+02  0.27449173041E+02  0.59806872058E+02  0.10000000000E+01 0.  0.
<mgrwt>
<rscale>  0 0.12499277E+03</rscale>
<asrwt>0</asrwt>
<pdfrwt beam="2">  1        4 0.10511792E-01 0.12499277E+03</pdfrwt>
<pdfrwt beam="1">  1       -4 0.87944018E-02 0.12499277E+03</pdfrwt>
<totfact> 0.10443873E+04</totfact>
</mgrwt>
</event>
<event>
 5    1  0.3212987E-002  0.1250094E+03  0.7818608E-02  0.1235055E+00
          4   -1    0    0  501    0  0.00000000000E+00  0.00000000000E+00  0.35542451957E+03  0.35542678854E+03  0.12700000000E+01 0. -1.
         -4   -1    0    0    0  501 -0.00000000000E+00 -0.00000000000E+00 -0.10953031754E+02  0.11026413951E+02  0.12700000000E+01 0. -1.
         25    2    1    2    0    0  0.00000000000E+00  0.00000000000E+00  0.34447148782E+03  0.36645320249E+03  0.12500937444E+03 0.  0.
    9000005    1    3    3    0    0 -0.67887464600E+01 -0.45552085718E+02  0.48394471570E+02  0.66813954159E+02  0.10000000000E+01 0.  0.
    9000005    1    3    3    0    0  0.67887464600E+01  0.45552085718E+02  0.29607701625E+03  0.29963924834E+03  0.10000000000E+01 0.  0.
<mgrwt>
<rscale>  0 0.12500937E+03</rscale>
<asrwt>0</asrwt>
<pdfrwt beam="1">  1        4 0.54686502E-01 0.12500937E+03</pdfrwt>
<pdfrwt beam="2">  1       -4 0.16909015E-02 0.12500937E+03</pdfrwt>
<totfact> 0.67937561E+03</totfact>
</mgrwt>
</event>
<event>
 5    1  0.3212987E-002  0.1249975E+03  0.7818608E-02  0.1235073E+00
          4   -1    0    0  501    0  0.00000000000E+00  0.00000000000E+00  0.19345140892E+03  0.19345557762E+03  0.12700000000E+01 0.  1.
         -4   -1    0    0    0  501 -0.00000000000E+00 -0.00000000000E+00 -0.20167224671E+02  0.20207173254E+02  0.12700000000E+01 0.  1.
         25    2    1    2    0    0  0.00000000000E+00  0.00000000000E+00  0.17328418425E+03  0.21366275087E+03  0.12499745038E+03 0.  0.
    9000005    1    3    3    0    0  0.11612805962E+02 -0.31156872615E+02  0.17708334150E+03  0.18018079201E+03  0.10000000000E+01 0.  0.
    9000005    1    3    3    0    0 -0.11612805962E+02  0.31156872615E+02 -0.37991572524E+01  0.33481958862E+02  0.10000000000E+01 0.  0.
<mgrwt>
<rscale>  0 0.12499745E+03</rscale>
<asrwt>0</asrwt>
<pdfrwt beam="1">  1        4 0.29765149E-01 0.12499745E+03</pdfrwt>
<pdfrwt beam="2">  1       -4 0.31060436E-02 0.12499745E+03</pdfrwt>
<totfact> 0.87886185E+03</totfact>
</mgrwt>
</event>
<event>
 5    1  0.3212987E-002  0.1250034E+03  0.7818608E-02  0.1235064E+00
         -4   -1    0    0    0  501 -0.00000000000E+00  0.00000000000E+00  0.49800138360E+02  0.49816329458E+02  0.12700000000E+01 0.  1.
          4   -1    0    0  501    0  0.00000000000E+00 -0.00000000000E+00 -0.78408714969E+02  0.78418999503E+02  0.12700000000E+01 0.  1.
         25    2    1    2    0    0  0.00000000000E+00  0.00000000000E+00 -0.28608576609E+02  0.12823532896E+03  0.12500339571E+03 0.  0.
    9000005    1    3    3    0    0  0.36249895611E+02 -0.49022970969E+02 -0.28375920564E+02  0.67256966050E+02  0.10000000000E+01 0.  0.
    9000005    1    3    3    0    0 -0.36249895611E+02  0.49022970969E+02 -0.23265604532E+00  0.60978362911E+02  0.10000000000E+01 0.  0.
<mgrwt>
<rscale>  0 0.12500340E+03</rscale>
<asrwt>0</asrwt>
<pdfrwt beam="2">  1        4 0.12064916E-01 0.12500340E+03</pdfrwt>
<pdfrwt beam="1">  1       -4 0.76635964E-02 0.12500340E+03</pdfrwt>
<totfact> 0.10381613E+04</totfact>
</mgrwt>
</event>
<event>
 5    1  0.3212987E-002  0.1249996E+03  0.7818608E-02  0.1235070E+00
         -4   -1    0    0    0  501 -0.00000000000E+00  0.00000000000E+00  0.16675560402E+02  0.16723851671E+02  0.12700000000E+01 0.  1.
          4   -1    0    0  501    0  0.00000000000E+00 -0.00000000000E+00 -0.23385982123E+03  0.23386326963E+03  0.12700000000E+01 0.  1.
         25    2    1    2    0    0  0.00000000000E+00  0.00000000000E+00 -0.21718426082E+03  0.25058712130E+03  0.12499960886E+03 0.  0.
    9000005    1    3    3    0    0 -0.12774541807E+02 -0.50419107135E+01 -0.23080696541E+03  0.23121735459E+03  0.10000000000E+01 0.  0.
    9000005    1    3    3    0    0  0.12774541807E+02  0.50419107135E+01  0.13622704591E+02  0.19369766710E+02  0.10000000000E+01 0.  0.
<mgrwt>
<rscale>  0 0.12499961E+03</rscale>
<asrwt>0</asrwt>
<pdfrwt beam="2">  1        4 0.35982412E-01 0.12499961E+03</pdfrwt>
<pdfrwt beam="1">  1       -4 0.25694510E-02 0.12499961E+03</pdfrwt>
<totfact> 0.82246162E+03</totfact>
</mgrwt>
</event>
<event>
 5    1  0.3212987E-002  0.1249954E+03  0.7818608E-02  0.1235076E+00
          4   -1    0    0  501    0  0.00000000000E+00  0.00000000000E+00  0.15720577822E+01  0.20209566226E+01  0.12700000000E+01 0. -1.
         -4   -1    0    0    0  501 -0.00000000000E+00 -0.00000000000E+00 -0.21737485611E+04  0.21737489321E+04  0.12700000000E+01 0. -1.
         25    2    1    2    0    0  0.00000000000E+00  0.00000000000E+00 -0.21721765033E+04  0.21757698887E+04  0.12499538825E+03 0.  0.
    9000005    1    3    3    0    0  0.29260179076E+02 -0.52190643060E+02 -0.13998650833E+04  0.14011435589E+04  0.10000000000E+01 0.  0.
    9000005    1    3    3    0    0 -0.29260179076E+02  0.52190643060E+02 -0.77231142003E+03  0.77462632980E+03  0.10000000000E+01 0.  0.
<mgrwt>
<rscale>  0 0.12499539E+03</rscale>
<asrwt>0</asrwt>
<pdfrwt beam="1">  1        4 0.27641600E-03 0.12499539E+03</pdfrwt>
<pdfrwt beam="2">  1       -4 0.33445531E+00 0.12499539E+03</pdfrwt>
<totfact> 0.77389098E+02</totfact>
</mgrwt>
</event>
<event>
 5    1  0.3212987E-002  0.1249977E+03  0.7818608E-02  0.1235073E+00
          4   -1    0    0  501    0  0.00000000000E+00  0.00000000000E+00  0.12805989399E+03  0.12806619128E+03  0.12700000000E+01 0.  1.
         -4   -1    0    0    0  501 -0.00000000000E+00 -0.00000000000E+00 -0.30481934664E+02  0.30508379847E+02  0.12700000000E+01 0.  1.
         25    2    1    2    0    0  0.00000000000E+00  0.00000000000E+00  0.97577959323E+02  0.15857457112E+03  0.12499774583E+03 0.  0.
    9000005    1    3    3    0    0  0.60333042452E+02  0.13628649339E+02  0.37492351164E+02  0.72335969546E+02  0.10000000000E+01 0.  0.
    9000005    1    3    3    0    0 -0.60333042452E+02 -0.13628649339E+02  0.60085608159E+02  0.86238601578E+02  0.10000000000E+01 0.  0.
<mgrwt>
<rscale>  0 0.12499775E+03</rscale>
<asrwt>0</asrwt>
<pdfrwt beam="1">  1        4 0.19704041E-01 0.12499775E+03</pdfrwt>
<pdfrwt beam="2">  1       -4 0.46920471E-02 0.12499775E+03</pdfrwt>
<totfact> 0.97623249E+03</totfact>
</mgrwt>
</event>
<event>
 5    1  0.3212987E-002  0.1250005E+03  0.7818608E-02  0.1235068E+00
         -4   -1    0    0    0  501 -0.00000000000E+00  0.00000000000E+00  0.14808267027E+02  0.14862626698E+02  0.12700000000E+01 0. -1.
          4   -1    0    0  501    0  0.00000000000E+00 -0.00000000000E+00 -0.26325150757E+03  0.26325457097E+03  0.12700000000E+01 0. -1.
         25    2    1    2    0    0  0.00000000000E+00  0.00000000000E+00 -0.24844324054E+03  0.27811719767E+03  0.12500052747E+03 0.  0.
    9000005    1    3    3    0    0 -0.56522754709E+02 -0.84547894481E+01 -0.18046337355E+03  0.18929958916E+03  0.10000000000E+01 0.  0.
    9000005    1    3    3    0    0  0.56522754709E+02  0.84547894481E+01 -0.67979866993E+02  0.88817608507E+02  0.10000000000E+01 0.  0.
<mgrwt>
<rscale>  0 0.12500053E+03</rscale>
<asrwt>0</asrwt>
<pdfrwt beam="2">  1        4 0.40504645E-01 0.12500053E+03</pdfrwt>
<pdfrwt beam="1">  1       -4 0.22826123E-02 0.12500053E+03</pdfrwt>
<totfact> 0.78427497E+03</totfact>
</mgrwt>
</event>
<event>
 5    1  0.3212987E-002  0.1249939E+03  0.7818608E-02  0.1235079E+00
         -4   -1    0    0    0  501 -0.00000000000E+00  0.00000000000E+00  0.21925219537E+03  0.21925587353E+03  0.12700000000E+01 0. -1.
          4   -1    0    0  501    0  0.00000000000E+00 -0.00000000000E+00 -0.17788029350E+02  0.17833308391E+02  0.12700000000E+01 0. -1.
         25    2    1    2    0    0  0.00000000000E+00  0.00000000000E+00  0.20146416602E+03  0.23708918192E+03  0.12499387982E+03 0.  0.
    9000005    1    3    3    0    0  0.54893700459E+00 -0.56661362828E+02  0.15070334139E+03  0.16100716902E+03  0.10000000000E+01 0.  0.
    9000005    1    3    3    0    0 -0.54893700459E+00  0.56661362828E+02  0.50760824631E+02  0.76082012897E+02  0.10000000000E+01 0.  0.
<mgrwt>
<rscale>  0 0.12499388E+03</rscale>
<asrwt>0</asrwt>
<pdfrwt beam="2">  1        4 0.27403860E-02 0.12499388E+03</pdfrwt>
<pdfrwt beam="1">  1       -4 0.33734871E-01 0.12499388E+03</pdfrwt>
<totfact> 0.84244298E+03</totfact>
</mgrwt>
</event>
<event>
 5    1  0.3212987E-002  0.1250010E+03  0.7818608E-02  0.1235068E+00
         -4   -1    0    0    0  501 -0.00000000000E+00  0.00000000000E+00  0.12230882663E+04  0.12230889256E+04  0.12700000000E+01 0. -1.
          4   -1    0    0  501    0  0.00000000000E+00 -0.00000000000E+00 -0.30668750143E+01  0.33194310286E+01  0.12700000000E+01 0. -1.
         25    2    1    2    0    0  0.00000000000E+00  0.00000000000E+00  0.12200213913E+04  0.12264083566E+04  0.12500104859E+03 0.  0.
    9000005    1    3    3    0    0 -0.43961711314E+01 -0.42291410922E+02  0.16068138884E+03  0.16621491654E+03  0.10000000000E+01 0.  0.
    9000005    1    3    3    0    0  0.43961711314E+01  0.42291410922E+02  0.10593400024E+04  0.10601934401E+04  0.10000000000E+01 0.  0.
<mgrwt>
<rscale>  0 0.12500105E+03</rscale>
<asrwt>0</asrwt>
<pdfrwt beam="2">  1        4 0.49130415E-03 0.12500105E+03</pdfrwt>
<pdfrwt beam="1">  1       -4 0.18818724E+00 0.12500105E+03</pdfrwt>
<totfact> 0.24031191E+03</totfact>
</mgrwt>
</event>
<event>
 5    1  0.3212987E-002  0.1250092E+03  0.7818608E-02  0.1235055E+00
          4   -1    0    0  501    0  0.00000000000E+00  0.00000000000E+00  0.14818906401E+03  0.14819450595E+03  0.12700000000E+01 0.  1.
         -4   -1    0    0    0  501 -0.00000000000E+00 -0.00000000000E+00 -0.26342580231E+02  0.26373176397E+02  0.12700000000E+01 0.  1.
         25    2    1    2    0    0  0.00000000000E+00  0.00000000000E+00  0.12184648378E+03  0.17456768234E+03  0.12500924009E+03 0.  0.
    9000005    1    3    3    0    0  0.41576669152E+02 -0.36892369709E+02  0.10081743580E+03  0.11512958665E+03  0.10000000000E+01 0.  0.
    9000005    1    3    3    0    0 -0.41576669152E+02  0.36892369709E+02  0.21029047976E+02  0.59438095690E+02  0.10000000000E+01 0.  0.
<mgrwt>
<rscale>  0 0.12500924E+03</rscale>
<asrwt>0</asrwt>
<pdfrwt beam="1">  1        4 0.22801089E-01 0.12500924E+03</pdfrwt>
<pdfrwt beam="2">  1       -4 0.40554769E-02 0.12500924E+03</pdfrwt>
<totfact> 0.94584470E+03</totfact>
</mgrwt>
</event>
<event>
 5    1  0.3212987E-002  0.1250027E+03  0.7818608E-02  0.1235065E+00
          4   -1    0    0  501    0  0.00000000000E+00  0.00000000000E+00  0.24261069310E+03  0.24261401713E+03  0.12700000000E+01 0.  1.
         -4   -1    0    0    0  501 -0.00000000000E+00 -0.00000000000E+00 -0.16073101980E+02  0.16123197798E+02  0.12700000000E+01 0.  1.
         25    2    1    2    0    0  0.00000000000E+00  0.00000000000E+00  0.22653759112E+03  0.25873721493E+03  0.12500266476E+03 0.  0.
    9000005    1    3    3    0    0 -0.26144241721E+02 -0.14249381928E+02  0.22699496617E+03  0.22894165398E+03  0.10000000000E+01 0.  0.
    9000005    1    3    3    0    0  0.26144241721E+02  0.14249381928E+02 -0.45737504294E+00  0.29795560952E+02  0.10000000000E+01 0.  0.
<mgrwt>
<rscale>  0 0.12500266E+03</rscale>
<asrwt>0</asrwt>
<pdfrwt beam="1">  1        4 0.37328833E-01 0.12500266E+03</pdfrwt>
<pdfrwt beam="2">  1       -4 0.24768941E-02 0.12500266E+03</pdfrwt>
<totfact> 0.81078790E+03</totfact>
</mgrwt>
</event>
<event>
 5    1  0.3212987E-002  0.1249939E+03  0.7818608E-02  0.1235079E+00
         -4   -1    0    0    0  501 -0.00000000000E+00  0.00000000000E+00  0.28870840519E+02  0.28898760048E+02  0.12700000000E+01 0.  1.
          4   -1    0    0  501    0  0.00000000000E+00 -0.00000000000E+00 -0.13519128525E+03  0.13519725037E+03  0.12700000000E+01 0.  1.
         25    2    1    2    0    0  0.00000000000E+00  0.00000000000E+00 -0.10632044474E+03  0.16409601042E+03  0.12499385452E+03 0.  0.
    9000005    1    3    3    0    0 -0.39462047024E+02 -0.48165445279E+02 -0.60070093722E+02  0.86525022011E+02  0.10000000000E+01 0.  0.
    9000005    1    3    3    0    0  0.39462047024E+02  0.48165445279E+02 -0.46250351014E+02  0.77570988411E+02  0.10000000000E+01 0.  0.
<mgrwt>
<rscale>  0 0.12499385E+03</rscale>
<asrwt>0</asrwt>
<pdfrwt beam="2">  1        4 0.20801265E-01 0.12499385E+03</pdfrwt>
<pdfrwt beam="1">  1       -4 0.44442744E-02 0.12499385E+03</pdfrwt>
<totfact> 0.96572201E+03</totfact>
</mgrwt>
</event>
<event>
 5    1  0.3212987E-002  0.1249988E+03  0.7818608E-02  0.1235071E+00
         -4   -1    0    0    0  501 -0.00000000000E+00  0.00000000000E+00  0.62653521493E+02  0.62666391754E+02  0.12700000000E+01 0.  1.
          4   -1    0    0  501    0  0.00000000000E+00 -0.00000000000E+00 -0.62319945106E+02  0.62332884243E+02  0.12700000000E+01 0.  1.
         25    2    1    2    0    0  0.00000000000E+00  0.00000000000E+00  0.33357638728E+00  0.12499927600E+03  0.12499883090E+03 0.  0.
    9000005    1    3    3    0    0 -0.57159932339E+02  0.24071599673E+02 -0.74802747886E+01  0.62479230843E+02  0.10000000000E+01 0.  0.
    9000005    1    3    3    0    0  0.57159932339E+02 -0.24071599673E+02  0.78138511758E+01  0.62520045154E+02  0.10000000000E+01 0.  0.
<mgrwt>
<rscale>  0 0.12499883E+03</rscale>
<asrwt>0</asrwt>
<pdfrwt beam="2">  1        4 0.95896692E-02 0.12499883E+03</pdfrwt>
<pdfrwt beam="1">  1       -4 0.96409886E-02 0.12499883E+03</pdfrwt>
<totfact> 0.10453154E+04</totfact>
</mgrwt>
</event>
<event>
 5    1  0.3212987E-002  0.1250025E+03  0.7818608E-02  0.1235065E+00
         -4   -1    0    0    0  501 -0.00000000000E+00  0.00000000000E+00  0.93472838603E+02  0.93481465845E+02  0.12700000000E+01 0. -1.
          4   -1    0    0  501    0  0.00000000000E+00 -0.00000000000E+00 -0.41771708776E+02  0.41791010445E+02  0.12700000000E+01 0. -1.
         25    2    1    2    0    0  0.00000000000E+00  0.00000000000E+00  0.51701129828E+02  0.13527247629E+03  0.12500254404E+03 0.  0.
    9000005    1    3    3    0    0  0.69378203895E+01 -0.28027896303E+02  0.85827032513E+02  0.90559239357E+02  0.10000000000E+01 0.  0.
    9000005    1    3    3    0    0 -0.69378203895E+01  0.28027896303E+02 -0.34125902686E+02  0.44713236933E+02  0.10000000000E+01 0.  0.
<mgrwt>
<rscale>  0 0.12500254E+03</rscale>
<asrwt>0</asrwt>
<pdfrwt beam="2">  1        4 0.64285652E-02 0.12500254E+03</pdfrwt>
<pdfrwt beam="1">  1       -4 0.14382585E-01 0.12500254E+03</pdfrwt>
<totfact> 0.10231744E+04</totfact>
</mgrwt>
</event>
<event>
 5    1  0.3212987E-002  0.1249958E+03  0.7818608E-02  0.1235076E+00
         -4   -1    0    0    0  501 -0.00000000000E+00  0.00000000000E+00  0.12507407801E+03  0.12508052562E+03  0.12700000000E+01 0.  1.
          4   -1    0    0  501    0  0.00000000000E+00 -0.00000000000E+00 -0.31209222791E+02  0.31235052221E+02  0.12700000000E+01 0.  1.
         25    2    1    2    0    0  0.00000000000E+00  0.00000000000E+00  0.93864855215E+02  0.15631557784E+03  0.12499579525E+03 0.  0.
    9000005    1    3    3    0    0 -0.15104778238E+01 -0.39541267398E+02 -0.13551496799E+02  0.41838217411E+02  0.10000000000E+01 0.  0.
    9000005    1    3    3    0    0  0.15104778238E+01  0.39541267398E+02  0.10741635201E+03  0.11447736043E+03  0.10000000000E+01 0.  0.
<mgrwt>
<rscale>  0 0.12499580E+03</rscale>
<asrwt>0</asrwt>
<pdfrwt beam="2">  1        4 0.48039018E-02 0.12499580E+03</pdfrwt>
<pdfrwt beam="1">  1       -4 0.19244648E-01 0.12499580E+03</pdfrwt>
<totfact> 0.98067124E+03</totfact>
</mgrwt>
</event>
<event>
 5    1  0.3212987E-002  0.1249736E+03  0.7818608E-02  0.1235111E+00
         -4   -1    0    0    0  501 -0.00000000000E+00  0.00000000000E+00  0.19756852034E+03  0.19757260217E+03  0.12700000000E+01 0.  1.
          4   -1    0    0  501    0  0.00000000000E+00 -0.00000000000E+00 -0.19738564661E+02  0.19779379032E+02  0.12700000000E+01 0.  1.
         25    2    1    2    0    0  0.00000000000E+00  0.00000000000E+00  0.17782995568E+03  0.21735198120E+03  0.12497355959E+03 0.  0.
    9000005    1    3    3    0    0 -0.95524333331E-01 -0.62405674630E+02  0.83662672299E+02  0.10437873388E+03  0.10000000000E+01 0.  0.
    9000005    1    3    3    0    0  0.95524333331E-01  0.62405674630E+02  0.94167283377E+02  0.11297324732E+03  0.10000000000E+01 0.  0.
<mgrwt>
<rscale>  0 0.12497356E+03</rscale>
<asrwt>0</asrwt>
<pdfrwt beam="2">  1        4 0.30401559E-02 0.12497356E+03</pdfrwt>
<pdfrwt beam="1">  1       -4 0.30398609E-01 0.12497356E+03</pdfrwt>
<totfact> 0.87340690E+03</totfact>
</mgrwt>
</event>
<event>
 5    1  0.3212987E-002  0.1250030E+03  0.7818608E-02  0.1235065E+00
          4   -1    0    0  501    0  0.00000000000E+00  0.00000000000E+00  0.78954872774E+01  0.79969756376E+01  0.12700000000E+01 0. -1.
         -4   -1    0    0    0  501 -0.00000000000E+00 -0.00000000000E+00 -0.49150635171E+03  0.49150799248E+03  0.12700000000E+01 0. -1.
         25    2    1    2    0    0  0.00000000000E+00  0.00000000000E+00 -0.48361086443E+03  0.49950496812E+03  0.12500297987E+03 0.  0.
    9000005    1    3    3    0    0 -0.43546787037E+02 -0.40507603973E+02 -0.31848672225E+03  0.32399379761E+03  0.10000000000E+01 0.  0.
    9000005    1    3    3    0    0  0.43546787037E+02  0.40507603973E+02 -0.16512414218E+03  0.17551117050E+03  0.10000000000E+01 0.  0.
<mgrwt>
<rscale>  0 0.12500298E+03</rscale>
<asrwt>0</asrwt>
<pdfrwt beam="1">  1        4 0.12226237E-02 0.12500298E+03</pdfrwt>
<pdfrwt beam="2">  1       -4 0.75624271E-01 0.12500298E+03</pdfrwt>
<totfact> 0.55899143E+03</totfact>
</mgrwt>
</event>
<event>
 5    1  0.3212987E-002  0.1249995E+03  0.7818608E-02  0.1235070E+00
          4   -1    0    0  501    0  0.00000000000E+00  0.00000000000E+00  0.41474408606E+03  0.41474603050E+03  0.12700000000E+01 0. -1.
         -4   -1    0    0    0  501 -0.00000000000E+00 -0.00000000000E+00 -0.93735950245E+01  0.94592380075E+01  0.12700000000E+01 0. -1.
         25    2    1    2    0    0  0.00000000000E+00  0.00000000000E+00  0.40537049103E+03  0.42420526851E+03  0.12499949933E+03 0.  0.
    9000005    1    3    3    0    0  0.41162120524E+02 -0.28999056674E+02  0.77076274266E+02  0.92070720149E+02  0.10000000000E+01 0.  0.
    9000005    1    3    3    0    0 -0.41162120524E+02  0.28999056674E+02  0.32829421677E+03  0.33213454836E+03  0.10000000000E+01 0.  0.
<mgrwt>
<rscale>  0 0.12499950E+03</rscale>
<asrwt>0</asrwt>
<pdfrwt beam="1">  1        4 0.63813512E-01 0.12499950E+03</pdfrwt>
<pdfrwt beam="2">  1       -4 0.14488292E-02 0.12499950E+03</pdfrwt>
<totfact> 0.62265473E+03</totfact>
</mgrwt>
</event>
<event>
 5    1  0.3212987E-002  0.1249822E+03  0.7818608E-02  0.1235097E+00
         -4   -1    0    0    0  501 -0.00000000000E+00  0.00000000000E+00  0.69110513347E+03  0.69110630037E+03  0.12700000000E+01 0.  1.
          4   -1    0    0  501    0  0.00000000000E+00 -0.00000000000E+00 -0.55780233388E+01  0.57207730569E+01  0.12700000000E+01 0.  1.
         25    2    1    2    0    0  0.00000000000E+00  0.00000000000E+00  0.68552711014E+03  0.69682707343E+03  0.12498220487E+03 0.  0.
    9000005    1    3    3    0    0 -0.24518387619E+02  0.56505965853E+02  0.28427158168E+03  0.29087008725E+03  0.10000000000E+01 0.  0.
    9000005    1    3    3    0    0  0.24518387619E+02 -0.56505965853E+02  0.40125552846E+03  0.40595698618E+03  0.10000000000E+01 0.  0.
<mgrwt>
<rscale>  0 0.12498220E+03</rscale>
<asrwt>0</asrwt>
<pdfrwt beam="2">  1        4 0.86922805E-03 0.12498220E+03</pdfrwt>
<pdfrwt beam="1">  1       -4 0.10633492E+00 0.12498220E+03</pdfrwt>
<totfact> 0.43271562E+03</totfact>
</mgrwt>
</event>
<event>
 5    1  0.3212987E-002  0.1250056E+03  0.7818608E-02  0.1235061E+00
         -4   -1    0    0    0  501 -0.00000000000E+00  0.00000000000E+00  0.23037397267E+02  0.23072376836E+02  0.12700000000E+01 0. -1.
          4   -1    0    0  501    0  0.00000000000E+00 -0.00000000000E+00 -0.16941033100E+03  0.16941509127E+03  0.12700000000E+01 0. -1.
         25    2    1    2    0    0  0.00000000000E+00  0.00000000000E+00 -0.14637293373E+03  0.19248746810E+03  0.12500555847E+03 0.  0.
    9000005    1    3    3    0    0 -0.31867431972E+02  0.73676996840E+00  0.95860364804E+01  0.33301173341E+02  0.10000000000E+01 0.  0.
    9000005    1    3    3    0    0  0.31867431972E+02 -0.73676996840E+00 -0.15595897021E+03  0.15918629476E+03  0.10000000000E+01 0.  0.
<mgrwt>
<rscale>  0 0.12500556E+03</rscale>
<asrwt>0</asrwt>
<pdfrwt beam="2">  1        4 0.26066184E-01 0.12500556E+03</pdfrwt>
<pdfrwt beam="1">  1       -4 0.35472720E-02 0.12500556E+03</pdfrwt>
<totfact> 0.91404918E+03</totfact>
</mgrwt>
</event>
<event>
 5    1  0.3212987E-002  0.1250085E+03  0.7818608E-02  0.1235056E+00
         -4   -1    0    0    0  501 -0.00000000000E+00  0.00000000000E+00  0.23171408908E+02  0.23206186477E+02  0.12700000000E+01 0.  1.
          4   -1    0    0  501    0  0.00000000000E+00 -0.00000000000E+00 -0.16843993724E+03  0.16844472493E+03  0.12700000000E+01 0.  1.
         25    2    1    2    0    0  0.00000000000E+00  0.00000000000E+00 -0.14526852833E+03  0.19165091141E+03  0.12500850579E+03 0.  0.
    9000005    1    3    3    0    0 -0.17606901344E+02 -0.56175659927E+02 -0.40472924977E+02  0.71447640964E+02  0.10000000000E+01 0.  0.
    9000005    1    3    3    0    0  0.17606901344E+02  0.56175659927E+02 -0.10479560335E+03  0.12020327045E+03  0.10000000000E+01 0.  0.
<mgrwt>
<rscale>  0 0.12500851E+03</rscale>
<asrwt>0</asrwt>
<pdfrwt beam="2">  1        4 0.25916879E-01 0.12500851E+03</pdfrwt>
<pdfrwt beam="1">  1       -4 0.35678757E-02 0.12500851E+03</pdfrwt>
<totfact> 0.91543413E+03</totfact>
</mgrwt>
</event>
<event>
 5    1  0.3212987E-002  0.1249978E+03  0.7818608E-02  0.1235073E+00
          4   -1    0    0  501    0  0.00000000000E+00  0.00000000000E+00  0.94448151082E+02  0.94456689243E+02  0.12700000000E+01 0.  1.
         -4   -1    0    0    0  501 -0.00000000000E+00 -0.00000000000E+00 -0.41337022527E+02  0.41356527071E+02  0.12700000000E+01 0.  1.
         25    2    1    2    0    0  0.00000000000E+00  0.00000000000E+00  0.53111128555E+02  0.13581321631E+03  0.12499775098E+03 0.  0.
    9000005    1    3    3    0    0  0.14667700196E+02  0.56176268009E+02  0.14430779985E+01  0.58086117021E+02  0.10000000000E+01 0.  0.
    9000005    1    3    3    0    0 -0.14667700196E+02 -0.56176268009E+02  0.51668050556E+02  0.77727099294E+02  0.10000000000E+01 0.  0.
<mgrwt>
<rscale>  0 0.12499775E+03</rscale>
<asrwt>0</asrwt>
<pdfrwt beam="1">  1        4 0.14532642E-01 0.12499775E+03</pdfrwt>
<pdfrwt beam="2">  1       -4 0.63616991E-02 0.12499775E+03</pdfrwt>
<totfact> 0.10221477E+04</totfact>
</mgrwt>
</event>
<event>
 5    1  0.3212987E-002  0.1250017E+03  0.7818608E-02  0.1235067E+00
          4   -1    0    0  501    0  0.00000000000E+00  0.00000000000E+00  0.67788069235E+02  0.67799964828E+02  0.12700000000E+01 0. -1.
         -4   -1    0    0    0  501 -0.00000000000E+00 -0.00000000000E+00 -0.57602104715E+02  0.57616103371E+02  0.12700000000E+01 0. -1.
         25    2    1    2    0    0  0.00000000000E+00  0.00000000000E+00  0.10185964520E+02  0.12541606820E+03  0.12500174514E+03 0.  0.
    9000005    1    3    3    0    0  0.28067338125E+02 -0.52066287721E+02  0.25326264287E+02  0.64351328262E+02  0.10000000000E+01 0.  0.
    9000005    1    3    3    0    0 -0.28067338125E+02  0.52066287721E+02 -0.15140299767E+02  0.61064739936E+02  0.10000000000E+01 0.  0.
<mgrwt>
<rscale>  0 0.12500175E+03</rscale>
<asrwt>0</asrwt>
<pdfrwt beam="1">  1        4 0.10430926E-01 0.12500175E+03</pdfrwt>
<pdfrwt beam="2">  1       -4 0.88638542E-02 0.12500175E+03</pdfrwt>
<totfact> 0.10443400E+04</totfact>
</mgrwt>
</event>
<event>
 5    1  0.3212987E-002  0.1249994E+03  0.7818608E-02  0.1235070E+00
         -4   -1    0    0    0  501 -0.00000000000E+00  0.00000000000E+00  0.74945325874E+03  0.74945433479E+03  0.12700000000E+01 0.  1.
          4   -1    0    0  501    0  0.00000000000E+00 -0.00000000000E+00 -0.51336196298E+01  0.52883788162E+01  0.12700000000E+01 0.  1.
         25    2    1    2    0    0  0.00000000000E+00  0.00000000000E+00  0.74431963911E+03  0.75474271360E+03  0.12499935431E+03 0.  0.
    9000005    1    3    3    0    0  0.33666799163E+02 -0.52621118827E+02  0.38221650120E+03  0.38728915464E+03  0.10000000000E+01 0.  0.
    9000005    1    3    3    0    0 -0.33666799163E+02  0.52621118827E+02  0.36210313791E+03  0.36745355896E+03  0.10000000000E+01 0.  0.
<mgrwt>
<rscale>  0 0.12499935E+03</rscale>
<asrwt>0</asrwt>
<pdfrwt beam="2">  1        4 0.80177506E-03 0.12499935E+03</pdfrwt>
<pdfrwt beam="1">  1       -4 0.11531247E+00 0.12499935E+03</pdfrwt>
<totfact> 0.40348886E+03</totfact>
</mgrwt>
</event>
<event>
 4    1  0.3212987E-002  0.1251651E+03  0.7818608E-02  0.1234812E+00
         -4   -1    0    0    0  501 -0.00000000000E+00  0.00000000000E+00  0.58075899538E+02  0.58089784017E+02  0.12700000000E+01 0. -1.
          4   -1    0    0  501    0  0.00000000000E+00 -0.00000000000E+00 -0.67410953506E+02  0.67422915634E+02  0.12700000000E+01 0. -1.
    9000005    1    1    2    0    0  0.38397157251E+02  0.47399346221E+02 -0.18653806564E+02  0.63796584599E+02  0.10000000000E+01 0.  0.
    9000005    1    1    2    0    0 -0.38397157251E+02 -0.47399346221E+02  0.93187525965E+01  0.61716115052E+02  0.10000000000E+01 0.  0.
<mgrwt>
<rscale>  0 0.12516507E+03</rscale>
<asrwt>0</asrwt>
<pdfrwt beam="2">  1        4 0.10372904E-01 0.12516507E+03</pdfrwt>
<pdfrwt beam="1">  1       -4 0.89367420E-02 0.12516507E+03</pdfrwt>
<totfact> 0.10402881E+04</totfact>
</mgrwt>
</event>
<event>
 5    1  0.3212987E-002  0.1250016E+03  0.7818608E-02  0.1235067E+00
         -4   -1    0    0    0  501 -0.00000000000E+00  0.00000000000E+00  0.81999667835E+01  0.82977319341E+01  0.12700000000E+01 0.  1.
          4   -1    0    0  501    0  0.00000000000E+00 -0.00000000000E+00 -0.47346463652E+03  0.47346633981E+03  0.12700000000E+01 0.  1.
         25    2    1    2    0    0  0.00000000000E+00  0.00000000000E+00 -0.46526466974E+03  0.48176407175E+03  0.12500163167E+03 0.  0.
    9000005    1    3    3    0    0  0.86014198373E+01  0.21396386293E+02 -0.45648542215E+03  0.45706862768E+03  0.10000000000E+01 0.  0.
    9000005    1    3    3    0    0 -0.86014198373E+01 -0.21396386293E+02 -0.87792475843E+01  0.24695444069E+02  0.10000000000E+01 0.  0.
<mgrwt>
<rscale>  0 0.12500163E+03</rscale>
<asrwt>0</asrwt>
<pdfrwt beam="2">  1        4 0.72848344E-01 0.12500163E+03</pdfrwt>
<pdfrwt beam="1">  1       -4 0.12691851E-02 0.12500163E+03</pdfrwt>
<totfact> 0.57305492E+03</totfact>
</mgrwt>
</event>
<event>
 5    1  0.3212987E-002  0.1250014E+03  0.7818608E-02  0.1235067E+00
         -4   -1    0    0    0  501 -0.00000000000E+00  0.00000000000E+00  0.68007864522E+02  0.68019721675E+02  0.12700000000E+01 0.  1.
          4   -1    0    0  501    0  0.00000000000E+00 -0.00000000000E+00 -0.57415625312E+02  0.57429669423E+02  0.12700000000E+01 0.  1.
         25    2    1    2    0    0  0.00000000000E+00  0.00000000000E+00  0.10592239210E+02  0.12544939110E+03  0.12500141677E+03 0.  0.
    9000005    1    3    3    0    0 -0.65972649077E+01  0.49086299163E+02 -0.32950164676E+02  0.59495394965E+02  0.10000000000E+01 0.  0.
    9000005    1    3    3    0    0  0.65972649077E+01 -0.49086299163E+02  0.43542403886E+02  0.65953996133E+02  0.10000000000E+01 0.  0.
<mgrwt>
<rscale>  0 0.12500142E+03</rscale>
<asrwt>0</asrwt>
<pdfrwt beam="2">  1        4 0.88351656E-02 0.12500142E+03</pdfrwt>
<pdfrwt beam="1">  1       -4 0.10464741E-01 0.12500142E+03</pdfrwt>
<totfact> 0.10442740E+04</totfact>
</mgrwt>
</event>
<event>
 5    1  0.3212987E-002  0.1249928E+03  0.7818608E-02  0.1235081E+00
          4   -1    0    0  501    0  0.00000000000E+00  0.00000000000E+00  0.13374672316E+03  0.13375275271E+03  0.12700000000E+01 0.  1.
         -4   -1    0    0    0  501 -0.00000000000E+00 -0.00000000000E+00 -0.29182456788E+02  0.29210078470E+02  0.12700000000E+01 0.  1.
         25    2    1    2    0    0  0.00000000000E+00  0.00000000000E+00  0.10456426637E+03  0.16296283117E+03  0.12499279396E+03 0.  0.
    9000005    1    3    3    0    0  0.40582836359E+02 -0.47451699533E+02  0.55520450635E+02  0.83559265400E+02  0.10000000000E+01 0.  0.
    9000005    1    3    3    0    0 -0.40582836359E+02  0.47451699533E+02  0.49043815738E+02  0.79403565774E+02  0.10000000000E+01 0.  0.
<mgrwt>
<rscale>  0 0.12499279E+03</rscale>
<asrwt>0</asrwt>
<pdfrwt beam="1">  1        4 0.20579008E-01 0.12499279E+03</pdfrwt>
<pdfrwt beam="2">  1       -4 0.44921972E-02 0.12499279E+03</pdfrwt>
<totfact> 0.96790267E+03</totfact>
</mgrwt>
</event>
<event>
 5    1  0.3212987E-002  0.1250014E+03  0.7818608E-02  0.1235067E+00
          4   -1    0    0  501    0  0.00000000000E+00  0.00000000000E+00  0.11788196010E+03  0.11788880106E+03  0.12700000000E+01 0. -1.
         -4   -1    0    0    0  501 -0.00000000000E+00 -0.00000000000E+00 -0.33117751775E+02  0.33142093818E+02  0.12700000000E+01 0. -1.
         25    2    1    2    0    0  0.00000000000E+00  0.00000000000E+00  0.84764208322E+02  0.15103089488E+03  0.12500144078E+03 0.  0.
    9000005    1    3    3    0    0  0.13467034880E+02  0.48754820702E+02 -0.19609851664E+01  0.50628440950E+02  0.10000000000E+01 0.  0.
    9000005    1    3    3    0    0 -0.13467034880E+02 -0.48754820702E+02  0.86725193488E+02  0.10040245393E+03  0.10000000000E+01 0.  0.
<mgrwt>
<rscale>  0 0.12500144E+03</rscale>
<asrwt>0</asrwt>
<pdfrwt beam="1">  1        4 0.18138085E-01 0.12500144E+03</pdfrwt>
<pdfrwt beam="2">  1       -4 0.50974373E-02 0.12500144E+03</pdfrwt>
<totfact> 0.99095387E+03</totfact>
</mgrwt>
</event>
<event>
 5    1  0.3212987E-002  0.1250075E+03  0.7818608E-02  0.1235058E+00
         -4   -1    0    0    0  501 -0.00000000000E+00  0.00000000000E+00  0.73115466819E+03  0.73115577117E+03  0.12700000000E+01 0. -1.
          4   -1    0    0  501    0  0.00000000000E+00 -0.00000000000E+00 -0.52666305484E+01  0.54175914697E+01  0.12700000000E+01 0. -1.
         25    2    1    2    0    0  0.00000000000E+00  0.00000000000E+00  0.72588803765E+03  0.73657336264E+03  0.12500750122E+03 0.  0.
    9000005    1    3    3    0    0 -0.21764877549E+02 -0.49699076461E+02  0.18018875435E+03  0.18818261155E+03  0.10000000000E+01 0.  0.
    9000005    1    3    3    0    0  0.21764877549E+02  0.49699076461E+02  0.54569928329E+03  0.54839075109E+03  0.10000000000E+01 0.  0.
<mgrwt>
<rscale>  0 0.12500750E+03</rscale>
<asrwt>0</asrwt>
<pdfrwt beam="2">  1        4 0.82194834E-03 0.12500750E+03</pdfrwt>
<pdfrwt beam="1">  1       -4 0.11249699E+00 0.12500750E+03</pdfrwt>
<totfact> 0.41217964E+03</totfact>
</mgrwt>
</event>
<event>
 5    1  0.3212987E-002  0.1249943E+03  0.7818608E-02  0.1235078E+00
          4   -1    0    0  501    0  0.00000000000E+00  0.00000000000E+00  0.53096395472E+02  0.53111581713E+02  0.12700000000E+01 0. -1.
         -4   -1    0    0    0  501 -0.00000000000E+00 -0.00000000000E+00 -0.73531144148E+02  0.73542110792E+02  0.12700000000E+01 0. -1.
         25    2    1    2    0    0  0.00000000000E+00  0.00000000000E+00 -0.20434748676E+02  0.12665369251E+03  0.12499431536E+03 0.  0.
    9000005    1    3    3    0    0 -0.50730794538E+02 -0.35799933143E+02 -0.17356905338E+02  0.64478763096E+02  0.10000000000E+01 0.  0.
    9000005    1    3    3    0    0  0.50730794538E+02  0.35799933143E+02 -0.30778433378E+01  0.62174929409E+02  0.10000000000E+01 0.  0.
<mgrwt>
<rscale>  0 0.12499432E+03</rscale>
<asrwt>0</asrwt>
<pdfrwt beam="1">  1        4 0.81706880E-02 0.12499432E+03</pdfrwt>
<pdfrwt beam="2">  1       -4 0.11314495E-01 0.12499432E+03</pdfrwt>
<totfact> 0.10418015E+04</totfact>
</mgrwt>
</event>
<event>
 5    1  0.3212987E-002  0.1250024E+03  0.7818608E-02  0.1235066E+00
         -4   -1    0    0    0  501 -0.00000000000E+00  0.00000000000E+00  0.74196018060E+02  0.74206886446E+02  0.12700000000E+01 0. -1.
          4   -1    0    0  501    0  0.00000000000E+00 -0.00000000000E+00 -0.52627351205E+02  0.52642672756E+02  0.12700000000E+01 0. -1.
         25    2    1    2    0    0  0.00000000000E+00  0.00000000000E+00  0.21568666855E+02  0.12684955920E+03  0.12500241310E+03 0.  0.
    9000005    1    3    3    0    0 -0.35663489707E+01 -0.55444626685E+02 -0.18249200166E+02  0.58488108022E+02  0.10000000000E+01 0.  0.
    9000005    1    3    3    0    0  0.35663489707E+01  0.55444626685E+02  0.39817867022E+02  0.68361451180E+02  0.10000000000E+01 0.  0.
<mgrwt>
<rscale>  0 0.12500241E+03</rscale>
<asrwt>0</asrwt>
<pdfrwt beam="2">  1        4 0.80985302E-02 0.12500241E+03</pdfrwt>
<pdfrwt beam="1">  1       -4 0.11416787E-01 0.12500241E+03</pdfrwt>
<totfact> 0.10411849E+04</totfact>
</mgrwt>
</event>
<event>
 5    1  0.3212987E-002  0.1250056E+03  0.7818608E-02  0.1235060E+00
          4   -1    0    0  501    0  0.00000000000E+00  0.00000000000E+00  0.18917558747E+03  0.18917985039E+03  0.12700000000E+01 0.  1.
         -4   -1    0    0    0  501 -0.00000000000E+00 -0.00000000000E+00 -0.20626643221E+02  0.20665703728E+02  0.12700000000E+01 0.  1.
         25    2    1    2    0    0  0.00000000000E+00  0.00000000000E+00  0.16854894425E+03  0.20984555412E+03  0.12500563978E+03 0.  0.
    9000005    1    3    3    0    0 -0.25261404107E+02  0.55309464347E+02  0.10850389448E+03  0.12438396401E+03  0.10000000000E+01 0.  0.
    9000005    1    3    3    0    0  0.25261404107E+02 -0.55309464347E+02  0.60045049767E+02  0.85461590117E+02  0.10000000000E+01 0.  0.
<mgrwt>
<rscale>  0 0.12500564E+03</rscale>
<asrwt>0</asrwt>
<pdfrwt beam="1">  1        4 0.29107269E-01 0.12500564E+03</pdfrwt>
<pdfrwt beam="2">  1       -4 0.31766623E-02 0.12500564E+03</pdfrwt>
<totfact> 0.88489952E+03</totfact>
</mgrwt>
</event>
<event>
 5    1  0.3212987E-002  0.1250015E+03  0.7818608E-02  0.1235067E+00
         -4   -1    0    0    0  501 -0.00000000000E+00  0.00000000000E+00  0.15624767484E+03  0.15625283612E+03  0.12700000000E+01 0.  1.
          4   -1    0    0  501    0  0.00000000000E+00 -0.00000000000E+00 -0.24979261459E+02  0.25011525404E+02  0.12700000000E+01 0.  1.
         25    2    1    2    0    0  0.00000000000E+00  0.00000000000E+00  0.13126841339E+03  0.18126436152E+03  0.12500148961E+03 0.  0.
    9000005    1    3    3    0    0  0.21570679034E+02 -0.23450150991E+02 -0.12323064177E+02  0.34176917447E+02  0.10000000000E+01 0.  0.
    9000005    1    3    3    0    0 -0.21570679034E+02  0.23450150991E+02  0.14359147756E+03  0.14708744407E+03  0.10000000000E+01 0.  0.
<mgrwt>
<rscale>  0 0.12500149E+03</rscale>
<asrwt>0</asrwt>
<pdfrwt beam="2">  1        4 0.38458421E-02 0.12500149E+03</pdfrwt>
<pdfrwt beam="1">  1       -4 0.24040983E-01 0.12500149E+03</pdfrwt>
<totfact> 0.93386788E+03</totfact>
</mgrwt>
</event>
<event>
 5    1  0.3212987E-002  0.1250081E+03  0.7818608E-02  0.1235057E+00
          4   -1    0    0  501    0  0.00000000000E+00  0.00000000000E+00  0.13192874052E+04  0.13192880165E+04  0.12700000000E+01 0. -1.
         -4   -1    0    0    0  501 -0.00000000000E+00 -0.00000000000E+00 -0.28244560378E+01  0.30968454772E+01  0.12700000000E+01 0. -1.
         25    2    1    2    0    0  0.00000000000E+00  0.00000000000E+00  0.13164629491E+04  0.13223848619E+04  0.12500810617E+03 0.  0.
    9000005    1    3    3    0    0  0.56705276835E+02 -0.22101354517E+02  0.80850362764E+03  0.81079163427E+03  0.10000000000E+01 0.  0.
    9000005    1    3    3    0    0 -0.56705276835E+02  0.22101354517E+02  0.50795932150E+03  0.51159322767E+03  0.10000000000E+01 0.  0.
<mgrwt>
<rscale>  0 0.12500811E+03</rscale>
<asrwt>0</asrwt>
<pdfrwt beam="1">  1        4 0.20298851E+00 0.12500811E+03</pdfrwt>
<pdfrwt beam="2">  1       -4 0.45553127E-03 0.12500811E+03</pdfrwt>
<totfact> 0.21702414E+03</totfact>
</mgrwt>
</event>
<event>
 5    1  0.3212987E-002  0.1250012E+03  0.7818608E-02  0.1235067E+00
          4   -1    0    0  501    0  0.00000000000E+00  0.00000000000E+00  0.66878547571E+02  0.66890604910E+02  0.12700000000E+01 0. -1.
         -4   -1    0    0    0  501 -0.00000000000E+00 -0.00000000000E+00 -0.58385000934E+02  0.58398811924E+02  0.12700000000E+01 0. -1.
         25    2    1    2    0    0  0.00000000000E+00  0.00000000000E+00  0.84935466368E+01  0.12528941683E+03  0.12500119054E+03 0.  0.
    9000005    1    3    3    0    0  0.48937334083E+02 -0.37202329159E+02  0.15517631585E+02  0.63408775828E+02  0.10000000000E+01 0.  0.
    9000005    1    3    3    0    0 -0.48937334083E+02  0.37202329159E+02 -0.70240849483E+01  0.61880641006E+02  0.10000000000E+01 0.  0.
<mgrwt>
<rscale>  0 0.12500119E+03</rscale>
<asrwt>0</asrwt>
<pdfrwt beam="1">  1        4 0.10290997E-01 0.12500119E+03</pdfrwt>
<pdfrwt beam="2">  1       -4 0.89842977E-02 0.12500119E+03</pdfrwt>
<totfact> 0.10446299E+04</totfact>
</mgrwt>
</event>
<event>
 5    1  0.3212987E-002  0.1249997E+03  0.7818608E-02  0.1235070E+00
         -4   -1    0    0    0  501 -0.00000000000E+00  0.00000000000E+00  0.99819748948E+03  0.99819829738E+03  0.12700000000E+01 0.  1.
          4   -1    0    0  501    0  0.00000000000E+00 -0.00000000000E+00 -0.38094145252E+01  0.40155372025E+01  0.12700000000E+01 0.  1.
         25    2    1    2    0    0  0.00000000000E+00  0.00000000000E+00  0.99438807495E+03  0.10022138346E+04  0.12499970651E+03 0.  0.
    9000005    1    3    3    0    0 -0.37472703405E+02 -0.35825281121E+02  0.21742497508E+03  0.22352242405E+03  0.10000000000E+01 0.  0.
    9000005    1    3    3    0    0  0.37472703405E+02  0.35825281121E+02  0.77696309988E+03  0.77869141053E+03  0.10000000000E+01 0.  0.
<mgrwt>
<rscale>  0 0.12499971E+03</rscale>
<asrwt>0</asrwt>
<pdfrwt beam="2">  1        4 0.60198107E-03 0.12499971E+03</pdfrwt>
<pdfrwt beam="1">  1       -4 0.15358488E+00 0.12499971E+03</pdfrwt>
<totfact> 0.30531668E+03</totfact>
</mgrwt>
</event>
<event>
 5    1  0.3212987E-002  0.1250035E+03  0.7818608E-02  0.1235064E+00
          4   -1    0    0  501    0  0.00000000000E+00  0.00000000000E+00  0.72459047733E+02  0.72470176613E+02  0.12700000000E+01 0. -1.
         -4   -1    0    0    0  501 -0.00000000000E+00 -0.00000000000E+00 -0.53889994664E+02  0.53904957332E+02  0.12700000000E+01 0. -1.
         25    2    1    2    0    0  0.00000000000E+00  0.00000000000E+00  0.18569053068E+02  0.12637513394E+03  0.12500345894E+03 0.  0.
    9000005    1    3    3    0    0 -0.11902727360E+02 -0.94552189677E+01 -0.51997374587E+02  0.54183051301E+02  0.10000000000E+01 0.  0.
    9000005    1    3    3    0    0  0.11902727360E+02  0.94552189677E+01  0.70566427656E+02  0.72192082644E+02  0.10000000000E+01 0.  0.
<mgrwt>
<rscale>  0 0.12500346E+03</rscale>
<asrwt>0</asrwt>
<pdfrwt beam="1">  1        4 0.11149553E-01 0.12500346E+03</pdfrwt>
<pdfrwt beam="2">  1       -4 0.82927754E-02 0.12500346E+03</pdfrwt>
<totfact> 0.10421939E+04</totfact>
</mgrwt>
</event>
<event>
 5    1  0.3212987E-002  0.1250266E+03  0.7818608E-02  0.1235028E+00
          4   -1    0    0  501    0  0.00000000000E+00  0.00000000000E+00  0.67117553548E+01  0.68308535296E+01  0.12700000000E+01 0.  1.
         -4   -1    0    0    0  501 -0.00000000000E+00 -0.00000000000E+00 -0.57700896135E+03  0.57701035898E+03  0.12700000000E+01 0.  1.
         25    2    1    2    0    0  0.00000000000E+00  0.00000000000E+00 -0.57029720599E+03  0.58384121251E+03  0.12502663023E+03 0.  0.
    9000005    1    3    3    0    0  0.44992140319E+02  0.42227740336E+02 -0.33171497375E+03  0.33740672571E+03  0.10000000000E+01 0.  0.
    9000005    1    3    3    0    0 -0.44992140319E+02 -0.42227740336E+02 -0.23858223224E+03  0.24643448680E+03  0.10000000000E+01 0.  0.
<mgrwt>
<rscale>  0 0.12502663E+03</rscale>
<asrwt>0</asrwt>
<pdfrwt beam="1">  1        4 0.10418471E-02 0.12502663E+03</pdfrwt>
<pdfrwt beam="2">  1       -4 0.88779839E-01 0.12502663E+03</pdfrwt>
<totfact> 0.49874623E+03</totfact>
</mgrwt>
</event>
<event>
 5    1  0.3212987E-002  0.1250028E+03  0.7818608E-02  0.1235065E+00
         -4   -1    0    0    0  501 -0.00000000000E+00  0.00000000000E+00  0.36124150080E+01  0.38291568511E+01  0.12700000000E+01 0.  1.
          4   -1    0    0  501    0  0.00000000000E+00 -0.00000000000E+00 -0.10496752183E+04  0.10496759866E+04  0.12700000000E+01 0.  1.
         25    2    1    2    0    0  0.00000000000E+00  0.00000000000E+00 -0.10460628033E+04  0.10535051434E+04  0.12500279523E+03 0.  0.
    9000005    1    3    3    0    0  0.33008929538E+02 -0.51655833961E+02 -0.62539081853E+03  0.62838888478E+03  0.10000000000E+01 0.  0.
    9000005    1    3    3    0    0 -0.33008929538E+02  0.51655833961E+02 -0.42067198475E+03  0.42511625865E+03  0.10000000000E+01 0.  0.
<mgrwt>
<rscale>  0 0.12500280E+03</rscale>
<asrwt>0</asrwt>
<pdfrwt beam="2">  1        4 0.16150499E+00 0.12500280E+03</pdfrwt>
<pdfrwt beam="1">  1       -4 0.57248854E-03 0.12500280E+03</pdfrwt>
<totfact> 0.28883861E+03</totfact>
</mgrwt>
</event>
<event>
 5    1  0.3212987E-002  0.1250003E+03  0.7818608E-02  0.1235069E+00
          4   -1    0    0  501    0  0.00000000000E+00  0.00000000000E+00  0.27980200051E+03  0.27980488271E+03  0.12700000000E+01 0. -1.
         -4   -1    0    0    0  501 -0.00000000000E+00 -0.00000000000E+00 -0.13928982315E+02  0.13986759751E+02  0.12700000000E+01 0. -1.
         25    2    1    2    0    0  0.00000000000E+00  0.00000000000E+00  0.26587301820E+03  0.29379164246E+03  0.12500026951E+03 0.  0.
    9000005    1    3    3    0    0  0.43741990018E+02 -0.43544216918E+02  0.10993133195E+03  0.12607679510E+03  0.10000000000E+01 0.  0.
    9000005    1    3    3    0    0 -0.43741990018E+02  0.43544216918E+02  0.15594168625E+03  0.16771484737E+03  0.10000000000E+01 0.  0.
<mgrwt>
<rscale>  0 0.12500027E+03</rscale>
<asrwt>0</asrwt>
<pdfrwt beam="1">  1        4 0.43051124E-01 0.12500027E+03</pdfrwt>
<pdfrwt beam="2">  1       -4 0.21475866E-02 0.12500027E+03</pdfrwt>
<totfact> 0.76383806E+03</totfact>
</mgrwt>
</event>
<event>
 5    1  0.3212987E-002  0.1250004E+03  0.7818608E-02  0.1235069E+00
         -4   -1    0    0    0  501 -0.00000000000E+00  0.00000000000E+00  0.18432523984E+03  0.18432961494E+03  0.12700000000E+01 0.  1.
          4   -1    0    0  501    0  0.00000000000E+00 -0.00000000000E+00 -0.21168627162E+02  0.21206689415E+02  0.12700000000E+01 0.  1.
         25    2    1    2    0    0  0.00000000000E+00  0.00000000000E+00  0.16315661268E+03  0.20553630435E+03  0.12500036858E+03 0.  0.
    9000005    1    3    3    0    0 -0.24043079927E+02 -0.57470394363E+02  0.89693337268E+02  0.10920993852E+03  0.10000000000E+01 0.  0.
    9000005    1    3    3    0    0  0.24043079927E+02  0.57470394363E+02  0.73463275412E+02  0.96326365834E+02  0.10000000000E+01 0.  0.
<mgrwt>
<rscale>  0 0.12500037E+03</rscale>
<asrwt>0</asrwt>
<pdfrwt beam="2">  1        4 0.32599764E-02 0.12500037E+03</pdfrwt>
<pdfrwt beam="1">  1       -4 0.28360993E-01 0.12500037E+03</pdfrwt>
<totfact> 0.89209354E+03</totfact>
</mgrwt>
</event>
<event>
 5    1  0.3212987E-002  0.1249997E+03  0.7818608E-02  0.1235070E+00
         -4   -1    0    0    0  501 -0.00000000000E+00  0.00000000000E+00  0.10729555287E+03  0.10730306876E+03  0.12700000000E+01 0. -1.
          4   -1    0    0  501    0  0.00000000000E+00 -0.00000000000E+00 -0.36386394483E+02  0.36408551241E+02  0.12700000000E+01 0. -1.
         25    2    1    2    0    0  0.00000000000E+00  0.00000000000E+00  0.70909158388E+02  0.14371162000E+03  0.12499968392E+03 0.  0.
    9000005    1    3    3    0    0  0.10589002765E+02  0.25114241443E+02  0.10010775611E+03  0.10375651756E+03  0.10000000000E+01 0.  0.
    9000005    1    3    3    0    0 -0.10589002765E+02 -0.25114241443E+02 -0.29198597718E+02  0.39955102447E+02  0.10000000000E+01 0.  0.
<mgrwt>
<rscale>  0 0.12499968E+03</rscale>
<asrwt>0</asrwt>
<pdfrwt beam="2">  1        4 0.56001894E-02 0.12499968E+03</pdfrwt>
<pdfrwt beam="1">  1       -4 0.16509291E-01 0.12499968E+03</pdfrwt>
<totfact> 0.10057303E+04</totfact>
</mgrwt>
</event>
<event>
 5    1  0.3212987E-002  0.1249968E+03  0.7818608E-02  0.1235074E+00
          4   -1    0    0  501    0  0.00000000000E+00  0.00000000000E+00  0.55264322076E+01  0.56704808390E+01  0.12700000000E+01 0. -1.
         -4   -1    0    0    0  501 -0.00000000000E+00 -0.00000000000E+00 -0.69755634880E+03  0.69755750491E+03  0.12700000000E+01 0. -1.
         25    2    1    2    0    0  0.00000000000E+00  0.00000000000E+00 -0.69202991659E+03  0.70322798575E+03  0.12499677786E+03 0.  0.
    9000005    1    3    3    0    0  0.18084811814E+02 -0.40069917679E+02 -0.96156697637E+02  0.10573442780E+03  0.10000000000E+01 0.  0.
    9000005    1    3    3    0    0 -0.18084811814E+02  0.40069917679E+02 -0.59587321896E+03  0.59749355795E+03  0.10000000000E+01 0.  0.
<mgrwt>
<rscale>  0 0.12499678E+03</rscale>
<asrwt>0</asrwt>
<pdfrwt beam="1">  1        4 0.86139049E-03 0.12499678E+03</pdfrwt>
<pdfrwt beam="2">  1       -4 0.10732746E+00 0.12499678E+03</pdfrwt>
<totfact> 0.42919887E+03</totfact>
</mgrwt>
</event>
<event>
 5    1  0.3212987E-002  0.1250005E+03  0.7818608E-02  0.1235068E+00
          4   -1    0    0  501    0  0.00000000000E+00  0.00000000000E+00  0.59314345352E+01  0.60658730324E+01  0.12700000000E+01 0. -1.
         -4   -1    0    0    0  501 -0.00000000000E+00 -0.00000000000E+00 -0.65105825687E+03  0.65105949555E+03  0.12700000000E+01 0. -1.
         25    2    1    2    0    0  0.00000000000E+00  0.00000000000E+00 -0.64512682234E+03  0.65712536858E+03  0.12500053253E+03 0.  0.
    9000005    1    3    3    0    0  0.51485758807E+02  0.33049446267E+02 -0.38952216174E+03  0.39429882544E+03  0.10000000000E+01 0.  0.
    9000005    1    3    3    0    0 -0.51485758807E+02 -0.33049446267E+02 -0.25560466060E+03  0.26282654314E+03  0.10000000000E+01 0.  0.
<mgrwt>
<rscale>  0 0.12500053E+03</rscale>
<asrwt>0</asrwt>
<pdfrwt beam="1">  1        4 0.92296561E-03 0.12500053E+03</pdfrwt>
<pdfrwt beam="2">  1       -4 0.10017319E+00 0.12500053E+03</pdfrwt>
<totfact> 0.45447919E+03</totfact>
</mgrwt>
</event>
<event>
 5    1  0.3212987E-002  0.1250011E+03  0.7818608E-02  0.1235068E+00
         -4   -1    0    0    0  501 -0.00000000000E+00  0.00000000000E+00  0.69267184573E+03  0.69267300998E+03  0.12700000000E+01 0. -1.
          4   -1    0    0  501    0  0.00000000000E+00 -0.00000000000E+00 -0.55668109957E+01  0.57098410365E+01  0.12700000000E+01 0. -1.
         25    2    1    2    0    0  0.00000000000E+00  0.00000000000E+00  0.68710503473E+03  0.69838285102E+03  0.12500111139E+03 0.  0.
    9000005    1    3    3    0    0  0.17073122253E+01  0.40279619240E+02  0.76778822828E+02  0.86725718654E+02  0.10000000000E+01 0.  0.
    9000005    1    3    3    0    0 -0.17073122253E+01 -0.40279619240E+02  0.61032621190E+03  0.61165713237E+03  0.10000000000E+01 0.  0.
<mgrwt>
<rscale>  0 0.12500111E+03</rscale>
<asrwt>0</asrwt>
<pdfrwt beam="2">  1        4 0.86752431E-03 0.12500111E+03</pdfrwt>
<pdfrwt beam="1">  1       -4 0.10657599E+00 0.12500111E+03</pdfrwt>
<totfact> 0.43171142E+03</totfact>
</mgrwt>
</event>
<event>
 5    1  0.3212987E-002  0.1249978E+03  0.7818608E-02  0.1235073E+00
          4   -1    0    0  501    0  0.00000000000E+00  0.00000000000E+00  0.72426909993E+02  0.72438043811E+02  0.12700000000E+01 0. -1.
         -4   -1    0    0    0  501 -0.00000000000E+00 -0.00000000000E+00 -0.53908997635E+02  0.53923955029E+02  0.12700000000E+01 0. -1.
         25    2    1    2    0    0  0.00000000000E+00  0.00000000000E+00  0.18517912358E+02  0.12636199884E+03  0.12499776667E+03 0.  0.
    9000005    1    3    3    0    0 -0.43797080392E+02 -0.30507528813E+02 -0.23595234999E+02  0.58366331732E+02  0.10000000000E+01 0.  0.
    9000005    1    3    3    0    0  0.43797080392E+02  0.30507528813E+02  0.42113147358E+02  0.67995667108E+02  0.10000000000E+01 0.  0.
<mgrwt>
<rscale>  0 0.12499777E+03</rscale>
<asrwt>0</asrwt>
<pdfrwt beam="1">  1        4 0.11144609E-01 0.12499777E+03</pdfrwt>
<pdfrwt beam="2">  1       -4 0.82956990E-02 0.12499777E+03</pdfrwt>
<totfact> 0.10423565E+04</totfact>
</mgrwt>
</event>
<event>
 5    1  0.3212987E-002  0.1249948E+03  0.7818608E-02  0.1235077E+00
         -4   -1    0    0    0  501 -0.00000000000E+00  0.00000000000E+00  0.73635167031E+02  0.73646118185E+02  0.12700000000E+01 0.  1.
          4   -1    0    0  501    0  0.00000000000E+00 -0.00000000000E+00 -0.53021792465E+02  0.53037000068E+02  0.12700000000E+01 0.  1.
         25    2    1    2    0    0  0.00000000000E+00  0.00000000000E+00  0.20613374566E+02  0.12668311825E+03  0.12499480485E+03 0.  0.
    9000005    1    3    3    0    0  0.47006276651E+01 -0.35525962285E+02  0.62191275056E+02  0.71784013470E+02  0.10000000000E+01 0.  0.
    9000005    1    3    3    0    0 -0.47006276651E+01  0.35525962285E+02 -0.41577900491E+02  0.54899104782E+02  0.10000000000E+01 0.  0.
<mgrwt>
<rscale>  0 0.12499480E+03</rscale>
<asrwt>0</asrwt>
<pdfrwt beam="2">  1        4 0.81592110E-02 0.12499480E+03</pdfrwt>
<pdfrwt beam="1">  1       -4 0.11330499E-01 0.12499480E+03</pdfrwt>
<totfact> 0.10417259E+04</totfact>
</mgrwt>
</event>
<event>
 4    1  0.3212987E-002  0.1250932E+03  0.7818608E-02  0.1234924E+00
          4   -1    0    0  501    0  0.00000000000E+00  0.00000000000E+00  0.13215678249E+04  0.13215684351E+04  0.12700000000E+01 0.  1.
         -4   -1    0    0    0  501 -0.00000000000E+00 -0.00000000000E+00 -0.28233244254E+01  0.30958134329E+01  0.12700000000E+01 0.  1.
    9000005    1    1    2    0    0  0.12140962374E+02 -0.59487077681E+02  0.50054402834E+03  0.50421368454E+03  0.10000000000E+01 0.  0.
    9000005    1    1    2    0    0 -0.12140962374E+02  0.59487077681E+02  0.81820047215E+03  0.82045056403E+03  0.10000000000E+01 0.  0.
<mgrwt>
<rscale>  0 0.12509322E+03</rscale>
<asrwt>0</asrwt>
<pdfrwt beam="1">  1        4 0.20333971E+00 0.12509322E+03</pdfrwt>
<pdfrwt beam="2">  1       -4 0.45536395E-03 0.12509322E+03</pdfrwt>
<totfact> 0.21609695E+03</totfact>
</mgrwt>
</event>
<event>
 5    1  0.3212987E-002  0.1250054E+03  0.7818608E-02  0.1235061E+00
         -4   -1    0    0    0  501 -0.00000000000E+00  0.00000000000E+00  0.18704679865E+04  0.18704684177E+04  0.12700000000E+01 0.  1.
          4   -1    0    0  501    0  0.00000000000E+00 -0.00000000000E+00 -0.18950273713E+01  0.22812340384E+01  0.12700000000E+01 0.  1.
         25    2    1    2    0    0  0.00000000000E+00  0.00000000000E+00  0.18685729591E+04  0.18727496517E+04  0.12500541711E+03 0.  0.
    9000005    1    3    3    0    0 -0.55274830297E+02  0.13306450885E+02  0.54557316111E+03  0.54852843374E+03  0.10000000000E+01 0.  0.
    9000005    1    3    3    0    0  0.55274830297E+02 -0.13306450885E+02  0.13229997980E+04  0.13242212180E+04  0.10000000000E+01 0.  0.
<mgrwt>
<rscale>  0 0.12500542E+03</rscale>
<asrwt>0</asrwt>
<pdfrwt beam="2">  1        4 0.32128341E-03 0.12500542E+03</pdfrwt>
<pdfrwt beam="1">  1       -4 0.28779462E+00 0.12500542E+03</pdfrwt>
<totfact> 0.11613556E+03</totfact>
</mgrwt>
</event>
<event>
 5    1  0.3212987E-002  0.1249831E+03  0.7818608E-02  0.1235096E+00
         -4   -1    0    0    0  501 -0.00000000000E+00  0.00000000000E+00  0.10772588775E+02  0.10847191752E+02  0.12700000000E+01 0.  1.
          4   -1    0    0  501    0  0.00000000000E+00 -0.00000000000E+00 -0.36118563075E+03  0.36118786353E+03  0.12700000000E+01 0.  1.
         25    2    1    2    0    0  0.00000000000E+00  0.00000000000E+00 -0.35041304197E+03  0.37203505528E+03  0.12498312835E+03 0.  0.
    9000005    1    3    3    0    0  0.22202849089E+02 -0.93084598352E+01 -0.35734493053E+01  0.24359463707E+02  0.10000000000E+01 0.  0.
    9000005    1    3    3    0    0 -0.22202849089E+02  0.93084598352E+01 -0.34683959267E+03  0.34767559157E+03  0.10000000000E+01 0.  0.
<mgrwt>
<rscale>  0 0.12498313E+03</rscale>
<asrwt>0</asrwt>
<pdfrwt beam="2">  1        4 0.55572921E-01 0.12498313E+03</pdfrwt>
<pdfrwt beam="1">  1       -4 0.16632321E-02 0.12498313E+03</pdfrwt>
<totfact> 0.67391704E+03</totfact>
</mgrwt>
</event>
<event>
 5    1  0.3212987E-002  0.1249996E+03  0.7818608E-02  0.1235070E+00
         -4   -1    0    0    0  501 -0.00000000000E+00  0.00000000000E+00  0.10870355453E+02  0.10944292013E+02  0.12700000000E+01 0.  1.
          4   -1    0    0  501    0  0.00000000000E+00 -0.00000000000E+00 -0.35805366174E+03  0.35805591405E+03  0.12700000000E+01 0.  1.
         25    2    1    2    0    0  0.00000000000E+00  0.00000000000E+00 -0.34718330629E+03  0.36900020607E+03  0.12499961564E+03 0.  0.
    9000005    1    3    3    0    0  0.19842193277E+02 -0.52761973868E+02 -0.93959148497E+02  0.10957581899E+03  0.10000000000E+01 0.  0.
    9000005    1    3    3    0    0 -0.19842193277E+02  0.52761973868E+02 -0.25322415779E+03  0.25942438708E+03  0.10000000000E+01 0.  0.
<mgrwt>
<rscale>  0 0.12499962E+03</rscale>
<asrwt>0</asrwt>
<pdfrwt beam="2">  1        4 0.55091030E-01 0.12499962E+03</pdfrwt>
<pdfrwt beam="1">  1       -4 0.16782233E-02 0.12499962E+03</pdfrwt>
<totfact> 0.67684243E+03</totfact>
</mgrwt>
</event>
<event>
 5    1  0.3212987E-002  0.1249979E+03  0.7818608E-02  0.1235073E+00
         -4   -1    0    0    0  501 -0.00000000000E+00  0.00000000000E+00  0.29158688611E+03  0.29158965182E+03  0.12700000000E+01 0. -1.
          4   -1    0    0  501    0  0.00000000000E+00 -0.00000000000E+00 -0.13363126133E+02  0.13423339378E+02  0.12700000000E+01 0. -1.
         25    2    1    2    0    0  0.00000000000E+00  0.00000000000E+00  0.27822375997E+03  0.30501299120E+03  0.12499785673E+03 0.  0.
    9000005    1    3    3    0    0  0.56935722370E+02 -0.25600942656E+02  0.13219661715E+03  0.14619859894E+03  0.10000000000E+01 0.  0.
    9000005    1    3    3    0    0 -0.56935722370E+02  0.25600942656E+02  0.14602714283E+03  0.15881439226E+03  0.10000000000E+01 0.  0.
<mgrwt>
<rscale>  0 0.12499786E+03</rscale>
<asrwt>0</asrwt>
<pdfrwt beam="2">  1        4 0.20607100E-02 0.12499786E+03</pdfrwt>
<pdfrwt beam="1">  1       -4 0.44864368E-01 0.12499786E+03</pdfrwt>
<totfact> 0.74977853E+03</totfact>
</mgrwt>
</event>
<event>
 5    1  0.3212987E-002  0.1250094E+03  0.7818608E-02  0.1235055E+00
          4   -1    0    0  501    0  0.00000000000E+00  0.00000000000E+00  0.73199873823E+02  0.73210890090E+02  0.12700000000E+01 0. -1.
         -4   -1    0    0    0  501 -0.00000000000E+00 -0.00000000000E+00 -0.53349598095E+02  0.53364712282E+02  0.12700000000E+01 0. -1.
         25    2    1    2    0    0  0.00000000000E+00  0.00000000000E+00  0.19850275728E+02  0.12657560237E+03  0.12500939832E+03 0.  0.
    9000005    1    3    3    0    0 -0.18153963088E+02  0.36201177479E+02  0.58121352399E+02  0.70846194191E+02  0.10000000000E+01 0.  0.
    9000005    1    3    3    0    0  0.18153963088E+02 -0.36201177479E+02 -0.38271076671E+02  0.55729408181E+02  0.10000000000E+01 0.  0.
<mgrwt>
<rscale>  0 0.12500940E+03</rscale>
<asrwt>0</asrwt>
<pdfrwt beam="1">  1        4 0.11263529E-01 0.12500940E+03</pdfrwt>
<pdfrwt beam="2">  1       -4 0.82096405E-02 0.12500940E+03</pdfrwt>
<totfact> 0.10416170E+04</totfact>
</mgrwt>
</event>
<event>
 5    1  0.3212987E-002  0.1250009E+03  0.7818608E-02  0.1235068E+00
         -4   -1    0    0    0  501 -0.00000000000E+00  0.00000000000E+00  0.63956434896E+03  0.63956560990E+03  0.12700000000E+01 0. -1.
          4   -1    0    0  501    0  0.00000000000E+00 -0.00000000000E+00 -0.60404610235E+01  0.61725253646E+01  0.12700000000E+01 0. -1.
         25    2    1    2    0    0  0.00000000000E+00  0.00000000000E+00  0.63352388794E+03  0.64573813526E+03  0.12500089097E+03 0.  0.
    9000005    1    3    3    0    0 -0.36828213198E+02 -0.48942890722E+02  0.25274229795E+03  0.26006036417E+03  0.10000000000E+01 0.  0.
    9000005    1    3    3    0    0  0.36828213198E+02  0.48942890722E+02  0.38078158999E+03  0.38567777110E+03  0.10000000000E+01 0.  0.
<mgrwt>
<rscale>  0 0.12500089E+03</rscale>
<asrwt>0</asrwt>
<pdfrwt beam="2">  1        4 0.93955768E-03 0.12500089E+03</pdfrwt>
<pdfrwt beam="1">  1       -4 0.98404751E-01 0.12500089E+03</pdfrwt>
<totfact> 0.46101142E+03</totfact>
</mgrwt>
</event>
<event>
 5    1  0.3212987E-002  0.1250006E+03  0.7818608E-02  0.1235068E+00
          4   -1    0    0  501    0  0.00000000000E+00  0.00000000000E+00  0.18039494726E+02  0.18084144159E+02  0.12700000000E+01 0. -1.
         -4   -1    0    0    0  501 -0.00000000000E+00 -0.00000000000E+00 -0.21622677541E+03  0.21623050503E+03  0.12700000000E+01 0. -1.
         25    2    1    2    0    0  0.00000000000E+00  0.00000000000E+00 -0.19818728069E+03  0.23431464919E+03  0.12500062639E+03 0.  0.
    9000005    1    3    3    0    0 -0.39177093959E+02 -0.39028477411E+02 -0.15365509861E+03  0.16330632587E+03  0.10000000000E+01 0.  0.
    9000005    1    3    3    0    0  0.39177093959E+02  0.39028477411E+02 -0.44532182075E+02  0.71008323318E+02  0.10000000000E+01 0.  0.
<mgrwt>
<rscale>  0 0.12500063E+03</rscale>
<asrwt>0</asrwt>
<pdfrwt beam="1">  1        4 0.27790285E-02 0.12500063E+03</pdfrwt>
<pdfrwt beam="2">  1       -4 0.33269377E-01 0.12500063E+03</pdfrwt>
<totfact> 0.84650270E+03</totfact>
</mgrwt>
</event>
<event>
 4    1  0.3212987E-002  0.1250921E+03  0.7818608E-02  0.1234925E+00
          4   -1    0    0  501    0  0.00000000000E+00  0.00000000000E+00  0.22785345199E+02  0.22820711116E+02  0.12700000000E+01 0.  1.
         -4   -1    0    0    0  501 -0.00000000000E+00 -0.00000000000E+00 -0.17151881394E+03  0.17152351569E+03  0.12700000000E+01 0.  1.
    9000005    1    1    2    0    0 -0.58993959458E+02 -0.18646710746E+02 -0.60210859998E+02  0.86338489307E+02  0.10000000000E+01 0.  0.
    9000005    1    1    2    0    0  0.58993959458E+02  0.18646710746E+02 -0.88522608740E+02  0.10800573750E+03  0.10000000000E+01 0.  0.
<mgrwt>
<rscale>  0 0.12509210E+03</rscale>
<asrwt>0</asrwt>
<pdfrwt beam="1">  1        4 0.35085200E-02 0.12509210E+03</pdfrwt>
<pdfrwt beam="2">  1       -4 0.26390591E-01 0.12509210E+03</pdfrwt>
<totfact> 0.90909276E+03</totfact>
</mgrwt>
</event>
<event>
 5    1  0.3212987E-002  0.1249818E+03  0.7818608E-02  0.1235098E+00
         -4   -1    0    0    0  501 -0.00000000000E+00  0.00000000000E+00  0.11115565326E+03  0.11116290817E+03  0.12700000000E+01 0. -1.
          4   -1    0    0  501    0  0.00000000000E+00 -0.00000000000E+00 -0.35112066134E+02  0.35135026515E+02  0.12700000000E+01 0. -1.
         25    2    1    2    0    0  0.00000000000E+00  0.00000000000E+00  0.76043587130E+02  0.14629793468E+03  0.12498183288E+03 0.  0.
    9000005    1    3    3    0    0 -0.41426780345E+02 -0.44830507632E+02  0.22397551504E+02  0.65027708384E+02  0.10000000000E+01 0.  0.
    9000005    1    3    3    0    0  0.41426780345E+02  0.44830507632E+02  0.53646035626E+02  0.81270226299E+02  0.10000000000E+01 0.  0.
<mgrwt>
<rscale>  0 0.12498183E+03</rscale>
<asrwt>0</asrwt>
<pdfrwt beam="2">  1        4 0.54041807E-02 0.12498183E+03</pdfrwt>
<pdfrwt beam="1">  1       -4 0.17103194E-01 0.12498183E+03</pdfrwt>
<totfact> 0.10008777E+04</totfact>
</mgrwt>
</event>
<event>
 5    1  0.3212987E-002  0.1250013E+03  0.7818608E-02  0.1235067E+00
          4   -1    0    0  501    0  0.00000000000E+00  0.00000000000E+00  0.19427652009E+02  0.19469118177E+02  0.12700000000E+01 0. -1.
         -4   -1    0    0    0  501 -0.00000000000E+00 -0.00000000000E+00 -0.20081283964E+03  0.20081685553E+03  0.12700000000E+01 0. -1.
         25    2    1    2    0    0  0.00000000000E+00  0.00000000000E+00 -0.18138518763E+03  0.22028597371E+03  0.12500129567E+03 0.  0.
    9000005    1    3    3    0    0 -0.71190082659E+01  0.49749084785E+02 -0.15615039296E+03  0.16404144884E+03  0.10000000000E+01 0.  0.
    9000005    1    3    3    0    0  0.71190082659E+01 -0.49749084785E+02 -0.25234794677E+02  0.56244524872E+02  0.10000000000E+01 0.  0.
<mgrwt>
<rscale>  0 0.12500130E+03</rscale>
<asrwt>0</asrwt>
<pdfrwt beam="1">  1        4 0.29923683E-02 0.12500130E+03</pdfrwt>
<pdfrwt beam="2">  1       -4 0.30897780E-01 0.12500130E+03</pdfrwt>
<totfact> 0.86820606E+03</totfact>
</mgrwt>
</event>
<event>
 5    1  0.3212987E-002  0.1250027E+03  0.7818608E-02  0.1235065E+00
         -4   -1    0    0    0  501 -0.00000000000E+00  0.00000000000E+00  0.41990697988E+02  0.42009899042E+02  0.12700000000E+01 0. -1.
          4   -1    0    0  501    0  0.00000000000E+00 -0.00000000000E+00 -0.92985839333E+02  0.92994511754E+02  0.12700000000E+01 0. -1.
         25    2    1    2    0    0  0.00000000000E+00  0.00000000000E+00 -0.50995141345E+02  0.13500441080E+03  0.12500274594E+03 0.  0.
    9000005    1    3    3    0    0  0.34583990316E+01 -0.46664244547E+02  0.19240327707E+02  0.50603383812E+02  0.10000000000E+01 0.  0.
    9000005    1    3    3    0    0 -0.34583990316E+01  0.46664244547E+02 -0.70235469052E+02  0.84401026984E+02  0.10000000000E+01 0.  0.
<mgrwt>
<rscale>  0 0.12500275E+03</rscale>
<asrwt>0</asrwt>
<pdfrwt beam="2">  1        4 0.14307658E-01 0.12500275E+03</pdfrwt>
<pdfrwt beam="1">  1       -4 0.64622515E-02 0.12500275E+03</pdfrwt>
<totfact> 0.10237344E+04</totfact>
</mgrwt>
</event>
<event>
 5    1  0.3212987E-002  0.1250098E+03  0.7818608E-02  0.1235054E+00
         -4   -1    0    0    0  501 -0.00000000000E+00  0.00000000000E+00  0.15950275367E+03  0.15950780961E+03  0.12700000000E+01 0. -1.
          4   -1    0    0  501    0  0.00000000000E+00 -0.00000000000E+00 -0.24472087245E+02  0.24505018958E+02  0.12700000000E+01 0. -1.
         25    2    1    2    0    0  0.00000000000E+00  0.00000000000E+00  0.13503066642E+03  0.18401282857E+03  0.12500976044E+03 0.  0.
    9000005    1    3    3    0    0 -0.13240478436E+02  0.76435757089E+01 -0.21684273158E+02  0.26550748035E+02  0.10000000000E+01 0.  0.
    9000005    1    3    3    0    0  0.13240478436E+02 -0.76435757089E+01  0.15671493958E+03  0.15746208054E+03  0.10000000000E+01 0.  0.
<mgrwt>
<rscale>  0 0.12500976E+03</rscale>
<asrwt>0</asrwt>
<pdfrwt beam="2">  1        4 0.37678586E-02 0.12500976E+03</pdfrwt>
<pdfrwt beam="1">  1       -4 0.24541808E-01 0.12500976E+03</pdfrwt>
<totfact> 0.92879307E+03</totfact>
</mgrwt>
</event>
<event>
 5    1  0.3212987E-002  0.1250021E+03  0.7818608E-02  0.1235066E+00
         -4   -1    0    0    0  501 -0.00000000000E+00  0.00000000000E+00  0.90122821986E+02  0.90131769886E+02  0.12700000000E+01 0. -1.
          4   -1    0    0  501    0  0.00000000000E+00 -0.00000000000E+00 -0.43324674863E+02  0.43343284970E+02  0.12700000000E+01 0. -1.
         25    2    1    2    0    0  0.00000000000E+00  0.00000000000E+00  0.46798147123E+02  0.13347505486E+03  0.12500209476E+03 0.  0.
    9000005    1    3    3    0    0 -0.14455452983E+02  0.15333153164E+02 -0.39421716351E+02  0.44711714651E+02  0.10000000000E+01 0.  0.
    9000005    1    3    3    0    0  0.14455452983E+02 -0.15333153164E+02  0.86219863474E+02  0.88763340206E+02  0.10000000000E+01 0.  0.
<mgrwt>
<rscale>  0 0.12500209E+03</rscale>
<asrwt>0</asrwt>
<pdfrwt beam="2">  1        4 0.66674544E-02 0.12500209E+03</pdfrwt>
<pdfrwt beam="1">  1       -4 0.13867169E-01 0.12500209E+03</pdfrwt>
<totfact> 0.10269828E+04</totfact>
</mgrwt>
</event>
<event>
 5    1  0.3212987E-002  0.1250004E+03  0.7818608E-02  0.1235069E+00
          4   -1    0    0  501    0  0.00000000000E+00  0.00000000000E+00  0.78468665113E+01  0.79489756602E+01  0.12700000000E+01 0. -1.
         -4   -1    0    0    0  501 -0.00000000000E+00 -0.00000000000E+00 -0.49449242358E+03  0.49449405445E+03  0.12700000000E+01 0. -1.
         25    2    1    2    0    0  0.00000000000E+00  0.00000000000E+00 -0.48664555707E+03  0.50244303011E+03  0.12500040113E+03 0.  0.
    9000005    1    3    3    0    0  0.10946066995E+02 -0.37032870004E+02 -0.45832227518E+02  0.59940328016E+02  0.10000000000E+01 0.  0.
    9000005    1    3    3    0    0 -0.10946066995E+02  0.37032870004E+02 -0.44081332955E+03  0.44250270209E+03  0.10000000000E+01 0.  0.
<mgrwt>
<rscale>  0 0.12500040E+03</rscale>
<asrwt>0</asrwt>
<pdfrwt beam="1">  1        4 0.12151906E-02 0.12500040E+03</pdfrwt>
<pdfrwt beam="2">  1       -4 0.76083713E-01 0.12500040E+03</pdfrwt>
<totfact> 0.55674834E+03</totfact>
</mgrwt>
</event>
<event>
 5    1  0.3212987E-002  0.1250016E+03  0.7818608E-02  0.1235067E+00
          4   -1    0    0  501    0  0.00000000000E+00  0.00000000000E+00  0.12105165302E+03  0.12105831487E+03  0.12700000000E+01 0.  1.
         -4   -1    0    0    0  501 -0.00000000000E+00 -0.00000000000E+00 -0.32250085339E+02  0.32275081787E+02  0.12700000000E+01 0.  1.
         25    2    1    2    0    0  0.00000000000E+00  0.00000000000E+00  0.88801567685E+02  0.15333339666E+03  0.12500164842E+03 0.  0.
    9000005    1    3    3    0    0 -0.57859648575E+02  0.23604504747E+02  0.43585776527E+02  0.76194694651E+02  0.10000000000E+01 0.  0.
    9000005    1    3    3    0    0  0.57859648575E+02 -0.23604504747E+02  0.45215791158E+02  0.77138702009E+02  0.10000000000E+01 0.  0.
<mgrwt>
<rscale>  0 0.12500165E+03</rscale>
<asrwt>0</asrwt>
<pdfrwt beam="1">  1        4 0.18625766E-01 0.12500165E+03</pdfrwt>
<pdfrwt beam="2">  1       -4 0.49639868E-02 0.12500165E+03</pdfrwt>
<totfact> 0.98639679E+03</totfact>
</mgrwt>
</event>
<event>
 5    1  0.3212987E-002  0.1249991E+03  0.7818608E-02  0.1235071E+00
          4   -1    0    0  501    0  0.00000000000E+00  0.00000000000E+00  0.75930860233E+02  0.75941480337E+02  0.12700000000E+01 0. -1.
         -4   -1    0    0    0  501 -0.00000000000E+00 -0.00000000000E+00 -0.51422066239E+02  0.51437746804E+02  0.12700000000E+01 0. -1.
         25    2    1    2    0    0  0.00000000000E+00  0.00000000000E+00  0.24508793994E+02  0.12737922714E+03  0.12499914609E+03 0.  0.
    9000005    1    3    3    0    0  0.13098038032E+00 -0.22404067255E+02  0.71702455555E+02  0.75127901063E+02  0.10000000000E+01 0.  0.
    9000005    1    3    3    0    0 -0.13098038032E+00  0.22404067255E+02 -0.47193661561E+02  0.52251326079E+02  0.10000000000E+01 0.  0.
<mgrwt>
<rscale>  0 0.12499915E+03</rscale>
<asrwt>0</asrwt>
<pdfrwt beam="1">  1        4 0.11683694E-01 0.12499915E+03</pdfrwt>
<pdfrwt beam="2">  1       -4 0.79131103E-02 0.12499915E+03</pdfrwt>
<totfact> 0.10401117E+04</totfact>
</mgrwt>
</event>
<event>
 5    1  0.3212987E-002  0.1249983E+03  0.7818608E-02  0.1235072E+00
         -4   -1    0    0    0  501 -0.00000000000E+00  0.00000000000E+00  0.11410657481E+03  0.11411364211E+03  0.12700000000E+01 0.  1.
          4   -1    0    0  501    0  0.00000000000E+00 -0.00000000000E+00 -0.34212522519E+02  0.34236086183E+02  0.12700000000E+01 0.  1.
         25    2    1    2    0    0  0.00000000000E+00  0.00000000000E+00  0.79894052290E+02  0.14834972829E+03  0.12499832916E+03 0.  0.
    9000005    1    3    3    0    0 -0.56148599389E+02  0.62478964142E+01  0.71647265250E+02  0.91247093328E+02  0.10000000000E+01 0.  0.
    9000005    1    3    3    0    0  0.56148599389E+02 -0.62478964142E+01  0.82467870400E+01  0.57102634961E+02  0.10000000000E+01 0.  0.
<mgrwt>
<rscale>  0 0.12499833E+03</rscale>
<asrwt>0</asrwt>
<pdfrwt beam="2">  1        4 0.52658212E-02 0.12499833E+03</pdfrwt>
<pdfrwt beam="1">  1       -4 0.17557214E-01 0.12499833E+03</pdfrwt>
<totfact> 0.99637424E+03</totfact>
</mgrwt>
</event>
<event>
 5    1  0.3212987E-002  0.1250035E+03  0.7818608E-02  0.1235064E+00
         -4   -1    0    0    0  501 -0.00000000000E+00  0.00000000000E+00  0.27655393970E+03  0.27655685575E+03  0.12700000000E+01 0. -1.
          4   -1    0    0  501    0  0.00000000000E+00 -0.00000000000E+00 -0.14093979724E+02  0.14151083508E+02  0.12700000000E+01 0. -1.
         25    2    1    2    0    0  0.00000000000E+00  0.00000000000E+00  0.26245995997E+03  0.29070793926E+03  0.12500350139E+03 0.  0.
    9000005    1    3    3    0    0 -0.60755271162E+02 -0.11751963537E+01  0.97298170467E+02  0.11471930106E+03  0.10000000000E+01 0.  0.
    9000005    1    3    3    0    0  0.60755271162E+02  0.11751963537E+01  0.16516178951E+03  0.17598863819E+03  0.10000000000E+01 0.  0.
<mgrwt>
<rscale>  0 0.12500350E+03</rscale>
<asrwt>0</asrwt>
<pdfrwt beam="2">  1        4 0.21729216E-02 0.12500350E+03</pdfrwt>
<pdfrwt beam="1">  1       -4 0.42551374E-01 0.12500350E+03</pdfrwt>
<totfact> 0.76773429E+03</totfact>
</mgrwt>
</event>
<event>
 5    1  0.3212987E-002  0.1249994E+03  0.7818608E-02  0.1235070E+00
         -4   -1    0    0    0  501 -0.00000000000E+00  0.00000000000E+00  0.50560026348E+03  0.50560185851E+03  0.12700000000E+01 0. -1.
          4   -1    0    0  501    0  0.00000000000E+00 -0.00000000000E+00 -0.76720855947E+01  0.77764900419E+01  0.12700000000E+01 0. -1.
         25    2    1    2    0    0  0.00000000000E+00  0.00000000000E+00  0.49792817788E+03  0.51337834855E+03  0.12499943373E+03 0.  0.
    9000005    1    3    3    0    0 -0.33718978848E+02 -0.22154884983E+02  0.52966943106E+02  0.66590581354E+02  0.10000000000E+01 0.  0.
    9000005    1    3    3    0    0  0.33718978848E+02  0.22154884983E+02  0.44496123478E+03  0.44678776720E+03  0.10000000000E+01 0.  0.
<mgrwt>
<rscale>  0 0.12499943E+03</rscale>
<asrwt>0</asrwt>
<pdfrwt beam="2">  1        4 0.11884741E-02 0.12499943E+03</pdfrwt>
<pdfrwt beam="1">  1       -4 0.77792845E-01 0.12499943E+03</pdfrwt>
<totfact> 0.54841773E+03</totfact>
</mgrwt>
</event>
<event>
 5    1  0.3212987E-002  0.1250036E+03  0.7818608E-02  0.1235064E+00
         -4   -1    0    0    0  501 -0.00000000000E+00  0.00000000000E+00  0.20020527507E+01  0.23708891194E+01  0.12700000000E+01 0. -1.
          4   -1    0    0  501    0  0.00000000000E+00 -0.00000000000E+00 -0.17862874614E+04  0.17862879129E+04  0.12700000000E+01 0. -1.
         25    2    1    2    0    0  0.00000000000E+00  0.00000000000E+00 -0.17842854087E+04  0.17886588020E+04  0.12500356157E+03 0.  0.
    9000005    1    3    3    0    0 -0.50487134624E+02 -0.35040949671E+02 -0.72984355932E+03  0.73242708852E+03  0.10000000000E+01 0.  0.
    9000005    1    3    3    0    0  0.50487134624E+02  0.35040949671E+02 -0.10544418494E+04  0.10562317135E+04  0.10000000000E+01 0.  0.
<mgrwt>
<rscale>  0 0.12500356E+03</rscale>
<asrwt>0</asrwt>
<pdfrwt beam="2">  1        4 0.27484070E+00 0.12500356E+03</pdfrwt>
<pdfrwt beam="1">  1       -4 0.33641630E-03 0.12500356E+03</pdfrwt>
<totfact> 0.12878138E+03</totfact>
</mgrwt>
</event>
<event>
 5    1  0.3212987E-002  0.1249970E+03  0.7818608E-02  0.1235074E+00
         -4   -1    0    0    0  501 -0.00000000000E+00  0.00000000000E+00  0.16168724730E+03  0.16169223493E+03  0.12700000000E+01 0.  1.
          4   -1    0    0  501    0  0.00000000000E+00 -0.00000000000E+00 -0.24136061446E+02  0.24169451010E+02  0.12700000000E+01 0.  1.
         25    2    1    2    0    0  0.00000000000E+00  0.00000000000E+00  0.13755118585E+03  0.18586168594E+03  0.12499695026E+03 0.  0.
    9000005    1    3    3    0    0  0.32529886241E+02  0.40939849772E+02  0.17897501689E+02  0.55277349474E+02  0.10000000000E+01 0.  0.
    9000005    1    3    3    0    0 -0.32529886241E+02 -0.40939849772E+02  0.11965368416E+03  0.13058433647E+03  0.10000000000E+01 0.  0.
<mgrwt>
<rscale>  0 0.12499695E+03</rscale>
<asrwt>0</asrwt>
<pdfrwt beam="2">  1        4 0.37161923E-02 0.12499695E+03</pdfrwt>
<pdfrwt beam="1">  1       -4 0.24877913E-01 0.12499695E+03</pdfrwt>
<totfact> 0.92578722E+03</totfact>
</mgrwt>
</event>
<event>
 5    1  0.3212987E-002  0.1249955E+03  0.7818608E-02  0.1235076E+00
          4   -1    0    0  501    0  0.00000000000E+00  0.00000000000E+00  0.21408937025E+01  0.24892420223E+01  0.12700000000E+01 0.  1.
         -4   -1    0    0    0  501 -0.00000000000E+00 -0.00000000000E+00 -0.16868457913E+04  0.16868462694E+04  0.12700000000E+01 0.  1.
         25    2    1    2    0    0  0.00000000000E+00  0.00000000000E+00 -0.16847048976E+04  0.16893355114E+04  0.12499551233E+03 0.  0.
    9000005    1    3    3    0    0 -0.23637051900E+02 -0.17717722069E+01 -0.16237957661E+04  0.16239690697E+04  0.10000000000E+01 0.  0.
    9000005    1    3    3    0    0  0.23637051900E+02  0.17717722069E+01 -0.60909131551E+02  0.65366441739E+02  0.10000000000E+01 0.  0.
<mgrwt>
<rscale>  0 0.12499551E+03</rscale>
<asrwt>0</asrwt>
<pdfrwt beam="1">  1        4 0.35620241E-03 0.12499551E+03</pdfrwt>
<pdfrwt beam="2">  1       -4 0.25954059E+00 0.12499551E+03</pdfrwt>
<totfact> 0.14488151E+03</totfact>
</mgrwt>
</event>
<event>
 5    1  0.3212987E-002  0.1249984E+03  0.7818608E-02  0.1235072E+00
         -4   -1    0    0    0  501 -0.00000000000E+00  0.00000000000E+00  0.61912119872E+03  0.61912250130E+03  0.12700000000E+01 0. -1.
          4   -1    0    0  501    0  0.00000000000E+00 -0.00000000000E+00 -0.62439539016E+01  0.63718019685E+01  0.12700000000E+01 0. -1.
         25    2    1    2    0    0  0.00000000000E+00  0.00000000000E+00  0.61287724482E+03  0.62549430326E+03  0.12499842476E+03 0.  0.
    9000005    1    3    3    0    0 -0.37077432599E+02 -0.38343021858E+02  0.46937516531E+03  0.47239704607E+03  0.10000000000E+01 0.  0.
    9000005    1    3    3    0    0  0.37077432599E+02  0.38343021858E+02  0.14350207952E+03  0.15309725719E+03  0.10000000000E+01 0.  0.
<mgrwt>
<rscale>  0 0.12499842E+03</rscale>
<asrwt>0</asrwt>
<pdfrwt beam="2">  1        4 0.97054269E-03 0.12499842E+03</pdfrwt>
<pdfrwt beam="1">  1       -4 0.95259376E-01 0.12499842E+03</pdfrwt>
<totfact> 0.47298513E+03</totfact>
</mgrwt>
</event>
<event>
 5    1  0.3212987E-002  0.1250338E+03  0.7818608E-02  0.1235017E+00
          4   -1    0    0  501    0  0.00000000000E+00  0.00000000000E+00  0.13449576589E+02  0.13509404517E+02  0.12700000000E+01 0. -1.
         -4   -1    0    0    0  501 -0.00000000000E+00 -0.00000000000E+00 -0.28988750205E+03  0.28989028398E+03  0.12700000000E+01 0. -1.
         25    2    1    2    0    0  0.00000000000E+00  0.00000000000E+00 -0.27643792546E+03  0.30339968850E+03  0.12503377282E+03 0.  0.
    9000005    1    3    3    0    0  0.38849794160E+02  0.85693693867E+01 -0.25521302619E+03  0.25829717252E+03  0.10000000000E+01 0.  0.
    9000005    1    3    3    0    0 -0.38849794160E+02 -0.85693693867E+01 -0.21224899278E+02  0.45102515976E+02  0.10000000000E+01 0.  0.
<mgrwt>
<rscale>  0 0.12503377E+03</rscale>
<asrwt>0</asrwt>
<pdfrwt beam="1">  1        4 0.20739820E-02 0.12503377E+03</pdfrwt>
<pdfrwt beam="2">  1       -4 0.44602889E-01 0.12503377E+03</pdfrwt>
<totfact> 0.75118039E+03</totfact>
</mgrwt>
</event>
<event>
 5    1  0.3212987E-002  0.1250048E+03  0.7818608E-02  0.1235062E+00
         -4   -1    0    0    0  501 -0.00000000000E+00  0.00000000000E+00  0.14817420210E+02  0.14871746423E+02  0.12700000000E+01 0. -1.
          4   -1    0    0  501    0  0.00000000000E+00 -0.00000000000E+00 -0.26310734366E+03  0.26311040874E+03  0.12700000000E+01 0. -1.
         25    2    1    2    0    0  0.00000000000E+00  0.00000000000E+00 -0.24828992345E+03  0.27798215516E+03  0.12500476992E+03 0.  0.
    9000005    1    3    3    0    0  0.43587516487E+02  0.32856510736E+02 -0.56470404051E+02  0.78545072570E+02  0.10000000000E+01 0.  0.
    9000005    1    3    3    0    0 -0.43587516487E+02 -0.32856510736E+02 -0.19181951940E+03  0.19943708259E+03  0.10000000000E+01 0.  0.
<mgrwt>
<rscale>  0 0.12500477E+03</rscale>
<asrwt>0</asrwt>
<pdfrwt beam="2">  1        4 0.40482464E-01 0.12500477E+03</pdfrwt>
<pdfrwt beam="1">  1       -4 0.22840180E-02 0.12500477E+03</pdfrwt>
<totfact> 0.78438103E+03</totfact>
</mgrwt>
</event>
<event>
 5    1  0.3212987E-002  0.1250020E+03  0.7818608E-02  0.1235066E+00
          4   -1    0    0  501    0  0.00000000000E+00  0.00000000000E+00  0.75958076590E+02  0.75968692889E+02  0.12700000000E+01 0. -1.
         -4   -1    0    0    0  501 -0.00000000000E+00 -0.00000000000E+00 -0.51405948582E+02  0.51421634062E+02  0.12700000000E+01 0. -1.
         25    2    1    2    0    0  0.00000000000E+00  0.00000000000E+00  0.24552128008E+02  0.12739032695E+03  0.12500195363E+03 0.  0.
    9000005    1    3    3    0    0  0.23336667412E+01 -0.55706464378E+02 -0.16489401186E+02  0.58151152400E+02  0.10000000000E+01 0.  0.
    9000005    1    3    3    0    0 -0.23336667412E+01  0.55706464378E+02  0.41041529194E+02  0.69239174551E+02  0.10000000000E+01 0.  0.
<mgrwt>
<rscale>  0 0.12500195E+03</rscale>
<asrwt>0</asrwt>
<pdfrwt beam="1">  1        4 0.11687881E-01 0.12500195E+03</pdfrwt>
<pdfrwt beam="2">  1       -4 0.79106308E-02 0.12500195E+03</pdfrwt>
<totfact> 0.10400218E+04</totfact>
</mgrwt>
</event>
<event>
 5    1  0.3212987E-002  0.1250012E+03  0.7818608E-02  0.1235067E+00
          4   -1    0    0  501    0  0.00000000000E+00  0.00000000000E+00  0.53450723888E+02  0.53465809488E+02  0.12700000000E+01 0.  1.
         -4   -1    0    0    0  501 -0.00000000000E+00 -0.00000000000E+00 -0.73051803964E+02  0.73062842556E+02  0.12700000000E+01 0.  1.
         25    2    1    2    0    0  0.00000000000E+00  0.00000000000E+00 -0.19601080076E+02  0.12652865204E+03  0.12500118979E+03 0.  0.
    9000005    1    3    3    0    0 -0.38178014756E+02  0.38475754345E+02  0.21682253378E+02  0.58387195469E+02  0.10000000000E+01 0.  0.
    9000005    1    3    3    0    0  0.38178014756E+02 -0.38475754345E+02 -0.41283333454E+02  0.68141456575E+02  0.10000000000E+01 0.  0.
<mgrwt>
<rscale>  0 0.12500119E+03</rscale>
<asrwt>0</asrwt>
<pdfrwt beam="1">  1        4 0.82251978E-02 0.12500119E+03</pdfrwt>
<pdfrwt beam="2">  1       -4 0.11240749E-01 0.12500119E+03</pdfrwt>
<totfact> 0.10419123E+04</totfact>
</mgrwt>
</event>
<event>
 5    1  0.3212987E-002  0.1250047E+03  0.7818608E-02  0.1235062E+00
          4   -1    0    0  501    0  0.00000000000E+00  0.00000000000E+00  0.11608367216E+02  0.11677632013E+02  0.12700000000E+01 0. -1.
         -4   -1    0    0    0  501 -0.00000000000E+00 -0.00000000000E+00 -0.33545691835E+03  0.33545932237E+03  0.12700000000E+01 0. -1.
         25    2    1    2    0    0  0.00000000000E+00  0.00000000000E+00 -0.32384855113E+03  0.34713695438E+03  0.12500472403E+03 0.  0.
    9000005    1    3    3    0    0 -0.46290705503E+02 -0.41571645981E+02 -0.14560981758E+03  0.15834850849E+03  0.10000000000E+01 0.  0.
    9000005    1    3    3    0    0  0.46290705503E+02  0.41571645981E+02 -0.17823873355E+03  0.18878844589E+03  0.10000000000E+01 0.  0.
<mgrwt>
<rscale>  0 0.12500472E+03</rscale>
<asrwt>0</asrwt>
<pdfrwt beam="1">  1        4 0.17914159E-02 0.12500472E+03</pdfrwt>
<pdfrwt beam="2">  1       -4 0.51614262E-01 0.12500472E+03</pdfrwt>
<totfact> 0.70033359E+03</totfact>
</mgrwt>
</event>
<event>
 5    1  0.3212987E-002  0.1249958E+03  0.7818608E-02  0.1235076E+00
         -4   -1    0    0    0  501 -0.00000000000E+00  0.00000000000E+00  0.27851010464E+03  0.27851300021E+03  0.12700000000E+01 0. -1.
          4   -1    0    0  501    0  0.00000000000E+00 -0.00000000000E+00 -0.13992843830E+02  0.14050358659E+02  0.12700000000E+01 0. -1.
         25    2    1    2    0    0  0.00000000000E+00  0.00000000000E+00  0.26451726081E+03  0.29256335887E+03  0.12499575067E+03 0.  0.
    9000005    1    3    3    0    0 -0.50726174319E+01  0.59917117798E+02  0.17206181294E+03  0.18226919632E+03  0.10000000000E+01 0.  0.
    9000005    1    3    3    0    0  0.50726174319E+01 -0.59917117798E+02  0.92455447869E+02  0.11029416255E+03  0.10000000000E+01 0.  0.
<mgrwt>
<rscale>  0 0.12499575E+03</rscale>
<asrwt>0</asrwt>
<pdfrwt beam="2">  1        4 0.21573921E-02 0.12499575E+03</pdfrwt>
<pdfrwt beam="1">  1       -4 0.42852356E-01 0.12499575E+03</pdfrwt>
<totfact> 0.76548470E+03</totfact>
</mgrwt>
</event>
<event>
 5    1  0.3212987E-002  0.1249995E+03  0.7818608E-02  0.1235070E+00
         -4   -1    0    0    0  501 -0.00000000000E+00  0.00000000000E+00  0.92626478496E+02  0.92635184561E+02  0.12700000000E+01 0.  1.
          4   -1    0    0  501    0  0.00000000000E+00 -0.00000000000E+00 -0.42151503637E+02  0.42170631474E+02  0.12700000000E+01 0.  1.
         25    2    1    2    0    0  0.00000000000E+00  0.00000000000E+00  0.50474974859E+02  0.13480581603E+03  0.12499953980E+03 0.  0.
    9000005    1    3    3    0    0  0.22780905484E+02  0.38545823891E+02 -0.21776906729E+02  0.49799436350E+02  0.10000000000E+01 0.  0.
    9000005    1    3    3    0    0 -0.22780905484E+02 -0.38545823891E+02  0.72251881588E+02  0.85006379685E+02  0.10000000000E+01 0.  0.
<mgrwt>
<rscale>  0 0.12499954E+03</rscale>
<asrwt>0</asrwt>
<pdfrwt beam="2">  1        4 0.64869879E-02 0.12499954E+03</pdfrwt>
<pdfrwt beam="1">  1       -4 0.14252368E-01 0.12499954E+03</pdfrwt>
<totfact> 0.10242272E+04</totfact>
</mgrwt>
</event>
<event>
 5    1  0.3212987E-002  0.1250085E+03  0.7818608E-02  0.1235056E+00
          4   -1    0    0  501    0  0.00000000000E+00  0.00000000000E+00  0.28308538437E+03  0.28308823315E+03  0.12700000000E+01 0.  1.
         -4   -1    0    0    0  501 -0.00000000000E+00 -0.00000000000E+00 -0.13768567954E+02  0.13827015712E+02  0.12700000000E+01 0.  1.
         25    2    1    2    0    0  0.00000000000E+00  0.00000000000E+00  0.26931681642E+03  0.29691524886E+03  0.12500846930E+03 0.  0.
    9000005    1    3    3    0    0  0.60524257311E+02  0.12960603293E+02  0.15517523435E+03  0.16706740052E+03  0.10000000000E+01 0.  0.
    9000005    1    3    3    0    0 -0.60524257311E+02 -0.12960603293E+02  0.11414158207E+03  0.12984784834E+03  0.10000000000E+01 0.  0.
<mgrwt>
<rscale>  0 0.12500847E+03</rscale>
<asrwt>0</asrwt>
<pdfrwt beam="1">  1        4 0.43556307E-01 0.12500847E+03</pdfrwt>
<pdfrwt beam="2">  1       -4 0.21229566E-02 0.12500847E+03</pdfrwt>
<totfact> 0.75973136E+03</totfact>
</mgrwt>
</event>
<event>
 5    1  0.3212987E-002  0.1250058E+03  0.7818608E-02  0.1235060E+00
         -4   -1    0    0    0  501 -0.00000000000E+00  0.00000000000E+00  0.26392936541E+02  0.26423474398E+02  0.12700000000E+01 0.  1.
          4   -1    0    0  501    0  0.00000000000E+00 -0.00000000000E+00 -0.14789856108E+03  0.14790401370E+03  0.12700000000E+01 0.  1.
         25    2    1    2    0    0  0.00000000000E+00  0.00000000000E+00 -0.12150562454E+03  0.17432748810E+03  0.12500582512E+03 0.  0.
    9000005    1    3    3    0    0  0.34751466455E+02 -0.50977562318E+02 -0.74645113128E+02  0.96846627172E+02  0.10000000000E+01 0.  0.
    9000005    1    3    3    0    0 -0.34751466455E+02  0.50977562318E+02 -0.46860511412E+02  0.77480860930E+02  0.10000000000E+01 0.  0.
<mgrwt>
<rscale>  0 0.12500583E+03</rscale>
<asrwt>0</asrwt>
<pdfrwt beam="2">  1        4 0.22756393E-01 0.12500583E+03</pdfrwt>
<pdfrwt beam="1">  1       -4 0.40632204E-02 0.12500583E+03</pdfrwt>
<totfact> 0.94635786E+03</totfact>
</mgrwt>
</event>
<event>
 5    1  0.3212987E-002  0.1250510E+03  0.7818608E-02  0.1234990E+00
         -4   -1    0    0    0  501 -0.00000000000E+00  0.00000000000E+00  0.67749125470E+02  0.67761027899E+02  0.12700000000E+01 0. -1.
          4   -1    0    0  501    0  0.00000000000E+00 -0.00000000000E+00 -0.57680703211E+02  0.57694682795E+02  0.12700000000E+01 0. -1.
         25    2    1    2    0    0  0.00000000000E+00  0.00000000000E+00  0.10068422259E+02  0.12545571069E+03  0.12505103846E+03 0.  0.
    9000005    1    3    3    0    0 -0.17368103371E+01  0.53743454009E+02  0.37028873304E+02  0.65295580379E+02  0.10000000000E+01 0.  0.
    9000005    1    3    3    0    0  0.17368103371E+01 -0.53743454009E+02 -0.26960451044E+02  0.60160130315E+02  0.10000000000E+01 0.  0.
<mgrwt>
<rscale>  0 0.12505104E+03</rscale>
<asrwt>0</asrwt>
<pdfrwt beam="2">  1        4 0.88759453E-02 0.12505104E+03</pdfrwt>
<pdfrwt beam="1">  1       -4 0.10424933E-01 0.12505104E+03</pdfrwt>
<totfact> 0.10430923E+04</totfact>
</mgrwt>
</event>
<event>
 5    1  0.3212987E-002  0.1249994E+03  0.7818608E-02  0.1235070E+00
         -4   -1    0    0    0  501 -0.00000000000E+00  0.00000000000E+00  0.55752921311E+02  0.55767384148E+02  0.12700000000E+01 0. -1.
          4   -1    0    0  501    0  0.00000000000E+00 -0.00000000000E+00 -0.70033625279E+02  0.70045139516E+02  0.12700000000E+01 0. -1.
         25    2    1    2    0    0  0.00000000000E+00  0.00000000000E+00 -0.14280703968E+02  0.12581252366E+03  0.12499941042E+03 0.  0.
    9000005    1    3    3    0    0  0.74242591365E+01  0.45809854460E+02 -0.49264125922E+02  0.67687639139E+02  0.10000000000E+01 0.  0.
    9000005    1    3    3    0    0 -0.74242591365E+01 -0.45809854460E+02  0.34983421953E+02  0.58124884524E+02  0.10000000000E+01 0.  0.
<mgrwt>
<rscale>  0 0.12499941E+03</rscale>
<asrwt>0</asrwt>
<pdfrwt beam="2">  1        4 0.10776402E-01 0.12499941E+03</pdfrwt>
<pdfrwt beam="1">  1       -4 0.85793707E-02 0.12499941E+03</pdfrwt>
<totfact> 0.10435209E+04</totfact>
</mgrwt>
</event>
<event>
 5    1  0.3212987E-002  0.1250007E+03  0.7818608E-02  0.1235068E+00
         -4   -1    0    0    0  501 -0.00000000000E+00  0.00000000000E+00  0.34499131568E+03  0.34499365327E+03  0.12700000000E+01 0. -1.
          4   -1    0    0  501    0  0.00000000000E+00 -0.00000000000E+00 -0.11284872813E+02  0.11356110884E+02  0.12700000000E+01 0. -1.
         25    2    1    2    0    0  0.00000000000E+00  0.00000000000E+00  0.33370644287E+03  0.35634976415E+03  0.12500065760E+03 0.  0.
    9000005    1    3    3    0    0 -0.39125019398E+02  0.26951211316E+02  0.28258785946E+03  0.28655546278E+03  0.10000000000E+01 0.  0.
    9000005    1    3    3    0    0  0.39125019398E+02 -0.26951211316E+02  0.51118583400E+02  0.69794301366E+02  0.10000000000E+01 0.  0.
<mgrwt>
<rscale>  0 0.12500066E+03</rscale>
<asrwt>0</asrwt>
<pdfrwt beam="2">  1        4 0.17417941E-02 0.12500066E+03</pdfrwt>
<pdfrwt beam="1">  1       -4 0.53081241E-01 0.12500066E+03</pdfrwt>
<totfact> 0.69030605E+03</totfact>
</mgrwt>
</event>
<event>
 5    1  0.3212987E-002  0.1249985E+03  0.7818608E-02  0.1235072E+00
          4   -1    0    0  501    0  0.00000000000E+00  0.00000000000E+00  0.77456820753E+02  0.77467231661E+02  0.12700000000E+01 0. -1.
         -4   -1    0    0    0  501 -0.00000000000E+00 -0.00000000000E+00 -0.50408302123E+02  0.50424297941E+02  0.12700000000E+01 0. -1.
         25    2    1    2    0    0  0.00000000000E+00  0.00000000000E+00  0.27048518630E+02  0.12789152960E+03  0.12499848393E+03 0.  0.
    9000005    1    3    3    0    0 -0.10259651373E+02 -0.54678770126E+02 -0.15597228666E+02  0.57786693026E+02  0.10000000000E+01 0.  0.
    9000005    1    3    3    0    0  0.10259651373E+02  0.54678770126E+02  0.42645747297E+02  0.70104836576E+02  0.10000000000E+01 0.  0.
<mgrwt>
<rscale>  0 0.12499848E+03</rscale>
<asrwt>0</asrwt>
<pdfrwt beam="1">  1        4 0.11918465E-01 0.12499848E+03</pdfrwt>
<pdfrwt beam="2">  1       -4 0.77571547E-02 0.12499848E+03</pdfrwt>
<totfact> 0.10390186E+04</totfact>
</mgrwt>
</event>
<event>
 5    1  0.3212987E-002  0.1249962E+03  0.7818608E-02  0.1235075E+00
          4   -1    0    0  501    0  0.00000000000E+00  0.00000000000E+00  0.19319408399E+03  0.19319825825E+03  0.12700000000E+01 0.  1.
         -4   -1    0    0    0  501 -0.00000000000E+00 -0.00000000000E+00 -0.20193721702E+02  0.20233617971E+02  0.12700000000E+01 0.  1.
         25    2    1    2    0    0  0.00000000000E+00  0.00000000000E+00  0.17300036229E+03  0.21343187622E+03  0.12499616167E+03 0.  0.
    9000005    1    3    3    0    0  0.48337568650E+02  0.82881955707E+01  0.15262714922E+03  0.16031612959E+03  0.10000000000E+01 0.  0.
    9000005    1    3    3    0    0 -0.48337568650E+02 -0.82881955707E+01  0.20373213072E+02  0.53115746627E+02  0.10000000000E+01 0.  0.
<mgrwt>
<rscale>  0 0.12499616E+03</rscale>
<asrwt>0</asrwt>
<pdfrwt beam="1">  1        4 0.29725557E-01 0.12499616E+03</pdfrwt>
<pdfrwt beam="2">  1       -4 0.31101164E-02 0.12499616E+03</pdfrwt>
<totfact> 0.87926001E+03</totfact>
</mgrwt>
</event>
<event>
 5    1  0.3212987E-002  0.1250011E+03  0.7818608E-02  0.1235068E+00
         -4   -1    0    0    0  501 -0.00000000000E+00  0.00000000000E+00  0.15981221982E+03  0.15981726597E+03  0.12700000000E+01 0.  1.
          4   -1    0    0  501    0  0.00000000000E+00 -0.00000000000E+00 -0.24421255005E+02  0.24454255172E+02  0.12700000000E+01 0.  1.
         25    2    1    2    0    0  0.00000000000E+00  0.00000000000E+00  0.13539096481E+03  0.18427152114E+03  0.12500112060E+03 0.  0.
    9000005    1    3    3    0    0 -0.31609682653E+02  0.47894532815E+02  0.31219006725E+02  0.65335171936E+02  0.10000000000E+01 0.  0.
    9000005    1    3    3    0    0  0.31609682653E+02 -0.47894532815E+02  0.10417195809E+03  0.11893634921E+03  0.10000000000E+01 0.  0.
<mgrwt>
<rscale>  0 0.12500112E+03</rscale>
<asrwt>0</asrwt>
<pdfrwt beam="2">  1        4 0.37600427E-02 0.12500112E+03</pdfrwt>
<pdfrwt beam="1">  1       -4 0.24589423E-01 0.12500112E+03</pdfrwt>
<totfact> 0.92851384E+03</totfact>
</mgrwt>
</event>
<event>
 5    1  0.3212987E-002  0.1249995E+03  0.7818608E-02  0.1235070E+00
         -4   -1    0    0    0  501 -0.00000000000E+00  0.00000000000E+00  0.62427743702E+02  0.62440660500E+02  0.12700000000E+01 0.  1.
          4   -1    0    0  501    0  0.00000000000E+00 -0.00000000000E+00 -0.62545982872E+02  0.62558875257E+02  0.12700000000E+01 0.  1.
         25    2    1    2    0    0  0.00000000000E+00  0.00000000000E+00 -0.11823917013E+00  0.12499953576E+03  0.12499947983E+03 0.  0.
    9000005    1    3    3    0    0 -0.53810348380E+02 -0.20988846144E+02 -0.23915622760E+02  0.62522334147E+02  0.10000000000E+01 0.  0.
    9000005    1    3    3    0    0  0.53810348380E+02  0.20988846144E+02  0.23797383590E+02  0.62477201609E+02  0.10000000000E+01 0.  0.
<mgrwt>
<rscale>  0 0.12499948E+03</rscale>
<asrwt>0</asrwt>
<pdfrwt beam="2">  1        4 0.96244443E-02 0.12499948E+03</pdfrwt>
<pdfrwt beam="1">  1       -4 0.96062535E-02 0.12499948E+03</pdfrwt>
<totfact> 0.10452995E+04</totfact>
</mgrwt>
</event>
<event>
 5    1  0.3212987E-002  0.1250007E+03  0.7818608E-02  0.1235068E+00
          4   -1    0    0  501    0  0.00000000000E+00  0.00000000000E+00  0.29424155970E+03  0.29424430046E+03  0.12700000000E+01 0.  1.
         -4   -1    0    0    0  501 -0.00000000000E+00 -0.00000000000E+00 -0.13242629252E+02  0.13303387896E+02  0.12700000000E+01 0.  1.
         25    2    1    2    0    0  0.00000000000E+00  0.00000000000E+00  0.28099893045E+03  0.30754768836E+03  0.12500072681E+03 0.  0.
    9000005    1    3    3    0    0  0.18869809215E+02  0.21336257376E+01 -0.59838093773E+01  0.19935597138E+02  0.10000000000E+01 0.  0.
    9000005    1    3    3    0    0 -0.18869809215E+02 -0.21336257376E+01  0.28698273983E+03  0.28761209122E+03  0.10000000000E+01 0.  0.
<mgrwt>
<rscale>  0 0.12500073E+03</rscale>
<asrwt>0</asrwt>
<pdfrwt beam="1">  1        4 0.45272814E-01 0.12500073E+03</pdfrwt>
<pdfrwt beam="2">  1       -4 0.20422123E-02 0.12500073E+03</pdfrwt>
<totfact> 0.74660517E+03</totfact>
</mgrwt>
</event>
<event>
 5    1  0.3212987E-002  0.1250249E+03  0.7818608E-02  0.1235030E+00
         -4   -1    0    0    0  501 -0.00000000000E+00  0.00000000000E+00  0.13106606817E+04  0.13106612970E+04  0.12700000000E+01 0. -1.
          4   -1    0    0  501    0  0.00000000000E+00 -0.00000000000E+00 -0.28456715306E+01  0.31162070631E+01  0.12700000000E+01 0. -1.
         25    2    1    2    0    0  0.00000000000E+00  0.00000000000E+00  0.13078150101E+04  0.13137775040E+04  0.12502491495E+03 0.  0.
    9000005    1    3    3    0    0 -0.18013274402E+02  0.37663860411E+01  0.12815992495E+04  0.12817317582E+04  0.10000000000E+01 0.  0.
    9000005    1    3    3    0    0  0.18013274402E+02 -0.37663860411E+01  0.26215760627E+02  0.32045745798E+02  0.10000000000E+01 0.  0.
<mgrwt>
<rscale>  0 0.12502491E+03</rscale>
<asrwt>0</asrwt>
<pdfrwt beam="2">  1        4 0.45865373E-03 0.12502491E+03</pdfrwt>
<pdfrwt beam="1">  1       -4 0.20166081E+00 0.12502491E+03</pdfrwt>
<totfact> 0.21893777E+03</totfact>
</mgrwt>
</event>
<event>
 5    1  0.3212987E-002  0.1249964E+03  0.7818608E-02  0.1235075E+00
          4   -1    0    0  501    0  0.00000000000E+00  0.00000000000E+00  0.44085733157E+03  0.44085916084E+03  0.12700000000E+01 0.  1.
         -4   -1    0    0    0  501 -0.00000000000E+00 -0.00000000000E+00 -0.88127044701E+01  0.89037441606E+01  0.12700000000E+01 0.  1.
         25    2    1    2    0    0  0.00000000000E+00  0.00000000000E+00  0.43204462710E+03  0.44976290500E+03  0.12499644359E+03 0.  0.
    9000005    1    3    3    0    0  0.19360333941E+02  0.46905893168E+02  0.84796668265E+02  0.98825403076E+02  0.10000000000E+01 0.  0.
    9000005    1    3    3    0    0 -0.19360333941E+02 -0.46905893168E+02  0.34724795883E+03  0.35093750193E+03  0.10000000000E+01 0.  0.
<mgrwt>
<rscale>  0 0.12499644E+03</rscale>
<asrwt>0</asrwt>
<pdfrwt beam="1">  1        4 0.67831358E-01 0.12499644E+03</pdfrwt>
<pdfrwt beam="2">  1       -4 0.13629443E-02 0.12499644E+03</pdfrwt>
<totfact> 0.59989032E+03</totfact>
</mgrwt>
</event>
<event>
 5    1  0.3212987E-002  0.1250009E+03  0.7818608E-02  0.1235068E+00
         -4   -1    0    0    0  501 -0.00000000000E+00  0.00000000000E+00  0.11809248848E+03  0.11809931725E+03  0.12700000000E+01 0. -1.
          4   -1    0    0  501    0  0.00000000000E+00 -0.00000000000E+00 -0.33058378672E+02  0.33082764402E+02  0.12700000000E+01 0. -1.
         25    2    1    2    0    0  0.00000000000E+00  0.00000000000E+00  0.85034109809E+02  0.15118208166E+03  0.12500088793E+03 0.  0.
    9000005    1    3    3    0    0  0.42748224409E+02  0.21099510266E+02  0.91386920781E+02  0.10307846193E+03  0.10000000000E+01 0.  0.
    9000005    1    3    3    0    0 -0.42748224409E+02 -0.21099510266E+02 -0.63528109717E+01  0.48103619727E+02  0.10000000000E+01 0.  0.
<mgrwt>
<rscale>  0 0.12500089E+03</rscale>
<asrwt>0</asrwt>
<pdfrwt beam="2">  1        4 0.50883055E-02 0.12500089E+03</pdfrwt>
<pdfrwt beam="1">  1       -4 0.18170477E-01 0.12500089E+03</pdfrwt>
<totfact> 0.99066608E+03</totfact>
</mgrwt>
</event>
<event>
 5    1  0.3212987E-002  0.1250010E+03  0.7818608E-02  0.1235068E+00
         -4   -1    0    0    0  501 -0.00000000000E+00  0.00000000000E+00  0.12660214116E+02  0.12723754220E+02  0.12700000000E+01 0. -1.
          4   -1    0    0  501    0  0.00000000000E+00 -0.00000000000E+00 -0.30771297504E+03  0.30771559582E+03  0.12700000000E+01 0. -1.
         25    2    1    2    0    0  0.00000000000E+00  0.00000000000E+00 -0.29505276093E+03  0.32043935004E+03  0.12500098129E+03 0.  0.
    9000005    1    3    3    0    0 -0.44456378282E+02 -0.78097807355E+01 -0.25832004757E+03  0.26223578936E+03  0.10000000000E+01 0.  0.
    9000005    1    3    3    0    0  0.44456378282E+02  0.78097807355E+01 -0.36732713358E+02  0.58203560679E+02  0.10000000000E+01 0.  0.
<mgrwt>
<rscale>  0 0.12500098E+03</rscale>
<asrwt>0</asrwt>
<pdfrwt beam="2">  1        4 0.47345541E-01 0.12500098E+03</pdfrwt>
<pdfrwt beam="1">  1       -4 0.19528148E-02 0.12500098E+03</pdfrwt>
<totfact> 0.73102313E+03</totfact>
</mgrwt>
</event>
<event>
 4    1  0.3212987E-002  0.1250741E+03  0.7818608E-02  0.1234954E+00
          4   -1    0    0  501    0  0.00000000000E+00  0.00000000000E+00  0.71036416573E+03  0.71036530099E+03  0.12700000000E+01 0.  1.
         -4   -1    0    0    0  501 -0.00000000000E+00 -0.00000000000E+00 -0.54310632106E+01  0.55775754229E+01  0.12700000000E+01 0.  1.
    9000005    1    1    2    0    0 -0.57254747583E+02 -0.23167982039E+02  0.40826434227E+03  0.41291117045E+03  0.10000000000E+01 0.  0.
    9000005    1    1    2    0    0  0.57254747583E+02  0.23167982039E+02  0.29666876025E+03  0.30303170596E+03  0.10000000000E+01 0.  0.
<mgrwt>
<rscale>  0 0.12507407E+03</rscale>
<asrwt>0</asrwt>
<pdfrwt beam="1">  1        4 0.10929811E+00 0.12507407E+03</pdfrwt>
<pdfrwt beam="2">  1       -4 0.84690603E-03 0.12507407E+03</pdfrwt>
<totfact> 0.42189968E+03</totfact>
</mgrwt>
</event>
<event>
 5    1  0.3212987E-002  0.1250022E+03  0.7818608E-02  0.1235066E+00
         -4   -1    0    0    0  501 -0.00000000000E+00  0.00000000000E+00  0.12153361857E+03  0.12154025401E+03  0.12700000000E+01 0.  1.
          4   -1    0    0  501    0  0.00000000000E+00 -0.00000000000E+00 -0.32122359097E+02  0.32147454859E+02  0.12700000000E+01 0.  1.
         25    2    1    2    0    0  0.00000000000E+00  0.00000000000E+00  0.89411259477E+02  0.15368770886E+03  0.12500215412E+03 0.  0.
    9000005    1    3    3    0    0  0.39255039011E+02 -0.29044560489E+02 -0.32415878521E+01  0.48949489002E+02  0.10000000000E+01 0.  0.
    9000005    1    3    3    0    0 -0.39255039011E+02  0.29044560489E+02  0.92652847329E+02  0.10473821986E+03  0.10000000000E+01 0.  0.
<mgrwt>
<rscale>  0 0.12500215E+03</rscale>
<asrwt>0</asrwt>
<pdfrwt beam="2">  1        4 0.49443423E-02 0.12500215E+03</pdfrwt>
<pdfrwt beam="1">  1       -4 0.18699921E-01 0.12500215E+03</pdfrwt>
<totfact> 0.98568846E+03</totfact>
</mgrwt>
</event>
<event>
 5    1  0.3212987E-002  0.1250005E+03  0.7818608E-02  0.1235069E+00
          4   -1    0    0  501    0  0.00000000000E+00  0.00000000000E+00  0.12242434987E+03  0.12243093702E+03  0.12700000000E+01 0.  1.
         -4   -1    0    0    0  501 -0.00000000000E+00 -0.00000000000E+00 -0.31887616728E+02  0.31912897089E+02  0.12700000000E+01 0.  1.
         25    2    1    2    0    0  0.00000000000E+00  0.00000000000E+00  0.90536733139E+02  0.15434383411E+03  0.12500047632E+03 0.  0.
    9000005    1    3    3    0    0 -0.41451446028E+02 -0.29507106387E+02  0.46923609578E+00  0.50893141853E+02  0.10000000000E+01 0.  0.
    9000005    1    3    3    0    0  0.41451446028E+02  0.29507106387E+02  0.90067497043E+02  0.10345069226E+03  0.10000000000E+01 0.  0.
<mgrwt>
<rscale>  0 0.12500048E+03</rscale>
<asrwt>0</asrwt>
<pdfrwt beam="1">  1        4 0.18836967E-01 0.12500048E+03</pdfrwt>
<pdfrwt beam="2">  1       -4 0.49082385E-02 0.12500048E+03</pdfrwt>
<totfact> 0.98443411E+03</totfact>
</mgrwt>
</event>
<event>
 5    1  0.3212987E-002  0.1250008E+03  0.7818608E-02  0.1235068E+00
         -4   -1    0    0    0  501 -0.00000000000E+00  0.00000000000E+00  0.70893976288E+02  0.70905350813E+02  0.12700000000E+01 0. -1.
          4   -1    0    0  501    0  0.00000000000E+00 -0.00000000000E+00 -0.55077456936E+02  0.55092097097E+02  0.12700000000E+01 0. -1.
         25    2    1    2    0    0  0.00000000000E+00  0.00000000000E+00  0.15816519352E+02  0.12599744791E+03  0.12500077838E+03 0.  0.
    9000005    1    3    3    0    0 -0.33431633857E+02  0.96506737626E+01 -0.44414089992E+02  0.56430674603E+02  0.10000000000E+01 0.  0.
    9000005    1    3    3    0    0  0.33431633857E+02 -0.96506737626E+01  0.60230609344E+02  0.69566773307E+02  0.10000000000E+01 0.  0.
<mgrwt>
<rscale>  0 0.12500078E+03</rscale>
<asrwt>0</asrwt>
<pdfrwt beam="2">  1        4 0.84754560E-02 0.12500078E+03</pdfrwt>
<pdfrwt beam="1">  1       -4 0.10908767E-01 0.12500078E+03</pdfrwt>
<totfact> 0.10430830E+04</totfact>
</mgrwt>
</event>
<event>
 5    1  0.3212987E-002  0.1250187E+03  0.7818608E-02  0.1235040E+00
          4   -1    0    0  501    0  0.00000000000E+00  0.00000000000E+00  0.10176258775E+02  0.10255200761E+02  0.12700000000E+01 0.  1.
         -4   -1    0    0    0  501 -0.00000000000E+00 -0.00000000000E+00 -0.38241048726E+03  0.38241259611E+03  0.12700000000E+01 0.  1.
         25    2    1    2    0    0  0.00000000000E+00  0.00000000000E+00 -0.37223422848E+03  0.39266779687E+03  0.12501870999E+03 0.  0.
    9000005    1    3    3    0    0 -0.44630387295E+02  0.42586588895E+02 -0.21767161772E+03  0.22624637497E+03  0.10000000000E+01 0.  0.
    9000005    1    3    3    0    0  0.44630387295E+02 -0.42586588895E+02 -0.15456261076E+03  0.16642142190E+03  0.10000000000E+01 0.  0.
<mgrwt>
<rscale>  0 0.12501871E+03</rscale>
<asrwt>0</asrwt>
<pdfrwt beam="1">  1        4 0.15718132E-02 0.12501871E+03</pdfrwt>
<pdfrwt beam="2">  1       -4 0.58838606E-01 0.12501871E+03</pdfrwt>
<totfact> 0.65245255E+03</totfact>
</mgrwt>
</event>
<event>
 5    1  0.3212987E-002  0.1250001E+03  0.7818608E-02  0.1235069E+00
          4   -1    0    0  501    0  0.00000000000E+00  0.00000000000E+00  0.76039328522E+01  0.77092603290E+01  0.12700000000E+01 0.  1.
         -4   -1    0    0    0  501 -0.00000000000E+00 -0.00000000000E+00 -0.51007557977E+03  0.51007716081E+03  0.12700000000E+01 0.  1.
         25    2    1    2    0    0  0.00000000000E+00  0.00000000000E+00 -0.50247164692E+03  0.51778642113E+03  0.12500008783E+03 0.  0.
    9000005    1    3    3    0    0 -0.13985495255E+02 -0.59529728388E+02 -0.19788661355E+03  0.20712193139E+03  0.10000000000E+01 0.  0.
    9000005    1    3    3    0    0  0.13985495255E+02  0.59529728388E+02 -0.30458503336E+03  0.31066448974E+03  0.10000000000E+01 0.  0.
<mgrwt>
<rscale>  0 0.12500009E+03</rscale>
<asrwt>0</asrwt>
<pdfrwt beam="1">  1        4 0.11780600E-02 0.12500009E+03</pdfrwt>
<pdfrwt beam="2">  1       -4 0.78481363E-01 0.12500009E+03</pdfrwt>
<totfact> 0.54510199E+03</totfact>
</mgrwt>
</event>
<event>
 5    1  0.3212987E-002  0.1249988E+03  0.7818608E-02  0.1235071E+00
         -4   -1    0    0    0  501 -0.00000000000E+00  0.00000000000E+00  0.50050834661E+02  0.50066944687E+02  0.12700000000E+01 0.  1.
          4   -1    0    0  501    0  0.00000000000E+00 -0.00000000000E+00 -0.78010352141E+02  0.78020689187E+02  0.12700000000E+01 0.  1.
         25    2    1    2    0    0  0.00000000000E+00  0.00000000000E+00 -0.27959517480E+02  0.12808763387E+03  0.12499882933E+03 0.  0.
    9000005    1    3    3    0    0  0.29883105228E+02  0.52811112324E+02  0.13280355041E+01  0.60702366027E+02  0.10000000000E+01 0.  0.
    9000005    1    3    3    0    0 -0.29883105228E+02 -0.52811112324E+02 -0.29287552984E+02  0.67385267846E+02  0.10000000000E+01 0.  0.
<mgrwt>
<rscale>  0 0.12499883E+03</rscale>
<asrwt>0</asrwt>
<pdfrwt beam="2">  1        4 0.12003627E-01 0.12499883E+03</pdfrwt>
<pdfrwt beam="1">  1       -4 0.77021628E-02 0.12499883E+03</pdfrwt>
<totfact> 0.10385870E+04</totfact>
</mgrwt>
</event>
<event>
 5    1  0.3212987E-002  0.1249962E+03  0.7818608E-02  0.1235075E+00
         -4   -1    0    0    0  501 -0.00000000000E+00  0.00000000000E+00  0.52002025975E+02  0.52017531713E+02  0.12700000000E+01 0. -1.
          4   -1    0    0  501    0  0.00000000000E+00 -0.00000000000E+00 -0.75080674699E+02  0.75091415044E+02  0.12700000000E+01 0. -1.
         25    2    1    2    0    0  0.00000000000E+00  0.00000000000E+00 -0.23078648724E+02  0.12710894676E+03  0.12499624122E+03 0.  0.
    9000005    1    3    3    0    0  0.38008467908E+02  0.48226825269E+02 -0.23334721814E+02  0.65696115185E+02  0.10000000000E+01 0.  0.
    9000005    1    3    3    0    0 -0.38008467908E+02 -0.48226825269E+02  0.25607308964E+00  0.61412831572E+02  0.10000000000E+01 0.  0.
<mgrwt>
<rscale>  0 0.12499624E+03</rscale>
<asrwt>0</asrwt>
<pdfrwt beam="2">  1        4 0.11552892E-01 0.12499624E+03</pdfrwt>
<pdfrwt beam="1">  1       -4 0.80023307E-02 0.12499624E+03</pdfrwt>
<totfact> 0.10407663E+04</totfact>
</mgrwt>
</event>
<event>
 5    1  0.3212987E-002  0.1249942E+03  0.7818608E-02  0.1235078E+00
         -4   -1    0    0    0  501 -0.00000000000E+00  0.00000000000E+00  0.72290423299E+02  0.72301578135E+02  0.12700000000E+01 0.  1.
          4   -1    0    0  501    0  0.00000000000E+00 -0.00000000000E+00 -0.54007715444E+02  0.54022645507E+02  0.12700000000E+01 0.  1.
         25    2    1    2    0    0  0.00000000000E+00  0.00000000000E+00  0.18282707855E+02  0.12632422364E+03  0.12499420815E+03 0.  0.
    9000005    1    3    3    0    0  0.10640233684E+01 -0.30900363819E+02  0.64023172424E+02  0.71105071810E+02  0.10000000000E+01 0.  0.
    9000005    1    3    3    0    0 -0.10640233684E+01  0.30900363819E+02 -0.45740464569E+02  0.55219151831E+02  0.10000000000E+01 0.  0.
<mgrwt>
<rscale>  0 0.12499421E+03</rscale>
<asrwt>0</asrwt>
<pdfrwt beam="2">  1        4 0.83108859E-02 0.12499421E+03</pdfrwt>
<pdfrwt beam="1">  1       -4 0.11123610E-01 0.12499421E+03</pdfrwt>
<totfact> 0.10425227E+04</totfact>
</mgrwt>
</event>
<event>
 5    1  0.3212987E-002  0.1250085E+03  0.7818608E-02  0.1235056E+00
          4   -1    0    0  501    0  0.00000000000E+00  0.00000000000E+00  0.18806383107E+02  0.18849216047E+02  0.12700000000E+01 0. -1.
         -4   -1    0    0    0  501 -0.00000000000E+00 -0.00000000000E+00 -0.20745593744E+03  0.20745982474E+03  0.12700000000E+01 0. -1.
         25    2    1    2    0    0  0.00000000000E+00  0.00000000000E+00 -0.18864955433E+03  0.22630904078E+03  0.12500851007E+03 0.  0.
    9000005    1    3    3    0    0  0.57696137266E+02  0.13399137934E+02 -0.13041392798E+03  0.14323817146E+03  0.10000000000E+01 0.  0.
    9000005    1    3    3    0    0 -0.57696137266E+02 -0.13399137934E+02 -0.58235626354E+02  0.83070869321E+02  0.10000000000E+01 0.  0.
<mgrwt>
<rscale>  0 0.12500851E+03</rscale>
<asrwt>0</asrwt>
<pdfrwt beam="1">  1        4 0.28968837E-02 0.12500851E+03</pdfrwt>
<pdfrwt beam="2">  1       -4 0.31919890E-01 0.12500851E+03</pdfrwt>
<totfact> 0.85863280E+03</totfact>
</mgrwt>
</event>
<event>
 5    1  0.3212987E-002  0.1250005E+03  0.7818608E-02  0.1235069E+00
          4   -1    0    0  501    0  0.00000000000E+00  0.00000000000E+00  0.52985504263E+01  0.54486270399E+01  0.12700000000E+01 0.  1.
         -4   -1    0    0    0  501 -0.00000000000E+00 -0.00000000000E+00 -0.72678994922E+03  0.72679105882E+03  0.12700000000E+01 0.  1.
         25    2    1    2    0    0  0.00000000000E+00  0.00000000000E+00 -0.72149139879E+03  0.73223968586E+03  0.12500047608E+03 0.  0.
    9000005    1    3    3    0    0  0.50021219636E+02  0.15164346584E+02 -0.16010103704E+03  0.16842037253E+03  0.10000000000E+01 0.  0.
    9000005    1    3    3    0    0 -0.50021219636E+02 -0.15164346584E+02 -0.56139036175E+03  0.56381931333E+03  0.10000000000E+01 0.  0.
<mgrwt>
<rscale>  0 0.12500048E+03</rscale>
<asrwt>0</asrwt>
<pdfrwt beam="1">  1        4 0.82679189E-03 0.12500048E+03</pdfrwt>
<pdfrwt beam="2">  1       -4 0.11182539E+00 0.12500048E+03</pdfrwt>
<totfact> 0.41437952E+03</totfact>
</mgrwt>
</event>
<event>
 5    1  0.3212987E-002  0.1249995E+03  0.7818608E-02  0.1235070E+00
         -4   -1    0    0    0  501 -0.00000000000E+00  0.00000000000E+00  0.60541618944E+02  0.60554938068E+02  0.12700000000E+01 0.  1.
          4   -1    0    0  501    0  0.00000000000E+00 -0.00000000000E+00 -0.64494498843E+02  0.64507001798E+02  0.12700000000E+01 0.  1.
         25    2    1    2    0    0  0.00000000000E+00  0.00000000000E+00 -0.39528798987E+01  0.12506193987E+03  0.12499945417E+03 0.  0.
    9000005    1    3    3    0    0  0.37088373199E+02  0.18873865557E+02 -0.48619972824E+02  0.64005249668E+02  0.10000000000E+01 0.  0.
    9000005    1    3    3    0    0 -0.37088373199E+02 -0.18873865557E+02  0.44667092925E+02  0.61056690199E+02  0.10000000000E+01 0.  0.
<mgrwt>
<rscale>  0 0.12499945E+03</rscale>
<asrwt>0</asrwt>
<pdfrwt beam="2">  1        4 0.99242168E-02 0.12499945E+03</pdfrwt>
<pdfrwt beam="1">  1       -4 0.93160816E-02 0.12499945E+03</pdfrwt>
<totfact> 0.10451646E+04</totfact>
</mgrwt>
</event>
<event>
 5    1  0.3212987E-002  0.1249940E+03  0.7818608E-02  0.1235079E+00
         -4   -1    0    0    0  501 -0.00000000000E+00  0.00000000000E+00  0.38255646191E+03  0.38255856996E+03  0.12700000000E+01 0. -1.
          4   -1    0    0  501    0  0.00000000000E+00 -0.00000000000E+00 -0.10168286217E+02  0.10247289621E+02  0.12700000000E+01 0. -1.
         25    2    1    2    0    0  0.00000000000E+00  0.00000000000E+00  0.37238817569E+03  0.39280585958E+03  0.12499395955E+03 0.  0.
    9000005    1    3    3    0    0 -0.19279336527E+02 -0.40347940432E+02  0.49023221522E+02  0.66362077743E+02  0.10000000000E+01 0.  0.
    9000005    1    3    3    0    0  0.19279336527E+02  0.40347940432E+02  0.32336495417E+03  0.32644378184E+03  0.10000000000E+01 0.  0.
<mgrwt>
<rscale>  0 0.12499396E+03</rscale>
<asrwt>0</asrwt>
<pdfrwt beam="2">  1        4 0.15705910E-02 0.12499396E+03</pdfrwt>
<pdfrwt beam="1">  1       -4 0.58861083E-01 0.12499396E+03</pdfrwt>
<totfact> 0.65267251E+03</totfact>
</mgrwt>
</event>
<event>
 5    1  0.3212987E-002  0.1250176E+03  0.7818608E-02  0.1235042E+00
         -4   -1    0    0    0  501 -0.00000000000E+00  0.00000000000E+00  0.80024850881E+02  0.80034927741E+02  0.12700000000E+01 0.  1.
          4   -1    0    0  501    0  0.00000000000E+00 -0.00000000000E+00 -0.48805300408E+02  0.48821821431E+02  0.12700000000E+01 0.  1.
         25    2    1    2    0    0  0.00000000000E+00  0.00000000000E+00  0.31219550473E+02  0.12885674917E+03  0.12501760466E+03 0.  0.
    9000005    1    3    3    0    0 -0.28353797049E+02 -0.24824341534E+02  0.67002416561E+02  0.76879838480E+02  0.10000000000E+01 0.  0.
    9000005    1    3    3    0    0  0.28353797049E+02  0.24824341534E+02 -0.35782866088E+02  0.51976910692E+02  0.10000000000E+01 0.  0.
<mgrwt>
<rscale>  0 0.12501760E+03</rscale>
<asrwt>0</asrwt>
<pdfrwt beam="2">  1        4 0.75105538E-02 0.12501760E+03</pdfrwt>
<pdfrwt beam="1">  1       -4 0.12313561E-01 0.12501760E+03</pdfrwt>
<totfact> 0.10364906E+04</totfact>
</mgrwt>
</event>
<event>
 5    1  0.3212987E-002  0.1249891E+03  0.7818608E-02  0.1235086E+00
          4   -1    0    0  501    0  0.00000000000E+00  0.00000000000E+00  0.68959521196E+01  0.70119223923E+01  0.12700000000E+01 0. -1.
         -4   -1    0    0    0  501 -0.00000000000E+00 -0.00000000000E+00 -0.56151768398E+03  0.56151912018E+03  0.12700000000E+01 0. -1.
         25    2    1    2    0    0  0.00000000000E+00  0.00000000000E+00 -0.55462173186E+03  0.56853104257E+03  0.12498912317E+03 0.  0.
    9000005    1    3    3    0    0 -0.33652449900E+02  0.80556888088E+01 -0.51397978506E+03  0.51514425257E+03  0.10000000000E+01 0.  0.
    9000005    1    3    3    0    0  0.33652449900E+02 -0.80556888088E+01 -0.40641946801E+02  0.53386789997E+02  0.10000000000E+01 0.  0.
<mgrwt>
<rscale>  0 0.12498912E+03</rscale>
<asrwt>0</asrwt>
<pdfrwt beam="1">  1        4 0.10699474E-02 0.12498912E+03</pdfrwt>
<pdfrwt beam="2">  1       -4 0.86396331E-01 0.12498912E+03</pdfrwt>
<totfact> 0.50928414E+03</totfact>
</mgrwt>
</event>
<event>
 5    1  0.3212987E-002  0.1249993E+03  0.7818608E-02  0.1235070E+00
          4   -1    0    0  501    0  0.00000000000E+00  0.00000000000E+00  0.27067357861E+01  0.29898693309E+01  0.12700000000E+01 0. -1.
         -4   -1    0    0    0  501 -0.00000000000E+00 -0.00000000000E+00 -0.13711326265E+04  0.13711332147E+04  0.12700000000E+01 0. -1.
         25    2    1    2    0    0  0.00000000000E+00  0.00000000000E+00 -0.13684258907E+04  0.13741230840E+04  0.12499932636E+03 0.  0.
    9000005    1    3    3    0    0 -0.32993175225E+02  0.20704469486E+02 -0.12214099707E+04  0.12220313176E+04  0.10000000000E+01 0.  0.
    9000005    1    3    3    0    0  0.32993175225E+02 -0.20704469486E+02 -0.14701592007E+03  0.15209176645E+03  0.10000000000E+01 0.  0.
<mgrwt>
<rscale>  0 0.12499933E+03</rscale>
<asrwt>0</asrwt>
<pdfrwt beam="1">  1        4 0.43824673E-03 0.12499933E+03</pdfrwt>
<pdfrwt beam="2">  1       -4 0.21096478E+00 0.12499933E+03</pdfrwt>
<totfact> 0.20543489E+03</totfact>
</mgrwt>
</event>
<event>
 5    1  0.3212987E-002  0.1249896E+03  0.7818608E-02  0.1235086E+00
          4   -1    0    0  501    0  0.00000000000E+00  0.00000000000E+00  0.17065390658E+03  0.17065863216E+03  0.12700000000E+01 0. -1.
         -4   -1    0    0    0  501 -0.00000000000E+00 -0.00000000000E+00 -0.22863428547E+02  0.22898673868E+02  0.12700000000E+01 0. -1.
         25    2    1    2    0    0  0.00000000000E+00  0.00000000000E+00  0.14779047803E+03  0.19355730602E+03  0.12498962085E+03 0.  0.
    9000005    1    3    3    0    0  0.13838222200E+02  0.41412718930E+01 -0.20250126108E+02  0.24894058205E+02  0.10000000000E+01 0.  0.
    9000005    1    3    3    0    0 -0.13838222200E+02 -0.41412718930E+01  0.16804060414E+03  0.16866324782E+03  0.10000000000E+01 0.  0.
<mgrwt>
<rscale>  0 0.12498962E+03</rscale>
<asrwt>0</asrwt>
<pdfrwt beam="1">  1        4 0.26257522E-01 0.12498962E+03</pdfrwt>
<pdfrwt beam="2">  1       -4 0.35205252E-02 0.12498962E+03</pdfrwt>
<totfact> 0.91253219E+03</totfact>
</mgrwt>
</event>
<event>
 5    1  0.3212987E-002  0.1249837E+03  0.7818608E-02  0.1235095E+00
         -4   -1    0    0    0  501 -0.00000000000E+00  0.00000000000E+00  0.73390066343E+02  0.73401054065E+02  0.12700000000E+01 0. -1.
          4   -1    0    0  501    0  0.00000000000E+00 -0.00000000000E+00 -0.53189435741E+02  0.53204595426E+02  0.12700000000E+01 0. -1.
         25    2    1    2    0    0  0.00000000000E+00  0.00000000000E+00  0.20200630602E+02  0.12660564949E+03  0.12498369896E+03 0.  0.
    9000005    1    3    3    0    0 -0.16699174914E+02 -0.26665107149E+02  0.64785525421E+02  0.72028152039E+02  0.10000000000E+01 0.  0.
    9000005    1    3    3    0    0  0.16699174914E+02  0.26665107149E+02 -0.44584894819E+02  0.54577497452E+02  0.10000000000E+01 0.  0.
<mgrwt>
<rscale>  0 0.12498370E+03</rscale>
<asrwt>0</asrwt>
<pdfrwt beam="2">  1        4 0.81850015E-02 0.12498370E+03</pdfrwt>
<pdfrwt beam="1">  1       -4 0.11292791E-01 0.12498370E+03</pdfrwt>
<totfact> 0.10421559E+04</totfact>
</mgrwt>
</event>
<event>
 5    1  0.3212987E-002  0.1250004E+03  0.7818608E-02  0.1235069E+00
         -4   -1    0    0    0  501 -0.00000000000E+00  0.00000000000E+00  0.68844621631E+02  0.68856334694E+02  0.12700000000E+01 0. -1.
          4   -1    0    0  501    0  0.00000000000E+00 -0.00000000000E+00 -0.56716791167E+02  0.56731008278E+02  0.12700000000E+01 0. -1.
         25    2    1    2    0    0  0.00000000000E+00  0.00000000000E+00  0.12127830464E+02  0.12558734297E+03  0.12500038577E+03 0.  0.
    9000005    1    3    3    0    0  0.55510704044E+02  0.24763536448E+02 -0.85163998391E+01  0.61385666626E+02  0.10000000000E+01 0.  0.
    9000005    1    3    3    0    0 -0.55510704044E+02 -0.24763536448E+02  0.20644230303E+02  0.64201676346E+02  0.10000000000E+01 0.  0.
<mgrwt>
<rscale>  0 0.12500039E+03</rscale>
<asrwt>0</asrwt>
<pdfrwt beam="2">  1        4 0.87276548E-02 0.12500039E+03</pdfrwt>
<pdfrwt beam="1">  1       -4 0.10593475E-01 0.12500039E+03</pdfrwt>
<totfact> 0.10439935E+04</totfact>
</mgrwt>
</event>
<event>
 5    1  0.3212987E-002  0.1249965E+03  0.7818608E-02  0.1235075E+00
         -4   -1    0    0    0  501 -0.00000000000E+00  0.00000000000E+00  0.46072703147E+02  0.46090203680E+02  0.12700000000E+01 0. -1.
          4   -1    0    0  501    0  0.00000000000E+00 -0.00000000000E+00 -0.84741431131E+02  0.84750947193E+02  0.12700000000E+01 0. -1.
         25    2    1    2    0    0  0.00000000000E+00  0.00000000000E+00 -0.38668727984E+02  0.13084115087E+03  0.12499654490E+03 0.  0.
    9000005    1    3    3    0    0  0.13825863450E+02 -0.60189214134E+02 -0.29327372104E+02  0.68373904033E+02  0.10000000000E+01 0.  0.
    9000005    1    3    3    0    0 -0.13825863450E+02  0.60189214134E+02 -0.93413558792E+01  0.62467246840E+02  0.10000000000E+01 0.  0.
<mgrwt>
<rscale>  0 0.12499654E+03</rscale>
<asrwt>0</asrwt>
<pdfrwt beam="2">  1        4 0.13039221E-01 0.12499654E+03</pdfrwt>
<pdfrwt beam="1">  1       -4 0.70901864E-02 0.12499654E+03</pdfrwt>
<totfact> 0.10327301E+04</totfact>
</mgrwt>
</event>
<event>
 5    1  0.3212987E-002  0.1250028E+03  0.7818608E-02  0.1235065E+00
          4   -1    0    0  501    0  0.00000000000E+00  0.00000000000E+00  0.79438086852E+01  0.80446874661E+01  0.12700000000E+01 0.  1.
         -4   -1    0    0    0  501 -0.00000000000E+00 -0.00000000000E+00 -0.48855281911E+03  0.48855446980E+03  0.12700000000E+01 0.  1.
         25    2    1    2    0    0  0.00000000000E+00  0.00000000000E+00 -0.48060901043E+03  0.49659915727E+03  0.12500280835E+03 0.  0.
    9000005    1    3    3    0    0  0.33615659889E+02 -0.27986634485E+02 -0.41762071906E+03  0.41990633395E+03  0.10000000000E+01 0.  0.
    9000005    1    3    3    0    0 -0.33615659889E+02  0.27986634485E+02 -0.62988291363E+02  0.76692823318E+02  0.10000000000E+01 0.  0.
<mgrwt>
<rscale>  0 0.12500281E+03</rscale>
<asrwt>0</asrwt>
<pdfrwt beam="1">  1        4 0.12300117E-02 0.12500281E+03</pdfrwt>
<pdfrwt beam="2">  1       -4 0.75169836E-01 0.12500281E+03</pdfrwt>
<totfact> 0.56125742E+03</totfact>
</mgrwt>
</event>
<event>
 5    1  0.3212987E-002  0.1249998E+03  0.7818608E-02  0.1235070E+00
         -4   -1    0    0    0  501 -0.00000000000E+00  0.00000000000E+00  0.18180534205E+02  0.18224838106E+02  0.12700000000E+01 0. -1.
          4   -1    0    0  501    0  0.00000000000E+00 -0.00000000000E+00 -0.21455073368E+03  0.21455449243E+03  0.12700000000E+01 0. -1.
         25    2    1    2    0    0  0.00000000000E+00  0.00000000000E+00 -0.19637019948E+03  0.23277933054E+03  0.12499984593E+03 0.  0.
    9000005    1    3    3    0    0 -0.53844934771E+02  0.12856548364E+02 -0.15217945586E+03  0.16193873725E+03  0.10000000000E+01 0.  0.
    9000005    1    3    3    0    0  0.53844934771E+02 -0.12856548364E+02 -0.44190743620E+02  0.70840593292E+02  0.10000000000E+01 0.  0.
<mgrwt>
<rscale>  0 0.12499985E+03</rscale>
<asrwt>0</asrwt>
<pdfrwt beam="2">  1        4 0.33011500E-01 0.12499985E+03</pdfrwt>
<pdfrwt beam="1">  1       -4 0.28007025E-02 0.12499985E+03</pdfrwt>
<totfact> 0.84884940E+03</totfact>
</mgrwt>
</event>
<event>
 5    1  0.3212987E-002  0.1249980E+03  0.7818608E-02  0.1235072E+00
         -4   -1    0    0    0  501 -0.00000000000E+00  0.00000000000E+00  0.45463152904E+02  0.45480887986E+02  0.12700000000E+01 0. -1.
          4   -1    0    0  501    0  0.00000000000E+00 -0.00000000000E+00 -0.85879322923E+02  0.85888712912E+02  0.12700000000E+01 0. -1.
         25    2    1    2    0    0  0.00000000000E+00  0.00000000000E+00 -0.40416170019E+02  0.13136960090E+03  0.12499802095E+03 0.  0.
    9000005    1    3    3    0    0  0.11717684816E+02 -0.42812266489E+02 -0.66438160036E+02  0.79907592933E+02  0.10000000000E+01 0.  0.
    9000005    1    3    3    0    0 -0.11717684816E+02  0.42812266489E+02  0.26021990017E+02  0.51462007965E+02  0.10000000000E+01 0.  0.
<mgrwt>
<rscale>  0 0.12499802E+03</rscale>
<asrwt>0</asrwt>
<pdfrwt beam="2">  1        4 0.13214290E-01 0.12499802E+03</pdfrwt>
<pdfrwt beam="1">  1       -4 0.69964178E-02 0.12499802E+03</pdfrwt>
<totfact> 0.10315633E+04</totfact>
</mgrwt>
</event>
<event>
 5    1  0.3212987E-002  0.1250079E+03  0.7818608E-02  0.1235057E+00
         -4   -1    0    0    0  501 -0.00000000000E+00  0.00000000000E+00  0.37207013658E+01  0.39314779223E+01  0.12700000000E+01 0. -1.
          4   -1    0    0  501    0  0.00000000000E+00 -0.00000000000E+00 -0.10208693500E+04  0.10208701400E+04  0.12700000000E+01 0. -1.
         25    2    1    2    0    0  0.00000000000E+00  0.00000000000E+00 -0.10171486487E+04  0.10248016179E+04  0.12500793016E+03 0.  0.
    9000005    1    3    3    0    0 -0.47089780545E+02  0.10490116100E+02 -0.18289445209E+03  0.18915303480E+03  0.10000000000E+01 0.  0.
    9000005    1    3    3    0    0  0.47089780545E+02 -0.10490116100E+02 -0.83425419658E+03  0.83564858312E+03  0.10000000000E+01 0.  0.
<mgrwt>
<rscale>  0 0.12500793E+03</rscale>
<asrwt>0</asrwt>
<pdfrwt beam="2">  1        4 0.15707288E+00 0.12500793E+03</pdfrwt>
<pdfrwt beam="1">  1       -4 0.58869075E-03 0.12500793E+03</pdfrwt>
<totfact> 0.29789671E+03</totfact>
</mgrwt>
</event>
<event>
 5    1  0.3212987E-002  0.1249757E+03  0.7818608E-02  0.1235107E+00
         -4   -1    0    0    0  501 -0.00000000000E+00  0.00000000000E+00  0.27448620064E+02  0.27477984704E+02  0.12700000000E+01 0. -1.
          4   -1    0    0  501    0  0.00000000000E+00 -0.00000000000E+00 -0.14214770354E+03  0.14215337675E+03  0.12700000000E+01 0. -1.
         25    2    1    2    0    0  0.00000000000E+00  0.00000000000E+00 -0.11469908348E+03  0.16963136146E+03  0.12497567379E+03 0.  0.
    9000005    1    3    3    0    0  0.52599005037E+02  0.33502846478E+02 -0.52157264965E+02  0.81304835905E+02  0.10000000000E+01 0.  0.
    9000005    1    3    3    0    0 -0.52599005037E+02 -0.33502846478E+02 -0.62541818512E+02  0.88326525550E+02  0.10000000000E+01 0.  0.
<mgrwt>
<rscale>  0 0.12497567E+03</rscale>
<asrwt>0</asrwt>
<pdfrwt beam="2">  1        4 0.21871572E-01 0.12497567E+03</pdfrwt>
<pdfrwt beam="1">  1       -4 0.42255599E-02 0.12497567E+03</pdfrwt>
<totfact> 0.95569564E+03</totfact>
</mgrwt>
</event>
<event>
 5    1  0.3212987E-002  0.1249890E+03  0.7818608E-02  0.1235086E+00
         -4   -1    0    0    0  501 -0.00000000000E+00  0.00000000000E+00  0.31689512049E+02  0.31714950322E+02  0.12700000000E+01 0.  1.
          4   -1    0    0  501    0  0.00000000000E+00 -0.00000000000E+00 -0.12316649519E+03  0.12317304266E+03  0.12700000000E+01 0.  1.
         25    2    1    2    0    0  0.00000000000E+00  0.00000000000E+00 -0.91476983141E+02  0.15488799298E+03  0.12498900721E+03 0.  0.
    9000005    1    3    3    0    0  0.59627749001E+02 -0.15842293916E+02 -0.33463635386E+02  0.70194455769E+02  0.10000000000E+01 0.  0.
    9000005    1    3    3    0    0 -0.59627749001E+02  0.15842293916E+02 -0.58013347754E+02  0.84693537209E+02  0.10000000000E+01 0.  0.
<mgrwt>
<rscale>  0 0.12498901E+03</rscale>
<asrwt>0</asrwt>
<pdfrwt beam="2">  1        4 0.18951152E-01 0.12498901E+03</pdfrwt>
<pdfrwt beam="1">  1       -4 0.48777701E-02 0.12498901E+03</pdfrwt>
<totfact> 0.98361808E+03</totfact>
</mgrwt>
</event>
<event>
 5    1  0.3212987E-002  0.1250033E+03  0.7818608E-02  0.1235064E+00
          4   -1    0    0  501    0  0.00000000000E+00  0.00000000000E+00  0.14361963144E+03  0.14362524651E+03  0.12700000000E+01 0.  1.
         -4   -1    0    0    0  501 -0.00000000000E+00 -0.00000000000E+00 -0.27179060427E+02  0.27208715987E+02  0.12700000000E+01 0.  1.
         25    2    1    2    0    0  0.00000000000E+00  0.00000000000E+00  0.11644057101E+03  0.17083396250E+03  0.12500334461E+03 0.  0.
    9000005    1    3    3    0    0  0.52458353187E+02 -0.26675617750E+01  0.10449383946E+03  0.11695707413E+03  0.10000000000E+01 0.  0.
    9000005    1    3    3    0    0 -0.52458353187E+02  0.26675617750E+01  0.11946731554E+02  0.53876888364E+02  0.10000000000E+01 0.  0.
<mgrwt>
<rscale>  0 0.12500334E+03</rscale>
<asrwt>0</asrwt>
<pdfrwt beam="1">  1        4 0.22098042E-01 0.12500334E+03</pdfrwt>
<pdfrwt beam="2">  1       -4 0.41841069E-02 0.12500334E+03</pdfrwt>
<totfact> 0.95286272E+03</totfact>
</mgrwt>
</event>
<event>
 5    1  0.3212987E-002  0.1250003E+03  0.7818608E-02  0.1235069E+00
          4   -1    0    0  501    0  0.00000000000E+00  0.00000000000E+00  0.32037197828E+02  0.32062360248E+02  0.12700000000E+01 0. -1.
         -4   -1    0    0    0  501 -0.00000000000E+00 -0.00000000000E+00 -0.12185284574E+03  0.12185946379E+03  0.12700000000E+01 0. -1.
         25    2    1    2    0    0  0.00000000000E+00  0.00000000000E+00 -0.89815647910E+02  0.15392182403E+03  0.12500030922E+03 0.  0.
    9000005    1    3    3    0    0 -0.40947131362E+02  0.42306669029E+02 -0.70700502695E+02  0.92011319371E+02  0.10000000000E+01 0.  0.
    9000005    1    3    3    0    0  0.40947131362E+02 -0.42306669029E+02 -0.19115145214E+02  0.61910504663E+02  0.10000000000E+01 0.  0.
<mgrwt>
<rscale>  0 0.12500031E+03</rscale>
<asrwt>0</asrwt>
<pdfrwt beam="1">  1        4 0.49312444E-02 0.12500031E+03</pdfrwt>
<pdfrwt beam="2">  1       -4 0.18749036E-01 0.12500031E+03</pdfrwt>
<totfact> 0.98526890E+03</totfact>
</mgrwt>
</event>
<event>
 5    1  0.3212987E-002  0.1250004E+03  0.7818608E-02  0.1235069E+00
          4   -1    0    0  501    0  0.00000000000E+00  0.00000000000E+00  0.21584278969E+02  0.21621609529E+02  0.12700000000E+01 0. -1.
         -4   -1    0    0    0  501 -0.00000000000E+00 -0.00000000000E+00 -0.18078178386E+03  0.18078624471E+03  0.12700000000E+01 0. -1.
         25    2    1    2    0    0  0.00000000000E+00  0.00000000000E+00 -0.15919750489E+03  0.20240785424E+03  0.12500037557E+03 0.  0.
    9000005    1    3    3    0    0  0.12780438887E+01 -0.61023955724E+02 -0.57891217523E+02  0.84130551137E+02  0.10000000000E+01 0.  0.
    9000005    1    3    3    0    0 -0.12780438887E+01  0.61023955724E+02 -0.10130628737E+03  0.11827730310E+03  0.10000000000E+01 0.  0.
<mgrwt>
<rscale>  0 0.12500038E+03</rscale>
<asrwt>0</asrwt>
<pdfrwt beam="1">  1        4 0.33238731E-02 0.12500038E+03</pdfrwt>
<pdfrwt beam="2">  1       -4 0.27815796E-01 0.12500038E+03</pdfrwt>
<totfact> 0.89730232E+03</totfact>
</mgrwt>
</event>
<event>
 4    1  0.3212987E-002  0.1242015E+03  0.7818608E-02  0.1236322E+00
          4   -1    0    0  501    0  0.00000000000E+00  0.00000000000E+00  0.73187035601E+02  0.73198053800E+02  0.12700000000E+01 0. -1.
         -4   -1    0    0    0  501 -0.00000000000E+00 -0.00000000000E+00 -0.52671181827E+02  0.52686490631E+02  0.12700000000E+01 0. -1.
    9000005    1    1    2    0    0  0.46606147493E+02 -0.40991653109E+02  0.84861083295E+01  0.62653512618E+02  0.10000000000E+01 0.  0.
    9000005    1    1    2    0    0 -0.46606147493E+02  0.40991653109E+02  0.12029745445E+02  0.63231031814E+02  0.10000000000E+01 0.  0.
<mgrwt>
<rscale>  0 0.12420152E+03</rscale>
<asrwt>0</asrwt>
<pdfrwt beam="1">  1        4 0.11261569E-01 0.12420152E+03</pdfrwt>
<pdfrwt beam="2">  1       -4 0.81052839E-02 0.12420152E+03</pdfrwt>
<totfact> 0.10623767E+04</totfact>
</mgrwt>
</event>
<event>
 5    1  0.3212987E-002  0.1249983E+03  0.7818608E-02  0.1235072E+00
          4   -1    0    0  501    0  0.00000000000E+00  0.00000000000E+00  0.47624453832E+01  0.49288726935E+01  0.12700000000E+01 0. -1.
         -4   -1    0    0    0  501 -0.00000000000E+00 -0.00000000000E+00 -0.80594447399E+03  0.80594547462E+03  0.12700000000E+01 0. -1.
         25    2    1    2    0    0  0.00000000000E+00  0.00000000000E+00 -0.80118202861E+03  0.81087434731E+03  0.12499825664E+03 0.  0.
    9000005    1    3    3    0    0 -0.22504995033E+02 -0.35370255575E+01 -0.77807894152E+03  0.77841301671E+03  0.10000000000E+01 0.  0.
    9000005    1    3    3    0    0  0.22504995033E+02  0.35370255575E+01 -0.23103087089E+02  0.32461330599E+02  0.10000000000E+01 0.  0.
<mgrwt>
<rscale>  0 0.12499826E+03</rscale>
<asrwt>0</asrwt>
<pdfrwt beam="1">  1        4 0.74556362E-03 0.12499826E+03</pdfrwt>
<pdfrwt beam="2">  1       -4 0.12400423E+00 0.12499826E+03</pdfrwt>
<totfact> 0.37785322E+03</totfact>
</mgrwt>
</event>
<event>
 5    1  0.3212987E-002  0.1250008E+03  0.7818608E-02  0.1235068E+00
          4   -1    0    0  501    0  0.00000000000E+00  0.00000000000E+00  0.50643689110E+03  0.50643848350E+03  0.12700000000E+01 0. -1.
         -4   -1    0    0    0  501 -0.00000000000E+00 -0.00000000000E+00 -0.76594083323E+01  0.77639832561E+01  0.12700000000E+01 0. -1.
         25    2    1    2    0    0  0.00000000000E+00  0.00000000000E+00  0.49877748277E+03  0.51420246675E+03  0.12500079799E+03 0.  0.
    9000005    1    3    3    0    0 -0.53902734547E+02  0.13248252346E+02  0.36749106976E+03  0.37166074226E+03  0.10000000000E+01 0.  0.
    9000005    1    3    3    0    0  0.53902734547E+02 -0.13248252346E+02  0.13128641301E+03  0.14254172450E+03  0.10000000000E+01 0.  0.
<mgrwt>
<rscale>  0 0.12500080E+03</rscale>
<asrwt>0</asrwt>
<pdfrwt beam="1">  1        4 0.77921536E-01 0.12500080E+03</pdfrwt>
<pdfrwt beam="2">  1       -4 0.11865372E-02 0.12500080E+03</pdfrwt>
<totfact> 0.54778063E+03</totfact>
</mgrwt>
</event>
<event>
 5    1  0.3212987E-002  0.1250018E+03  0.7818608E-02  0.1235066E+00
          4   -1    0    0  501    0  0.00000000000E+00  0.00000000000E+00  0.75729781914E+02  0.75740430213E+02  0.12700000000E+01 0. -1.
         -4   -1    0    0    0  501 -0.00000000000E+00 -0.00000000000E+00 -0.51560837206E+02  0.51576475581E+02  0.12700000000E+01 0. -1.
         25    2    1    2    0    0  0.00000000000E+00  0.00000000000E+00  0.24168944709E+02  0.12731690579E+03  0.12500182644E+03 0.  0.
    9000005    1    3    3    0    0  0.54692536781E+02 -0.30041505453E+02  0.86157377292E+01  0.62999972746E+02  0.10000000000E+01 0.  0.
    9000005    1    3    3    0    0 -0.54692536781E+02  0.30041505453E+02  0.15553206979E+02  0.64316933048E+02  0.10000000000E+01 0.  0.
<mgrwt>
<rscale>  0 0.12500183E+03</rscale>
<asrwt>0</asrwt>
<pdfrwt beam="1">  1        4 0.11652758E-01 0.12500183E+03</pdfrwt>
<pdfrwt beam="2">  1       -4 0.79344586E-02 0.12500183E+03</pdfrwt>
<totfact> 0.10401839E+04</totfact>
</mgrwt>
</event>
<event>
 5    1  0.3212987E-002  0.1249999E+03  0.7818608E-02  0.1235069E+00
         -4   -1    0    0    0  501 -0.00000000000E+00  0.00000000000E+00  0.33136200033E+03  0.33136443406E+03  0.12700000000E+01 0. -1.
          4   -1    0    0  501    0  0.00000000000E+00 -0.00000000000E+00 -0.11751767055E+02  0.11820191577E+02  0.12700000000E+01 0. -1.
         25    2    1    2    0    0  0.00000000000E+00  0.00000000000E+00  0.31961023327E+03  0.34318462564E+03  0.12499994425E+03 0.  0.
    9000005    1    3    3    0    0  0.44933129122E+02 -0.22420599745E+02  0.57683027278E+02  0.76485299382E+02  0.10000000000E+01 0.  0.
    9000005    1    3    3    0    0 -0.44933129122E+02  0.22420599745E+02  0.26192720600E+03  0.26669932626E+03  0.10000000000E+01 0.  0.
<mgrwt>
<rscale>  0 0.12499994E+03</rscale>
<asrwt>0</asrwt>
<pdfrwt beam="2">  1        4 0.18134147E-02 0.12499994E+03</pdfrwt>
<pdfrwt beam="1">  1       -4 0.50984222E-01 0.12499994E+03</pdfrwt>
<totfact> 0.70480979E+03</totfact>
</mgrwt>
</event>
<event>
 5    1  0.3212987E-002  0.1250151E+03  0.7818608E-02  0.1235046E+00
         -4   -1    0    0    0  501 -0.00000000000E+00  0.00000000000E+00  0.59574574642E+03  0.59574710010E+03  0.12700000000E+01 0.  1.
          4   -1    0    0  501    0  0.00000000000E+00 -0.00000000000E+00 -0.64956334872E+01  0.66186217901E+01  0.12700000000E+01 0.  1.
         25    2    1    2    0    0  0.00000000000E+00  0.00000000000E+00  0.58925011293E+03  0.60236572189E+03  0.12501506836E+03 0.  0.
    9000005    1    3    3    0    0  0.22368154810E+00  0.21734826183E+02  0.57697098914E+03  0.57738113497E+03  0.10000000000E+01 0.  0.
    9000005    1    3    3    0    0 -0.22368154810E+00 -0.21734826183E+02  0.12279123787E+02  0.24984586921E+02  0.10000000000E+01 0.  0.
<mgrwt>
<rscale>  0 0.12501507E+03</rscale>
<asrwt>0</asrwt>
<pdfrwt beam="2">  1        4 0.10088932E-02 0.12501507E+03</pdfrwt>
<pdfrwt beam="1">  1       -4 0.91662739E-01 0.12501507E+03</pdfrwt>
<totfact> 0.48702533E+03</totfact>
</mgrwt>
</event>
<event>
 5    1  0.3212987E-002  0.1250025E+03  0.7818608E-02  0.1235065E+00
          4   -1    0    0  501    0  0.00000000000E+00  0.00000000000E+00  0.28082466588E+02  0.28111169127E+02  0.12700000000E+01 0. -1.
         -4   -1    0    0    0  501 -0.00000000000E+00 -0.00000000000E+00 -0.13900210466E+03  0.13900790625E+03  0.12700000000E+01 0. -1.
         25    2    1    2    0    0  0.00000000000E+00  0.00000000000E+00 -0.11091963807E+03  0.16711907537E+03  0.12500247695E+03 0.  0.
    9000005    1    3    3    0    0  0.44806933788E+02 -0.25159045325E+02 -0.79139833465E+01  0.52002596180E+02  0.10000000000E+01 0.  0.
    9000005    1    3    3    0    0 -0.44806933788E+02  0.25159045325E+02 -0.10300565472E+03  0.11511647919E+03  0.10000000000E+01 0.  0.
<mgrwt>
<rscale>  0 0.12500248E+03</rscale>
<asrwt>0</asrwt>
<pdfrwt beam="1">  1        4 0.43230337E-02 0.12500248E+03</pdfrwt>
<pdfrwt beam="2">  1       -4 0.21387593E-01 0.12500248E+03</pdfrwt>
<totfact> 0.95982232E+03</totfact>
</mgrwt>
</event>
<event>
 5    1  0.3212987E-002  0.1249993E+03  0.7818608E-02  0.1235070E+00
         -4   -1    0    0    0  501 -0.00000000000E+00  0.00000000000E+00  0.45683166539E+03  0.45683343069E+03  0.12700000000E+01 0. -1.
          4   -1    0    0  501    0  0.00000000000E+00 -0.00000000000E+00 -0.85016944757E+01  0.85960286736E+01  0.12700000000E+01 0. -1.
         25    2    1    2    0    0  0.00000000000E+00  0.00000000000E+00  0.44832997091E+03  0.46542945937E+03  0.12499927532E+03 0.  0.
    9000005    1    3    3    0    0 -0.44316613748E+02 -0.43721121837E+02  0.24445900904E+03  0.25226316785E+03  0.10000000000E+01 0.  0.
    9000005    1    3    3    0    0  0.44316613748E+02  0.43721121837E+02  0.20387096187E+03  0.21316629152E+03  0.10000000000E+01 0.  0.
<mgrwt>
<rscale>  0 0.12499928E+03</rscale>
<asrwt>0</asrwt>
<pdfrwt beam="2">  1        4 0.13153450E-02 0.12499928E+03</pdfrwt>
<pdfrwt beam="1">  1       -4 0.70289200E-01 0.12499928E+03</pdfrwt>
<totfact> 0.58650991E+03</totfact>
</mgrwt>
</event>
<event>
 5    1  0.3212987E-002  0.1249996E+03  0.7818608E-02  0.1235070E+00
          4   -1    0    0  501    0  0.00000000000E+00  0.00000000000E+00  0.66274027218E+03  0.66274148902E+03  0.12700000000E+01 0.  1.
         -4   -1    0    0    0  501 -0.00000000000E+00 -0.00000000000E+00 -0.58244003314E+01  0.59612531586E+01  0.12700000000E+01 0.  1.
         25    2    1    2    0    0  0.00000000000E+00  0.00000000000E+00  0.65691587184E+03  0.66870274217E+03  0.12499957884E+03 0.  0.
    9000005    1    3    3    0    0 -0.58329657785E+02  0.10280043124E+02  0.43507498721E+03  0.43908913988E+03  0.10000000000E+01 0.  0.
    9000005    1    3    3    0    0  0.58329657785E+02 -0.10280043124E+02  0.22184088464E+03  0.22961360230E+03  0.10000000000E+01 0.  0.
<mgrwt>
<rscale>  0 0.12499958E+03</rscale>
<asrwt>0</asrwt>
<pdfrwt beam="1">  1        4 0.10197066E+00 0.12499958E+03</pdfrwt>
<pdfrwt beam="2">  1       -4 0.90668235E-03 0.12499958E+03</pdfrwt>
<totfact> 0.44791510E+03</totfact>
</mgrwt>
</event>
<event>
 5    1  0.3212987E-002  0.1249995E+03  0.7818608E-02  0.1235070E+00
         -4   -1    0    0    0  501 -0.00000000000E+00  0.00000000000E+00  0.17102156334E+02  0.17149246377E+02  0.12700000000E+01 0. -1.
          4   -1    0    0  501    0  0.00000000000E+00 -0.00000000000E+00 -0.22804201265E+03  0.22804554903E+03  0.12700000000E+01 0. -1.
         25    2    1    2    0    0  0.00000000000E+00  0.00000000000E+00 -0.21093985631E+03  0.24519479540E+03  0.12499945885E+03 0.  0.
    9000005    1    3    3    0    0  0.32337182093E+02 -0.50867138325E+02 -0.73115545041E+02  0.94763083707E+02  0.10000000000E+01 0.  0.
    9000005    1    3    3    0    0 -0.32337182093E+02  0.50867138325E+02 -0.13782431127E+03  0.15043171170E+03  0.10000000000E+01 0.  0.
<mgrwt>
<rscale>  0 0.12499946E+03</rscale>
<asrwt>0</asrwt>
<pdfrwt beam="2">  1        4 0.35087279E-01 0.12499946E+03</pdfrwt>
<pdfrwt beam="1">  1       -4 0.26349955E-02 0.12499946E+03</pdfrwt>
<totfact> 0.83030730E+03</totfact>
</mgrwt>
</event>
<event>
 5    1  0.3212987E-002  0.1250015E+03  0.7818608E-02  0.1235067E+00
         -4   -1    0    0    0  501 -0.00000000000E+00  0.00000000000E+00  0.15446752837E+03  0.15447274912E+03  0.12700000000E+01 0.  1.
          4   -1    0    0  501    0  0.00000000000E+00 -0.00000000000E+00 -0.25267503281E+02  0.25299399638E+02  0.12700000000E+01 0.  1.
         25    2    1    2    0    0  0.00000000000E+00  0.00000000000E+00  0.12920002508E+03  0.17977214875E+03  0.12500151593E+03 0.  0.
    9000005    1    3    3    0    0 -0.55313145137E+02  0.25751319003E+02  0.45162481943E+02  0.75916560977E+02  0.10000000000E+01 0.  0.
    9000005    1    3    3    0    0  0.55313145137E+02 -0.25751319003E+02  0.84037543141E+02  0.10385558778E+03  0.10000000000E+01 0.  0.
<mgrwt>
<rscale>  0 0.12500152E+03</rscale>
<asrwt>0</asrwt>
<pdfrwt beam="2">  1        4 0.38901633E-02 0.12500152E+03</pdfrwt>
<pdfrwt beam="1">  1       -4 0.23767090E-01 0.12500152E+03</pdfrwt>
<totfact> 0.93654849E+03</totfact>
</mgrwt>
</event>
<event>
 5    1  0.3212987E-002  0.1249983E+03  0.7818608E-02  0.1235072E+00
          4   -1    0    0  501    0  0.00000000000E+00  0.00000000000E+00  0.12784206352E+03  0.12784837154E+03  0.12700000000E+01 0. -1.
         -4   -1    0    0    0  501 -0.00000000000E+00 -0.00000000000E+00 -0.30534206544E+02  0.30560606494E+02  0.12700000000E+01 0. -1.
         25    2    1    2    0    0  0.00000000000E+00  0.00000000000E+00  0.97307856974E+02  0.15840897803E+03  0.12499834116E+03 0.  0.
    9000005    1    3    3    0    0  0.50081621491E+02  0.24677144721E+02  0.13079078988E+02  0.57351482892E+02  0.10000000000E+01 0.  0.
    9000005    1    3    3    0    0 -0.50081621491E+02 -0.24677144721E+02  0.84228777986E+02  0.10105749514E+03  0.10000000000E+01 0.  0.
<mgrwt>
<rscale>  0 0.12499834E+03</rscale>
<asrwt>0</asrwt>
<pdfrwt beam="1">  1        4 0.19670526E-01 0.12499834E+03</pdfrwt>
<pdfrwt beam="2">  1       -4 0.47000862E-02 0.12499834E+03</pdfrwt>
<totfact> 0.97654042E+03</totfact>
</mgrwt>
</event>
<event>
 5    1  0.3212987E-002  0.1250088E+03  0.7818608E-02  0.1235056E+00
          4   -1    0    0  501    0  0.00000000000E+00  0.00000000000E+00  0.12001322039E+03  0.12001993988E+03  0.12700000000E+01 0.  1.
         -4   -1    0    0    0  501 -0.00000000000E+00 -0.00000000000E+00 -0.32533036831E+02  0.32557816042E+02  0.12700000000E+01 0.  1.
         25    2    1    2    0    0  0.00000000000E+00  0.00000000000E+00  0.87480183563E+02  0.15257775592E+03  0.12500875604E+03 0.  0.
    9000005    1    3    3    0    0 -0.71947155852E+01 -0.59691018650E+02  0.22918738721E+02  0.64350992412E+02  0.10000000000E+01 0.  0.
    9000005    1    3    3    0    0  0.71947155852E+01  0.59691018650E+02  0.64561444842E+02  0.88226763513E+02  0.10000000000E+01 0.  0.
<mgrwt>
<rscale>  0 0.12500876E+03</rscale>
<asrwt>0</asrwt>
<pdfrwt beam="1">  1        4 0.18465995E-01 0.12500876E+03</pdfrwt>
<pdfrwt beam="2">  1       -4 0.50075056E-02 0.12500876E+03</pdfrwt>
<totfact> 0.98772861E+03</totfact>
</mgrwt>
</event>
<event>
 4    1  0.3212987E-002  0.1245140E+03  0.7818608E-02  0.1235831E+00
          4   -1    0    0  501    0  0.00000000000E+00  0.00000000000E+00  0.10366113604E+04  0.10366121384E+04  0.12700000000E+01 0.  1.
         -4   -1    0    0    0  501 -0.00000000000E+00 -0.00000000000E+00 -0.36303984153E+01  0.38461269680E+01  0.12700000000E+01 0.  1.
    9000005    1    1    2    0    0  0.49532105803E+02 -0.37697728789E+02  0.52167708515E+03  0.52537846304E+03  0.10000000000E+01 0.  0.
    9000005    1    1    2    0    0 -0.49532105803E+02  0.37697728789E+02  0.51130387686E+03  0.51507980231E+03  0.10000000000E+01 0.  0.
<mgrwt>
<rscale>  0 0.12451399E+03</rscale>
<asrwt>0</asrwt>
<pdfrwt beam="1">  1        4 0.15949564E+00 0.12451399E+03</pdfrwt>
<pdfrwt beam="2">  1       -4 0.57517606E-03 0.12451399E+03</pdfrwt>
<totfact> 0.29607246E+03</totfact>
</mgrwt>
</event>
<event>
 5    1  0.3212987E-002  0.1249957E+03  0.7818608E-02  0.1235076E+00
          4   -1    0    0  501    0  0.00000000000E+00  0.00000000000E+00  0.29124409840E+03  0.29124686737E+03  0.12700000000E+01 0.  1.
         -4   -1    0    0    0  501 -0.00000000000E+00 -0.00000000000E+00 -0.13378469741E+02  0.13438614237E+02  0.12700000000E+01 0.  1.
         25    2    1    2    0    0  0.00000000000E+00  0.00000000000E+00  0.27786562865E+03  0.30468548160E+03  0.12499574038E+03 0.  0.
    9000005    1    3    3    0    0  0.55939289458E+02 -0.26628960538E+02  0.11902845217E+03  0.13419045447E+03  0.10000000000E+01 0.  0.
    9000005    1    3    3    0    0 -0.55939289458E+02  0.26628960538E+02  0.15883717648E+03  0.17049502713E+03  0.10000000000E+01 0.  0.
<mgrwt>
<rscale>  0 0.12499574E+03</rscale>
<asrwt>0</asrwt>
<pdfrwt beam="1">  1        4 0.44811621E-01 0.12499574E+03</pdfrwt>
<pdfrwt beam="2">  1       -4 0.20630657E-02 0.12499574E+03</pdfrwt>
<totfact> 0.75021926E+03</totfact>
</mgrwt>
</event>
<event>
 5    1  0.3212987E-002  0.1249858E+03  0.7818608E-02  0.1235092E+00
         -4   -1    0    0    0  501 -0.00000000000E+00  0.00000000000E+00  0.55271233554E+03  0.55271379462E+03  0.12700000000E+01 0. -1.
          4   -1    0    0  501    0  0.00000000000E+00 -0.00000000000E+00 -0.70072618800E+01  0.71214197359E+01  0.12700000000E+01 0. -1.
         25    2    1    2    0    0  0.00000000000E+00  0.00000000000E+00  0.54570507366E+03  0.55983521435E+03  0.12498575843E+03 0.  0.
    9000005    1    3    3    0    0  0.54017897486E+02 -0.29374173601E+02  0.22305797542E+03  0.23137985159E+03  0.10000000000E+01 0.  0.
    9000005    1    3    3    0    0 -0.54017897486E+02  0.29374173601E+02  0.32264709825E+03  0.32845536277E+03  0.10000000000E+01 0.  0.
<mgrwt>
<rscale>  0 0.12498576E+03</rscale>
<asrwt>0</asrwt>
<pdfrwt beam="2">  1        4 0.10869338E-02 0.12498576E+03</pdfrwt>
<pdfrwt beam="1">  1       -4 0.85041570E-01 0.12498576E+03</pdfrwt>
<totfact> 0.51521315E+03</totfact>
</mgrwt>
</event>
<event>
 5    1  0.3212987E-002  0.1249968E+03  0.7818608E-02  0.1235074E+00
          4   -1    0    0  501    0  0.00000000000E+00  0.00000000000E+00  0.26925822575E+02  0.26955756739E+02  0.12700000000E+01 0.  1.
         -4   -1    0    0    0  501 -0.00000000000E+00 -0.00000000000E+00 -0.14495382116E+03  0.14495938455E+03  0.12700000000E+01 0.  1.
         25    2    1    2    0    0  0.00000000000E+00  0.00000000000E+00 -0.11802799859E+03  0.17191514129E+03  0.12499682938E+03 0.  0.
    9000005    1    3    3    0    0  0.40715075893E+02  0.29130423997E+02 -0.11045218249E+03  0.12127235309E+03  0.10000000000E+01 0.  0.
    9000005    1    3    3    0    0 -0.40715075893E+02 -0.29130423997E+02 -0.75758160979E+01  0.50642788201E+02  0.10000000000E+01 0.  0.
<mgrwt>
<rscale>  0 0.12499683E+03</rscale>
<asrwt>0</asrwt>
<pdfrwt beam="1">  1        4 0.41451649E-02 0.12499683E+03</pdfrwt>
<pdfrwt beam="2">  1       -4 0.22303318E-01 0.12499683E+03</pdfrwt>
<totfact> 0.95099647E+03</totfact>
</mgrwt>
</event>
<event>
 5    1  0.3212987E-002  0.1250005E+03  0.7818608E-02  0.1235069E+00
         -4   -1    0    0    0  501 -0.00000000000E+00  0.00000000000E+00  0.75973423323E+01  0.77027599284E+01  0.12700000000E+01 0. -1.
          4   -1    0    0  501    0  0.00000000000E+00 -0.00000000000E+00 -0.51051504047E+03  0.51051662015E+03  0.12700000000E+01 0. -1.
         25    2    1    2    0    0  0.00000000000E+00  0.00000000000E+00 -0.50291769814E+03  0.51821938008E+03  0.12500045914E+03 0.  0.
    9000005    1    3    3    0    0  0.56503674175E+02  0.26566319061E+02 -0.24061301008E+03  0.24858410070E+03  0.10000000000E+01 0.  0.
    9000005    1    3    3    0    0 -0.56503674175E+02 -0.26566319061E+02 -0.26230468806E+03  0.26963527937E+03  0.10000000000E+01 0.  0.
<mgrwt>
<rscale>  0 0.12500046E+03</rscale>
<asrwt>0</asrwt>
<pdfrwt beam="2">  1        4 0.78548979E-01 0.12500046E+03</pdfrwt>
<pdfrwt beam="1">  1       -4 0.11770529E-02 0.12500046E+03</pdfrwt>
<totfact> 0.54477429E+03</totfact>
</mgrwt>
</event>
<event>
 5    1  0.3212987E-002  0.1250020E+03  0.7818608E-02  0.1235066E+00
         -4   -1    0    0    0  501 -0.00000000000E+00  0.00000000000E+00  0.49244505121E+03  0.49244668885E+03  0.12700000000E+01 0.  1.
          4   -1    0    0  501    0  0.00000000000E+00 -0.00000000000E+00 -0.78801125699E+01  0.79817964215E+01  0.12700000000E+01 0.  1.
         25    2    1    2    0    0  0.00000000000E+00  0.00000000000E+00  0.48456493864E+03  0.50042848527E+03  0.12500195644E+03 0.  0.
    9000005    1    3    3    0    0  0.46618816516E+02 -0.51680194275E+01  0.40760496380E+03  0.41029602605E+03  0.10000000000E+01 0.  0.
    9000005    1    3    3    0    0 -0.46618816516E+02  0.51680194275E+01  0.76959974838E+02  0.90132459221E+02  0.10000000000E+01 0.  0.
<mgrwt>
<rscale>  0 0.12500196E+03</rscale>
<asrwt>0</asrwt>
<pdfrwt beam="2">  1        4 0.12202724E-02 0.12500196E+03</pdfrwt>
<pdfrwt beam="1">  1       -4 0.75768749E-01 0.12500196E+03</pdfrwt>
<totfact> 0.55828722E+03</totfact>
</mgrwt>
</event>
<event>
 5    1  0.3212987E-002  0.1250006E+03  0.7818608E-02  0.1235068E+00
          4   -1    0    0  501    0  0.00000000000E+00  0.00000000000E+00  0.19139589476E+03  0.19140010823E+03  0.12700000000E+01 0.  1.
         -4   -1    0    0    0  501 -0.00000000000E+00 -0.00000000000E+00 -0.20385248893E+02  0.20424771050E+02  0.12700000000E+01 0.  1.
         25    2    1    2    0    0  0.00000000000E+00  0.00000000000E+00  0.17101064586E+03  0.21182487928E+03  0.12500055393E+03 0.  0.
    9000005    1    3    3    0    0 -0.45509329166E+02 -0.39544376950E+02  0.57638290532E+02  0.83414802793E+02  0.10000000000E+01 0.  0.
    9000005    1    3    3    0    0  0.45509329166E+02  0.39544376950E+02  0.11337235533E+03  0.12841007648E+03  0.10000000000E+01 0.  0.
<mgrwt>
<rscale>  0 0.12500055E+03</rscale>
<asrwt>0</asrwt>
<pdfrwt beam="1">  1        4 0.29448888E-01 0.12500055E+03</pdfrwt>
<pdfrwt beam="2">  1       -4 0.31395563E-02 0.12500055E+03</pdfrwt>
<totfact> 0.88177625E+03</totfact>
</mgrwt>
</event>
<event>
 5    1  0.3212987E-002  0.1249950E+03  0.7818608E-02  0.1235077E+00
          4   -1    0    0  501    0  0.00000000000E+00  0.00000000000E+00  0.23138943043E+03  0.23139291565E+03  0.12700000000E+01 0. -1.
         -4   -1    0    0    0  501 -0.00000000000E+00 -0.00000000000E+00 -0.16852870223E+02  0.16900654862E+02  0.12700000000E+01 0. -1.
         25    2    1    2    0    0  0.00000000000E+00  0.00000000000E+00  0.21453656021E+03  0.24829357051E+03  0.12499504588E+03 0.  0.
    9000005    1    3    3    0    0 -0.14912099268E+02 -0.54463546471E+02  0.54104279342E+02  0.78210751447E+02  0.10000000000E+01 0.  0.
    9000005    1    3    3    0    0  0.14912099268E+02  0.54463546471E+02  0.16043228086E+03  0.17008281907E+03  0.10000000000E+01 0.  0.
<mgrwt>
<rscale>  0 0.12499505E+03</rscale>
<asrwt>0</asrwt>
<pdfrwt beam="1">  1        4 0.35602320E-01 0.12499505E+03</pdfrwt>
<pdfrwt beam="2">  1       -4 0.25966930E-02 0.12499505E+03</pdfrwt>
<totfact> 0.82586599E+03</totfact>
</mgrwt>
</event>
<event>
 5    1  0.3212987E-002  0.1249931E+03  0.7818608E-02  0.1235080E+00
         -4   -1    0    0    0  501 -0.00000000000E+00  0.00000000000E+00  0.70825837929E+01  0.71955467605E+01  0.12700000000E+01 0.  1.
          4   -1    0    0  501    0  0.00000000000E+00 -0.00000000000E+00 -0.54699103399E+03  0.54699250832E+03  0.12700000000E+01 0.  1.
         25    2    1    2    0    0  0.00000000000E+00  0.00000000000E+00 -0.53990845019E+03  0.55418805508E+03  0.12499306304E+03 0.  0.
    9000005    1    3    3    0    0  0.21222405627E+02  0.13917269099E+02 -0.16774432010E+02  0.30437845670E+02  0.10000000000E+01 0.  0.
    9000005    1    3    3    0    0 -0.21222405627E+02 -0.13917269099E+02 -0.52313401818E+03  0.52375020941E+03  0.10000000000E+01 0.  0.
<mgrwt>
<rscale>  0 0.12499306E+03</rscale>
<asrwt>0</asrwt>
<pdfrwt beam="2">  1        4 0.84161237E-01 0.12499306E+03</pdfrwt>
<pdfrwt beam="1">  1       -4 0.10984316E-02 0.12499306E+03</pdfrwt>
<totfact> 0.51901179E+03</totfact>
</mgrwt>
</event>
<event>
 5    1  0.3212987E-002  0.1249959E+03  0.7818608E-02  0.1235076E+00
          4   -1    0    0  501    0  0.00000000000E+00  0.00000000000E+00  0.24829290031E+02  0.24861748600E+02  0.12700000000E+01 0. -1.
         -4   -1    0    0    0  501 -0.00000000000E+00 -0.00000000000E+00 -0.15717618911E+03  0.15718131990E+03  0.12700000000E+01 0. -1.
         25    2    1    2    0    0  0.00000000000E+00  0.00000000000E+00 -0.13234689908E+03  0.18204306850E+03  0.12499590830E+03 0.  0.
    9000005    1    3    3    0    0  0.55580253926E+02  0.14096524098E+02 -0.10235293083E+03  0.11732433280E+03  0.10000000000E+01 0.  0.
    9000005    1    3    3    0    0 -0.55580253926E+02 -0.14096524098E+02 -0.29993968250E+02  0.64718735692E+02  0.10000000000E+01 0.  0.
<mgrwt>
<rscale>  0 0.12499591E+03</rscale>
<asrwt>0</asrwt>
<pdfrwt beam="1">  1        4 0.38227824E-02 0.12499591E+03</pdfrwt>
<pdfrwt beam="2">  1       -4 0.24183843E-01 0.12499591E+03</pdfrwt>
<totfact> 0.93259086E+03</totfact>
</mgrwt>
</event>
<event>
 5    1  0.3212987E-002  0.1250006E+03  0.7818608E-02  0.1235068E+00
         -4   -1    0    0    0  501 -0.00000000000E+00  0.00000000000E+00  0.72531779447E+01  0.73635243123E+01  0.12700000000E+01 0.  1.
          4   -1    0    0  501    0  0.00000000000E+00 -0.00000000000E+00 -0.53438500701E+03  0.53438651612E+03  0.12700000000E+01 0.  1.
         25    2    1    2    0    0  0.00000000000E+00  0.00000000000E+00 -0.52713182906E+03  0.54175004043E+03  0.12500056440E+03 0.  0.
    9000005    1    3    3    0    0 -0.26749591018E+02  0.38139621481E+02 -0.83035251763E+02  0.95215672984E+02  0.10000000000E+01 0.  0.
    9000005    1    3    3    0    0  0.26749591018E+02 -0.38139621481E+02 -0.44409657730E+03  0.44653436745E+03  0.10000000000E+01 0.  0.
<mgrwt>
<rscale>  0 0.12500056E+03</rscale>
<asrwt>0</asrwt>
<pdfrwt beam="2">  1        4 0.82221651E-01 0.12500056E+03</pdfrwt>
<pdfrwt beam="1">  1       -4 0.11244782E-02 0.12500056E+03</pdfrwt>
<totfact> 0.52763958E+03</totfact>
</mgrwt>
</event>
<event>
 5    1  0.3212987E-002  0.1249991E+03  0.7818608E-02  0.1235071E+00
          4   -1    0    0  501    0  0.00000000000E+00  0.00000000000E+00  0.11588279027E+03  0.11588974925E+03  0.12700000000E+01 0. -1.
         -4   -1    0    0    0  501 -0.00000000000E+00 -0.00000000000E+00 -0.33688194625E+02  0.33712124779E+02  0.12700000000E+01 0. -1.
         25    2    1    2    0    0  0.00000000000E+00  0.00000000000E+00  0.82194595646E+02  0.14960187403E+03  0.12499907663E+03 0.  0.
    9000005    1    3    3    0    0 -0.53164935047E+02 -0.54766842781E+00  0.17951259798E+01  0.53207450009E+02  0.10000000000E+01 0.  0.
    9000005    1    3    3    0    0  0.53164935047E+02  0.54766842781E+00  0.80399469667E+02  0.96394424019E+02  0.10000000000E+01 0.  0.
<mgrwt>
<rscale>  0 0.12499908E+03</rscale>
<asrwt>0</asrwt>
<pdfrwt beam="1">  1        4 0.17830498E-01 0.12499908E+03</pdfrwt>
<pdfrwt beam="2">  1       -4 0.51851753E-02 0.12499908E+03</pdfrwt>
<totfact> 0.99385183E+03</totfact>
</mgrwt>
</event>
<event>
 5    1  0.3212987E-002  0.1249919E+03  0.7818608E-02  0.1235082E+00
         -4   -1    0    0    0  501 -0.00000000000E+00  0.00000000000E+00  0.13752517717E+03  0.13753104107E+03  0.12700000000E+01 0.  1.
          4   -1    0    0  501    0  0.00000000000E+00 -0.00000000000E+00 -0.28379543188E+02  0.28407945571E+02  0.12700000000E+01 0.  1.
         25    2    1    2    0    0  0.00000000000E+00  0.00000000000E+00  0.10914563399E+03  0.16593898664E+03  0.12499191121E+03 0.  0.
    9000005    1    3    3    0    0 -0.87084599533E+01 -0.54747727138E+02  0.16288395850E+02  0.57788084765E+02  0.10000000000E+01 0.  0.
    9000005    1    3    3    0    0  0.87084599533E+01  0.54747727138E+02  0.92857238137E+02  0.10815090187E+03  0.10000000000E+01 0.  0.
<mgrwt>
<rscale>  0 0.12499191E+03</rscale>
<asrwt>0</asrwt>
<pdfrwt beam="2">  1        4 0.43687194E-02 0.12499191E+03</pdfrwt>
<pdfrwt beam="1">  1       -4 0.21160355E-01 0.12499191E+03</pdfrwt>
<totfact> 0.96227341E+03</totfact>
</mgrwt>
</event>
<event>
 5    1  0.3212987E-002  0.1250215E+03  0.7818608E-02  0.1235036E+00
          4   -1    0    0  501    0  0.00000000000E+00  0.00000000000E+00  0.15781257620E+03  0.15781768630E+03  0.12700000000E+01 0.  1.
         -4   -1    0    0    0  501 -0.00000000000E+00 -0.00000000000E+00 -0.24739193630E+02  0.24771770253E+02  0.12700000000E+01 0.  1.
         25    2    1    2    0    0  0.00000000000E+00  0.00000000000E+00  0.13307338257E+03  0.18258945655E+03  0.12502153612E+03 0.  0.
    9000005    1    3    3    0    0 -0.53891396695E+02  0.23251668178E+02  0.35156304119E+02  0.68424326304E+02  0.10000000000E+01 0.  0.
    9000005    1    3    3    0    0  0.53891396695E+02 -0.23251668178E+02  0.97917078456E+02  0.11416513025E+03  0.10000000000E+01 0.  0.
<mgrwt>
<rscale>  0 0.12502154E+03</rscale>
<asrwt>0</asrwt>
<pdfrwt beam="1">  1        4 0.24281757E-01 0.12502154E+03</pdfrwt>
<pdfrwt beam="2">  1       -4 0.38089288E-02 0.12502154E+03</pdfrwt>
<totfact> 0.93108002E+03</totfact>
</mgrwt>
</event>
<event>
 5    1  0.3212987E-002  0.1249998E+03  0.7818608E-02  0.1235070E+00
         -4   -1    0    0    0  501 -0.00000000000E+00  0.00000000000E+00  0.12942293472E+03  0.12942916569E+03  0.12700000000E+01 0. -1.
          4   -1    0    0  501    0  0.00000000000E+00 -0.00000000000E+00 -0.30161635263E+02  0.30188361031E+02  0.12700000000E+01 0. -1.
         25    2    1    2    0    0  0.00000000000E+00  0.00000000000E+00  0.99261299455E+02  0.15961752672E+03  0.12499979707E+03 0.  0.
    9000005    1    3    3    0    0  0.83988966575E+01  0.42525611258E+02  0.10711104390E+03  0.11555407740E+03  0.10000000000E+01 0.  0.
    9000005    1    3    3    0    0 -0.83988966575E+01 -0.42525611258E+02 -0.78497444498E+01  0.44063449319E+02  0.10000000000E+01 0.  0.
<mgrwt>
<rscale>  0 0.12499980E+03</rscale>
<asrwt>0</asrwt>
<pdfrwt beam="2">  1        4 0.46427867E-02 0.12499980E+03</pdfrwt>
<pdfrwt beam="1">  1       -4 0.19913756E-01 0.12499980E+03</pdfrwt>
<totfact> 0.97417017E+03</totfact>
</mgrwt>
</event>
<event>
 5    1  0.3212987E-002  0.1250009E+03  0.7818608E-02  0.1235068E+00
         -4   -1    0    0    0  501 -0.00000000000E+00  0.00000000000E+00  0.28440055549E+03  0.28440339109E+03  0.12700000000E+01 0. -1.
          4   -1    0    0  501    0  0.00000000000E+00 -0.00000000000E+00 -0.13702951974E+02  0.13761678415E+02  0.12700000000E+01 0. -1.
         25    2    1    2    0    0  0.00000000000E+00  0.00000000000E+00  0.27069760351E+03  0.29816506950E+03  0.12500086449E+03 0.  0.
    9000005    1    3    3    0    0  0.33501448100E+02 -0.33140414908E+02  0.23325296415E+03  0.23796760160E+03  0.10000000000E+01 0.  0.
    9000005    1    3    3    0    0 -0.33501448100E+02  0.33140414908E+02  0.37444639362E+02  0.60197467904E+02  0.10000000000E+01 0.  0.
<mgrwt>
<rscale>  0 0.12500086E+03</rscale>
<asrwt>0</asrwt>
<pdfrwt beam="2">  1        4 0.21128819E-02 0.12500086E+03</pdfrwt>
<pdfrwt beam="1">  1       -4 0.43758669E-01 0.12500086E+03</pdfrwt>
<totfact> 0.75828129E+03</totfact>
</mgrwt>
</event>
<event>
 5    1  0.3212987E-002  0.1249966E+03  0.7818608E-02  0.1235075E+00
         -4   -1    0    0    0  501 -0.00000000000E+00  0.00000000000E+00  0.36431349820E+02  0.36453479254E+02  0.12700000000E+01 0. -1.
          4   -1    0    0  501    0  0.00000000000E+00 -0.00000000000E+00 -0.10715798985E+03  0.10716551539E+03  0.12700000000E+01 0. -1.
         25    2    1    2    0    0  0.00000000000E+00  0.00000000000E+00 -0.70726640031E+02  0.14361899464E+03  0.12499663201E+03 0.  0.
    9000005    1    3    3    0    0  0.45321191614E+02 -0.31197948346E+02 -0.69403422111E+02  0.88572893094E+02  0.10000000000E+01 0.  0.
    9000005    1    3    3    0    0 -0.45321191614E+02  0.31197948346E+02 -0.13232179202E+01  0.55046101551E+02  0.10000000000E+01 0.  0.
<mgrwt>
<rscale>  0 0.12499663E+03</rscale>
<asrwt>0</asrwt>
<pdfrwt beam="2">  1        4 0.16488126E-01 0.12499663E+03</pdfrwt>
<pdfrwt beam="1">  1       -4 0.56071042E-02 0.12499663E+03</pdfrwt>
<totfact> 0.10059886E+04</totfact>
</mgrwt>
</event>
<event>
 5    1  0.3212987E-002  0.1250010E+03  0.7818608E-02  0.1235068E+00
          4   -1    0    0  501    0  0.00000000000E+00  0.00000000000E+00  0.11828559059E+04  0.11828565877E+04  0.12700000000E+01 0. -1.
         -4   -1    0    0    0  501 -0.00000000000E+00 -0.00000000000E+00 -0.31796343624E+01  0.34238829826E+01  0.12700000000E+01 0. -1.
         25    2    1    2    0    0  0.00000000000E+00  0.00000000000E+00  0.11796762715E+04  0.11862804707E+04  0.12500099780E+03 0.  0.
    9000005    1    3    3    0    0 -0.48615475185E+02 -0.34694708038E+02  0.41533121666E+03  0.41960482210E+03  0.10000000000E+01 0.  0.
    9000005    1    3    3    0    0  0.48615475185E+02  0.34694708038E+02  0.76434505487E+03  0.76667564856E+03  0.10000000000E+01 0.  0.
<mgrwt>
<rscale>  0 0.12500100E+03</rscale>
<asrwt>0</asrwt>
<pdfrwt beam="1">  1        4 0.18199666E+00 0.12500100E+03</pdfrwt>
<pdfrwt beam="2">  1       -4 0.50801534E-03 0.12500100E+03</pdfrwt>
<totfact> 0.25074162E+03</totfact>
</mgrwt>
</event>
<event>
 5    1  0.3212987E-002  0.1249954E+03  0.7818608E-02  0.1235076E+00
         -4   -1    0    0    0  501 -0.00000000000E+00  0.00000000000E+00  0.36346984130E+02  0.36369164898E+02  0.12700000000E+01 0.  1.
          4   -1    0    0  501    0  0.00000000000E+00 -0.00000000000E+00 -0.10740453060E+03  0.10741203886E+03  0.12700000000E+01 0.  1.
         25    2    1    2    0    0  0.00000000000E+00  0.00000000000E+00 -0.71057546467E+02  0.14378120376E+03  0.12499543850E+03 0.  0.
    9000005    1    3    3    0    0  0.10053906842E+02  0.17916770469E+02 -0.10341423600E+03  0.10544001097E+03  0.10000000000E+01 0.  0.
    9000005    1    3    3    0    0 -0.10053906842E+02 -0.17916770469E+02  0.32356689533E+02  0.38341192787E+02  0.10000000000E+01 0.  0.
<mgrwt>
<rscale>  0 0.12499544E+03</rscale>
<asrwt>0</asrwt>
<pdfrwt beam="2">  1        4 0.16526058E-01 0.12499544E+03</pdfrwt>
<pdfrwt beam="1">  1       -4 0.55941275E-02 0.12499544E+03</pdfrwt>
<totfact> 0.10056844E+04</totfact>
</mgrwt>
</event>
<event>
 5    1  0.3212987E-002  0.1250048E+03  0.7818608E-02  0.1235062E+00
          4   -1    0    0  501    0  0.00000000000E+00  0.00000000000E+00  0.60022853922E+02  0.60036288134E+02  0.12700000000E+01 0. -1.
         -4   -1    0    0    0  501 -0.00000000000E+00 -0.00000000000E+00 -0.65057473036E+02  0.65069867818E+02  0.12700000000E+01 0. -1.
         25    2    1    2    0    0  0.00000000000E+00  0.00000000000E+00 -0.50346191140E+01  0.12510615595E+03  0.12500481138E+03 0.  0.
    9000005    1    3    3    0    0  0.49590799079E+02  0.34262815528E+02  0.13999489094E+02  0.61888396134E+02  0.10000000000E+01 0.  0.
    9000005    1    3    3    0    0 -0.49590799079E+02 -0.34262815528E+02 -0.19034108208E+02  0.63217759818E+02  0.10000000000E+01 0.  0.
<mgrwt>
<rscale>  0 0.12500481E+03</rscale>
<asrwt>0</asrwt>
<pdfrwt beam="1">  1        4 0.92362720E-02 0.12500481E+03</pdfrwt>
<pdfrwt beam="2">  1       -4 0.10010829E-01 0.12500481E+03</pdfrwt>
<totfact> 0.10449421E+04</totfact>
</mgrwt>
</event>
<event>
 5    1  0.3212987E-002  0.1249952E+03  0.7818608E-02  0.1235077E+00
          4   -1    0    0  501    0  0.00000000000E+00  0.00000000000E+00  0.48311317254E+01  0.49952711386E+01  0.12700000000E+01 0. -1.
         -4   -1    0    0    0  501 -0.00000000000E+00 -0.00000000000E+00 -0.79482587590E+03  0.79482689053E+03  0.12700000000E+01 0. -1.
         25    2    1    2    0    0  0.00000000000E+00  0.00000000000E+00 -0.78999474418E+03  0.79982216166E+03  0.12499517776E+03 0.  0.
    9000005    1    3    3    0    0  0.69710989936E+00  0.23673190007E+02 -0.24968097768E+02  0.34428357403E+02  0.10000000000E+01 0.  0.
    9000005    1    3    3    0    0 -0.69710989936E+00 -0.23673190007E+02 -0.76502664641E+03  0.76539380426E+03  0.10000000000E+01 0.  0.
<mgrwt>
<rscale>  0 0.12499518E+03</rscale>
<asrwt>0</asrwt>
<pdfrwt beam="1">  1        4 0.75595582E-03 0.12499518E+03</pdfrwt>
<pdfrwt beam="2">  1       -4 0.12229351E+00 0.12499518E+03</pdfrwt>
<totfact> 0.38276725E+03</totfact>
</mgrwt>
</event>
<event>
 5    1  0.3212987E-002  0.1249977E+03  0.7818608E-02  0.1235073E+00
         -4   -1    0    0    0  501 -0.00000000000E+00  0.00000000000E+00  0.48859082836E+01  0.50482670052E+01  0.12700000000E+01 0. -1.
          4   -1    0    0  501    0  0.00000000000E+00 -0.00000000000E+00 -0.78623480023E+03  0.78623582594E+03  0.12700000000E+01 0. -1.
         25    2    1    2    0    0  0.00000000000E+00  0.00000000000E+00 -0.78134889194E+03  0.79128409294E+03  0.12499769919E+03 0.  0.
    9000005    1    3    3    0    0 -0.26244459586E+01  0.14753196734E+02 -0.77472417734E+03  0.77486972807E+03  0.10000000000E+01 0.  0.
    9000005    1    3    3    0    0  0.26244459586E+01 -0.14753196734E+02 -0.66247146028E+01  0.16414364868E+02  0.10000000000E+01 0.  0.
<mgrwt>
<rscale>  0 0.12499770E+03</rscale>
<asrwt>0</asrwt>
<pdfrwt beam="2">  1        4 0.12097167E+00 0.12499770E+03</pdfrwt>
<pdfrwt beam="1">  1       -4 0.76424685E-03 0.12499770E+03</pdfrwt>
<totfact> 0.38658774E+03</totfact>
</mgrwt>
</event>
<event>
 5    1  0.3212987E-002  0.1249971E+03  0.7818608E-02  0.1235074E+00
          4   -1    0    0  501    0  0.00000000000E+00  0.00000000000E+00  0.24776039405E+02  0.24808567645E+02  0.12700000000E+01 0. -1.
         -4   -1    0    0    0  501 -0.00000000000E+00 -0.00000000000E+00 -0.15751669069E+03  0.15752181038E+03  0.12700000000E+01 0. -1.
         25    2    1    2    0    0  0.00000000000E+00  0.00000000000E+00 -0.13274065128E+03  0.18233037802E+03  0.12499714496E+03 0.  0.
    9000005    1    3    3    0    0  0.26018625754E+02 -0.81750626301E+01 -0.14838466755E+03  0.15087349038E+03  0.10000000000E+01 0.  0.
    9000005    1    3    3    0    0 -0.26018625754E+02  0.81750626301E+01  0.15644016270E+02  0.31456887643E+02  0.10000000000E+01 0.  0.
<mgrwt>
<rscale>  0 0.12499714E+03</rscale>
<asrwt>0</asrwt>
<pdfrwt beam="1">  1        4 0.38145945E-02 0.12499714E+03</pdfrwt>
<pdfrwt beam="2">  1       -4 0.24236232E-01 0.12499714E+03</pdfrwt>
<totfact> 0.93205167E+03</totfact>
</mgrwt>
</event>
<event>
 5    1  0.3212987E-002  0.1249992E+03  0.7818608E-02  0.1235071E+00
          4   -1    0    0  501    0  0.00000000000E+00  0.00000000000E+00  0.53723092699E+02  0.53738101838E+02  0.12700000000E+01 0. -1.
         -4   -1    0    0    0  501 -0.00000000000E+00 -0.00000000000E+00 -0.72679118859E+02  0.72690214046E+02  0.12700000000E+01 0. -1.
         25    2    1    2    0    0  0.00000000000E+00  0.00000000000E+00 -0.18956026160E+02  0.12642831588E+03  0.12499915252E+03 0.  0.
    9000005    1    3    3    0    0 -0.32468026819E+02 -0.20119766624E+02 -0.59502768589E+02  0.70714618321E+02  0.10000000000E+01 0.  0.
    9000005    1    3    3    0    0  0.32468026819E+02  0.20119766624E+02  0.40546742429E+02  0.55713697563E+02  0.10000000000E+01 0.  0.
<mgrwt>
<rscale>  0 0.12499915E+03</rscale>
<asrwt>0</asrwt>
<pdfrwt beam="1">  1        4 0.82670991E-02 0.12499915E+03</pdfrwt>
<pdfrwt beam="2">  1       -4 0.11183411E-01 0.12499915E+03</pdfrwt>
<totfact> 0.10421791E+04</totfact>
</mgrwt>
</event>
<event>
 5    1  0.3212987E-002  0.1250002E+03  0.7818608E-02  0.1235069E+00
         -4   -1    0    0    0  501 -0.00000000000E+00  0.00000000000E+00  0.35813335701E+02  0.35835846774E+02  0.12700000000E+01 0.  1.
          4   -1    0    0  501    0  0.00000000000E+00 -0.00000000000E+00 -0.10901237667E+03  0.10901977420E+03  0.12700000000E+01 0.  1.
         25    2    1    2    0    0  0.00000000000E+00  0.00000000000E+00 -0.73199040965E+02  0.14485562097E+03  0.12500020532E+03 0.  0.
    9000005    1    3    3    0    0 -0.54781745424E+02 -0.29021489522E+02 -0.27476521811E+02  0.67817739100E+02  0.10000000000E+01 0.  0.
    9000005    1    3    3    0    0  0.54781745424E+02  0.29021489522E+02 -0.45722519154E+02  0.77037881873E+02  0.10000000000E+01 0.  0.
<mgrwt>
<rscale>  0 0.12500021E+03</rscale>
<asrwt>0</asrwt>
<pdfrwt beam="2">  1        4 0.16773435E-01 0.12500021E+03</pdfrwt>
<pdfrwt beam="1">  1       -4 0.55120447E-02 0.12500021E+03</pdfrwt>
<totfact> 0.10033876E+04</totfact>
</mgrwt>
</event>
<event>
 5    1  0.3212987E-002  0.1250018E+03  0.7818608E-02  0.1235066E+00
          4   -1    0    0  501    0  0.00000000000E+00  0.00000000000E+00  0.26481039780E+03  0.26481344317E+03  0.12700000000E+01 0. -1.
         -4   -1    0    0    0  501 -0.00000000000E+00 -0.00000000000E+00 -0.14721075215E+02  0.14775755665E+02  0.12700000000E+01 0. -1.
         25    2    1    2    0    0  0.00000000000E+00  0.00000000000E+00  0.25008932258E+03  0.27958919883E+03  0.12500180332E+03 0.  0.
    9000005    1    3    3    0    0  0.57621502795E+02 -0.10523930101E+02  0.76329556238E+02  0.96219498256E+02  0.10000000000E+01 0.  0.
    9000005    1    3    3    0    0 -0.57621502795E+02  0.10523930101E+02  0.17375976634E+03  0.18336970058E+03  0.10000000000E+01 0.  0.
<mgrwt>
<rscale>  0 0.12500180E+03</rscale>
<asrwt>0</asrwt>
<pdfrwt beam="1">  1        4 0.40744505E-01 0.12500180E+03</pdfrwt>
<pdfrwt beam="2">  1       -4 0.22692211E-02 0.12500180E+03</pdfrwt>
<totfact> 0.78229466E+03</totfact>
</mgrwt>
</event>
<event>
 5    1  0.3212987E-002  0.1250137E+03  0.7818608E-02  0.1235048E+00
          4   -1    0    0  501    0  0.00000000000E+00  0.00000000000E+00  0.74007480581E+01  0.75089261429E+01  0.12700000000E+01 0. -1.
         -4   -1    0    0    0  501 -0.00000000000E+00 -0.00000000000E+00 -0.52399495794E+03  0.52399649698E+03  0.12700000000E+01 0. -1.
         25    2    1    2    0    0  0.00000000000E+00  0.00000000000E+00 -0.51659420989E+03  0.53150542313E+03  0.12501374774E+03 0.  0.
    9000005    1    3    3    0    0 -0.24980908063E+01  0.44229313522E+02 -0.70859181194E+02  0.83573298318E+02  0.10000000000E+01 0.  0.
    9000005    1    3    3    0    0  0.24980908063E+01 -0.44229313522E+02 -0.44573502869E+03  0.44793212481E+03  0.10000000000E+01 0.  0.
<mgrwt>
<rscale>  0 0.12501375E+03</rscale>
<asrwt>0</asrwt>
<pdfrwt beam="1">  1        4 0.11470168E-02 0.12501375E+03</pdfrwt>
<pdfrwt beam="2">  1       -4 0.80623020E-01 0.12501375E+03</pdfrwt>
<totfact> 0.53484051E+03</totfact>
</mgrwt>
</event>
<event>
 5    1  0.3212987E-002  0.1250004E+03  0.7818608E-02  0.1235069E+00
         -4   -1    0    0    0  501 -0.00000000000E+00  0.00000000000E+00  0.10181187738E+02  0.10260091801E+02  0.12700000000E+01 0. -1.
          4   -1    0    0  501    0  0.00000000000E+00 -0.00000000000E+00 -0.38211482004E+03  0.38211693052E+03  0.12700000000E+01 0. -1.
         25    2    1    2    0    0  0.00000000000E+00  0.00000000000E+00 -0.37193363230E+03  0.39237702232E+03  0.12500040325E+03 0.  0.
    9000005    1    3    3    0    0  0.14770146055E+02  0.55740863807E+02 -0.11036471129E+03  0.12452538139E+03  0.10000000000E+01 0.  0.
    9000005    1    3    3    0    0 -0.14770146055E+02 -0.55740863807E+02 -0.26156892101E+03  0.26785164094E+03  0.10000000000E+01 0.  0.
<mgrwt>
<rscale>  0 0.12500040E+03</rscale>
<asrwt>0</asrwt>
<pdfrwt beam="2">  1        4 0.58793116E-01 0.12500040E+03</pdfrwt>
<pdfrwt beam="1">  1       -4 0.15725688E-02 0.12500040E+03</pdfrwt>
<totfact> 0.65300428E+03</totfact>
</mgrwt>
</event>
<event>
 5    1  0.3212987E-002  0.1250051E+03  0.7818608E-02  0.1235061E+00
         -4   -1    0    0    0  501 -0.00000000000E+00  0.00000000000E+00  0.42766617273E+02  0.42785470115E+02  0.12700000000E+01 0.  1.
          4   -1    0    0  501    0  0.00000000000E+00 -0.00000000000E+00 -0.91302818294E+02  0.91311650562E+02  0.12700000000E+01 0.  1.
         25    2    1    2    0    0  0.00000000000E+00  0.00000000000E+00 -0.48536201021E+02  0.13409712068E+03  0.12500509975E+03 0.  0.
    9000005    1    3    3    0    0  0.36421825529E+02  0.45433095075E+02  0.72620923595E-01  0.58238481923E+02  0.10000000000E+01 0.  0.
    9000005    1    3    3    0    0 -0.36421825529E+02 -0.45433095075E+02 -0.48608821944E+02  0.75858638755E+02  0.10000000000E+01 0.  0.
<mgrwt>
<rscale>  0 0.12500510E+03</rscale>
<asrwt>0</asrwt>
<pdfrwt beam="2">  1        4 0.14048717E-01 0.12500510E+03</pdfrwt>
<pdfrwt beam="1">  1       -4 0.65816092E-02 0.12500510E+03</pdfrwt>
<totfact> 0.10255957E+04</totfact>
</mgrwt>
</event>
<event>
 5    1  0.3212987E-002  0.1249989E+03  0.7818608E-02  0.1235071E+00
          4   -1    0    0  501    0  0.00000000000E+00  0.00000000000E+00  0.92283950556E+01  0.93153730630E+01  0.12700000000E+01 0. -1.
         -4   -1    0    0    0  501 -0.00000000000E+00 -0.00000000000E+00 -0.42120533073E+03  0.42120724535E+03  0.12700000000E+01 0. -1.
         25    2    1    2    0    0  0.00000000000E+00  0.00000000000E+00 -0.41197693567E+03  0.43052261841E+03  0.12499891775E+03 0.  0.
    9000005    1    3    3    0    0  0.53168664771E+02 -0.30977702780E+02 -0.16847069143E+03  0.17935969127E+03  0.10000000000E+01 0.  0.
    9000005    1    3    3    0    0 -0.53168664771E+02  0.30977702780E+02 -0.24350624424E+03  0.25116292713E+03  0.10000000000E+01 0.  0.
<mgrwt>
<rscale>  0 0.12499892E+03</rscale>
<asrwt>0</asrwt>
<pdfrwt beam="1">  1        4 0.14265913E-02 0.12499892E+03</pdfrwt>
<pdfrwt beam="2">  1       -4 0.64807643E-01 0.12499892E+03</pdfrwt>
<totfact> 0.61690126E+03</totfact>
</mgrwt>
</event>
<event>
 5    1  0.3212987E-002  0.1250022E+03  0.7818608E-02  0.1235066E+00
         -4   -1    0    0    0  501 -0.00000000000E+00  0.00000000000E+00  0.92491812221E+02  0.92500530961E+02  0.12700000000E+01 0. -1.
          4   -1    0    0  501    0  0.00000000000E+00 -0.00000000000E+00 -0.42214682547E+02  0.42233781769E+02  0.12700000000E+01 0. -1.
         25    2    1    2    0    0  0.00000000000E+00  0.00000000000E+00  0.50277129675E+02  0.13473431273E+03  0.12500218101E+03 0.  0.
    9000005    1    3    3    0    0  0.14260474815E+02 -0.55839975594E+02 -0.90726211953E+00  0.57647958687E+02  0.10000000000E+01 0.  0.
    9000005    1    3    3    0    0 -0.14260474815E+02  0.55839975594E+02  0.51184391794E+02  0.77086354043E+02  0.10000000000E+01 0.  0.
<mgrwt>
<rscale>  0 0.12500218E+03</rscale>
<asrwt>0</asrwt>
<pdfrwt beam="2">  1        4 0.64967064E-02 0.12500218E+03</pdfrwt>
<pdfrwt beam="1">  1       -4 0.14231649E-01 0.12500218E+03</pdfrwt>
<totfact> 0.10243170E+04</totfact>
</mgrwt>
</event>
<event>
 5    1  0.3212987E-002  0.1250000E+03  0.7818608E-02  0.1235069E+00
          4   -1    0    0  501    0  0.00000000000E+00  0.00000000000E+00  0.47785005507E+02  0.47801879161E+02  0.12700000000E+01 0. -1.
         -4   -1    0    0    0  501 -0.00000000000E+00 -0.00000000000E+00 -0.81710113776E+02  0.81719982827E+02  0.12700000000E+01 0. -1.
         25    2    1    2    0    0  0.00000000000E+00  0.00000000000E+00 -0.33925108269E+02  0.12952186199E+03  0.12499999905E+03 0.  0.
    9000005    1    3    3    0    0 -0.38232308208E+00  0.56662758386E+02  0.10342877873E+02  0.57608935779E+02  0.10000000000E+01 0.  0.
    9000005    1    3    3    0    0  0.38232308208E+00 -0.56662758386E+02 -0.44267986142E+02  0.71912926209E+02  0.10000000000E+01 0.  0.
<mgrwt>
<rscale>  0 0.12500000E+03</rscale>
<asrwt>0</asrwt>
<pdfrwt beam="1">  1        4 0.73535964E-02 0.12500000E+03</pdfrwt>
<pdfrwt beam="2">  1       -4 0.12572844E-01 0.12500000E+03</pdfrwt>
<totfact> 0.10354747E+04</totfact>
</mgrwt>
</event>
<event>
 5    1  0.3212987E-002  0.1249968E+03  0.7818608E-02  0.1235074E+00
          4   -1    0    0  501    0  0.00000000000E+00  0.00000000000E+00  0.45775021608E+02  0.45792635906E+02  0.12700000000E+01 0. -1.
         -4   -1    0    0    0  501 -0.00000000000E+00 -0.00000000000E+00 -0.85292660941E+02  0.85302115509E+02  0.12700000000E+01 0. -1.
         25    2    1    2    0    0  0.00000000000E+00  0.00000000000E+00 -0.39517639332E+02  0.13109475142E+03  0.12499676008E+03 0.  0.
    9000005    1    3    3    0    0 -0.22194395500E+02  0.33532076793E+02  0.30408383122E+02  0.50424806690E+02  0.10000000000E+01 0.  0.
    9000005    1    3    3    0    0  0.22194395500E+02 -0.33532076793E+02 -0.69926022454E+02  0.80669944725E+02  0.10000000000E+01 0.  0.
<mgrwt>
<rscale>  0 0.12499676E+03</rscale>
<asrwt>0</asrwt>
<pdfrwt beam="1">  1        4 0.70443932E-02 0.12499676E+03</pdfrwt>
<pdfrwt beam="2">  1       -4 0.13124030E-01 0.12499676E+03</pdfrwt>
<totfact> 0.10321813E+04</totfact>
</mgrwt>
</event>
<event>
 5    1  0.3212987E-002  0.1249995E+03  0.7818608E-02  0.1235070E+00
         -4   -1    0    0    0  501 -0.00000000000E+00  0.00000000000E+00  0.45268881250E+03  0.45269059397E+03  0.12700000000E+01 0.  1.
          4   -1    0    0  501    0  0.00000000000E+00 -0.00000000000E+00 -0.85803898254E+01  0.86738682003E+01  0.12700000000E+01 0.  1.
         25    2    1    2    0    0  0.00000000000E+00  0.00000000000E+00  0.44410842268E+03  0.46136446217E+03  0.12499950343E+03 0.  0.
    9000005    1    3    3    0    0 -0.17842100261E+02  0.50679870743E+02  0.10426615478E+03  0.11729970534E+03  0.10000000000E+01 0.  0.
    9000005    1    3    3    0    0  0.17842100261E+02 -0.50679870743E+02  0.33984226790E+03  0.34406475683E+03  0.10000000000E+01 0.  0.
<mgrwt>
<rscale>  0 0.12499950E+03</rscale>
<asrwt>0</asrwt>
<pdfrwt beam="2">  1        4 0.13273872E-02 0.12499950E+03</pdfrwt>
<pdfrwt beam="1">  1       -4 0.69651786E-01 0.12499950E+03</pdfrwt>
<totfact> 0.58992412E+03</totfact>
</mgrwt>
</event>
<event>
 5    1  0.3212987E-002  0.1249853E+03  0.7818608E-02  0.1235092E+00
         -4   -1    0    0    0  501 -0.00000000000E+00  0.00000000000E+00  0.28231402007E+03  0.28231687663E+03  0.12700000000E+01 0.  1.
          4   -1    0    0  501    0  0.00000000000E+00 -0.00000000000E+00 -0.13801214801E+02  0.13859524883E+02  0.12700000000E+01 0.  1.
         25    2    1    2    0    0  0.00000000000E+00  0.00000000000E+00  0.26851280527E+03  0.29617640151E+03  0.12498533601E+03 0.  0.
    9000005    1    3    3    0    0  0.21494468051E+02 -0.48318277820E+02  0.21312346966E+03  0.21958889191E+03  0.10000000000E+01 0.  0.
    9000005    1    3    3    0    0 -0.21494468051E+02  0.48318277820E+02  0.55389335608E+02  0.76587509604E+02  0.10000000000E+01 0.  0.
<mgrwt>
<rscale>  0 0.12498534E+03</rscale>
<asrwt>0</asrwt>
<pdfrwt beam="2">  1        4 0.21279691E-02 0.12498534E+03</pdfrwt>
<pdfrwt beam="1">  1       -4 0.43437628E-01 0.12498534E+03</pdfrwt>
<totfact> 0.76105759E+03</totfact>
</mgrwt>
</event>
<event>
 5    1  0.3212987E-002  0.1249882E+03  0.7818608E-02  0.1235088E+00
          4   -1    0    0  501    0  0.00000000000E+00  0.00000000000E+00  0.25815974276E+02  0.25847193810E+02  0.12700000000E+01 0.  1.
         -4   -1    0    0    0  501 -0.00000000000E+00 -0.00000000000E+00 -0.15115737741E+03  0.15116271249E+03  0.12700000000E+01 0.  1.
         25    2    1    2    0    0  0.00000000000E+00  0.00000000000E+00 -0.12534140314E+03  0.17700990630E+03  0.12498815779E+03 0.  0.
    9000005    1    3    3    0    0 -0.52485420227E+02  0.26329647420E+02 -0.92930653265E+02  0.10993214264E+03  0.10000000000E+01 0.  0.
    9000005    1    3    3    0    0  0.52485420227E+02 -0.26329647420E+02 -0.32410749873E+02  0.67077763655E+02  0.10000000000E+01 0.  0.
<mgrwt>
<rscale>  0 0.12498816E+03</rscale>
<asrwt>0</asrwt>
<pdfrwt beam="1">  1        4 0.39745003E-02 0.12498816E+03</pdfrwt>
<pdfrwt beam="2">  1       -4 0.23257792E-01 0.12498816E+03</pdfrwt>
<totfact> 0.94183029E+03</totfact>
</mgrwt>
</event>
<event>
 5    1  0.3212987E-002  0.1250005E+03  0.7818608E-02  0.1235069E+00
         -4   -1    0    0    0  501 -0.00000000000E+00  0.00000000000E+00  0.66939972004E+02  0.66952018281E+02  0.12700000000E+01 0. -1.
          4   -1    0    0  501    0  0.00000000000E+00 -0.00000000000E+00 -0.58330745407E+02  0.58344569239E+02  0.12700000000E+01 0. -1.
         25    2    1    2    0    0  0.00000000000E+00  0.00000000000E+00  0.86092265975E+01  0.12529658752E+03  0.12500046425E+03 0.  0.
    9000005    1    3    3    0    0 -0.49579058764E+02 -0.24744871300E+02  0.33267479791E+02  0.64638354986E+02  0.10000000000E+01 0.  0.
    9000005    1    3    3    0    0  0.49579058764E+02  0.24744871300E+02 -0.24658253194E+02  0.60658232534E+02  0.10000000000E+01 0.  0.
<mgrwt>
<rscale>  0 0.12500046E+03</rscale>
<asrwt>0</asrwt>
<pdfrwt beam="2">  1        4 0.89759509E-02 0.12500046E+03</pdfrwt>
<pdfrwt beam="1">  1       -4 0.10300447E-01 0.12500046E+03</pdfrwt>
<totfact> 0.10446314E+04</totfact>
</mgrwt>
</event>
<event>
 5    1  0.3212987E-002  0.1250034E+03  0.7818608E-02  0.1235064E+00
         -4   -1    0    0    0  501 -0.00000000000E+00  0.00000000000E+00  0.39174889979E+02  0.39195470464E+02  0.12700000000E+01 0. -1.
          4   -1    0    0  501    0  0.00000000000E+00 -0.00000000000E+00 -0.99667731094E+02  0.99675822151E+02  0.12700000000E+01 0. -1.
         25    2    1    2    0    0  0.00000000000E+00  0.00000000000E+00 -0.60492841115E+02  0.13887129261E+03  0.12500340830E+03 0.  0.
    9000005    1    3    3    0    0  0.32406319312E+02  0.39702181890E+02 -0.69977560918E+02  0.86742675830E+02  0.10000000000E+01 0.  0.
    9000005    1    3    3    0    0 -0.32406319312E+02 -0.39702181890E+02  0.94847198036E+01  0.52128616785E+02  0.10000000000E+01 0.  0.
<mgrwt>
<rscale>  0 0.12500341E+03</rscale>
<asrwt>0</asrwt>
<pdfrwt beam="2">  1        4 0.15335703E-01 0.12500341E+03</pdfrwt>
<pdfrwt beam="1">  1       -4 0.60291117E-02 0.12500341E+03</pdfrwt>
<totfact> 0.10156252E+04</totfact>
</mgrwt>
</event>
<event>
 5    1  0.3212987E-002  0.1250012E+03  0.7818608E-02  0.1235067E+00
         -4   -1    0    0    0  501 -0.00000000000E+00  0.00000000000E+00  0.88544009657E+03  0.88544100736E+03  0.12700000000E+01 0.  1.
          4   -1    0    0  501    0  0.00000000000E+00 -0.00000000000E+00 -0.43194055609E+01  0.45022399313E+01  0.12700000000E+01 0.  1.
         25    2    1    2    0    0  0.00000000000E+00  0.00000000000E+00  0.88112069101E+03  0.88994324729E+03  0.12500124509E+03 0.  0.
    9000005    1    3    3    0    0 -0.46494637410E+02 -0.34499205854E+02  0.60803929002E+03  0.61079024610E+03  0.10000000000E+01 0.  0.
    9000005    1    3    3    0    0  0.46494637410E+02  0.34499205854E+02  0.27308140099E+03  0.27915300120E+03  0.10000000000E+01 0.  0.
<mgrwt>
<rscale>  0 0.12500125E+03</rscale>
<asrwt>0</asrwt>
<pdfrwt beam="2">  1        4 0.67865893E-03 0.12500125E+03</pdfrwt>
<pdfrwt beam="1">  1       -4 0.13623554E+00 0.12500125E+03</pdfrwt>
<totfact> 0.34545227E+03</totfact>
</mgrwt>
</event>
<event>
 5    1  0.3212987E-002  0.1249993E+03  0.7818608E-02  0.1235070E+00
         -4   -1    0    0    0  501 -0.00000000000E+00  0.00000000000E+00  0.15229751088E+03  0.15230280601E+03  0.12700000000E+01 0.  1.
          4   -1    0    0  501    0  0.00000000000E+00 -0.00000000000E+00 -0.25627042096E+02  0.25658491510E+02  0.12700000000E+01 0.  1.
         25    2    1    2    0    0  0.00000000000E+00  0.00000000000E+00  0.12667046878E+03  0.17796129752E+03  0.12499926302E+03 0.  0.
    9000005    1    3    3    0    0 -0.57758499687E+02 -0.13496406357E+02  0.91342927239E+02  0.10891614952E+03  0.10000000000E+01 0.  0.
    9000005    1    3    3    0    0  0.57758499687E+02  0.13496406357E+02  0.35327541540E+02  0.69045147997E+02  0.10000000000E+01 0.  0.
<mgrwt>
<rscale>  0 0.12499926E+03</rscale>
<asrwt>0</asrwt>
<pdfrwt beam="2">  1        4 0.39454484E-02 0.12499926E+03</pdfrwt>
<pdfrwt beam="1">  1       -4 0.23433213E-01 0.12499926E+03</pdfrwt>
<totfact> 0.93986822E+03</totfact>
</mgrwt>
</event>
<event>
 5    1  0.3212987E-002  0.1249991E+03  0.7818608E-02  0.1235071E+00
          4   -1    0    0  501    0  0.00000000000E+00  0.00000000000E+00  0.90535528358E+02  0.90544435472E+02  0.12700000000E+01 0. -1.
         -4   -1    0    0    0  501 -0.00000000000E+00 -0.00000000000E+00 -0.43125017813E+02  0.43143714042E+02  0.12700000000E+01 0. -1.
         25    2    1    2    0    0  0.00000000000E+00  0.00000000000E+00  0.47410510545E+02  0.13368814951E+03  0.12499905924E+03 0.  0.
    9000005    1    3    3    0    0  0.25265349636E+02  0.19480076135E+02  0.81174850092E+02  0.87224810380E+02  0.10000000000E+01 0.  0.
    9000005    1    3    3    0    0 -0.25265349636E+02 -0.19480076135E+02 -0.33764339547E+02  0.46463339134E+02  0.10000000000E+01 0.  0.
<mgrwt>
<rscale>  0 0.12499906E+03</rscale>
<asrwt>0</asrwt>
<pdfrwt beam="1">  1        4 0.13930666E-01 0.12499906E+03</pdfrwt>
<pdfrwt beam="2">  1       -4 0.66367415E-02 0.12499906E+03</pdfrwt>
<totfact> 0.10266014E+04</totfact>
</mgrwt>
</event>
<event>
 5    1  0.3212987E-002  0.1250001E+03  0.7818608E-02  0.1235069E+00
         -4   -1    0    0    0  501 -0.00000000000E+00  0.00000000000E+00  0.34808849881E+03  0.34809081560E+03  0.12700000000E+01 0.  1.
          4   -1    0    0  501    0  0.00000000000E+00 -0.00000000000E+00 -0.11183722382E+02  0.11255600664E+02  0.12700000000E+01 0.  1.
         25    2    1    2    0    0  0.00000000000E+00  0.00000000000E+00  0.33690477643E+03  0.35934641627E+03  0.12500007400E+03 0.  0.
    9000005    1    3    3    0    0 -0.70224426613E+01  0.43872677125E+02  0.42121778406E+02  0.61232105264E+02  0.10000000000E+01 0.  0.
    9000005    1    3    3    0    0  0.70224426613E+01 -0.43872677125E+02  0.29478299803E+03  0.29811431100E+03  0.10000000000E+01 0.  0.
<mgrwt>
<rscale>  0 0.12500007E+03</rscale>
<asrwt>0</asrwt>
<pdfrwt beam="2">  1        4 0.17262797E-02 0.12500007E+03</pdfrwt>
<pdfrwt beam="1">  1       -4 0.53557793E-01 0.12500007E+03</pdfrwt>
<totfact> 0.68708308E+03</totfact>
</mgrwt>
</event>
<event>
 5    1  0.3212987E-002  0.1250000E+03  0.7818608E-02  0.1235069E+00
          4   -1    0    0  501    0  0.00000000000E+00  0.00000000000E+00  0.36731578145E+03  0.36731797697E+03  0.12700000000E+01 0.  1.
         -4   -1    0    0    0  501 -0.00000000000E+00 -0.00000000000E+00 -0.10594431841E+02  0.10670280504E+02  0.12700000000E+01 0.  1.
         25    2    1    2    0    0  0.00000000000E+00  0.00000000000E+00  0.35672134961E+03  0.37798825747E+03  0.12500000608E+03 0.  0.
    9000005    1    3    3    0    0  0.16601654970E+02  0.53116861421E+02  0.92392648314E+02  0.10786295646E+03  0.10000000000E+01 0.  0.
    9000005    1    3    3    0    0 -0.16601654970E+02 -0.53116861421E+02  0.26432870130E+03  0.27012530101E+03  0.10000000000E+01 0.  0.
<mgrwt>
<rscale>  0 0.12500001E+03</rscale>
<asrwt>0</asrwt>
<pdfrwt beam="1">  1        4 0.56516120E-01 0.12500001E+03</pdfrwt>
<pdfrwt beam="2">  1       -4 0.16359161E-02 0.12500001E+03</pdfrwt>
<totfact> 0.66751406E+03</totfact>
</mgrwt>
</event>
<event>
 5    1  0.3212987E-002  0.1249987E+03  0.7818608E-02  0.1235071E+00
         -4   -1    0    0    0  501 -0.00000000000E+00  0.00000000000E+00  0.53187843669E+03  0.53187995292E+03  0.12700000000E+01 0. -1.
          4   -1    0    0  501    0  0.00000000000E+00 -0.00000000000E+00 -0.72876599509E+01  0.73974919777E+01  0.12700000000E+01 0. -1.
         25    2    1    2    0    0  0.00000000000E+00  0.00000000000E+00  0.52459077674E+03  0.53927744489E+03  0.12499871813E+03 0.  0.
    9000005    1    3    3    0    0 -0.58204605341E+02  0.39846986298E+00  0.16417694290E+03  0.17419243222E+03  0.10000000000E+01 0.  0.
    9000005    1    3    3    0    0  0.58204605341E+02 -0.39846986298E+00  0.36041383383E+03  0.36508501268E+03  0.10000000000E+01 0.  0.
<mgrwt>
<rscale>  0 0.12499872E+03</rscale>
<asrwt>0</asrwt>
<pdfrwt beam="2">  1        4 0.11297438E-02 0.12499872E+03</pdfrwt>
<pdfrwt beam="1">  1       -4 0.81836008E-01 0.12499872E+03</pdfrwt>
<totfact> 0.52942199E+03</totfact>
</mgrwt>
</event>
<event>
 5    1  0.3212987E-002  0.1249980E+03  0.7818608E-02  0.1235072E+00
          4   -1    0    0  501    0  0.00000000000E+00  0.00000000000E+00  0.26066651327E+02  0.26097570986E+02  0.12700000000E+01 0.  1.
         -4   -1    0    0    0  501 -0.00000000000E+00 -0.00000000000E+00 -0.14972903157E+03  0.14973441753E+03  0.12700000000E+01 0.  1.
         25    2    1    2    0    0  0.00000000000E+00  0.00000000000E+00 -0.12366238024E+03  0.17583198852E+03  0.12499801558E+03 0.  0.
    9000005    1    3    3    0    0  0.38235950457E+02  0.36162955397E+02 -0.14432630393E+02  0.54580656559E+02  0.10000000000E+01 0.  0.
    9000005    1    3    3    0    0 -0.38235950457E+02 -0.36162955397E+02 -0.10922974985E+03  0.12125133196E+03  0.10000000000E+01 0.  0.
<mgrwt>
<rscale>  0 0.12499802E+03</rscale>
<asrwt>0</asrwt>
<pdfrwt beam="1">  1        4 0.40130469E-02 0.12499802E+03</pdfrwt>
<pdfrwt beam="2">  1       -4 0.23038028E-01 0.12499802E+03</pdfrwt>
<totfact> 0.94376885E+03</totfact>
</mgrwt>
</event>
<event>
 5    1  0.3212987E-002  0.1249598E+03  0.7818608E-02  0.1235132E+00
          4   -1    0    0  501    0  0.00000000000E+00  0.00000000000E+00  0.26099601782E+02  0.26130482452E+02  0.12700000000E+01 0.  1.
         -4   -1    0    0    0  501 -0.00000000000E+00 -0.00000000000E+00 -0.14944869989E+03  0.14945409596E+03  0.12700000000E+01 0.  1.
         25    2    1    2    0    0  0.00000000000E+00  0.00000000000E+00 -0.12334909810E+03  0.17558457841E+03  0.12495977021E+03 0.  0.
    9000005    1    3    3    0    0 -0.25546825684E+02  0.52790899065E+02 -0.91916392649E+02  0.10903734481E+03  0.10000000000E+01 0.  0.
    9000005    1    3    3    0    0  0.25546825684E+02 -0.52790899065E+02 -0.31432705456E+02  0.66547233592E+02  0.10000000000E+01 0.  0.
<mgrwt>
<rscale>  0 0.12495977E+03</rscale>
<asrwt>0</asrwt>
<pdfrwt beam="1">  1        4 0.40181139E-02 0.12495977E+03</pdfrwt>
<pdfrwt beam="2">  1       -4 0.22994898E-01 0.12495977E+03</pdfrwt>
<totfact> 0.94503142E+03</totfact>
</mgrwt>
</event>
<event>
 5    1  0.3212987E-002  0.1249965E+03  0.7818608E-02  0.1235075E+00
         -4   -1    0    0    0  501 -0.00000000000E+00  0.00000000000E+00  0.70456975837E+03  0.70457090297E+03  0.12700000000E+01 0.  1.
          4   -1    0    0  501    0  0.00000000000E+00 -0.00000000000E+00 -0.54699547092E+01  0.56154522989E+01  0.12700000000E+01 0.  1.
         25    2    1    2    0    0  0.00000000000E+00  0.00000000000E+00  0.69909980366E+03  0.71018635527E+03  0.12499649487E+03 0.  0.
    9000005    1    3    3    0    0  0.19555298743E+02  0.44484129485E+02  0.12631212993E+03  0.13534031791E+03  0.10000000000E+01 0.  0.
    9000005    1    3    3    0    0 -0.19555298743E+02 -0.44484129485E+02  0.57278767373E+03  0.57484603736E+03  0.10000000000E+01 0.  0.
<mgrwt>
<rscale>  0 0.12499649E+03</rscale>
<asrwt>0</asrwt>
<pdfrwt beam="2">  1        4 0.85281163E-03 0.12499649E+03</pdfrwt>
<pdfrwt beam="1">  1       -4 0.10840663E+00 0.12499649E+03</pdfrwt>
<totfact> 0.42557663E+03</totfact>
</mgrwt>
</event>
<event>
 5    1  0.3212987E-002  0.1250002E+03  0.7818608E-02  0.1235069E+00
          4   -1    0    0  501    0  0.00000000000E+00  0.00000000000E+00  0.27476155449E+02  0.27505490693E+02  0.12700000000E+01 0.  1.
         -4   -1    0    0    0  501 -0.00000000000E+00 -0.00000000000E+00 -0.14206106247E+03  0.14206673914E+03  0.12700000000E+01 0.  1.
         25    2    1    2    0    0  0.00000000000E+00  0.00000000000E+00 -0.11458490702E+03  0.16957222983E+03  0.12500016086E+03 0.  0.
    9000005    1    3    3    0    0 -0.17709077966E+02  0.30126130188E+02  0.12988988698E+02  0.37294892276E+02  0.10000000000E+01 0.  0.
    9000005    1    3    3    0    0  0.17709077966E+02 -0.30126130188E+02 -0.12757389572E+03  0.13227733756E+03  0.10000000000E+01 0.  0.
<mgrwt>
<rscale>  0 0.12500016E+03</rscale>
<asrwt>0</asrwt>
<pdfrwt beam="1">  1        4 0.42297941E-02 0.12500016E+03</pdfrwt>
<pdfrwt beam="2">  1       -4 0.21858241E-01 0.12500016E+03</pdfrwt>
<totfact> 0.95528078E+03</totfact>
</mgrwt>
</event>
<event>
 5    1  0.3212987E-002  0.1249999E+03  0.7818608E-02  0.1235069E+00
          4   -1    0    0  501    0  0.00000000000E+00  0.00000000000E+00  0.11076868579E+03  0.11077596604E+03  0.12700000000E+01 0.  1.
         -4   -1    0    0    0  501 -0.00000000000E+00 -0.00000000000E+00 -0.35245011933E+02  0.35267885762E+02  0.12700000000E+01 0.  1.
         25    2    1    2    0    0  0.00000000000E+00  0.00000000000E+00  0.75523673859E+02  0.14604385180E+03  0.12499992534E+03 0.  0.
    9000005    1    3    3    0    0 -0.25638970102E+02 -0.33190888383E+02  0.91888846118E+02  0.10101263238E+03  0.10000000000E+01 0.  0.
    9000005    1    3    3    0    0  0.25638970102E+02  0.33190888383E+02 -0.16365172259E+02  0.45031219421E+02  0.10000000000E+01 0.  0.
<mgrwt>
<rscale>  0 0.12499993E+03</rscale>
<asrwt>0</asrwt>
<pdfrwt beam="1">  1        4 0.17043656E-01 0.12499993E+03</pdfrwt>
<pdfrwt beam="2">  1       -4 0.54246292E-02 0.12499993E+03</pdfrwt>
<totfact> 0.10009840E+04</totfact>
</mgrwt>
</event>
<event>
 5    1  0.3212987E-002  0.1250016E+03  0.7818608E-02  0.1235067E+00
         -4   -1    0    0    0  501 -0.00000000000E+00  0.00000000000E+00  0.38589112872E+03  0.38589321856E+03  0.12700000000E+01 0.  1.
          4   -1    0    0  501    0  0.00000000000E+00 -0.00000000000E+00 -0.10080977167E+02  0.10160659459E+02  0.12700000000E+01 0.  1.
         25    2    1    2    0    0  0.00000000000E+00  0.00000000000E+00  0.37581015156E+03  0.39605387801E+03  0.12500161710E+03 0.  0.
    9000005    1    3    3    0    0  0.14645826501E+02 -0.18697707625E+01  0.38030110395E+03  0.38058891988E+03  0.10000000000E+01 0.  0.
    9000005    1    3    3    0    0 -0.14645826501E+02  0.18697707625E+01 -0.44909523890E+01  0.15464958130E+02  0.10000000000E+01 0.  0.
<mgrwt>
<rscale>  0 0.12500162E+03</rscale>
<asrwt>0</asrwt>
<pdfrwt beam="2">  1        4 0.15572098E-02 0.12500162E+03</pdfrwt>
<pdfrwt beam="1">  1       -4 0.59374152E-01 0.12500162E+03</pdfrwt>
<totfact> 0.64936084E+03</totfact>
</mgrwt>
</event>
<event>
 5    1  0.3212987E-002  0.1250010E+03  0.7818608E-02  0.1235068E+00
         -4   -1    0    0    0  501 -0.00000000000E+00  0.00000000000E+00  0.69822806754E+02  0.69834355750E+02  0.12700000000E+01 0. -1.
          4   -1    0    0  501    0  0.00000000000E+00 -0.00000000000E+00 -0.55922713202E+02  0.55937132138E+02  0.12700000000E+01 0. -1.
         25    2    1    2    0    0  0.00000000000E+00  0.00000000000E+00  0.13900093552E+02  0.12577148789E+03  0.12500101825E+03 0.  0.
    9000005    1    3    3    0    0  0.85526390288E+00 -0.36044576598E+02  0.58307491476E+02  0.68561698788E+02  0.10000000000E+01 0.  0.
    9000005    1    3    3    0    0 -0.85526390288E+00  0.36044576598E+02 -0.44407397924E+02  0.57209789100E+02  0.10000000000E+01 0.  0.
<mgrwt>
<rscale>  0 0.12500102E+03</rscale>
<asrwt>0</asrwt>
<pdfrwt beam="2">  1        4 0.86054920E-02 0.12500102E+03</pdfrwt>
<pdfrwt beam="1">  1       -4 0.10743968E-01 0.12500102E+03</pdfrwt>
<totfact> 0.10435732E+04</totfact>
</mgrwt>
</event>
<event>
 5    1  0.3212987E-002  0.1249890E+03  0.7818608E-02  0.1235086E+00
         -4   -1    0    0    0  501 -0.00000000000E+00  0.00000000000E+00  0.31635793803E+03  0.31636048719E+03  0.12700000000E+01 0.  1.
          4   -1    0    0  501    0  0.00000000000E+00 -0.00000000000E+00 -0.12310125944E+02  0.12375463658E+02  0.12700000000E+01 0.  1.
         25    2    1    2    0    0  0.00000000000E+00  0.00000000000E+00  0.30404781209E+03  0.32873595085E+03  0.12498901290E+03 0.  0.
    9000005    1    3    3    0    0 -0.13035586711E+02 -0.29362190861E+02  0.11060860785E+02  0.33991284389E+02  0.10000000000E+01 0.  0.
    9000005    1    3    3    0    0  0.13035586711E+02  0.29362190861E+02  0.29298695130E+03  0.29474466646E+03  0.10000000000E+01 0.  0.
<mgrwt>
<rscale>  0 0.12498901E+03</rscale>
<asrwt>0</asrwt>
<pdfrwt beam="2">  1        4 0.18990876E-02 0.12498901E+03</pdfrwt>
<pdfrwt beam="1">  1       -4 0.48675674E-01 0.12498901E+03</pdfrwt>
<totfact> 0.72146566E+03</totfact>
</mgrwt>
</event>
<event>
 5    1  0.3212987E-002  0.1249931E+03  0.7818608E-02  0.1235080E+00
         -4   -1    0    0    0  501 -0.00000000000E+00  0.00000000000E+00  0.66530127529E+01  0.67731439295E+01  0.12700000000E+01 0. -1.
          4   -1    0    0  501    0  0.00000000000E+00 -0.00000000000E+00 -0.58170140870E+03  0.58170279506E+03  0.12700000000E+01 0. -1.
         25    2    1    2    0    0  0.00000000000E+00  0.00000000000E+00 -0.57504839594E+03  0.58847593899E+03  0.12499309217E+03 0.  0.
    9000005    1    3    3    0    0 -0.30998253136E+02  0.10404722377E+02 -0.36814915074E+02  0.49249242808E+02  0.10000000000E+01 0.  0.
    9000005    1    3    3    0    0  0.30998253136E+02 -0.10404722377E+02 -0.53823348087E+03  0.53922669618E+03  0.10000000000E+01 0.  0.
<mgrwt>
<rscale>  0 0.12499309E+03</rscale>
<asrwt>0</asrwt>
<pdfrwt beam="2">  1        4 0.89501832E-01 0.12499309E+03</pdfrwt>
<pdfrwt beam="1">  1       -4 0.10328884E-02 0.12499309E+03</pdfrwt>
<totfact> 0.49610749E+03</totfact>
</mgrwt>
</event>
<event>
 5    1  0.3212987E-002  0.1249886E+03  0.7818608E-02  0.1235087E+00
          4   -1    0    0  501    0  0.00000000000E+00  0.00000000000E+00  0.11133730850E+03  0.11134455157E+03  0.12700000000E+01 0.  1.
         -4   -1    0    0    0  501 -0.00000000000E+00 -0.00000000000E+00 -0.35058541579E+02  0.35081536991E+02  0.12700000000E+01 0.  1.
         25    2    1    2    0    0  0.00000000000E+00  0.00000000000E+00  0.76278766923E+02  0.14642608856E+03  0.12498859599E+03 0.  0.
    9000005    1    3    3    0    0  0.12640080645E+02 -0.26047162206E+02  0.10301121672E+03  0.10700718232E+03  0.10000000000E+01 0.  0.
    9000005    1    3    3    0    0 -0.12640080645E+02  0.26047162206E+02 -0.26732449794E+02  0.39418906246E+02  0.10000000000E+01 0.  0.
<mgrwt>
<rscale>  0 0.12498860E+03</rscale>
<asrwt>0</asrwt>
<pdfrwt beam="1">  1        4 0.17131143E-01 0.12498860E+03</pdfrwt>
<pdfrwt beam="2">  1       -4 0.53959479E-02 0.12498860E+03</pdfrwt>
<totfact> 0.10004662E+04</totfact>
</mgrwt>
</event>
<event>
 5    1  0.3212987E-002  0.1250010E+03  0.7818608E-02  0.1235068E+00
          4   -1    0    0  501    0  0.00000000000E+00  0.00000000000E+00  0.11144961013E+03  0.11145684590E+03  0.12700000000E+01 0.  1.
         -4   -1    0    0    0  501 -0.00000000000E+00 -0.00000000000E+00 -0.35030170593E+02  0.35053184617E+02  0.12700000000E+01 0.  1.
         25    2    1    2    0    0  0.00000000000E+00  0.00000000000E+00  0.76419439540E+02  0.14651003052E+03  0.12500103321E+03 0.  0.
    9000005    1    3    3    0    0  0.27454335087E+02 -0.35109088225E+02  0.89552912100E+02  0.10003555696E+03  0.10000000000E+01 0.  0.
    9000005    1    3    3    0    0 -0.27454335087E+02  0.35109088225E+02 -0.13133472560E+02  0.46474473558E+02  0.10000000000E+01 0.  0.
<mgrwt>
<rscale>  0 0.12500103E+03</rscale>
<asrwt>0</asrwt>
<pdfrwt beam="1">  1        4 0.17148421E-01 0.12500103E+03</pdfrwt>
<pdfrwt beam="2">  1       -4 0.53915839E-02 0.12500103E+03</pdfrwt>
<totfact> 0.10000165E+04</totfact>
</mgrwt>
</event>
<event>
 5    1  0.3212987E-002  0.1249980E+03  0.7818608E-02  0.1235072E+00
          4   -1    0    0  501    0  0.00000000000E+00  0.00000000000E+00  0.28460256877E+02  0.28488578791E+02  0.12700000000E+01 0.  1.
         -4   -1    0    0    0  501 -0.00000000000E+00 -0.00000000000E+00 -0.13714885110E+03  0.13715473108E+03  0.12700000000E+01 0.  1.
         25    2    1    2    0    0  0.00000000000E+00  0.00000000000E+00 -0.10868859422E+03  0.16564330987E+03  0.12499798235E+03 0.  0.
    9000005    1    3    3    0    0  0.48744182670E+02  0.18835877278E+02 -0.89326236718E+01  0.53024309356E+02  0.10000000000E+01 0.  0.
    9000005    1    3    3    0    0 -0.48744182670E+02 -0.18835877278E+02 -0.99755970553E+02  0.11261900052E+03  0.10000000000E+01 0.  0.
<mgrwt>
<rscale>  0 0.12499798E+03</rscale>
<asrwt>0</asrwt>
<pdfrwt beam="1">  1        4 0.43811321E-02 0.12499798E+03</pdfrwt>
<pdfrwt beam="2">  1       -4 0.21102454E-01 0.12499798E+03</pdfrwt>
<totfact> 0.96270062E+03</totfact>
</mgrwt>
</event>
<event>
 5    1  0.3212987E-002  0.1250016E+03  0.7818608E-02  0.1235067E+00
         -4   -1    0    0    0  501 -0.00000000000E+00  0.00000000000E+00  0.68679586065E+01  0.69843937046E+01  0.12700000000E+01 0. -1.
          4   -1    0    0  501    0  0.00000000000E+00 -0.00000000000E+00 -0.56388072908E+03  0.56388215926E+03  0.12700000000E+01 0. -1.
         25    2    1    2    0    0  0.00000000000E+00  0.00000000000E+00 -0.55701277047E+03  0.57086655296E+03  0.12500157927E+03 0.  0.
    9000005    1    3    3    0    0  0.31982839857E+02  0.53433142238E+02 -0.30238811420E+03  0.30873544394E+03  0.10000000000E+01 0.  0.
    9000005    1    3    3    0    0 -0.31982839857E+02 -0.53433142238E+02 -0.25462465627E+03  0.26213110902E+03  0.10000000000E+01 0.  0.
<mgrwt>
<rscale>  0 0.12500158E+03</rscale>
<asrwt>0</asrwt>
<pdfrwt beam="2">  1        4 0.86759912E-01 0.12500158E+03</pdfrwt>
<pdfrwt beam="1">  1       -4 0.10656760E-02 0.12500158E+03</pdfrwt>
<totfact> 0.50758053E+03</totfact>
</mgrwt>
</event>
<event>
 5    1  0.3212987E-002  0.1250021E+03  0.7818608E-02  0.1235066E+00
          4   -1    0    0  501    0  0.00000000000E+00  0.00000000000E+00  0.94796172509E+02  0.94804679327E+02  0.12700000000E+01 0. -1.
         -4   -1    0    0    0  501 -0.00000000000E+00 -0.00000000000E+00 -0.41188046974E+02  0.41207622032E+02  0.12700000000E+01 0. -1.
         25    2    1    2    0    0  0.00000000000E+00  0.00000000000E+00  0.53608125535E+02  0.13601230136E+03  0.12500205997E+03 0.  0.
    9000005    1    3    3    0    0 -0.12512954817E+02 -0.47617711751E+02 -0.15074432396E+02  0.51500087599E+02  0.10000000000E+01 0.  0.
    9000005    1    3    3    0    0  0.12512954817E+02  0.47617711751E+02  0.68682557932E+02  0.84512213760E+02  0.10000000000E+01 0.  0.
<mgrwt>
<rscale>  0 0.12500206E+03</rscale>
<asrwt>0</asrwt>
<pdfrwt beam="1">  1        4 0.14586187E-01 0.12500206E+03</pdfrwt>
<pdfrwt beam="2">  1       -4 0.63387828E-02 0.12500206E+03</pdfrwt>
<totfact> 0.10216303E+04</totfact>
</mgrwt>
</event>
<event>
 5    1  0.3212987E-002  0.1249980E+03  0.7818608E-02  0.1235072E+00
          4   -1    0    0  501    0  0.00000000000E+00  0.00000000000E+00  0.19137868408E+02  0.19179961084E+02  0.12700000000E+01 0.  1.
         -4   -1    0    0    0  501 -0.00000000000E+00 -0.00000000000E+00 -0.20383613622E+03  0.20384009254E+03  0.12700000000E+01 0.  1.
         25    2    1    2    0    0  0.00000000000E+00  0.00000000000E+00 -0.18469826781E+03  0.22302005363E+03  0.12499797674E+03 0.  0.
    9000005    1    3    3    0    0 -0.26588417871E+02  0.54558839332E+02 -0.11890375948E+03  0.13350174131E+03  0.10000000000E+01 0.  0.
    9000005    1    3    3    0    0  0.26588417871E+02 -0.54558839332E+02 -0.65794508334E+02  0.89518312323E+02  0.10000000000E+01 0.  0.
<mgrwt>
<rscale>  0 0.12499798E+03</rscale>
<asrwt>0</asrwt>
<pdfrwt beam="1">  1        4 0.29478298E-02 0.12499798E+03</pdfrwt>
<pdfrwt beam="2">  1       -4 0.31362946E-01 0.12499798E+03</pdfrwt>
<totfact> 0.86396614E+03</totfact>
</mgrwt>
</event>
<event>
 5    1  0.3212987E-002  0.1249768E+03  0.7818608E-02  0.1235105E+00
          4   -1    0    0  501    0  0.00000000000E+00  0.00000000000E+00  0.27385305241E+02  0.27414737700E+02  0.12700000000E+01 0. -1.
         -4   -1    0    0    0  501 -0.00000000000E+00 -0.00000000000E+00 -0.14247866417E+03  0.14248432421E+03  0.12700000000E+01 0. -1.
         25    2    1    2    0    0  0.00000000000E+00  0.00000000000E+00 -0.11509335893E+03  0.16989906190E+03  0.12497683772E+03 0.  0.
    9000005    1    3    3    0    0  0.17120097035E+02  0.22536337202E+01 -0.13917705266E+03  0.14024774000E+03  0.10000000000E+01 0.  0.
    9000005    1    3    3    0    0 -0.17120097035E+02 -0.22536337202E+01  0.24083693727E+02  0.29651321909E+02  0.10000000000E+01 0.  0.
<mgrwt>
<rscale>  0 0.12497684E+03</rscale>
<asrwt>0</asrwt>
<pdfrwt beam="1">  1        4 0.42158234E-02 0.12497684E+03</pdfrwt>
<pdfrwt beam="2">  1       -4 0.21922493E-01 0.12497684E+03</pdfrwt>
<totfact> 0.95517103E+03</totfact>
</mgrwt>
</event>
<event>
 4    1  0.3212987E-002  0.1247800E+03  0.7818608E-02  0.1235414E+00
          4   -1    0    0  501    0  0.00000000000E+00  0.00000000000E+00  0.37001557006E+03  0.37001774956E+03  0.12700000000E+01 0.  1.
         -4   -1    0    0    0  501 -0.00000000000E+00 -0.00000000000E+00 -0.10479308725E+02  0.10555984623E+02  0.12700000000E+01 0.  1.
    9000005    1    1    2    0    0 -0.25893605844E+02 -0.36781924011E+01  0.70342888991E+01  0.27101460168E+02  0.10000000000E+01 0.  0.
    9000005    1    1    2    0    0  0.25893605844E+02  0.36781924011E+01  0.35250197244E+03  0.35347227401E+03  0.10000000000E+01 0.  0.
<mgrwt>
<rscale>  0 0.12477998E+03</rscale>
<asrwt>0</asrwt>
<pdfrwt beam="1">  1        4 0.56931547E-01 0.12477998E+03</pdfrwt>
<pdfrwt beam="2">  1       -4 0.16182669E-02 0.12477998E+03</pdfrwt>
<totfact> 0.66811315E+03</totfact>
</mgrwt>
</event>
<event>
 5    1  0.3212987E-002  0.1250009E+03  0.7818608E-02  0.1235068E+00
          4   -1    0    0  501    0  0.00000000000E+00  0.00000000000E+00  0.13379322461E+03  0.13379925206E+03  0.12700000000E+01 0. -1.
         -4   -1    0    0    0  501 -0.00000000000E+00 -0.00000000000E+00 -0.29176095020E+02  0.29203722718E+02  0.12700000000E+01 0. -1.
         25    2    1    2    0    0  0.00000000000E+00  0.00000000000E+00  0.10461712959E+03  0.16300297477E+03  0.12500090393E+03 0.  0.
    9000005    1    3    3    0    0  0.30072159645E+02  0.47947543083E+02  0.86858912662E+02  0.10367628650E+03  0.10000000000E+01 0.  0.
    9000005    1    3    3    0    0 -0.30072159645E+02 -0.47947543083E+02  0.17758216926E+02  0.59326688276E+02  0.10000000000E+01 0.  0.
<mgrwt>
<rscale>  0 0.12500090E+03</rscale>
<asrwt>0</asrwt>
<pdfrwt beam="1">  1        4 0.20586162E-01 0.12500090E+03</pdfrwt>
<pdfrwt beam="2">  1       -4 0.44912189E-02 0.12500090E+03</pdfrwt>
<totfact> 0.96764974E+03</totfact>
</mgrwt>
</event>
<event>
 5    1  0.3212987E-002  0.1250006E+03  0.7818608E-02  0.1235068E+00
          4   -1    0    0  501    0  0.00000000000E+00  0.00000000000E+00  0.77823160416E+02  0.77833522322E+02  0.12700000000E+01 0. -1.
         -4   -1    0    0    0  501 -0.00000000000E+00 -0.00000000000E+00 -0.50172666829E+02  0.50188737748E+02  0.12700000000E+01 0. -1.
         25    2    1    2    0    0  0.00000000000E+00  0.00000000000E+00  0.27650493587E+02  0.12802226007E+03  0.12500059711E+03 0.  0.
    9000005    1    3    3    0    0  0.53980033567E+02  0.31149697546E+02  0.91163173883E+01  0.62994086419E+02  0.10000000000E+01 0.  0.
    9000005    1    3    3    0    0 -0.53980033567E+02 -0.31149697546E+02  0.18534176198E+02  0.65028173651E+02  0.10000000000E+01 0.  0.
<mgrwt>
<rscale>  0 0.12500060E+03</rscale>
<asrwt>0</asrwt>
<pdfrwt beam="1">  1        4 0.11974827E-01 0.12500060E+03</pdfrwt>
<pdfrwt beam="2">  1       -4 0.77209052E-02 0.12500060E+03</pdfrwt>
<totfact> 0.10386867E+04</totfact>
</mgrwt>
</event>
<event>
 5    1  0.3212987E-002  0.1250096E+03  0.7818608E-02  0.1235054E+00
          4   -1    0    0  501    0  0.00000000000E+00  0.00000000000E+00  0.78224338792E+02  0.78234647564E+02  0.12700000000E+01 0.  1.
         -4   -1    0    0    0  501 -0.00000000000E+00 -0.00000000000E+00 -0.49922524278E+02  0.49938675696E+02  0.12700000000E+01 0.  1.
         25    2    1    2    0    0  0.00000000000E+00  0.00000000000E+00  0.28301814513E+02  0.12817332326E+03  0.12500963199E+03 0.  0.
    9000005    1    3    3    0    0 -0.55687163709E+02 -0.60305361215E+01 -0.14271100716E+02  0.57810828428E+02  0.10000000000E+01 0.  0.
    9000005    1    3    3    0    0  0.55687163709E+02  0.60305361215E+01  0.42572915230E+02  0.70362494832E+02  0.10000000000E+01 0.  0.
<mgrwt>
<rscale>  0 0.12500963E+03</rscale>
<asrwt>0</asrwt>
<pdfrwt beam="1">  1        4 0.12036549E-01 0.12500963E+03</pdfrwt>
<pdfrwt beam="2">  1       -4 0.76824238E-02 0.12500963E+03</pdfrwt>
<totfact> 0.10381489E+04</totfact>
</mgrwt>
</event>
<event>
 5    1  0.3212987E-002  0.1250050E+03  0.7818608E-02  0.1235061E+00
         -4   -1    0    0    0  501 -0.00000000000E+00  0.00000000000E+00  0.15541137933E+02  0.15592942899E+02  0.12700000000E+01 0. -1.
          4   -1    0    0  501    0  0.00000000000E+00 -0.00000000000E+00 -0.25089743901E+03  0.25090065325E+03  0.12700000000E+01 0. -1.
         25    2    1    2    0    0  0.00000000000E+00  0.00000000000E+00 -0.23535630107E+03  0.26649359615E+03  0.12500499323E+03 0.  0.
    9000005    1    3    3    0    0 -0.16180562009E+02  0.34246314117E+02 -0.11706269035E+02  0.39656744096E+02  0.10000000000E+01 0.  0.
    9000005    1    3    3    0    0  0.16180562009E+02 -0.34246314117E+02 -0.22365003204E+03  0.22683685205E+03  0.10000000000E+01 0.  0.
<mgrwt>
<rscale>  0 0.12500499E+03</rscale>
<asrwt>0</asrwt>
<pdfrwt beam="2">  1        4 0.38603835E-01 0.12500499E+03</pdfrwt>
<pdfrwt beam="1">  1       -4 0.23951767E-02 0.12500499E+03</pdfrwt>
<totfact> 0.79994440E+03</totfact>
</mgrwt>
</event>
<event>
 5    1  0.3212987E-002  0.1250003E+03  0.7818608E-02  0.1235069E+00
          4   -1    0    0  501    0  0.00000000000E+00  0.00000000000E+00  0.41139728013E+02  0.41159326051E+02  0.12700000000E+01 0.  1.
         -4   -1    0    0    0  501 -0.00000000000E+00 -0.00000000000E+00 -0.94904788431E+02  0.94913285514E+02  0.12700000000E+01 0.  1.
         25    2    1    2    0    0  0.00000000000E+00  0.00000000000E+00 -0.53765060418E+02  0.13607261157E+03  0.12500029559E+03 0.  0.
    9000005    1    3    3    0    0  0.11039323981E+02  0.57465743133E+02 -0.30059062293E+01  0.58602165318E+02  0.10000000000E+01 0.  0.
    9000005    1    3    3    0    0 -0.11039323981E+02 -0.57465743133E+02 -0.50759154189E+02  0.77470446247E+02  0.10000000000E+01 0.  0.
<mgrwt>
<rscale>  0 0.12500030E+03</rscale>
<asrwt>0</asrwt>
<pdfrwt beam="1">  1        4 0.63313501E-02 0.12500030E+03</pdfrwt>
<pdfrwt beam="2">  1       -4 0.14602898E-01 0.12500030E+03</pdfrwt>
<totfact> 0.10215444E+04</totfact>
</mgrwt>
</event>
<event>
 5    1  0.3212987E-002  0.1250020E+03  0.7818608E-02  0.1235066E+00
         -4   -1    0    0    0  501 -0.00000000000E+00  0.00000000000E+00  0.13168581461E+04  0.13168587585E+04  0.12700000000E+01 0. -1.
          4   -1    0    0  501    0  0.00000000000E+00 -0.00000000000E+00 -0.28298667164E+01  0.31017810420E+01  0.12700000000E+01 0. -1.
         25    2    1    2    0    0  0.00000000000E+00  0.00000000000E+00  0.13140282794E+04  0.13199605395E+04  0.12500202774E+03 0.  0.
    9000005    1    3    3    0    0 -0.17642881889E+02 -0.33950753340E+02  0.13525752036E+03  0.14056856600E+03  0.10000000000E+01 0.  0.
    9000005    1    3    3    0    0  0.17642881889E+02  0.33950753340E+02  0.11787707590E+04  0.11793919735E+04  0.10000000000E+01 0.  0.
<mgrwt>
<rscale>  0 0.12500203E+03</rscale>
<asrwt>0</asrwt>
<pdfrwt beam="2">  1        4 0.45632587E-03 0.12500203E+03</pdfrwt>
<pdfrwt beam="1">  1       -4 0.20261534E+00 0.12500203E+03</pdfrwt>
<totfact> 0.21761178E+03</totfact>
</mgrwt>
</event>
<event>
 5    1  0.3212987E-002  0.1250011E+03  0.7818608E-02  0.1235068E+00
          4   -1    0    0  501    0  0.00000000000E+00  0.00000000000E+00  0.79232805252E+02  0.79242982831E+02  0.12700000000E+01 0. -1.
         -4   -1    0    0    0  501 -0.00000000000E+00 -0.00000000000E+00 -0.49280240847E+02  0.49296602702E+02  0.12700000000E+01 0. -1.
         25    2    1    2    0    0  0.00000000000E+00  0.00000000000E+00  0.29952564404E+02  0.12853958553E+03  0.12500107573E+03 0.  0.
    9000005    1    3    3    0    0  0.58330810208E+02 -0.12084119166E+02  0.34400357912E+02  0.68796031717E+02  0.10000000000E+01 0.  0.
    9000005    1    3    3    0    0 -0.58330810208E+02  0.12084119166E+02 -0.44477935077E+01  0.59743553816E+02  0.10000000000E+01 0.  0.
<mgrwt>
<rscale>  0 0.12500108E+03</rscale>
<asrwt>0</asrwt>
<pdfrwt beam="1">  1        4 0.12191704E-01 0.12500108E+03</pdfrwt>
<pdfrwt beam="2">  1       -4 0.75836171E-02 0.12500108E+03</pdfrwt>
<totfact> 0.10375599E+04</totfact>
</mgrwt>
</event>
<event>
 5    1  0.3212987E-002  0.1250004E+03  0.7818608E-02  0.1235069E+00
          4   -1    0    0  501    0  0.00000000000E+00  0.00000000000E+00  0.69493339025E+03  0.69493455072E+03  0.12700000000E+01 0.  1.
         -4   -1    0    0    0  501 -0.00000000000E+00 -0.00000000000E+00 -0.55481635581E+01  0.56916622236E+01  0.12700000000E+01 0.  1.
         25    2    1    2    0    0  0.00000000000E+00  0.00000000000E+00  0.68938522670E+03  0.70062621295E+03  0.12500039793E+03 0.  0.
    9000005    1    3    3    0    0 -0.62486967737E+02  0.65569934948E+00  0.34734414861E+03  0.35292209997E+03  0.10000000000E+01 0.  0.
    9000005    1    3    3    0    0  0.62486967737E+02 -0.65569934948E+00  0.34204107809E+03  0.34770411297E+03  0.10000000000E+01 0.  0.
<mgrwt>
<rscale>  0 0.12500040E+03</rscale>
<asrwt>0</asrwt>
<pdfrwt beam="1">  1        4 0.10692385E+00 0.12500040E+03</pdfrwt>
<pdfrwt beam="2">  1       -4 0.86469210E-03 0.12500040E+03</pdfrwt>
<totfact> 0.43053314E+03</totfact>
</mgrwt>
</event>
<event>
 5    1  0.3212987E-002  0.1250014E+03  0.7818608E-02  0.1235067E+00
          4   -1    0    0  501    0  0.00000000000E+00  0.00000000000E+00  0.27798852970E+03  0.27799143070E+03  0.12700000000E+01 0. -1.
         -4   -1    0    0    0  501 -0.00000000000E+00 -0.00000000000E+00 -0.14020474131E+02  0.14077876078E+02  0.12700000000E+01 0. -1.
         25    2    1    2    0    0  0.00000000000E+00  0.00000000000E+00  0.26396805557E+03  0.29206930678E+03  0.12500138241E+03 0.  0.
    9000005    1    3    3    0    0  0.59237153747E+02  0.17907959416E+02  0.11166818271E+03  0.12767348364E+03  0.10000000000E+01 0.  0.
    9000005    1    3    3    0    0 -0.59237153747E+02 -0.17907959416E+02  0.15229987285E+03  0.16439582314E+03  0.10000000000E+01 0.  0.
<mgrwt>
<rscale>  0 0.12500138E+03</rscale>
<asrwt>0</asrwt>
<pdfrwt beam="1">  1        4 0.42772096E-01 0.12500138E+03</pdfrwt>
<pdfrwt beam="2">  1       -4 0.21616352E-02 0.12500138E+03</pdfrwt>
<totfact> 0.76602196E+03</totfact>
</mgrwt>
</event>
<event>
 4    1  0.3212987E-002  0.1252447E+03  0.7818608E-02  0.1234687E+00
          4   -1    0    0  501    0  0.00000000000E+00  0.00000000000E+00  0.28492910835E+02  0.28521200323E+02  0.12700000000E+01 0.  1.
         -4   -1    0    0    0  501 -0.00000000000E+00 -0.00000000000E+00 -0.13753333959E+03  0.13753920314E+03  0.12700000000E+01 0.  1.
    9000005    1    1    2    0    0 -0.56121252185E+02 -0.21790070606E+02 -0.77337749466E+02  0.98012905356E+02  0.10000000000E+01 0.  0.
    9000005    1    1    2    0    0  0.56121252185E+02  0.21790070606E+02 -0.31702679291E+02  0.68047498103E+02  0.10000000000E+01 0.  0.
<mgrwt>
<rscale>  0 0.12524473E+03</rscale>
<asrwt>0</asrwt>
<pdfrwt beam="1">  1        4 0.43861520E-02 0.12524473E+03</pdfrwt>
<pdfrwt beam="2">  1       -4 0.21161602E-01 0.12524473E+03</pdfrwt>
<totfact> 0.95660093E+03</totfact>
</mgrwt>
</event>
<event>
 5    1  0.3212987E-002  0.1250043E+03  0.7818608E-02  0.1235063E+00
          4   -1    0    0  501    0  0.00000000000E+00  0.00000000000E+00  0.52972149746E+02  0.52987371597E+02  0.12700000000E+01 0.  1.
         -4   -1    0    0    0  501 -0.00000000000E+00 -0.00000000000E+00 -0.73715389200E+02  0.73726328438E+02  0.12700000000E+01 0.  1.
         25    2    1    2    0    0  0.00000000000E+00  0.00000000000E+00 -0.20743239453E+02  0.12671370003E+03  0.12500431910E+03 0.  0.
    9000005    1    3    3    0    0 -0.20933749791E+02 -0.56921976145E+02  0.49072069765E+01  0.60855681156E+02  0.10000000000E+01 0.  0.
    9000005    1    3    3    0    0  0.20933749791E+02  0.56921976145E+02 -0.25650446430E+02  0.65858018879E+02  0.10000000000E+01 0.  0.
<mgrwt>
<rscale>  0 0.12500432E+03</rscale>
<asrwt>0</asrwt>
<pdfrwt beam="1">  1        4 0.81515739E-02 0.12500432E+03</pdfrwt>
<pdfrwt beam="2">  1       -4 0.11342842E-01 0.12500432E+03</pdfrwt>
<totfact> 0.10414357E+04</totfact>
</mgrwt>
</event>
<event>
 5    1  0.3212987E-002  0.1250001E+03  0.7818608E-02  0.1235069E+00
         -4   -1    0    0    0  501 -0.00000000000E+00  0.00000000000E+00  0.53806195035E+01  0.55284687068E+01  0.12700000000E+01 0. -1.
          4   -1    0    0  501    0  0.00000000000E+00 -0.00000000000E+00 -0.71599850647E+03  0.71599963280E+03  0.12700000000E+01 0. -1.
         25    2    1    2    0    0  0.00000000000E+00  0.00000000000E+00 -0.71061788697E+03  0.72152810150E+03  0.12500007994E+03 0.  0.
    9000005    1    3    3    0    0  0.30725919199E+02 -0.53464514679E+02 -0.41381049871E+03  0.41838100493E+03  0.10000000000E+01 0.  0.
    9000005    1    3    3    0    0 -0.30725919199E+02  0.53464514679E+02 -0.29680738826E+03  0.30314709658E+03  0.10000000000E+01 0.  0.
<mgrwt>
<rscale>  0 0.12500008E+03</rscale>
<asrwt>0</asrwt>
<pdfrwt beam="2">  1        4 0.11016500E+00 0.12500008E+03</pdfrwt>
<pdfrwt beam="1">  1       -4 0.83924784E-03 0.12500008E+03</pdfrwt>
<totfact> 0.41974280E+03</totfact>
</mgrwt>
</event>
<event>
 5    1  0.3212987E-002  0.1250016E+03  0.7818608E-02  0.1235067E+00
          4   -1    0    0  501    0  0.00000000000E+00  0.00000000000E+00  0.42216892547E+03  0.42217083572E+03  0.12700000000E+01 0.  1.
         -4   -1    0    0    0  501 -0.00000000000E+00 -0.00000000000E+00 -0.92075261337E+01  0.92946994305E+01  0.12700000000E+01 0.  1.
         25    2    1    2    0    0  0.00000000000E+00  0.00000000000E+00  0.41296139933E+03  0.43146553515E+03  0.12500156271E+03 0.  0.
    9000005    1    3    3    0    0  0.18542447019E+02 -0.54850891585E+02  0.12531810262E+03  0.13805096701E+03  0.10000000000E+01 0.  0.
    9000005    1    3    3    0    0 -0.18542447019E+02  0.54850891585E+02  0.28764329671E+03  0.29341456814E+03  0.10000000000E+01 0.  0.
<mgrwt>
<rscale>  0 0.12500156E+03</rscale>
<asrwt>0</asrwt>
<pdfrwt beam="1">  1        4 0.64955907E-01 0.12500156E+03</pdfrwt>
<pdfrwt beam="2">  1       -4 0.14233953E-02 0.12500156E+03</pdfrwt>
<totfact> 0.61601256E+03</totfact>
</mgrwt>
</event>
<event>
 5    1  0.3212987E-002  0.1250012E+03  0.7818608E-02  0.1235067E+00
          4   -1    0    0  501    0  0.00000000000E+00  0.00000000000E+00  0.27090003052E+01  0.29919195600E+01  0.12700000000E+01 0. -1.
         -4   -1    0    0    0  501 -0.00000000000E+00 -0.00000000000E+00 -0.13701370088E+04  0.13701375973E+04  0.12700000000E+01 0. -1.
         25    2    1    2    0    0  0.00000000000E+00  0.00000000000E+00 -0.13674280085E+04  0.13731295169E+04  0.12500124761E+03 0.  0.
    9000005    1    3    3    0    0  0.50786923258E+02 -0.11268653570E+02 -0.10640898027E+04  0.10653611605E+04  0.10000000000E+01 0.  0.
    9000005    1    3    3    0    0 -0.50786923258E+02  0.11268653570E+02 -0.30333820580E+03  0.30776835644E+03  0.10000000000E+01 0.  0.
<mgrwt>
<rscale>  0 0.12500125E+03</rscale>
<asrwt>0</asrwt>
<pdfrwt beam="1">  1        4 0.43857867E-03 0.12500125E+03</pdfrwt>
<pdfrwt beam="2">  1       -4 0.21081159E+00 0.12500125E+03</pdfrwt>
<totfact> 0.20564490E+03</totfact>
</mgrwt>
</event>
<event>
 5    1  0.3212987E-002  0.1250005E+03  0.7818608E-02  0.1235068E+00
          4   -1    0    0  501    0  0.00000000000E+00  0.00000000000E+00  0.69209956152E+02  0.69221607396E+02  0.12700000000E+01 0.  1.
         -4   -1    0    0    0  501 -0.00000000000E+00 -0.00000000000E+00 -0.56417516898E+02  0.56431809407E+02  0.12700000000E+01 0.  1.
         25    2    1    2    0    0  0.00000000000E+00  0.00000000000E+00  0.12792439254E+02  0.12565341680E+03  0.12500053861E+03 0.  0.
    9000005    1    3    3    0    0  0.50384111031E+02 -0.35896963685E+02 -0.24892362560E+01  0.61922103835E+02  0.10000000000E+01 0.  0.
    9000005    1    3    3    0    0 -0.50384111031E+02  0.35896963685E+02  0.15281675510E+02  0.63731312968E+02  0.10000000000E+01 0.  0.
<mgrwt>
<rscale>  0 0.12500054E+03</rscale>
<asrwt>0</asrwt>
<pdfrwt beam="1">  1        4 0.10649681E-01 0.12500054E+03</pdfrwt>
<pdfrwt beam="2">  1       -4 0.86816137E-02 0.12500054E+03</pdfrwt>
<totfact> 0.10438443E+04</totfact>
</mgrwt>
</event>
<event>
 5    1  0.3212987E-002  0.1250006E+03  0.7818608E-02  0.1235068E+00
         -4   -1    0    0    0  501 -0.00000000000E+00  0.00000000000E+00  0.11755383491E+03  0.11756069497E+03  0.12700000000E+01 0.  1.
          4   -1    0    0  501    0  0.00000000000E+00 -0.00000000000E+00 -0.33209833752E+02  0.33234108351E+02  0.12700000000E+01 0.  1.
         25    2    1    2    0    0  0.00000000000E+00  0.00000000000E+00  0.84344001155E+02  0.15079480332E+03  0.12500064871E+03 0.  0.
    9000005    1    3    3    0    0  0.44881136620E+02  0.15369336412E+02 -0.69008518766E+01  0.47949501381E+02  0.10000000000E+01 0.  0.
    9000005    1    3    3    0    0 -0.44881136620E+02 -0.15369336412E+02  0.91244853031E+02  0.10284530194E+03  0.10000000000E+01 0.  0.
<mgrwt>
<rscale>  0 0.12500065E+03</rscale>
<asrwt>0</asrwt>
<pdfrwt beam="2">  1        4 0.51116002E-02 0.12500065E+03</pdfrwt>
<pdfrwt beam="1">  1       -4 0.18087600E-01 0.12500065E+03</pdfrwt>
<totfact> 0.99144054E+03</totfact>
</mgrwt>
</event>
<event>
 5    1  0.3212987E-002  0.1249995E+03  0.7818608E-02  0.1235070E+00
          4   -1    0    0  501    0  0.00000000000E+00  0.00000000000E+00  0.39560294197E+02  0.39580674286E+02  0.12700000000E+01 0. -1.
         -4   -1    0    0    0  501 -0.00000000000E+00 -0.00000000000E+00 -0.98690988862E+02  0.98699159989E+02  0.12700000000E+01 0. -1.
         25    2    1    2    0    0  0.00000000000E+00  0.00000000000E+00 -0.59130694665E+02  0.13827983427E+03  0.12499949406E+03 0.  0.
    9000005    1    3    3    0    0 -0.58291277390E+01  0.26652445407E+02  0.32629594614E+02  0.42544353574E+02  0.10000000000E+01 0.  0.
    9000005    1    3    3    0    0  0.58291277390E+01 -0.26652445407E+02 -0.91760289279E+02  0.95735480700E+02  0.10000000000E+01 0.  0.
<mgrwt>
<rscale>  0 0.12499949E+03</rscale>
<asrwt>0</asrwt>
<pdfrwt beam="1">  1        4 0.60883954E-02 0.12499949E+03</pdfrwt>
<pdfrwt beam="2">  1       -4 0.15185425E-01 0.12499949E+03</pdfrwt>
<totfact> 0.10169478E+04</totfact>
</mgrwt>
</event>
<event>
 5    1  0.3212987E-002  0.1249955E+03  0.7818608E-02  0.1235076E+00
         -4   -1    0    0    0  501 -0.00000000000E+00  0.00000000000E+00  0.10234348820E+04  0.10234356699E+04  0.12700000000E+01 0. -1.
          4   -1    0    0  501    0  0.00000000000E+00 -0.00000000000E+00 -0.37100657513E+01  0.39214140152E+01  0.12700000000E+01 0. -1.
         25    2    1    2    0    0  0.00000000000E+00  0.00000000000E+00  0.10197248162E+04  0.10273570840E+04  0.12499550859E+03 0.  0.
    9000005    1    3    3    0    0 -0.13089680751E+02  0.68963378129E+01  0.10088718987E+04  0.10089808755E+04  0.10000000000E+01 0.  0.
    9000005    1    3    3    0    0  0.13089680751E+02 -0.68963378129E+01  0.10852917507E+02  0.18376208418E+02  0.10000000000E+01 0.  0.
<mgrwt>
<rscale>  0 0.12499551E+03</rscale>
<asrwt>0</asrwt>
<pdfrwt beam="2">  1        4 0.58709748E-03 0.12499551E+03</pdfrwt>
<pdfrwt beam="1">  1       -4 0.15746785E+00 0.12499551E+03</pdfrwt>
<totfact> 0.29715337E+03</totfact>
</mgrwt>
</event>
<event>
 5    1  0.3212987E-002  0.1250008E+03  0.7818608E-02  0.1235068E+00
          4   -1    0    0  501    0  0.00000000000E+00  0.00000000000E+00  0.13235526710E+02  0.13296317809E+02  0.12700000000E+01 0.  1.
         -4   -1    0    0    0  501 -0.00000000000E+00 -0.00000000000E+00 -0.29439905639E+03  0.29440179569E+03  0.12700000000E+01 0.  1.
         25    2    1    2    0    0  0.00000000000E+00  0.00000000000E+00 -0.28116352968E+03  0.30769811350E+03  0.12500079450E+03 0.  0.
    9000005    1    3    3    0    0 -0.49721638700E+02 -0.36932846574E+02 -0.12013100570E+03  0.13516188457E+03  0.10000000000E+01 0.  0.
    9000005    1    3    3    0    0  0.49721638700E+02  0.36932846574E+02 -0.16103252399E+03  0.17253622893E+03  0.10000000000E+01 0.  0.
<mgrwt>
<rscale>  0 0.12500079E+03</rscale>
<asrwt>0</asrwt>
<pdfrwt beam="1">  1        4 0.20411220E-02 0.12500079E+03</pdfrwt>
<pdfrwt beam="2">  1       -4 0.45297045E-01 0.12500079E+03</pdfrwt>
<totfact> 0.74641924E+03</totfact>
</mgrwt>
</event>
<event>
 5    1  0.3212987E-002  0.1250058E+03  0.7818608E-02  0.1235060E+00
          4   -1    0    0  501    0  0.00000000000E+00  0.00000000000E+00  0.42696067691E+02  0.42714951671E+02  0.12700000000E+01 0.  1.
         -4   -1    0    0    0  501 -0.00000000000E+00 -0.00000000000E+00 -0.91454651535E+02  0.91463469141E+02  0.12700000000E+01 0.  1.
         25    2    1    2    0    0  0.00000000000E+00  0.00000000000E+00 -0.48758583844E+02  0.13417842081E+03  0.12500579632E+03 0.  0.
    9000005    1    3    3    0    0  0.56468208363E+02  0.29851129464E+01  0.41822919747E+01  0.56710325525E+02  0.10000000000E+01 0.  0.
    9000005    1    3    3    0    0 -0.56468208363E+02 -0.29851129464E+01 -0.52940875819E+02  0.77468095287E+02  0.10000000000E+01 0.  0.
<mgrwt>
<rscale>  0 0.12500580E+03</rscale>
<asrwt>0</asrwt>
<pdfrwt beam="1">  1        4 0.65707567E-02 0.12500580E+03</pdfrwt>
<pdfrwt beam="2">  1       -4 0.14072077E-01 0.12500580E+03</pdfrwt>
<totfact> 0.10254076E+04</totfact>
</mgrwt>
</event>
<event>
 5    1  0.3212987E-002  0.1250011E+03  0.7818608E-02  0.1235068E+00
          4   -1    0    0  501    0  0.00000000000E+00  0.00000000000E+00  0.35909809212E+01  0.38089426323E+01  0.12700000000E+01 0.  1.
         -4   -1    0    0    0  501 -0.00000000000E+00 -0.00000000000E+00 -0.10555536111E+04  0.10555543751E+04  0.12700000000E+01 0.  1.
         25    2    1    2    0    0  0.00000000000E+00  0.00000000000E+00 -0.10519626302E+04  0.10593633177E+04  0.12500105471E+03 0.  0.
    9000005    1    3    3    0    0  0.54291996877E+02  0.24536157780E+02 -0.36615213747E+03  0.37096904417E+03  0.10000000000E+01 0.  0.
    9000005    1    3    3    0    0 -0.54291996877E+02 -0.24536157780E+02 -0.68581049271E+03  0.68839427356E+03  0.10000000000E+01 0.  0.
<mgrwt>
<rscale>  0 0.12500105E+03</rscale>
<asrwt>0</asrwt>
<pdfrwt beam="1">  1        4 0.56928450E-03 0.12500105E+03</pdfrwt>
<pdfrwt beam="2">  1       -4 0.16240945E+00 0.12500105E+03</pdfrwt>
<totfact> 0.28703589E+03</totfact>
</mgrwt>
</event>
<event>
 5    1  0.3212987E-002  0.1250018E+03  0.7818608E-02  0.1235067E+00
         -4   -1    0    0    0  501 -0.00000000000E+00  0.00000000000E+00  0.15776488191E+03  0.15776999355E+03  0.12700000000E+01 0.  1.
          4   -1    0    0  501    0  0.00000000000E+00 -0.00000000000E+00 -0.24738846790E+02  0.24771423869E+02  0.12700000000E+01 0.  1.
         25    2    1    2    0    0  0.00000000000E+00  0.00000000000E+00  0.13302603512E+03  0.18254141741E+03  0.12500177220E+03 0.  0.
    9000005    1    3    3    0    0  0.58682201254E+02 -0.13729353937E+02  0.42373024446E+02  0.73678823988E+02  0.10000000000E+01 0.  0.
    9000005    1    3    3    0    0 -0.58682201254E+02  0.13729353937E+02  0.90653010673E+02  0.10886259343E+03  0.10000000000E+01 0.  0.
<mgrwt>
<rscale>  0 0.12500177E+03</rscale>
<asrwt>0</asrwt>
<pdfrwt beam="2">  1        4 0.38088757E-02 0.12500177E+03</pdfrwt>
<pdfrwt beam="1">  1       -4 0.24274419E-01 0.12500177E+03</pdfrwt>
<totfact> 0.93157829E+03</totfact>
</mgrwt>
</event>
<event>
 5    1  0.3212987E-002  0.1249967E+03  0.7818608E-02  0.1235074E+00
          4   -1    0    0  501    0  0.00000000000E+00  0.00000000000E+00  0.11333370902E+02  0.11404306029E+02  0.12700000000E+01 0.  1.
         -4   -1    0    0    0  501 -0.00000000000E+00 -0.00000000000E+00 -0.34350251470E+03  0.34350486242E+03  0.12700000000E+01 0.  1.
         25    2    1    2    0    0  0.00000000000E+00  0.00000000000E+00 -0.33216914380E+03  0.35490916845E+03  0.12499671099E+03 0.  0.
    9000005    1    3    3    0    0  0.58857627618E+02 -0.15812512175E+02 -0.12686572608E+03  0.14074859972E+03  0.10000000000E+01 0.  0.
    9000005    1    3    3    0    0 -0.58857627618E+02  0.15812512175E+02 -0.20530341772E+03  0.21416056873E+03  0.10000000000E+01 0.  0.
<mgrwt>
<rscale>  0 0.12499671E+03</rscale>
<asrwt>0</asrwt>
<pdfrwt beam="1">  1        4 0.17492329E-02 0.12499671E+03</pdfrwt>
<pdfrwt beam="2">  1       -4 0.52852170E-01 0.12499671E+03</pdfrwt>
<totfact> 0.69192881E+03</totfact>
</mgrwt>
</event>
<event>
 5    1  0.3212987E-002  0.1249957E+03  0.7818608E-02  0.1235076E+00
          4   -1    0    0  501    0  0.00000000000E+00  0.00000000000E+00  0.38566758579E+02  0.38587663408E+02  0.12700000000E+01 0. -1.
         -4   -1    0    0    0  501 -0.00000000000E+00 -0.00000000000E+00 -0.10122611755E+03  0.10123408406E+03  0.12700000000E+01 0. -1.
         25    2    1    2    0    0  0.00000000000E+00  0.00000000000E+00 -0.62659358973E+02  0.13982174746E+03  0.12499570311E+03 0.  0.
    9000005    1    3    3    0    0  0.16180213714E+02  0.59844412329E+02 -0.40125448362E+02  0.73852587017E+02  0.10000000000E+01 0.  0.
    9000005    1    3    3    0    0 -0.16180213714E+02 -0.59844412329E+02 -0.22533910610E+02  0.65969160448E+02  0.10000000000E+01 0.  0.
<mgrwt>
<rscale>  0 0.12499570E+03</rscale>
<asrwt>0</asrwt>
<pdfrwt beam="1">  1        4 0.59355684E-02 0.12499570E+03</pdfrwt>
<pdfrwt beam="2">  1       -4 0.15575470E-01 0.12499570E+03</pdfrwt>
<totfact> 0.10138263E+04</totfact>
</mgrwt>
</event>
<event>
 5    1  0.3212987E-002  0.1250087E+03  0.7818608E-02  0.1235056E+00
          4   -1    0    0  501    0  0.00000000000E+00  0.00000000000E+00  0.39774294095E+02  0.39794564589E+02  0.12700000000E+01 0.  1.
         -4   -1    0    0    0  501 -0.00000000000E+00 -0.00000000000E+00 -0.98174721386E+02  0.98182935479E+02  0.12700000000E+01 0.  1.
         25    2    1    2    0    0  0.00000000000E+00  0.00000000000E+00 -0.58400427291E+02  0.13797750007E+03  0.12500872216E+03 0.  0.
    9000005    1    3    3    0    0  0.26434742126E+01 -0.54306543843E+02 -0.63212810706E+02  0.83384939272E+02  0.10000000000E+01 0.  0.
    9000005    1    3    3    0    0 -0.26434742126E+01  0.54306543843E+02  0.48123834152E+01  0.54592560795E+02  0.10000000000E+01 0.  0.
<mgrwt>
<rscale>  0 0.12500872E+03</rscale>
<asrwt>0</asrwt>
<pdfrwt beam="1">  1        4 0.61213133E-02 0.12500872E+03</pdfrwt>
<pdfrwt beam="2">  1       -4 0.15105994E-01 0.12500872E+03</pdfrwt>
<totfact> 0.10173676E+04</totfact>
</mgrwt>
</event>
<event>
 5    1  0.3212987E-002  0.1250006E+03  0.7818608E-02  0.1235068E+00
          4   -1    0    0  501    0  0.00000000000E+00  0.00000000000E+00  0.31400741439E+02  0.31426413460E+02  0.12700000000E+01 0.  1.
         -4   -1    0    0    0  501 -0.00000000000E+00 -0.00000000000E+00 -0.12432144353E+03  0.12432793017E+03  0.12700000000E+01 0.  1.
         25    2    1    2    0    0  0.00000000000E+00  0.00000000000E+00 -0.92920702090E+02  0.15575434363E+03  0.12500063473E+03 0.  0.
    9000005    1    3    3    0    0 -0.22285112315E+02  0.48831263070E+02 -0.86336593280E+02  0.10166673902E+03  0.10000000000E+01 0.  0.
    9000005    1    3    3    0    0  0.22285112315E+02 -0.48831263070E+02 -0.65841088093E+01  0.54087604612E+02  0.10000000000E+01 0.  0.
<mgrwt>
<rscale>  0 0.12500063E+03</rscale>
<asrwt>0</asrwt>
<pdfrwt beam="1">  1        4 0.48333571E-02 0.12500063E+03</pdfrwt>
<pdfrwt beam="2">  1       -4 0.19128849E-01 0.12500063E+03</pdfrwt>
<totfact> 0.98166214E+03</totfact>
</mgrwt>
</event>
<event>
 5    1  0.3212987E-002  0.1250012E+03  0.7818608E-02  0.1235067E+00
          4   -1    0    0  501    0  0.00000000000E+00  0.00000000000E+00  0.12161197892E+04  0.12161204523E+04  0.12700000000E+01 0.  1.
         -4   -1    0    0    0  501 -0.00000000000E+00 -0.00000000000E+00 -0.30859010999E+01  0.33370174705E+01  0.12700000000E+01 0.  1.
         25    2    1    2    0    0  0.00000000000E+00  0.00000000000E+00  0.12130338881E+04  0.12194574698E+04  0.12500122792E+03 0.  0.
    9000005    1    3    3    0    0 -0.28321044948E+02 -0.55386959470E+02  0.54836700776E+03  0.55188510767E+03  0.10000000000E+01 0.  0.
    9000005    1    3    3    0    0  0.28321044948E+02  0.55386959470E+02  0.66466688032E+03  0.66757236212E+03  0.10000000000E+01 0.  0.
<mgrwt>
<rscale>  0 0.12500123E+03</rscale>
<asrwt>0</asrwt>
<pdfrwt beam="1">  1        4 0.18711483E+00 0.12500123E+03</pdfrwt>
<pdfrwt beam="2">  1       -4 0.49412139E-03 0.12500123E+03</pdfrwt>
<totfact> 0.24208397E+03</totfact>
</mgrwt>
</event>
<event>
 5    1  0.3212987E-002  0.1250088E+03  0.7818608E-02  0.1235056E+00
         -4   -1    0    0    0  501 -0.00000000000E+00  0.00000000000E+00  0.12276217709E+02  0.12341734937E+02  0.12700000000E+01 0. -1.
          4   -1    0    0  501    0  0.00000000000E+00 -0.00000000000E+00 -0.31732759266E+03  0.31733013403E+03  0.12700000000E+01 0. -1.
         25    2    1    2    0    0  0.00000000000E+00  0.00000000000E+00 -0.30505137495E+03  0.32967186896E+03  0.12500879900E+03 0.  0.
    9000005    1    3    3    0    0  0.51898487084E+02  0.26671414433E+02 -0.21155295089E+03  0.21945493464E+03  0.10000000000E+01 0.  0.
    9000005    1    3    3    0    0 -0.51898487084E+02 -0.26671414433E+02 -0.93498424062E+02  0.11021693432E+03  0.10000000000E+01 0.  0.
<mgrwt>
<rscale>  0 0.12500880E+03</rscale>
<asrwt>0</asrwt>
<pdfrwt beam="2">  1        4 0.48824859E-01 0.12500880E+03</pdfrwt>
<pdfrwt beam="1">  1       -4 0.18938844E-02 0.12500880E+03</pdfrwt>
<totfact> 0.72006326E+03</totfact>
</mgrwt>
</event>
<event>
 5    1  0.3212987E-002  0.1250026E+03  0.7818608E-02  0.1235065E+00
          4   -1    0    0  501    0  0.00000000000E+00  0.00000000000E+00  0.24821723472E+03  0.24822048366E+03  0.12700000000E+01 0.  1.
         -4   -1    0    0    0  501 -0.00000000000E+00 -0.00000000000E+00 -0.15708897510E+02  0.15760151046E+02  0.12700000000E+01 0.  1.
         25    2    1    2    0    0  0.00000000000E+00  0.00000000000E+00  0.23250833721E+03  0.26398063471E+03  0.12500259450E+03 0.  0.
    9000005    1    3    3    0    0  0.13230269747E+02 -0.41160256024E+02  0.21154779158E+03  0.21592284464E+03  0.10000000000E+01 0.  0.
    9000005    1    3    3    0    0 -0.13230269747E+02  0.41160256024E+02  0.20960545623E+02  0.48057790069E+02  0.10000000000E+01 0.  0.
<mgrwt>
<rscale>  0 0.12500259E+03</rscale>
<asrwt>0</asrwt>
<pdfrwt beam="1">  1        4 0.38191461E-01 0.12500259E+03</pdfrwt>
<pdfrwt beam="2">  1       -4 0.24209459E-02 0.12500259E+03</pdfrwt>
<totfact> 0.80346019E+03</totfact>
</mgrwt>
</event>
<event>
 4    1  0.3212987E-002  0.1249351E+03  0.7818608E-02  0.1235171E+00
          4   -1    0    0  501    0  0.00000000000E+00  0.00000000000E+00  0.39775392163E+02  0.39795662097E+02  0.12700000000E+01 0.  1.
         -4   -1    0    0    0  501 -0.00000000000E+00 -0.00000000000E+00 -0.98056428644E+02  0.98064652645E+02  0.12700000000E+01 0.  1.
    9000005    1    1    2    0    0 -0.57648309319E+01  0.61562846298E+02 -0.19396348718E+02  0.64810768114E+02  0.10000000000E+01 0.  0.
    9000005    1    1    2    0    0  0.57648309319E+01 -0.61562846298E+02 -0.38884687763E+02  0.73049546627E+02  0.10000000000E+01 0.  0.
<mgrwt>
<rscale>  0 0.12493513E+03</rscale>
<asrwt>0</asrwt>
<pdfrwt beam="1">  1        4 0.61214830E-02 0.12493513E+03</pdfrwt>
<pdfrwt beam="2">  1       -4 0.15087796E-01 0.12493513E+03</pdfrwt>
<totfact> 0.10193018E+04</totfact>
</mgrwt>
</event>
<event>
 5    1  0.3212987E-002  0.1249988E+03  0.7818608E-02  0.1235071E+00
          4   -1    0    0  501    0  0.00000000000E+00  0.00000000000E+00  0.18953728574E+03  0.18954154053E+03  0.12700000000E+01 0. -1.
         -4   -1    0    0    0  501 -0.00000000000E+00 -0.00000000000E+00 -0.20584949557E+02  0.20624089029E+02  0.12700000000E+01 0. -1.
         25    2    1    2    0    0  0.00000000000E+00  0.00000000000E+00  0.16895233618E+03  0.21016562956E+03  0.12499879978E+03 0.  0.
    9000005    1    3    3    0    0 -0.40108785292E+02 -0.29949828964E+01  0.40614598219E+01  0.40437359410E+02  0.10000000000E+01 0.  0.
    9000005    1    3    3    0    0  0.40108785292E+02  0.29949828964E+01  0.16489087636E+03  0.16972827015E+03  0.10000000000E+01 0.  0.
<mgrwt>
<rscale>  0 0.12499880E+03</rscale>
<asrwt>0</asrwt>
<pdfrwt beam="1">  1        4 0.29162921E-01 0.12499880E+03</pdfrwt>
<pdfrwt beam="2">  1       -4 0.31702533E-02 0.12499880E+03</pdfrwt>
<totfact> 0.88451211E+03</totfact>
</mgrwt>
</event>
<event>
 5    1  0.3212987E-002  0.1249845E+03  0.7818608E-02  0.1235093E+00
          4   -1    0    0  501    0  0.00000000000E+00  0.00000000000E+00  0.52581678188E+01  0.54093649175E+01  0.12700000000E+01 0. -1.
         -4   -1    0    0    0  501 -0.00000000000E+00 -0.00000000000E+00 -0.73202922277E+03  0.73203032443E+03  0.12700000000E+01 0. -1.
         25    2    1    2    0    0  0.00000000000E+00  0.00000000000E+00 -0.72677105495E+03  0.73743968935E+03  0.12498451550E+03 0.  0.
    9000005    1    3    3    0    0  0.30945066116E+02  0.52345764305E+02 -0.27857653793E+03  0.28513779764E+03  0.10000000000E+01 0.  0.
    9000005    1    3    3    0    0 -0.30945066116E+02 -0.52345764305E+02 -0.44819451702E+03  0.45230189171E+03  0.10000000000E+01 0.  0.
<mgrwt>
<rscale>  0 0.12498452E+03</rscale>
<asrwt>0</asrwt>
<pdfrwt beam="1">  1        4 0.82066476E-03 0.12498452E+03</pdfrwt>
<pdfrwt beam="2">  1       -4 0.11263152E+00 0.12498452E+03</pdfrwt>
<totfact> 0.41196195E+03</totfact>
</mgrwt>
</event>
<event>
 5    1  0.3212987E-002  0.1250040E+03  0.7818608E-02  0.1235063E+00
         -4   -1    0    0    0  501 -0.00000000000E+00  0.00000000000E+00  0.25347056495E+03  0.25347374656E+03  0.12700000000E+01 0. -1.
          4   -1    0    0  501    0  0.00000000000E+00 -0.00000000000E+00 -0.15382606565E+02  0.15434943626E+02  0.12700000000E+01 0. -1.
         25    2    1    2    0    0  0.00000000000E+00  0.00000000000E+00  0.23808795839E+03  0.26890869019E+03  0.12500403086E+03 0.  0.
    9000005    1    3    3    0    0 -0.40368675850E+02  0.19936106139E+02  0.21227868174E+03  0.21700303463E+03  0.10000000000E+01 0.  0.
    9000005    1    3    3    0    0  0.40368675850E+02 -0.19936106139E+02  0.25809276648E+02  0.51905655559E+02  0.10000000000E+01 0.  0.
<mgrwt>
<rscale>  0 0.12500403E+03</rscale>
<asrwt>0</asrwt>
<pdfrwt beam="2">  1        4 0.23708257E-02 0.12500403E+03</pdfrwt>
<pdfrwt beam="1">  1       -4 0.38999739E-01 0.12500403E+03</pdfrwt>
<totfact> 0.79664741E+03</totfact>
</mgrwt>
</event>
<event>
 5    1  0.3212987E-002  0.1250012E+03  0.7818608E-02  0.1235067E+00
          4   -1    0    0  501    0  0.00000000000E+00  0.00000000000E+00  0.15727618889E+02  0.15778811613E+02  0.12700000000E+01 0. -1.
         -4   -1    0    0    0  501 -0.00000000000E+00 -0.00000000000E+00 -0.24791715035E+03  0.24792040323E+03  0.12700000000E+01 0. -1.
         25    2    1    2    0    0  0.00000000000E+00  0.00000000000E+00 -0.23218953146E+03  0.26369921484E+03  0.12500118955E+03 0.  0.
    9000005    1    3    3    0    0  0.17222533496E+02 -0.47721618011E+02 -0.19306836032E+03  0.19962555007E+03  0.10000000000E+01 0.  0.
    9000005    1    3    3    0    0 -0.17222533496E+02  0.47721618011E+02 -0.39121171143E+02  0.64073664771E+02  0.10000000000E+01 0.  0.
<mgrwt>
<rscale>  0 0.12500119E+03</rscale>
<asrwt>0</asrwt>
<pdfrwt beam="1">  1        4 0.24238220E-02 0.12500119E+03</pdfrwt>
<pdfrwt beam="2">  1       -4 0.38145285E-01 0.12500119E+03</pdfrwt>
<totfact> 0.80387588E+03</totfact>
</mgrwt>
</event>
<event>
 5    1  0.3212987E-002  0.1250099E+03  0.7818608E-02  0.1235054E+00
         -4   -1    0    0    0  501 -0.00000000000E+00  0.00000000000E+00  0.57178321179E+02  0.57192423562E+02  0.12700000000E+01 0.  1.
          4   -1    0    0  501    0  0.00000000000E+00 -0.00000000000E+00 -0.68299388572E+02  0.68311195125E+02  0.12700000000E+01 0.  1.
         25    2    1    2    0    0  0.00000000000E+00  0.00000000000E+00 -0.11121067393E+02  0.12550361869E+03  0.12500992026E+03 0.  0.
    9000005    1    3    3    0    0  0.12672396107E+02 -0.50609037810E+02  0.28984742424E+02  0.59690699649E+02  0.10000000000E+01 0.  0.
    9000005    1    3    3    0    0 -0.12672396107E+02  0.50609037810E+02 -0.40105809817E+02  0.65812919038E+02  0.10000000000E+01 0.  0.
<mgrwt>
<rscale>  0 0.12500992E+03</rscale>
<asrwt>0</asrwt>
<pdfrwt beam="2">  1        4 0.10509591E-01 0.12500992E+03</pdfrwt>
<pdfrwt beam="1">  1       -4 0.87986577E-02 0.12500992E+03</pdfrwt>
<totfact> 0.10439538E+04</totfact>
</mgrwt>
</event>
<event>
 5    1  0.3212987E-002  0.1250009E+03  0.7818608E-02  0.1235068E+00
         -4   -1    0    0    0  501 -0.00000000000E+00  0.00000000000E+00  0.29420995235E+02  0.29448393176E+02  0.12700000000E+01 0. -1.
          4   -1    0    0  501    0  0.00000000000E+00 -0.00000000000E+00 -0.13268045467E+03  0.13268653267E+03  0.12700000000E+01 0. -1.
         25    2    1    2    0    0  0.00000000000E+00  0.00000000000E+00 -0.10325945943E+03  0.16213492584E+03  0.12500087286E+03 0.  0.
    9000005    1    3    3    0    0  0.52544372745E+02  0.12931359640E+02 -0.92175853919E+02  0.10689022039E+03  0.10000000000E+01 0.  0.
    9000005    1    3    3    0    0 -0.52544372745E+02 -0.12931359640E+02 -0.11083605513E+02  0.55244705452E+02  0.10000000000E+01 0.  0.
<mgrwt>
<rscale>  0 0.12500087E+03</rscale>
<asrwt>0</asrwt>
<pdfrwt beam="2">  1        4 0.20414952E-01 0.12500087E+03</pdfrwt>
<pdfrwt beam="1">  1       -4 0.45288821E-02 0.12500087E+03</pdfrwt>
<totfact> 0.96930859E+03</totfact>
</mgrwt>
</event>
<event>
 5    1  0.3212987E-002  0.1250004E+03  0.7818608E-02  0.1235069E+00
         -4   -1    0    0    0  501 -0.00000000000E+00  0.00000000000E+00  0.39772590899E+01  0.41751035758E+01  0.12700000000E+01 0.  1.
          4   -1    0    0  501    0  0.00000000000E+00 -0.00000000000E+00 -0.95811880997E+03  0.95811965167E+03  0.12700000000E+01 0.  1.
         25    2    1    2    0    0  0.00000000000E+00  0.00000000000E+00 -0.95414155088E+03  0.96229475525E+03  0.12500038744E+03 0.  0.
    9000005    1    3    3    0    0 -0.34180737303E+02  0.52020368678E+02 -0.43432411208E+03  0.43876289257E+03  0.10000000000E+01 0.  0.
    9000005    1    3    3    0    0  0.34180737303E+02 -0.52020368678E+02 -0.51981743880E+03  0.52353186268E+03  0.10000000000E+01 0.  0.
<mgrwt>
<rscale>  0 0.12500039E+03</rscale>
<asrwt>0</asrwt>
<pdfrwt beam="2">  1        4 0.14741800E+00 0.12500039E+03</pdfrwt>
<pdfrwt beam="1">  1       -4 0.62717033E-03 0.12500039E+03</pdfrwt>
<totfact> 0.31883211E+03</totfact>
</mgrwt>
</event>
<event>
 5    1  0.3212987E-002  0.1250006E+03  0.7818608E-02  0.1235068E+00
         -4   -1    0    0    0  501 -0.00000000000E+00  0.00000000000E+00  0.65669569817E+01  0.66886339412E+01  0.12700000000E+01 0.  1.
          4   -1    0    0  501    0  0.00000000000E+00 -0.00000000000E+00 -0.58925703867E+03  0.58925840725E+03  0.12700000000E+01 0.  1.
         25    2    1    2    0    0  0.00000000000E+00  0.00000000000E+00 -0.58269008168E+03  0.59594704119E+03  0.12500057845E+03 0.  0.
    9000005    1    3    3    0    0 -0.33084126337E+02 -0.49376376913E+01 -0.54300446836E+03  0.54403473450E+03  0.10000000000E+01 0.  0.
    9000005    1    3    3    0    0  0.33084126337E+02  0.49376376913E+01 -0.39685613323E+02  0.51912306694E+02  0.10000000000E+01 0.  0.
<mgrwt>
<rscale>  0 0.12500058E+03</rscale>
<asrwt>0</asrwt>
<pdfrwt beam="2">  1        4 0.90664353E-01 0.12500058E+03</pdfrwt>
<pdfrwt beam="1">  1       -4 0.10197666E-02 0.12500058E+03</pdfrwt>
<totfact> 0.49123842E+03</totfact>
</mgrwt>
</event>
<event>
 5    1  0.3212987E-002  0.1250188E+03  0.7818608E-02  0.1235040E+00
         -4   -1    0    0    0  501 -0.00000000000E+00  0.00000000000E+00  0.21786397796E+02  0.21823382619E+02  0.12700000000E+01 0.  1.
          4   -1    0    0  501    0  0.00000000000E+00 -0.00000000000E+00 -0.17916033816E+03  0.17916483938E+03  0.12700000000E+01 0.  1.
         25    2    1    2    0    0  0.00000000000E+00  0.00000000000E+00 -0.15737394036E+03  0.20098822200E+03  0.12501883169E+03 0.  0.
    9000005    1    3    3    0    0 -0.50234607282E+02  0.10002013726E+02 -0.13626896019E+03  0.14558085574E+03  0.10000000000E+01 0.  0.
    9000005    1    3    3    0    0  0.50234607282E+02 -0.10002013726E+02 -0.21104980177E+02  0.55407366258E+02  0.10000000000E+01 0.  0.
<mgrwt>
<rscale>  0 0.12501883E+03</rscale>
<asrwt>0</asrwt>
<pdfrwt beam="2">  1        4 0.27566319E-01 0.12501883E+03</pdfrwt>
<pdfrwt beam="1">  1       -4 0.33549449E-02 0.12501883E+03</pdfrwt>
<totfact> 0.89931203E+03</totfact>
</mgrwt>
</event>
<event>
 5    1  0.3212987E-002  0.1250022E+03  0.7818608E-02  0.1235066E+00
          4   -1    0    0  501    0  0.00000000000E+00  0.00000000000E+00  0.75719816180E+02  0.75730465880E+02  0.12700000000E+01 0. -1.
         -4   -1    0    0    0  501 -0.00000000000E+00 -0.00000000000E+00 -0.51567920586E+02  0.51583556814E+02  0.12700000000E+01 0. -1.
         25    2    1    2    0    0  0.00000000000E+00  0.00000000000E+00  0.24151895594E+02  0.12731402269E+03  0.12500218524E+03 0.  0.
    9000005    1    3    3    0    0 -0.22887537647E+02 -0.57771665645E+02  0.53214141430E+01  0.62375653739E+02  0.10000000000E+01 0.  0.
    9000005    1    3    3    0    0  0.22887537647E+02  0.57771665645E+02  0.18830481451E+02  0.64938368955E+02  0.10000000000E+01 0.  0.
<mgrwt>
<rscale>  0 0.12500219E+03</rscale>
<asrwt>0</asrwt>
<pdfrwt beam="1">  1        4 0.11651225E-01 0.12500219E+03</pdfrwt>
<pdfrwt beam="2">  1       -4 0.79355482E-02 0.12500219E+03</pdfrwt>
<totfact> 0.10401817E+04</totfact>
</mgrwt>
</event>
<event>
 5    1  0.3212987E-002  0.1249864E+03  0.7818608E-02  0.1235091E+00
          4   -1    0    0  501    0  0.00000000000E+00  0.00000000000E+00  0.52702265046E+01  0.54210872904E+01  0.12700000000E+01 0.  1.
         -4   -1    0    0    0  501 -0.00000000000E+00 -0.00000000000E+00 -0.73042310043E+03  0.73042420451E+03  0.12700000000E+01 0.  1.
         25    2    1    2    0    0  0.00000000000E+00  0.00000000000E+00 -0.72515287392E+03  0.73584529180E+03  0.12498641090E+03 0.  0.
    9000005    1    3    3    0    0  0.17325654184E+02 -0.29665770317E+02 -0.55292128544E+02  0.65103423108E+02  0.10000000000E+01 0.  0.
    9000005    1    3    3    0    0 -0.17325654184E+02  0.29665770317E+02 -0.66986074538E+03  0.67074186870E+03  0.10000000000E+01 0.  0.
<mgrwt>
<rscale>  0 0.12498641E+03</rscale>
<asrwt>0</asrwt>
<pdfrwt beam="1">  1        4 0.82249426E-03 0.12498641E+03</pdfrwt>
<pdfrwt beam="2">  1       -4 0.11238440E+00 0.12498641E+03</pdfrwt>
<totfact> 0.41272768E+03</totfact>
</mgrwt>
</event>
<event>
 5    1  0.3212987E-002  0.1250017E+03  0.7818608E-02  0.1235067E+00
          4   -1    0    0  501    0  0.00000000000E+00  0.00000000000E+00  0.46509425236E+02  0.46526761501E+02  0.12700000000E+01 0. -1.
         -4   -1    0    0    0  501 -0.00000000000E+00 -0.00000000000E+00 -0.83952824110E+02  0.83962429551E+02  0.12700000000E+01 0. -1.
         25    2    1    2    0    0  0.00000000000E+00  0.00000000000E+00 -0.37443398874E+02  0.13048919105E+03  0.12500168344E+03 0.  0.
    9000005    1    3    3    0    0  0.25329891509E+01  0.46430685694E+02 -0.62305353754E+02  0.77750766649E+02  0.10000000000E+01 0.  0.
    9000005    1    3    3    0    0 -0.25329891509E+01 -0.46430685694E+02  0.24861954880E+02  0.52738424403E+02  0.10000000000E+01 0.  0.
<mgrwt>
<rscale>  0 0.12500168E+03</rscale>
<asrwt>0</asrwt>
<pdfrwt beam="1">  1        4 0.71573686E-02 0.12500168E+03</pdfrwt>
<pdfrwt beam="2">  1       -4 0.12917892E-01 0.12500168E+03</pdfrwt>
<totfact> 0.10333660E+04</totfact>
</mgrwt>
</event>
<event>
 5    1  0.3212987E-002  0.1249971E+03  0.7818608E-02  0.1235074E+00
          4   -1    0    0  501    0  0.00000000000E+00  0.00000000000E+00  0.62477079272E+01  0.63754807147E+01  0.12700000000E+01 0. -1.
         -4   -1    0    0    0  501 -0.00000000000E+00 -0.00000000000E+00 -0.61874336072E+03  0.61874466409E+03  0.12700000000E+01 0. -1.
         25    2    1    2    0    0  0.00000000000E+00  0.00000000000E+00 -0.61249565279E+03  0.62512014480E+03  0.12499708295E+03 0.  0.
    9000005    1    3    3    0    0 -0.80276905386E+01  0.40386114305E+02 -0.54132964192E+03  0.54289433895E+03  0.10000000000E+01 0.  0.
    9000005    1    3    3    0    0  0.80276905386E+01 -0.40386114305E+02 -0.71166010872E+02  0.82225805849E+02  0.10000000000E+01 0.  0.
<mgrwt>
<rscale>  0 0.12499708E+03</rscale>
<asrwt>0</asrwt>
<pdfrwt beam="1">  1        4 0.97111526E-03 0.12499708E+03</pdfrwt>
<pdfrwt beam="2">  1       -4 0.95201167E-01 0.12499708E+03</pdfrwt>
<totfact> 0.47322442E+03</totfact>
</mgrwt>
</event>
<event>
 5    1  0.3212987E-002  0.1249921E+03  0.7818608E-02  0.1235082E+00
         -4   -1    0    0    0  501 -0.00000000000E+00  0.00000000000E+00  0.89447854772E+01  0.90344942987E+01  0.12700000000E+01 0.  1.
          4   -1    0    0  501    0  0.00000000000E+00 -0.00000000000E+00 -0.43438264181E+03  0.43438449835E+03  0.12700000000E+01 0.  1.
         25    2    1    2    0    0  0.00000000000E+00  0.00000000000E+00 -0.42543785633E+03  0.44341899265E+03  0.12499213351E+03 0.  0.
    9000005    1    3    3    0    0  0.59758923355E+02 -0.15835670305E+02 -0.18042605724E+03  0.19072613745E+03  0.10000000000E+01 0.  0.
    9000005    1    3    3    0    0 -0.59758923355E+02  0.15835670305E+02 -0.24501179909E+03  0.25269285520E+03  0.10000000000E+01 0.  0.
<mgrwt>
<rscale>  0 0.12499213E+03</rscale>
<asrwt>0</asrwt>
<pdfrwt beam="2">  1        4 0.66835126E-01 0.12499213E+03</pdfrwt>
<pdfrwt beam="1">  1       -4 0.13831647E-02 0.12499213E+03</pdfrwt>
<totfact> 0.60548679E+03</totfact>
</mgrwt>
</event>
<event>
 5    1  0.3212987E-002  0.1249950E+03  0.7818608E-02  0.1235077E+00
          4   -1    0    0  501    0  0.00000000000E+00  0.00000000000E+00  0.42900898062E+03  0.42901086041E+03  0.12700000000E+01 0.  1.
         -4   -1    0    0    0  501 -0.00000000000E+00 -0.00000000000E+00 -0.90583624572E+01  0.91469574398E+01  0.12700000000E+01 0.  1.
         25    2    1    2    0    0  0.00000000000E+00  0.00000000000E+00  0.41995061816E+03  0.43815781785E+03  0.12499500650E+03 0.  0.
    9000005    1    3    3    0    0  0.43077614794E+02  0.20411933422E+02  0.35161309407E+03  0.35483108072E+03  0.10000000000E+01 0.  0.
    9000005    1    3    3    0    0 -0.43077614794E+02 -0.20411933422E+02  0.68337524091E+02  0.83326737133E+02  0.10000000000E+01 0.  0.
<mgrwt>
<rscale>  0 0.12499501E+03</rscale>
<asrwt>0</asrwt>
<pdfrwt beam="1">  1        4 0.66008336E-01 0.12499501E+03</pdfrwt>
<pdfrwt beam="2">  1       -4 0.14005539E-02 0.12499501E+03</pdfrwt>
<totfact> 0.61010148E+03</totfact>
</mgrwt>
</event>
<event>
 5    1  0.3212987E-002  0.1249997E+03  0.7818608E-02  0.1235070E+00
         -4   -1    0    0    0  501 -0.00000000000E+00  0.00000000000E+00  0.17892045593E+03  0.17892496318E+03  0.12700000000E+01 0. -1.
          4   -1    0    0  501    0  0.00000000000E+00 -0.00000000000E+00 -0.21808959569E+02  0.21845906195E+02  0.12700000000E+01 0. -1.
         25    2    1    2    0    0  0.00000000000E+00  0.00000000000E+00  0.15711149636E+03  0.20077086937E+03  0.12499967881E+03 0.  0.
    9000005    1    3    3    0    0  0.62371074343E+02  0.12773829561E+01  0.72665828023E+02  0.95776328934E+02  0.10000000000E+01 0.  0.
    9000005    1    3    3    0    0 -0.62371074343E+02 -0.12773829561E+01  0.84445668334E+02  0.10499454044E+03  0.10000000000E+01 0.  0.
<mgrwt>
<rscale>  0 0.12499968E+03</rscale>
<asrwt>0</asrwt>
<pdfrwt beam="2">  1        4 0.33584134E-02 0.12499968E+03</pdfrwt>
<pdfrwt beam="1">  1       -4 0.27529412E-01 0.12499968E+03</pdfrwt>
<totfact> 0.90006302E+03</totfact>
</mgrwt>
</event>
<event>
 5    1  0.3212987E-002  0.1250120E+03  0.7818608E-02  0.1235051E+00
          4   -1    0    0  501    0  0.00000000000E+00  0.00000000000E+00  0.13798518637E+02  0.13856840065E+02  0.12700000000E+01 0. -1.
         -4   -1    0    0    0  501 -0.00000000000E+00 -0.00000000000E+00 -0.28248941787E+03  0.28249227265E+03  0.12700000000E+01 0. -1.
         25    2    1    2    0    0  0.00000000000E+00  0.00000000000E+00 -0.26869089923E+03  0.29634911272E+03  0.12501198854E+03 0.  0.
    9000005    1    3    3    0    0  0.21321263911E+02 -0.20402955438E+02 -0.37463823514E+01  0.29764278357E+02  0.10000000000E+01 0.  0.
    9000005    1    3    3    0    0 -0.21321263911E+02  0.20402955438E+02 -0.26494451688E+03  0.26658483436E+03  0.10000000000E+01 0.  0.
<mgrwt>
<rscale>  0 0.12501199E+03</rscale>
<asrwt>0</asrwt>
<pdfrwt beam="1">  1        4 0.21275551E-02 0.12501199E+03</pdfrwt>
<pdfrwt beam="2">  1       -4 0.43464612E-01 0.12501199E+03</pdfrwt>
<totfact> 0.76038852E+03</totfact>
</mgrwt>
</event>
<event>
 5    1  0.3212987E-002  0.1250010E+03  0.7818608E-02  0.1235068E+00
         -4   -1    0    0    0  501 -0.00000000000E+00  0.00000000000E+00  0.43039391762E+03  0.43039579136E+03  0.12700000000E+01 0. -1.
          4   -1    0    0  501    0  0.00000000000E+00 -0.00000000000E+00 -0.90298067809E+01  0.91186792081E+01  0.12700000000E+01 0. -1.
         25    2    1    2    0    0  0.00000000000E+00  0.00000000000E+00  0.42136411084E+03  0.43951447057E+03  0.12500102375E+03 0.  0.
    9000005    1    3    3    0    0  0.56494574052E+02 -0.46505379888E+01  0.11818493463E+03  0.13107991140E+03  0.10000000000E+01 0.  0.
    9000005    1    3    3    0    0 -0.56494574052E+02  0.46505379888E+01  0.30317917621E+03  0.30843455917E+03  0.10000000000E+01 0.  0.
<mgrwt>
<rscale>  0 0.12500102E+03</rscale>
<asrwt>0</asrwt>
<pdfrwt beam="2">  1        4 0.13961818E-02 0.12500102E+03</pdfrwt>
<pdfrwt beam="1">  1       -4 0.66221414E-01 0.12500102E+03</pdfrwt>
<totfact> 0.60881564E+03</totfact>
</mgrwt>
</event>
<event>
 5    1  0.3212987E-002  0.1249990E+03  0.7818608E-02  0.1235071E+00
         -4   -1    0    0    0  501 -0.00000000000E+00  0.00000000000E+00  0.52496439434E+03  0.52496593054E+03  0.12700000000E+01 0.  1.
          4   -1    0    0  501    0  0.00000000000E+00 -0.00000000000E+00 -0.73851174717E+01  0.74935212064E+01  0.12700000000E+01 0.  1.
         25    2    1    2    0    0  0.00000000000E+00  0.00000000000E+00  0.51757927687E+03  0.53245945174E+03  0.12499903963E+03 0.  0.
    9000005    1    3    3    0    0 -0.31450061753E+02  0.42681659727E+02  0.39970549783E+03  0.40320753398E+03  0.10000000000E+01 0.  0.
    9000005    1    3    3    0    0  0.31450061753E+02 -0.42681659727E+02  0.11787377904E+03  0.12925191777E+03  0.10000000000E+01 0.  0.
<mgrwt>
<rscale>  0 0.12499904E+03</rscale>
<asrwt>0</asrwt>
<pdfrwt beam="2">  1        4 0.11446290E-02 0.12499904E+03</pdfrwt>
<pdfrwt beam="1">  1       -4 0.80772199E-01 0.12499904E+03</pdfrwt>
<totfact> 0.53432156E+03</totfact>
</mgrwt>
</event>
<event>
 5    1  0.3212987E-002  0.1250023E+03  0.7818608E-02  0.1235066E+00
         -4   -1    0    0    0  501 -0.00000000000E+00  0.00000000000E+00  0.10498499778E+03  0.10499267908E+03  0.12700000000E+01 0. -1.
          4   -1    0    0  501    0  0.00000000000E+00 -0.00000000000E+00 -0.37189180469E+02  0.37210859221E+02  0.12700000000E+01 0. -1.
         25    2    1    2    0    0  0.00000000000E+00  0.00000000000E+00  0.67795817314E+02  0.14220353830E+03  0.12500229381E+03 0.  0.
    9000005    1    3    3    0    0  0.55311937418E+02  0.24021371765E+02  0.52554554064E+02  0.79996361638E+02  0.10000000000E+01 0.  0.
    9000005    1    3    3    0    0 -0.55311937418E+02 -0.24021371765E+02  0.15241263250E+02  0.62207176659E+02  0.10000000000E+01 0.  0.
<mgrwt>
<rscale>  0 0.12500229E+03</rscale>
<asrwt>0</asrwt>
<pdfrwt beam="2">  1        4 0.57236710E-02 0.12500229E+03</pdfrwt>
<pdfrwt beam="1">  1       -4 0.16153796E-01 0.12500229E+03</pdfrwt>
<totfact> 0.10087598E+04</totfact>
</mgrwt>
</event>
<event>
 5    1  0.3212987E-002  0.1249868E+03  0.7818608E-02  0.1235090E+00
          4   -1    0    0  501    0  0.00000000000E+00  0.00000000000E+00  0.92227004166E+01  0.93097316274E+01  0.12700000000E+01 0.  1.
         -4   -1    0    0    0  501 -0.00000000000E+00 -0.00000000000E+00 -0.42138138083E+03  0.42138329465E+03  0.12700000000E+01 0.  1.
         25    2    1    2    0    0  0.00000000000E+00  0.00000000000E+00 -0.41215868042E+03  0.43069302628E+03  0.12498681948E+03 0.  0.
    9000005    1    3    3    0    0  0.14098186567E+02  0.46620025764E+02 -0.71193269065E+02  0.86265098544E+02  0.10000000000E+01 0.  0.
    9000005    1    3    3    0    0 -0.14098186567E+02 -0.46620025764E+02 -0.34096541135E+03  0.34442792774E+03  0.10000000000E+01 0.  0.
<mgrwt>
<rscale>  0 0.12498682E+03</rscale>
<asrwt>0</asrwt>
<pdfrwt beam="1">  1        4 0.14257192E-02 0.12498682E+03</pdfrwt>
<pdfrwt beam="2">  1       -4 0.64834732E-01 0.12498682E+03</pdfrwt>
<totfact> 0.61691156E+03</totfact>
</mgrwt>
</event>
<event>
 5    1  0.3212987E-002  0.1250021E+03  0.7818608E-02  0.1235066E+00
          4   -1    0    0  501    0  0.00000000000E+00  0.00000000000E+00  0.15202357068E+03  0.15202887535E+03  0.12700000000E+01 0.  1.
         -4   -1    0    0    0  501 -0.00000000000E+00 -0.00000000000E+00 -0.25674445392E+02  0.25705836812E+02  0.12700000000E+01 0.  1.
         25    2    1    2    0    0  0.00000000000E+00  0.00000000000E+00  0.12634912528E+03  0.17773471216E+03  0.12500210577E+03 0.  0.
    9000005    1    3    3    0    0  0.28847770366E+02  0.40558166553E+02  0.11690902644E+03  0.12706643614E+03  0.10000000000E+01 0.  0.
    9000005    1    3    3    0    0 -0.28847770366E+02 -0.40558166553E+02  0.94400988404E+01  0.50668276025E+02  0.10000000000E+01 0.  0.
<mgrwt>
<rscale>  0 0.12500211E+03</rscale>
<asrwt>0</asrwt>
<pdfrwt beam="1">  1        4 0.23391064E-01 0.12500211E+03</pdfrwt>
<pdfrwt beam="2">  1       -4 0.39527375E-02 0.12500211E+03</pdfrwt>
<totfact> 0.94021918E+03</totfact>
</mgrwt>
</event>
<event>
 5    1  0.3212987E-002  0.1249971E+03  0.7818608E-02  0.1235074E+00
          4   -1    0    0  501    0  0.00000000000E+00  0.00000000000E+00  0.31269227938E+01  0.33749883198E+01  0.12700000000E+01 0.  1.
         -4   -1    0    0    0  501 -0.00000000000E+00 -0.00000000000E+00 -0.12012665062E+04  0.12012671775E+04  0.12700000000E+01 0.  1.
         25    2    1    2    0    0  0.00000000000E+00  0.00000000000E+00 -0.11981395834E+04  0.12046421658E+04  0.12499714567E+03 0.  0.
    9000005    1    3    3    0    0  0.38405452701E+02  0.47677085725E+02 -0.71982103640E+03  0.72242052002E+03  0.10000000000E+01 0.  0.
    9000005    1    3    3    0    0 -0.38405452701E+02 -0.47677085725E+02 -0.47831854698E+03  0.48222164581E+03  0.10000000000E+01 0.  0.
<mgrwt>
<rscale>  0 0.12499715E+03</rscale>
<asrwt>0</asrwt>
<pdfrwt beam="1">  1        4 0.50019961E-03 0.12499715E+03</pdfrwt>
<pdfrwt beam="2">  1       -4 0.18482901E+00 0.12499715E+03</pdfrwt>
<totfact> 0.24593153E+03</totfact>
</mgrwt>
</event>
<event>
 5    1  0.3212987E-002  0.1250008E+03  0.7818608E-02  0.1235068E+00
         -4   -1    0    0    0  501 -0.00000000000E+00  0.00000000000E+00  0.72376632113E+02  0.72387773664E+02  0.12700000000E+01 0.  1.
          4   -1    0    0  501    0  0.00000000000E+00 -0.00000000000E+00 -0.53949074541E+02  0.53964020827E+02  0.12700000000E+01 0.  1.
         25    2    1    2    0    0  0.00000000000E+00  0.00000000000E+00  0.18427557572E+02  0.12635179449E+03  0.12500080437E+03 0.  0.
    9000005    1    3    3    0    0  0.28156065697E+01 -0.66754453113E+00 -0.53886276937E+02  0.53973179434E+02  0.10000000000E+01 0.  0.
    9000005    1    3    3    0    0 -0.28156065697E+01  0.66754453113E+00  0.72313834509E+02  0.72378615056E+02  0.10000000000E+01 0.  0.
<mgrwt>
<rscale>  0 0.12500080E+03</rscale>
<asrwt>0</asrwt>
<pdfrwt beam="2">  1        4 0.83018643E-02 0.12500080E+03</pdfrwt>
<pdfrwt beam="1">  1       -4 0.11136873E-01 0.12500080E+03</pdfrwt>
<totfact> 0.10423073E+04</totfact>
</mgrwt>
</event>
<event>
 5    1  0.3212987E-002  0.1249997E+03  0.7818608E-02  0.1235070E+00
         -4   -1    0    0    0  501 -0.00000000000E+00  0.00000000000E+00  0.21538353174E+03  0.21538727595E+03  0.12700000000E+01 0. -1.
          4   -1    0    0  501    0  0.00000000000E+00 -0.00000000000E+00 -0.18110030096E+02  0.18154506054E+02  0.12700000000E+01 0. -1.
         25    2    1    2    0    0  0.00000000000E+00  0.00000000000E+00  0.19727350164E+03  0.23354178201E+03  0.12499971798E+03 0.  0.
    9000005    1    3    3    0    0 -0.53830066235E+02 -0.10208178524E+02  0.15479110604E+03  0.16420465721E+03  0.10000000000E+01 0.  0.
    9000005    1    3    3    0    0  0.53830066235E+02  0.10208178524E+02  0.42482395597E+02  0.69337124798E+02  0.10000000000E+01 0.  0.
<mgrwt>
<rscale>  0 0.12499972E+03</rscale>
<asrwt>0</asrwt>
<pdfrwt beam="2">  1        4 0.27898677E-02 0.12499972E+03</pdfrwt>
<pdfrwt beam="1">  1       -4 0.33139638E-01 0.12499972E+03</pdfrwt>
<totfact> 0.84769236E+03</totfact>
</mgrwt>
</event>
<event>
 5    1  0.3212987E-002  0.1250045E+03  0.7818608E-02  0.1235062E+00
         -4   -1    0    0    0  501 -0.00000000000E+00  0.00000000000E+00  0.17371008873E+03  0.17371473117E+03  0.12700000000E+01 0.  1.
          4   -1    0    0  501    0  0.00000000000E+00 -0.00000000000E+00 -0.22465913369E+02  0.22501781340E+02  0.12700000000E+01 0.  1.
         25    2    1    2    0    0  0.00000000000E+00  0.00000000000E+00  0.15124417536E+03  0.19621651251E+03  0.12500447673E+03 0.  0.
    9000005    1    3    3    0    0 -0.27802806110E+02 -0.49216338087E+01 -0.11890845252E+02  0.30653070120E+02  0.10000000000E+01 0.  0.
    9000005    1    3    3    0    0  0.27802806110E+02  0.49216338087E+01  0.16313502061E+03  0.16556344239E+03  0.10000000000E+01 0.  0.
<mgrwt>
<rscale>  0 0.12500448E+03</rscale>
<asrwt>0</asrwt>
<pdfrwt beam="2">  1        4 0.34594107E-02 0.12500448E+03</pdfrwt>
<pdfrwt beam="1">  1       -4 0.26727744E-01 0.12500448E+03</pdfrwt>
<totfact> 0.90767675E+03</totfact>
</mgrwt>
</event>
<event>
 5    1  0.3212987E-002  0.1249988E+03  0.7818608E-02  0.1235071E+00
          4   -1    0    0  501    0  0.00000000000E+00  0.00000000000E+00  0.79091637452E+02  0.79101833195E+02  0.12700000000E+01 0. -1.
         -4   -1    0    0    0  501 -0.00000000000E+00 -0.00000000000E+00 -0.49366404589E+02  0.49382737895E+02  0.12700000000E+01 0. -1.
         25    2    1    2    0    0  0.00000000000E+00  0.00000000000E+00  0.29725232863E+02  0.12848457109E+03  0.12499878215E+03 0.  0.
    9000005    1    3    3    0    0  0.61321007299E+01 -0.34141179249E+02 -0.38567231753E+02  0.51881154044E+02  0.10000000000E+01 0.  0.
    9000005    1    3    3    0    0 -0.61321007299E+01  0.34141179249E+02  0.68292464616E+02  0.76603417046E+02  0.10000000000E+01 0.  0.
<mgrwt>
<rscale>  0 0.12499878E+03</rscale>
<asrwt>0</asrwt>
<pdfrwt beam="1">  1        4 0.12169985E-01 0.12499878E+03</pdfrwt>
<pdfrwt beam="2">  1       -4 0.75968723E-02 0.12499878E+03</pdfrwt>
<totfact> 0.10377321E+04</totfact>
</mgrwt>
</event>
<event>
 5    1  0.3212987E-002  0.1249994E+03  0.7818608E-02  0.1235070E+00
          4   -1    0    0  501    0  0.00000000000E+00  0.00000000000E+00  0.45066785682E+01  0.46822058601E+01  0.12700000000E+01 0. -1.
         -4   -1    0    0    0  501 -0.00000000000E+00 -0.00000000000E+00 -0.85002750820E+03  0.85002845693E+03  0.12700000000E+01 0. -1.
         25    2    1    2    0    0  0.00000000000E+00  0.00000000000E+00 -0.84552082963E+03  0.85471066279E+03  0.12499937501E+03 0.  0.
    9000005    1    3    3    0    0 -0.55013714546E+02 -0.54849698786E+01 -0.62195026708E+03  0.62440349807E+03  0.10000000000E+01 0.  0.
    9000005    1    3    3    0    0  0.55013714546E+02  0.54849698786E+01 -0.22357056255E+03  0.23030716472E+03  0.10000000000E+01 0.  0.
<mgrwt>
<rscale>  0 0.12499938E+03</rscale>
<asrwt>0</asrwt>
<pdfrwt beam="1">  1        4 0.70691092E-03 0.12499938E+03</pdfrwt>
<pdfrwt beam="2">  1       -4 0.13078691E+00 0.12499938E+03</pdfrwt>
<totfact> 0.35935852E+03</totfact>
</mgrwt>
</event>
<event>
 5    1  0.3212987E-002  0.1250059E+03  0.7818608E-02  0.1235060E+00
          4   -1    0    0  501    0  0.00000000000E+00  0.00000000000E+00  0.20374626402E+03  0.20375022209E+03  0.12700000000E+01 0.  1.
         -4   -1    0    0    0  501 -0.00000000000E+00 -0.00000000000E+00 -0.19148759927E+02  0.19190828714E+02  0.12700000000E+01 0.  1.
         25    2    1    2    0    0  0.00000000000E+00  0.00000000000E+00  0.18459750409E+03  0.22294105080E+03  0.12500589433E+03 0.  0.
    9000005    1    3    3    0    0 -0.28344053541E+02  0.10436510320E+02  0.18987307946E+03  0.19226308127E+03  0.10000000000E+01 0.  0.
    9000005    1    3    3    0    0  0.28344053541E+02 -0.10436510320E+02 -0.52755753673E+01  0.30677969526E+02  0.10000000000E+01 0.  0.
<mgrwt>
<rscale>  0 0.12500589E+03</rscale>
<asrwt>0</asrwt>
<pdfrwt beam="1">  1        4 0.31349121E-01 0.12500589E+03</pdfrwt>
<pdfrwt beam="2">  1       -4 0.29495035E-02 0.12500589E+03</pdfrwt>
<totfact> 0.86393722E+03</totfact>
</mgrwt>
</event>
<event>
 5    1  0.3212987E-002  0.1249876E+03  0.7818608E-02  0.1235089E+00
          4   -1    0    0  501    0  0.00000000000E+00  0.00000000000E+00  0.23745736921E+03  0.23746076537E+03  0.12700000000E+01 0.  1.
         -4   -1    0    0    0  501 -0.00000000000E+00 -0.00000000000E+00 -0.16419013648E+02  0.16468057238E+02  0.12700000000E+01 0.  1.
         25    2    1    2    0    0  0.00000000000E+00  0.00000000000E+00  0.22103835556E+03  0.25392882261E+03  0.12498756868E+03 0.  0.
    9000005    1    3    3    0    0 -0.56784393370E+01  0.60715943926E+02  0.82826112682E+02  0.10285832714E+03  0.10000000000E+01 0.  0.
    9000005    1    3    3    0    0  0.56784393370E+01 -0.60715943926E+02  0.13821224288E+03  0.15107049547E+03  0.10000000000E+01 0.  0.
<mgrwt>
<rscale>  0 0.12498757E+03</rscale>
<asrwt>0</asrwt>
<pdfrwt beam="1">  1        4 0.36535938E-01 0.12498757E+03</pdfrwt>
<pdfrwt beam="2">  1       -4 0.25300359E-02 0.12498757E+03</pdfrwt>
<totfact> 0.81788325E+03</totfact>
</mgrwt>
</event>
<event>
 5    1  0.3212987E-002  0.1249974E+03  0.7818608E-02  0.1235073E+00
          4   -1    0    0  501    0  0.00000000000E+00  0.00000000000E+00  0.13952505971E+02  0.14010186397E+02  0.12700000000E+01 0. -1.
         -4   -1    0    0    0  501 -0.00000000000E+00 -0.00000000000E+00 -0.27931958176E+03  0.27932246894E+03  0.12700000000E+01 0. -1.
         25    2    1    2    0    0  0.00000000000E+00  0.00000000000E+00 -0.26536707579E+03  0.29333265534E+03  0.12499744707E+03 0.  0.
    9000005    1    3    3    0    0 -0.54870176567E+02 -0.11316574507E+02 -0.19764497943E+03  0.20543451275E+03  0.10000000000E+01 0.  0.
    9000005    1    3    3    0    0  0.54870176567E+02  0.11316574507E+02 -0.67722096367E+02  0.87898142593E+02  0.10000000000E+01 0.  0.
<mgrwt>
<rscale>  0 0.12499745E+03</rscale>
<asrwt>0</asrwt>
<pdfrwt beam="1">  1        4 0.21511986E-02 0.12499745E+03</pdfrwt>
<pdfrwt beam="2">  1       -4 0.42976898E-01 0.12499745E+03</pdfrwt>
<totfact> 0.76447198E+03</totfact>
</mgrwt>
</event>
<event>
 5    1  0.3212987E-002  0.1250023E+03  0.7818608E-02  0.1235066E+00
          4   -1    0    0  501    0  0.00000000000E+00  0.00000000000E+00  0.14836131596E+02  0.14890389543E+02  0.12700000000E+01 0. -1.
         -4   -1    0    0    0  501 -0.00000000000E+00 -0.00000000000E+00 -0.26276642576E+03  0.26276949482E+03  0.12700000000E+01 0. -1.
         25    2    1    2    0    0  0.00000000000E+00  0.00000000000E+00 -0.24793029416E+03  0.27765988436E+03  0.12500232245E+03 0.  0.
    9000005    1    3    3    0    0 -0.57528247137E+02  0.24023972666E+02 -0.13358202261E+03  0.14741711992E+03  0.10000000000E+01 0.  0.
    9000005    1    3    3    0    0  0.57528247137E+02 -0.24023972666E+02 -0.11434827155E+03  0.13024276444E+03  0.10000000000E+01 0.  0.
<mgrwt>
<rscale>  0 0.12500232E+03</rscale>
<asrwt>0</asrwt>
<pdfrwt beam="1">  1        4 0.22868918E-02 0.12500232E+03</pdfrwt>
<pdfrwt beam="2">  1       -4 0.40430010E-01 0.12500232E+03</pdfrwt>
<totfact> 0.78485363E+03</totfact>
</mgrwt>
</event>
<event>
 5    1  0.3212987E-002  0.1249999E+03  0.7818608E-02  0.1235069E+00
          4   -1    0    0  501    0  0.00000000000E+00  0.00000000000E+00  0.15288544610E+02  0.15341202570E+02  0.12700000000E+01 0.  1.
         -4   -1    0    0    0  501 -0.00000000000E+00 -0.00000000000E+00 -0.25500792037E+03  0.25501108280E+03  0.12700000000E+01 0.  1.
         25    2    1    2    0    0  0.00000000000E+00  0.00000000000E+00 -0.23971937576E+03  0.27035228537E+03  0.12499991636E+03 0.  0.
    9000005    1    3    3    0    0  0.50900262122E+02  0.35844956570E+02 -0.13161619524E+03  0.14560055098E+03  0.10000000000E+01 0.  0.
    9000005    1    3    3    0    0 -0.50900262122E+02 -0.35844956570E+02 -0.10810318052E+03  0.12475173439E+03  0.10000000000E+01 0.  0.
<mgrwt>
<rscale>  0 0.12499992E+03</rscale>
<asrwt>0</asrwt>
<pdfrwt beam="1">  1        4 0.23563778E-02 0.12499992E+03</pdfrwt>
<pdfrwt beam="2">  1       -4 0.39236279E-01 0.12499992E+03</pdfrwt>
<totfact> 0.79475012E+03</totfact>
</mgrwt>
</event>
<event>
 5    1  0.3212987E-002  0.1250414E+03  0.7818608E-02  0.1235005E+00
         -4   -1    0    0    0  501 -0.00000000000E+00  0.00000000000E+00  0.20716054166E+02  0.20754946403E+02  0.12700000000E+01 0.  1.
          4   -1    0    0  501    0  0.00000000000E+00 -0.00000000000E+00 -0.18846840569E+03  0.18847268461E+03  0.12700000000E+01 0.  1.
         25    2    1    2    0    0  0.00000000000E+00  0.00000000000E+00 -0.16775235153E+03  0.20922763101E+03  0.12504139369E+03 0.  0.
    9000005    1    3    3    0    0 -0.16674204513E+02 -0.20028404582E+02 -0.17895354550E+03  0.18084395908E+03  0.10000000000E+01 0.  0.
    9000005    1    3    3    0    0  0.16674204513E+02  0.20028404582E+02  0.11201193975E+02  0.28383671939E+02  0.10000000000E+01 0.  0.
<mgrwt>
<rscale>  0 0.12504139E+03</rscale>
<asrwt>0</asrwt>
<pdfrwt beam="2">  1        4 0.28998459E-01 0.12504139E+03</pdfrwt>
<pdfrwt beam="1">  1       -4 0.31904062E-02 0.12504139E+03</pdfrwt>
<totfact> 0.88520224E+03</totfact>
</mgrwt>
</event>
<event>
 5    1  0.3212987E-002  0.1249974E+03  0.7818608E-02  0.1235073E+00
          4   -1    0    0  501    0  0.00000000000E+00  0.00000000000E+00  0.34648102154E+02  0.34671369786E+02  0.12700000000E+01 0.  1.
         -4   -1    0    0    0  501 -0.00000000000E+00 -0.00000000000E+00 -0.11267125241E+03  0.11267840973E+03  0.12700000000E+01 0.  1.
         25    2    1    2    0    0  0.00000000000E+00  0.00000000000E+00 -0.78023150259E+02  0.14734977952E+03  0.12499738217E+03 0.  0.
    9000005    1    3    3    0    0  0.50653918747E+02 -0.18832679355E+02 -0.20221274213E+01  0.54088615210E+02  0.10000000000E+01 0.  0.
    9000005    1    3    3    0    0 -0.50653918747E+02  0.18832679355E+02 -0.76001022838E+02  0.93261164310E+02  0.10000000000E+01 0.  0.
<mgrwt>
<rscale>  0 0.12499738E+03</rscale>
<asrwt>0</asrwt>
<pdfrwt beam="1">  1        4 0.53328177E-02 0.12499738E+03</pdfrwt>
<pdfrwt beam="2">  1       -4 0.17336379E-01 0.12499738E+03</pdfrwt>
<totfact> 0.99840511E+03</totfact>
</mgrwt>
</event>
<event>
 5    1  0.3212987E-002  0.1249992E+03  0.7818608E-02  0.1235071E+00
          4   -1    0    0  501    0  0.00000000000E+00  0.00000000000E+00  0.31180610787E+02  0.31206463898E+02  0.12700000000E+01 0. -1.
         -4   -1    0    0    0  501 -0.00000000000E+00 -0.00000000000E+00 -0.12519559715E+03  0.12520203850E+03  0.12700000000E+01 0. -1.
         25    2    1    2    0    0  0.00000000000E+00  0.00000000000E+00 -0.94014986360E+02  0.15640850240E+03  0.12499920785E+03 0.  0.
    9000005    1    3    3    0    0  0.62216057825E+02 -0.16849056141E+01 -0.54032907043E+02  0.82427130253E+02  0.10000000000E+01 0.  0.
    9000005    1    3    3    0    0 -0.62216057825E+02  0.16849056141E+01 -0.39982079317E+02  0.73981372147E+02  0.10000000000E+01 0.  0.
<mgrwt>
<rscale>  0 0.12499921E+03</rscale>
<asrwt>0</asrwt>
<pdfrwt beam="1">  1        4 0.47995013E-02 0.12499921E+03</pdfrwt>
<pdfrwt beam="2">  1       -4 0.19263345E-01 0.12499921E+03</pdfrwt>
<totfact> 0.98041446E+03</totfact>
</mgrwt>
</event>
<event>
 5    1  0.3212987E-002  0.1249989E+03  0.7818608E-02  0.1235071E+00
          4   -1    0    0  501    0  0.00000000000E+00  0.00000000000E+00  0.55807950533E+02  0.55822399113E+02  0.12700000000E+01 0. -1.
         -4   -1    0    0    0  501 -0.00000000000E+00 -0.00000000000E+00 -0.69963991537E+02  0.69975517232E+02  0.12700000000E+01 0. -1.
         25    2    1    2    0    0  0.00000000000E+00  0.00000000000E+00 -0.14156041005E+02  0.12579791634E+03  0.12499888903E+03 0.  0.
    9000005    1    3    3    0    0  0.38015514556E+02  0.49066949775E+02 -0.14365555524E+02  0.63719024574E+02  0.10000000000E+01 0.  0.
    9000005    1    3    3    0    0 -0.38015514556E+02 -0.49066949775E+02  0.20951451905E+00  0.62078891771E+02  0.10000000000E+01 0.  0.
<mgrwt>
<rscale>  0 0.12499889E+03</rscale>
<asrwt>0</asrwt>
<pdfrwt beam="1">  1        4 0.85878366E-02 0.12499889E+03</pdfrwt>
<pdfrwt beam="2">  1       -4 0.10765689E-01 0.12499889E+03</pdfrwt>
<totfact> 0.10435653E+04</totfact>
</mgrwt>
</event>
<event>
 5    1  0.3212987E-002  0.1249926E+03  0.7818608E-02  0.1235081E+00
          4   -1    0    0  501    0  0.00000000000E+00  0.00000000000E+00  0.17905296742E+03  0.17905747134E+03  0.12700000000E+01 0. -1.
         -4   -1    0    0    0  501 -0.00000000000E+00 -0.00000000000E+00 -0.21790335653E+02  0.21827313803E+02  0.12700000000E+01 0. -1.
         25    2    1    2    0    0  0.00000000000E+00  0.00000000000E+00  0.15726263177E+03  0.20088478514E+03  0.12499264599E+03 0.  0.
    9000005    1    3    3    0    0  0.16655634488E+02  0.60128429030E+02  0.84187638014E+02  0.10479215873E+03  0.10000000000E+01 0.  0.
    9000005    1    3    3    0    0 -0.16655634488E+02 -0.60128429030E+02  0.73074993752E+02  0.96092626406E+02  0.10000000000E+01 0.  0.
<mgrwt>
<rscale>  0 0.12499265E+03</rscale>
<asrwt>0</asrwt>
<pdfrwt beam="1">  1        4 0.27549801E-01 0.12499265E+03</pdfrwt>
<pdfrwt beam="2">  1       -4 0.33555504E-02 0.12499265E+03</pdfrwt>
<totfact> 0.90001303E+03</totfact>
</mgrwt>
</event>
<event>
 5    1  0.3212987E-002  0.1249998E+03  0.7818608E-02  0.1235070E+00
         -4   -1    0    0    0  501 -0.00000000000E+00  0.00000000000E+00  0.41647590505E+02  0.41666949671E+02  0.12700000000E+01 0.  1.
          4   -1    0    0  501    0  0.00000000000E+00 -0.00000000000E+00 -0.93747238040E+02  0.93755840032E+02  0.12700000000E+01 0.  1.
         25    2    1    2    0    0  0.00000000000E+00  0.00000000000E+00 -0.52099647535E+02  0.13542278970E+03  0.12499983479E+03 0.  0.
    9000005    1    3    3    0    0  0.62455983749E+02 -0.20959818009E+01 -0.25713052388E+02  0.67581832684E+02  0.10000000000E+01 0.  0.
    9000005    1    3    3    0    0 -0.62455983749E+02  0.20959818009E+01 -0.26386595146E+02  0.67840957018E+02  0.10000000000E+01 0.  0.
<mgrwt>
<rscale>  0 0.12499983E+03</rscale>
<asrwt>0</asrwt>
<pdfrwt beam="2">  1        4 0.14424803E-01 0.12499983E+03</pdfrwt>
<pdfrwt beam="1">  1       -4 0.64094725E-02 0.12499983E+03</pdfrwt>
<totfact> 0.10229205E+04</totfact>
</mgrwt>
</event>
<event>
 5    1  0.3212987E-002  0.1250016E+03  0.7818608E-02  0.1235067E+00
         -4   -1    0    0    0  501 -0.00000000000E+00  0.00000000000E+00  0.12886779536E+02  0.12949207961E+02  0.12700000000E+01 0. -1.
          4   -1    0    0  501    0  0.00000000000E+00 -0.00000000000E+00 -0.30233242909E+03  0.30233509651E+03  0.12700000000E+01 0. -1.
         25    2    1    2    0    0  0.00000000000E+00  0.00000000000E+00 -0.28944564956E+03  0.31528430447E+03  0.12500163438E+03 0.  0.
    9000005    1    3    3    0    0 -0.11844405980E+02  0.25415830640E+02 -0.38584563472E+01  0.28322113013E+02  0.10000000000E+01 0.  0.
    9000005    1    3    3    0    0  0.11844405980E+02 -0.25415830640E+02 -0.28558719321E+03  0.28696219146E+03  0.10000000000E+01 0.  0.
<mgrwt>
<rscale>  0 0.12500163E+03</rscale>
<asrwt>0</asrwt>
<pdfrwt beam="2">  1        4 0.46517684E-01 0.12500163E+03</pdfrwt>
<pdfrwt beam="1">  1       -4 0.19875891E-02 0.12500163E+03</pdfrwt>
<totfact> 0.73717858E+03</totfact>
</mgrwt>
</event>
<event>
 5    1  0.3212987E-002  0.1249928E+03  0.7818608E-02  0.1235081E+00
          4   -1    0    0  501    0  0.00000000000E+00  0.00000000000E+00  0.11549768933E+02  0.11619383047E+02  0.12700000000E+01 0. -1.
         -4   -1    0    0    0  501 -0.00000000000E+00 -0.00000000000E+00 -0.33708448615E+03  0.33708687857E+03  0.12700000000E+01 0. -1.
         25    2    1    2    0    0  0.00000000000E+00  0.00000000000E+00 -0.32553471722E+03  0.34870626162E+03  0.12499281890E+03 0.  0.
    9000005    1    3    3    0    0 -0.57300018898E+02 -0.14522968476E+02 -0.10623720775E+03  0.12157941063E+03  0.10000000000E+01 0.  0.
    9000005    1    3    3    0    0  0.57300018898E+02  0.14522968476E+02 -0.21929750947E+03  0.22712685099E+03  0.10000000000E+01 0.  0.
<mgrwt>
<rscale>  0 0.12499282E+03</rscale>
<asrwt>0</asrwt>
<pdfrwt beam="1">  1        4 0.17824267E-02 0.12499282E+03</pdfrwt>
<pdfrwt beam="2">  1       -4 0.51864683E-01 0.12499282E+03</pdfrwt>
<totfact> 0.69878226E+03</totfact>
</mgrwt>
</event>
<event>
 5    1  0.3212987E-002  0.1249990E+03  0.7818608E-02  0.1235071E+00
         -4   -1    0    0    0  501 -0.00000000000E+00  0.00000000000E+00  0.53297929564E+03  0.53298080874E+03  0.12700000000E+01 0. -1.
          4   -1    0    0  501    0  0.00000000000E+00 -0.00000000000E+00 -0.72724158566E+01  0.73824746794E+01  0.12700000000E+01 0. -1.
         25    2    1    2    0    0  0.00000000000E+00  0.00000000000E+00  0.52570687979E+03  0.54036328342E+03  0.12499901844E+03 0.  0.
    9000005    1    3    3    0    0  0.32398297797E+02  0.40605649040E+02  0.11268366700E+03  0.12408495978E+03  0.10000000000E+01 0.  0.
    9000005    1    3    3    0    0 -0.32398297797E+02 -0.40605649040E+02  0.41302321279E+03  0.41627832364E+03  0.10000000000E+01 0.  0.
<mgrwt>
<rscale>  0 0.12499902E+03</rscale>
<asrwt>0</asrwt>
<pdfrwt beam="2">  1        4 0.11274157E-02 0.12499902E+03</pdfrwt>
<pdfrwt beam="1">  1       -4 0.82005396E-01 0.12499902E+03</pdfrwt>
<totfact> 0.52864396E+03</totfact>
</mgrwt>
</event>
<event>
 5    1  0.3212987E-002  0.1250011E+03  0.7818608E-02  0.1235068E+00
          4   -1    0    0  501    0  0.00000000000E+00  0.00000000000E+00  0.70389329045E+01  0.71525852973E+01  0.12700000000E+01 0.  1.
         -4   -1    0    0    0  501 -0.00000000000E+00 -0.00000000000E+00 -0.55040033662E+03  0.55040180182E+03  0.12700000000E+01 0.  1.
         25    2    1    2    0    0  0.00000000000E+00  0.00000000000E+00 -0.54336140371E+03  0.55755438712E+03  0.12500111820E+03 0.  0.
    9000005    1    3    3    0    0 -0.72550228564E+01 -0.23114748939E+01  0.49839751816E+01  0.91552324626E+01  0.10000000000E+01 0.  0.
    9000005    1    3    3    0    0  0.72550228564E+01  0.23114748939E+01 -0.54834537890E+03  0.54839915466E+03  0.10000000000E+01 0.  0.
<mgrwt>
<rscale>  0 0.12500112E+03</rscale>
<asrwt>0</asrwt>
<pdfrwt beam="1">  1        4 0.10917684E-02 0.12500112E+03</pdfrwt>
<pdfrwt beam="2">  1       -4 0.84685797E-01 0.12500112E+03</pdfrwt>
<totfact> 0.51660156E+03</totfact>
</mgrwt>
</event>
<event>
 5    1  0.3212987E-002  0.1250014E+03  0.7818608E-02  0.1235067E+00
          4   -1    0    0  501    0  0.00000000000E+00  0.00000000000E+00  0.48022057826E+02  0.48038848215E+02  0.12700000000E+01 0.  1.
         -4   -1    0    0    0  501 -0.00000000000E+00 -0.00000000000E+00 -0.81308703479E+02  0.81318621246E+02  0.12700000000E+01 0.  1.
         25    2    1    2    0    0  0.00000000000E+00  0.00000000000E+00 -0.33286645653E+02  0.12935746946E+03  0.12500141650E+03 0.  0.
    9000005    1    3    3    0    0 -0.48638296595E+02  0.12568180250E+01  0.23941657484E+02  0.54235287869E+02  0.10000000000E+01 0.  0.
    9000005    1    3    3    0    0  0.48638296595E+02 -0.12568180250E+01 -0.57228303137E+02  0.75122181592E+02  0.10000000000E+01 0.  0.
<mgrwt>
<rscale>  0 0.12500142E+03</rscale>
<asrwt>0</asrwt>
<pdfrwt beam="1">  1        4 0.73900634E-02 0.12500142E+03</pdfrwt>
<pdfrwt beam="2">  1       -4 0.12511086E-01 0.12500142E+03</pdfrwt>
<totfact> 0.10357941E+04</totfact>
</mgrwt>
</event>
<event>
 5    1  0.3212987E-002  0.1250056E+03  0.7818608E-02  0.1235060E+00
          4   -1    0    0  501    0  0.00000000000E+00  0.00000000000E+00  0.15073071808E+03  0.15073606826E+03  0.12700000000E+01 0. -1.
         -4   -1    0    0    0  501 -0.00000000000E+00 -0.00000000000E+00 -0.25896382845E+02  0.25927505558E+02  0.12700000000E+01 0. -1.
         25    2    1    2    0    0  0.00000000000E+00  0.00000000000E+00  0.12483433524E+03  0.17666357382E+03  0.12500562811E+03 0.  0.
    9000005    1    3    3    0    0  0.42149582010E+02 -0.34114122301E+02  0.10632432911E+03  0.11935754507E+03  0.10000000000E+01 0.  0.
    9000005    1    3    3    0    0 -0.42149582010E+02  0.34114122301E+02  0.18510006127E+02  0.57306028747E+02  0.10000000000E+01 0.  0.
<mgrwt>
<rscale>  0 0.12500563E+03</rscale>
<asrwt>0</asrwt>
<pdfrwt beam="1">  1        4 0.23192146E-01 0.12500563E+03</pdfrwt>
<pdfrwt beam="2">  1       -4 0.39868646E-02 0.12500563E+03</pdfrwt>
<totfact> 0.94209149E+03</totfact>
</mgrwt>
</event>
<event>
 5    1  0.3212987E-002  0.1250001E+03  0.7818608E-02  0.1235069E+00
         -4   -1    0    0    0  501 -0.00000000000E+00  0.00000000000E+00  0.77195696242E+01  0.78233404108E+01  0.12700000000E+01 0. -1.
          4   -1    0    0  501    0  0.00000000000E+00 -0.00000000000E+00 -0.50253711981E+03  0.50253872457E+03  0.12700000000E+01 0. -1.
         25    2    1    2    0    0  0.00000000000E+00  0.00000000000E+00 -0.49481755019E+03  0.51036206498E+03  0.12500011758E+03 0.  0.
    9000005    1    3    3    0    0 -0.41958446801E+02  0.12422791152E+01 -0.43642522491E+03  0.43844045372E+03  0.10000000000E+01 0.  0.
    9000005    1    3    3    0    0  0.41958446801E+02 -0.12422791152E+01 -0.58392325279E+02  0.71921611264E+02  0.10000000000E+01 0.  0.
<mgrwt>
<rscale>  0 0.12500012E+03</rscale>
<asrwt>0</asrwt>
<pdfrwt beam="2">  1        4 0.77321483E-01 0.12500012E+03</pdfrwt>
<pdfrwt beam="1">  1       -4 0.11957323E-02 0.12500012E+03</pdfrwt>
<totfact> 0.55069135E+03</totfact>
</mgrwt>
</event>
<event>
 5    1  0.3212987E-002  0.1249982E+03  0.7818608E-02  0.1235072E+00
          4   -1    0    0  501    0  0.00000000000E+00  0.00000000000E+00  0.35711809183E+01  0.37902814079E+01  0.12700000000E+01 0. -1.
         -4   -1    0    0    0  501 -0.00000000000E+00 -0.00000000000E+00 -0.10610198830E+04  0.10610206431E+04  0.12700000000E+01 0. -1.
         25    2    1    2    0    0  0.00000000000E+00  0.00000000000E+00 -0.10574487021E+04  0.10648109245E+04  0.12499818940E+03 0.  0.
    9000005    1    3    3    0    0  0.51279017160E+02 -0.34742859002E+02 -0.59924537394E+03  0.60243889486E+03  0.10000000000E+01 0.  0.
    9000005    1    3    3    0    0 -0.51279017160E+02  0.34742859002E+02 -0.45820332814E+03  0.46237202962E+03  0.10000000000E+01 0.  0.
<mgrwt>
<rscale>  0 0.12499819E+03</rscale>
<asrwt>0</asrwt>
<pdfrwt beam="1">  1        4 0.56632564E-03 0.12499819E+03</pdfrwt>
<pdfrwt beam="2">  1       -4 0.16325050E+00 0.12499819E+03</pdfrwt>
<totfact> 0.28537960E+03</totfact>
</mgrwt>
</event>
<event>
 5    1  0.3212987E-002  0.1250014E+03  0.7818608E-02  0.1235067E+00
          4   -1    0    0  501    0  0.00000000000E+00  0.00000000000E+00  0.63009133673E+02  0.63021931311E+02  0.12700000000E+01 0. -1.
         -4   -1    0    0    0  501 -0.00000000000E+00 -0.00000000000E+00 -0.61970790411E+02  0.61983802434E+02  0.12700000000E+01 0. -1.
         25    2    1    2    0    0  0.00000000000E+00  0.00000000000E+00  0.10383432621E+01  0.12500573375E+03  0.12500142124E+03 0.  0.
    9000005    1    3    3    0    0  0.56232457217E+02  0.24366239912E+02 -0.11709738952E+02  0.62401289077E+02  0.10000000000E+01 0.  0.
    9000005    1    3    3    0    0 -0.56232457217E+02 -0.24366239912E+02  0.12748082214E+02  0.62604444668E+02  0.10000000000E+01 0.  0.
<mgrwt>
<rscale>  0 0.12500142E+03</rscale>
<asrwt>0</asrwt>
<pdfrwt beam="1">  1        4 0.96956983E-02 0.12500142E+03</pdfrwt>
<pdfrwt beam="2">  1       -4 0.95359531E-02 0.12500142E+03</pdfrwt>
<totfact> 0.10452402E+04</totfact>
</mgrwt>
</event>
<event>
 5    1  0.3212987E-002  0.1250012E+03  0.7818608E-02  0.1235067E+00
          4   -1    0    0  501    0  0.00000000000E+00  0.00000000000E+00  0.12373613495E+03  0.12374265228E+03  0.12700000000E+01 0.  1.
         -4   -1    0    0    0  501 -0.00000000000E+00 -0.00000000000E+00 -0.31549683476E+02  0.31575234401E+02  0.12700000000E+01 0.  1.
         25    2    1    2    0    0  0.00000000000E+00  0.00000000000E+00  0.92186451473E+02  0.15531788668E+03  0.12500121634E+03 0.  0.
    9000005    1    3    3    0    0  0.35806664734E+02 -0.45859033209E+02  0.17754859121E+02  0.60839158349E+02  0.10000000000E+01 0.  0.
    9000005    1    3    3    0    0 -0.35806664734E+02  0.45859033209E+02  0.74431592352E+02  0.94478728327E+02  0.10000000000E+01 0.  0.
<mgrwt>
<rscale>  0 0.12500122E+03</rscale>
<asrwt>0</asrwt>
<pdfrwt beam="1">  1        4 0.19038795E-01 0.12500122E+03</pdfrwt>
<pdfrwt beam="2">  1       -4 0.48562643E-02 0.12500122E+03</pdfrwt>
<totfact> 0.98250442E+03</totfact>
</mgrwt>
</event>
<event>
 5    1  0.3212987E-002  0.1249966E+03  0.7818608E-02  0.1235075E+00
          4   -1    0    0  501    0  0.00000000000E+00  0.00000000000E+00  0.90876440247E+02  0.90885313951E+02  0.12700000000E+01 0. -1.
         -4   -1    0    0    0  501 -0.00000000000E+00 -0.00000000000E+00 -0.42961501159E+02  0.42980268518E+02  0.12700000000E+01 0. -1.
         25    2    1    2    0    0  0.00000000000E+00  0.00000000000E+00  0.47914939088E+02  0.13386558247E+03  0.12499661108E+03 0.  0.
    9000005    1    3    3    0    0  0.23531375800E+02  0.52586426140E+02 -0.19671393995E+01  0.57653512457E+02  0.10000000000E+01 0.  0.
    9000005    1    3    3    0    0 -0.23531375800E+02 -0.52586426140E+02  0.49882078488E+02  0.76212070012E+02  0.10000000000E+01 0.  0.
<mgrwt>
<rscale>  0 0.12499661E+03</rscale>
<asrwt>0</asrwt>
<pdfrwt beam="1">  1        4 0.13983117E-01 0.12499661E+03</pdfrwt>
<pdfrwt beam="2">  1       -4 0.66115881E-02 0.12499661E+03</pdfrwt>
<totfact> 0.10262822E+04</totfact>
</mgrwt>
</event>
<event>
 5    1  0.3212987E-002  0.1250037E+03  0.7818608E-02  0.1235063E+00
          4   -1    0    0  501    0  0.00000000000E+00  0.00000000000E+00  0.98818206675E+02  0.98826367283E+02  0.12700000000E+01 0.  1.
         -4   -1    0    0    0  501 -0.00000000000E+00 -0.00000000000E+00 -0.39512004388E+02  0.39532409373E+02  0.12700000000E+01 0.  1.
         25    2    1    2    0    0  0.00000000000E+00  0.00000000000E+00  0.59306202286E+02  0.13835877666E+03  0.12500370174E+03 0.  0.
    9000005    1    3    3    0    0 -0.16251628134E+02  0.65884150815E+00  0.96439821249E+02  0.97806894500E+02  0.10000000000E+01 0.  0.
    9000005    1    3    3    0    0  0.16251628134E+02 -0.65884150815E+00 -0.37133618963E+02  0.40551882156E+02  0.10000000000E+01 0.  0.
<mgrwt>
<rscale>  0 0.12500370E+03</rscale>
<asrwt>0</asrwt>
<pdfrwt beam="1">  1        4 0.15204998E-01 0.12500370E+03</pdfrwt>
<pdfrwt beam="2">  1       -4 0.60809673E-02 0.12500370E+03</pdfrwt>
<totfact> 0.10166867E+04</totfact>
</mgrwt>
</event>
<event>
 5    1  0.3212987E-002  0.1249496E+03  0.7818608E-02  0.1235148E+00
         -4   -1    0    0    0  501 -0.00000000000E+00  0.00000000000E+00  0.20181260689E+03  0.20181660288E+03  0.12700000000E+01 0. -1.
          4   -1    0    0  501    0  0.00000000000E+00 -0.00000000000E+00 -0.19315170890E+02  0.19356878015E+02  0.12700000000E+01 0. -1.
         25    2    1    2    0    0  0.00000000000E+00  0.00000000000E+00  0.18249743600E+03  0.22117348090E+03  0.12494956785E+03 0.  0.
    9000005    1    3    3    0    0 -0.10375891273E+02  0.16637500007E+01 -0.17748055810E+02  0.20649955661E+02  0.10000000000E+01 0.  0.
    9000005    1    3    3    0    0  0.10375891273E+02 -0.16637500007E+01  0.20024549181E+03  0.20052352523E+03  0.10000000000E+01 0.  0.
<mgrwt>
<rscale>  0 0.12494957E+03</rscale>
<asrwt>0</asrwt>
<pdfrwt beam="2">  1        4 0.29750802E-02 0.12494957E+03</pdfrwt>
<pdfrwt beam="1">  1       -4 0.31051611E-01 0.12494957E+03</pdfrwt>
<totfact> 0.86780709E+03</totfact>
</mgrwt>
</event>
<event>
 5    1  0.3212987E-002  0.1250045E+03  0.7818608E-02  0.1235062E+00
          4   -1    0    0  501    0  0.00000000000E+00  0.00000000000E+00  0.40318231708E+02  0.40338228866E+02  0.12700000000E+01 0.  1.
         -4   -1    0    0    0  501 -0.00000000000E+00 -0.00000000000E+00 -0.96844240236E+02  0.96852567168E+02  0.12700000000E+01 0.  1.
         25    2    1    2    0    0  0.00000000000E+00  0.00000000000E+00 -0.56526008529E+02  0.13719079603E+03  0.12500449942E+03 0.  0.
    9000005    1    3    3    0    0 -0.52033051057E+02 -0.26509337667E+02 -0.38368854925E+01  0.58531231630E+02  0.10000000000E+01 0.  0.
    9000005    1    3    3    0    0  0.52033051057E+02  0.26509337667E+02 -0.52689123036E+02  0.78659564404E+02  0.10000000000E+01 0.  0.
<mgrwt>
<rscale>  0 0.12500450E+03</rscale>
<asrwt>0</asrwt>
<pdfrwt beam="1">  1        4 0.62049837E-02 0.12500450E+03</pdfrwt>
<pdfrwt beam="2">  1       -4 0.14901293E-01 0.12500450E+03</pdfrwt>
<totfact> 0.10191064E+04</totfact>
</mgrwt>
</event>
<event>
 5    1  0.3212987E-002  0.1249961E+03  0.7818608E-02  0.1235075E+00
          4   -1    0    0  501    0  0.00000000000E+00  0.00000000000E+00  0.11986970414E+04  0.11986977142E+04  0.12700000000E+01 0. -1.
         -4   -1    0    0    0  501 -0.00000000000E+00 -0.00000000000E+00 -0.31340996340E+01  0.33816387323E+01  0.12700000000E+01 0. -1.
         25    2    1    2    0    0  0.00000000000E+00  0.00000000000E+00  0.11955629418E+04  0.12020793529E+04  0.12499609176E+03 0.  0.
    9000005    1    3    3    0    0  0.47188295936E+02  0.17864878323E+02  0.95232132366E+03  0.95365758669E+03  0.10000000000E+01 0.  0.
    9000005    1    3    3    0    0 -0.47188295936E+02 -0.17864878323E+02  0.24324161809E+03  0.24842176620E+03  0.10000000000E+01 0.  0.
<mgrwt>
<rscale>  0 0.12499609E+03</rscale>
<asrwt>0</asrwt>
<pdfrwt beam="1">  1        4 0.18443417E+00 0.12499609E+03</pdfrwt>
<pdfrwt beam="2">  1       -4 0.50126199E-03 0.12499609E+03</pdfrwt>
<totfact> 0.24660462E+03</totfact>
</mgrwt>
</event>
<event>
 5    1  0.3212987E-002  0.1249954E+03  0.7818608E-02  0.1235076E+00
         -4   -1    0    0    0  501 -0.00000000000E+00  0.00000000000E+00  0.25209113039E+02  0.25241083182E+02  0.12700000000E+01 0.  1.
          4   -1    0    0  501    0  0.00000000000E+00 -0.00000000000E+00 -0.15480981840E+03  0.15481502760E+03  0.12700000000E+01 0.  1.
         25    2    1    2    0    0  0.00000000000E+00  0.00000000000E+00 -0.12960070536E+03  0.18005611078E+03  0.12499544072E+03 0.  0.
    9000005    1    3    3    0    0 -0.13780970245E+02 -0.48098303869E+02 -0.11872983031E+03  0.12884539023E+03  0.10000000000E+01 0.  0.
    9000005    1    3    3    0    0  0.13780970245E+02  0.48098303869E+02 -0.10870875042E+02  0.51210720559E+02  0.10000000000E+01 0.  0.
<mgrwt>
<rscale>  0 0.12499544E+03</rscale>
<asrwt>0</asrwt>
<pdfrwt beam="2">  1        4 0.23819755E-01 0.12499544E+03</pdfrwt>
<pdfrwt beam="1">  1       -4 0.38811851E-02 0.12499544E+03</pdfrwt>
<totfact> 0.93616474E+03</totfact>
</mgrwt>
</event>
<event>
 5    1  0.3212987E-002  0.1250008E+03  0.7818608E-02  0.1235068E+00
          4   -1    0    0  501    0  0.00000000000E+00  0.00000000000E+00  0.56471036590E+02  0.56485315557E+02  0.12700000000E+01 0. -1.
         -4   -1    0    0    0  501 -0.00000000000E+00 -0.00000000000E+00 -0.69144640320E+02  0.69156302569E+02  0.12700000000E+01 0. -1.
         25    2    1    2    0    0  0.00000000000E+00  0.00000000000E+00 -0.12673603730E+02  0.12564161813E+03  0.12500078389E+03 0.  0.
    9000005    1    3    3    0    0  0.59627270462E+02  0.28543705709E+01 -0.24917789998E+02  0.64695093110E+02  0.10000000000E+01 0.  0.
    9000005    1    3    3    0    0 -0.59627270462E+02 -0.28543705709E+01  0.12244186268E+02  0.60946525015E+02  0.10000000000E+01 0.  0.
<mgrwt>
<rscale>  0 0.12500078E+03</rscale>
<asrwt>0</asrwt>
<pdfrwt beam="1">  1        4 0.86898472E-02 0.12500078E+03</pdfrwt>
<pdfrwt beam="2">  1       -4 0.10639633E-01 0.12500078E+03</pdfrwt>
<totfact> 0.10438645E+04</totfact>
</mgrwt>
</event>
<event>
 5    1  0.3212987E-002  0.1249958E+03  0.7818608E-02  0.1235076E+00
         -4   -1    0    0    0  501 -0.00000000000E+00  0.00000000000E+00  0.52916207410E+02  0.52931445348E+02  0.12700000000E+01 0.  1.
          4   -1    0    0  501    0  0.00000000000E+00 -0.00000000000E+00 -0.73783215261E+02  0.73794144444E+02  0.12700000000E+01 0.  1.
         25    2    1    2    0    0  0.00000000000E+00  0.00000000000E+00 -0.20867007851E+02  0.12672558979E+03  0.12499577229E+03 0.  0.
    9000005    1    3    3    0    0 -0.30741168049E+02  0.16411508023E+02  0.42155614100E+02  0.54703316250E+02  0.10000000000E+01 0.  0.
    9000005    1    3    3    0    0  0.30741168049E+02 -0.16411508023E+02 -0.63022621951E+02  0.72022273542E+02  0.10000000000E+01 0.  0.
<mgrwt>
<rscale>  0 0.12499577E+03</rscale>
<asrwt>0</asrwt>
<pdfrwt beam="2">  1        4 0.11353277E-01 0.12499577E+03</pdfrwt>
<pdfrwt beam="1">  1       -4 0.81429678E-02 0.12499577E+03</pdfrwt>
<totfact> 0.10416107E+04</totfact>
</mgrwt>
</event>
<event>
 5    1  0.3212987E-002  0.1249960E+03  0.7818608E-02  0.1235076E+00
         -4   -1    0    0    0  501 -0.00000000000E+00  0.00000000000E+00  0.31718593742E+02  0.31744008710E+02  0.12700000000E+01 0.  1.
          4   -1    0    0  501    0  0.00000000000E+00 -0.00000000000E+00 -0.12306739719E+03  0.12307394992E+03  0.12700000000E+01 0.  1.
         25    2    1    2    0    0  0.00000000000E+00  0.00000000000E+00 -0.91348803443E+02  0.15481795863E+03  0.12499598564E+03 0.  0.
    9000005    1    3    3    0    0  0.24336342221E+02  0.41168619126E+02  0.41450882488E+01  0.48013482586E+02  0.10000000000E+01 0.  0.
    9000005    1    3    3    0    0 -0.24336342221E+02 -0.41168619126E+02 -0.95493891692E+02  0.10680447605E+03  0.10000000000E+01 0.  0.
<mgrwt>
<rscale>  0 0.12499599E+03</rscale>
<asrwt>0</asrwt>
<pdfrwt beam="2">  1        4 0.18935905E-01 0.12499599E+03</pdfrwt>
<pdfrwt beam="1">  1       -4 0.48822428E-02 0.12499599E+03</pdfrwt>
<totfact> 0.98360128E+03</totfact>
</mgrwt>
</event>
<event>
 5    1  0.3212987E-002  0.1249986E+03  0.7818608E-02  0.1235071E+00
          4   -1    0    0  501    0  0.00000000000E+00  0.00000000000E+00  0.77789090048E+02  0.77799456492E+02  0.12700000000E+01 0. -1.
         -4   -1    0    0    0  501 -0.00000000000E+00 -0.00000000000E+00 -0.50193062545E+02  0.50209126936E+02  0.12700000000E+01 0. -1.
         25    2    1    2    0    0  0.00000000000E+00  0.00000000000E+00  0.27596027503E+02  0.12800858343E+03  0.12499862678E+03 0.  0.
    9000005    1    3    3    0    0 -0.51683346067E+02 -0.30412050843E+02 -0.42066706812E+01  0.60122850693E+02  0.10000000000E+01 0.  0.
    9000005    1    3    3    0    0  0.51683346067E+02  0.30412050843E+02  0.31802698184E+02  0.67885732735E+02  0.10000000000E+01 0.  0.
<mgrwt>
<rscale>  0 0.12499863E+03</rscale>
<asrwt>0</asrwt>
<pdfrwt beam="1">  1        4 0.11969585E-01 0.12499863E+03</pdfrwt>
<pdfrwt beam="2">  1       -4 0.77240427E-02 0.12499863E+03</pdfrwt>
<totfact> 0.10387624E+04</totfact>
</mgrwt>
</event>
<event>
 5    1  0.3212987E-002  0.1250018E+03  0.7818608E-02  0.1235066E+00
         -4   -1    0    0    0  501 -0.00000000000E+00  0.00000000000E+00  0.51276185727E+02  0.51291910890E+02  0.12700000000E+01 0.  1.
          4   -1    0    0  501    0  0.00000000000E+00 -0.00000000000E+00 -0.76150117711E+02  0.76160707241E+02  0.12700000000E+01 0.  1.
         25    2    1    2    0    0  0.00000000000E+00  0.00000000000E+00 -0.24873931984E+02  0.12745261813E+03  0.12500182949E+03 0.  0.
    9000005    1    3    3    0    0  0.56910417350E+02  0.25366137360E+02 -0.75335390544E+01  0.62769345529E+02  0.10000000000E+01 0.  0.
    9000005    1    3    3    0    0 -0.56910417350E+02 -0.25366137360E+02 -0.17340392930E+02  0.64683272601E+02  0.10000000000E+01 0.  0.
<mgrwt>
<rscale>  0 0.12500183E+03</rscale>
<asrwt>0</asrwt>
<pdfrwt beam="2">  1        4 0.11717427E-01 0.12500183E+03</pdfrwt>
<pdfrwt beam="1">  1       -4 0.78906682E-02 0.12500183E+03</pdfrwt>
<totfact> 0.10398897E+04</totfact>
</mgrwt>
</event>
<event>
 5    1  0.3212987E-002  0.1249999E+03  0.7818608E-02  0.1235070E+00
          4   -1    0    0  501    0  0.00000000000E+00  0.00000000000E+00  0.90347752736E+03  0.90347841996E+03  0.12700000000E+01 0. -1.
         -4   -1    0    0    0  501 -0.00000000000E+00 -0.00000000000E+00 -0.42293856136E+01  0.44159486714E+01  0.12700000000E+01 0. -1.
         25    2    1    2    0    0  0.00000000000E+00  0.00000000000E+00  0.89924814174E+03  0.90789436864E+03  0.12499985668E+03 0.  0.
    9000005    1    3    3    0    0 -0.43545146306E+02  0.44813076602E+02  0.44292996765E+03  0.44731683162E+03  0.10000000000E+01 0.  0.
    9000005    1    3    3    0    0  0.43545146306E+02 -0.44813076602E+02  0.45631817409E+03  0.46057753702E+03  0.10000000000E+01 0.  0.
<mgrwt>
<rscale>  0 0.12499986E+03</rscale>
<asrwt>0</asrwt>
<pdfrwt beam="1">  1        4 0.13901098E+00 0.12499986E+03</pdfrwt>
<pdfrwt beam="2">  1       -4 0.66509428E-03 0.12499986E+03</pdfrwt>
<totfact> 0.33859533E+03</totfact>
</mgrwt>
</event>
<event>
 5    1  0.3212987E-002  0.1250024E+03  0.7818608E-02  0.1235066E+00
          4   -1    0    0  501    0  0.00000000000E+00  0.00000000000E+00  0.76223756395E+03  0.76223862195E+03  0.12700000000E+01 0.  1.
         -4   -1    0    0    0  501 -0.00000000000E+00 -0.00000000000E+00 -0.50451549241E+01  0.52025463197E+01  0.12700000000E+01 0.  1.
         25    2    1    2    0    0  0.00000000000E+00  0.00000000000E+00  0.75719240902E+03  0.76744116827E+03  0.12500240987E+03 0.  0.
    9000005    1    3    3    0    0 -0.58147032201E+02 -0.21423693550E+02  0.32896613148E+03  0.33475329372E+03  0.10000000000E+01 0.  0.
    9000005    1    3    3    0    0  0.58147032201E+02  0.21423693550E+02  0.42822627755E+03  0.43268787455E+03  0.10000000000E+01 0.  0.
<mgrwt>
<rscale>  0 0.12500241E+03</rscale>
<asrwt>0</asrwt>
<pdfrwt beam="1">  1        4 0.11727956E+00 0.12500241E+03</pdfrwt>
<pdfrwt beam="2">  1       -4 0.78836574E-03 0.12500241E+03</pdfrwt>
<totfact> 0.39751382E+03</totfact>
</mgrwt>
</event>
<event>
 5    1  0.3212987E-002  0.1249990E+03  0.7818608E-02  0.1235071E+00
          4   -1    0    0  501    0  0.00000000000E+00  0.00000000000E+00  0.64209136259E+01  0.65453060885E+01  0.12700000000E+01 0. -1.
         -4   -1    0    0    0  501 -0.00000000000E+00 -0.00000000000E+00 -0.60239285726E+03  0.60239419601E+03  0.12700000000E+01 0. -1.
         25    2    1    2    0    0  0.00000000000E+00  0.00000000000E+00 -0.59597194364E+03  0.60893950209E+03  0.12499903843E+03 0.  0.
    9000005    1    3    3    0    0 -0.72457371688E+01  0.55396199720E+02 -0.16158680184E+03  0.17097524435E+03  0.10000000000E+01 0.  0.
    9000005    1    3    3    0    0  0.72457371688E+01 -0.55396199720E+02 -0.43438514180E+03  0.43796425775E+03  0.10000000000E+01 0.  0.
<mgrwt>
<rscale>  0 0.12499904E+03</rscale>
<asrwt>0</asrwt>
<pdfrwt beam="1">  1        4 0.99750497E-03 0.12499904E+03</pdfrwt>
<pdfrwt beam="2">  1       -4 0.92685452E-01 0.12499904E+03</pdfrwt>
<totfact> 0.48309177E+03</totfact>
</mgrwt>
</event>
<event>
 5    1  0.3212987E-002  0.1250016E+03  0.7818608E-02  0.1235067E+00
         -4   -1    0    0    0  501 -0.00000000000E+00  0.00000000000E+00  0.16088440712E+02  0.16138488918E+02  0.12700000000E+01 0.  1.
          4   -1    0    0  501    0  0.00000000000E+00 -0.00000000000E+00 -0.24237604959E+03  0.24237937684E+03  0.12700000000E+01 0.  1.
         25    2    1    2    0    0  0.00000000000E+00  0.00000000000E+00 -0.22628760888E+03  0.25851786576E+03  0.12500161992E+03 0.  0.
    9000005    1    3    3    0    0 -0.37709964846E+02 -0.46394958735E+02 -0.15075951106E+03  0.16218496792E+03  0.10000000000E+01 0.  0.
    9000005    1    3    3    0    0  0.37709964846E+02  0.46394958735E+02 -0.75528097824E+02  0.96332897837E+02  0.10000000000E+01 0.  0.
<mgrwt>
<rscale>  0 0.12500162E+03</rscale>
<asrwt>0</asrwt>
<pdfrwt beam="2">  1        4 0.37292726E-01 0.12500162E+03</pdfrwt>
<pdfrwt beam="1">  1       -4 0.24792507E-02 0.12500162E+03</pdfrwt>
<totfact> 0.81111584E+03</totfact>
</mgrwt>
</event>
<event>
 5    1  0.3212987E-002  0.1250014E+03  0.7818608E-02  0.1235067E+00
         -4   -1    0    0    0  501 -0.00000000000E+00  0.00000000000E+00  0.11892190162E+02  0.11959811322E+02  0.12700000000E+01 0.  1.
          4   -1    0    0  501    0  0.00000000000E+00 -0.00000000000E+00 -0.32747906706E+03  0.32748152965E+03  0.12700000000E+01 0.  1.
         25    2    1    2    0    0  0.00000000000E+00  0.00000000000E+00 -0.31558687690E+03  0.33944134097E+03  0.12500138836E+03 0.  0.
    9000005    1    3    3    0    0 -0.50291536195E+02  0.46366822124E+01 -0.57849760543E+02  0.76800600451E+02  0.10000000000E+01 0.  0.
    9000005    1    3    3    0    0  0.50291536195E+02 -0.46366822124E+01 -0.25773711635E+03  0.26264074052E+03  0.10000000000E+01 0.  0.
<mgrwt>
<rscale>  0 0.12500139E+03</rscale>
<asrwt>0</asrwt>
<pdfrwt beam="2">  1        4 0.50386779E-01 0.12500139E+03</pdfrwt>
<pdfrwt beam="1">  1       -4 0.18349590E-02 0.12500139E+03</pdfrwt>
<totfact> 0.70899796E+03</totfact>
</mgrwt>
</event>
<event>
 5    1  0.3212987E-002  0.1249960E+03  0.7818608E-02  0.1235076E+00
          4   -1    0    0  501    0  0.00000000000E+00  0.00000000000E+00  0.65454411692E+03  0.65454534900E+03  0.12700000000E+01 0.  1.
         -4   -1    0    0    0  501 -0.00000000000E+00 -0.00000000000E+00 -0.58986866934E+01  0.60338548795E+01  0.12700000000E+01 0.  1.
         25    2    1    2    0    0  0.00000000000E+00  0.00000000000E+00  0.64864543023E+03  0.66057920388E+03  0.12499596170E+03 0.  0.
    9000005    1    3    3    0    0  0.26836873889E+02 -0.47459067689E+02  0.48569685392E+03  0.48874841669E+03  0.10000000000E+01 0.  0.
    9000005    1    3    3    0    0 -0.26836873889E+02  0.47459067689E+02  0.16294857630E+03  0.17183078719E+03  0.10000000000E+01 0.  0.
<mgrwt>
<rscale>  0 0.12499596E+03</rscale>
<asrwt>0</asrwt>
<pdfrwt beam="1">  1        4 0.10070960E+00 0.12499596E+03</pdfrwt>
<pdfrwt beam="2">  1       -4 0.91798245E-03 0.12499596E+03</pdfrwt>
<totfact> 0.45254797E+03</totfact>
</mgrwt>
</event>
<event>
 5    1  0.3212987E-002  0.1249986E+03  0.7818608E-02  0.1235071E+00
          4   -1    0    0  501    0  0.00000000000E+00  0.00000000000E+00  0.10108865149E+02  0.10188329333E+02  0.12700000000E+01 0. -1.
         -4   -1    0    0    0  501 -0.00000000000E+00 -0.00000000000E+00 -0.38481635663E+03  0.38481845230E+03  0.12700000000E+01 0. -1.
         25    2    1    2    0    0  0.00000000000E+00  0.00000000000E+00 -0.37470749148E+03  0.39500678163E+03  0.12499861345E+03 0.  0.
    9000005    1    3    3    0    0 -0.12477913743E+02  0.50471085407E+02 -0.77787723413E+02  0.93567936321E+02  0.10000000000E+01 0.  0.
    9000005    1    3    3    0    0  0.12477913743E+02 -0.50471085407E+02 -0.29691976806E+03  0.30143884531E+03  0.10000000000E+01 0.  0.
<mgrwt>
<rscale>  0 0.12499861E+03</rscale>
<asrwt>0</asrwt>
<pdfrwt beam="1">  1        4 0.15614842E-02 0.12499861E+03</pdfrwt>
<pdfrwt beam="2">  1       -4 0.59208779E-01 0.12499861E+03</pdfrwt>
<totfact> 0.65043335E+03</totfact>
</mgrwt>
</event>
<event>
 5    1  0.3212987E-002  0.1250015E+03  0.7818608E-02  0.1235067E+00
         -4   -1    0    0    0  501 -0.00000000000E+00  0.00000000000E+00  0.11509843983E+03  0.11510544623E+03  0.12700000000E+01 0. -1.
          4   -1    0    0  501    0  0.00000000000E+00 -0.00000000000E+00 -0.33919229557E+02  0.33942996829E+02  0.12700000000E+01 0. -1.
         25    2    1    2    0    0  0.00000000000E+00  0.00000000000E+00  0.81179210274E+02  0.14904844306E+03  0.12500149678E+03 0.  0.
    9000005    1    3    3    0    0  0.35227153618E+02 -0.50628693661E+02  0.28598895650E+02  0.67993483557E+02  0.10000000000E+01 0.  0.
    9000005    1    3    3    0    0 -0.35227153618E+02  0.50628693661E+02  0.52580314624E+02  0.81054959501E+02  0.10000000000E+01 0.  0.
<mgrwt>
<rscale>  0 0.12500150E+03</rscale>
<asrwt>0</asrwt>
<pdfrwt beam="2">  1        4 0.52207103E-02 0.12500150E+03</pdfrwt>
<pdfrwt beam="1">  1       -4 0.17709819E-01 0.12500150E+03</pdfrwt>
<totfact> 0.99490364E+03</totfact>
</mgrwt>
</event>
<event>
 5    1  0.3212987E-002  0.1249992E+03  0.7818608E-02  0.1235071E+00
          4   -1    0    0  501    0  0.00000000000E+00  0.00000000000E+00  0.22799571942E+02  0.22834915825E+02  0.12700000000E+01 0. -1.
         -4   -1    0    0    0  501 -0.00000000000E+00 -0.00000000000E+00 -0.17115731555E+03  0.17116202723E+03  0.12700000000E+01 0. -1.
         25    2    1    2    0    0  0.00000000000E+00  0.00000000000E+00 -0.14835774360E+03  0.19399694305E+03  0.12499917530E+03 0.  0.
    9000005    1    3    3    0    0 -0.34511272312E+01 -0.60424423469E+02 -0.50026800121E+02  0.78528351320E+02  0.10000000000E+01 0.  0.
    9000005    1    3    3    0    0  0.34511272312E+01  0.60424423469E+02 -0.98330943484E+02  0.11546859173E+03  0.10000000000E+01 0.  0.
<mgrwt>
<rscale>  0 0.12499918E+03</rscale>
<asrwt>0</asrwt>
<pdfrwt beam="1">  1        4 0.35107078E-02 0.12499918E+03</pdfrwt>
<pdfrwt beam="2">  1       -4 0.26334975E-01 0.12499918E+03</pdfrwt>
<totfact> 0.91158157E+03</totfact>
</mgrwt>
</event>
<event>
 5    1  0.3212987E-002  0.1249903E+03  0.7818608E-02  0.1235084E+00
         -4   -1    0    0    0  501 -0.00000000000E+00  0.00000000000E+00  0.18839057464E+02  0.18881816282E+02  0.12700000000E+01 0. -1.
          4   -1    0    0  501    0  0.00000000000E+00 -0.00000000000E+00 -0.20703659980E+03  0.20704049497E+03  0.12700000000E+01 0. -1.
         25    2    1    2    0    0  0.00000000000E+00  0.00000000000E+00 -0.18819754234E+03  0.22592231126E+03  0.12499030274E+03 0.  0.
    9000005    1    3    3    0    0  0.21458610897E+02 -0.19460913128E+02 -0.19417468261E+03  0.19632627559E+03  0.10000000000E+01 0.  0.
    9000005    1    3    3    0    0 -0.21458610897E+02  0.19460913128E+02  0.59771402658E+01  0.29596035666E+02  0.10000000000E+01 0.  0.
<mgrwt>
<rscale>  0 0.12499030E+03</rscale>
<asrwt>0</asrwt>
<pdfrwt beam="2">  1        4 0.31855372E-01 0.12499030E+03</pdfrwt>
<pdfrwt beam="1">  1       -4 0.29019055E-02 0.12499030E+03</pdfrwt>
<totfact> 0.85958292E+03</totfact>
</mgrwt>
</event>
<event>
 5    1  0.3212987E-002  0.1250013E+03  0.7818608E-02  0.1235067E+00
          4   -1    0    0  501    0  0.00000000000E+00  0.00000000000E+00  0.28146765673E+03  0.28147052187E+03  0.12700000000E+01 0.  1.
         -4   -1    0    0    0  501 -0.00000000000E+00 -0.00000000000E+00 -0.13846430671E+02  0.13904551138E+02  0.12700000000E+01 0.  1.
         25    2    1    2    0    0  0.00000000000E+00  0.00000000000E+00  0.26762122606E+03  0.29537507301E+03  0.12500125248E+03 0.  0.
    9000005    1    3    3    0    0 -0.11782768146E+01  0.27790024472E+02  0.15756197278E+01  0.27877524530E+02  0.10000000000E+01 0.  0.
    9000005    1    3    3    0    0  0.11782768146E+01 -0.27790024472E+02  0.26604560633E+03  0.26749754848E+03  0.10000000000E+01 0.  0.
<mgrwt>
<rscale>  0 0.12500125E+03</rscale>
<asrwt>0</asrwt>
<pdfrwt beam="1">  1        4 0.43307403E-01 0.12500125E+03</pdfrwt>
<pdfrwt beam="2">  1       -4 0.21349115E-02 0.12500125E+03</pdfrwt>
<totfact> 0.76180551E+03</totfact>
</mgrwt>
</event>
<event>
 5    1  0.3212987E-002  0.1250138E+03  0.7818608E-02  0.1235048E+00
         -4   -1    0    0    0  501 -0.00000000000E+00  0.00000000000E+00  0.50279876200E+01  0.51859000672E+01  0.12700000000E+01 0.  1.
          4   -1    0    0  501    0  0.00000000000E+00 -0.00000000000E+00 -0.76490058470E+03  0.76490163902E+03  0.12700000000E+01 0.  1.
         25    2    1    2    0    0  0.00000000000E+00  0.00000000000E+00 -0.75987259708E+03  0.77008753909E+03  0.12501381549E+03 0.  0.
    9000005    1    3    3    0    0 -0.41476192552E+02 -0.37522608078E+02 -0.20812885499E+03  0.21551529167E+03  0.10000000000E+01 0.  0.
    9000005    1    3    3    0    0  0.41476192552E+02  0.37522608078E+02 -0.55174374209E+03  0.55457224741E+03  0.10000000000E+01 0.  0.
<mgrwt>
<rscale>  0 0.12501382E+03</rscale>
<asrwt>0</asrwt>
<pdfrwt beam="2">  1        4 0.11768915E+00 0.12501382E+03</pdfrwt>
<pdfrwt beam="1">  1       -4 0.78576538E-03 0.12501382E+03</pdfrwt>
<totfact> 0.39619336E+03</totfact>
</mgrwt>
</event>
<event>
 5    1  0.3212987E-002  0.1249815E+03  0.7818608E-02  0.1235098E+00
          4   -1    0    0  501    0  0.00000000000E+00  0.00000000000E+00  0.16120065588E+02  0.16170015911E+02  0.12700000000E+01 0.  1.
         -4   -1    0    0    0  501 -0.00000000000E+00 -0.00000000000E+00 -0.24182417921E+03  0.24182751404E+03  0.12700000000E+01 0.  1.
         25    2    1    2    0    0  0.00000000000E+00  0.00000000000E+00 -0.22570411362E+03  0.25799752995E+03  0.12498151287E+03 0.  0.
    9000005    1    3    3    0    0  0.25885195804E+01 -0.36714147401E+02 -0.21708244321E+03  0.22018268824E+03  0.10000000000E+01 0.  0.
    9000005    1    3    3    0    0 -0.25885195804E+01  0.36714147401E+02 -0.86216704094E+01  0.37814841711E+02  0.10000000000E+01 0.  0.
<mgrwt>
<rscale>  0 0.12498151E+03</rscale>
<asrwt>0</asrwt>
<pdfrwt beam="1">  1        4 0.24841091E-02 0.12498151E+03</pdfrwt>
<pdfrwt beam="2">  1       -4 0.37207816E-01 0.12498151E+03</pdfrwt>
<totfact> 0.81221328E+03</totfact>
</mgrwt>
</event>
<event>
 5    1  0.3212987E-002  0.1250012E+03  0.7818608E-02  0.1235067E+00
          4   -1    0    0  501    0  0.00000000000E+00  0.00000000000E+00  0.41814311100E+02  0.41833593113E+02  0.12700000000E+01 0.  1.
         -4   -1    0    0    0  501 -0.00000000000E+00 -0.00000000000E+00 -0.93375606947E+02  0.93384243171E+02  0.12700000000E+01 0.  1.
         25    2    1    2    0    0  0.00000000000E+00  0.00000000000E+00 -0.51561295847E+02  0.13521783628E+03  0.12500118407E+03 0.  0.
    9000005    1    3    3    0    0 -0.59751358050E+01 -0.38517602068E+02 -0.78619885090E+02  0.87757587983E+02  0.10000000000E+01 0.  0.
    9000005    1    3    3    0    0  0.59751358050E+01  0.38517602068E+02  0.27058589243E+02  0.47460248301E+02  0.10000000000E+01 0.  0.
<mgrwt>
<rscale>  0 0.12500118E+03</rscale>
<asrwt>0</asrwt>
<pdfrwt beam="1">  1        4 0.64351185E-02 0.12500118E+03</pdfrwt>
<pdfrwt beam="2">  1       -4 0.14367626E-01 0.12500118E+03</pdfrwt>
<totfact> 0.10233208E+04</totfact>
</mgrwt>
</event>
<event>
 5    1  0.3212987E-002  0.1250034E+03  0.7818608E-02  0.1235064E+00
          4   -1    0    0  501    0  0.00000000000E+00  0.00000000000E+00  0.21775515133E+03  0.21775885477E+03  0.12700000000E+01 0.  1.
         -4   -1    0    0    0  501 -0.00000000000E+00 -0.00000000000E+00 -0.17913364977E+02  0.17958328007E+02  0.12700000000E+01 0.  1.
         25    2    1    2    0    0  0.00000000000E+00  0.00000000000E+00  0.19984178635E+03  0.23571718277E+03  0.12500340269E+03 0.  0.
    9000005    1    3    3    0    0 -0.85545896902E+01  0.15974999822E+01 -0.16774434017E+02  0.18923917341E+02  0.10000000000E+01 0.  0.
    9000005    1    3    3    0    0  0.85545896902E+01 -0.15974999822E+01  0.21661622037E+03  0.21679326543E+03  0.10000000000E+01 0.  0.
<mgrwt>
<rscale>  0 0.12500340E+03</rscale>
<asrwt>0</asrwt>
<pdfrwt beam="1">  1        4 0.33504536E-01 0.12500340E+03</pdfrwt>
<pdfrwt beam="2">  1       -4 0.27596459E-02 0.12500340E+03</pdfrwt>
<totfact> 0.84432972E+03</totfact>
</mgrwt>
</event>
<event>
 5    1  0.3212987E-002  0.1249889E+03  0.7818608E-02  0.1235087E+00
         -4   -1    0    0    0  501 -0.00000000000E+00  0.00000000000E+00  0.39424656730E+01  0.41419724266E+01  0.12700000000E+01 0. -1.
          4   -1    0    0  501    0  0.00000000000E+00 -0.00000000000E+00 -0.96599118360E+03  0.96599201845E+03  0.12700000000E+01 0. -1.
         25    2    1    2    0    0  0.00000000000E+00  0.00000000000E+00 -0.96204871793E+03  0.97013399087E+03  0.12498889780E+03 0.  0.
    9000005    1    3    3    0    0  0.54211822186E+02 -0.17930778221E+02 -0.28403433253E+03  0.28971871967E+03  0.10000000000E+01 0.  0.
    9000005    1    3    3    0    0 -0.54211822186E+02  0.17930778221E+02 -0.67801438540E+03  0.68041527120E+03  0.10000000000E+01 0.  0.
<mgrwt>
<rscale>  0 0.12498890E+03</rscale>
<asrwt>0</asrwt>
<pdfrwt beam="2">  1        4 0.14862926E+00 0.12498890E+03</pdfrwt>
<pdfrwt beam="1">  1       -4 0.62194484E-03 0.12498890E+03</pdfrwt>
<totfact> 0.31619447E+03</totfact>
</mgrwt>
</event>
<event>
 5    1  0.3212987E-002  0.1250005E+03  0.7818608E-02  0.1235068E+00
         -4   -1    0    0    0  501 -0.00000000000E+00  0.00000000000E+00  0.37602367861E+02  0.37623808536E+02  0.12700000000E+01 0.  1.
          4   -1    0    0  501    0  0.00000000000E+00 -0.00000000000E+00 -0.10382901920E+03  0.10383678601E+03  0.12700000000E+01 0.  1.
         25    2    1    2    0    0  0.00000000000E+00  0.00000000000E+00 -0.66226651341E+02  0.14146059454E+03  0.12500052184E+03 0.  0.
    9000005    1    3    3    0    0 -0.22638060983E+02 -0.36131639785E+02 -0.84816433986E+02  0.94935792369E+02  0.10000000000E+01 0.  0.
    9000005    1    3    3    0    0  0.22638060983E+02  0.36131639785E+02  0.18589782644E+02  0.46524802175E+02  0.10000000000E+01 0.  0.
<mgrwt>
<rscale>  0 0.12500052E+03</rscale>
<asrwt>0</asrwt>
<pdfrwt beam="2">  1        4 0.15975942E-01 0.12500052E+03</pdfrwt>
<pdfrwt beam="1">  1       -4 0.57872264E-02 0.12500052E+03</pdfrwt>
<totfact> 0.10103285E+04</totfact>
</mgrwt>
</event>
<event>
 5    1  0.3212987E-002  0.1249950E+03  0.7818608E-02  0.1235077E+00
         -4   -1    0    0    0  501 -0.00000000000E+00  0.00000000000E+00  0.26029037661E+02  0.26060001949E+02  0.12700000000E+01 0. -1.
          4   -1    0    0  501    0  0.00000000000E+00 -0.00000000000E+00 -0.14993796077E+03  0.14994333923E+03  0.12700000000E+01 0. -1.
         25    2    1    2    0    0  0.00000000000E+00  0.00000000000E+00 -0.12390892311E+03  0.17600334118E+03  0.12499501942E+03 0.  0.
    9000005    1    3    3    0    0  0.15606947148E+02  0.58909453545E+02 -0.81416499598E+02  0.10170322966E+03  0.10000000000E+01 0.  0.
    9000005    1    3    3    0    0 -0.15606947148E+02 -0.58909453545E+02 -0.42492423510E+02  0.74300111521E+02  0.10000000000E+01 0.  0.
<mgrwt>
<rscale>  0 0.12499502E+03</rscale>
<asrwt>0</asrwt>
<pdfrwt beam="2">  1        4 0.23070174E-01 0.12499502E+03</pdfrwt>
<pdfrwt beam="1">  1       -4 0.40072630E-02 0.12499502E+03</pdfrwt>
<totfact> 0.94351942E+03</totfact>
</mgrwt>
</event>
<event>
 5    1  0.3212987E-002  0.1250040E+03  0.7818608E-02  0.1235063E+00
          4   -1    0    0  501    0  0.00000000000E+00  0.00000000000E+00  0.46597525411E+03  0.46597698478E+03  0.12700000000E+01 0.  1.
         -4   -1    0    0    0  501 -0.00000000000E+00 -0.00000000000E+00 -0.83336414356E+01  0.84298564387E+01  0.12700000000E+01 0.  1.
         25    2    1    2    0    0  0.00000000000E+00  0.00000000000E+00  0.45764161268E+03  0.47440684122E+03  0.12500402130E+03 0.  0.
    9000005    1    3    3    0    0 -0.23519449435E+02  0.56431174070E+02  0.27799076317E+03  0.28463574322E+03  0.10000000000E+01 0.  0.
    9000005    1    3    3    0    0  0.23519449435E+02 -0.56431174070E+02  0.17965084950E+03  0.18977109800E+03  0.10000000000E+01 0.  0.
<mgrwt>
<rscale>  0 0.12500402E+03</rscale>
<asrwt>0</asrwt>
<pdfrwt beam="1">  1        4 0.71696061E-01 0.12500402E+03</pdfrwt>
<pdfrwt beam="2">  1       -4 0.12896325E-02 0.12500402E+03</pdfrwt>
<totfact> 0.57901098E+03</totfact>
</mgrwt>
</event>
<event>
 5    1  0.3212987E-002  0.1250020E+03  0.7818608E-02  0.1235066E+00
          4   -1    0    0  501    0  0.00000000000E+00  0.00000000000E+00  0.24136376453E+03  0.24136710573E+03  0.12700000000E+01 0.  1.
         -4   -1    0    0    0  501 -0.00000000000E+00 -0.00000000000E+00 -0.16156215494E+02  0.16206054396E+02  0.12700000000E+01 0.  1.
         25    2    1    2    0    0  0.00000000000E+00  0.00000000000E+00  0.22520754903E+03  0.25757316012E+03  0.12500197068E+03 0.  0.
    9000005    1    3    3    0    0 -0.61866909754E+01 -0.61866071624E+02  0.12558480005E+03  0.14013646195E+03  0.10000000000E+01 0.  0.
    9000005    1    3    3    0    0  0.61866909754E+01  0.61866071624E+02  0.99622748981E+02  0.11743669817E+03  0.10000000000E+01 0.  0.
<mgrwt>
<rscale>  0 0.12500197E+03</rscale>
<asrwt>0</asrwt>
<pdfrwt beam="1">  1        4 0.37136975E-01 0.12500197E+03</pdfrwt>
<pdfrwt beam="2">  1       -4 0.24896625E-02 0.12500197E+03</pdfrwt>
<totfact> 0.81244280E+03</totfact>
</mgrwt>
</event>
<event>
 5    1  0.3212987E-002  0.1250001E+03  0.7818608E-02  0.1235069E+00
         -4   -1    0    0    0  501 -0.00000000000E+00  0.00000000000E+00  0.12078509247E+02  0.12145093068E+02  0.12700000000E+01 0.  1.
          4   -1    0    0  501    0  0.00000000000E+00 -0.00000000000E+00 -0.32244852569E+03  0.32245102670E+03  0.12700000000E+01 0.  1.
         25    2    1    2    0    0  0.00000000000E+00  0.00000000000E+00 -0.31037001645E+03  0.33459611977E+03  0.12500006503E+03 0.  0.
    9000005    1    3    3    0    0 -0.60951556057E+02 -0.10842095409E+02 -0.17799427941E+03  0.18845584820E+03  0.10000000000E+01 0.  0.
    9000005    1    3    3    0    0  0.60951556057E+02  0.10842095409E+02 -0.13237573704E+03  0.14614027157E+03  0.10000000000E+01 0.  0.
<mgrwt>
<rscale>  0 0.12500007E+03</rscale>
<asrwt>0</asrwt>
<pdfrwt beam="2">  1        4 0.49612773E-01 0.12500007E+03</pdfrwt>
<pdfrwt beam="1">  1       -4 0.18635467E-02 0.12500007E+03</pdfrwt>
<totfact> 0.71452991E+03</totfact>
</mgrwt>
</event>
<event>
 5    1  0.3212987E-002  0.1250026E+03  0.7818608E-02  0.1235065E+00
          4   -1    0    0  501    0  0.00000000000E+00  0.00000000000E+00  0.73440919297E+02  0.73451899412E+02  0.12700000000E+01 0. -1.
         -4   -1    0    0    0  501 -0.00000000000E+00 -0.00000000000E+00 -0.53168680141E+02  0.53183845742E+02  0.12700000000E+01 0. -1.
         25    2    1    2    0    0  0.00000000000E+00  0.00000000000E+00  0.20272239157E+02  0.12663574515E+03  0.12500259305E+03 0.  0.
    9000005    1    3    3    0    0  0.28543280645E+02  0.33061909077E+02  0.55414607866E+02  0.70566192095E+02  0.10000000000E+01 0.  0.
    9000005    1    3    3    0    0 -0.28543280645E+02 -0.33061909077E+02 -0.35142368709E+02  0.56069553059E+02  0.10000000000E+01 0.  0.
<mgrwt>
<rscale>  0 0.12500259E+03</rscale>
<asrwt>0</asrwt>
<pdfrwt beam="1">  1        4 0.11300614E-01 0.12500259E+03</pdfrwt>
<pdfrwt beam="2">  1       -4 0.81818082E-02 0.12500259E+03</pdfrwt>
<totfact> 0.10416460E+04</totfact>
</mgrwt>
</event>
<event>
 5    1  0.3212987E-002  0.1250061E+03  0.7818608E-02  0.1235060E+00
         -4   -1    0    0    0  501 -0.00000000000E+00  0.00000000000E+00  0.70754592890E+03  0.70754706869E+03  0.12700000000E+01 0. -1.
          4   -1    0    0  501    0  0.00000000000E+00 -0.00000000000E+00 -0.54471902861E+01  0.55932800764E+01  0.12700000000E+01 0. -1.
         25    2    1    2    0    0  0.00000000000E+00  0.00000000000E+00  0.70209873862E+03  0.71314034876E+03  0.12500607292E+03 0.  0.
    9000005    1    3    3    0    0 -0.38568092114E+01  0.55778940619E+02  0.51032232220E+03  0.51337709117E+03  0.10000000000E+01 0.  0.
    9000005    1    3    3    0    0  0.38568092114E+01 -0.55778940619E+02  0.19177641641E+03  0.19976325760E+03  0.10000000000E+01 0.  0.
<mgrwt>
<rscale>  0 0.12500607E+03</rscale>
<asrwt>0</asrwt>
<pdfrwt beam="2">  1        4 0.84935510E-03 0.12500607E+03</pdfrwt>
<pdfrwt beam="1">  1       -4 0.10886448E+00 0.12500607E+03</pdfrwt>
<totfact> 0.42396442E+03</totfact>
</mgrwt>
</event>
<event>
 5    1  0.3212987E-002  0.1249978E+03  0.7818608E-02  0.1235073E+00
          4   -1    0    0  501    0  0.00000000000E+00  0.00000000000E+00  0.33574470662E+01  0.35896170830E+01  0.12700000000E+01 0.  1.
         -4   -1    0    0    0  501 -0.00000000000E+00 -0.00000000000E+00 -0.11243039629E+04  0.11243046802E+04  0.12700000000E+01 0.  1.
         25    2    1    2    0    0  0.00000000000E+00  0.00000000000E+00 -0.11209465159E+04  0.11278942973E+04  0.12499781781E+03 0.  0.
    9000005    1    3    3    0    0 -0.15086427068E+02 -0.38046056465E+02 -0.98658103865E+03  0.98743012336E+03  0.10000000000E+01 0.  0.
    9000005    1    3    3    0    0  0.15086427068E+02  0.38046056465E+02 -0.13436547721E+03  0.14046417394E+03  0.10000000000E+01 0.  0.
<mgrwt>
<rscale>  0 0.12499782E+03</rscale>
<asrwt>0</asrwt>
<pdfrwt beam="1">  1        4 0.53444562E-03 0.12499782E+03</pdfrwt>
<pdfrwt beam="2">  1       -4 0.17298747E+00 0.12499782E+03</pdfrwt>
<totfact> 0.26682326E+03</totfact>
</mgrwt>
</event>
<event>
 5    1  0.3212987E-002  0.1249986E+03  0.7818608E-02  0.1235072E+00
         -4   -1    0    0    0  501 -0.00000000000E+00  0.00000000000E+00  0.60293053735E+02  0.60306427756E+02  0.12700000000E+01 0.  1.
          4   -1    0    0  501    0  0.00000000000E+00 -0.00000000000E+00 -0.64759468394E+02  0.64771920202E+02  0.12700000000E+01 0.  1.
         25    2    1    2    0    0  0.00000000000E+00  0.00000000000E+00 -0.44664146589E+01  0.12507834796E+03  0.12499857706E+03 0.  0.
    9000005    1    3    3    0    0 -0.29757819614E+02  0.35707343896E+02 -0.44028497537E+02  0.64031639301E+02  0.10000000000E+01 0.  0.
    9000005    1    3    3    0    0  0.29757819614E+02 -0.35707343896E+02  0.39562082878E+02  0.61046708657E+02  0.10000000000E+01 0.  0.
<mgrwt>
<rscale>  0 0.12499858E+03</rscale>
<asrwt>0</asrwt>
<pdfrwt beam="2">  1        4 0.99649817E-02 0.12499858E+03</pdfrwt>
<pdfrwt beam="1">  1       -4 0.92778410E-02 0.12499858E+03</pdfrwt>
<totfact> 0.10451497E+04</totfact>
</mgrwt>
</event>
<event>
 5    1  0.3212987E-002  0.1250093E+03  0.7818608E-02  0.1235055E+00
         -4   -1    0    0    0  501 -0.00000000000E+00  0.00000000000E+00  0.63114656040E+02  0.63127432286E+02  0.12700000000E+01 0. -1.
          4   -1    0    0  501    0  0.00000000000E+00 -0.00000000000E+00 -0.61874982329E+02  0.61888014496E+02  0.12700000000E+01 0. -1.
         25    2    1    2    0    0  0.00000000000E+00  0.00000000000E+00  0.12396737106E+01  0.12501544678E+03  0.12500930023E+03 0.  0.
    9000005    1    3    3    0    0 -0.51434142924E+02  0.35212046990E+02  0.51446559060E+01  0.62552592240E+02  0.10000000000E+01 0.  0.
    9000005    1    3    3    0    0  0.51434142924E+02 -0.35212046990E+02 -0.39049821954E+01  0.62462854542E+02  0.10000000000E+01 0.  0.
<mgrwt>
<rscale>  0 0.12500930E+03</rscale>
<asrwt>0</asrwt>
<pdfrwt beam="2">  1        4 0.95212133E-02 0.12500930E+03</pdfrwt>
<pdfrwt beam="1">  1       -4 0.97119324E-02 0.12500930E+03</pdfrwt>
<totfact> 0.10450330E+04</totfact>
</mgrwt>
</event>
<event>
 5    1  0.3212987E-002  0.1249940E+03  0.7818608E-02  0.1235079E+00
         -4   -1    0    0    0  501 -0.00000000000E+00  0.00000000000E+00  0.10072478249E+03  0.10073278864E+03  0.12700000000E+01 0. -1.
          4   -1    0    0  501    0  0.00000000000E+00 -0.00000000000E+00 -0.38757749890E+02  0.38778551759E+02  0.12700000000E+01 0. -1.
         25    2    1    2    0    0  0.00000000000E+00  0.00000000000E+00  0.61967032598E+02  0.13951134040E+03  0.12499400374E+03 0.  0.
    9000005    1    3    3    0    0  0.28466354191E+02 -0.23456724429E+02  0.87283275760E+02  0.94762447568E+02  0.10000000000E+01 0.  0.
    9000005    1    3    3    0    0 -0.28466354191E+02  0.23456724429E+02 -0.25316243161E+02  0.44748892831E+02  0.10000000000E+01 0.  0.
<mgrwt>
<rscale>  0 0.12499400E+03</rscale>
<asrwt>0</asrwt>
<pdfrwt beam="2">  1        4 0.59649468E-02 0.12499400E+03</pdfrwt>
<pdfrwt beam="1">  1       -4 0.15498336E-01 0.12499400E+03</pdfrwt>
<totfact> 0.10145094E+04</totfact>
</mgrwt>
</event>
<event>
 5    1  0.3212987E-002  0.1249994E+03  0.7818608E-02  0.1235070E+00
          4   -1    0    0  501    0  0.00000000000E+00  0.00000000000E+00  0.16376736130E+02  0.16425905950E+02  0.12700000000E+01 0. -1.
         -4   -1    0    0    0  501 -0.00000000000E+00 -0.00000000000E+00 -0.23811381301E+03  0.23811719981E+03  0.12700000000E+01 0. -1.
         25    2    1    2    0    0  0.00000000000E+00  0.00000000000E+00 -0.22173707688E+03  0.25454310576E+03  0.12499944571E+03 0.  0.
    9000005    1    3    3    0    0 -0.26809859139E+02  0.22853873280E+02 -0.57613626039E+01  0.35710801867E+02  0.10000000000E+01 0.  0.
    9000005    1    3    3    0    0  0.26809859139E+02 -0.22853873280E+02 -0.21597571428E+03  0.21883230390E+03  0.10000000000E+01 0.  0.
<mgrwt>
<rscale>  0 0.12499945E+03</rscale>
<asrwt>0</asrwt>
<pdfrwt beam="1">  1        4 0.25235409E-02 0.12499945E+03</pdfrwt>
<pdfrwt beam="2">  1       -4 0.36636935E-01 0.12499945E+03</pdfrwt>
<totfact> 0.81679019E+03</totfact>
</mgrwt>
</event>
<event>
 5    1  0.3212987E-002  0.1249990E+03  0.7818608E-02  0.1235071E+00
          4   -1    0    0  501    0  0.00000000000E+00  0.00000000000E+00  0.16060037832E+03  0.16060539971E+03  0.12700000000E+01 0. -1.
         -4   -1    0    0    0  501 -0.00000000000E+00 -0.00000000000E+00 -0.24300434078E+02  0.24333598097E+02  0.12700000000E+01 0. -1.
         25    2    1    2    0    0  0.00000000000E+00  0.00000000000E+00  0.13629994424E+03  0.18493899781E+03  0.12499903244E+03 0.  0.
    9000005    1    3    3    0    0 -0.16521982675E+02  0.40500057432E+02  0.21168179956E+01  0.43803098999E+02  0.10000000000E+01 0.  0.
    9000005    1    3    3    0    0  0.16521982675E+02 -0.40500057432E+02  0.13418312625E+03  0.14113589881E+03  0.10000000000E+01 0.  0.
<mgrwt>
<rscale>  0 0.12499903E+03</rscale>
<asrwt>0</asrwt>
<pdfrwt beam="1">  1        4 0.24710688E-01 0.12499903E+03</pdfrwt>
<pdfrwt beam="2">  1       -4 0.37414657E-02 0.12499903E+03</pdfrwt>
<totfact> 0.92737457E+03</totfact>
</mgrwt>
</event>
<event>
 5    1  0.3212987E-002  0.1249997E+03  0.7818608E-02  0.1235070E+00
          4   -1    0    0  501    0  0.00000000000E+00  0.00000000000E+00  0.11439831014E+03  0.11440535941E+03  0.12700000000E+01 0.  1.
         -4   -1    0    0    0  501 -0.00000000000E+00 -0.00000000000E+00 -0.34125971367E+02  0.34149594752E+02  0.12700000000E+01 0.  1.
         25    2    1    2    0    0  0.00000000000E+00  0.00000000000E+00  0.80272338772E+02  0.14855495417E+03  0.12499970414E+03 0.  0.
    9000005    1    3    3    0    0 -0.32626441850E+02 -0.24384999256E+02  0.96460300127E+02  0.10471247489E+03  0.10000000000E+01 0.  0.
    9000005    1    3    3    0    0  0.32626441850E+02  0.24384999256E+02 -0.16187961355E+02  0.43842479279E+02  0.10000000000E+01 0.  0.
<mgrwt>
<rscale>  0 0.12499970E+03</rscale>
<asrwt>0</asrwt>
<pdfrwt beam="1">  1        4 0.17602100E-01 0.12499970E+03</pdfrwt>
<pdfrwt beam="2">  1       -4 0.52525088E-02 0.12499970E+03</pdfrwt>
<totfact> 0.99593192E+03</totfact>
</mgrwt>
</event>
<event>
 5    1  0.3212987E-002  0.1249822E+03  0.7818608E-02  0.1235097E+00
          4   -1    0    0  501    0  0.00000000000E+00  0.00000000000E+00  0.15681974183E+03  0.15682488427E+03  0.12700000000E+01 0.  1.
         -4   -1    0    0    0  501 -0.00000000000E+00 -0.00000000000E+00 -0.24880349211E+02  0.24912741255E+02  0.12700000000E+01 0.  1.
         25    2    1    2    0    0  0.00000000000E+00  0.00000000000E+00  0.13193939262E+03  0.18173762553E+03  0.12498224357E+03 0.  0.
    9000005    1    3    3    0    0 -0.29467183520E+02 -0.50734036070E+02  0.97220595166E+02  0.11355660018E+03  0.10000000000E+01 0.  0.
    9000005    1    3    3    0    0  0.29467183520E+02  0.50734036070E+02  0.34718797450E+02  0.68181025343E+02  0.10000000000E+01 0.  0.
<mgrwt>
<rscale>  0 0.12498224E+03</rscale>
<asrwt>0</asrwt>
<pdfrwt beam="1">  1        4 0.24129001E-01 0.12498224E+03</pdfrwt>
<pdfrwt beam="2">  1       -4 0.38306334E-02 0.12498224E+03</pdfrwt>
<totfact> 0.93342308E+03</totfact>
</mgrwt>
</event>
<event>
 5    1  0.3212987E-002  0.1249983E+03  0.7818608E-02  0.1235072E+00
         -4   -1    0    0    0  501 -0.00000000000E+00  0.00000000000E+00  0.56307717379E+02  0.56322037751E+02  0.12700000000E+01 0.  1.
          4   -1    0    0  501    0  0.00000000000E+00 -0.00000000000E+00 -0.69342440105E+02  0.69354069092E+02  0.12700000000E+01 0.  1.
         25    2    1    2    0    0  0.00000000000E+00  0.00000000000E+00 -0.13034722726E+02  0.12567610684E+03  0.12499831933E+03 0.  0.
    9000005    1    3    3    0    0  0.61616885664E+02  0.32446906932E+01 -0.16469333596E+02  0.63870240063E+02  0.10000000000E+01 0.  0.
    9000005    1    3    3    0    0 -0.61616885664E+02 -0.32446906932E+01  0.34346108703E+01  0.61805866780E+02  0.10000000000E+01 0.  0.
<mgrwt>
<rscale>  0 0.12499832E+03</rscale>
<asrwt>0</asrwt>
<pdfrwt beam="2">  1        4 0.10670064E-01 0.12499832E+03</pdfrwt>
<pdfrwt beam="1">  1       -4 0.86647218E-02 0.12499832E+03</pdfrwt>
<totfact> 0.10438466E+04</totfact>
</mgrwt>
</event>
<event>
 5    1  0.3212987E-002  0.1250030E+03  0.7818608E-02  0.1235065E+00
          4   -1    0    0  501    0  0.00000000000E+00  0.00000000000E+00  0.84701975559E+01  0.85648786702E+01  0.12700000000E+01 0. -1.
         -4   -1    0    0    0  501 -0.00000000000E+00 -0.00000000000E+00 -0.45853910770E+03  0.45854086643E+03  0.12700000000E+01 0. -1.
         25    2    1    2    0    0  0.00000000000E+00  0.00000000000E+00 -0.45006891014E+03  0.46710574510E+03  0.12500301289E+03 0.  0.
    9000005    1    3    3    0    0 -0.59871204305E+02  0.79474064976E+01 -0.28502259041E+03  0.29135304944E+03  0.10000000000E+01 0.  0.
    9000005    1    3    3    0    0  0.59871204305E+02 -0.79474064976E+01 -0.16504631973E+03  0.17575269566E+03  0.10000000000E+01 0.  0.
<mgrwt>
<rscale>  0 0.12500301E+03</rscale>
<asrwt>0</asrwt>
<pdfrwt beam="1">  1        4 0.13105261E-02 0.12500301E+03</pdfrwt>
<pdfrwt beam="2">  1       -4 0.70551877E-01 0.12500301E+03</pdfrwt>
<totfact> 0.58506176E+03</totfact>
</mgrwt>
</event>
<event>
 5    1  0.3212987E-002  0.1249787E+03  0.7818608E-02  0.1235103E+00
          4   -1    0    0  501    0  0.00000000000E+00  0.00000000000E+00  0.11737568293E+03  0.11738255340E+03  0.12700000000E+01 0.  1.
         -4   -1    0    0    0  501 -0.00000000000E+00 -0.00000000000E+00 -0.33248575006E+02  0.33272821341E+02  0.12700000000E+01 0.  1.
         25    2    1    2    0    0  0.00000000000E+00  0.00000000000E+00  0.84127107920E+02  0.15065537474E+03  0.12497868479E+03 0.  0.
    9000005    1    3    3    0    0  0.41322215253E+02 -0.78552043306E+01 -0.13631407165E+02  0.44227197173E+02  0.10000000000E+01 0.  0.
    9000005    1    3    3    0    0 -0.41322215253E+02  0.78552043306E+01  0.97758515085E+02  0.10642817757E+03  0.10000000000E+01 0.  0.
<mgrwt>
<rscale>  0 0.12497868E+03</rscale>
<asrwt>0</asrwt>
<pdfrwt beam="1">  1        4 0.18060191E-01 0.12497868E+03</pdfrwt>
<pdfrwt beam="2">  1       -4 0.51175590E-02 0.12497868E+03</pdfrwt>
<totfact> 0.99220805E+03</totfact>
</mgrwt>
</event>
<event>
 5    1  0.3212987E-002  0.1250007E+03  0.7818608E-02  0.1235068E+00
         -4   -1    0    0    0  501 -0.00000000000E+00  0.00000000000E+00  0.41991733189E+02  0.42010933770E+02  0.12700000000E+01 0. -1.
          4   -1    0    0  501    0  0.00000000000E+00 -0.00000000000E+00 -0.92980526660E+02  0.92989199577E+02  0.12700000000E+01 0. -1.
         25    2    1    2    0    0  0.00000000000E+00  0.00000000000E+00 -0.50988793470E+02  0.13500013335E+03  0.12500071577E+03 0.  0.
    9000005    1    3    3    0    0  0.43056417430E+02 -0.26205868701E+02  0.14402492620E+02  0.52431235251E+02  0.10000000000E+01 0.  0.
    9000005    1    3    3    0    0 -0.43056417430E+02  0.26205868701E+02 -0.65391286091E+02  0.82568898096E+02  0.10000000000E+01 0.  0.
<mgrwt>
<rscale>  0 0.12500072E+03</rscale>
<asrwt>0</asrwt>
<pdfrwt beam="2">  1        4 0.14306840E-01 0.12500072E+03</pdfrwt>
<pdfrwt beam="1">  1       -4 0.64624108E-02 0.12500072E+03</pdfrwt>
<totfact> 0.10237903E+04</totfact>
</mgrwt>
</event>
<event>
 5    1  0.3212987E-002  0.1250009E+03  0.7818608E-02  0.1235068E+00
         -4   -1    0    0    0  501 -0.00000000000E+00  0.00000000000E+00  0.16165990378E+02  0.16215799237E+02  0.12700000000E+01 0. -1.
          4   -1    0    0  501    0  0.00000000000E+00 -0.00000000000E+00 -0.24121415455E+03  0.24121749782E+03  0.12700000000E+01 0. -1.
         25    2    1    2    0    0  0.00000000000E+00  0.00000000000E+00 -0.22504816417E+03  0.25743329706E+03  0.12500090495E+03 0.  0.
    9000005    1    3    3    0    0  0.22907513297E+02 -0.54130422966E+02 -0.68814695215E+02  0.90505906621E+02  0.10000000000E+01 0.  0.
    9000005    1    3    3    0    0 -0.22907513297E+02  0.54130422966E+02 -0.15623346896E+03  0.16692739044E+03  0.10000000000E+01 0.  0.
<mgrwt>
<rscale>  0 0.12500090E+03</rscale>
<asrwt>0</asrwt>
<pdfrwt beam="2">  1        4 0.37113956E-01 0.12500090E+03</pdfrwt>
<pdfrwt beam="1">  1       -4 0.24911642E-02 0.12500090E+03</pdfrwt>
<totfact> 0.81265979E+03</totfact>
</mgrwt>
</event>
<event>
 5    1  0.3212987E-002  0.1250017E+03  0.7818608E-02  0.1235067E+00
          4   -1    0    0  501    0  0.00000000000E+00  0.00000000000E+00  0.37430935303E+01  0.39526762044E+01  0.12700000000E+01 0.  1.
         -4   -1    0    0    0  501 -0.00000000000E+00 -0.00000000000E+00 -0.10149855797E+04  0.10149863742E+04  0.12700000000E+01 0.  1.
         25    2    1    2    0    0  0.00000000000E+00  0.00000000000E+00 -0.10112424862E+04  0.10189390504E+04  0.12500169076E+03 0.  0.
    9000005    1    3    3    0    0 -0.13964104289E+02  0.60170289056E+02 -0.42833504027E+03  0.43276710436E+03  0.10000000000E+01 0.  0.
    9000005    1    3    3    0    0  0.13964104289E+02 -0.60170289056E+02 -0.58290744589E+03  0.58617194608E+03  0.10000000000E+01 0.  0.
<mgrwt>
<rscale>  0 0.12500169E+03</rscale>
<asrwt>0</asrwt>
<pdfrwt beam="1">  1        4 0.59204421E-03 0.12500169E+03</pdfrwt>
<pdfrwt beam="2">  1       -4 0.15616760E+00 0.12500169E+03</pdfrwt>
<totfact> 0.29983694E+03</totfact>
</mgrwt>
</event>
<event>
 5    1  0.3212987E-002  0.1249952E+03  0.7818608E-02  0.1235077E+00
          4   -1    0    0  501    0  0.00000000000E+00  0.00000000000E+00  0.99355251729E+02  0.99363368231E+02  0.12700000000E+01 0. -1.
         -4   -1    0    0    0  501 -0.00000000000E+00 -0.00000000000E+00 -0.39293006734E+02  0.39313525385E+02  0.12700000000E+01 0. -1.
         25    2    1    2    0    0  0.00000000000E+00  0.00000000000E+00  0.60062244994E+02  0.13867689362E+03  0.12499523011E+03 0.  0.
    9000005    1    3    3    0    0  0.31601362357E+02  0.38161335508E+02 -0.12216025842E+02  0.51040816196E+02  0.10000000000E+01 0.  0.
    9000005    1    3    3    0    0 -0.31601362357E+02 -0.38161335508E+02  0.72278270836E+02  0.87636077420E+02  0.10000000000E+01 0.  0.
<mgrwt>
<rscale>  0 0.12499523E+03</rscale>
<asrwt>0</asrwt>
<pdfrwt beam="1">  1        4 0.15287626E-01 0.12499523E+03</pdfrwt>
<pdfrwt beam="2">  1       -4 0.60472807E-02 0.12499523E+03</pdfrwt>
<totfact> 0.10162174E+04</totfact>
</mgrwt>
</event>
<event>
 5    1  0.3212987E-002  0.1249985E+03  0.7818608E-02  0.1235072E+00
         -4   -1    0    0    0  501 -0.00000000000E+00  0.00000000000E+00  0.77792529677E+01  0.78822380537E+01  0.12700000000E+01 0.  1.
          4   -1    0    0  501    0  0.00000000000E+00 -0.00000000000E+00 -0.49871952714E+03  0.49872114418E+03  0.12700000000E+01 0.  1.
         25    2    1    2    0    0  0.00000000000E+00  0.00000000000E+00 -0.49094027418E+03  0.50660338224E+03  0.12499853633E+03 0.  0.
    9000005    1    3    3    0    0  0.17710847170E+02  0.51106096156E+02 -0.11861766714E+03  0.13037123199E+03  0.10000000000E+01 0.  0.
    9000005    1    3    3    0    0 -0.17710847170E+02 -0.51106096156E+02 -0.37232260703E+03  0.37623215025E+03  0.10000000000E+01 0.  0.
<mgrwt>
<rscale>  0 0.12499854E+03</rscale>
<asrwt>0</asrwt>
<pdfrwt beam="2">  1        4 0.76734103E-01 0.12499854E+03</pdfrwt>
<pdfrwt beam="1">  1       -4 0.12048548E-02 0.12499854E+03</pdfrwt>
<totfact> 0.55357433E+03</totfact>
</mgrwt>
</event>
<event>
 5    1  0.3212987E-002  0.1249959E+03  0.7818608E-02  0.1235076E+00
          4   -1    0    0  501    0  0.00000000000E+00  0.00000000000E+00  0.45513863043E+02  0.45531578373E+02  0.12700000000E+01 0. -1.
         -4   -1    0    0    0  501 -0.00000000000E+00 -0.00000000000E+00 -0.85780758286E+02  0.85790159064E+02  0.12700000000E+01 0. -1.
         25    2    1    2    0    0  0.00000000000E+00  0.00000000000E+00 -0.40266895243E+02  0.13132173744E+03  0.12499590342E+03 0.  0.
    9000005    1    3    3    0    0  0.57960459915E+02 -0.97919238786E+01  0.21458231118E+01  0.58829424981E+02  0.10000000000E+01 0.  0.
    9000005    1    3    3    0    0 -0.57960459915E+02  0.97919238786E+01 -0.42412718355E+02  0.72492312455E+02  0.10000000000E+01 0.  0.
<mgrwt>
<rscale>  0 0.12499590E+03</rscale>
<asrwt>0</asrwt>
<pdfrwt beam="1">  1        4 0.70042186E-02 0.12499590E+03</pdfrwt>
<pdfrwt beam="2">  1       -4 0.13199126E-01 0.12499590E+03</pdfrwt>
<totfact> 0.10317150E+04</totfact>
</mgrwt>
</event>
<event>
 5    1  0.3212987E-002  0.1250133E+03  0.7818608E-02  0.1235048E+00
         -4   -1    0    0    0  501 -0.00000000000E+00  0.00000000000E+00  0.98106057554E+00  0.16047990070E+01  0.12700000000E+01 0. -1.
          4   -1    0    0  501    0  0.00000000000E+00 -0.00000000000E+00 -0.30212590571E+04  0.30212593240E+04  0.12700000000E+01 0. -1.
         25    2    1    2    0    0  0.00000000000E+00  0.00000000000E+00 -0.30202779965E+04  0.30228641230E+04  0.12501331939E+03 0.  0.
    9000005    1    3    3    0    0 -0.28694146930E+02  0.11168929560E+02 -0.19503466343E+03  0.19745282726E+03  0.10000000000E+01 0.  0.
    9000005    1    3    3    0    0  0.28694146930E+02 -0.11168929560E+02 -0.28252433331E+04  0.28254112958E+04  0.10000000000E+01 0.  0.
<mgrwt>
<rscale>  0 0.12501332E+03</rscale>
<asrwt>0</asrwt>
<pdfrwt beam="2">  1        4 0.46485143E+00 0.12501332E+03</pdfrwt>
<pdfrwt beam="1">  1       -4 0.19893523E-03 0.12501332E+03</pdfrwt>
<totfact> 0.17319863E+02</totfact>
</mgrwt>
</event>
<event>
 5    1  0.3212987E-002  0.1250070E+03  0.7818608E-02  0.1235058E+00
         -4   -1    0    0    0  501 -0.00000000000E+00  0.00000000000E+00  0.92946677931E+01  0.93810313603E+01  0.12700000000E+01 0. -1.
          4   -1    0    0  501    0  0.00000000000E+00 -0.00000000000E+00 -0.41828390753E+03  0.41828583552E+03  0.12700000000E+01 0. -1.
         25    2    1    2    0    0  0.00000000000E+00  0.00000000000E+00 -0.40898923974E+03  0.42766686688E+03  0.12500700304E+03 0.  0.
    9000005    1    3    3    0    0 -0.20319235269E+02 -0.46593269128E+01 -0.40605504496E+03  0.40659104784E+03  0.10000000000E+01 0.  0.
    9000005    1    3    3    0    0  0.20319235269E+02  0.46593269128E+01 -0.29341947781E+01  0.21075819040E+02  0.10000000000E+01 0.  0.
<mgrwt>
<rscale>  0 0.12500700E+03</rscale>
<asrwt>0</asrwt>
<pdfrwt beam="2">  1        4 0.64358148E-01 0.12500700E+03</pdfrwt>
<pdfrwt beam="1">  1       -4 0.14367409E-02 0.12500700E+03</pdfrwt>
<totfact> 0.61938488E+03</totfact>
</mgrwt>
</event>
<event>
 4    1  0.3212987E-002  0.1264368E+03  0.7818608E-02  0.1232841E+00
          4   -1    0    0  501    0  0.00000000000E+00  0.00000000000E+00  0.36255346542E+03  0.36255568977E+03  0.12700000000E+01 0. -1.
         -4   -1    0    0    0  501 -0.00000000000E+00 -0.00000000000E+00 -0.10984531301E+02  0.11057704459E+02  0.12700000000E+01 0. -1.
    9000005    1    1    2    0    0  0.80284233403E+01 -0.11659616984E+01  0.36102305363E+03  0.36111557748E+03  0.10000000000E+01 0.  0.
    9000005    1    1    2    0    0 -0.80284233403E+01  0.11659616984E+01 -0.94541195069E+01  0.12497816756E+02  0.10000000000E+01 0.  0.
<mgrwt>
<rscale>  0 0.12643675E+03</rscale>
<asrwt>0</asrwt>
<pdfrwt beam="1">  1        4 0.55783253E-01 0.12643675E+03</pdfrwt>
<pdfrwt beam="2">  1       -4 0.16957278E-02 0.12643675E+03</pdfrwt>
<totfact> 0.65112351E+03</totfact>
</mgrwt>
</event>
<event>
 5    1  0.3212987E-002  0.1250013E+03  0.7818608E-02  0.1235067E+00
         -4   -1    0    0    0  501 -0.00000000000E+00  0.00000000000E+00  0.22412436751E+03  0.22412796571E+03  0.12700000000E+01 0. -1.
          4   -1    0    0  501    0  0.00000000000E+00 -0.00000000000E+00 -0.17402414951E+02  0.17448694683E+02  0.12700000000E+01 0. -1.
         25    2    1    2    0    0  0.00000000000E+00  0.00000000000E+00  0.20672195256E+03  0.24157666039E+03  0.12500126869E+03 0.  0.
    9000005    1    3    3    0    0 -0.14650800697E+02 -0.44634372896E+02  0.18300766300E+03  0.18894358396E+03  0.10000000000E+01 0.  0.
    9000005    1    3    3    0    0  0.14650800697E+02  0.44634372896E+02  0.23714289565E+02  0.52633076430E+02  0.10000000000E+01 0.  0.
<mgrwt>
<rscale>  0 0.12500127E+03</rscale>
<asrwt>0</asrwt>
<pdfrwt beam="2">  1        4 0.26811316E-02 0.12500127E+03</pdfrwt>
<pdfrwt beam="1">  1       -4 0.34484506E-01 0.12500127E+03</pdfrwt>
<totfact> 0.83560749E+03</totfact>
</mgrwt>
</event>
<event>
 5    1  0.3212987E-002  0.1250011E+03  0.7818608E-02  0.1235068E+00
         -4   -1    0    0    0  501 -0.00000000000E+00  0.00000000000E+00  0.37608023172E+02  0.37629460624E+02  0.12700000000E+01 0.  1.
          4   -1    0    0  501    0  0.00000000000E+00 -0.00000000000E+00 -0.10381433670E+03  0.10382210461E+03  0.12700000000E+01 0.  1.
         25    2    1    2    0    0  0.00000000000E+00  0.00000000000E+00 -0.66206313529E+02  0.14145156523E+03  0.12500107741E+03 0.  0.
    9000005    1    3    3    0    0 -0.55121756640E+02 -0.97202097820E+01 -0.16530105045E+01  0.56005562019E+02  0.10000000000E+01 0.  0.
    9000005    1    3    3    0    0  0.55121756640E+02  0.97202097820E+01 -0.64553303024E+02  0.85446003211E+02  0.10000000000E+01 0.  0.
<mgrwt>
<rscale>  0 0.12500108E+03</rscale>
<asrwt>0</asrwt>
<pdfrwt beam="2">  1        4 0.15973683E-01 0.12500108E+03</pdfrwt>
<pdfrwt beam="1">  1       -4 0.57880963E-02 0.12500108E+03</pdfrwt>
<totfact> 0.10103344E+04</totfact>
</mgrwt>
</event>
<event>
 5    1  0.3212987E-002  0.1250002E+03  0.7818608E-02  0.1235069E+00
         -4   -1    0    0    0  501 -0.00000000000E+00  0.00000000000E+00  0.46776081227E+03  0.46776253634E+03  0.12700000000E+01 0.  1.
          4   -1    0    0  501    0  0.00000000000E+00 -0.00000000000E+00 -0.83009502969E+01  0.83975398678E+01  0.12700000000E+01 0.  1.
         25    2    1    2    0    0  0.00000000000E+00  0.00000000000E+00  0.45945986198E+03  0.47616007620E+03  0.12500021361E+03 0.  0.
    9000005    1    3    3    0    0  0.44278923789E+02  0.39427054883E+02  0.15448856097E+03  0.16547758525E+03  0.10000000000E+01 0.  0.
    9000005    1    3    3    0    0 -0.44278923789E+02 -0.39427054883E+02  0.30497130101E+03  0.31068249096E+03  0.10000000000E+01 0.  0.
<mgrwt>
<rscale>  0 0.12500021E+03</rscale>
<asrwt>0</asrwt>
<pdfrwt beam="2">  1        4 0.12846319E-02 0.12500021E+03</pdfrwt>
<pdfrwt beam="1">  1       -4 0.71970764E-01 0.12500021E+03</pdfrwt>
<totfact> 0.57762414E+03</totfact>
</mgrwt>
</event>
<event>
 5    1  0.3212987E-002  0.1249982E+03  0.7818608E-02  0.1235072E+00
          4   -1    0    0  501    0  0.00000000000E+00  0.00000000000E+00  0.18427253708E+03  0.18427691343E+03  0.12700000000E+01 0.  1.
         -4   -1    0    0    0  501 -0.00000000000E+00 -0.00000000000E+00 -0.21173970988E+02  0.21212023651E+02  0.12700000000E+01 0.  1.
         25    2    1    2    0    0  0.00000000000E+00  0.00000000000E+00  0.16309856609E+03  0.20548893708E+03  0.12499824399E+03 0.  0.
    9000005    1    3    3    0    0 -0.96843830718E+01  0.12353135850E+02 -0.17888419145E+02  0.23819798075E+02  0.10000000000E+01 0.  0.
    9000005    1    3    3    0    0  0.96843830718E+01 -0.12353135850E+02  0.18098698524E+03  0.18166913900E+03  0.10000000000E+01 0.  0.
<mgrwt>
<rscale>  0 0.12499824E+03</rscale>
<asrwt>0</asrwt>
<pdfrwt beam="1">  1        4 0.28352885E-01 0.12499824E+03</pdfrwt>
<pdfrwt beam="2">  1       -4 0.32607977E-02 0.12499824E+03</pdfrwt>
<totfact> 0.89221440E+03</totfact>
</mgrwt>
</event>
<event>
 5    1  0.3212987E-002  0.1249982E+03  0.7818608E-02  0.1235072E+00
          4   -1    0    0  501    0  0.00000000000E+00  0.00000000000E+00  0.41556360828E+02  0.41575762474E+02  0.12700000000E+01 0.  1.
         -4   -1    0    0    0  501 -0.00000000000E+00 -0.00000000000E+00 -0.93950458090E+02  0.93959041477E+02  0.12700000000E+01 0.  1.
         25    2    1    2    0    0  0.00000000000E+00  0.00000000000E+00 -0.52394097262E+02  0.13553480395E+03  0.12499816660E+03 0.  0.
    9000005    1    3    3    0    0  0.53656458610E+02 -0.21185132411E+02 -0.52249688692E+02  0.77838649489E+02  0.10000000000E+01 0.  0.
    9000005    1    3    3    0    0 -0.53656458610E+02  0.21185132411E+02 -0.14440857005E+00  0.57696154462E+02  0.10000000000E+01 0.  0.
<mgrwt>
<rscale>  0 0.12499817E+03</rscale>
<asrwt>0</asrwt>
<pdfrwt beam="1">  1        4 0.63954390E-02 0.12499817E+03</pdfrwt>
<pdfrwt beam="2">  1       -4 0.14456069E-01 0.12499817E+03</pdfrwt>
<totfact> 0.10227234E+04</totfact>
</mgrwt>
</event>
<event>
 5    1  0.3212987E-002  0.1250091E+03  0.7818608E-02  0.1235055E+00
          4   -1    0    0  501    0  0.00000000000E+00  0.00000000000E+00  0.14677765747E+03  0.14678315173E+03  0.12700000000E+01 0.  1.
         -4   -1    0    0    0  501 -0.00000000000E+00 -0.00000000000E+00 -0.26596130676E+02  0.26626435490E+02  0.12700000000E+01 0.  1.
         25    2    1    2    0    0  0.00000000000E+00  0.00000000000E+00  0.12018152680E+03  0.17340958723E+03  0.12500914190E+03 0.  0.
    9000005    1    3    3    0    0 -0.10426064522E+02 -0.13803002923E+02 -0.23215961182E+02  0.28969062199E+02  0.10000000000E+01 0.  0.
    9000005    1    3    3    0    0  0.10426064522E+02  0.13803002923E+02  0.14339748798E+03  0.14444052503E+03  0.10000000000E+01 0.  0.
<mgrwt>
<rscale>  0 0.12500914E+03</rscale>
<asrwt>0</asrwt>
<pdfrwt beam="1">  1        4 0.22583932E-01 0.12500914E+03</pdfrwt>
<pdfrwt beam="2">  1       -4 0.40944662E-02 0.12500914E+03</pdfrwt>
<totfact> 0.94797485E+03</totfact>
</mgrwt>
</event>
<event>
 5    1  0.3212987E-002  0.1250003E+03  0.7818608E-02  0.1235069E+00
          4   -1    0    0  501    0  0.00000000000E+00  0.00000000000E+00  0.41180757595E+03  0.41180953427E+03  0.12700000000E+01 0. -1.
         -4   -1    0    0    0  501 -0.00000000000E+00 -0.00000000000E+00 -0.94411589959E+01  0.95261945805E+01  0.12700000000E+01 0. -1.
         25    2    1    2    0    0  0.00000000000E+00  0.00000000000E+00  0.40236641696E+03  0.42133572885E+03  0.12500025163E+03 0.  0.
    9000005    1    3    3    0    0 -0.60313847052E+02  0.62732978077E+01  0.15027018486E+03  0.16204703907E+03  0.10000000000E+01 0.  0.
    9000005    1    3    3    0    0  0.60313847052E+02 -0.62732978077E+01  0.25209623209E+03  0.25928868978E+03  0.10000000000E+01 0.  0.
<mgrwt>
<rscale>  0 0.12500025E+03</rscale>
<asrwt>0</asrwt>
<pdfrwt beam="1">  1        4 0.63361700E-01 0.12500025E+03</pdfrwt>
<pdfrwt beam="2">  1       -4 0.14591779E-02 0.12500025E+03</pdfrwt>
<totfact> 0.62528937E+03</totfact>
</mgrwt>
</event>
<event>
 5    1  0.3212987E-002  0.1249991E+03  0.7818608E-02  0.1235071E+00
         -4   -1    0    0    0  501 -0.00000000000E+00  0.00000000000E+00  0.83261303191E+03  0.83261400049E+03  0.12700000000E+01 0. -1.
          4   -1    0    0  501    0  0.00000000000E+00 -0.00000000000E+00 -0.46045530703E+01  0.47764850023E+01  0.12700000000E+01 0. -1.
         25    2    1    2    0    0  0.00000000000E+00  0.00000000000E+00  0.82800847884E+03  0.83739048549E+03  0.12499913662E+03 0.  0.
    9000005    1    3    3    0    0 -0.49935798293E+00  0.32430643997E+02  0.56165696098E+02  0.64865872742E+02  0.10000000000E+01 0.  0.
    9000005    1    3    3    0    0  0.49935798293E+00 -0.32430643997E+02  0.77184278274E+03  0.77252461275E+03  0.10000000000E+01 0.  0.
<mgrwt>
<rscale>  0 0.12499914E+03</rscale>
<asrwt>0</asrwt>
<pdfrwt beam="2">  1        4 0.72169350E-03 0.12499914E+03</pdfrwt>
<pdfrwt beam="1">  1       -4 0.12810749E+00 0.12499914E+03</pdfrwt>
<totfact> 0.36649669E+03</totfact>
</mgrwt>
</event>
<event>
 5    1  0.3212987E-002  0.1250011E+03  0.7818608E-02  0.1235068E+00
         -4   -1    0    0    0  501 -0.00000000000E+00  0.00000000000E+00  0.64594726296E+02  0.64607209855E+02  0.12700000000E+01 0.  1.
          4   -1    0    0  501    0  0.00000000000E+00 -0.00000000000E+00 -0.60449261823E+02  0.60462601292E+02  0.12700000000E+01 0.  1.
         25    2    1    2    0    0  0.00000000000E+00  0.00000000000E+00  0.41454644731E+01  0.12506981115E+03  0.12500109113E+03 0.  0.
    9000005    1    3    3    0    0  0.57131511454E+02  0.19667656587E+02  0.18034303995E+02  0.63063955134E+02  0.10000000000E+01 0.  0.
    9000005    1    3    3    0    0 -0.57131511454E+02 -0.19667656587E+02 -0.13888839522E+02  0.62005856013E+02  0.10000000000E+01 0.  0.
<mgrwt>
<rscale>  0 0.12500109E+03</rscale>
<asrwt>0</asrwt>
<pdfrwt beam="2">  1        4 0.93018729E-02 0.12500109E+03</pdfrwt>
<pdfrwt beam="1">  1       -4 0.99396365E-02 0.12500109E+03</pdfrwt>
<totfact> 0.10451089E+04</totfact>
</mgrwt>
</event>
<event>
 5    1  0.3212987E-002  0.1250142E+03  0.7818608E-02  0.1235047E+00
          4   -1    0    0  501    0  0.00000000000E+00  0.00000000000E+00  0.54887243589E+02  0.54901934472E+02  0.12700000000E+01 0. -1.
         -4   -1    0    0    0  501 -0.00000000000E+00 -0.00000000000E+00 -0.71154957567E+02  0.71166290379E+02  0.12700000000E+01 0. -1.
         25    2    1    2    0    0  0.00000000000E+00  0.00000000000E+00 -0.16267713977E+02  0.12606822485E+03  0.12501423439E+03 0.  0.
    9000005    1    3    3    0    0  0.71323025966E+01  0.58158728783E+02 -0.30061891506E+02  0.65863683430E+02  0.10000000000E+01 0.  0.
    9000005    1    3    3    0    0 -0.71323025966E+01 -0.58158728783E+02  0.13794177529E+02  0.60204541421E+02  0.10000000000E+01 0.  0.
<mgrwt>
<rscale>  0 0.12501423E+03</rscale>
<asrwt>0</asrwt>
<pdfrwt beam="1">  1        4 0.84461931E-02 0.12501423E+03</pdfrwt>
<pdfrwt beam="2">  1       -4 0.10948918E-01 0.12501423E+03</pdfrwt>
<totfact> 0.10426113E+04</totfact>
</mgrwt>
</event>
<event>
 5    1  0.3212987E-002  0.1249961E+03  0.7818608E-02  0.1235075E+00
         -4   -1    0    0    0  501 -0.00000000000E+00  0.00000000000E+00  0.84982469805E+01  0.85926190269E+01  0.12700000000E+01 0. -1.
          4   -1    0    0  501    0  0.00000000000E+00 -0.00000000000E+00 -0.45699207485E+03  0.45699383954E+03  0.12700000000E+01 0. -1.
         25    2    1    2    0    0  0.00000000000E+00  0.00000000000E+00 -0.44849382787E+03  0.46558645856E+03  0.12499614699E+03 0.  0.
    9000005    1    3    3    0    0 -0.29083276867E+02 -0.47347570879E+02 -0.11775524191E+03  0.13021108424E+03  0.10000000000E+01 0.  0.
    9000005    1    3    3    0    0  0.29083276867E+02  0.47347570879E+02 -0.33073858596E+03  0.33537537433E+03  0.10000000000E+01 0.  0.
<mgrwt>
<rscale>  0 0.12499615E+03</rscale>
<asrwt>0</asrwt>
<pdfrwt beam="2">  1        4 0.70313849E-01 0.12499615E+03</pdfrwt>
<pdfrwt beam="1">  1       -4 0.13148181E-02 0.12499615E+03</pdfrwt>
<totfact> 0.58641910E+03</totfact>
</mgrwt>
</event>
<event>
 5    1  0.3212987E-002  0.1249991E+03  0.7818608E-02  0.1235071E+00
          4   -1    0    0  501    0  0.00000000000E+00  0.00000000000E+00  0.45051953961E+03  0.45052132965E+03  0.12700000000E+01 0. -1.
         -4   -1    0    0    0  501 -0.00000000000E+00 -0.00000000000E+00 -0.86220935131E+01  0.87151245860E+01  0.12700000000E+01 0. -1.
         25    2    1    2    0    0  0.00000000000E+00  0.00000000000E+00  0.44189744610E+03  0.45923645424E+03  0.12499907213E+03 0.  0.
    9000005    1    3    3    0    0  0.10928696094E+02  0.60307672418E+02  0.26575551289E+03  0.27273328434E+03  0.10000000000E+01 0.  0.
    9000005    1    3    3    0    0 -0.10928696094E+02 -0.60307672418E+02  0.17614193320E+03  0.18650316990E+03  0.10000000000E+01 0.  0.
<mgrwt>
<rscale>  0 0.12499907E+03</rscale>
<asrwt>0</asrwt>
<pdfrwt beam="1">  1        4 0.69318020E-01 0.12499907E+03</pdfrwt>
<pdfrwt beam="2">  1       -4 0.13337693E-02 0.12499907E+03</pdfrwt>
<totfact> 0.59173103E+03</totfact>
</mgrwt>
</event>
<event>
 5    1  0.3212987E-002  0.1250063E+03  0.7818608E-02  0.1235059E+00
          4   -1    0    0  501    0  0.00000000000E+00  0.00000000000E+00  0.13275186651E+03  0.13275794124E+03  0.12700000000E+01 0.  1.
         -4   -1    0    0    0  501 -0.00000000000E+00 -0.00000000000E+00 -0.29407732947E+02  0.29435143232E+02  0.12700000000E+01 0.  1.
         25    2    1    2    0    0  0.00000000000E+00  0.00000000000E+00  0.10334413356E+03  0.16219308447E+03  0.12500634667E+03 0.  0.
    9000005    1    3    3    0    0  0.55497705263E+02  0.10090700763E+02  0.86579531128E+02  0.10333843787E+03  0.10000000000E+01 0.  0.
    9000005    1    3    3    0    0 -0.55497705263E+02 -0.10090700763E+02  0.16764602434E+02  0.58854646597E+02  0.10000000000E+01 0.  0.
<mgrwt>
<rscale>  0 0.12500635E+03</rscale>
<asrwt>0</asrwt>
<pdfrwt beam="1">  1        4 0.20425940E-01 0.12500635E+03</pdfrwt>
<pdfrwt beam="2">  1       -4 0.45268423E-02 0.12500635E+03</pdfrwt>
<totfact> 0.96907812E+03</totfact>
</mgrwt>
</event>
<event>
 5    1  0.3212987E-002  0.1250005E+03  0.7818608E-02  0.1235068E+00
         -4   -1    0    0    0  501 -0.00000000000E+00  0.00000000000E+00  0.10373528342E+02  0.10450980349E+02  0.12700000000E+01 0.  1.
          4   -1    0    0  501    0  0.00000000000E+00 -0.00000000000E+00 -0.37508343332E+03  0.37508558337E+03  0.12700000000E+01 0.  1.
         25    2    1    2    0    0  0.00000000000E+00  0.00000000000E+00 -0.36470990498E+03  0.38553656372E+03  0.12500050870E+03 0.  0.
    9000005    1    3    3    0    0 -0.42327091660E+02 -0.35989518157E+01 -0.32371954047E+03  0.32649636449E+03  0.10000000000E+01 0.  0.
    9000005    1    3    3    0    0  0.42327091660E+02  0.35989518157E+01 -0.40990364511E+02  0.59040199232E+02  0.10000000000E+01 0.  0.
<mgrwt>
<rscale>  0 0.12500051E+03</rscale>
<asrwt>0</asrwt>
<pdfrwt beam="2">  1        4 0.57711257E-01 0.12500051E+03</pdfrwt>
<pdfrwt beam="1">  1       -4 0.16020510E-02 0.12500051E+03</pdfrwt>
<totfact> 0.65983484E+03</totfact>
</mgrwt>
</event>
<event>
 5    1  0.3212987E-002  0.1250003E+03  0.7818608E-02  0.1235069E+00
          4   -1    0    0  501    0  0.00000000000E+00  0.00000000000E+00  0.95312259744E+02  0.95320720505E+02  0.12700000000E+01 0.  1.
         -4   -1    0    0    0  501 -0.00000000000E+00 -0.00000000000E+00 -0.40963782469E+02  0.40983464643E+02  0.12700000000E+01 0.  1.
         25    2    1    2    0    0  0.00000000000E+00  0.00000000000E+00  0.54348477275E+02  0.13630418515E+03  0.12500029563E+03 0.  0.
    9000005    1    3    3    0    0 -0.81984815230E+01 -0.38285019310E+02 -0.25936694535E+02  0.46975205441E+02  0.10000000000E+01 0.  0.
    9000005    1    3    3    0    0  0.81984815230E+01  0.38285019310E+02  0.80285171810E+02  0.89328979707E+02  0.10000000000E+01 0.  0.
<mgrwt>
<rscale>  0 0.12500030E+03</rscale>
<asrwt>0</asrwt>
<pdfrwt beam="1">  1        4 0.14665590E-01 0.12500030E+03</pdfrwt>
<pdfrwt beam="2">  1       -4 0.63042852E-02 0.12500030E+03</pdfrwt>
<totfact> 0.10210586E+04</totfact>
</mgrwt>
</event>
<event>
 5    1  0.3212987E-002  0.1250007E+03  0.7818608E-02  0.1235068E+00
         -4   -1    0    0    0  501 -0.00000000000E+00  0.00000000000E+00  0.47303351821E+01  0.48978537070E+01  0.12700000000E+01 0. -1.
          4   -1    0    0  501    0  0.00000000000E+00 -0.00000000000E+00 -0.81126106521E+03  0.81126205927E+03  0.12700000000E+01 0. -1.
         25    2    1    2    0    0  0.00000000000E+00  0.00000000000E+00 -0.80653073002E+03  0.81615991298E+03  0.12500074034E+03 0.  0.
    9000005    1    3    3    0    0 -0.48680232791E+01  0.38781730309E+02 -0.72163371026E+03  0.72269214195E+03  0.10000000000E+01 0.  0.
    9000005    1    3    3    0    0  0.48680232791E+01 -0.38781730309E+02 -0.84897019764E+02  0.93467771029E+02  0.10000000000E+01 0.  0.
<mgrwt>
<rscale>  0 0.12500074E+03</rscale>
<asrwt>0</asrwt>
<pdfrwt beam="2">  1        4 0.12482225E+00 0.12500074E+03</pdfrwt>
<pdfrwt beam="1">  1       -4 0.74070703E-03 0.12500074E+03</pdfrwt>
<totfact> 0.37552833E+03</totfact>
</mgrwt>
</event>
<event>
 5    1  0.3212987E-002  0.1250055E+03  0.7818608E-02  0.1235061E+00
         -4   -1    0    0    0  501 -0.00000000000E+00  0.00000000000E+00  0.74503192135E+02  0.74514015717E+02  0.12700000000E+01 0.  1.
          4   -1    0    0  501    0  0.00000000000E+00 -0.00000000000E+00 -0.52412944951E+02  0.52428329159E+02  0.12700000000E+01 0.  1.
         25    2    1    2    0    0  0.00000000000E+00  0.00000000000E+00  0.22090247184E+02  0.12694234488E+03  0.12500551949E+03 0.  0.
    9000005    1    3    3    0    0 -0.13541482128E+02  0.13923927402E+02 -0.49275108200E+02  0.52974369092E+02  0.10000000000E+01 0.  0.
    9000005    1    3    3    0    0  0.13541482128E+02 -0.13923927402E+02  0.71365355384E+02  0.73967975784E+02  0.10000000000E+01 0.  0.
<mgrwt>
<rscale>  0 0.12500552E+03</rscale>
<asrwt>0</asrwt>
<pdfrwt beam="2">  1        4 0.80655460E-02 0.12500552E+03</pdfrwt>
<pdfrwt beam="1">  1       -4 0.11464045E-01 0.12500552E+03</pdfrwt>
<totfact> 0.10409102E+04</totfact>
</mgrwt>
</event>
<event>
 4    1  0.3212987E-002  0.1248872E+03  0.7818608E-02  0.1235246E+00
         -4   -1    0    0    0  501 -0.00000000000E+00  0.00000000000E+00  0.20609441215E+03  0.20609832512E+03  0.12700000000E+01 0.  1.
          4   -1    0    0  501    0  0.00000000000E+00 -0.00000000000E+00 -0.18894078316E+02  0.18936712899E+02  0.12700000000E+01 0.  1.
    9000005    1    1    2    0    0  0.60821441766E+02  0.10812655245E+01  0.68258928230E+02  0.91436853603E+02  0.10000000000E+01 0.  0.
    9000005    1    1    2    0    0 -0.60821441766E+02 -0.10812655245E+01  0.11894140560E+03  0.13359818442E+03  0.10000000000E+01 0.  0.
<mgrwt>
<rscale>  0 0.12488716E+03</rscale>
<asrwt>0</asrwt>
<pdfrwt beam="2">  1        4 0.29103620E-02 0.12488716E+03</pdfrwt>
<pdfrwt beam="1">  1       -4 0.31710412E-01 0.12488716E+03</pdfrwt>
<totfact> 0.86295008E+03</totfact>
</mgrwt>
</event>
<event>
 5    1  0.3212987E-002  0.1249995E+03  0.7818608E-02  0.1235070E+00
         -4   -1    0    0    0  501 -0.00000000000E+00  0.00000000000E+00  0.50507547139E+02  0.50523511537E+02  0.12700000000E+01 0. -1.
          4   -1    0    0  501    0  0.00000000000E+00 -0.00000000000E+00 -0.77305963774E+02  0.77316394995E+02  0.12700000000E+01 0. -1.
         25    2    1    2    0    0  0.00000000000E+00  0.00000000000E+00 -0.26798416635E+02  0.12783990653E+03  0.12499954627E+03 0.  0.
    9000005    1    3    3    0    0  0.31623067607E+02 -0.53069376157E+02 -0.23039127816E+02  0.65940719598E+02  0.10000000000E+01 0.  0.
    9000005    1    3    3    0    0 -0.31623067607E+02  0.53069376157E+02 -0.37592888184E+01  0.61899186933E+02  0.10000000000E+01 0.  0.
<mgrwt>
<rscale>  0 0.12499955E+03</rscale>
<asrwt>0</asrwt>
<pdfrwt beam="2">  1        4 0.11895256E-01 0.12499955E+03</pdfrwt>
<pdfrwt beam="1">  1       -4 0.77724223E-02 0.12499955E+03</pdfrwt>
<totfact> 0.10391053E+04</totfact>
</mgrwt>
</event>
<event>
 5    1  0.3212987E-002  0.1249974E+03  0.7818608E-02  0.1235073E+00
         -4   -1    0    0    0  501 -0.00000000000E+00  0.00000000000E+00  0.16895584817E+03  0.16896062124E+03  0.12700000000E+01 0.  1.
          4   -1    0    0  501    0  0.00000000000E+00 -0.00000000000E+00 -0.23096420428E+02  0.23131310741E+02  0.12700000000E+01 0.  1.
         25    2    1    2    0    0  0.00000000000E+00  0.00000000000E+00  0.14585942774E+03  0.19209193198E+03  0.12499735066E+03 0.  0.
    9000005    1    3    3    0    0 -0.41993886776E+02  0.45228375429E+02  0.57873155311E+02  0.84613205684E+02  0.10000000000E+01 0.  0.
    9000005    1    3    3    0    0  0.41993886776E+02 -0.45228375429E+02  0.87986272430E+02  0.10747872630E+03  0.10000000000E+01 0.  0.
<mgrwt>
<rscale>  0 0.12499735E+03</rscale>
<asrwt>0</asrwt>
<pdfrwt beam="2">  1        4 0.35563464E-02 0.12499735E+03</pdfrwt>
<pdfrwt beam="1">  1       -4 0.25996259E-01 0.12499735E+03</pdfrwt>
<totfact> 0.91490021E+03</totfact>
</mgrwt>
</event>
<event>
 5    1  0.3212987E-002  0.1249987E+03  0.7818608E-02  0.1235071E+00
         -4   -1    0    0    0  501 -0.00000000000E+00  0.00000000000E+00  0.40079369000E+03  0.40079570213E+03  0.12700000000E+01 0.  1.
          4   -1    0    0  501    0  0.00000000000E+00 -0.00000000000E+00 -0.97026704760E+01  0.97854337852E+01  0.12700000000E+01 0.  1.
         25    2    1    2    0    0  0.00000000000E+00  0.00000000000E+00  0.39109101953E+03  0.41058113592E+03  0.12499873445E+03 0.  0.
    9000005    1    3    3    0    0 -0.89451107254E+01  0.58659525927E+02  0.13116105066E+03  0.14396241245E+03  0.10000000000E+01 0.  0.
    9000005    1    3    3    0    0  0.89451107254E+01 -0.58659525927E+02  0.25992996887E+03  0.26661872347E+03  0.10000000000E+01 0.  0.
<mgrwt>
<rscale>  0 0.12499873E+03</rscale>
<asrwt>0</asrwt>
<pdfrwt beam="2">  1        4 0.14992398E-02 0.12499873E+03</pdfrwt>
<pdfrwt beam="1">  1       -4 0.61667087E-01 0.12499873E+03</pdfrwt>
<totfact> 0.63538302E+03</totfact>
</mgrwt>
</event>
<event>
 5    1  0.3212987E-002  0.1249996E+03  0.7818608E-02  0.1235070E+00
          4   -1    0    0  501    0  0.00000000000E+00  0.00000000000E+00  0.19353213652E+03  0.19353630348E+03  0.12700000000E+01 0. -1.
         -4   -1    0    0    0  501 -0.00000000000E+00 -0.00000000000E+00 -0.20159481070E+02  0.20199444968E+02  0.12700000000E+01 0. -1.
         25    2    1    2    0    0  0.00000000000E+00  0.00000000000E+00  0.17337265545E+03  0.21373574845E+03  0.12499957003E+03 0.  0.
    9000005    1    3    3    0    0 -0.32200268997E+02  0.46764428492E+02  0.42050157032E+02  0.70661055767E+02  0.10000000000E+01 0.  0.
    9000005    1    3    3    0    0  0.32200268997E+02 -0.46764428492E+02  0.13132249842E+03  0.14307469268E+03  0.10000000000E+01 0.  0.
<mgrwt>
<rscale>  0 0.12499957E+03</rscale>
<asrwt>0</asrwt>
<pdfrwt beam="1">  1        4 0.29777569E-01 0.12499957E+03</pdfrwt>
<pdfrwt beam="2">  1       -4 0.31048534E-02 0.12499957E+03</pdfrwt>
<totfact> 0.87870240E+03</totfact>
</mgrwt>
</event>
<event>
 4    1  0.3212987E-002  0.1247837E+03  0.7818608E-02  0.1235408E+00
         -4   -1    0    0    0  501 -0.00000000000E+00  0.00000000000E+00  0.17627080768E+03  0.17627538269E+03  0.12700000000E+01 0.  1.
          4   -1    0    0  501    0  0.00000000000E+00 -0.00000000000E+00 -0.22060763567E+02  0.22097289181E+02  0.12700000000E+01 0.  1.
    9000005    1    1    2    0    0 -0.29012063187E+02  0.38892136187E+02  0.13943886756E+03  0.14764313684E+03  0.10000000000E+01 0.  0.
    9000005    1    1    2    0    0  0.29012063187E+02 -0.38892136187E+02  0.14771176551E+02  0.50729535029E+02  0.10000000000E+01 0.  0.
<mgrwt>
<rscale>  0 0.12478373E+03</rscale>
<asrwt>0</asrwt>
<pdfrwt beam="2">  1        4 0.33971253E-02 0.12478373E+03</pdfrwt>
<pdfrwt beam="1">  1       -4 0.27121747E-01 0.12478373E+03</pdfrwt>
<totfact> 0.90849592E+03</totfact>
</mgrwt>
</event>
<event>
 5    1  0.3212987E-002  0.1249924E+03  0.7818608E-02  0.1235081E+00
         -4   -1    0    0    0  501 -0.00000000000E+00  0.00000000000E+00  0.88351555002E+03  0.88351646280E+03  0.12700000000E+01 0. -1.
          4   -1    0    0  501    0  0.00000000000E+00 -0.00000000000E+00 -0.43285725976E+01  0.45110354391E+01  0.12700000000E+01 0. -1.
         25    2    1    2    0    0  0.00000000000E+00  0.00000000000E+00  0.87918697743E+03  0.88802749824E+03  0.12499238516E+03 0.  0.
    9000005    1    3    3    0    0 -0.46119299570E+02  0.23962425999E+02  0.19311359349E+03  0.19998761872E+03  0.10000000000E+01 0.  0.
    9000005    1    3    3    0    0  0.46119299570E+02 -0.23962425999E+02  0.68607338394E+03  0.68803987952E+03  0.10000000000E+01 0.  0.
<mgrwt>
<rscale>  0 0.12499239E+03</rscale>
<asrwt>0</asrwt>
<pdfrwt beam="2">  1        4 0.68004043E-03 0.12499239E+03</pdfrwt>
<pdfrwt beam="1">  1       -4 0.13593950E+00 0.12499239E+03</pdfrwt>
<totfact> 0.34625420E+03</totfact>
</mgrwt>
</event>
<event>
 5    1  0.3212987E-002  0.1250001E+03  0.7818608E-02  0.1235069E+00
         -4   -1    0    0    0  501 -0.00000000000E+00  0.00000000000E+00  0.31797933167E+02  0.31823284773E+02  0.12700000000E+01 0. -1.
          4   -1    0    0  501    0  0.00000000000E+00 -0.00000000000E+00 -0.12276855512E+03  0.12277512381E+03  0.12700000000E+01 0. -1.
         25    2    1    2    0    0  0.00000000000E+00  0.00000000000E+00 -0.90970621955E+02  0.15459840858E+03  0.12500005551E+03 0.  0.
    9000005    1    3    3    0    0 -0.23300851092E+02 -0.55776368046E+02 -0.65092206557E+02  0.88836525419E+02  0.10000000000E+01 0.  0.
    9000005    1    3    3    0    0  0.23300851092E+02  0.55776368046E+02 -0.25878415398E+02  0.65761883166E+02  0.10000000000E+01 0.  0.
<mgrwt>
<rscale>  0 0.12500006E+03</rscale>
<asrwt>0</asrwt>
<pdfrwt beam="2">  1        4 0.18889925E-01 0.12500006E+03</pdfrwt>
<pdfrwt beam="1">  1       -4 0.48944452E-02 0.12500006E+03</pdfrwt>
<totfact> 0.98394271E+03</totfact>
</mgrwt>
</event>
<event>
 5    1  0.3212987E-002  0.1249946E+03  0.7818608E-02  0.1235078E+00
         -4   -1    0    0    0  501 -0.00000000000E+00  0.00000000000E+00  0.56340465897E+01  0.57754117580E+01  0.12700000000E+01 0.  1.
          4   -1    0    0  501    0  0.00000000000E+00 -0.00000000000E+00 -0.68453776478E+03  0.68453894288E+03  0.12700000000E+01 0.  1.
         25    2    1    2    0    0  0.00000000000E+00  0.00000000000E+00 -0.67890371820E+03  0.69031435464E+03  0.12499459843E+03 0.  0.
    9000005    1    3    3    0    0 -0.27656177526E+02  0.60405798285E+01 -0.64712225269E+03  0.64774189512E+03  0.10000000000E+01 0.  0.
    9000005    1    3    3    0    0  0.27656177526E+02 -0.60405798285E+01 -0.31781465502E+02  0.42572459519E+02  0.10000000000E+01 0.  0.
<mgrwt>
<rscale>  0 0.12499460E+03</rscale>
<asrwt>0</asrwt>
<pdfrwt beam="2">  1        4 0.10532440E+00 0.12499460E+03</pdfrwt>
<pdfrwt beam="1">  1       -4 0.87774181E-03 0.12499460E+03</pdfrwt>
<totfact> 0.43608113E+03</totfact>
</mgrwt>
</event>
<event>
 5    1  0.3212987E-002  0.1249971E+03  0.7818608E-02  0.1235074E+00
         -4   -1    0    0    0  501 -0.00000000000E+00  0.00000000000E+00  0.10252016891E+03  0.10252803487E+03  0.12700000000E+01 0.  1.
          4   -1    0    0  501    0  0.00000000000E+00 -0.00000000000E+00 -0.38080602262E+02  0.38101773826E+02  0.12700000000E+01 0.  1.
         25    2    1    2    0    0  0.00000000000E+00  0.00000000000E+00  0.64439566649E+02  0.14062980869E+03  0.12499714134E+03 0.  0.
    9000005    1    3    3    0    0  0.40420516615E+02  0.46449588656E+02  0.20223787375E+02  0.64818084094E+02  0.10000000000E+01 0.  0.
    9000005    1    3    3    0    0 -0.40420516615E+02 -0.46449588656E+02  0.44215779275E+02  0.75811724599E+02  0.10000000000E+01 0.  0.
<mgrwt>
<rscale>  0 0.12499714E+03</rscale>
<asrwt>0</asrwt>
<pdfrwt beam="2">  1        4 0.58607880E-02 0.12499714E+03</pdfrwt>
<pdfrwt beam="1">  1       -4 0.15774567E-01 0.12499714E+03</pdfrwt>
<totfact> 0.10121201E+04</totfact>
</mgrwt>
</event>
<event>
 5    1  0.3212987E-002  0.1250000E+03  0.7818608E-02  0.1235069E+00
         -4   -1    0    0    0  501 -0.00000000000E+00  0.00000000000E+00  0.11664181522E+03  0.11664872892E+03  0.12700000000E+01 0.  1.
          4   -1    0    0  501    0  0.00000000000E+00 -0.00000000000E+00 -0.33469335200E+02  0.33493421723E+02  0.12700000000E+01 0.  1.
         25    2    1    2    0    0  0.00000000000E+00  0.00000000000E+00  0.83172480023E+02  0.15014215064E+03  0.12500001586E+03 0.  0.
    9000005    1    3    3    0    0  0.44452231561E+02  0.43901343963E+02  0.39920986171E+02  0.74148594251E+02  0.10000000000E+01 0.  0.
    9000005    1    3    3    0    0 -0.44452231561E+02 -0.43901343963E+02  0.43251493853E+02  0.75993556391E+02  0.10000000000E+01 0.  0.
<mgrwt>
<rscale>  0 0.12500002E+03</rscale>
<asrwt>0</asrwt>
<pdfrwt beam="2">  1        4 0.51515132E-02 0.12500002E+03</pdfrwt>
<pdfrwt beam="1">  1       -4 0.17947279E-01 0.12500002E+03</pdfrwt>
<totfact> 0.99275335E+03</totfact>
</mgrwt>
</event>
<event>
 5    1  0.3212987E-002  0.1249488E+03  0.7818608E-02  0.1235149E+00
          4   -1    0    0  501    0  0.00000000000E+00  0.00000000000E+00  0.25606036606E+03  0.25606351549E+03  0.12700000000E+01 0.  1.
         -4   -1    0    0    0  501 -0.00000000000E+00 -0.00000000000E+00 -0.15213002827E+02  0.15265921362E+02  0.12700000000E+01 0.  1.
         25    2    1    2    0    0  0.00000000000E+00  0.00000000000E+00  0.24084736323E+03  0.27132943685E+03  0.12494883324E+03 0.  0.
    9000005    1    3    3    0    0 -0.45534967071E+02 -0.41817796544E+02  0.10101416503E+03  0.11843573308E+03  0.10000000000E+01 0.  0.
    9000005    1    3    3    0    0  0.45534967071E+02  0.41817796544E+02  0.13983319820E+03  0.15289370377E+03  0.10000000000E+01 0.  0.
<mgrwt>
<rscale>  0 0.12494883E+03</rscale>
<asrwt>0</asrwt>
<pdfrwt beam="1">  1        4 0.39398217E-01 0.12494883E+03</pdfrwt>
<pdfrwt beam="2">  1       -4 0.23447748E-02 0.12494883E+03</pdfrwt>
<totfact> 0.79432324E+03</totfact>
</mgrwt>
</event>
<event>
 5    1  0.3212987E-002  0.1249988E+03  0.7818608E-02  0.1235071E+00
          4   -1    0    0  501    0  0.00000000000E+00  0.00000000000E+00  0.66039659279E+03  0.66039781395E+03  0.12700000000E+01 0. -1.
         -4   -1    0    0    0  501 -0.00000000000E+00 -0.00000000000E+00 -0.58454827816E+01  0.59818533039E+01  0.12700000000E+01 0. -1.
         25    2    1    2    0    0  0.00000000000E+00  0.00000000000E+00  0.65455111001E+03  0.66637966726E+03  0.12499882125E+03 0.  0.
    9000005    1    3    3    0    0 -0.37158768171E+02  0.24683211000E+02  0.56057636078E+03  0.56234943872E+03  0.10000000000E+01 0.  0.
    9000005    1    3    3    0    0  0.37158768171E+02 -0.24683211000E+02  0.93974749231E+02  0.10403022854E+03  0.10000000000E+01 0.  0.
<mgrwt>
<rscale>  0 0.12499882E+03</rscale>
<asrwt>0</asrwt>
<pdfrwt beam="1">  1        4 0.10161011E+00 0.12499882E+03</pdfrwt>
<pdfrwt beam="2">  1       -4 0.90988859E-03 0.12499882E+03</pdfrwt>
<totfact> 0.44922966E+03</totfact>
</mgrwt>
</event>
<event>
 5    1  0.3212987E-002  0.1250019E+03  0.7818608E-02  0.1235066E+00
          4   -1    0    0  501    0  0.00000000000E+00  0.00000000000E+00  0.57166906225E+03  0.57167047294E+03  0.12700000000E+01 0. -1.
         -4   -1    0    0    0  501 -0.00000000000E+00 -0.00000000000E+00 -0.67728332838E+01  0.68908759015E+01  0.12700000000E+01 0. -1.
         25    2    1    2    0    0  0.00000000000E+00  0.00000000000E+00  0.56489622896E+03  0.57856134884E+03  0.12500193949E+03 0.  0.
    9000005    1    3    3    0    0 -0.41695045846E+02  0.32515109423E+02  0.12826811907E+03  0.13874227747E+03  0.10000000000E+01 0.  0.
    9000005    1    3    3    0    0  0.41695045846E+02 -0.32515109423E+02  0.43662810989E+03  0.43981907137E+03  0.10000000000E+01 0.  0.
<mgrwt>
<rscale>  0 0.12500194E+03</rscale>
<asrwt>0</asrwt>
<pdfrwt beam="1">  1        4 0.87958273E-01 0.12500194E+03</pdfrwt>
<pdfrwt beam="2">  1       -4 0.10511631E-02 0.12500194E+03</pdfrwt>
<totfact> 0.50247322E+03</totfact>
</mgrwt>
</event>
<event>
 5    1  0.3212987E-002  0.1249962E+03  0.7818608E-02  0.1235075E+00
         -4   -1    0    0    0  501 -0.00000000000E+00  0.00000000000E+00  0.19615168655E+03  0.19615579787E+03  0.12700000000E+01 0.  1.
          4   -1    0    0  501    0  0.00000000000E+00 -0.00000000000E+00 -0.19888663126E+02  0.19929170101E+02  0.12700000000E+01 0.  1.
         25    2    1    2    0    0  0.00000000000E+00  0.00000000000E+00  0.17626302343E+03  0.21608496797E+03  0.12499623976E+03 0.  0.
    9000005    1    3    3    0    0  0.40883925086E+02 -0.14838797293E+02  0.16569995282E+03  0.17131596423E+03  0.10000000000E+01 0.  0.
    9000005    1    3    3    0    0 -0.40883925086E+02  0.14838797293E+02  0.10563070612E+02  0.44769003745E+02  0.10000000000E+01 0.  0.
<mgrwt>
<rscale>  0 0.12499624E+03</rscale>
<asrwt>0</asrwt>
<pdfrwt beam="2">  1        4 0.30632266E-02 0.12499624E+03</pdfrwt>
<pdfrwt beam="1">  1       -4 0.30180614E-01 0.12499624E+03</pdfrwt>
<totfact> 0.87499020E+03</totfact>
</mgrwt>
</event>
<event>
 5    1  0.3212987E-002  0.1249997E+03  0.7818608E-02  0.1235070E+00
          4   -1    0    0  501    0  0.00000000000E+00  0.00000000000E+00  0.91836320748E+02  0.91845101712E+02  0.12700000000E+01 0.  1.
         -4   -1    0    0    0  501 -0.00000000000E+00 -0.00000000000E+00 -0.42514423166E+02  0.42533387793E+02  0.12700000000E+01 0.  1.
         25    2    1    2    0    0  0.00000000000E+00  0.00000000000E+00  0.49321897582E+02  0.13437848950E+03  0.12499971544E+03 0.  0.
    9000005    1    3    3    0    0  0.57885926465E+02  0.12804815891E+02  0.45904387190E+02  0.74986375803E+02  0.10000000000E+01 0.  0.
    9000005    1    3    3    0    0 -0.57885926465E+02 -0.12804815891E+02  0.34175103921E+01  0.59392113702E+02  0.10000000000E+01 0.  0.
<mgrwt>
<rscale>  0 0.12499972E+03</rscale>
<asrwt>0</asrwt>
<pdfrwt beam="1">  1        4 0.14130799E-01 0.12499972E+03</pdfrwt>
<pdfrwt beam="2">  1       -4 0.65428148E-02 0.12499972E+03</pdfrwt>
<totfact> 0.10251253E+04</totfact>
</mgrwt>
</event>
<event>
 5    1  0.3212987E-002  0.1250016E+03  0.7818608E-02  0.1235067E+00
          4   -1    0    0  501    0  0.00000000000E+00  0.00000000000E+00  0.25718244532E+03  0.25718558101E+03  0.12700000000E+01 0.  1.
         -4   -1    0    0    0  501 -0.00000000000E+00 -0.00000000000E+00 -0.15159251738E+02  0.15212357255E+02  0.12700000000E+01 0.  1.
         25    2    1    2    0    0  0.00000000000E+00  0.00000000000E+00  0.24202319358E+03  0.27239793826E+03  0.12500164215E+03 0.  0.
    9000005    1    3    3    0    0  0.59718711363E+02  0.18400540700E+02  0.12247057351E+03  0.13749525723E+03  0.10000000000E+01 0.  0.
    9000005    1    3    3    0    0 -0.59718711363E+02 -0.18400540700E+02  0.11955262007E+03  0.13490268104E+03  0.10000000000E+01 0.  0.
<mgrwt>
<rscale>  0 0.12500164E+03</rscale>
<asrwt>0</asrwt>
<pdfrwt beam="1">  1        4 0.39570855E-01 0.12500164E+03</pdfrwt>
<pdfrwt beam="2">  1       -4 0.23365189E-02 0.12500164E+03</pdfrwt>
<totfact> 0.79194110E+03</totfact>
</mgrwt>
</event>
<event>
 5    1  0.3212987E-002  0.1249941E+03  0.7818608E-02  0.1235078E+00
          4   -1    0    0  501    0  0.00000000000E+00  0.00000000000E+00  0.10337826131E+04  0.10337833932E+04  0.12700000000E+01 0. -1.
         -4   -1    0    0    0  501 -0.00000000000E+00 -0.00000000000E+00 -0.36707183332E+01  0.38842081666E+01  0.12700000000E+01 0. -1.
         25    2    1    2    0    0  0.00000000000E+00  0.00000000000E+00  0.10301118948E+04  0.10376676014E+04  0.12499414057E+03 0.  0.
    9000005    1    3    3    0    0 -0.55066718437E+02 -0.16051521912E+02  0.72091356860E+03  0.72319248353E+03  0.10000000000E+01 0.  0.
    9000005    1    3    3    0    0  0.55066718437E+02  0.16051521912E+02  0.30919832619E+03  0.31447511786E+03  0.10000000000E+01 0.  0.
<mgrwt>
<rscale>  0 0.12499414E+03</rscale>
<asrwt>0</asrwt>
<pdfrwt beam="1">  1        4 0.15905992E+00 0.12499414E+03</pdfrwt>
<pdfrwt beam="2">  1       -4 0.58120835E-03 0.12499414E+03</pdfrwt>
<totfact> 0.29386742E+03</totfact>
</mgrwt>
</event>
<event>
 5    1  0.3212987E-002  0.1250007E+03  0.7818608E-02  0.1235068E+00
         -4   -1    0    0    0  501 -0.00000000000E+00  0.00000000000E+00  0.22752367913E+04  0.22752371457E+04  0.12700000000E+01 0. -1.
          4   -1    0    0  501    0  0.00000000000E+00 -0.00000000000E+00 -0.14816109892E+01  0.19514279703E+01  0.12700000000E+01 0. -1.
         25    2    1    2    0    0  0.00000000000E+00  0.00000000000E+00  0.22737551803E+04  0.22771885737E+04  0.12500072110E+03 0.  0.
    9000005    1    3    3    0    0  0.55072622764E+01 -0.56966137967E+02  0.67968817304E+03  0.68209418953E+03  0.10000000000E+01 0.  0.
    9000005    1    3    3    0    0 -0.55072622764E+01  0.56966137967E+02  0.15940670072E+04  0.15950943842E+04  0.10000000000E+01 0.  0.
<mgrwt>
<rscale>  0 0.12500072E+03</rscale>
<asrwt>0</asrwt>
<pdfrwt beam="2">  1        4 0.26410808E-03 0.12500072E+03</pdfrwt>
<pdfrwt beam="1">  1       -4 0.35007141E+00 0.12500072E+03</pdfrwt>
<totfact> 0.66632415E+02</totfact>
</mgrwt>
</event>
<event>
 5    1  0.3212987E-002  0.1249951E+03  0.7818608E-02  0.1235077E+00
         -4   -1    0    0    0  501 -0.00000000000E+00  0.00000000000E+00  0.53868909023E+03  0.53869058729E+03  0.12700000000E+01 0.  1.
          4   -1    0    0  501    0  0.00000000000E+00 -0.00000000000E+00 -0.71937055604E+01  0.73049503550E+01  0.12700000000E+01 0.  1.
         25    2    1    2    0    0  0.00000000000E+00  0.00000000000E+00  0.53149538467E+03  0.54599553764E+03  0.12499513271E+03 0.  0.
    9000005    1    3    3    0    0  0.47284064412E+02 -0.32072605972E+02  0.37629782989E+03  0.38061199610E+03  0.10000000000E+01 0.  0.
    9000005    1    3    3    0    0 -0.47284064412E+02  0.32072605972E+02  0.15519755478E+03  0.16538354154E+03  0.10000000000E+01 0.  0.
<mgrwt>
<rscale>  0 0.12499513E+03</rscale>
<asrwt>0</asrwt>
<pdfrwt beam="2">  1        4 0.11153960E-02 0.12499513E+03</pdfrwt>
<pdfrwt beam="1">  1       -4 0.82883948E-01 0.12499513E+03</pdfrwt>
<totfact> 0.52469908E+03</totfact>
</mgrwt>
</event>
<event>
 5    1  0.3212987E-002  0.1249998E+03  0.7818608E-02  0.1235070E+00
          4   -1    0    0  501    0  0.00000000000E+00  0.00000000000E+00  0.14372207706E+03  0.14372768813E+03  0.12700000000E+01 0. -1.
         -4   -1    0    0    0  501 -0.00000000000E+00 -0.00000000000E+00 -0.27158144247E+02  0.27187822622E+02  0.12700000000E+01 0. -1.
         25    2    1    2    0    0  0.00000000000E+00  0.00000000000E+00  0.11656393281E+03  0.17091551075E+03  0.12499984553E+03 0.  0.
    9000005    1    3    3    0    0 -0.45201514091E+02 -0.35158876139E+02  0.24073757239E+02  0.62127845891E+02  0.10000000000E+01 0.  0.
    9000005    1    3    3    0    0  0.45201514091E+02  0.35158876139E+02  0.92490175576E+02  0.10878766486E+03  0.10000000000E+01 0.  0.
<mgrwt>
<rscale>  0 0.12499985E+03</rscale>
<asrwt>0</asrwt>
<pdfrwt beam="1">  1        4 0.22113803E-01 0.12499985E+03</pdfrwt>
<pdfrwt beam="2">  1       -4 0.41808907E-02 0.12499985E+03</pdfrwt>
<totfact> 0.95278603E+03</totfact>
</mgrwt>
</event>
<event>
 5    1  0.3212987E-002  0.1249978E+03  0.7818608E-02  0.1235073E+00
         -4   -1    0    0    0  501 -0.00000000000E+00  0.00000000000E+00  0.21403391859E+03  0.21403768642E+03  0.12700000000E+01 0. -1.
          4   -1    0    0  501    0  0.00000000000E+00 -0.00000000000E+00 -0.18223950768E+02  0.18268149376E+02  0.12700000000E+01 0. -1.
         25    2    1    2    0    0  0.00000000000E+00  0.00000000000E+00  0.19580996783E+03  0.23230583580E+03  0.12499783136E+03 0.  0.
    9000005    1    3    3    0    0  0.57789463038E+02  0.11373798015E+02  0.59093057874E+02  0.83438449221E+02  0.10000000000E+01 0.  0.
    9000005    1    3    3    0    0 -0.57789463038E+02 -0.11373798015E+02  0.13671690995E+03  0.14886738658E+03  0.10000000000E+01 0.  0.
<mgrwt>
<rscale>  0 0.12499783E+03</rscale>
<asrwt>0</asrwt>
<pdfrwt beam="2">  1        4 0.28073745E-02 0.12499783E+03</pdfrwt>
<pdfrwt beam="1">  1       -4 0.32931985E-01 0.12499783E+03</pdfrwt>
<totfact> 0.84960896E+03</totfact>
</mgrwt>
</event>
<event>
 5    1  0.3212987E-002  0.1249991E+03  0.7818608E-02  0.1235071E+00
          4   -1    0    0  501    0  0.00000000000E+00  0.00000000000E+00  0.17890701460E+03  0.17891152219E+03  0.12700000000E+01 0. -1.
         -4   -1    0    0    0  501 -0.00000000000E+00 -0.00000000000E+00 -0.21810391068E+02  0.21847335273E+02  0.12700000000E+01 0. -1.
         25    2    1    2    0    0  0.00000000000E+00  0.00000000000E+00  0.15709662353E+03  0.20075885747E+03  0.12499907890E+03 0.  0.
    9000005    1    3    3    0    0  0.39283003700E+02  0.16224741719E+02  0.49694616081E+01  0.42802945836E+02  0.10000000000E+01 0.  0.
    9000005    1    3    3    0    0 -0.39283003700E+02 -0.16224741719E+02  0.15212716192E+03  0.15795591163E+03  0.10000000000E+01 0.  0.
<mgrwt>
<rscale>  0 0.12499908E+03</rscale>
<asrwt>0</asrwt>
<pdfrwt beam="1">  1        4 0.27527345E-01 0.12499908E+03</pdfrwt>
<pdfrwt beam="2">  1       -4 0.33586333E-02 0.12499908E+03</pdfrwt>
<totfact> 0.90009531E+03</totfact>
</mgrwt>
</event>
<event>
 5    1  0.3212987E-002  0.1249914E+03  0.7818608E-02  0.1235083E+00
          4   -1    0    0  501    0  0.00000000000E+00  0.00000000000E+00  0.44899578116E+02  0.44917535718E+02  0.12700000000E+01 0.  1.
         -4   -1    0    0    0  501 -0.00000000000E+00 -0.00000000000E+00 -0.86947714873E+02  0.86956989493E+02  0.12700000000E+01 0.  1.
         25    2    1    2    0    0  0.00000000000E+00  0.00000000000E+00 -0.42048136758E+02  0.13187452521E+03  0.12499137808E+03 0.  0.
    9000005    1    3    3    0    0  0.35836956559E+02  0.67417433517E+00  0.32980306602E+02  0.48717990414E+02  0.10000000000E+01 0.  0.
    9000005    1    3    3    0    0 -0.35836956559E+02 -0.67417433517E+00 -0.75028443359E+02  0.83156534797E+02  0.10000000000E+01 0.  0.
<mgrwt>
<rscale>  0 0.12499138E+03</rscale>
<asrwt>0</asrwt>
<pdfrwt beam="1">  1        4 0.69097222E-02 0.12499138E+03</pdfrwt>
<pdfrwt beam="2">  1       -4 0.13378666E-01 0.12499138E+03</pdfrwt>
<totfact> 0.10306382E+04</totfact>
</mgrwt>
</event>
<event>
 5    1  0.3212987E-002  0.1250048E+03  0.7818608E-02  0.1235062E+00
          4   -1    0    0  501    0  0.00000000000E+00  0.00000000000E+00  0.10589319143E+03  0.10590080685E+03  0.12700000000E+01 0. -1.
         -4   -1    0    0    0  501 -0.00000000000E+00 -0.00000000000E+00 -0.36871541409E+02  0.36893406808E+02  0.12700000000E+01 0. -1.
         25    2    1    2    0    0  0.00000000000E+00  0.00000000000E+00  0.69021650023E+02  0.14279421366E+03  0.12500479704E+03 0.  0.
    9000005    1    3    3    0    0  0.44010975082E+02  0.11589550063E+02  0.83434054114E+02  0.95044857748E+02  0.10000000000E+01 0.  0.
    9000005    1    3    3    0    0 -0.44010975082E+02 -0.11589550063E+02 -0.14412404091E+02  0.47749355912E+02  0.10000000000E+01 0.  0.
<mgrwt>
<rscale>  0 0.12500480E+03</rscale>
<asrwt>0</asrwt>
<pdfrwt beam="1">  1        4 0.16293528E-01 0.12500480E+03</pdfrwt>
<pdfrwt beam="2">  1       -4 0.56748127E-02 0.12500480E+03</pdfrwt>
<totfact> 0.10074910E+04</totfact>
</mgrwt>
</event>
<event>
 5    1  0.3212987E-002  0.1249996E+03  0.7818608E-02  0.1235070E+00
         -4   -1    0    0    0  501 -0.00000000000E+00  0.00000000000E+00  0.85993115159E+02  0.86002492724E+02  0.12700000000E+01 0. -1.
          4   -1    0    0  501    0  0.00000000000E+00 -0.00000000000E+00 -0.45404088187E+02  0.45421846330E+02  0.12700000000E+01 0. -1.
         25    2    1    2    0    0  0.00000000000E+00  0.00000000000E+00  0.40589026972E+02  0.13142433905E+03  0.12499955114E+03 0.  0.
    9000005    1    3    3    0    0 -0.54187436145E+02  0.27752489969E+02  0.35116734358E+02  0.70289856789E+02  0.10000000000E+01 0.  0.
    9000005    1    3    3    0    0  0.54187436145E+02 -0.27752489969E+02  0.54722926144E+01  0.61134482266E+02  0.10000000000E+01 0.  0.
<mgrwt>
<rscale>  0 0.12499955E+03</rscale>
<asrwt>0</asrwt>
<pdfrwt beam="2">  1        4 0.69873316E-02 0.12499955E+03</pdfrwt>
<pdfrwt beam="1">  1       -4 0.13231798E-01 0.12499955E+03</pdfrwt>
<totfact> 0.10314105E+04</totfact>
</mgrwt>
</event>
<event>
 5    1  0.3212987E-002  0.1249996E+03  0.7818608E-02  0.1235070E+00
          4   -1    0    0  501    0  0.00000000000E+00  0.00000000000E+00  0.14825682680E+03  0.14826226625E+03  0.12700000000E+01 0.  1.
         -4   -1    0    0    0  501 -0.00000000000E+00 -0.00000000000E+00 -0.26326458024E+02  0.26357072905E+02  0.12700000000E+01 0.  1.
         25    2    1    2    0    0  0.00000000000E+00  0.00000000000E+00  0.12193036878E+03  0.17461933915E+03  0.12499959510E+03 0.  0.
    9000005    1    3    3    0    0  0.35349343352E+02 -0.32513959707E+02  0.51131704727E+01  0.48310228353E+02  0.10000000000E+01 0.  0.
    9000005    1    3    3    0    0 -0.35349343352E+02  0.32513959707E+02  0.11681719830E+03  0.12630911080E+03  0.10000000000E+01 0.  0.
<mgrwt>
<rscale>  0 0.12499960E+03</rscale>
<asrwt>0</asrwt>
<pdfrwt beam="1">  1        4 0.22811516E-01 0.12499960E+03</pdfrwt>
<pdfrwt beam="2">  1       -4 0.40529978E-02 0.12499960E+03</pdfrwt>
<totfact> 0.94595463E+03</totfact>
</mgrwt>
</event>
<event>
 5    1  0.3212987E-002  0.1249994E+03  0.7818608E-02  0.1235070E+00
         -4   -1    0    0    0  501 -0.00000000000E+00  0.00000000000E+00  0.22754476528E+02  0.22789890347E+02  0.12700000000E+01 0.  1.
          4   -1    0    0  501    0  0.00000000000E+00 -0.00000000000E+00 -0.17149657538E+03  0.17150127775E+03  0.12700000000E+01 0.  1.
         25    2    1    2    0    0  0.00000000000E+00  0.00000000000E+00 -0.14874209886E+03  0.19429116809E+03  0.12499938411E+03 0.  0.
    9000005    1    3    3    0    0 -0.51691209527E+02  0.34778191050E+02 -0.66802881894E+02  0.91351676199E+02  0.10000000000E+01 0.  0.
    9000005    1    3    3    0    0  0.51691209527E+02 -0.34778191050E+02 -0.81939216962E+02  0.10293949189E+03  0.10000000000E+01 0.  0.
<mgrwt>
<rscale>  0 0.12499938E+03</rscale>
<asrwt>0</asrwt>
<pdfrwt beam="2">  1        4 0.26387174E-01 0.12499938E+03</pdfrwt>
<pdfrwt beam="1">  1       -4 0.35037747E-02 0.12499938E+03</pdfrwt>
<totfact> 0.91107237E+03</totfact>
</mgrwt>
</event>
<event>
 5    1  0.3212987E-002  0.1249999E+03  0.7818608E-02  0.1235069E+00
          4   -1    0    0  501    0  0.00000000000E+00  0.00000000000E+00  0.54071187716E+02  0.54086100257E+02  0.12700000000E+01 0. -1.
         -4   -1    0    0    0  501 -0.00000000000E+00 -0.00000000000E+00 -0.72212136628E+02  0.72223303555E+02  0.12700000000E+01 0. -1.
         25    2    1    2    0    0  0.00000000000E+00  0.00000000000E+00 -0.18140948913E+02  0.12630940381E+03  0.12499988586E+03 0.  0.
    9000005    1    3    3    0    0  0.39286535820E+02  0.33893475494E+02 -0.44264116981E+02  0.68209322162E+02  0.10000000000E+01 0.  0.
    9000005    1    3    3    0    0 -0.39286535820E+02 -0.33893475494E+02  0.26123168068E+02  0.58100081650E+02  0.10000000000E+01 0.  0.
<mgrwt>
<rscale>  0 0.12499989E+03</rscale>
<asrwt>0</asrwt>
<pdfrwt beam="1">  1        4 0.83206503E-02 0.12499989E+03</pdfrwt>
<pdfrwt beam="2">  1       -4 0.11111566E-01 0.12499989E+03</pdfrwt>
<totfact> 0.10424215E+04</totfact>
</mgrwt>
</event>
<event>
 5    1  0.3212987E-002  0.1250044E+03  0.7818608E-02  0.1235062E+00
         -4   -1    0    0    0  501 -0.00000000000E+00  0.00000000000E+00  0.10928904749E+03  0.10929642629E+03  0.12700000000E+01 0.  1.
          4   -1    0    0  501    0  0.00000000000E+00 -0.00000000000E+00 -0.35725041652E+02  0.35747608326E+02  0.12700000000E+01 0.  1.
         25    2    1    2    0    0  0.00000000000E+00  0.00000000000E+00  0.73564005836E+02  0.14504403462E+03  0.12500443602E+03 0.  0.
    9000005    1    3    3    0    0 -0.28146723397E+02  0.43941895559E+02  0.76680494756E+02  0.92757891844E+02  0.10000000000E+01 0.  0.
    9000005    1    3    3    0    0  0.28146723397E+02 -0.43941895559E+02 -0.31164889200E+01  0.52286142777E+02  0.10000000000E+01 0.  0.
<mgrwt>
<rscale>  0 0.12500444E+03</rscale>
<asrwt>0</asrwt>
<pdfrwt beam="2">  1        4 0.54984637E-02 0.12500444E+03</pdfrwt>
<pdfrwt beam="1">  1       -4 0.16816003E-01 0.12500444E+03</pdfrwt>
<totfact> 0.10029092E+04</totfact>
</mgrwt>
</event>
<event>
 5    1  0.3212987E-002  0.1250060E+03  0.7818608E-02  0.1235060E+00
          4   -1    0    0  501    0  0.00000000000E+00  0.00000000000E+00  0.14414435485E+03  0.14414994948E+03  0.12700000000E+01 0.  1.
         -4   -1    0    0    0  501 -0.00000000000E+00 -0.00000000000E+00 -0.27081150661E+02  0.27110913321E+02  0.12700000000E+01 0.  1.
         25    2    1    2    0    0  0.00000000000E+00  0.00000000000E+00  0.11706320419E+03  0.17126086281E+03  0.12500595727E+03 0.  0.
    9000005    1    3    3    0    0  0.52104761555E+02  0.43142538563E+01  0.11627548686E+02  0.53569756874E+02  0.10000000000E+01 0.  0.
    9000005    1    3    3    0    0 -0.52104761555E+02 -0.43142538563E+01  0.10543565551E+03  0.11769110593E+03  0.10000000000E+01 0.  0.
<mgrwt>
<rscale>  0 0.12500596E+03</rscale>
<asrwt>0</asrwt>
<pdfrwt beam="1">  1        4 0.22178774E-01 0.12500596E+03</pdfrwt>
<pdfrwt beam="2">  1       -4 0.41690507E-02 0.12500596E+03</pdfrwt>
<totfact> 0.95201421E+03</totfact>
</mgrwt>
</event>
<event>
 5    1  0.3212987E-002  0.1249948E+03  0.7818608E-02  0.1235077E+00
          4   -1    0    0  501    0  0.00000000000E+00  0.00000000000E+00  0.46922058750E+03  0.46922230620E+03  0.12700000000E+01 0.  1.
         -4   -1    0    0    0  501 -0.00000000000E+00 -0.00000000000E+00 -0.82740931197E+01  0.83709925907E+01  0.12700000000E+01 0.  1.
         25    2    1    2    0    0  0.00000000000E+00  0.00000000000E+00  0.46094649438E+03  0.47759329879E+03  0.12499475336E+03 0.  0.
    9000005    1    3    3    0    0  0.42998095848E+02 -0.85738029455E+01  0.40060341691E+03  0.40299682875E+03  0.10000000000E+01 0.  0.
    9000005    1    3    3    0    0 -0.42998095848E+02  0.85738029455E+01  0.60343077471E+02  0.74596470038E+02  0.10000000000E+01 0.  0.
<mgrwt>
<rscale>  0 0.12499475E+03</rscale>
<asrwt>0</asrwt>
<pdfrwt beam="1">  1        4 0.72195343E-01 0.12499475E+03</pdfrwt>
<pdfrwt beam="2">  1       -4 0.12805239E-02 0.12499475E+03</pdfrwt>
<totfact> 0.57652417E+03</totfact>
</mgrwt>
</event>
<event>
 5    1  0.3212987E-002  0.1250019E+03  0.7818608E-02  0.1235066E+00
         -4   -1    0    0    0  501 -0.00000000000E+00  0.00000000000E+00  0.10122579440E+03  0.10123376093E+03  0.12700000000E+01 0.  1.
          4   -1    0    0  501    0  0.00000000000E+00 -0.00000000000E+00 -0.38570715064E+02  0.38591617750E+02  0.12700000000E+01 0.  1.
         25    2    1    2    0    0  0.00000000000E+00  0.00000000000E+00  0.62655079338E+02  0.13982537868E+03  0.12500191021E+03 0.  0.
    9000005    1    3    3    0    0 -0.61458342002E+02  0.12039217595E+00  0.43994116249E+02  0.75588521353E+02  0.10000000000E+01 0.  0.
    9000005    1    3    3    0    0  0.61458342002E+02 -0.12039217595E+00  0.18660963090E+02  0.64236857328E+02  0.10000000000E+01 0.  0.
<mgrwt>
<rscale>  0 0.12500191E+03</rscale>
<asrwt>0</asrwt>
<pdfrwt beam="2">  1        4 0.59361769E-02 0.12500191E+03</pdfrwt>
<pdfrwt beam="1">  1       -4 0.15575420E-01 0.12500191E+03</pdfrwt>
<totfact> 0.10136770E+04</totfact>
</mgrwt>
</event>
<event>
 5    1  0.3212987E-002  0.1250022E+03  0.7818608E-02  0.1235066E+00
          4   -1    0    0  501    0  0.00000000000E+00  0.00000000000E+00  0.33895762736E+03  0.33896000656E+03  0.12700000000E+01 0.  1.
         -4   -1    0    0    0  501 -0.00000000000E+00 -0.00000000000E+00 -0.11487300428E+02  0.11557290821E+02  0.12700000000E+01 0.  1.
         25    2    1    2    0    0  0.00000000000E+00  0.00000000000E+00  0.32747032693E+03  0.35051729738E+03  0.12500224294E+03 0.  0.
    9000005    1    3    3    0    0  0.20259202198E+02  0.58294999058E+02  0.13616825422E+03  0.14950429976E+03  0.10000000000E+01 0.  0.
    9000005    1    3    3    0    0 -0.20259202198E+02 -0.58294999058E+02  0.19130207271E+03  0.20101299762E+03  0.10000000000E+01 0.  0.
<mgrwt>
<rscale>  0 0.12500224E+03</rscale>
<asrwt>0</asrwt>
<pdfrwt beam="1">  1        4 0.52152890E-01 0.12500224E+03</pdfrwt>
<pdfrwt beam="2">  1       -4 0.17728440E-02 0.12500224E+03</pdfrwt>
<totfact> 0.69664227E+03</totfact>
</mgrwt>
</event>
<event>
 5    1  0.3212987E-002  0.1250014E+03  0.7818608E-02  0.1235067E+00
         -4   -1    0    0    0  501 -0.00000000000E+00  0.00000000000E+00  0.44916181526E+02  0.44934132493E+02  0.12700000000E+01 0. -1.
          4   -1    0    0  501    0  0.00000000000E+00 -0.00000000000E+00 -0.86929501062E+02  0.86938777624E+02  0.12700000000E+01 0. -1.
         25    2    1    2    0    0  0.00000000000E+00  0.00000000000E+00 -0.42013319535E+02  0.13187291012E+03  0.12500138161E+03 0.  0.
    9000005    1    3    3    0    0  0.47893046441E+02 -0.27477756352E+02  0.98693401063E+01  0.56099686859E+02  0.10000000000E+01 0.  0.
    9000005    1    3    3    0    0 -0.47893046441E+02  0.27477756352E+02 -0.51882659642E+02  0.75773223259E+02  0.10000000000E+01 0.  0.
<mgrwt>
<rscale>  0 0.12500138E+03</rscale>
<asrwt>0</asrwt>
<pdfrwt beam="2">  1        4 0.13375864E-01 0.12500138E+03</pdfrwt>
<pdfrwt beam="1">  1       -4 0.69122762E-02 0.12500138E+03</pdfrwt>
<totfact> 0.10304091E+04</totfact>
</mgrwt>
</event>
<event>
 5    1  0.3212987E-002  0.1249981E+03  0.7818608E-02  0.1235072E+00
          4   -1    0    0  501    0  0.00000000000E+00  0.00000000000E+00  0.60622511223E+02  0.60635812577E+02  0.12700000000E+01 0. -1.
         -4   -1    0    0    0  501 -0.00000000000E+00 -0.00000000000E+00 -0.64407087329E+02  0.64419607250E+02  0.12700000000E+01 0. -1.
         25    2    1    2    0    0  0.00000000000E+00  0.00000000000E+00 -0.37845761066E+01  0.12505541983E+03  0.12499814003E+03 0.  0.
    9000005    1    3    3    0    0 -0.53017268454E+02  0.31134194455E+02  0.92916061569E+01  0.62189249583E+02  0.10000000000E+01 0.  0.
    9000005    1    3    3    0    0  0.53017268454E+02 -0.31134194455E+02 -0.13076182264E+02  0.62866170245E+02  0.10000000000E+01 0.  0.
<mgrwt>
<rscale>  0 0.12499814E+03</rscale>
<asrwt>0</asrwt>
<pdfrwt beam="1">  1        4 0.93285265E-02 0.12499814E+03</pdfrwt>
<pdfrwt beam="2">  1       -4 0.99107689E-02 0.12499814E+03</pdfrwt>
<totfact> 0.10452098E+04</totfact>
</mgrwt>
</event>
<event>
 5    1  0.3212987E-002  0.1249979E+03  0.7818608E-02  0.1235073E+00
          4   -1    0    0  501    0  0.00000000000E+00  0.00000000000E+00  0.59397451205E+02  0.59411026835E+02  0.12700000000E+01 0. -1.
         -4   -1    0    0    0  501 -0.00000000000E+00 -0.00000000000E+00 -0.65735185561E+02  0.65747452580E+02  0.12700000000E+01 0. -1.
         25    2    1    2    0    0  0.00000000000E+00  0.00000000000E+00 -0.63377343565E+01  0.12515847942E+03  0.12499791235E+03 0.  0.
    9000005    1    3    3    0    0  0.56560654116E+02 -0.26002512724E+02 -0.86422645652E+01  0.62856399824E+02  0.10000000000E+01 0.  0.
    9000005    1    3    3    0    0 -0.56560654116E+02  0.26002512724E+02  0.23045302087E+01  0.62302079592E+02  0.10000000000E+01 0.  0.
<mgrwt>
<rscale>  0 0.12499791E+03</rscale>
<asrwt>0</asrwt>
<pdfrwt beam="1">  1        4 0.91400573E-02 0.12499791E+03</pdfrwt>
<pdfrwt beam="2">  1       -4 0.10115093E-01 0.12499791E+03</pdfrwt>
<totfact> 0.10449914E+04</totfact>
</mgrwt>
</event>
<event>
 5    1  0.3212987E-002  0.1250006E+03  0.7818608E-02  0.1235068E+00
          4   -1    0    0  501    0  0.00000000000E+00  0.00000000000E+00  0.41670645913E+01  0.43562974310E+01  0.12700000000E+01 0.  1.
         -4   -1    0    0    0  501 -0.00000000000E+00 -0.00000000000E+00 -0.91641755056E+03  0.91641843056E+03  0.12700000000E+01 0.  1.
         25    2    1    2    0    0  0.00000000000E+00  0.00000000000E+00 -0.91225048597E+03  0.92077472799E+03  0.12500060224E+03 0.  0.
    9000005    1    3    3    0    0 -0.12598233963E+02  0.90889347905E+01 -0.90200406928E+03  0.90213838475E+03  0.10000000000E+01 0.  0.
    9000005    1    3    3    0    0  0.12598233963E+02 -0.90889347905E+01 -0.10246416686E+02  0.18636343244E+02  0.10000000000E+01 0.  0.
<mgrwt>
<rscale>  0 0.12500060E+03</rscale>
<asrwt>0</asrwt>
<pdfrwt beam="1">  1        4 0.65571166E-03 0.12500060E+03</pdfrwt>
<pdfrwt beam="2">  1       -4 0.14100178E+00 0.12500060E+03</pdfrwt>
<totfact> 0.33376410E+03</totfact>
</mgrwt>
</event>
<event>
 5    1  0.3212987E-002  0.1249992E+03  0.7818608E-02  0.1235071E+00
         -4   -1    0    0    0  501 -0.00000000000E+00  0.00000000000E+00  0.13169683358E+03  0.13170295697E+03  0.12700000000E+01 0. -1.
          4   -1    0    0  501    0  0.00000000000E+00 -0.00000000000E+00 -0.29640141029E+02  0.29667336588E+02  0.12700000000E+01 0. -1.
         25    2    1    2    0    0  0.00000000000E+00  0.00000000000E+00  0.10205669255E+03  0.16137029356E+03  0.12499921259E+03 0.  0.
    9000005    1    3    3    0    0  0.19306771805E+02 -0.48748505996E+02  0.71347326865E+01  0.52925161170E+02  0.10000000000E+01 0.  0.
    9000005    1    3    3    0    0 -0.19306771805E+02  0.48748505996E+02  0.94921959867E+02  0.10844513239E+03  0.10000000000E+01 0.  0.
<mgrwt>
<rscale>  0 0.12499921E+03</rscale>
<asrwt>0</asrwt>
<pdfrwt beam="2">  1        4 0.45625848E-02 0.12499921E+03</pdfrwt>
<pdfrwt beam="1">  1       -4 0.20263614E-01 0.12499921E+03</pdfrwt>
<totfact> 0.97080970E+03</totfact>
</mgrwt>
</event>
<event>
 5    1  0.3212987E-002  0.1250073E+03  0.7818608E-02  0.1235058E+00
          4   -1    0    0  501    0  0.00000000000E+00  0.00000000000E+00  0.46414111499E+02  0.46431483352E+02  0.12700000000E+01 0. -1.
         -4   -1    0    0    0  501 -0.00000000000E+00 -0.00000000000E+00 -0.84132734572E+02  0.84142319475E+02  0.12700000000E+01 0. -1.
         25    2    1    2    0    0  0.00000000000E+00  0.00000000000E+00 -0.37718623073E+02  0.13057380283E+03  0.12500729362E+03 0.  0.
    9000005    1    3    3    0    0  0.26145752742E+02 -0.52385816377E+02 -0.41692059783E+02  0.71882556945E+02  0.10000000000E+01 0.  0.
    9000005    1    3    3    0    0 -0.26145752742E+02  0.52385816377E+02  0.39734367097E+01  0.58691245882E+02  0.10000000000E+01 0.  0.
<mgrwt>
<rscale>  0 0.12500729E+03</rscale>
<asrwt>0</asrwt>
<pdfrwt beam="1">  1        4 0.71427061E-02 0.12500729E+03</pdfrwt>
<pdfrwt beam="2">  1       -4 0.12945571E-01 0.12500729E+03</pdfrwt>
<totfact> 0.10330535E+04</totfact>
</mgrwt>
</event>
<event>
 5    1  0.3212987E-002  0.1249963E+03  0.7818608E-02  0.1235075E+00
          4   -1    0    0  501    0  0.00000000000E+00  0.00000000000E+00  0.11426089137E+03  0.11426794912E+03  0.12700000000E+01 0.  1.
         -4   -1    0    0    0  501 -0.00000000000E+00 -0.00000000000E+00 -0.34165185620E+02  0.34188781909E+02  0.12700000000E+01 0.  1.
         25    2    1    2    0    0  0.00000000000E+00  0.00000000000E+00  0.80095705751E+02  0.14845673103E+03  0.12499631558E+03 0.  0.
    9000005    1    3    3    0    0  0.31383586915E+02 -0.45801658772E+02  0.59899921366E+01  0.55853392733E+02  0.10000000000E+01 0.  0.
    9000005    1    3    3    0    0 -0.31383586915E+02  0.45801658772E+02  0.74105713615E+02  0.92603338300E+02  0.10000000000E+01 0.  0.
<mgrwt>
<rscale>  0 0.12499632E+03</rscale>
<asrwt>0</asrwt>
<pdfrwt beam="1">  1        4 0.17580956E-01 0.12499632E+03</pdfrwt>
<pdfrwt beam="2">  1       -4 0.52585406E-02 0.12499632E+03</pdfrwt>
<totfact> 0.99620481E+03</totfact>
</mgrwt>
</event>
<event>
 5    1  0.3212987E-002  0.1250051E+03  0.7818608E-02  0.1235061E+00
         -4   -1    0    0    0  501 -0.00000000000E+00  0.00000000000E+00  0.36837940874E+02  0.36859826205E+02  0.12700000000E+01 0.  1.
          4   -1    0    0  501    0  0.00000000000E+00 -0.00000000000E+00 -0.10599021310E+03  0.10599782155E+03  0.12700000000E+01 0.  1.
         25    2    1    2    0    0  0.00000000000E+00  0.00000000000E+00 -0.69152272225E+02  0.14285764775E+03  0.12500508297E+03 0.  0.
    9000005    1    3    3    0    0  0.35784901493E+02  0.50999808932E+02 -0.28974244690E+02  0.68717148816E+02  0.10000000000E+01 0.  0.
    9000005    1    3    3    0    0 -0.35784901493E+02 -0.50999808932E+02 -0.40178027535E+02  0.74140498937E+02  0.10000000000E+01 0.  0.
<mgrwt>
<rscale>  0 0.12500508E+03</rscale>
<asrwt>0</asrwt>
<pdfrwt beam="2">  1        4 0.16308455E-01 0.12500508E+03</pdfrwt>
<pdfrwt beam="1">  1       -4 0.56696443E-02 0.12500508E+03</pdfrwt>
<totfact> 0.10073546E+04</totfact>
</mgrwt>
</event>
<event>
 5    1  0.3212987E-002  0.1250004E+03  0.7818608E-02  0.1235069E+00
         -4   -1    0    0    0  501 -0.00000000000E+00  0.00000000000E+00  0.50324340274E+02  0.50340362772E+02  0.12700000000E+01 0.  1.
          4   -1    0    0  501    0  0.00000000000E+00 -0.00000000000E+00 -0.77588351305E+02  0.77598744566E+02  0.12700000000E+01 0.  1.
         25    2    1    2    0    0  0.00000000000E+00  0.00000000000E+00 -0.27264011031E+02  0.12793910734E+03  0.12500035556E+03 0.  0.
    9000005    1    3    3    0    0 -0.54231535078E+02  0.10631731765E+02  0.16228870538E+02  0.57606157277E+02  0.10000000000E+01 0.  0.
    9000005    1    3    3    0    0  0.54231535078E+02 -0.10631731765E+02 -0.43492881569E+02  0.70332950062E+02  0.10000000000E+01 0.  0.
<mgrwt>
<rscale>  0 0.12500036E+03</rscale>
<asrwt>0</asrwt>
<pdfrwt beam="2">  1        4 0.11938701E-01 0.12500036E+03</pdfrwt>
<pdfrwt beam="1">  1       -4 0.77442382E-02 0.12500036E+03</pdfrwt>
<totfact> 0.10388719E+04</totfact>
</mgrwt>
</event>
<event>
 5    1  0.3212987E-002  0.1250145E+03  0.7818608E-02  0.1235047E+00
          4   -1    0    0  501    0  0.00000000000E+00  0.00000000000E+00  0.88656098962E+03  0.88656189926E+03  0.12700000000E+01 0. -1.
         -4   -1    0    0    0  501 -0.00000000000E+00 -0.00000000000E+00 -0.43146678275E+01  0.44976947942E+01  0.12700000000E+01 0. -1.
         25    2    1    2    0    0  0.00000000000E+00  0.00000000000E+00  0.88224632179E+03  0.89105959405E+03  0.12501451050E+03 0.  0.
    9000005    1    3    3    0    0  0.24972422306E+02  0.27454168691E+01  0.33224922095E+02  0.41665988982E+02  0.10000000000E+01 0.  0.
    9000005    1    3    3    0    0 -0.24972422306E+02 -0.27454168691E+01  0.84902139970E+03  0.84939360507E+03  0.10000000000E+01 0.  0.
<mgrwt>
<rscale>  0 0.12501451E+03</rscale>
<asrwt>0</asrwt>
<pdfrwt beam="1">  1        4 0.13640810E+00 0.12501451E+03</pdfrwt>
<pdfrwt beam="2">  1       -4 0.67794425E-03 0.12501451E+03</pdfrwt>
<totfact> 0.34492475E+03</totfact>
</mgrwt>
</event>
<event>
 5    1  0.3212987E-002  0.1249968E+03  0.7818608E-02  0.1235074E+00
          4   -1    0    0  501    0  0.00000000000E+00  0.00000000000E+00  0.63193516320E+02  0.63206276626E+02  0.12700000000E+01 0. -1.
         -4   -1    0    0    0  501 -0.00000000000E+00 -0.00000000000E+00 -0.61785402316E+02  0.61798453373E+02  0.12700000000E+01 0. -1.
         25    2    1    2    0    0  0.00000000000E+00  0.00000000000E+00  0.14081140047E+01  0.12500473000E+03  0.12499679891E+03 0.  0.
    9000005    1    3    3    0    0 -0.24584541394E+02 -0.48332438982E+02  0.31764450051E+02  0.62852244356E+02  0.10000000000E+01 0.  0.
    9000005    1    3    3    0    0  0.24584541394E+02  0.48332438982E+02 -0.30356336047E+02  0.62152485644E+02  0.10000000000E+01 0.  0.
<mgrwt>
<rscale>  0 0.12499680E+03</rscale>
<asrwt>0</asrwt>
<pdfrwt beam="1">  1        4 0.97240649E-02 0.12499680E+03</pdfrwt>
<pdfrwt beam="2">  1       -4 0.95074320E-02 0.12499680E+03</pdfrwt>
<totfact> 0.10453516E+04</totfact>
</mgrwt>
</event>
<event>
 5    1  0.3212987E-002  0.1249986E+03  0.7818608E-02  0.1235071E+00
         -4   -1    0    0    0  501 -0.00000000000E+00  0.00000000000E+00  0.21359523807E+03  0.21359901363E+03  0.12700000000E+01 0. -1.
          4   -1    0    0  501    0  0.00000000000E+00 -0.00000000000E+00 -0.18261702594E+02  0.18305810051E+02  0.12700000000E+01 0. -1.
         25    2    1    2    0    0  0.00000000000E+00  0.00000000000E+00  0.19533353547E+03  0.23190482368E+03  0.12499862866E+03 0.  0.
    9000005    1    3    3    0    0 -0.42040298306E+02  0.23493468334E+02  0.23785647445E+02  0.53722311570E+02  0.10000000000E+01 0.  0.
    9000005    1    3    3    0    0  0.42040298306E+02 -0.23493468334E+02  0.17154788803E+03  0.17818251211E+03  0.10000000000E+01 0.  0.
<mgrwt>
<rscale>  0 0.12499863E+03</rscale>
<asrwt>0</asrwt>
<pdfrwt beam="2">  1        4 0.28131761E-02 0.12499863E+03</pdfrwt>
<pdfrwt beam="1">  1       -4 0.32864489E-01 0.12499863E+03</pdfrwt>
<totfact> 0.85020566E+03</totfact>
</mgrwt>
</event>
<event>
 5    1  0.3212987E-002  0.1249934E+03  0.7818608E-02  0.1235080E+00
         -4   -1    0    0    0  501 -0.00000000000E+00  0.00000000000E+00  0.82991355654E+01  0.83957460141E+01  0.12700000000E+01 0.  1.
          4   -1    0    0  501    0  0.00000000000E+00 -0.00000000000E+00 -0.46781118771E+03  0.46781291159E+03  0.12700000000E+01 0.  1.
         25    2    1    2    0    0  0.00000000000E+00  0.00000000000E+00 -0.45951205214E+03  0.47620865760E+03  0.12499343786E+03 0.  0.
    9000005    1    3    3    0    0  0.30775195534E+02  0.63719881336E+01 -0.43552864829E+03  0.43666224748E+03  0.10000000000E+01 0.  0.
    9000005    1    3    3    0    0 -0.30775195534E+02 -0.63719881336E+01 -0.23983403853E+02  0.39546410119E+02  0.10000000000E+01 0.  0.
<mgrwt>
<rscale>  0 0.12499344E+03</rscale>
<asrwt>0</asrwt>
<pdfrwt beam="2">  1        4 0.71978496E-01 0.12499344E+03</pdfrwt>
<pdfrwt beam="1">  1       -4 0.12843546E-02 0.12499344E+03</pdfrwt>
<totfact> 0.57767068E+03</totfact>
</mgrwt>
</event>
<event>
 5    1  0.3212987E-002  0.1249999E+03  0.7818608E-02  0.1235069E+00
          4   -1    0    0  501    0  0.00000000000E+00  0.00000000000E+00  0.28309307172E+03  0.28309592042E+03  0.12700000000E+01 0. -1.
         -4   -1    0    0    0  501 -0.00000000000E+00 -0.00000000000E+00 -0.13766293848E+02  0.13824751221E+02  0.12700000000E+01 0. -1.
         25    2    1    2    0    0  0.00000000000E+00  0.00000000000E+00  0.26932677787E+03  0.29692067164E+03  0.12499988787E+03 0.  0.
    9000005    1    3    3    0    0 -0.21358577038E+02  0.54852065051E+02  0.84819985712E+02  0.10324905728E+03  0.10000000000E+01 0.  0.
    9000005    1    3    3    0    0  0.21358577038E+02 -0.54852065051E+02  0.18450679216E+03  0.19367161436E+03  0.10000000000E+01 0.  0.
<mgrwt>
<rscale>  0 0.12499989E+03</rscale>
<asrwt>0</asrwt>
<pdfrwt beam="1">  1        4 0.43557494E-01 0.12499989E+03</pdfrwt>
<pdfrwt beam="2">  1       -4 0.21226073E-02 0.12499989E+03</pdfrwt>
<totfact> 0.75986924E+03</totfact>
</mgrwt>
</event>
<event>
 5    1  0.3212987E-002  0.1249992E+03  0.7818608E-02  0.1235070E+00
          4   -1    0    0  501    0  0.00000000000E+00  0.00000000000E+00  0.28272044208E+02  0.28300554477E+02  0.12700000000E+01 0.  1.
         -4   -1    0    0    0  501 -0.00000000000E+00 -0.00000000000E+00 -0.13806375401E+03  0.13806959503E+03  0.12700000000E+01 0.  1.
         25    2    1    2    0    0  0.00000000000E+00  0.00000000000E+00 -0.10979170980E+03  0.16637014950E+03  0.12499922842E+03 0.  0.
    9000005    1    3    3    0    0  0.34851550568E+02 -0.79528298783E+01 -0.12311792071E+03  0.12820647597E+03  0.10000000000E+01 0.  0.
    9000005    1    3    3    0    0 -0.34851550568E+02  0.79528298783E+01  0.13326210915E+02  0.38163673532E+02  0.10000000000E+01 0.  0.
<mgrwt>
<rscale>  0 0.12499923E+03</rscale>
<asrwt>0</asrwt>
<pdfrwt beam="1">  1        4 0.43521878E-02 0.12499923E+03</pdfrwt>
<pdfrwt beam="2">  1       -4 0.21243220E-01 0.12499923E+03</pdfrwt>
<totfact> 0.96130202E+03</totfact>
</mgrwt>
</event>
<event>
 5    1  0.3212987E-002  0.1250012E+03  0.7818608E-02  0.1235067E+00
         -4   -1    0    0    0  501 -0.00000000000E+00  0.00000000000E+00  0.16128197424E+03  0.16128697441E+03  0.12700000000E+01 0.  1.
          4   -1    0    0  501    0  0.00000000000E+00 -0.00000000000E+00 -0.24198431103E+02  0.24231734726E+02  0.12700000000E+01 0.  1.
         25    2    1    2    0    0  0.00000000000E+00  0.00000000000E+00  0.13708354313E+03  0.18551870913E+03  0.12500117456E+03 0.  0.
    9000005    1    3    3    0    0 -0.12600209777E+02  0.60996425371E+02  0.76108566758E+02  0.98350613259E+02  0.10000000000E+01 0.  0.
    9000005    1    3    3    0    0  0.12600209777E+02 -0.60996425371E+02  0.60974976376E+02  0.87168095875E+02  0.10000000000E+01 0.  0.
<mgrwt>
<rscale>  0 0.12500117E+03</rscale>
<asrwt>0</asrwt>
<pdfrwt beam="2">  1        4 0.37257819E-02 0.12500117E+03</pdfrwt>
<pdfrwt beam="1">  1       -4 0.24815558E-01 0.12500117E+03</pdfrwt>
<totfact> 0.92630505E+03</totfact>
</mgrwt>
</event>
<event>
 5    1  0.3212987E-002  0.1250025E+03  0.7818608E-02  0.1235065E+00
          4   -1    0    0  501    0  0.00000000000E+00  0.00000000000E+00  0.26221690095E+01  0.29135322745E+01  0.12700000000E+01 0. -1.
         -4   -1    0    0    0  501 -0.00000000000E+00 -0.00000000000E+00 -0.14110579381E+04  0.14110585097E+04  0.12700000000E+01 0. -1.
         25    2    1    2    0    0  0.00000000000E+00  0.00000000000E+00 -0.14084357691E+04  0.14139720419E+04  0.12500247842E+03 0.  0.
    9000005    1    3    3    0    0 -0.35740086790E+02  0.20890458539E+02 -0.17466810465E+03  0.17950964276E+03  0.10000000000E+01 0.  0.
    9000005    1    3    3    0    0  0.35740086790E+02 -0.20890458539E+02 -0.12337676645E+04  0.12344623992E+04  0.10000000000E+01 0.  0.
<mgrwt>
<rscale>  0 0.12500248E+03</rscale>
<asrwt>0</asrwt>
<pdfrwt beam="1">  1        4 0.42586827E-03 0.12500248E+03</pdfrwt>
<pdfrwt beam="2">  1       -4 0.21710772E+00 0.12500248E+03</pdfrwt>
<totfact> 0.19682077E+03</totfact>
</mgrwt>
</event>
<event>
 5    1  0.3212987E-002  0.1250035E+03  0.7818608E-02  0.1235064E+00
         -4   -1    0    0    0  501 -0.00000000000E+00  0.00000000000E+00  0.46089224746E+02  0.46106719008E+02  0.12700000000E+01 0. -1.
          4   -1    0    0  501    0  0.00000000000E+00 -0.00000000000E+00 -0.84720482671E+02  0.84730001086E+02  0.12700000000E+01 0. -1.
         25    2    1    2    0    0  0.00000000000E+00  0.00000000000E+00 -0.38631257925E+02  0.13083672009E+03  0.12500349290E+03 0.  0.
    9000005    1    3    3    0    0 -0.16089964252E+02 -0.46643508127E+02 -0.59458515430E+02  0.77271073871E+02  0.10000000000E+01 0.  0.
    9000005    1    3    3    0    0  0.16089964252E+02  0.46643508127E+02  0.20827257505E+02  0.53565646222E+02  0.10000000000E+01 0.  0.
<mgrwt>
<rscale>  0 0.12500349E+03</rscale>
<asrwt>0</asrwt>
<pdfrwt beam="2">  1        4 0.13035998E-01 0.12500349E+03</pdfrwt>
<pdfrwt beam="1">  1       -4 0.70927279E-02 0.12500349E+03</pdfrwt>
<totfact> 0.10325777E+04</totfact>
</mgrwt>
</event>
<event>
 5    1  0.3212987E-002  0.1249993E+03  0.7818608E-02  0.1235070E+00
          4   -1    0    0  501    0  0.00000000000E+00  0.00000000000E+00  0.47582366157E+02  0.47599311646E+02  0.12700000000E+01 0.  1.
         -4   -1    0    0    0  501 -0.00000000000E+00 -0.00000000000E+00 -0.82057077270E+02  0.82066904597E+02  0.12700000000E+01 0.  1.
         25    2    1    2    0    0  0.00000000000E+00  0.00000000000E+00 -0.34474711113E+02  0.12966621624E+03  0.12499928771E+03 0.  0.
    9000005    1    3    3    0    0  0.57079487979E+02  0.25384566494E+02 -0.15513592695E+02  0.64374806581E+02  0.10000000000E+01 0.  0.
    9000005    1    3    3    0    0 -0.57079487979E+02 -0.25384566494E+02 -0.18961118418E+02  0.65291409662E+02  0.10000000000E+01 0.  0.
<mgrwt>
<rscale>  0 0.12499929E+03</rscale>
<asrwt>0</asrwt>
<pdfrwt beam="1">  1        4 0.73224235E-02 0.12499929E+03</pdfrwt>
<pdfrwt beam="2">  1       -4 0.12626225E-01 0.12499929E+03</pdfrwt>
<totfact> 0.10351819E+04</totfact>
</mgrwt>
</event>
<event>
 5    1  0.3212987E-002  0.1250014E+03  0.7818608E-02  0.1235067E+00
          4   -1    0    0  501    0  0.00000000000E+00  0.00000000000E+00  0.23355363923E+02  0.23389867977E+02  0.12700000000E+01 0. -1.
         -4   -1    0    0    0  501 -0.00000000000E+00 -0.00000000000E+00 -0.16709620369E+03  0.16710102988E+03  0.12700000000E+01 0. -1.
         25    2    1    2    0    0  0.00000000000E+00  0.00000000000E+00 -0.14374083977E+03  0.19049089786E+03  0.12500141259E+03 0.  0.
    9000005    1    3    3    0    0  0.50410297574E+02  0.27345482010E+02 -0.34036771598E+02  0.66696891297E+02  0.10000000000E+01 0.  0.
    9000005    1    3    3    0    0 -0.50410297574E+02 -0.27345482010E+02 -0.10970406817E+03  0.12379400656E+03  0.10000000000E+01 0.  0.
<mgrwt>
<rscale>  0 0.12500141E+03</rscale>
<asrwt>0</asrwt>
<pdfrwt beam="1">  1        4 0.35961584E-02 0.12500141E+03</pdfrwt>
<pdfrwt beam="2">  1       -4 0.25710133E-01 0.12500141E+03</pdfrwt>
<totfact> 0.91759067E+03</totfact>
</mgrwt>
</event>
<event>
 5    1  0.3212987E-002  0.1250003E+03  0.7818608E-02  0.1235069E+00
          4   -1    0    0  501    0  0.00000000000E+00  0.00000000000E+00  0.32883219273E+02  0.32907734802E+02  0.12700000000E+01 0. -1.
         -4   -1    0    0    0  501 -0.00000000000E+00 -0.00000000000E+00 -0.11871994301E+03  0.11872673570E+03  0.12700000000E+01 0. -1.
         25    2    1    2    0    0  0.00000000000E+00  0.00000000000E+00 -0.85836723741E+02  0.15163447050E+03  0.12500027800E+03 0.  0.
    9000005    1    3    3    0    0  0.37859144482E+01 -0.61734960311E+02 -0.53750017723E+02  0.81948782041E+02  0.10000000000E+01 0.  0.
    9000005    1    3    3    0    0 -0.37859144482E+01  0.61734960311E+02 -0.32086706018E+02  0.69685688458E+02  0.10000000000E+01 0.  0.
<mgrwt>
<rscale>  0 0.12500028E+03</rscale>
<asrwt>0</asrwt>
<pdfrwt beam="1">  1        4 0.50613652E-02 0.12500028E+03</pdfrwt>
<pdfrwt beam="2">  1       -4 0.18267015E-01 0.12500028E+03</pdfrwt>
<totfact> 0.98978264E+03</totfact>
</mgrwt>
</event>
<event>
 5    1  0.3212987E-002  0.1250003E+03  0.7818608E-02  0.1235069E+00
          4   -1    0    0  501    0  0.00000000000E+00  0.00000000000E+00  0.80735712501E+03  0.80735812389E+03  0.12700000000E+01 0.  1.
         -4   -1    0    0    0  501 -0.00000000000E+00 -0.00000000000E+00 -0.47539799675E+01  0.49206936027E+01  0.12700000000E+01 0.  1.
         25    2    1    2    0    0  0.00000000000E+00  0.00000000000E+00  0.80260314505E+03  0.81227881749E+03  0.12500027563E+03 0.  0.
    9000005    1    3    3    0    0 -0.14397775068E+02  0.58536893679E+02  0.29424784786E+03  0.30036088264E+03  0.10000000000E+01 0.  0.
    9000005    1    3    3    0    0  0.14397775068E+02 -0.58536893679E+02  0.50835529719E+03  0.51191793486E+03  0.10000000000E+01 0.  0.
<mgrwt>
<rscale>  0 0.12500028E+03</rscale>
<asrwt>0</asrwt>
<pdfrwt beam="1">  1        4 0.12422168E+00 0.12500028E+03</pdfrwt>
<pdfrwt beam="2">  1       -4 0.74428254E-03 0.12500028E+03</pdfrwt>
<totfact> 0.37722186E+03</totfact>
</mgrwt>
</event>
<event>
 5    1  0.3212987E-002  0.1250003E+03  0.7818608E-02  0.1235069E+00
         -4   -1    0    0    0  501 -0.00000000000E+00  0.00000000000E+00  0.13547821175E+02  0.13607217151E+02  0.12700000000E+01 0. -1.
          4   -1    0    0  501    0  0.00000000000E+00 -0.00000000000E+00 -0.28764044472E+03  0.28764324838E+03  0.12700000000E+01 0. -1.
         25    2    1    2    0    0  0.00000000000E+00  0.00000000000E+00 -0.27409262354E+03  0.30125046553E+03  0.12500030680E+03 0.  0.
    9000005    1    3    3    0    0 -0.17014996757E+02  0.47331883808E+02 -0.22642610413E+03  0.23194740345E+03  0.10000000000E+01 0.  0.
    9000005    1    3    3    0    0  0.17014996757E+02 -0.47331883808E+02 -0.47666519414E+02  0.69303062072E+02  0.10000000000E+01 0.  0.
<mgrwt>
<rscale>  0 0.12500031E+03</rscale>
<asrwt>0</asrwt>
<pdfrwt beam="2">  1        4 0.44257156E-01 0.12500031E+03</pdfrwt>
<pdfrwt beam="1">  1       -4 0.20890650E-02 0.12500031E+03</pdfrwt>
<totfact> 0.75441738E+03</totfact>
</mgrwt>
</event>
<event>
 5    1  0.3212987E-002  0.1250023E+03  0.7818608E-02  0.1235066E+00
          4   -1    0    0  501    0  0.00000000000E+00  0.00000000000E+00  0.99681544018E+02  0.99689633954E+02  0.12700000000E+01 0. -1.
         -4   -1    0    0    0  501 -0.00000000000E+00 -0.00000000000E+00 -0.39168788791E+02  0.39189372480E+02  0.12700000000E+01 0. -1.
         25    2    1    2    0    0  0.00000000000E+00  0.00000000000E+00  0.60512755227E+02  0.13887900643E+03  0.12500233951E+03 0.  0.
    9000005    1    3    3    0    0  0.39146885469E+02 -0.37534245819E+02 -0.42404408872E+01  0.54408451457E+02  0.10000000000E+01 0.  0.
    9000005    1    3    3    0    0 -0.39146885469E+02  0.37534245819E+02  0.64753196114E+02  0.84470554977E+02  0.10000000000E+01 0.  0.
<mgrwt>
<rscale>  0 0.12500234E+03</rscale>
<asrwt>0</asrwt>
<pdfrwt beam="1">  1        4 0.15337828E-01 0.12500234E+03</pdfrwt>
<pdfrwt beam="2">  1       -4 0.60281731E-02 0.12500234E+03</pdfrwt>
<totfact> 0.10156336E+04</totfact>
</mgrwt>
</event>
<event>
 5    1  0.3212987E-002  0.1250000E+03  0.7818608E-02  0.1235069E+00
         -4   -1    0    0    0  501 -0.00000000000E+00  0.00000000000E+00  0.24850639425E+02  0.24883070144E+02  0.12700000000E+01 0.  1.
          4   -1    0    0  501    0  0.00000000000E+00 -0.00000000000E+00 -0.15705163237E+03  0.15705676722E+03  0.12700000000E+01 0.  1.
         25    2    1    2    0    0  0.00000000000E+00  0.00000000000E+00 -0.13220099295E+03  0.18193983737E+03  0.12500000754E+03 0.  0.
    9000005    1    3    3    0    0  0.74723724664E+01  0.23977025843E+02 -0.14939020548E+03  0.15148982676E+03  0.10000000000E+01 0.  0.
    9000005    1    3    3    0    0 -0.74723724664E+01 -0.23977025843E+02  0.17189212532E+02  0.30450010608E+02  0.10000000000E+01 0.  0.
<mgrwt>
<rscale>  0 0.12500001E+03</rscale>
<asrwt>0</asrwt>
<pdfrwt beam="2">  1        4 0.24164679E-01 0.12500001E+03</pdfrwt>
<pdfrwt beam="1">  1       -4 0.38260651E-02 0.12500001E+03</pdfrwt>
<totfact> 0.93268972E+03</totfact>
</mgrwt>
</event>
<event>
 5    1  0.3212987E-002  0.1249924E+03  0.7818608E-02  0.1235081E+00
         -4   -1    0    0    0  501 -0.00000000000E+00  0.00000000000E+00  0.13769109156E+03  0.13769694838E+03  0.12700000000E+01 0.  1.
          4   -1    0    0  501    0  0.00000000000E+00 -0.00000000000E+00 -0.28345533320E+02  0.28373969747E+02  0.12700000000E+01 0.  1.
         25    2    1    2    0    0  0.00000000000E+00  0.00000000000E+00  0.10934555824E+03  0.16607091813E+03  0.12499239474E+03 0.  0.
    9000005    1    3    3    0    0  0.39348541589E+02  0.42799079959E+02  0.85107399925E+02  0.10307443181E+03  0.10000000000E+01 0.  0.
    9000005    1    3    3    0    0 -0.39348541589E+02 -0.42799079959E+02  0.24238158311E+02  0.62996486322E+02  0.10000000000E+01 0.  0.
<mgrwt>
<rscale>  0 0.12499239E+03</rscale>
<asrwt>0</asrwt>
<pdfrwt beam="2">  1        4 0.43634893E-02 0.12499239E+03</pdfrwt>
<pdfrwt beam="1">  1       -4 0.21185883E-01 0.12499239E+03</pdfrwt>
<totfact> 0.96201394E+03</totfact>
</mgrwt>
</event>
<event>
 5    1  0.3212987E-002  0.1250087E+03  0.7818608E-02  0.1235056E+00
         -4   -1    0    0    0  501 -0.00000000000E+00  0.00000000000E+00  0.40153798052E+03  0.40153998892E+03  0.12700000000E+01 0.  1.
          4   -1    0    0  501    0  0.00000000000E+00 -0.00000000000E+00 -0.96860877271E+01  0.97689915272E+01  0.12700000000E+01 0.  1.
         25    2    1    2    0    0  0.00000000000E+00  0.00000000000E+00  0.39185189279E+03  0.41130898044E+03  0.12500868574E+03 0.  0.
    9000005    1    3    3    0    0  0.21977336468E+02 -0.58285587910E+02  0.17928505509E+03  0.18980080098E+03  0.10000000000E+01 0.  0.
    9000005    1    3    3    0    0 -0.21977336468E+02  0.58285587910E+02  0.21256683771E+03  0.22150817946E+03  0.10000000000E+01 0.  0.
<mgrwt>
<rscale>  0 0.12500869E+03</rscale>
<asrwt>0</asrwt>
<pdfrwt beam="2">  1        4 0.14966989E-02 0.12500869E+03</pdfrwt>
<pdfrwt beam="1">  1       -4 0.61781613E-01 0.12500869E+03</pdfrwt>
<totfact> 0.63455386E+03</totfact>
</mgrwt>
</event>
<event>
 5    1  0.3212987E-002  0.1250033E+03  0.7818608E-02  0.1235064E+00
          4   -1    0    0  501    0  0.00000000000E+00  0.00000000000E+00  0.46012457293E+01  0.47732967917E+01  0.12700000000E+01 0. -1.
         -4   -1    0    0    0  501 -0.00000000000E+00 -0.00000000000E+00 -0.83324495854E+03  0.83324592639E+03  0.12700000000E+01 0. -1.
         25    2    1    2    0    0  0.00000000000E+00  0.00000000000E+00 -0.82864371281E+03  0.83801922318E+03  0.12500326247E+03 0.  0.
    9000005    1    3    3    0    0 -0.39983299432E+01 -0.32480938252E+02 -0.77123906392E+03  0.77193373531E+03  0.10000000000E+01 0.  0.
    9000005    1    3    3    0    0  0.39983299432E+01  0.32480938252E+02 -0.57404648892E+02  0.66085487866E+02  0.10000000000E+01 0.  0.
<mgrwt>
<rscale>  0 0.12500326E+03</rscale>
<asrwt>0</asrwt>
<pdfrwt beam="1">  1        4 0.72119377E-03 0.12500326E+03</pdfrwt>
<pdfrwt beam="2">  1       -4 0.12820472E+00 0.12500326E+03</pdfrwt>
<totfact> 0.36620089E+03</totfact>
</mgrwt>
</event>
<event>
 5    1  0.3212987E-002  0.1250006E+03  0.7818608E-02  0.1235068E+00
         -4   -1    0    0    0  501 -0.00000000000E+00  0.00000000000E+00  0.11684506329E+02  0.11753322430E+02  0.12700000000E+01 0. -1.
          4   -1    0    0  501    0  0.00000000000E+00 -0.00000000000E+00 -0.33326169064E+03  0.33326411050E+03  0.12700000000E+01 0. -1.
         25    2    1    2    0    0  0.00000000000E+00  0.00000000000E+00 -0.32157718431E+03  0.34501743293E+03  0.12500057422E+03 0.  0.
    9000005    1    3    3    0    0  0.52695059108E+02  0.12816504935E+02 -0.24649725488E+03  0.25239439122E+03  0.10000000000E+01 0.  0.
    9000005    1    3    3    0    0 -0.52695059108E+02 -0.12816504935E+02 -0.75079929423E+02  0.92623041708E+02  0.10000000000E+01 0.  0.
<mgrwt>
<rscale>  0 0.12500057E+03</rscale>
<asrwt>0</asrwt>
<pdfrwt beam="2">  1        4 0.51276502E-01 0.12500057E+03</pdfrwt>
<pdfrwt beam="1">  1       -4 0.18030963E-02 0.12500057E+03</pdfrwt>
<totfact> 0.70275309E+03</totfact>
</mgrwt>
</event>
<event>
 5    1  0.3212987E-002  0.1250135E+03  0.7818608E-02  0.1235048E+00
          4   -1    0    0  501    0  0.00000000000E+00  0.00000000000E+00  0.21951778069E+02  0.21988484722E+02  0.12700000000E+01 0.  1.
         -4   -1    0    0    0  501 -0.00000000000E+00 -0.00000000000E+00 -0.17779752576E+03  0.17780206148E+03  0.12700000000E+01 0.  1.
         25    2    1    2    0    0  0.00000000000E+00  0.00000000000E+00 -0.15584574770E+03  0.19979054621E+03  0.12501346039E+03 0.  0.
    9000005    1    3    3    0    0  0.45767603676E+02 -0.37465402711E+02 -0.11019452595E+03  0.12506863514E+03  0.10000000000E+01 0.  0.
    9000005    1    3    3    0    0 -0.45767603676E+02  0.37465402711E+02 -0.45651221746E+02  0.74721911067E+02  0.10000000000E+01 0.  0.
<mgrwt>
<rscale>  0 0.12501346E+03</rscale>
<asrwt>0</asrwt>
<pdfrwt beam="1">  1        4 0.33803692E-02 0.12501346E+03</pdfrwt>
<pdfrwt beam="2">  1       -4 0.27356637E-01 0.12501346E+03</pdfrwt>
<totfact> 0.90143690E+03</totfact>
</mgrwt>
</event>
<event>
 5    1  0.3212987E-002  0.1250135E+03  0.7818608E-02  0.1235048E+00
          4   -1    0    0  501    0  0.00000000000E+00  0.00000000000E+00  0.73281642584E+01  0.74373981605E+01  0.12700000000E+01 0. -1.
         -4   -1    0    0    0  501 -0.00000000000E+00 -0.00000000000E+00 -0.52910739004E+03  0.52910891420E+03  0.12700000000E+01 0. -1.
         25    2    1    2    0    0  0.00000000000E+00  0.00000000000E+00 -0.52177922578E+03  0.53654631237E+03  0.12501353870E+03 0.  0.
    9000005    1    3    3    0    0  0.33161672197E+02  0.36623153289E+02 -0.42517176129E+03  0.42803385200E+03  0.10000000000E+01 0.  0.
    9000005    1    3    3    0    0 -0.33161672197E+02 -0.36623153289E+02 -0.96607464491E+02  0.10851246037E+03  0.10000000000E+01 0.  0.
<mgrwt>
<rscale>  0 0.12501354E+03</rscale>
<asrwt>0</asrwt>
<pdfrwt beam="1">  1        4 0.11359302E-02 0.12501354E+03</pdfrwt>
<pdfrwt beam="2">  1       -4 0.81409627E-01 0.12501354E+03</pdfrwt>
<totfact> 0.53120496E+03</totfact>
</mgrwt>
</event>
<event>
 5    1  0.3212987E-002  0.1250007E+03  0.7818608E-02  0.1235068E+00
         -4   -1    0    0    0  501 -0.00000000000E+00  0.00000000000E+00  0.14835381366E+02  0.14889642046E+02  0.12700000000E+01 0. -1.
          4   -1    0    0  501    0  0.00000000000E+00 -0.00000000000E+00 -0.26277275420E+03  0.26277582318E+03  0.12700000000E+01 0. -1.
         25    2    1    2    0    0  0.00000000000E+00  0.00000000000E+00 -0.24793737283E+03  0.27766546523E+03  0.12500067893E+03 0.  0.
    9000005    1    3    3    0    0 -0.27714561179E+01  0.37742898271E+02 -0.23443478746E+03  0.23747184446E+03  0.10000000000E+01 0.  0.
    9000005    1    3    3    0    0  0.27714561179E+01 -0.37742898271E+02 -0.13502585374E+02  0.40193620772E+02  0.10000000000E+01 0.  0.
<mgrwt>
<rscale>  0 0.12500068E+03</rscale>
<asrwt>0</asrwt>
<pdfrwt beam="2">  1        4 0.40430984E-01 0.12500068E+03</pdfrwt>
<pdfrwt beam="1">  1       -4 0.22867765E-02 0.12500068E+03</pdfrwt>
<totfact> 0.78487486E+03</totfact>
</mgrwt>
</event>
<event>
 5    1  0.3212987E-002  0.1250010E+03  0.7818608E-02  0.1235068E+00
         -4   -1    0    0    0  501 -0.00000000000E+00  0.00000000000E+00  0.49546151575E+01  0.51147933838E+01  0.12700000000E+01 0.  1.
          4   -1    0    0  501    0  0.00000000000E+00 -0.00000000000E+00 -0.77571693485E+03  0.77571797447E+03  0.12700000000E+01 0.  1.
         25    2    1    2    0    0  0.00000000000E+00  0.00000000000E+00 -0.77076231969E+03  0.78083276785E+03  0.12500103157E+03 0.  0.
    9000005    1    3    3    0    0 -0.25995135604E+02 -0.55846896849E+02 -0.31966054912E+03  0.32554337596E+03  0.10000000000E+01 0.  0.
    9000005    1    3    3    0    0  0.25995135604E+02  0.55846896849E+02 -0.45110177057E+03  0.45528939189E+03  0.10000000000E+01 0.  0.
<mgrwt>
<rscale>  0 0.12500103E+03</rscale>
<asrwt>0</asrwt>
<pdfrwt beam="2">  1        4 0.11935337E+00 0.12500103E+03</pdfrwt>
<pdfrwt beam="1">  1       -4 0.77465047E-03 0.12500103E+03</pdfrwt>
<totfact> 0.39133999E+03</totfact>
</mgrwt>
</event>
<event>
 5    1  0.3212987E-002  0.1250045E+03  0.7818608E-02  0.1235062E+00
         -4   -1    0    0    0  501 -0.00000000000E+00  0.00000000000E+00  0.23370727054E+02  0.23405208460E+02  0.12700000000E+01 0. -1.
          4   -1    0    0  501    0  0.00000000000E+00 -0.00000000000E+00 -0.16699486594E+03  0.16699969506E+03  0.12700000000E+01 0. -1.
         25    2    1    2    0    0  0.00000000000E+00  0.00000000000E+00 -0.14362413888E+03  0.19040490352E+03  0.12500453597E+03 0.  0.
    9000005    1    3    3    0    0 -0.20167991174E+02  0.31178259003E+02 -0.14837690450E+03  0.15295599855E+03  0.10000000000E+01 0.  0.
    9000005    1    3    3    0    0  0.20167991174E+02 -0.31178259003E+02  0.47527656176E+01  0.37448904970E+02  0.10000000000E+01 0.  0.
<mgrwt>
<rscale>  0 0.12500454E+03</rscale>
<asrwt>0</asrwt>
<pdfrwt beam="2">  1        4 0.25694541E-01 0.12500454E+03</pdfrwt>
<pdfrwt beam="1">  1       -4 0.35985205E-02 0.12500454E+03</pdfrwt>
<totfact> 0.91767587E+03</totfact>
</mgrwt>
</event>
<event>
 5    1  0.3212987E-002  0.1249979E+03  0.7818608E-02  0.1235073E+00
          4   -1    0    0  501    0  0.00000000000E+00  0.00000000000E+00  0.15219360607E+02  0.15272257111E+02  0.12700000000E+01 0.  1.
         -4   -1    0    0    0  501 -0.00000000000E+00 -0.00000000000E+00 -0.25615491940E+03  0.25615806767E+03  0.12700000000E+01 0.  1.
         25    2    1    2    0    0  0.00000000000E+00  0.00000000000E+00 -0.24093555879E+03  0.27143032478E+03  0.12499791086E+03 0.  0.
    9000005    1    3    3    0    0  0.28993580566E+02 -0.12918258859E+02 -0.23735730619E+03  0.23947233645E+03  0.10000000000E+01 0.  0.
    9000005    1    3    3    0    0 -0.28993580566E+02  0.12918258859E+02 -0.35782526000E+01  0.31957988323E+02  0.10000000000E+01 0.  0.
<mgrwt>
<rscale>  0 0.12499791E+03</rscale>
<asrwt>0</asrwt>
<pdfrwt beam="1">  1        4 0.23457514E-02 0.12499791E+03</pdfrwt>
<pdfrwt beam="2">  1       -4 0.39412757E-01 0.12499791E+03</pdfrwt>
<totfact> 0.79331951E+03</totfact>
</mgrwt>
</event>
<event>
 5    1  0.3212987E-002  0.1249997E+03  0.7818608E-02  0.1235070E+00
          4   -1    0    0  501    0  0.00000000000E+00  0.00000000000E+00  0.44883940175E+03  0.44884119849E+03  0.12700000000E+01 0.  1.
         -4   -1    0    0    0  501 -0.00000000000E+00 -0.00000000000E+00 -0.86547974448E+01  0.87474807122E+01  0.12700000000E+01 0.  1.
         25    2    1    2    0    0  0.00000000000E+00  0.00000000000E+00  0.44018460430E+03  0.45758867920E+03  0.12499965387E+03 0.  0.
    9000005    1    3    3    0    0 -0.24936708823E+02  0.10527170436E+02  0.13900258315E+02  0.30444670232E+02  0.10000000000E+01 0.  0.
    9000005    1    3    3    0    0  0.24936708823E+02 -0.10527170436E+02  0.42628434599E+03  0.42714400897E+03  0.10000000000E+01 0.  0.
<mgrwt>
<rscale>  0 0.12499965E+03</rscale>
<asrwt>0</asrwt>
<pdfrwt beam="1">  1        4 0.69059502E-01 0.12499965E+03</pdfrwt>
<pdfrwt beam="2">  1       -4 0.13387746E-02 0.12499965E+03</pdfrwt>
<totfact> 0.59312420E+03</totfact>
</mgrwt>
</event>
<event>
 5    1  0.3212987E-002  0.1250042E+03  0.7818608E-02  0.1235063E+00
          4   -1    0    0  501    0  0.00000000000E+00  0.00000000000E+00  0.13946144221E+04  0.13946150004E+04  0.12700000000E+01 0. -1.
         -4   -1    0    0    0  501 -0.00000000000E+00 -0.00000000000E+00 -0.26565847968E+01  0.29445445798E+01  0.12700000000E+01 0. -1.
         25    2    1    2    0    0  0.00000000000E+00  0.00000000000E+00  0.13919578373E+04  0.13975595450E+04  0.12500424322E+03 0.  0.
    9000005    1    3    3    0    0 -0.51012200922E+01 -0.61779007645E+02  0.78461034746E+03  0.78705594819E+03  0.10000000000E+01 0.  0.
    9000005    1    3    3    0    0  0.51012200922E+01  0.61779007645E+02  0.60734748988E+03  0.61050359679E+03  0.10000000000E+01 0.  0.
<mgrwt>
<rscale>  0 0.12500424E+03</rscale>
<asrwt>0</asrwt>
<pdfrwt beam="1">  1        4 0.21457861E+00 0.12500424E+03</pdfrwt>
<pdfrwt beam="2">  1       -4 0.43089988E-03 0.12500424E+03</pdfrwt>
<totfact> 0.20031451E+03</totfact>
</mgrwt>
</event>
<event>
 5    1  0.3212987E-002  0.1250057E+03  0.7818608E-02  0.1235060E+00
          4   -1    0    0  501    0  0.00000000000E+00  0.00000000000E+00  0.84282156369E+02  0.84291724280E+02  0.12700000000E+01 0. -1.
         -4   -1    0    0    0  501 -0.00000000000E+00 -0.00000000000E+00 -0.46330655959E+02  0.46348059092E+02  0.12700000000E+01 0. -1.
         25    2    1    2    0    0  0.00000000000E+00  0.00000000000E+00  0.37951500410E+02  0.13063978337E+03  0.12500574633E+03 0.  0.
    9000005    1    3    3    0    0  0.78830028487E+01 -0.44113559071E+02  0.64498861946E+02  0.78544579827E+02  0.10000000000E+01 0.  0.
    9000005    1    3    3    0    0 -0.78830028487E+01  0.44113559071E+02 -0.26547361537E+02  0.52095203545E+02  0.10000000000E+01 0.  0.
<mgrwt>
<rscale>  0 0.12500575E+03</rscale>
<asrwt>0</asrwt>
<pdfrwt beam="1">  1        4 0.12968560E-01 0.12500575E+03</pdfrwt>
<pdfrwt beam="2">  1       -4 0.71298679E-02 0.12500575E+03</pdfrwt>
<totfact> 0.10329479E+04</totfact>
</mgrwt>
</event>
<event>
 5    1  0.3212987E-002  0.1250024E+03  0.7818608E-02  0.1235065E+00
          4   -1    0    0  501    0  0.00000000000E+00  0.00000000000E+00  0.70789352781E+02  0.70800744114E+02  0.12700000000E+01 0.  1.
         -4   -1    0    0    0  501 -0.00000000000E+00 -0.00000000000E+00 -0.55160330654E+02  0.55174948825E+02  0.12700000000E+01 0.  1.
         25    2    1    2    0    0  0.00000000000E+00  0.00000000000E+00  0.15629022127E+02  0.12597569294E+03  0.12500243549E+03 0.  0.
    9000005    1    3    3    0    0  0.36404543082E+02 -0.40676623179E+02 -0.22844777594E+02  0.59184138868E+02  0.10000000000E+01 0.  0.
    9000005    1    3    3    0    0 -0.36404543082E+02  0.40676623179E+02  0.38473799721E+02  0.66791554071E+02  0.10000000000E+01 0.  0.
<mgrwt>
<rscale>  0 0.12500244E+03</rscale>
<asrwt>0</asrwt>
<pdfrwt beam="1">  1        4 0.10892670E-01 0.12500244E+03</pdfrwt>
<pdfrwt beam="2">  1       -4 0.84882055E-02 0.12500244E+03</pdfrwt>
<totfact> 0.10430916E+04</totfact>
</mgrwt>
</event>
<event>
 5    1  0.3212987E-002  0.1250020E+03  0.7818608E-02  0.1235066E+00
         -4   -1    0    0    0  501 -0.00000000000E+00  0.00000000000E+00  0.63375453735E+02  0.63388177416E+02  0.12700000000E+01 0. -1.
          4   -1    0    0  501    0  0.00000000000E+00 -0.00000000000E+00 -0.61613134745E+02  0.61626222285E+02  0.12700000000E+01 0. -1.
         25    2    1    2    0    0  0.00000000000E+00  0.00000000000E+00  0.17623189902E+01  0.12501439970E+03  0.12500197744E+03 0.  0.
    9000005    1    3    3    0    0  0.38959317647E+02 -0.47604064004E+02  0.11900341828E+02  0.62662536470E+02  0.10000000000E+01 0.  0.
    9000005    1    3    3    0    0 -0.38959317647E+02  0.47604064004E+02 -0.10138022838E+02  0.62351863230E+02  0.10000000000E+01 0.  0.
<mgrwt>
<rscale>  0 0.12500198E+03</rscale>
<asrwt>0</asrwt>
<pdfrwt beam="2">  1        4 0.94809294E-02 0.12500198E+03</pdfrwt>
<pdfrwt beam="1">  1       -4 0.97520552E-02 0.12500198E+03</pdfrwt>
<totfact> 0.10452083E+04</totfact>
</mgrwt>
</event>
<event>
 5    1  0.3212987E-002  0.1249985E+03  0.7818608E-02  0.1235072E+00
         -4   -1    0    0    0  501 -0.00000000000E+00  0.00000000000E+00  0.17681094153E+03  0.17681550256E+03  0.12700000000E+01 0. -1.
          4   -1    0    0  501    0  0.00000000000E+00 -0.00000000000E+00 -0.22069176811E+02  0.22105688524E+02  0.12700000000E+01 0. -1.
         25    2    1    2    0    0  0.00000000000E+00  0.00000000000E+00  0.15474176472E+03  0.19892119108E+03  0.12499850604E+03 0.  0.
    9000005    1    3    3    0    0  0.43366871998E+02  0.44450345418E+02  0.66272406567E+02  0.90827037092E+02  0.10000000000E+01 0.  0.
    9000005    1    3    3    0    0 -0.43366871998E+02 -0.44450345418E+02  0.88469358150E+02  0.10809415399E+03  0.10000000000E+01 0.  0.
<mgrwt>
<rscale>  0 0.12499851E+03</rscale>
<asrwt>0</asrwt>
<pdfrwt beam="2">  1        4 0.33984173E-02 0.12499851E+03</pdfrwt>
<pdfrwt beam="1">  1       -4 0.27204843E-01 0.12499851E+03</pdfrwt>
<totfact> 0.90320794E+03</totfact>
</mgrwt>
</event>
<event>
 5    1  0.3212987E-002  0.1250004E+03  0.7818608E-02  0.1235069E+00
          4   -1    0    0  501    0  0.00000000000E+00  0.00000000000E+00  0.19544221633E+01  0.23308080127E+01  0.12700000000E+01 0.  1.
         -4   -1    0    0    0  501 -0.00000000000E+00 -0.00000000000E+00 -0.18227572386E+04  0.18227576810E+04  0.12700000000E+01 0.  1.
         25    2    1    2    0    0  0.00000000000E+00  0.00000000000E+00 -0.18208028164E+04  0.18250884890E+04  0.12500038603E+03 0.  0.
    9000005    1    3    3    0    0 -0.23588371080E+02 -0.23991338524E+02 -0.14150236893E+03  0.14545073388E+03  0.10000000000E+01 0.  0.
    9000005    1    3    3    0    0  0.23588371080E+02  0.23991338524E+02 -0.16793004475E+04  0.16796377551E+04  0.10000000000E+01 0.  0.
<mgrwt>
<rscale>  0 0.12500039E+03</rscale>
<asrwt>0</asrwt>
<pdfrwt beam="1">  1        4 0.32966858E-03 0.12500039E+03</pdfrwt>
<pdfrwt beam="2">  1       -4 0.28045194E+00 0.12500039E+03</pdfrwt>
<totfact> 0.12320942E+03</totfact>
</mgrwt>
</event>
<event>
 4    1  0.3212987E-002  0.1225265E+03  0.7818608E-02  0.1238986E+00
         -4   -1    0    0    0  501 -0.00000000000E+00  0.00000000000E+00  0.16316640822E+02  0.16365991192E+02  0.12700000000E+01 0. -1.
          4   -1    0    0  501    0  0.00000000000E+00 -0.00000000000E+00 -0.22962369684E+03  0.22962720886E+03  0.12700000000E+01 0. -1.
    9000005    1    1    2    0    0  0.61215574107E+02 -0.68495974235E+00 -0.10245518793E+03  0.11935611093E+03  0.10000000000E+01 0.  0.
    9000005    1    1    2    0    0 -0.61215574107E+02  0.68495974235E+00 -0.11085186809E+03  0.12663708913E+03  0.10000000000E+01 0.  0.
<mgrwt>
<rscale>  0 0.12252655E+03</rscale>
<asrwt>0</asrwt>
<pdfrwt beam="2">  1        4 0.35330787E-01 0.12252655E+03</pdfrwt>
<pdfrwt beam="1">  1       -4 0.25143189E-02 0.12252655E+03</pdfrwt>
<totfact> 0.87653673E+03</totfact>
</mgrwt>
</event>
<event>
 5    1  0.3212987E-002  0.1250020E+03  0.7818608E-02  0.1235066E+00
         -4   -1    0    0    0  501 -0.00000000000E+00  0.00000000000E+00  0.25627554849E+01  0.28601775602E+01  0.12700000000E+01 0. -1.
          4   -1    0    0  501    0  0.00000000000E+00 -0.00000000000E+00 -0.14403893889E+04  0.14403899488E+04  0.12700000000E+01 0. -1.
         25    2    1    2    0    0  0.00000000000E+00  0.00000000000E+00 -0.14378266334E+04  0.14432501263E+04  0.12500199771E+03 0.  0.
    9000005    1    3    3    0    0 -0.61772137922E+02 -0.35701796457E+01 -0.82011663112E+03  0.82244807243E+03  0.10000000000E+01 0.  0.
    9000005    1    3    3    0    0  0.61772137922E+02  0.35701796457E+01 -0.61771000227E+03  0.62080205388E+03  0.10000000000E+01 0.  0.
<mgrwt>
<rscale>  0 0.12500200E+03</rscale>
<asrwt>0</asrwt>
<pdfrwt beam="2">  1        4 0.22162068E+00 0.12500200E+03</pdfrwt>
<pdfrwt beam="1">  1       -4 0.41719291E-03 0.12500200E+03</pdfrwt>
<totfact> 0.19070658E+03</totfact>
</mgrwt>
</event>
<event>
 5    1  0.3212987E-002  0.1250003E+03  0.7818608E-02  0.1235069E+00
         -4   -1    0    0    0  501 -0.00000000000E+00  0.00000000000E+00  0.23552069375E+04  0.23552072799E+04  0.12700000000E+01 0.  1.
          4   -1    0    0  501    0  0.00000000000E+00 -0.00000000000E+00 -0.14150574842E+01  0.19013909865E+01  0.12700000000E+01 0.  1.
         25    2    1    2    0    0  0.00000000000E+00  0.00000000000E+00  0.23537918800E+04  0.23571086709E+04  0.12500028798E+03 0.  0.
    9000005    1    3    3    0    0 -0.42882837156E+02  0.38210863867E+02  0.16411953228E+04  0.16422003822E+04  0.10000000000E+01 0.  0.
    9000005    1    3    3    0    0  0.42882837156E+02 -0.38210863867E+02  0.71259655723E+03  0.71490828867E+03  0.10000000000E+01 0.  0.
<mgrwt>
<rscale>  0 0.12500029E+03</rscale>
<asrwt>0</asrwt>
<pdfrwt beam="2">  1        4 0.25513850E-03 0.12500029E+03</pdfrwt>
<pdfrwt beam="1">  1       -4 0.36237592E+00 0.12500029E+03</pdfrwt>
<totfact> 0.58911589E+02</totfact>
</mgrwt>
</event>
<event>
 5    1  0.3212987E-002  0.1249981E+03  0.7818608E-02  0.1235072E+00
          4   -1    0    0  501    0  0.00000000000E+00  0.00000000000E+00  0.96819988033E+02  0.96828317050E+02  0.12700000000E+01 0.  1.
         -4   -1    0    0    0  501 -0.00000000000E+00 -0.00000000000E+00 -0.40324211174E+02  0.40344205369E+02  0.12700000000E+01 0.  1.
         25    2    1    2    0    0  0.00000000000E+00  0.00000000000E+00  0.56495776859E+02  0.13717252242E+03  0.12499811240E+03 0.  0.
    9000005    1    3    3    0    0  0.46025855178E+02 -0.27790703519E+02  0.63200095177E+02  0.82981652052E+02  0.10000000000E+01 0.  0.
    9000005    1    3    3    0    0 -0.46025855178E+02  0.27790703519E+02 -0.67043183179E+01  0.54190870367E+02  0.10000000000E+01 0.  0.
<mgrwt>
<rscale>  0 0.12499811E+03</rscale>
<asrwt>0</asrwt>
<pdfrwt beam="1">  1        4 0.14897561E-01 0.12499811E+03</pdfrwt>
<pdfrwt beam="2">  1       -4 0.62059035E-02 0.12499811E+03</pdfrwt>
<totfact> 0.10192914E+04</totfact>
</mgrwt>
</event>
<event>
 5    1  0.3212987E-002  0.1250047E+03  0.7818608E-02  0.1235062E+00
          4   -1    0    0  501    0  0.00000000000E+00  0.00000000000E+00  0.16839273476E+03  0.16839752380E+03  0.12700000000E+01 0.  1.
         -4   -1    0    0    0  501 -0.00000000000E+00 -0.00000000000E+00 -0.23176504136E+02  0.23211274071E+02  0.12700000000E+01 0.  1.
         25    2    1    2    0    0  0.00000000000E+00  0.00000000000E+00  0.14521623062E+03  0.19160879787E+03  0.12500471104E+03 0.  0.
    9000005    1    3    3    0    0 -0.14945988695E+02 -0.33140656371E+02  0.15052354159E+03  0.15485484253E+03  0.10000000000E+01 0.  0.
    9000005    1    3    3    0    0  0.14945988695E+02  0.33140656371E+02 -0.53073109685E+01  0.36753955331E+02  0.10000000000E+01 0.  0.
<mgrwt>
<rscale>  0 0.12500471E+03</rscale>
<asrwt>0</asrwt>
<pdfrwt beam="1">  1        4 0.25909617E-01 0.12500471E+03</pdfrwt>
<pdfrwt beam="2">  1       -4 0.35686591E-02 0.12500471E+03</pdfrwt>
<totfact> 0.91558480E+03</totfact>
</mgrwt>
</event>
<event>
 5    1  0.3212987E-002  0.1249993E+03  0.7818608E-02  0.1235070E+00
         -4   -1    0    0    0  501 -0.00000000000E+00  0.00000000000E+00  0.46749165843E+01  0.48443518731E+01  0.12700000000E+01 0.  1.
          4   -1    0    0  501    0  0.00000000000E+00 -0.00000000000E+00 -0.82052452913E+03  0.82052551197E+03  0.12700000000E+01 0.  1.
         25    2    1    2    0    0  0.00000000000E+00  0.00000000000E+00 -0.81584961254E+03  0.82536986384E+03  0.12499928744E+03 0.  0.
    9000005    1    3    3    0    0  0.48579790928E+02 -0.39269056852E+02 -0.39620462265E+03  0.40109993508E+03  0.10000000000E+01 0.  0.
    9000005    1    3    3    0    0 -0.48579790928E+02  0.39269056852E+02 -0.41964498989E+03  0.42426992877E+03  0.10000000000E+01 0.  0.
<mgrwt>
<rscale>  0 0.12499929E+03</rscale>
<asrwt>0</asrwt>
<pdfrwt beam="2">  1        4 0.12624754E+00 0.12499929E+03</pdfrwt>
<pdfrwt beam="1">  1       -4 0.73232768E-03 0.12499929E+03</pdfrwt>
<totfact> 0.37157537E+03</totfact>
</mgrwt>
</event>
<event>
 5    1  0.3212987E-002  0.1250010E+03  0.7818608E-02  0.1235068E+00
         -4   -1    0    0    0  501 -0.00000000000E+00  0.00000000000E+00  0.53432787102E+02  0.53447877765E+02  0.12700000000E+01 0.  1.
          4   -1    0    0  501    0  0.00000000000E+00 -0.00000000000E+00 -0.73076154468E+02  0.73087189382E+02  0.12700000000E+01 0.  1.
         25    2    1    2    0    0  0.00000000000E+00  0.00000000000E+00 -0.19643367365E+02  0.12653506715E+03  0.12500104534E+03 0.  0.
    9000005    1    3    3    0    0 -0.13640998706E+02  0.40152433926E+02  0.36643925945E+02  0.56054189001E+02  0.10000000000E+01 0.  0.
    9000005    1    3    3    0    0  0.13640998706E+02 -0.40152433926E+02 -0.56287293311E+02  0.70480878145E+02  0.10000000000E+01 0.  0.
<mgrwt>
<rscale>  0 0.12500105E+03</rscale>
<asrwt>0</asrwt>
<pdfrwt beam="2">  1        4 0.11244495E-01 0.12500105E+03</pdfrwt>
<pdfrwt beam="1">  1       -4 0.82224384E-02 0.12500105E+03</pdfrwt>
<totfact> 0.10419018E+04</totfact>
</mgrwt>
</event>
<event>
 5    1  0.3212987E-002  0.1249982E+03  0.7818608E-02  0.1235072E+00
          4   -1    0    0  501    0  0.00000000000E+00  0.00000000000E+00  0.83639050631E+01  0.84597758779E+01  0.12700000000E+01 0. -1.
         -4   -1    0    0    0  501 -0.00000000000E+00 -0.00000000000E+00 -0.46426485134E+03  0.46426658838E+03  0.12700000000E+01 0. -1.
         25    2    1    2    0    0  0.00000000000E+00  0.00000000000E+00 -0.45590094627E+03  0.47272636426E+03  0.12499817059E+03 0.  0.
    9000005    1    3    3    0    0 -0.28657447186E+02 -0.43603361783E+02 -0.35800671634E+03  0.36179042467E+03  0.10000000000E+01 0.  0.
    9000005    1    3    3    0    0  0.28657447186E+02  0.43603361783E+02 -0.97894229928E+02  0.11093593958E+03  0.10000000000E+01 0.  0.
<mgrwt>
<rscale>  0 0.12499817E+03</rscale>
<asrwt>0</asrwt>
<pdfrwt beam="1">  1        4 0.12942633E-02 0.12499817E+03</pdfrwt>
<pdfrwt beam="2">  1       -4 0.71432850E-01 0.12499817E+03</pdfrwt>
<totfact> 0.58046698E+03</totfact>
</mgrwt>
</event>
<event>
 5    1  0.3212987E-002  0.1250053E+03  0.7818608E-02  0.1235061E+00
          4   -1    0    0  501    0  0.00000000000E+00  0.00000000000E+00  0.95784604924E+02  0.95793023965E+02  0.12700000000E+01 0.  1.
         -4   -1    0    0    0  501 -0.00000000000E+00 -0.00000000000E+00 -0.40764964298E+02  0.40784742419E+02  0.12700000000E+01 0.  1.
         25    2    1    2    0    0  0.00000000000E+00  0.00000000000E+00  0.55019640626E+02  0.13657776638E+03  0.12500530155E+03 0.  0.
    9000005    1    3    3    0    0 -0.41976580543E+01  0.17683979587E+02 -0.37818884152E+02  0.41971555436E+02  0.10000000000E+01 0.  0.
    9000005    1    3    3    0    0  0.41976580543E+01 -0.17683979587E+02  0.92838524778E+02  0.94606210949E+02  0.10000000000E+01 0.  0.
<mgrwt>
<rscale>  0 0.12500530E+03</rscale>
<asrwt>0</asrwt>
<pdfrwt beam="1">  1        4 0.14738262E-01 0.12500530E+03</pdfrwt>
<pdfrwt beam="2">  1       -4 0.62737020E-02 0.12500530E+03</pdfrwt>
<totfact> 0.10203702E+04</totfact>
</mgrwt>
</event>
<event>
 5    1  0.3212987E-002  0.1249970E+03  0.7818608E-02  0.1235074E+00
          4   -1    0    0  501    0  0.00000000000E+00  0.00000000000E+00  0.27613239399E+03  0.27613531449E+03  0.12700000000E+01 0. -1.
         -4   -1    0    0    0  501 -0.00000000000E+00 -0.00000000000E+00 -0.14114116093E+02  0.14171138736E+02  0.12700000000E+01 0. -1.
         25    2    1    2    0    0  0.00000000000E+00  0.00000000000E+00  0.26201827790E+03  0.29030645323E+03  0.12499703530E+03 0.  0.
    9000005    1    3    3    0    0  0.17299477196E+01 -0.17720806416E+02  0.27012796959E+03  0.27071597599E+03  0.10000000000E+01 0.  0.
    9000005    1    3    3    0    0 -0.17299477196E+01  0.17720806416E+02 -0.81096916957E+01  0.19590477241E+02  0.10000000000E+01 0.  0.
<mgrwt>
<rscale>  0 0.12499704E+03</rscale>
<asrwt>0</asrwt>
<pdfrwt beam="1">  1        4 0.42486516E-01 0.12499704E+03</pdfrwt>
<pdfrwt beam="2">  1       -4 0.21760136E-02 0.12499704E+03</pdfrwt>
<totfact> 0.76836153E+03</totfact>
</mgrwt>
</event>
<event>
 5    1  0.3212987E-002  0.1249981E+03  0.7818608E-02  0.1235072E+00
          4   -1    0    0  501    0  0.00000000000E+00  0.00000000000E+00  0.15839697741E+03  0.15840206865E+03  0.12700000000E+01 0. -1.
         -4   -1    0    0    0  501 -0.00000000000E+00 -0.00000000000E+00 -0.24638537188E+02  0.24671246721E+02  0.12700000000E+01 0. -1.
         25    2    1    2    0    0  0.00000000000E+00  0.00000000000E+00  0.13375844022E+03  0.18307331537E+03  0.12499807387E+03 0.  0.
    9000005    1    3    3    0    0  0.48265312690E+02  0.39472338541E+02  0.73010266640E+02  0.96016170272E+02  0.10000000000E+01 0.  0.
    9000005    1    3    3    0    0 -0.48265312690E+02 -0.39472338541E+02  0.60748173580E+02  0.87057145096E+02  0.10000000000E+01 0.  0.
<mgrwt>
<rscale>  0 0.12499807E+03</rscale>
<asrwt>0</asrwt>
<pdfrwt beam="1">  1        4 0.24371672E-01 0.12499807E+03</pdfrwt>
<pdfrwt beam="2">  1       -4 0.37934521E-02 0.12499807E+03</pdfrwt>
<totfact> 0.93070723E+03</totfact>
</mgrwt>
</event>
<event>
 5    1  0.3212987E-002  0.1249959E+03  0.7818608E-02  0.1235076E+00
          4   -1    0    0  501    0  0.00000000000E+00  0.00000000000E+00  0.15904100799E+03  0.15904607862E+03  0.12700000000E+01 0.  1.
         -4   -1    0    0    0  501 -0.00000000000E+00 -0.00000000000E+00 -0.24537792871E+02  0.24570636519E+02  0.12700000000E+01 0.  1.
         25    2    1    2    0    0  0.00000000000E+00  0.00000000000E+00  0.13450321512E+03  0.18361671513E+03  0.12499593273E+03 0.  0.
    9000005    1    3    3    0    0  0.10832015259E+02  0.55087987533E+02  0.26942131683E+02  0.62280794669E+02  0.10000000000E+01 0.  0.
    9000005    1    3    3    0    0 -0.10832015259E+02 -0.55087987533E+02  0.10756108344E+03  0.12133592047E+03  0.10000000000E+01 0.  0.
<mgrwt>
<rscale>  0 0.12499593E+03</rscale>
<asrwt>0</asrwt>
<pdfrwt beam="1">  1        4 0.24470763E-01 0.12499593E+03</pdfrwt>
<pdfrwt beam="2">  1       -4 0.37779617E-02 0.12499593E+03</pdfrwt>
<totfact> 0.92978481E+03</totfact>
</mgrwt>
</event>
<event>
 5    1  0.3212987E-002  0.1249972E+03  0.7818608E-02  0.1235074E+00
         -4   -1    0    0    0  501 -0.00000000000E+00  0.00000000000E+00  0.21203480012E+01  0.24715937462E+01  0.12700000000E+01 0. -1.
          4   -1    0    0  501    0  0.00000000000E+00 -0.00000000000E+00 -0.17009230068E+04  0.17009234810E+04  0.12700000000E+01 0. -1.
         25    2    1    2    0    0  0.00000000000E+00  0.00000000000E+00 -0.16988026588E+04  0.17033950747E+04  0.12499722746E+03 0.  0.
    9000005    1    3    3    0    0 -0.84594110713E+01 -0.14309925659E+02 -0.16703065158E+04  0.16703895331E+04  0.10000000000E+01 0.  0.
    9000005    1    3    3    0    0  0.84594110713E+01  0.14309925659E+02 -0.28496143031E+02  0.33005541590E+02  0.10000000000E+01 0.  0.
<mgrwt>
<rscale>  0 0.12499723E+03</rscale>
<asrwt>0</asrwt>
<pdfrwt beam="2">  1        4 0.26170651E+00 0.12499723E+03</pdfrwt>
<pdfrwt beam="1">  1       -4 0.35326412E-03 0.12499723E+03</pdfrwt>
<totfact> 0.14252325E+03</totfact>
</mgrwt>
</event>
<event>
 5    1  0.3212987E-002  0.1249985E+03  0.7818608E-02  0.1235072E+00
         -4   -1    0    0    0  501 -0.00000000000E+00  0.00000000000E+00  0.46374501299E+03  0.46374675199E+03  0.12700000000E+01 0.  1.
          4   -1    0    0  501    0  0.00000000000E+00 -0.00000000000E+00 -0.83734281993E+01  0.84691912133E+01  0.12700000000E+01 0.  1.
         25    2    1    2    0    0  0.00000000000E+00  0.00000000000E+00  0.45537158479E+03  0.47221594320E+03  0.12499846708E+03 0.  0.
    9000005    1    3    3    0    0 -0.52583552721E+02  0.12933593100E+02  0.34551639122E+03  0.34973544923E+03  0.10000000000E+01 0.  0.
    9000005    1    3    3    0    0  0.52583552721E+02 -0.12933593100E+02  0.10985519358E+03  0.12248049397E+03  0.10000000000E+01 0.  0.
<mgrwt>
<rscale>  0 0.12499847E+03</rscale>
<asrwt>0</asrwt>
<pdfrwt beam="2">  1        4 0.12957198E-02 0.12499847E+03</pdfrwt>
<pdfrwt beam="1">  1       -4 0.71352892E-01 0.12499847E+03</pdfrwt>
<totfact> 0.58088360E+03</totfact>
</mgrwt>
</event>
<event>
 4    1  0.3212987E-002  0.1248152E+03  0.7818608E-02  0.1235358E+00
         -4   -1    0    0    0  501 -0.00000000000E+00  0.00000000000E+00  0.33287179114E+03  0.33287421384E+03  0.12700000000E+01 0.  1.
          4   -1    0    0  501    0  0.00000000000E+00 -0.00000000000E+00 -0.11663392932E+02  0.11732332875E+02  0.12700000000E+01 0.  1.
    9000005    1    1    2    0    0 -0.43815856775E+02  0.93190338557E+01  0.28053922901E+03  0.28409493609E+03  0.10000000000E+01 0.  0.
    9000005    1    1    2    0    0  0.43815856775E+02 -0.93190338557E+01  0.40669169194E+02  0.60511610620E+02  0.10000000000E+01 0.  0.
<mgrwt>
<rscale>  0 0.12481521E+03</rscale>
<asrwt>0</asrwt>
<pdfrwt beam="2">  1        4 0.17998574E-02 0.12481521E+03</pdfrwt>
<pdfrwt beam="1">  1       -4 0.51216540E-01 0.12481521E+03</pdfrwt>
<totfact> 0.70610437E+03</totfact>
</mgrwt>
</event>
<event>
 5    1  0.3212987E-002  0.1250001E+03  0.7818608E-02  0.1235069E+00
          4   -1    0    0  501    0  0.00000000000E+00  0.00000000000E+00  0.18362489409E+02  0.18406355351E+02  0.12700000000E+01 0.  1.
         -4   -1    0    0    0  501 -0.00000000000E+00 -0.00000000000E+00 -0.21243068279E+03  0.21243447905E+03  0.12700000000E+01 0.  1.
         25    2    1    2    0    0  0.00000000000E+00  0.00000000000E+00 -0.19406819338E+03  0.23084083440E+03  0.12500010859E+03 0.  0.
    9000005    1    3    3    0    0 -0.47039470473E+02  0.41050474620E+02 -0.92009260715E+02  0.11119603098E+03  0.10000000000E+01 0.  0.
    9000005    1    3    3    0    0  0.47039470473E+02 -0.41050474620E+02 -0.10205893266E+03  0.11964480342E+03  0.10000000000E+01 0.  0.
<mgrwt>
<rscale>  0 0.12500011E+03</rscale>
<asrwt>0</asrwt>
<pdfrwt beam="1">  1        4 0.28286648E-02 0.12500011E+03</pdfrwt>
<pdfrwt beam="2">  1       -4 0.32685308E-01 0.12500011E+03</pdfrwt>
<totfact> 0.85180447E+03</totfact>
</mgrwt>
</event>
<event>
 5    1  0.3212987E-002  0.1250048E+03  0.7818608E-02  0.1235062E+00
          4   -1    0    0  501    0  0.00000000000E+00  0.00000000000E+00  0.33084772335E+02  0.33109138625E+02  0.12700000000E+01 0. -1.
         -4   -1    0    0    0  501 -0.00000000000E+00 -0.00000000000E+00 -0.11800568826E+03  0.11801252206E+03  0.12700000000E+01 0. -1.
         25    2    1    2    0    0  0.00000000000E+00  0.00000000000E+00 -0.84920915927E+02  0.15112166068E+03  0.12500477737E+03 0.  0.
    9000005    1    3    3    0    0  0.53426935743E+02 -0.28382227283E+02 -0.61404785190E+02  0.86206356683E+02  0.10000000000E+01 0.  0.
    9000005    1    3    3    0    0 -0.53426935743E+02  0.28382227283E+02 -0.23516130737E+02  0.64915303999E+02  0.10000000000E+01 0.  0.
<mgrwt>
<rscale>  0 0.12500478E+03</rscale>
<asrwt>0</asrwt>
<pdfrwt beam="1">  1        4 0.50923650E-02 0.12500478E+03</pdfrwt>
<pdfrwt beam="2">  1       -4 0.18157121E-01 0.12500478E+03</pdfrwt>
<totfact> 0.99069930E+03</totfact>
</mgrwt>
</event>
<event>
 5    1  0.3212987E-002  0.1250026E+03  0.7818608E-02  0.1235065E+00
          4   -1    0    0  501    0  0.00000000000E+00  0.00000000000E+00  0.34629284683E+03  0.34629517563E+03  0.12700000000E+01 0. -1.
         -4   -1    0    0    0  501 -0.00000000000E+00 -0.00000000000E+00 -0.11242548360E+02  0.11314052927E+02  0.12700000000E+01 0. -1.
         25    2    1    2    0    0  0.00000000000E+00  0.00000000000E+00  0.33505029847E+03  0.35760922856E+03  0.12500263135E+03 0.  0.
    9000005    1    3    3    0    0 -0.27921193494E+02 -0.52817842204E+02  0.11507800389E+03  0.12966597272E+03  0.10000000000E+01 0.  0.
    9000005    1    3    3    0    0  0.27921193494E+02  0.52817842204E+02  0.21997229458E+03  0.22794325584E+03  0.10000000000E+01 0.  0.
<mgrwt>
<rscale>  0 0.12500263E+03</rscale>
<asrwt>0</asrwt>
<pdfrwt beam="1">  1        4 0.53281504E-01 0.12500263E+03</pdfrwt>
<pdfrwt beam="2">  1       -4 0.17353023E-02 0.12500263E+03</pdfrwt>
<totfact> 0.68891468E+03</totfact>
</mgrwt>
</event>
<event>
 5    1  0.3212987E-002  0.1250055E+03  0.7818608E-02  0.1235061E+00
         -4   -1    0    0    0  501 -0.00000000000E+00  0.00000000000E+00  0.84587165816E+02  0.84596699231E+02  0.12700000000E+01 0. -1.
          4   -1    0    0  501    0  0.00000000000E+00 -0.00000000000E+00 -0.46163394986E+02  0.46180861151E+02  0.12700000000E+01 0. -1.
         25    2    1    2    0    0  0.00000000000E+00  0.00000000000E+00  0.38423770830E+02  0.13077756038E+03  0.12500553642E+03 0.  0.
    9000005    1    3    3    0    0 -0.42383212741E+02  0.39885611920E+02  0.43031533321E+02  0.72387233823E+02  0.10000000000E+01 0.  0.
    9000005    1    3    3    0    0  0.42383212741E+02 -0.39885611920E+02 -0.46077624910E+01  0.58390326559E+02  0.10000000000E+01 0.  0.
<mgrwt>
<rscale>  0 0.12500554E+03</rscale>
<asrwt>0</asrwt>
<pdfrwt beam="2">  1        4 0.71041376E-02 0.12500554E+03</pdfrwt>
<pdfrwt beam="1">  1       -4 0.13015487E-01 0.12500554E+03</pdfrwt>
<totfact> 0.10326570E+04</totfact>
</mgrwt>
</event>
<event>
 5    1  0.3212987E-002  0.1250044E+03  0.7818608E-02  0.1235062E+00
          4   -1    0    0  501    0  0.00000000000E+00  0.00000000000E+00  0.17096055227E+02  0.17143162029E+02  0.12700000000E+01 0.  1.
         -4   -1    0    0    0  501 -0.00000000000E+00 -0.00000000000E+00 -0.22814130126E+03  0.22814483610E+03  0.12700000000E+01 0.  1.
         25    2    1    2    0    0  0.00000000000E+00  0.00000000000E+00 -0.21104524603E+03  0.24528799813E+03  0.12500442454E+03 0.  0.
    9000005    1    3    3    0    0  0.89608915894E+01 -0.41854941571E+01 -0.22660554145E+03  0.22682347179E+03  0.10000000000E+01 0.  0.
    9000005    1    3    3    0    0 -0.89608915894E+01  0.41854941571E+01  0.15560295419E+02  0.18464526339E+02  0.10000000000E+01 0.  0.
<mgrwt>
<rscale>  0 0.12500442E+03</rscale>
<asrwt>0</asrwt>
<pdfrwt beam="1">  1        4 0.26340580E-02 0.12500442E+03</pdfrwt>
<pdfrwt beam="2">  1       -4 0.35102555E-01 0.12500442E+03</pdfrwt>
<totfact> 0.83007880E+03</totfact>
</mgrwt>
</event>
<event>
 5    1  0.3212987E-002  0.1250028E+03  0.7818608E-02  0.1235065E+00
         -4   -1    0    0    0  501 -0.00000000000E+00  0.00000000000E+00  0.68576831334E+02  0.68588590128E+02  0.12700000000E+01 0.  1.
          4   -1    0    0  501    0  0.00000000000E+00 -0.00000000000E+00 -0.56940447311E+02  0.56954608593E+02  0.12700000000E+01 0.  1.
         25    2    1    2    0    0  0.00000000000E+00  0.00000000000E+00  0.11636384023E+02  0.12554319872E+03  0.12500275722E+03 0.  0.
    9000005    1    3    3    0    0  0.47127830818E+02  0.40265007614E+02 -0.21609065906E+01  0.62032030380E+02  0.10000000000E+01 0.  0.
    9000005    1    3    3    0    0 -0.47127830818E+02 -0.40265007614E+02  0.13797290613E+02  0.63511168341E+02  0.10000000000E+01 0.  0.
<mgrwt>
<rscale>  0 0.12500276E+03</rscale>
<asrwt>0</asrwt>
<pdfrwt beam="2">  1        4 0.87620626E-02 0.12500276E+03</pdfrwt>
<pdfrwt beam="1">  1       -4 0.10552276E-01 0.12500276E+03</pdfrwt>
<totfact> 0.10440351E+04</totfact>
</mgrwt>
</event>
<event>
 5    1  0.3212987E-002  0.1250010E+03  0.7818608E-02  0.1235068E+00
         -4   -1    0    0    0  501 -0.00000000000E+00  0.00000000000E+00  0.10888505199E+02  0.10962319347E+02  0.12700000000E+01 0.  1.
          4   -1    0    0  501    0  0.00000000000E+00 -0.00000000000E+00 -0.35746891653E+03  0.35747117253E+03  0.12700000000E+01 0.  1.
         25    2    1    2    0    0  0.00000000000E+00  0.00000000000E+00 -0.34658041133E+03  0.36843349187E+03  0.12500102565E+03 0.  0.
    9000005    1    3    3    0    0  0.44028675639E+02 -0.28080098646E+02 -0.72115237885E+02  0.89042819776E+02  0.10000000000E+01 0.  0.
    9000005    1    3    3    0    0 -0.44028675639E+02  0.28080098646E+02 -0.27446517345E+03  0.27939067210E+03  0.10000000000E+01 0.  0.
<mgrwt>
<rscale>  0 0.12500103E+03</rscale>
<asrwt>0</asrwt>
<pdfrwt beam="2">  1        4 0.55001061E-01 0.12500103E+03</pdfrwt>
<pdfrwt beam="1">  1       -4 0.16810065E-02 0.12500103E+03</pdfrwt>
<totfact> 0.67741610E+03</totfact>
</mgrwt>
</event>
<event>
 5    1  0.3212987E-002  0.1249990E+03  0.7818608E-02  0.1235071E+00
          4   -1    0    0  501    0  0.00000000000E+00  0.00000000000E+00  0.40223788713E+02  0.40243832800E+02  0.12700000000E+01 0.  1.
         -4   -1    0    0    0  501 -0.00000000000E+00 -0.00000000000E+00 -0.97063031768E+02  0.97071339931E+02  0.12700000000E+01 0.  1.
         25    2    1    2    0    0  0.00000000000E+00  0.00000000000E+00 -0.56839243055E+02  0.13731517273E+03  0.12499902844E+03 0.  0.
    9000005    1    3    3    0    0  0.38713843686E+02  0.43631187351E+02 -0.53050883677E+02  0.78853271724E+02  0.10000000000E+01 0.  0.
    9000005    1    3    3    0    0 -0.38713843686E+02 -0.43631187351E+02 -0.37883593779E+01  0.58461901007E+02  0.10000000000E+01 0.  0.
<mgrwt>
<rscale>  0 0.12499903E+03</rscale>
<asrwt>0</asrwt>
<pdfrwt beam="1">  1        4 0.61904562E-02 0.12499903E+03</pdfrwt>
<pdfrwt beam="2">  1       -4 0.14934955E-01 0.12499903E+03</pdfrwt>
<totfact> 0.10189723E+04</totfact>
</mgrwt>
</event>
<event>
 5    1  0.3212987E-002  0.1249963E+03  0.7818608E-02  0.1235075E+00
          4   -1    0    0  501    0  0.00000000000E+00  0.00000000000E+00  0.39566103707E+03  0.39566307530E+03  0.12700000000E+01 0.  1.
         -4   -1    0    0    0  501 -0.00000000000E+00 -0.00000000000E+00 -0.98292107700E+01  0.99109174329E+01  0.12700000000E+01 0.  1.
         25    2    1    2    0    0  0.00000000000E+00  0.00000000000E+00  0.38583182630E+03  0.40557399273E+03  0.12499626152E+03 0.  0.
    9000005    1    3    3    0    0  0.59449793663E+02 -0.52792250009E+01  0.25299684448E+03  0.25994336210E+03  0.10000000000E+01 0.  0.
    9000005    1    3    3    0    0 -0.59449793663E+02  0.52792250009E+01  0.13283498182E+03  0.14563063063E+03  0.10000000000E+01 0.  0.
<mgrwt>
<rscale>  0 0.12499626E+03</rscale>
<asrwt>0</asrwt>
<pdfrwt beam="1">  1        4 0.60877363E-01 0.12499626E+03</pdfrwt>
<pdfrwt beam="2">  1       -4 0.15186284E-02 0.12499626E+03</pdfrwt>
<totfact> 0.64019541E+03</totfact>
</mgrwt>
</event>
<event>
 5    1  0.3212987E-002  0.1249986E+03  0.7818608E-02  0.1235072E+00
         -4   -1    0    0    0  501 -0.00000000000E+00  0.00000000000E+00  0.18867031130E+01  0.22743237757E+01  0.12700000000E+01 0.  1.
          4   -1    0    0  501    0  0.00000000000E+00 -0.00000000000E+00 -0.18771105762E+04  0.18771110058E+04  0.12700000000E+01 0.  1.
         25    2    1    2    0    0  0.00000000000E+00  0.00000000000E+00 -0.18752238731E+04  0.18793853296E+04  0.12499857165E+03 0.  0.
    9000005    1    3    3    0    0 -0.57407938734E+02  0.91554275885E+01 -0.59289206218E+03  0.59573609147E+03  0.10000000000E+01 0.  0.
    9000005    1    3    3    0    0  0.57407938734E+02 -0.91554275885E+01 -0.12823318109E+04  0.12836492381E+04  0.10000000000E+01 0.  0.
<mgrwt>
<rscale>  0 0.12499857E+03</rscale>
<asrwt>0</asrwt>
<pdfrwt beam="2">  1        4 0.28881474E+00 0.12499857E+03</pdfrwt>
<pdfrwt beam="1">  1       -4 0.32011354E-03 0.12499857E+03</pdfrwt>
<totfact> 0.11519321E+03</totfact>
</mgrwt>
</event>
<event>
 5    1  0.3212987E-002  0.1250080E+03  0.7818608E-02  0.1235057E+00
          4   -1    0    0  501    0  0.00000000000E+00  0.00000000000E+00  0.10777183386E+03  0.10777931654E+03  0.12700000000E+01 0. -1.
         -4   -1    0    0    0  501 -0.00000000000E+00 -0.00000000000E+00 -0.36230336412E+02  0.36252588549E+02  0.12700000000E+01 0. -1.
         25    2    1    2    0    0  0.00000000000E+00  0.00000000000E+00  0.71541497447E+02  0.14403190509E+03  0.12500801505E+03 0.  0.
    9000005    1    3    3    0    0  0.57218012605E+02  0.24914211312E+02  0.31926524538E+02  0.70106503699E+02  0.10000000000E+01 0.  0.
    9000005    1    3    3    0    0 -0.57218012605E+02 -0.24914211312E+02  0.39614972909E+02  0.73925401388E+02  0.10000000000E+01 0.  0.
<mgrwt>
<rscale>  0 0.12500802E+03</rscale>
<asrwt>0</asrwt>
<pdfrwt beam="1">  1        4 0.16582570E-01 0.12500802E+03</pdfrwt>
<pdfrwt beam="2">  1       -4 0.55761852E-02 0.12500802E+03</pdfrwt>
<totfact> 0.10048881E+04</totfact>
</mgrwt>
</event>
<event>
 5    1  0.3212987E-002  0.1250004E+03  0.7818608E-02  0.1235069E+00
         -4   -1    0    0    0  501 -0.00000000000E+00  0.00000000000E+00  0.19111565922E+04  0.19111570142E+04  0.12700000000E+01 0.  1.
          4   -1    0    0  501    0  0.00000000000E+00 -0.00000000000E+00 -0.18461889340E+01  0.22408287708E+01  0.12700000000E+01 0.  1.
         25    2    1    2    0    0  0.00000000000E+00  0.00000000000E+00  0.19093104033E+04  0.19133978430E+04  0.12500035740E+03 0.  0.
    9000005    1    3    3    0    0 -0.27441192565E+02  0.34853466739E+02  0.16284282957E+04  0.16290326876E+04  0.10000000000E+01 0.  0.
    9000005    1    3    3    0    0  0.27441192565E+02 -0.34853466739E+02  0.28088210758E+03  0.28436515530E+03  0.10000000000E+01 0.  0.
<mgrwt>
<rscale>  0 0.12500036E+03</rscale>
<asrwt>0</asrwt>
<pdfrwt beam="2">  1        4 0.31441784E-03 0.12500036E+03</pdfrwt>
<pdfrwt beam="1">  1       -4 0.29405504E+00 0.12500036E+03</pdfrwt>
<totfact> 0.11034099E+03</totfact>
</mgrwt>
</event>
<event>
 5    1  0.3212987E-002  0.1250000E+03  0.7818608E-02  0.1235069E+00
         -4   -1    0    0    0  501 -0.00000000000E+00  0.00000000000E+00  0.37699746183E+02  0.37721131508E+02  0.12700000000E+01 0. -1.
          4   -1    0    0  501    0  0.00000000000E+00 -0.00000000000E+00 -0.10356014070E+03  0.10356792767E+03  0.12700000000E+01 0. -1.
         25    2    1    2    0    0  0.00000000000E+00  0.00000000000E+00 -0.65860394515E+02  0.14128905917E+03  0.12500002671E+03 0.  0.
    9000005    1    3    3    0    0  0.49029820833E+02  0.38705683656E+02 -0.30908741657E+02  0.69702249526E+02  0.10000000000E+01 0.  0.
    9000005    1    3    3    0    0 -0.49029820833E+02 -0.38705683656E+02 -0.34951652858E+02  0.71586809649E+02  0.10000000000E+01 0.  0.
<mgrwt>
<rscale>  0 0.12500003E+03</rscale>
<asrwt>0</asrwt>
<pdfrwt beam="2">  1        4 0.15934573E-01 0.12500003E+03</pdfrwt>
<pdfrwt beam="1">  1       -4 0.58022050E-02 0.12500003E+03</pdfrwt>
<totfact> 0.10106933E+04</totfact>
</mgrwt>
</event>
<event>
 5    1  0.3212987E-002  0.1250082E+03  0.7818608E-02  0.1235056E+00
          4   -1    0    0  501    0  0.00000000000E+00  0.00000000000E+00  0.14245474297E+02  0.14301973218E+02  0.12700000000E+01 0. -1.
         -4   -1    0    0    0  501 -0.00000000000E+00 -0.00000000000E+00 -0.27364527687E+03  0.27364822392E+03  0.12700000000E+01 0. -1.
         25    2    1    2    0    0  0.00000000000E+00  0.00000000000E+00 -0.25939980258E+03  0.28795019714E+03  0.12500823355E+03 0.  0.
    9000005    1    3    3    0    0  0.56807158721E+02 -0.39050821507E+01 -0.18903158584E+03  0.19742401930E+03  0.10000000000E+01 0.  0.
    9000005    1    3    3    0    0 -0.56807158721E+02  0.39050821507E+01 -0.70368216734E+02  0.90526177843E+02  0.10000000000E+01 0.  0.
<mgrwt>
<rscale>  0 0.12500823E+03</rscale>
<asrwt>0</asrwt>
<pdfrwt beam="1">  1        4 0.21961844E-02 0.12500823E+03</pdfrwt>
<pdfrwt beam="2">  1       -4 0.42103842E-01 0.12500823E+03</pdfrwt>
<totfact> 0.77121533E+03</totfact>
</mgrwt>
</event>
<event>
 5    1  0.3212987E-002  0.1249989E+03  0.7818608E-02  0.1235071E+00
          4   -1    0    0  501    0  0.00000000000E+00  0.00000000000E+00  0.37021980907E+02  0.37043757507E+02  0.12700000000E+01 0.  1.
         -4   -1    0    0    0  501 -0.00000000000E+00 -0.00000000000E+00 -0.10545316177E+03  0.10546080896E+03  0.12700000000E+01 0.  1.
         25    2    1    2    0    0  0.00000000000E+00  0.00000000000E+00 -0.68431180858E+02  0.14250456647E+03  0.12499889980E+03 0.  0.
    9000005    1    3    3    0    0 -0.44106299957E+02 -0.70609552168E+01 -0.84039126945E+02  0.95177716101E+02  0.10000000000E+01 0.  0.
    9000005    1    3    3    0    0  0.44106299957E+02  0.70609552168E+01  0.15607946086E+02  0.47326850366E+02  0.10000000000E+01 0.  0.
<mgrwt>
<rscale>  0 0.12499890E+03</rscale>
<asrwt>0</asrwt>
<pdfrwt beam="1">  1        4 0.56979528E-02 0.12499890E+03</pdfrwt>
<pdfrwt beam="2">  1       -4 0.16225827E-01 0.12499890E+03</pdfrwt>
<totfact> 0.10082188E+04</totfact>
</mgrwt>
</event>
<event>
 5    1  0.3212987E-002  0.1250000E+03  0.7818608E-02  0.1235069E+00
         -4   -1    0    0    0  501 -0.00000000000E+00  0.00000000000E+00  0.81936942630E+01  0.82915333730E+01  0.12700000000E+01 0. -1.
          4   -1    0    0  501    0  0.00000000000E+00 -0.00000000000E+00 -0.47381071065E+03  0.47381241270E+03  0.12700000000E+01 0. -1.
         25    2    1    2    0    0  0.00000000000E+00  0.00000000000E+00 -0.46561701639E+03  0.48210394607E+03  0.12500003547E+03 0.  0.
    9000005    1    3    3    0    0  0.82470138291E+01  0.42526778390E+02 -0.40652488379E+03  0.40882761803E+03  0.10000000000E+01 0.  0.
    9000005    1    3    3    0    0 -0.82470138291E+01 -0.42526778390E+02 -0.59092132594E+02  0.73276328046E+02  0.10000000000E+01 0.  0.
<mgrwt>
<rscale>  0 0.12500004E+03</rscale>
<asrwt>0</asrwt>
<pdfrwt beam="2">  1        4 0.72901591E-01 0.12500004E+03</pdfrwt>
<pdfrwt beam="1">  1       -4 0.12682257E-02 0.12500004E+03</pdfrwt>
<totfact> 0.57280080E+03</totfact>
</mgrwt>
</event>
<event>
 5    1  0.3212987E-002  0.1250056E+03  0.7818608E-02  0.1235061E+00
          4   -1    0    0  501    0  0.00000000000E+00  0.00000000000E+00  0.20032194572E+02  0.20072411897E+02  0.12700000000E+01 0. -1.
         -4   -1    0    0    0  501 -0.00000000000E+00 -0.00000000000E+00 -0.19477808486E+03  0.19478222517E+03  0.12700000000E+01 0. -1.
         25    2    1    2    0    0  0.00000000000E+00  0.00000000000E+00 -0.17474589029E+03  0.21485463707E+03  0.12500555546E+03 0.  0.
    9000005    1    3    3    0    0  0.30999257912E+02  0.45765441108E+02 -0.13748794119E+03  0.14818692103E+03  0.10000000000E+01 0.  0.
    9000005    1    3    3    0    0 -0.30999257912E+02 -0.45765441108E+02 -0.37257949097E+02  0.66667716039E+02  0.10000000000E+01 0.  0.
<mgrwt>
<rscale>  0 0.12500556E+03</rscale>
<asrwt>0</asrwt>
<pdfrwt beam="1">  1        4 0.30852883E-02 0.12500556E+03</pdfrwt>
<pdfrwt beam="2">  1       -4 0.29969270E-01 0.12500556E+03</pdfrwt>
<totfact> 0.87678257E+03</totfact>
</mgrwt>
</event>
<event>
 5    1  0.3212987E-002  0.1249914E+03  0.7818608E-02  0.1235083E+00
         -4   -1    0    0    0  501 -0.00000000000E+00  0.00000000000E+00  0.39877413737E+02  0.39897631839E+02  0.12700000000E+01 0. -1.
          4   -1    0    0  501    0  0.00000000000E+00 -0.00000000000E+00 -0.97893739679E+02  0.97901977347E+02  0.12700000000E+01 0. -1.
         25    2    1    2    0    0  0.00000000000E+00  0.00000000000E+00 -0.58016325942E+02  0.13779960919E+03  0.12499135256E+03 0.  0.
    9000005    1    3    3    0    0  0.17146594106E+02  0.67669080291E+01 -0.94833406575E+02  0.96613517358E+02  0.10000000000E+01 0.  0.
    9000005    1    3    3    0    0 -0.17146594106E+02 -0.67669080291E+01  0.36817080632E+02  0.41186091827E+02  0.10000000000E+01 0.  0.
<mgrwt>
<rscale>  0 0.12499135E+03</rscale>
<asrwt>0</asrwt>
<pdfrwt beam="2">  1        4 0.15062764E-01 0.12499135E+03</pdfrwt>
<pdfrwt beam="1">  1       -4 0.61371757E-02 0.12499135E+03</pdfrwt>
<totfact> 0.10181378E+04</totfact>
</mgrwt>
</event>
<event>
 5    1  0.3212987E-002  0.1249988E+03  0.7818608E-02  0.1235071E+00
         -4   -1    0    0    0  501 -0.00000000000E+00  0.00000000000E+00  0.10816811612E+03  0.10817557139E+03  0.12700000000E+01 0.  1.
          4   -1    0    0  501    0  0.00000000000E+00 -0.00000000000E+00 -0.36092207601E+02  0.36114544847E+02  0.12700000000E+01 0.  1.
         25    2    1    2    0    0  0.00000000000E+00  0.00000000000E+00  0.72075908519E+02  0.14429011623E+03  0.12499880421E+03 0.  0.
    9000005    1    3    3    0    0  0.47493475567E+02 -0.40189025338E+02  0.42807034539E+02  0.75526354242E+02  0.10000000000E+01 0.  0.
    9000005    1    3    3    0    0 -0.47493475567E+02  0.40189025338E+02  0.29268873979E+02  0.68763761991E+02  0.10000000000E+01 0.  0.
<mgrwt>
<rscale>  0 0.12499880E+03</rscale>
<asrwt>0</asrwt>
<pdfrwt beam="2">  1        4 0.55549391E-02 0.12499880E+03</pdfrwt>
<pdfrwt beam="1">  1       -4 0.16643540E-01 0.12499880E+03</pdfrwt>
<totfact> 0.10045702E+04</totfact>
</mgrwt>
</event>
<event>
 5    1  0.3212987E-002  0.1249916E+03  0.7818608E-02  0.1235082E+00
          4   -1    0    0  501    0  0.00000000000E+00  0.00000000000E+00  0.61260337578E+01  0.62562920010E+01  0.12700000000E+01 0. -1.
         -4   -1    0    0    0  501 -0.00000000000E+00 -0.00000000000E+00 -0.63072400778E+03  0.63072528639E+03  0.12700000000E+01 0. -1.
         25    2    1    2    0    0  0.00000000000E+00  0.00000000000E+00 -0.62459797403E+03  0.63698157839E+03  0.12499160794E+03 0.  0.
    9000005    1    3    3    0    0  0.51794133683E+02  0.32309027652E+02 -0.38033270275E+03  0.38520185660E+03  0.10000000000E+01 0.  0.
    9000005    1    3    3    0    0 -0.51794133683E+02 -0.32309027652E+02 -0.24426527128E+03  0.25177972179E+03  0.10000000000E+01 0.  0.
<mgrwt>
<rscale>  0 0.12499161E+03</rscale>
<asrwt>0</asrwt>
<pdfrwt beam="1">  1        4 0.95258545E-03 0.12499161E+03</pdfrwt>
<pdfrwt beam="2">  1       -4 0.97044530E-01 0.12499161E+03</pdfrwt>
<totfact> 0.46622022E+03</totfact>
</mgrwt>
</event>
<event>
 5    1  0.3212987E-002  0.1250032E+03  0.7818608E-02  0.1235064E+00
          4   -1    0    0  501    0  0.00000000000E+00  0.00000000000E+00  0.18571196615E+01  0.22498429806E+01  0.12700000000E+01 0.  1.
         -4   -1    0    0    0  501 -0.00000000000E+00 -0.00000000000E+00 -0.19019606575E+04  0.19019610815E+04  0.12700000000E+01 0.  1.
         25    2    1    2    0    0  0.00000000000E+00  0.00000000000E+00 -0.19001035378E+04  0.19042109245E+04  0.12500316173E+03 0.  0.
    9000005    1    3    3    0    0 -0.43884596390E+02 -0.38597786632E+02 -0.61291684372E+03  0.61569773773E+03  0.10000000000E+01 0.  0.
    9000005    1    3    3    0    0  0.43884596390E+02  0.38597786632E+02 -0.12871866941E+04  0.12885131868E+04  0.10000000000E+01 0.  0.
<mgrwt>
<rscale>  0 0.12500316E+03</rscale>
<asrwt>0</asrwt>
<pdfrwt beam="1">  1        4 0.31595434E-03 0.12500316E+03</pdfrwt>
<pdfrwt beam="2">  1       -4 0.29263817E+00 0.12500316E+03</pdfrwt>
<totfact> 0.11163121E+03</totfact>
</mgrwt>
</event>
<event>
 5    1  0.3212987E-002  0.1250032E+03  0.7818608E-02  0.1235064E+00
          4   -1    0    0  501    0  0.00000000000E+00  0.00000000000E+00  0.61547989034E+02  0.61561090424E+02  0.12700000000E+01 0. -1.
         -4   -1    0    0    0  501 -0.00000000000E+00 -0.00000000000E+00 -0.63443788847E+02  0.63456498826E+02  0.12700000000E+01 0. -1.
         25    2    1    2    0    0  0.00000000000E+00  0.00000000000E+00 -0.18957998123E+01  0.12501758925E+03  0.12500321422E+03 0.  0.
    9000005    1    3    3    0    0 -0.20153069141E+02 -0.32814684769E+02 -0.50172470530E+02  0.63255249042E+02  0.10000000000E+01 0.  0.
    9000005    1    3    3    0    0  0.20153069141E+02  0.32814684769E+02  0.48276670717E+02  0.61762340207E+02  0.10000000000E+01 0.  0.
<mgrwt>
<rscale>  0 0.12500321E+03</rscale>
<asrwt>0</asrwt>
<pdfrwt beam="1">  1        4 0.94709069E-02 0.12500321E+03</pdfrwt>
<pdfrwt beam="2">  1       -4 0.97625684E-02 0.12500321E+03</pdfrwt>
<totfact> 0.10451721E+04</totfact>
</mgrwt>
</event>
<event>
 5    1  0.3212987E-002  0.1249963E+03  0.7818608E-02  0.1235075E+00
          4   -1    0    0  501    0  0.00000000000E+00  0.00000000000E+00  0.74040015680E+02  0.74050906962E+02  0.12700000000E+01 0.  1.
         -4   -1    0    0    0  501 -0.00000000000E+00 -0.00000000000E+00 -0.52733055645E+02  0.52748346492E+02  0.12700000000E+01 0.  1.
         25    2    1    2    0    0  0.00000000000E+00  0.00000000000E+00  0.21306960035E+02  0.12679925345E+03  0.12499625647E+03 0.  0.
    9000005    1    3    3    0    0  0.60914086037E+02  0.85169438502E+01 -0.54899121875E+00  0.61517197609E+02  0.10000000000E+01 0.  0.
    9000005    1    3    3    0    0 -0.60914086037E+02 -0.85169438502E+01  0.21855951254E+02  0.65282055846E+02  0.10000000000E+01 0.  0.
<mgrwt>
<rscale>  0 0.12499626E+03</rscale>
<asrwt>0</asrwt>
<pdfrwt beam="1">  1        4 0.11392786E-01 0.12499626E+03</pdfrwt>
<pdfrwt beam="2">  1       -4 0.81147918E-02 0.12499626E+03</pdfrwt>
<totfact> 0.10414390E+04</totfact>
</mgrwt>
</event>
<event>
 5    1  0.3212987E-002  0.1250029E+03  0.7818608E-02  0.1235065E+00
          4   -1    0    0  501    0  0.00000000000E+00  0.00000000000E+00  0.38409691625E+03  0.38409901585E+03  0.12700000000E+01 0.  1.
         -4   -1    0    0    0  501 -0.00000000000E+00 -0.00000000000E+00 -0.10128652693E+02  0.10207962842E+02  0.12700000000E+01 0.  1.
         25    2    1    2    0    0  0.00000000000E+00  0.00000000000E+00  0.37396826356E+03  0.39430697869E+03  0.12500292514E+03 0.  0.
    9000005    1    3    3    0    0  0.51056788600E+02 -0.23064639671E+02  0.99643653688E+02  0.11431811311E+03  0.10000000000E+01 0.  0.
    9000005    1    3    3    0    0 -0.51056788600E+02  0.23064639671E+02  0.27432460987E+03  0.27998886558E+03  0.10000000000E+01 0.  0.
<mgrwt>
<rscale>  0 0.12500293E+03</rscale>
<asrwt>0</asrwt>
<pdfrwt beam="1">  1        4 0.59098091E-01 0.12500293E+03</pdfrwt>
<pdfrwt beam="2">  1       -4 0.15645167E-02 0.12500293E+03</pdfrwt>
<totfact> 0.65106072E+03</totfact>
</mgrwt>
</event>
<event>
 5    1  0.3212987E-002  0.1250026E+03  0.7818608E-02  0.1235065E+00
         -4   -1    0    0    0  501 -0.00000000000E+00  0.00000000000E+00  0.30089756182E+02  0.30116545736E+02  0.12700000000E+01 0. -1.
          4   -1    0    0  501    0  0.00000000000E+00 -0.00000000000E+00 -0.12973769343E+03  0.12974390928E+03  0.12700000000E+01 0. -1.
         25    2    1    2    0    0  0.00000000000E+00  0.00000000000E+00 -0.99647937248E+02  0.15986045502E+03  0.12500261470E+03 0.  0.
    9000005    1    3    3    0    0 -0.72603545886E+01 -0.57033483558E+02 -0.18501569686E+02  0.60405621232E+02  0.10000000000E+01 0.  0.
    9000005    1    3    3    0    0  0.72603545886E+01  0.57033483558E+02 -0.81146367562E+02  0.99454833789E+02  0.10000000000E+01 0.  0.
<mgrwt>
<rscale>  0 0.12500261E+03</rscale>
<asrwt>0</asrwt>
<pdfrwt beam="2">  1        4 0.19962184E-01 0.12500261E+03</pdfrwt>
<pdfrwt beam="1">  1       -4 0.46317322E-02 0.12500261E+03</pdfrwt>
<totfact> 0.97363972E+03</totfact>
</mgrwt>
</event>
<event>
 5    1  0.3212987E-002  0.1249895E+03  0.7818608E-02  0.1235086E+00
          4   -1    0    0  501    0  0.00000000000E+00  0.00000000000E+00  0.72063251726E+02  0.72074441720E+02  0.12700000000E+01 0.  1.
         -4   -1    0    0    0  501 -0.00000000000E+00 -0.00000000000E+00 -0.54173934540E+02  0.54188818806E+02  0.12700000000E+01 0.  1.
         25    2    1    2    0    0  0.00000000000E+00  0.00000000000E+00  0.17889317185E+02  0.12626326053E+03  0.12498953272E+03 0.  0.
    9000005    1    3    3    0    0  0.24958820617E+01  0.93231679346E+01  0.71310700251E+02  0.71967818210E+02  0.10000000000E+01 0.  0.
    9000005    1    3    3    0    0 -0.24958820617E+01 -0.93231679346E+01 -0.53421383066E+02  0.54295442316E+02  0.10000000000E+01 0.  0.
<mgrwt>
<rscale>  0 0.12498953E+03</rscale>
<asrwt>0</asrwt>
<pdfrwt beam="1">  1        4 0.11088660E-01 0.12498953E+03</pdfrwt>
<pdfrwt beam="2">  1       -4 0.83364572E-02 0.12498953E+03</pdfrwt>
<totfact> 0.10427659E+04</totfact>
</mgrwt>
</event>
<event>
 5    1  0.3212987E-002  0.1250002E+03  0.7818608E-02  0.1235069E+00
          4   -1    0    0  501    0  0.00000000000E+00  0.00000000000E+00  0.12353233365E+03  0.12353886172E+03  0.12700000000E+01 0.  1.
         -4   -1    0    0    0  501 -0.00000000000E+00 -0.00000000000E+00 -0.31601242140E+02  0.31626751411E+02  0.12700000000E+01 0.  1.
         25    2    1    2    0    0  0.00000000000E+00  0.00000000000E+00  0.91931091506E+02  0.15516561313E+03  0.12500016766E+03 0.  0.
    9000005    1    3    3    0    0 -0.78845986328E+01  0.55930060724E+02  0.12775016028E+02  0.57918387605E+02  0.10000000000E+01 0.  0.
    9000005    1    3    3    0    0  0.78845986328E+01 -0.55930060724E+02  0.79156075478E+02  0.97247225530E+02  0.10000000000E+01 0.  0.
<mgrwt>
<rscale>  0 0.12500017E+03</rscale>
<asrwt>0</asrwt>
<pdfrwt beam="1">  1        4 0.19007439E-01 0.12500017E+03</pdfrwt>
<pdfrwt beam="2">  1       -4 0.48641939E-02 0.12500017E+03</pdfrwt>
<totfact> 0.98282626E+03</totfact>
</mgrwt>
</event>
<event>
 5    1  0.3212987E-002  0.1249958E+03  0.7818608E-02  0.1235076E+00
          4   -1    0    0  501    0  0.00000000000E+00  0.00000000000E+00  0.78465208636E+01  0.79486344527E+01  0.12700000000E+01 0. -1.
         -4   -1    0    0    0  501 -0.00000000000E+00 -0.00000000000E+00 -0.49447746485E+03  0.49447909576E+03  0.12700000000E+01 0. -1.
         25    2    1    2    0    0  0.00000000000E+00  0.00000000000E+00 -0.48663094399E+03  0.50242773022E+03  0.12499579370E+03 0.  0.
    9000005    1    3    3    0    0 -0.48771878720E+02  0.35532524230E+02 -0.30859222276E+03  0.31443825527E+03  0.10000000000E+01 0.  0.
    9000005    1    3    3    0    0  0.48771878720E+02 -0.35532524230E+02 -0.17803872123E+03  0.18798947494E+03  0.10000000000E+01 0.  0.
<mgrwt>
<rscale>  0 0.12499579E+03</rscale>
<asrwt>0</asrwt>
<pdfrwt beam="1">  1        4 0.12151378E-02 0.12499579E+03</pdfrwt>
<pdfrwt beam="2">  1       -4 0.76081412E-01 0.12499579E+03</pdfrwt>
<totfact> 0.55681655E+03</totfact>
</mgrwt>
</event>
<event>
 5    1  0.3212987E-002  0.1250379E+03  0.7818608E-02  0.1235010E+00
          4   -1    0    0  501    0  0.00000000000E+00  0.00000000000E+00  0.16582242623E+04  0.16582247486E+04  0.12700000000E+01 0. -1.
         -4   -1    0    0    0  501 -0.00000000000E+00 -0.00000000000E+00 -0.21855212670E+01  0.25277268857E+01  0.12700000000E+01 0. -1.
         25    2    1    2    0    0  0.00000000000E+00  0.00000000000E+00  0.16560387410E+04  0.16607524755E+04  0.12503788682E+03 0.  0.
    9000005    1    3    3    0    0  0.23448666155E+02 -0.36318800705E+02  0.14277309028E+04  0.14283856013E+04  0.10000000000E+01 0.  0.
    9000005    1    3    3    0    0 -0.23448666155E+02  0.36318800705E+02  0.22830783818E+03  0.23236687415E+03  0.10000000000E+01 0.  0.
<mgrwt>
<rscale>  0 0.12503789E+03</rscale>
<asrwt>0</asrwt>
<pdfrwt beam="1">  1        4 0.25513808E+00 0.12503789E+03</pdfrwt>
<pdfrwt beam="2">  1       -4 0.36259455E-03 0.12503789E+03</pdfrwt>
<totfact> 0.14960890E+03</totfact>
</mgrwt>
</event>
<event>
 5    1  0.3212987E-002  0.1249920E+03  0.7818608E-02  0.1235082E+00
         -4   -1    0    0    0  501 -0.00000000000E+00  0.00000000000E+00  0.92185186212E+03  0.92185273694E+03  0.12700000000E+01 0. -1.
          4   -1    0    0  501    0  0.00000000000E+00 -0.00000000000E+00 -0.41407821636E+01  0.43311634611E+01  0.12700000000E+01 0. -1.
         25    2    1    2    0    0  0.00000000000E+00  0.00000000000E+00  0.91771107996E+03  0.92618390040E+03  0.12499196405E+03 0.  0.
    9000005    1    3    3    0    0 -0.31681538068E+02  0.47664070581E+02  0.27299073177E+03  0.27892745134E+03  0.10000000000E+01 0.  0.
    9000005    1    3    3    0    0  0.31681538068E+02 -0.47664070581E+02  0.64472034819E+03  0.64725644906E+03  0.10000000000E+01 0.  0.
<mgrwt>
<rscale>  0 0.12499196E+03</rscale>
<asrwt>0</asrwt>
<pdfrwt beam="2">  1        4 0.65175497E-03 0.12499196E+03</pdfrwt>
<pdfrwt beam="1">  1       -4 0.14183817E+00 0.12499196E+03</pdfrwt>
<totfact> 0.33182701E+03</totfact>
</mgrwt>
</event>
<event>
 5    1  0.3212987E-002  0.1249983E+03  0.7818608E-02  0.1235072E+00
         -4   -1    0    0    0  501 -0.00000000000E+00  0.00000000000E+00  0.23712869188E+02  0.23746853794E+02  0.12700000000E+01 0.  1.
          4   -1    0    0  501    0  0.00000000000E+00 -0.00000000000E+00 -0.16457222658E+03  0.16457712678E+03  0.12700000000E+01 0.  1.
         25    2    1    2    0    0  0.00000000000E+00  0.00000000000E+00 -0.14085935739E+03  0.18832398058E+03  0.12499825237E+03 0.  0.
    9000005    1    3    3    0    0 -0.99097408241E+01 -0.44782733636E+02 -0.13437549518E+03  0.14199109092E+03  0.10000000000E+01 0.  0.
    9000005    1    3    3    0    0  0.99097408241E+01  0.44782733636E+02 -0.64838622095E+01  0.46332889660E+02  0.10000000000E+01 0.  0.
<mgrwt>
<rscale>  0 0.12499825E+03</rscale>
<asrwt>0</asrwt>
<pdfrwt beam="2">  1        4 0.25321795E-01 0.12499825E+03</pdfrwt>
<pdfrwt beam="1">  1       -4 0.36511250E-02 0.12499825E+03</pdfrwt>
<totfact> 0.92143365E+03</totfact>
</mgrwt>
</event>
<event>
 5    1  0.3212987E-002  0.1250032E+03  0.7818608E-02  0.1235064E+00
          4   -1    0    0  501    0  0.00000000000E+00  0.00000000000E+00  0.44012260135E+03  0.44012443368E+03  0.12700000000E+01 0.  1.
         -4   -1    0    0    0  501 -0.00000000000E+00 -0.00000000000E+00 -0.88285341180E+01  0.89194122381E+01  0.12700000000E+01 0.  1.
         25    2    1    2    0    0  0.00000000000E+00  0.00000000000E+00  0.43129406723E+03  0.44904384592E+03  0.12500321246E+03 0.  0.
    9000005    1    3    3    0    0 -0.11427302293E+02 -0.58234182476E+02  0.14528574564E+03  0.15694187183E+03  0.10000000000E+01 0.  0.
    9000005    1    3    3    0    0  0.11427302293E+02  0.58234182476E+02  0.28600832159E+03  0.29210197408E+03  0.10000000000E+01 0.  0.
<mgrwt>
<rscale>  0 0.12500321E+03</rscale>
<asrwt>0</asrwt>
<pdfrwt beam="1">  1        4 0.67718292E-01 0.12500321E+03</pdfrwt>
<pdfrwt beam="2">  1       -4 0.13653678E-02 0.12500321E+03</pdfrwt>
<totfact> 0.60042470E+03</totfact>
</mgrwt>
</event>
<event>
 5    1  0.3212987E-002  0.1250029E+03  0.7818608E-02  0.1235065E+00
         -4   -1    0    0    0  501 -0.00000000000E+00  0.00000000000E+00  0.35247888353E+02  0.35270760317E+02  0.12700000000E+01 0. -1.
          4   -1    0    0  501    0  0.00000000000E+00 -0.00000000000E+00 -0.11076497520E+03  0.11077225569E+03  0.12700000000E+01 0. -1.
         25    2    1    2    0    0  0.00000000000E+00  0.00000000000E+00 -0.75517086849E+02  0.14604301601E+03  0.12500292844E+03 0.  0.
    9000005    1    3    3    0    0 -0.35339283399E+02  0.47638830407E+02 -0.14771783821E+02  0.61135331118E+02  0.10000000000E+01 0.  0.
    9000005    1    3    3    0    0  0.35339283399E+02 -0.47638830407E+02 -0.60745303028E+02  0.84907684892E+02  0.10000000000E+01 0.  0.
<mgrwt>
<rscale>  0 0.12500293E+03</rscale>
<asrwt>0</asrwt>
<pdfrwt beam="2">  1        4 0.17043085E-01 0.12500293E+03</pdfrwt>
<pdfrwt beam="1">  1       -4 0.54250715E-02 0.12500293E+03</pdfrwt>
<totfact> 0.10009180E+04</totfact>
</mgrwt>
</event>
<event>
 5    1  0.3212987E-002  0.1250000E+03  0.7818608E-02  0.1235069E+00
         -4   -1    0    0    0  501 -0.00000000000E+00  0.00000000000E+00  0.32135971767E+02  0.32161056907E+02  0.12700000000E+01 0.  1.
          4   -1    0    0  501    0  0.00000000000E+00 -0.00000000000E+00 -0.12147796820E+03  0.12148460667E+03  0.12700000000E+01 0.  1.
         25    2    1    2    0    0  0.00000000000E+00  0.00000000000E+00 -0.89341996429E+02  0.15364566357E+03  0.12499999044E+03 0.  0.
    9000005    1    3    3    0    0  0.46251520655E+02  0.30507836983E+02 -0.80196177581E+02  0.97480039900E+02  0.10000000000E+01 0.  0.
    9000005    1    3    3    0    0 -0.46251520655E+02 -0.30507836983E+02 -0.91458188476E+01  0.56165623674E+02  0.10000000000E+01 0.  0.
<mgrwt>
<rscale>  0 0.12499999E+03</rscale>
<asrwt>0</asrwt>
<pdfrwt beam="2">  1        4 0.18691358E-01 0.12499999E+03</pdfrwt>
<pdfrwt beam="1">  1       -4 0.49464360E-02 0.12499999E+03</pdfrwt>
<totfact> 0.98581912E+03</totfact>
</mgrwt>
</event>
<event>
 5    1  0.3212987E-002  0.1250002E+03  0.7818608E-02  0.1235069E+00
          4   -1    0    0  501    0  0.00000000000E+00  0.00000000000E+00  0.24409054559E+03  0.24409384946E+03  0.12700000000E+01 0.  1.
         -4   -1    0    0    0  501 -0.00000000000E+00 -0.00000000000E+00 -0.15974714758E+02  0.16025118146E+02  0.12700000000E+01 0.  1.
         25    2    1    2    0    0  0.00000000000E+00  0.00000000000E+00  0.22811583083E+03  0.26011896761E+03  0.12500018014E+03 0.  0.
    9000005    1    3    3    0    0  0.46364911886E+02  0.41697342325E+02  0.10550629273E+03  0.12255999027E+03  0.10000000000E+01 0.  0.
    9000005    1    3    3    0    0 -0.46364911886E+02 -0.41697342325E+02  0.12260953810E+03  0.13755897733E+03  0.10000000000E+01 0.  0.
<mgrwt>
<rscale>  0 0.12500018E+03</rscale>
<asrwt>0</asrwt>
<pdfrwt beam="1">  1        4 0.37556521E-01 0.12500018E+03</pdfrwt>
<pdfrwt beam="2">  1       -4 0.24617799E-02 0.12500018E+03</pdfrwt>
<totfact> 0.80889045E+03</totfact>
</mgrwt>
</event>
<event>
 5    1  0.3212987E-002  0.1249977E+03  0.7818608E-02  0.1235073E+00
         -4   -1    0    0    0  501 -0.00000000000E+00  0.00000000000E+00  0.23892960269E+03  0.23893297792E+03  0.12700000000E+01 0.  1.
          4   -1    0    0  501    0  0.00000000000E+00 -0.00000000000E+00 -0.16320187304E+02  0.16369526983E+02  0.12700000000E+01 0.  1.
         25    2    1    2    0    0  0.00000000000E+00  0.00000000000E+00  0.22260941538E+03  0.25530250491E+03  0.12499766876E+03 0.  0.
    9000005    1    3    3    0    0 -0.63295600286E+01  0.55442644483E+02  0.16875387199E+03  0.17774369038E+03  0.10000000000E+01 0.  0.
    9000005    1    3    3    0    0  0.63295600286E+01 -0.55442644483E+02  0.53855543395E+02  0.77558814533E+02  0.10000000000E+01 0.  0.
<mgrwt>
<rscale>  0 0.12499767E+03</rscale>
<asrwt>0</asrwt>
<pdfrwt beam="2">  1        4 0.25148535E-02 0.12499767E+03</pdfrwt>
<pdfrwt beam="1">  1       -4 0.36762449E-01 0.12499767E+03</pdfrwt>
<totfact> 0.81574079E+03</totfact>
</mgrwt>
</event>
<event>
 5    1  0.3212987E-002  0.1250007E+03  0.7818608E-02  0.1235068E+00
         -4   -1    0    0    0  501 -0.00000000000E+00  0.00000000000E+00  0.24403458554E+02  0.24436482755E+02  0.12700000000E+01 0.  1.
          4   -1    0    0  501    0  0.00000000000E+00 -0.00000000000E+00 -0.15992761555E+03  0.15993265806E+03  0.12700000000E+01 0.  1.
         25    2    1    2    0    0  0.00000000000E+00  0.00000000000E+00 -0.13552415700E+03  0.18436914082E+03  0.12500073183E+03 0.  0.
    9000005    1    3    3    0    0  0.47366135956E+02  0.55904494094E+01 -0.82047809742E+01  0.48405809474E+02  0.10000000000E+01 0.  0.
    9000005    1    3    3    0    0 -0.47366135956E+02 -0.55904494094E+01 -0.12731937602E+03  0.13596333135E+03  0.10000000000E+01 0.  0.
<mgrwt>
<rscale>  0 0.12500073E+03</rscale>
<asrwt>0</asrwt>
<pdfrwt beam="2">  1        4 0.24607176E-01 0.12500073E+03</pdfrwt>
<pdfrwt beam="1">  1       -4 0.37573065E-02 0.12500073E+03</pdfrwt>
<totfact> 0.92834881E+03</totfact>
</mgrwt>
</event>
<event>
 5    1  0.3212987E-002  0.1249975E+03  0.7818608E-02  0.1235073E+00
         -4   -1    0    0    0  501 -0.00000000000E+00  0.00000000000E+00  0.33807460296E+02  0.33831306089E+02  0.12700000000E+01 0. -1.
          4   -1    0    0  501    0  0.00000000000E+00 -0.00000000000E+00 -0.11547124927E+03  0.11547823305E+03  0.12700000000E+01 0. -1.
         25    2    1    2    0    0  0.00000000000E+00  0.00000000000E+00 -0.81663788976E+02  0.14930953914E+03  0.12499745617E+03 0.  0.
    9000005    1    3    3    0    0  0.49655696862E+02 -0.25077869232E+02 -0.68252514934E+01  0.56055078396E+02  0.10000000000E+01 0.  0.
    9000005    1    3    3    0    0 -0.49655696862E+02  0.25077869232E+02 -0.74838537482E+02  0.93254460743E+02  0.10000000000E+01 0.  0.
<mgrwt>
<rscale>  0 0.12499746E+03</rscale>
<asrwt>0</asrwt>
<pdfrwt beam="2">  1        4 0.17767179E-01 0.12499746E+03</pdfrwt>
<pdfrwt beam="1">  1       -4 0.52035193E-02 0.12499746E+03</pdfrwt>
<totfact> 0.99447203E+03</totfact>
</mgrwt>
</event>
<event>
 5    1  0.3212987E-002  0.1249985E+03  0.7818608E-02  0.1235072E+00
         -4   -1    0    0    0  501 -0.00000000000E+00  0.00000000000E+00  0.52762884879E+01  0.54269807635E+01  0.12700000000E+01 0.  1.
          4   -1    0    0  501    0  0.00000000000E+00 -0.00000000000E+00 -0.72974842659E+03  0.72974953169E+03  0.12700000000E+01 0.  1.
         25    2    1    2    0    0  0.00000000000E+00  0.00000000000E+00 -0.72447213810E+03  0.73517651246E+03  0.12499850233E+03 0.  0.
    9000005    1    3    3    0    0  0.49113948481E+02 -0.10630158975E+02 -0.14375057436E+03  0.15228397107E+03  0.10000000000E+01 0.  0.
    9000005    1    3    3    0    0 -0.49113948481E+02  0.10630158975E+02 -0.58072156374E+03  0.58289254139E+03  0.10000000000E+01 0.  0.
<mgrwt>
<rscale>  0 0.12499850E+03</rscale>
<asrwt>0</asrwt>
<pdfrwt beam="2">  1        4 0.11228059E+00 0.12499850E+03</pdfrwt>
<pdfrwt beam="1">  1       -4 0.82341399E-03 0.12499850E+03</pdfrwt>
<totfact> 0.41294756E+03</totfact>
</mgrwt>
</event>
<event>
 5    1  0.3212987E-002  0.1249965E+03  0.7818608E-02  0.1235075E+00
          4   -1    0    0  501    0  0.00000000000E+00  0.00000000000E+00  0.27719341161E+03  0.27719632094E+03  0.12700000000E+01 0. -1.
         -4   -1    0    0    0  501 -0.00000000000E+00 -0.00000000000E+00 -0.14059754854E+02  0.14116997080E+02  0.12700000000E+01 0. -1.
         25    2    1    2    0    0  0.00000000000E+00  0.00000000000E+00  0.26313365676E+03  0.29131331802E+03  0.12499651169E+03 0.  0.
    9000005    1    3    3    0    0 -0.17055639221E+02 -0.57475118143E+02  0.90483409069E+02  0.10854736916E+03  0.10000000000E+01 0.  0.
    9000005    1    3    3    0    0  0.17055639221E+02  0.57475118143E+02  0.17265024769E+03  0.18276594886E+03  0.10000000000E+01 0.  0.
<mgrwt>
<rscale>  0 0.12499651E+03</rscale>
<asrwt>0</asrwt>
<pdfrwt beam="1">  1        4 0.42649770E-01 0.12499651E+03</pdfrwt>
<pdfrwt beam="2">  1       -4 0.21676661E-02 0.12499651E+03</pdfrwt>
<totfact> 0.76707501E+03</totfact>
</mgrwt>
</event>
<event>
 5    1  0.3212987E-002  0.1250017E+03  0.7818608E-02  0.1235067E+00
          4   -1    0    0  501    0  0.00000000000E+00  0.00000000000E+00  0.35897488503E+03  0.35897713155E+03  0.12700000000E+01 0. -1.
         -4   -1    0    0    0  501 -0.00000000000E+00 -0.00000000000E+00 -0.10842640226E+02  0.10916764497E+02  0.12700000000E+01 0. -1.
         25    2    1    2    0    0  0.00000000000E+00  0.00000000000E+00  0.34813224480E+03  0.36989389605E+03  0.12500173786E+03 0.  0.
    9000005    1    3    3    0    0  0.73082639362E+01  0.61541515120E+02  0.15028440997E+03  0.16256436474E+03  0.10000000000E+01 0.  0.
    9000005    1    3    3    0    0 -0.73082639362E+01 -0.61541515120E+02  0.19784783483E+03  0.20732953131E+03  0.10000000000E+01 0.  0.
<mgrwt>
<rscale>  0 0.12500174E+03</rscale>
<asrwt>0</asrwt>
<pdfrwt beam="1">  1        4 0.55232778E-01 0.12500174E+03</pdfrwt>
<pdfrwt beam="2">  1       -4 0.16739732E-02 0.12500174E+03</pdfrwt>
<totfact> 0.67587442E+03</totfact>
</mgrwt>
</event>
<event>
 5    1  0.3212987E-002  0.1249903E+03  0.7818608E-02  0.1235084E+00
          4   -1    0    0  501    0  0.00000000000E+00  0.00000000000E+00  0.57330108065E+03  0.57330248733E+03  0.12700000000E+01 0. -1.
         -4   -1    0    0    0  501 -0.00000000000E+00 -0.00000000000E+00 -0.67519362431E+01  0.68703379124E+01  0.12700000000E+01 0. -1.
         25    2    1    2    0    0  0.00000000000E+00  0.00000000000E+00  0.56654914441E+03  0.58017282524E+03  0.12499029609E+03 0.  0.
    9000005    1    3    3    0    0 -0.12510852732E+02  0.14204756727E+02  0.68531489382E+01  0.20155947017E+02  0.10000000000E+01 0.  0.
    9000005    1    3    3    0    0  0.12510852732E+02 -0.14204756727E+02  0.55969599547E+03  0.56001687822E+03  0.10000000000E+01 0.  0.
<mgrwt>
<rscale>  0 0.12499030E+03</rscale>
<asrwt>0</asrwt>
<pdfrwt beam="1">  1        4 0.88209415E-01 0.12499030E+03</pdfrwt>
<pdfrwt beam="2">  1       -4 0.10479751E-02 0.12499030E+03</pdfrwt>
<totfact> 0.50154225E+03</totfact>
</mgrwt>
</event>
<event>
 5    1  0.3212987E-002  0.1250015E+03  0.7818608E-02  0.1235067E+00
         -4   -1    0    0    0  501 -0.00000000000E+00  0.00000000000E+00  0.15949445416E+01  0.20388104598E+01  0.12700000000E+01 0. -1.
          4   -1    0    0  501    0  0.00000000000E+00 -0.00000000000E+00 -0.21495876836E+04  0.21495880587E+04  0.12700000000E+01 0. -1.
         25    2    1    2    0    0  0.00000000000E+00  0.00000000000E+00 -0.21479927390E+04  0.21516268692E+04  0.12500150928E+03 0.  0.
    9000005    1    3    3    0    0  0.89227962734E+01  0.48135321334E+02 -0.17425801929E+04  0.17432680098E+04  0.10000000000E+01 0.  0.
    9000005    1    3    3    0    0 -0.89227962734E+01 -0.48135321334E+02 -0.40541254616E+03  0.40835885938E+03  0.10000000000E+01 0.  0.
<mgrwt>
<rscale>  0 0.12500151E+03</rscale>
<asrwt>0</asrwt>
<pdfrwt beam="2">  1        4 0.33073794E+00 0.12500151E+03</pdfrwt>
<pdfrwt beam="1">  1       -4 0.27955019E-03 0.12500151E+03</pdfrwt>
<totfact> 0.80095847E+02</totfact>
</mgrwt>
</event>
<event>
 5    1  0.3212987E-002  0.1250024E+03  0.7818608E-02  0.1235066E+00
          4   -1    0    0  501    0  0.00000000000E+00  0.00000000000E+00  0.45907554247E+03  0.45907729915E+03  0.12700000000E+01 0. -1.
         -4   -1    0    0    0  501 -0.00000000000E+00 -0.00000000000E+00 -0.84601063614E+01  0.85548991605E+01  0.12700000000E+01 0. -1.
         25    2    1    2    0    0  0.00000000000E+00  0.00000000000E+00  0.45061543611E+03  0.46763219831E+03  0.12500240652E+03 0.  0.
    9000005    1    3    3    0    0  0.33265246902E+02  0.52223292062E+02  0.25695201682E+03  0.26430888716E+03  0.10000000000E+01 0.  0.
    9000005    1    3    3    0    0 -0.33265246902E+02 -0.52223292062E+02  0.19366341929E+03  0.20332331115E+03  0.10000000000E+01 0.  0.
<mgrwt>
<rscale>  0 0.12500241E+03</rscale>
<asrwt>0</asrwt>
<pdfrwt beam="1">  1        4 0.70634431E-01 0.12500241E+03</pdfrwt>
<pdfrwt beam="2">  1       -4 0.13089817E-02 0.12500241E+03</pdfrwt>
<totfact> 0.58463084E+03</totfact>
</mgrwt>
</event>
<event>
 5    1  0.3212987E-002  0.1250058E+03  0.7818608E-02  0.1235060E+00
          4   -1    0    0  501    0  0.00000000000E+00  0.00000000000E+00  0.51195911457E+01  0.52747619377E+01  0.12700000000E+01 0. -1.
         -4   -1    0    0    0  501 -0.00000000000E+00 -0.00000000000E+00 -0.75152377739E+03  0.75152485047E+03  0.12700000000E+01 0. -1.
         25    2    1    2    0    0  0.00000000000E+00  0.00000000000E+00 -0.74640418624E+03  0.75679961241E+03  0.12500577629E+03 0.  0.
    9000005    1    3    3    0    0 -0.24231587795E+02  0.56977146801E+02 -0.32181482611E+03  0.32771839650E+03  0.10000000000E+01 0.  0.
    9000005    1    3    3    0    0  0.24231587795E+02 -0.56977146801E+02 -0.42458936013E+03  0.42908121591E+03  0.10000000000E+01 0.  0.
<mgrwt>
<rscale>  0 0.12500578E+03</rscale>
<asrwt>0</asrwt>
<pdfrwt beam="1">  1        4 0.79964876E-03 0.12500578E+03</pdfrwt>
<pdfrwt beam="2">  1       -4 0.11563098E+00 0.12500578E+03</pdfrwt>
<totfact> 0.40245948E+03</totfact>
</mgrwt>
</event>
<event>
 5    1  0.3212987E-002  0.1249902E+03  0.7818608E-02  0.1235085E+00
          4   -1    0    0  501    0  0.00000000000E+00  0.00000000000E+00  0.34153441021E+02  0.34177045419E+02  0.12700000000E+01 0. -1.
         -4   -1    0    0    0  501 -0.00000000000E+00 -0.00000000000E+00 -0.11428894281E+03  0.11429599883E+03  0.12700000000E+01 0. -1.
         25    2    1    2    0    0  0.00000000000E+00  0.00000000000E+00 -0.80135501792E+02  0.14847304425E+03  0.12499018450E+03 0.  0.
    9000005    1    3    3    0    0 -0.55954479494E+02 -0.16994290769E+02 -0.13909432306E+02  0.60118067178E+02  0.10000000000E+01 0.  0.
    9000005    1    3    3    0    0  0.55954479494E+02  0.16994290769E+02 -0.66226069486E+02  0.88354977074E+02  0.10000000000E+01 0.  0.
<mgrwt>
<rscale>  0 0.12499018E+03</rscale>
<asrwt>0</asrwt>
<pdfrwt beam="1">  1        4 0.52567341E-02 0.12499018E+03</pdfrwt>
<pdfrwt beam="2">  1       -4 0.17585273E-01 0.12499018E+03</pdfrwt>
<totfact> 0.99630959E+03</totfact>
</mgrwt>
</event>
<event>
 5    1  0.3212987E-002  0.1250003E+03  0.7818608E-02  0.1235069E+00
          4   -1    0    0  501    0  0.00000000000E+00  0.00000000000E+00  0.43207906728E+03  0.43208093372E+03  0.12700000000E+01 0.  1.
         -4   -1    0    0    0  501 -0.00000000000E+00 -0.00000000000E+00 -0.89941382290E+01  0.90833596473E+01  0.12700000000E+01 0.  1.
         25    2    1    2    0    0  0.00000000000E+00  0.00000000000E+00  0.42308492905E+03  0.44116429337E+03  0.12500030620E+03 0.  0.
    9000005    1    3    3    0    0 -0.59517788994E+01  0.62165316967E+02  0.20340297064E+03  0.21277621758E+03  0.10000000000E+01 0.  0.
    9000005    1    3    3    0    0  0.59517788994E+01 -0.62165316967E+02  0.21968195841E+03  0.22838807578E+03  0.10000000000E+01 0.  0.
<mgrwt>
<rscale>  0 0.12500031E+03</rscale>
<asrwt>0</asrwt>
<pdfrwt beam="1">  1        4 0.66480713E-01 0.12500031E+03</pdfrwt>
<pdfrwt beam="2">  1       -4 0.13907203E-02 0.12500031E+03</pdfrwt>
<totfact> 0.60736477E+03</totfact>
</mgrwt>
</event>
<event>
 5    1  0.3212987E-002  0.1250081E+03  0.7818608E-02  0.1235057E+00
          4   -1    0    0  501    0  0.00000000000E+00  0.00000000000E+00  0.20635303969E+03  0.20635694776E+03  0.12700000000E+01 0. -1.
         -4   -1    0    0    0  501 -0.00000000000E+00 -0.00000000000E+00 -0.18906986881E+02  0.18949592421E+02  0.12700000000E+01 0. -1.
         25    2    1    2    0    0  0.00000000000E+00  0.00000000000E+00  0.18744605281E+03  0.22530654018E+03  0.12500805708E+03 0.  0.
    9000005    1    3    3    0    0 -0.54544151068E+01  0.59948127657E+02  0.63444587485E+02  0.87462816870E+02  0.10000000000E+01 0.  0.
    9000005    1    3    3    0    0  0.54544151068E+01 -0.59948127657E+02  0.12400146532E+03  0.13784372331E+03  0.10000000000E+01 0.  0.
<mgrwt>
<rscale>  0 0.12500806E+03</rscale>
<asrwt>0</asrwt>
<pdfrwt beam="1">  1        4 0.31750200E-01 0.12500806E+03</pdfrwt>
<pdfrwt beam="2">  1       -4 0.29123451E-02 0.12500806E+03</pdfrwt>
<totfact> 0.86020059E+03</totfact>
</mgrwt>
</event>
<event>
 5    1  0.3212987E-002  0.1249992E+03  0.7818608E-02  0.1235071E+00
          4   -1    0    0  501    0  0.00000000000E+00  0.00000000000E+00  0.12774522001E+02  0.12837496343E+02  0.12700000000E+01 0. -1.
         -4   -1    0    0    0  501 -0.00000000000E+00 -0.00000000000E+00 -0.30496432063E+03  0.30496696503E+03  0.12700000000E+01 0. -1.
         25    2    1    2    0    0  0.00000000000E+00  0.00000000000E+00 -0.29218979863E+03  0.31780446137E+03  0.12499918897E+03 0.  0.
    9000005    1    3    3    0    0 -0.52681163443E+02  0.25015833286E+02 -0.89011190385E+02  0.10641940101E+03  0.10000000000E+01 0.  0.
    9000005    1    3    3    0    0  0.52681163443E+02 -0.25015833286E+02 -0.20317860824E+03  0.21138506036E+03  0.10000000000E+01 0.  0.
<mgrwt>
<rscale>  0 0.12499919E+03</rscale>
<asrwt>0</asrwt>
<pdfrwt beam="1">  1        4 0.19703589E-02 0.12499919E+03</pdfrwt>
<pdfrwt beam="2">  1       -4 0.46922630E-01 0.12499919E+03</pdfrwt>
<totfact> 0.73419341E+03</totfact>
</mgrwt>
</event>
<event>
 5    1  0.3212987E-002  0.1249986E+03  0.7818608E-02  0.1235071E+00
          4   -1    0    0  501    0  0.00000000000E+00  0.00000000000E+00  0.24722815337E+03  0.24723141531E+03  0.12700000000E+01 0. -1.
         -4   -1    0    0    0  501 -0.00000000000E+00 -0.00000000000E+00 -0.15770947693E+02  0.15822000226E+02  0.12700000000E+01 0. -1.
         25    2    1    2    0    0  0.00000000000E+00  0.00000000000E+00  0.23145720567E+03  0.26305341554E+03  0.12499864546E+03 0.  0.
    9000005    1    3    3    0    0 -0.60846409588E+02 -0.13777944357E+02  0.12333031003E+03  0.13821534894E+03  0.10000000000E+01 0.  0.
    9000005    1    3    3    0    0  0.60846409588E+02  0.13777944357E+02  0.10812689564E+03  0.12483806660E+03  0.10000000000E+01 0.  0.
<mgrwt>
<rscale>  0 0.12499865E+03</rscale>
<asrwt>0</asrwt>
<pdfrwt beam="1">  1        4 0.38039280E-01 0.12499865E+03</pdfrwt>
<pdfrwt beam="2">  1       -4 0.24304776E-02 0.12499865E+03</pdfrwt>
<totfact> 0.80481881E+03</totfact>
</mgrwt>
</event>
<event>
 5    1  0.3212987E-002  0.1250011E+03  0.7818608E-02  0.1235068E+00
         -4   -1    0    0    0  501 -0.00000000000E+00  0.00000000000E+00  0.47664800681E+01  0.49327712535E+01  0.12700000000E+01 0. -1.
          4   -1    0    0  501    0  0.00000000000E+00 -0.00000000000E+00 -0.80532154826E+03  0.80532254966E+03  0.12700000000E+01 0. -1.
         25    2    1    2    0    0  0.00000000000E+00  0.00000000000E+00 -0.80055506820E+03  0.81025532092E+03  0.12500107144E+03 0.  0.
    9000005    1    3    3    0    0  0.56640624740E+01 -0.61928187040E+02 -0.44030610618E+03  0.44467701660E+03  0.10000000000E+01 0.  0.
    9000005    1    3    3    0    0 -0.56640624740E+01  0.61928187040E+02 -0.36024896202E+03  0.36557830432E+03  0.10000000000E+01 0.  0.
<mgrwt>
<rscale>  0 0.12500107E+03</rscale>
<asrwt>0</asrwt>
<pdfrwt beam="2">  1        4 0.12390839E+00 0.12500107E+03</pdfrwt>
<pdfrwt beam="1">  1       -4 0.74617392E-03 0.12500107E+03</pdfrwt>
<totfact> 0.37810127E+03</totfact>
</mgrwt>
</event>
<event>
 5    1  0.3212987E-002  0.1249956E+03  0.7818608E-02  0.1235076E+00
         -4   -1    0    0    0  501 -0.00000000000E+00  0.00000000000E+00  0.41055912944E+03  0.41056109370E+03  0.12700000000E+01 0. -1.
          4   -1    0    0  501    0  0.00000000000E+00 -0.00000000000E+00 -0.94694219718E+01  0.95542060099E+01  0.12700000000E+01 0. -1.
         25    2    1    2    0    0  0.00000000000E+00  0.00000000000E+00  0.40108970746E+03  0.42011529971E+03  0.12499564640E+03 0.  0.
    9000005    1    3    3    0    0 -0.74015949216E+01 -0.55690948239E+02  0.29251167520E+03  0.29785960695E+03  0.10000000000E+01 0.  0.
    9000005    1    3    3    0    0  0.74015949216E+01  0.55690948239E+02  0.10857803226E+03  0.12225569276E+03  0.10000000000E+01 0.  0.
<mgrwt>
<rscale>  0 0.12499565E+03</rscale>
<asrwt>0</asrwt>
<pdfrwt beam="2">  1        4 0.14635071E-02 0.12499565E+03</pdfrwt>
<pdfrwt beam="1">  1       -4 0.63169614E-01 0.12499565E+03</pdfrwt>
<totfact> 0.62648330E+03</totfact>
</mgrwt>
</event>
<event>
 5    1  0.3212987E-002  0.1249980E+03  0.7818608E-02  0.1235072E+00
          4   -1    0    0  501    0  0.00000000000E+00  0.00000000000E+00  0.71511175078E+02  0.71522451447E+02  0.12700000000E+01 0.  1.
         -4   -1    0    0    0  501 -0.00000000000E+00 -0.00000000000E+00 -0.54599650165E+02  0.54614418409E+02  0.12700000000E+01 0.  1.
         25    2    1    2    0    0  0.00000000000E+00  0.00000000000E+00  0.16911524913E+02  0.12613686986E+03  0.12499804103E+03 0.  0.
    9000005    1    3    3    0    0 -0.15214768260E+02  0.40038664842E+02  0.54373559516E+02  0.69224763127E+02  0.10000000000E+01 0.  0.
    9000005    1    3    3    0    0  0.15214768260E+02 -0.40038664842E+02 -0.37462034603E+02  0.56912106728E+02  0.10000000000E+01 0.  0.
<mgrwt>
<rscale>  0 0.12499804E+03</rscale>
<asrwt>0</asrwt>
<pdfrwt beam="1">  1        4 0.11003723E-01 0.12499804E+03</pdfrwt>
<pdfrwt beam="2">  1       -4 0.84019495E-02 0.12499804E+03</pdfrwt>
<totfact> 0.10428421E+04</totfact>
</mgrwt>
</event>
<event>
 5    1  0.3212987E-002  0.1249940E+03  0.7818608E-02  0.1235079E+00
          4   -1    0    0  501    0  0.00000000000E+00  0.00000000000E+00  0.48301404210E+02  0.48318097527E+02  0.12700000000E+01 0. -1.
         -4   -1    0    0    0  501 -0.00000000000E+00 -0.00000000000E+00 -0.80829025549E+02  0.80839002166E+02  0.12700000000E+01 0. -1.
         25    2    1    2    0    0  0.00000000000E+00  0.00000000000E+00 -0.32527621339E+02  0.12915709969E+03  0.12499404086E+03 0.  0.
    9000005    1    3    3    0    0  0.23083020423E+02 -0.23670191328E+02  0.38528442972E+02  0.50779372852E+02  0.10000000000E+01 0.  0.
    9000005    1    3    3    0    0 -0.23083020423E+02  0.23670191328E+02 -0.71056064311E+02  0.78377726841E+02  0.10000000000E+01 0.  0.
<mgrwt>
<rscale>  0 0.12499404E+03</rscale>
<asrwt>0</asrwt>
<pdfrwt beam="1">  1        4 0.74330368E-02 0.12499404E+03</pdfrwt>
<pdfrwt beam="2">  1       -4 0.12437286E-01 0.12499404E+03</pdfrwt>
<totfact> 0.10363966E+04</totfact>
</mgrwt>
</event>
<event>
 5    1  0.3212987E-002  0.1249971E+03  0.7818608E-02  0.1235074E+00
          4   -1    0    0  501    0  0.00000000000E+00  0.00000000000E+00  0.25291546224E+03  0.25291865084E+03  0.12700000000E+01 0.  1.
         -4   -1    0    0    0  501 -0.00000000000E+00 -0.00000000000E+00 -0.15414764534E+02  0.15466992779E+02  0.12700000000E+01 0.  1.
         25    2    1    2    0    0  0.00000000000E+00  0.00000000000E+00  0.23750069771E+03  0.26838564361E+03  0.12499708911E+03 0.  0.
    9000005    1    3    3    0    0  0.59026488675E+02  0.26838657986E+01  0.75076407505E+02  0.95544735411E+02  0.10000000000E+01 0.  0.
    9000005    1    3    3    0    0 -0.59026488675E+02 -0.26838657986E+01  0.16242429020E+03  0.17284090820E+03  0.10000000000E+01 0.  0.
<mgrwt>
<rscale>  0 0.12499709E+03</rscale>
<asrwt>0</asrwt>
<pdfrwt beam="1">  1        4 0.38914337E-01 0.12499709E+03</pdfrwt>
<pdfrwt beam="2">  1       -4 0.23757649E-02 0.12499709E+03</pdfrwt>
<totfact> 0.79748630E+03</totfact>
</mgrwt>
</event>
<event>
 5    1  0.3212987E-002  0.1249969E+03  0.7818608E-02  0.1235074E+00
          4   -1    0    0  501    0  0.00000000000E+00  0.00000000000E+00  0.88568250864E+03  0.88568341918E+03  0.12700000000E+01 0.  1.
         -4   -1    0    0    0  501 -0.00000000000E+00 -0.00000000000E+00 -0.43178579630E+01  0.45007552021E+01  0.12700000000E+01 0.  1.
         25    2    1    2    0    0  0.00000000000E+00  0.00000000000E+00  0.88136465068E+03  0.89018417438E+03  0.12499686739E+03 0.  0.
    9000005    1    3    3    0    0 -0.28372231153E+02 -0.33435209830E+02  0.12361622187E+03  0.13116732469E+03  0.10000000000E+01 0.  0.
    9000005    1    3    3    0    0  0.28372231153E+02  0.33435209830E+02  0.75774842881E+03  0.75901684969E+03  0.10000000000E+01 0.  0.
<mgrwt>
<rscale>  0 0.12499687E+03</rscale>
<asrwt>0</asrwt>
<pdfrwt beam="1">  1        4 0.13627305E+00 0.12499687E+03</pdfrwt>
<pdfrwt beam="2">  1       -4 0.67842458E-03 0.12499687E+03</pdfrwt>
<totfact> 0.34539245E+03</totfact>
</mgrwt>
</event>
<event>
 5    1  0.3212987E-002  0.1250057E+03  0.7818608E-02  0.1235060E+00
          4   -1    0    0  501    0  0.00000000000E+00  0.00000000000E+00  0.51187829538E+01  0.52739775244E+01  0.12700000000E+01 0. -1.
         -4   -1    0    0    0  501 -0.00000000000E+00 -0.00000000000E+00 -0.75163794822E+03  0.75163902114E+03  0.12700000000E+01 0. -1.
         25    2    1    2    0    0  0.00000000000E+00  0.00000000000E+00 -0.74651916527E+03  0.75691299867E+03  0.12500569364E+03 0.  0.
    9000005    1    3    3    0    0  0.11183937755E+02  0.46582948644E+02 -0.61625822885E+03  0.61811831893E+03  0.10000000000E+01 0.  0.
    9000005    1    3    3    0    0 -0.11183937755E+02 -0.46582948644E+02 -0.13026093642E+03  0.13879467974E+03  0.10000000000E+01 0.  0.
<mgrwt>
<rscale>  0 0.12500569E+03</rscale>
<asrwt>0</asrwt>
<pdfrwt beam="1">  1        4 0.79952624E-03 0.12500569E+03</pdfrwt>
<pdfrwt beam="2">  1       -4 0.11564854E+00 0.12500569E+03</pdfrwt>
<totfact> 0.40240668E+03</totfact>
</mgrwt>
</event>
<event>
 5    1  0.3212987E-002  0.1250040E+03  0.7818608E-02  0.1235063E+00
          4   -1    0    0  501    0  0.00000000000E+00  0.00000000000E+00  0.28383986917E+02  0.28412384858E+02  0.12700000000E+01 0. -1.
         -4   -1    0    0    0  501 -0.00000000000E+00 -0.00000000000E+00 -0.13753019511E+03  0.13753605879E+03  0.12700000000E+01 0. -1.
         25    2    1    2    0    0  0.00000000000E+00  0.00000000000E+00 -0.10914620819E+03  0.16594844364E+03  0.12500396468E+03 0.  0.
    9000005    1    3    3    0    0  0.17833843553E+02 -0.14243714273E+02 -0.13180577346E+03  0.13377104055E+03  0.10000000000E+01 0.  0.
    9000005    1    3    3    0    0 -0.17833843553E+02  0.14243714273E+02  0.22659565265E+02  0.32177403098E+02  0.10000000000E+01 0.  0.
<mgrwt>
<rscale>  0 0.12500396E+03</rscale>
<asrwt>0</asrwt>
<pdfrwt beam="1">  1        4 0.43694028E-02 0.12500396E+03</pdfrwt>
<pdfrwt beam="2">  1       -4 0.21161127E-01 0.12500396E+03</pdfrwt>
<totfact> 0.96199506E+03</totfact>
</mgrwt>
</event>
<event>
 5    1  0.3212987E-002  0.1250138E+03  0.7818608E-02  0.1235048E+00
          4   -1    0    0  501    0  0.00000000000E+00  0.00000000000E+00  0.60949672918E+03  0.60949805231E+03  0.12700000000E+01 0.  1.
         -4   -1    0    0    0  501 -0.00000000000E+00 -0.00000000000E+00 -0.63461478301E+01  0.64719774630E+01  0.12700000000E+01 0.  1.
         25    2    1    2    0    0  0.00000000000E+00  0.00000000000E+00  0.60315058134E+03  0.61597002978E+03  0.12501381447E+03 0.  0.
    9000005    1    3    3    0    0  0.37937430222E+02  0.49632504554E+02  0.31076600962E+03  0.31698445838E+03  0.10000000000E+01 0.  0.
    9000005    1    3    3    0    0 -0.37937430222E+02 -0.49632504554E+02  0.29238457173E+03  0.29898557140E+03  0.10000000000E+01 0.  0.
<mgrwt>
<rscale>  0 0.12501381E+03</rscale>
<asrwt>0</asrwt>
<pdfrwt beam="1">  1        4 0.93778515E-01 0.12501381E+03</pdfrwt>
<pdfrwt beam="2">  1       -4 0.98611135E-03 0.12501381E+03</pdfrwt>
<totfact> 0.47860311E+03</totfact>
</mgrwt>
</event>
<event>
 5    1  0.3212987E-002  0.1249999E+03  0.7818608E-02  0.1235069E+00
          4   -1    0    0  501    0  0.00000000000E+00  0.00000000000E+00  0.78159807606E+02  0.78170124888E+02  0.12700000000E+01 0. -1.
         -4   -1    0    0    0  501 -0.00000000000E+00 -0.00000000000E+00 -0.49955944146E+02  0.49972084763E+02  0.12700000000E+01 0. -1.
         25    2    1    2    0    0  0.00000000000E+00  0.00000000000E+00  0.28203863459E+02  0.12814220965E+03  0.12499987192E+03 0.  0.
    9000005    1    3    3    0    0  0.15803837922E+02  0.53605486191E+02 -0.14564080859E+02  0.57761768447E+02  0.10000000000E+01 0.  0.
    9000005    1    3    3    0    0 -0.15803837922E+02 -0.53605486191E+02  0.42767944319E+02  0.70380441204E+02  0.10000000000E+01 0.  0.
<mgrwt>
<rscale>  0 0.12499987E+03</rscale>
<asrwt>0</asrwt>
<pdfrwt beam="1">  1        4 0.12026621E-01 0.12499987E+03</pdfrwt>
<pdfrwt beam="2">  1       -4 0.76875651E-02 0.12499987E+03</pdfrwt>
<totfact> 0.10384448E+04</totfact>
</mgrwt>
</event>
<event>
 5    1  0.3212987E-002  0.1249996E+03  0.7818608E-02  0.1235070E+00
         -4   -1    0    0    0  501 -0.00000000000E+00  0.00000000000E+00  0.11090845288E+03  0.11091572395E+03  0.12700000000E+01 0. -1.
          4   -1    0    0  501    0  0.00000000000E+00 -0.00000000000E+00 -0.35200395566E+02  0.35223298369E+02  0.12700000000E+01 0. -1.
         25    2    1    2    0    0  0.00000000000E+00  0.00000000000E+00  0.75708057309E+02  0.14613902232E+03  0.12499961561E+03 0.  0.
    9000005    1    3    3    0    0  0.27767653005E+02  0.24759612641E+02  0.96556506393E+02  0.10348062572E+03  0.10000000000E+01 0.  0.
    9000005    1    3    3    0    0 -0.27767653005E+02 -0.24759612641E+02 -0.20848449084E+02  0.42658396603E+02  0.10000000000E+01 0.  0.
<mgrwt>
<rscale>  0 0.12499962E+03</rscale>
<asrwt>0</asrwt>
<pdfrwt beam="2">  1        4 0.54177665E-02 0.12499962E+03</pdfrwt>
<pdfrwt beam="1">  1       -4 0.17065160E-01 0.12499962E+03</pdfrwt>
<totfact> 0.10007984E+04</totfact>
</mgrwt>
</event>
<event>
 5    1  0.3212987E-002  0.1250036E+03  0.7818608E-02  0.1235064E+00
         -4   -1    0    0    0  501 -0.00000000000E+00  0.00000000000E+00  0.38854420108E+03  0.38854627665E+03  0.12700000000E+01 0. -1.
          4   -1    0    0  501    0  0.00000000000E+00 -0.00000000000E+00 -0.10011919082E+02  0.10092146635E+02  0.12700000000E+01 0. -1.
         25    2    1    2    0    0  0.00000000000E+00  0.00000000000E+00  0.37853228200E+03  0.39863842328E+03  0.12500361594E+03 0.  0.
    9000005    1    3    3    0    0  0.30593400464E+02  0.41877868135E+02  0.78072174742E+02  0.93733539677E+02  0.10000000000E+01 0.  0.
    9000005    1    3    3    0    0 -0.30593400464E+02 -0.41877868135E+02  0.30046010726E+03  0.30490488360E+03  0.10000000000E+01 0.  0.
<mgrwt>
<rscale>  0 0.12500362E+03</rscale>
<asrwt>0</asrwt>
<pdfrwt beam="2">  1        4 0.15466262E-02 0.12500362E+03</pdfrwt>
<pdfrwt beam="1">  1       -4 0.59782365E-01 0.12500362E+03</pdfrwt>
<totfact> 0.64680263E+03</totfact>
</mgrwt>
</event>
<event>
 5    1  0.3212987E-002  0.1249943E+03  0.7818608E-02  0.1235078E+00
          4   -1    0    0  501    0  0.00000000000E+00  0.00000000000E+00  0.14433067345E+03  0.14433626085E+03  0.12700000000E+01 0. -1.
         -4   -1    0    0    0  501 -0.00000000000E+00 -0.00000000000E+00 -0.27041122022E+02  0.27070928691E+02  0.12700000000E+01 0. -1.
         25    2    1    2    0    0  0.00000000000E+00  0.00000000000E+00  0.11728955142E+03  0.17140718955E+03  0.12499434289E+03 0.  0.
    9000005    1    3    3    0    0  0.39222676751E+02 -0.34190254847E+02  0.10609926030E+03  0.11817548364E+03  0.10000000000E+01 0.  0.
    9000005    1    3    3    0    0 -0.39222676751E+02  0.34190254847E+02  0.11190291126E+02  0.53231705905E+02  0.10000000000E+01 0.  0.
<mgrwt>
<rscale>  0 0.12499434E+03</rscale>
<asrwt>0</asrwt>
<pdfrwt beam="1">  1        4 0.22207442E-01 0.12499434E+03</pdfrwt>
<pdfrwt beam="2">  1       -4 0.41628952E-02 0.12499434E+03</pdfrwt>
<totfact> 0.95199090E+03</totfact>
</mgrwt>
</event>
<event>
 5    1  0.3212987E-002  0.1250022E+03  0.7818608E-02  0.1235066E+00
          4   -1    0    0  501    0  0.00000000000E+00  0.00000000000E+00  0.88745057711E+02  0.88754144512E+02  0.12700000000E+01 0.  1.
         -4   -1    0    0    0  501 -0.00000000000E+00 -0.00000000000E+00 -0.43997563407E+02  0.44015889015E+02  0.12700000000E+01 0.  1.
         25    2    1    2    0    0  0.00000000000E+00  0.00000000000E+00  0.44747494303E+02  0.13277003353E+03  0.12500217421E+03 0.  0.
    9000005    1    3    3    0    0 -0.30866713697E+02  0.19599858546E+02  0.76203250645E+02  0.84527178341E+02  0.10000000000E+01 0.  0.
    9000005    1    3    3    0    0  0.30866713697E+02 -0.19599858546E+02 -0.31455756342E+02  0.48242855186E+02  0.10000000000E+01 0.  0.
<mgrwt>
<rscale>  0 0.12500217E+03</rscale>
<asrwt>0</asrwt>
<pdfrwt beam="1">  1        4 0.13655194E-01 0.12500217E+03</pdfrwt>
<pdfrwt beam="2">  1       -4 0.67709646E-02 0.12500217E+03</pdfrwt>
<totfact> 0.10284785E+04</totfact>
</mgrwt>
</event>
<event>
 5    1  0.3212987E-002  0.1249992E+03  0.7818608E-02  0.1235071E+00
          4   -1    0    0  501    0  0.00000000000E+00  0.00000000000E+00  0.15364549525E+02  0.15416947885E+02  0.12700000000E+01 0. -1.
         -4   -1    0    0    0  501 -0.00000000000E+00 -0.00000000000E+00 -0.25374768986E+03  0.25375086800E+03  0.12700000000E+01 0. -1.
         25    2    1    2    0    0  0.00000000000E+00  0.00000000000E+00 -0.23838314034E+03  0.26916781588E+03  0.12499916604E+03 0.  0.
    9000005    1    3    3    0    0  0.20720236950E+02  0.58851965705E+02 -0.11163460934E+03  0.12789123539E+03  0.10000000000E+01 0.  0.
    9000005    1    3    3    0    0 -0.20720236950E+02 -0.58851965705E+02 -0.12674853100E+03  0.14127658050E+03  0.10000000000E+01 0.  0.
<mgrwt>
<rscale>  0 0.12499917E+03</rscale>
<asrwt>0</asrwt>
<pdfrwt beam="1">  1        4 0.23680521E-02 0.12499917E+03</pdfrwt>
<pdfrwt beam="2">  1       -4 0.39042378E-01 0.12499917E+03</pdfrwt>
<totfact> 0.79637937E+03</totfact>
</mgrwt>
</event>
<event>
 5    1  0.3212987E-002  0.1250058E+03  0.7818608E-02  0.1235060E+00
         -4   -1    0    0    0  501 -0.00000000000E+00  0.00000000000E+00  0.20486665820E+02  0.20525992703E+02  0.12700000000E+01 0.  1.
          4   -1    0    0  501    0  0.00000000000E+00 -0.00000000000E+00 -0.19046606773E+03  0.19047030177E+03  0.12700000000E+01 0.  1.
         25    2    1    2    0    0  0.00000000000E+00  0.00000000000E+00 -0.16997940191E+03  0.21099629448E+03  0.12500575670E+03 0.  0.
    9000005    1    3    3    0    0  0.14087181944E+02 -0.57133044602E+02 -0.49464620429E+02  0.76879009845E+02  0.10000000000E+01 0.  0.
    9000005    1    3    3    0    0 -0.14087181944E+02  0.57133044602E+02 -0.12051478148E+03  0.13411728463E+03  0.10000000000E+01 0.  0.
<mgrwt>
<rscale>  0 0.12500576E+03</rscale>
<asrwt>0</asrwt>
<pdfrwt beam="2">  1        4 0.29305822E-01 0.12500576E+03</pdfrwt>
<pdfrwt beam="1">  1       -4 0.31551457E-02 0.12500576E+03</pdfrwt>
<totfact> 0.88302068E+03</totfact>
</mgrwt>
</event>
<event>
 5    1  0.3212987E-002  0.1249903E+03  0.7818608E-02  0.1235085E+00
          4   -1    0    0  501    0  0.00000000000E+00  0.00000000000E+00  0.36612775685E+02  0.36634795527E+02  0.12700000000E+01 0.  1.
         -4   -1    0    0    0  501 -0.00000000000E+00 -0.00000000000E+00 -0.10661640189E+03  0.10662396566E+03  0.12700000000E+01 0.  1.
         25    2    1    2    0    0  0.00000000000E+00  0.00000000000E+00 -0.70003626207E+02  0.14325876118E+03  0.12499025952E+03 0.  0.
    9000005    1    3    3    0    0 -0.58814468760E+02  0.13362469065E+02 -0.16275380786E+02  0.62478679041E+02  0.10000000000E+01 0.  0.
    9000005    1    3    3    0    0  0.58814468760E+02 -0.13362469065E+02 -0.53728245422E+02  0.80780082143E+02  0.10000000000E+01 0.  0.
<mgrwt>
<rscale>  0 0.12499026E+03</rscale>
<asrwt>0</asrwt>
<pdfrwt beam="1">  1        4 0.56350104E-02 0.12499026E+03</pdfrwt>
<pdfrwt beam="2">  1       -4 0.16404799E-01 0.12499026E+03</pdfrwt>
<totfact> 0.10068696E+04</totfact>
</mgrwt>
</event>
<event>
 5    1  0.3212987E-002  0.1250008E+03  0.7818608E-02  0.1235068E+00
          4   -1    0    0  501    0  0.00000000000E+00  0.00000000000E+00  0.88128389138E+02  0.88137539516E+02  0.12700000000E+01 0.  1.
         -4   -1    0    0    0  501 -0.00000000000E+00 -0.00000000000E+00 -0.44304543412E+02  0.44322742096E+02  0.12700000000E+01 0.  1.
         25    2    1    2    0    0  0.00000000000E+00  0.00000000000E+00  0.43823845726E+02  0.13246028161E+03  0.12500078700E+03 0.  0.
    9000005    1    3    3    0    0  0.58371857898E+02  0.86249290299E+01  0.43722610208E+02  0.73446101589E+02  0.10000000000E+01 0.  0.
    9000005    1    3    3    0    0 -0.58371857898E+02 -0.86249290299E+01  0.10123551756E+00  0.59014180024E+02  0.10000000000E+01 0.  0.
<mgrwt>
<rscale>  0 0.12500079E+03</rscale>
<asrwt>0</asrwt>
<pdfrwt beam="1">  1        4 0.13560317E-01 0.12500079E+03</pdfrwt>
<pdfrwt beam="2">  1       -4 0.68181875E-02 0.12500079E+03</pdfrwt>
<totfact> 0.10291701E+04</totfact>
</mgrwt>
</event>
<event>
 5    1  0.3212987E-002  0.1249991E+03  0.7818608E-02  0.1235071E+00
         -4   -1    0    0    0  501 -0.00000000000E+00  0.00000000000E+00  0.20120986556E+02  0.20161026759E+02  0.12700000000E+01 0. -1.
          4   -1    0    0  501    0  0.00000000000E+00 -0.00000000000E+00 -0.19390006416E+03  0.19390422322E+03  0.12700000000E+01 0. -1.
         25    2    1    2    0    0  0.00000000000E+00  0.00000000000E+00 -0.17377907761E+03  0.21406524998E+03  0.12499905373E+03 0.  0.
    9000005    1    3    3    0    0 -0.15776822940E+02  0.43570509424E+02 -0.15087674953E+02  0.48743567463E+02  0.10000000000E+01 0.  0.
    9000005    1    3    3    0    0  0.15776822940E+02 -0.43570509424E+02 -0.15869140266E+03  0.16532168252E+03  0.10000000000E+01 0.  0.
<mgrwt>
<rscale>  0 0.12499905E+03</rscale>
<asrwt>0</asrwt>
<pdfrwt beam="2">  1        4 0.29834178E-01 0.12499905E+03</pdfrwt>
<pdfrwt beam="1">  1       -4 0.30989365E-02 0.12499905E+03</pdfrwt>
<totfact> 0.87818104E+03</totfact>
</mgrwt>
</event>
<event>
 5    1  0.3212987E-002  0.1249988E+03  0.7818608E-02  0.1235071E+00
         -4   -1    0    0    0  501 -0.00000000000E+00  0.00000000000E+00  0.72001184525E+01  0.73112656722E+01  0.12700000000E+01 0.  1.
          4   -1    0    0  501    0  0.00000000000E+00 -0.00000000000E+00 -0.53824801698E+03  0.53824951527E+03  0.12700000000E+01 0.  1.
         25    2    1    2    0    0  0.00000000000E+00  0.00000000000E+00 -0.53104789853E+03  0.54556078094E+03  0.12499878066E+03 0.  0.
    9000005    1    3    3    0    0 -0.16923820666E+02  0.53035637831E+02 -0.14161596717E+03  0.15216858002E+03  0.10000000000E+01 0.  0.
    9000005    1    3    3    0    0  0.16923820666E+02 -0.53035637831E+02 -0.38943193136E+03  0.39339220092E+03  0.10000000000E+01 0.  0.
<mgrwt>
<rscale>  0 0.12499878E+03</rscale>
<asrwt>0</asrwt>
<pdfrwt beam="2">  1        4 0.82816021E-01 0.12499878E+03</pdfrwt>
<pdfrwt beam="1">  1       -4 0.11163760E-02 0.12499878E+03</pdfrwt>
<totfact> 0.52496364E+03</totfact>
</mgrwt>
</event>
<event>
 5    1  0.3212987E-002  0.1250011E+03  0.7818608E-02  0.1235067E+00
         -4   -1    0    0    0  501 -0.00000000000E+00  0.00000000000E+00  0.10184850022E+03  0.10185641805E+03  0.12700000000E+01 0.  1.
          4   -1    0    0  501    0  0.00000000000E+00 -0.00000000000E+00 -0.38334310672E+02  0.38355342192E+02  0.12700000000E+01 0.  1.
         25    2    1    2    0    0  0.00000000000E+00  0.00000000000E+00  0.63514189552E+02  0.14021176024E+03  0.12500114174E+03 0.  0.
    9000005    1    3    3    0    0  0.36604987335E+02  0.50644514581E+02  0.32573233645E+02  0.70475580913E+02  0.10000000000E+01 0.  0.
    9000005    1    3    3    0    0 -0.36604987335E+02 -0.50644514581E+02  0.30940955906E+02  0.69736179328E+02  0.10000000000E+01 0.  0.
<mgrwt>
<rscale>  0 0.12500114E+03</rscale>
<asrwt>0</asrwt>
<pdfrwt beam="2">  1        4 0.58998131E-02 0.12500114E+03</pdfrwt>
<pdfrwt beam="1">  1       -4 0.15671227E-01 0.12500114E+03</pdfrwt>
<totfact> 0.10128938E+04</totfact>
</mgrwt>
</event>
<event>
 5    1  0.3212987E-002  0.1249993E+03  0.7818608E-02  0.1235070E+00
          4   -1    0    0  501    0  0.00000000000E+00  0.00000000000E+00  0.40199994854E+02  0.40220050799E+02  0.12700000000E+01 0.  1.
         -4   -1    0    0    0  501 -0.00000000000E+00 -0.00000000000E+00 -0.97120923512E+02  0.97129226723E+02  0.12700000000E+01 0.  1.
         25    2    1    2    0    0  0.00000000000E+00  0.00000000000E+00 -0.56920928658E+02  0.13734927752E+03  0.12499932767E+03 0.  0.
    9000005    1    3    3    0    0 -0.26978285473E+02 -0.46120509499E+02 -0.64070382878E+02  0.83432267413E+02  0.10000000000E+01 0.  0.
    9000005    1    3    3    0    0  0.26978285473E+02  0.46120509499E+02  0.71494542200E+01  0.53917010110E+02  0.10000000000E+01 0.  0.
<mgrwt>
<rscale>  0 0.12499933E+03</rscale>
<asrwt>0</asrwt>
<pdfrwt beam="1">  1        4 0.61867961E-02 0.12499933E+03</pdfrwt>
<pdfrwt beam="2">  1       -4 0.14943862E-01 0.12499933E+03</pdfrwt>
<totfact> 0.10188942E+04</totfact>
</mgrwt>
</event>
<event>
 5    1  0.3212987E-002  0.1250014E+03  0.7818608E-02  0.1235067E+00
          4   -1    0    0  501    0  0.00000000000E+00  0.00000000000E+00  0.32761307707E+03  0.32761553866E+03  0.12700000000E+01 0.  1.
         -4   -1    0    0    0  501 -0.00000000000E+00 -0.00000000000E+00 -0.11887297258E+02  0.11954946094E+02  0.12700000000E+01 0.  1.
         25    2    1    2    0    0  0.00000000000E+00  0.00000000000E+00  0.31572577982E+03  0.33957048475E+03  0.12500138429E+03 0.  0.
    9000005    1    3    3    0    0  0.53797433271E+02 -0.10871632347E+01  0.71530489928E+02  0.89515120174E+02  0.10000000000E+01 0.  0.
    9000005    1    3    3    0    0 -0.53797433271E+02  0.10871632347E+01  0.24419528989E+03  0.25005536458E+03  0.10000000000E+01 0.  0.
<mgrwt>
<rscale>  0 0.12500138E+03</rscale>
<asrwt>0</asrwt>
<pdfrwt beam="1">  1        4 0.50407408E-01 0.12500138E+03</pdfrwt>
<pdfrwt beam="2">  1       -4 0.18342080E-02 0.12500138E+03</pdfrwt>
<totfact> 0.70885201E+03</totfact>
</mgrwt>
</event>
<event>
 5    1  0.3212987E-002  0.1249973E+03  0.7818608E-02  0.1235074E+00
          4   -1    0    0  501    0  0.00000000000E+00  0.00000000000E+00  0.21981559382E+02  0.22018216387E+02  0.12700000000E+01 0.  1.
         -4   -1    0    0    0  501 -0.00000000000E+00 -0.00000000000E+00 -0.17751105983E+03  0.17751560287E+03  0.12700000000E+01 0.  1.
         25    2    1    2    0    0  0.00000000000E+00  0.00000000000E+00 -0.15552950045E+03  0.19953381926E+03  0.12499727804E+03 0.  0.
    9000005    1    3    3    0    0 -0.50424970919E+02 -0.32871074712E+02 -0.10456626649E+03  0.12065773632E+03  0.10000000000E+01 0.  0.
    9000005    1    3    3    0    0  0.50424970919E+02  0.32871074712E+02 -0.50963233956E+02  0.78876082941E+02  0.10000000000E+01 0.  0.
<mgrwt>
<rscale>  0 0.12499728E+03</rscale>
<asrwt>0</asrwt>
<pdfrwt beam="1">  1        4 0.33849477E-02 0.12499728E+03</pdfrwt>
<pdfrwt beam="2">  1       -4 0.27312562E-01 0.12499728E+03</pdfrwt>
<totfact> 0.90219687E+03</totfact>
</mgrwt>
</event>
<event>
 5    1  0.3212987E-002  0.1249960E+03  0.7818608E-02  0.1235076E+00
          4   -1    0    0  501    0  0.00000000000E+00  0.00000000000E+00  0.18646541793E+03  0.18646974281E+03  0.12700000000E+01 0. -1.
         -4   -1    0    0    0  501 -0.00000000000E+00 -0.00000000000E+00 -0.20923746833E+02  0.20962253732E+02  0.12700000000E+01 0. -1.
         25    2    1    2    0    0  0.00000000000E+00  0.00000000000E+00  0.16554167110E+03  0.20743199654E+03  0.12499595322E+03 0.  0.
    9000005    1    3    3    0    0  0.27754938999E+02  0.41214122386E+02  0.14565851460E+03  0.15390368221E+03  0.10000000000E+01 0.  0.
    9000005    1    3    3    0    0 -0.27754938999E+02 -0.41214122386E+02  0.19883156498E+02  0.53528314332E+02  0.10000000000E+01 0.  0.
<mgrwt>
<rscale>  0 0.12499595E+03</rscale>
<asrwt>0</asrwt>
<pdfrwt beam="1">  1        4 0.28690282E-01 0.12499595E+03</pdfrwt>
<pdfrwt beam="2">  1       -4 0.32223327E-02 0.12499595E+03</pdfrwt>
<totfact> 0.88905039E+03</totfact>
</mgrwt>
</event>
<event>
 5    1  0.3212987E-002  0.1250000E+03  0.7818608E-02  0.1235069E+00
         -4   -1    0    0    0  501 -0.00000000000E+00  0.00000000000E+00  0.53416466104E+01  0.54905453745E+01  0.12700000000E+01 0.  1.
          4   -1    0    0  501    0  0.00000000000E+00 -0.00000000000E+00 -0.72107981012E+03  0.72108092851E+03  0.12700000000E+01 0.  1.
         25    2    1    2    0    0  0.00000000000E+00  0.00000000000E+00 -0.71573816351E+03  0.72657147389E+03  0.12499995184E+03 0.  0.
    9000005    1    3    3    0    0  0.57880520437E+02 -0.22192702915E+02 -0.40384954823E+03  0.40858062646E+03  0.10000000000E+01 0.  0.
    9000005    1    3    3    0    0 -0.57880520437E+02  0.22192702915E+02 -0.31188861528E+03  0.31799084743E+03  0.10000000000E+01 0.  0.
<mgrwt>
<rscale>  0 0.12499995E+03</rscale>
<asrwt>0</asrwt>
<pdfrwt beam="2">  1        4 0.11094682E+00 0.12499995E+03</pdfrwt>
<pdfrwt beam="1">  1       -4 0.83333214E-03 0.12499995E+03</pdfrwt>
<totfact> 0.41720629E+03</totfact>
</mgrwt>
</event>
<event>
 5    1  0.3212987E-002  0.1249991E+03  0.7818608E-02  0.1235071E+00
         -4   -1    0    0    0  501 -0.00000000000E+00  0.00000000000E+00  0.31134981915E+03  0.31135240931E+03  0.12700000000E+01 0. -1.
          4   -1    0    0  501    0  0.00000000000E+00 -0.00000000000E+00 -0.12511200394E+02  0.12575493441E+02  0.12700000000E+01 0. -1.
         25    2    1    2    0    0  0.00000000000E+00  0.00000000000E+00  0.29883861876E+03  0.32392790275E+03  0.12499906449E+03 0.  0.
    9000005    1    3    3    0    0  0.21350853860E+02 -0.44197213177E+02  0.49189125554E+02  0.69496925730E+02  0.10000000000E+01 0.  0.
    9000005    1    3    3    0    0 -0.21350853860E+02  0.44197213177E+02  0.24964949320E+03  0.25443097702E+03  0.10000000000E+01 0.  0.
<mgrwt>
<rscale>  0 0.12499906E+03</rscale>
<asrwt>0</asrwt>
<pdfrwt beam="2">  1        4 0.19299452E-02 0.12499906E+03</pdfrwt>
<pdfrwt beam="1">  1       -4 0.47905110E-01 0.12499906E+03</pdfrwt>
<totfact> 0.72692886E+03</totfact>
</mgrwt>
</event>
<event>
 5    1  0.3212987E-002  0.1250184E+03  0.7818608E-02  0.1235040E+00
         -4   -1    0    0    0  501 -0.00000000000E+00  0.00000000000E+00  0.97889854041E+02  0.97898092035E+02  0.12700000000E+01 0. -1.
          4   -1    0    0  501    0  0.00000000000E+00 -0.00000000000E+00 -0.39896282630E+02  0.39916491175E+02  0.12700000000E+01 0. -1.
         25    2    1    2    0    0  0.00000000000E+00  0.00000000000E+00  0.57993571410E+02  0.13781458321E+03  0.12501841872E+03 0.  0.
    9000005    1    3    3    0    0  0.56612813265E+02  0.16684662811E+02  0.63243669039E+01  0.59366541213E+02  0.10000000000E+01 0.  0.
    9000005    1    3    3    0    0 -0.56612813265E+02 -0.16684662811E+02  0.51669204506E+02  0.78448041997E+02  0.10000000000E+01 0.  0.
<mgrwt>
<rscale>  0 0.12501842E+03</rscale>
<asrwt>0</asrwt>
<pdfrwt beam="2">  1        4 0.61400780E-02 0.12501842E+03</pdfrwt>
<pdfrwt beam="1">  1       -4 0.15062165E-01 0.12501842E+03</pdfrwt>
<totfact> 0.10174855E+04</totfact>
</mgrwt>
</event>
<event>
 5    1  0.3212987E-002  0.1250004E+03  0.7818608E-02  0.1235069E+00
         -4   -1    0    0    0  501 -0.00000000000E+00  0.00000000000E+00  0.96579439995E+01  0.97410873262E+01  0.12700000000E+01 0.  1.
          4   -1    0    0  501    0  0.00000000000E+00 -0.00000000000E+00 -0.40264455975E+03  0.40264656263E+03  0.12700000000E+01 0.  1.
         25    2    1    2    0    0  0.00000000000E+00  0.00000000000E+00 -0.39298661575E+03  0.41238764996E+03  0.12500037470E+03 0.  0.
    9000005    1    3    3    0    0 -0.21383909658E+02  0.57947806335E+02 -0.16518606680E+03  0.17635945259E+03  0.10000000000E+01 0.  0.
    9000005    1    3    3    0    0  0.21383909658E+02 -0.57947806335E+02 -0.22780054895E+03  0.23602819737E+03  0.10000000000E+01 0.  0.
<mgrwt>
<rscale>  0 0.12500037E+03</rscale>
<asrwt>0</asrwt>
<pdfrwt beam="2">  1        4 0.61951854E-01 0.12500037E+03</pdfrwt>
<pdfrwt beam="1">  1       -4 0.14923876E-02 0.12500037E+03</pdfrwt>
<totfact> 0.63365035E+03</totfact>
</mgrwt>
</event>
<event>
 5    1  0.3212987E-002  0.1250335E+03  0.7818608E-02  0.1235017E+00
         -4   -1    0    0    0  501 -0.00000000000E+00  0.00000000000E+00  0.98844766081E+02  0.98852924497E+02  0.12700000000E+01 0.  1.
          4   -1    0    0  501    0  0.00000000000E+00 -0.00000000000E+00 -0.39520202894E+02  0.39540603647E+02  0.12700000000E+01 0.  1.
         25    2    1    2    0    0  0.00000000000E+00  0.00000000000E+00  0.59324563186E+02  0.13839352814E+03  0.12503345486E+03 0.  0.
    9000005    1    3    3    0    0 -0.19871912826E+02  0.26753494448E+02 -0.28872283986E+02  0.44105001611E+02  0.10000000000E+01 0.  0.
    9000005    1    3    3    0    0  0.19871912826E+02 -0.26753494448E+02  0.88196847172E+02  0.94288526533E+02  0.10000000000E+01 0.  0.
<mgrwt>
<rscale>  0 0.12503345E+03</rscale>
<asrwt>0</asrwt>
<pdfrwt beam="2">  1        4 0.60822281E-02 0.12503345E+03</pdfrwt>
<pdfrwt beam="1">  1       -4 0.15209084E-01 0.12503345E+03</pdfrwt>
<totfact> 0.10159329E+04</totfact>
</mgrwt>
</event>
<event>
 5    1  0.3212987E-002  0.1249910E+03  0.7818608E-02  0.1235083E+00
         -4   -1    0    0    0  501 -0.00000000000E+00  0.00000000000E+00  0.58886093871E+02  0.58899787363E+02  0.12700000000E+01 0. -1.
          4   -1    0    0  501    0  0.00000000000E+00 -0.00000000000E+00 -0.66298693796E+02  0.66310856570E+02  0.12700000000E+01 0. -1.
         25    2    1    2    0    0  0.00000000000E+00  0.00000000000E+00 -0.74125999253E+01  0.12521064393E+03  0.12499103454E+03 0.  0.
    9000005    1    3    3    0    0  0.12119383946E+02  0.41108882054E+02 -0.49260036491E+02  0.65302150394E+02  0.10000000000E+01 0.  0.
    9000005    1    3    3    0    0 -0.12119383946E+02 -0.41108882054E+02  0.41847436566E+02  0.59908493539E+02  0.10000000000E+01 0.  0.
<mgrwt>
<rscale>  0 0.12499103E+03</rscale>
<asrwt>0</asrwt>
<pdfrwt beam="2">  1        4 0.10201788E-01 0.12499103E+03</pdfrwt>
<pdfrwt beam="1">  1       -4 0.90613880E-02 0.12499103E+03</pdfrwt>
<totfact> 0.10450406E+04</totfact>
</mgrwt>
</event>
<event>
 5    1  0.3212987E-002  0.1250010E+03  0.7818608E-02  0.1235068E+00
         -4   -1    0    0    0  501 -0.00000000000E+00  0.00000000000E+00  0.42998507077E+03  0.42998694630E+03  0.12700000000E+01 0. -1.
          4   -1    0    0  501    0  0.00000000000E+00 -0.00000000000E+00 -0.90384707625E+01  0.91272588286E+01  0.12700000000E+01 0. -1.
         25    2    1    2    0    0  0.00000000000E+00  0.00000000000E+00  0.42094660001E+03  0.43911420512E+03  0.12500098033E+03 0.  0.
    9000005    1    3    3    0    0 -0.34701786509E+02 -0.11451487039E+02  0.32388312145E+02  0.48840078889E+02  0.10000000000E+01 0.  0.
    9000005    1    3    3    0    0  0.34701786509E+02  0.11451487039E+02  0.38855828786E+03  0.39027412623E+03  0.10000000000E+01 0.  0.
<mgrwt>
<rscale>  0 0.12500098E+03</rscale>
<asrwt>0</asrwt>
<pdfrwt beam="2">  1        4 0.13975079E-02 0.12500098E+03</pdfrwt>
<pdfrwt beam="1">  1       -4 0.66158532E-01 0.12500098E+03</pdfrwt>
<totfact> 0.60917121E+03</totfact>
</mgrwt>
</event>
<event>
 5    1  0.3212987E-002  0.1250011E+03  0.7818608E-02  0.1235068E+00
         -4   -1    0    0    0  501 -0.00000000000E+00  0.00000000000E+00  0.87599929783E+02  0.87609135357E+02  0.12700000000E+01 0.  1.
          4   -1    0    0  501    0  0.00000000000E+00 -0.00000000000E+00 -0.44572124453E+02  0.44590213930E+02  0.12700000000E+01 0.  1.
         25    2    1    2    0    0  0.00000000000E+00  0.00000000000E+00  0.43027805330E+02  0.13219934929E+03  0.12500110368E+03 0.  0.
    9000005    1    3    3    0    0 -0.41262947521E+02  0.46598663381E+02  0.27426241724E+02  0.68024003132E+02  0.10000000000E+01 0.  0.
    9000005    1    3    3    0    0  0.41262947521E+02 -0.46598663381E+02  0.15601563606E+02  0.64175346154E+02  0.10000000000E+01 0.  0.
<mgrwt>
<rscale>  0 0.12500110E+03</rscale>
<asrwt>0</asrwt>
<pdfrwt beam="2">  1        4 0.68593497E-02 0.12500110E+03</pdfrwt>
<pdfrwt beam="1">  1       -4 0.13479012E-01 0.12500110E+03</pdfrwt>
<totfact> 0.10297189E+04</totfact>
</mgrwt>
</event>
<event>
 5    1  0.3212987E-002  0.1250027E+03  0.7818608E-02  0.1235065E+00
          4   -1    0    0  501    0  0.00000000000E+00  0.00000000000E+00  0.50627053097E+01  0.52195675159E+01  0.12700000000E+01 0.  1.
         -4   -1    0    0    0  501 -0.00000000000E+00 -0.00000000000E+00 -0.75967801976E+03  0.75967908132E+03  0.12700000000E+01 0.  1.
         25    2    1    2    0    0  0.00000000000E+00  0.00000000000E+00 -0.75461531445E+03  0.76489864884E+03  0.12500268077E+03 0.  0.
    9000005    1    3    3    0    0 -0.12202685998E+02  0.11608687162E+02 -0.90567508121E+01  0.19149200987E+02  0.10000000000E+01 0.  0.
    9000005    1    3    3    0    0  0.12202685998E+02 -0.11608687162E+02 -0.74555856363E+03  0.74574944785E+03  0.10000000000E+01 0.  0.
<mgrwt>
<rscale>  0 0.12500268E+03</rscale>
<asrwt>0</asrwt>
<pdfrwt beam="1">  1        4 0.79102632E-03 0.12500268E+03</pdfrwt>
<pdfrwt beam="2">  1       -4 0.11688560E+00 0.12500268E+03</pdfrwt>
<totfact> 0.39869161E+03</totfact>
</mgrwt>
</event>
<event>
 5    1  0.3212987E-002  0.1250071E+03  0.7818608E-02  0.1235058E+00
         -4   -1    0    0    0  501 -0.00000000000E+00  0.00000000000E+00  0.16868876159E+02  0.16916615585E+02  0.12700000000E+01 0.  1.
          4   -1    0    0  501    0  0.00000000000E+00 -0.00000000000E+00 -0.23121490904E+03  0.23121839690E+03  0.12700000000E+01 0.  1.
         25    2    1    2    0    0  0.00000000000E+00  0.00000000000E+00 -0.21434603289E+03  0.24813501248E+03  0.12500705023E+03 0.  0.
    9000005    1    3    3    0    0 -0.25046437978E+02  0.57077810828E+02 -0.98187859682E+02  0.11630587403E+03  0.10000000000E+01 0.  0.
    9000005    1    3    3    0    0  0.25046437978E+02 -0.57077810828E+02 -0.11615817320E+03  0.13182913846E+03  0.10000000000E+01 0.  0.
<mgrwt>
<rscale>  0 0.12500705E+03</rscale>
<asrwt>0</asrwt>
<pdfrwt beam="2">  1        4 0.35575463E-01 0.12500705E+03</pdfrwt>
<pdfrwt beam="1">  1       -4 0.25991524E-02 0.12500705E+03</pdfrwt>
<totfact> 0.82587553E+03</totfact>
</mgrwt>
</event>
<event>
 4    1  0.3212987E-002  0.1253075E+03  0.7818608E-02  0.1234589E+00
         -4   -1    0    0    0  501 -0.00000000000E+00  0.00000000000E+00  0.29366756493E+01  0.31995255694E+01  0.12700000000E+01 0. -1.
          4   -1    0    0  501    0  0.00000000000E+00 -0.00000000000E+00 -0.12791910764E+04  0.12791917068E+04  0.12700000000E+01 0. -1.
    9000005    1    1    2    0    0 -0.23288574227E+02  0.51147115487E+01 -0.45266292690E+02  0.51171820543E+02  0.10000000000E+01 0.  0.
    9000005    1    1    2    0    0  0.23288574227E+02 -0.51147115487E+01 -0.12309881080E+04  0.12312194118E+04  0.10000000000E+01 0.  0.
<mgrwt>
<rscale>  0 0.12530753E+03</rscale>
<asrwt>0</asrwt>
<pdfrwt beam="2">  1        4 0.19681847E+00 0.12530753E+03</pdfrwt>
<pdfrwt beam="1">  1       -4 0.47206500E-03 0.12530753E+03</pdfrwt>
<totfact> 0.22496713E+03</totfact>
</mgrwt>
</event>
<event>
 5    1  0.3212987E-002  0.1250006E+03  0.7818608E-02  0.1235068E+00
         -4   -1    0    0    0  501 -0.00000000000E+00  0.00000000000E+00  0.91753422569E+02  0.91762211466E+02  0.12700000000E+01 0. -1.
          4   -1    0    0  501    0  0.00000000000E+00 -0.00000000000E+00 -0.42553453858E+02  0.42572401098E+02  0.12700000000E+01 0. -1.
         25    2    1    2    0    0  0.00000000000E+00  0.00000000000E+00  0.49199968712E+02  0.13433461256E+03  0.12500060484E+03 0.  0.
    9000005    1    3    3    0    0 -0.71448674977E+00 -0.39464456388E+02 -0.27467099753E+02  0.48097768952E+02  0.10000000000E+01 0.  0.
    9000005    1    3    3    0    0  0.71448674977E+00  0.39464456388E+02  0.76667068464E+02  0.86236843612E+02  0.10000000000E+01 0.  0.
<mgrwt>
<rscale>  0 0.12500060E+03</rscale>
<asrwt>0</asrwt>
<pdfrwt beam="2">  1        4 0.65488188E-02 0.12500060E+03</pdfrwt>
<pdfrwt beam="1">  1       -4 0.14118045E-01 0.12500060E+03</pdfrwt>
<totfact> 0.10251975E+04</totfact>
</mgrwt>
</event>
<event>
 5    1  0.3212987E-002  0.1249992E+03  0.7818608E-02  0.1235071E+00
          4   -1    0    0  501    0  0.00000000000E+00  0.00000000000E+00  0.77571073058E+01  0.78603825449E+01  0.12700000000E+01 0. -1.
         -4   -1    0    0    0  501 -0.00000000000E+00 -0.00000000000E+00 -0.50012966201E+03  0.50013127449E+03  0.12700000000E+01 0. -1.
         25    2    1    2    0    0  0.00000000000E+00  0.00000000000E+00 -0.49237255470E+03  0.50799165703E+03  0.12499916396E+03 0.  0.
    9000005    1    3    3    0    0 -0.54095632697E+02 -0.16151711630E+02 -0.35508089028E+03  0.35954228389E+03  0.10000000000E+01 0.  0.
    9000005    1    3    3    0    0  0.54095632697E+02  0.16151711630E+02 -0.13729166443E+03  0.14844937314E+03  0.10000000000E+01 0.  0.
<mgrwt>
<rscale>  0 0.12499916E+03</rscale>
<asrwt>0</asrwt>
<pdfrwt beam="1">  1        4 0.12014698E-02 0.12499916E+03</pdfrwt>
<pdfrwt beam="2">  1       -4 0.76951068E-01 0.12499916E+03</pdfrwt>
<totfact> 0.55250627E+03</totfact>
</mgrwt>
</event>
<event>
 5    1  0.3212987E-002  0.1250016E+03  0.7818608E-02  0.1235067E+00
         -4   -1    0    0    0  501 -0.00000000000E+00  0.00000000000E+00  0.40553432843E+03  0.40553631704E+03  0.12700000000E+01 0.  1.
          4   -1    0    0  501    0  0.00000000000E+00 -0.00000000000E+00 -0.95887120134E+01  0.96724504690E+01  0.12700000000E+01 0.  1.
         25    2    1    2    0    0  0.00000000000E+00  0.00000000000E+00  0.39594561642E+03  0.41520876751E+03  0.12500155781E+03 0.  0.
    9000005    1    3    3    0    0 -0.16390448353E+02  0.15246695272E+02  0.41695375902E+01  0.22792401314E+02  0.10000000000E+01 0.  0.
    9000005    1    3    3    0    0  0.16390448353E+02 -0.15246695272E+02  0.39177607883E+03  0.39241636620E+03  0.10000000000E+01 0.  0.
<mgrwt>
<rscale>  0 0.12500156E+03</rscale>
<asrwt>0</asrwt>
<pdfrwt beam="2">  1        4 0.14817808E-02 0.12500156E+03</pdfrwt>
<pdfrwt beam="1">  1       -4 0.62396493E-01 0.12500156E+03</pdfrwt>
<totfact> 0.63097830E+03</totfact>
</mgrwt>
</event>
<event>
 5    1  0.3212987E-002  0.1250020E+03  0.7818608E-02  0.1235066E+00
         -4   -1    0    0    0  501 -0.00000000000E+00  0.00000000000E+00  0.53414186664E+02  0.53429282579E+02  0.12700000000E+01 0.  1.
          4   -1    0    0  501    0  0.00000000000E+00 -0.00000000000E+00 -0.73102731625E+02  0.73113762529E+02  0.12700000000E+01 0.  1.
         25    2    1    2    0    0  0.00000000000E+00  0.00000000000E+00 -0.19688544962E+02  0.12654304511E+03  0.12500201383E+03 0.  0.
    9000005    1    3    3    0    0  0.38095627773E+02 -0.47777954342E+02 -0.23096342259E+02  0.65333381990E+02  0.10000000000E+01 0.  0.
    9000005    1    3    3    0    0 -0.38095627773E+02  0.47777954342E+02  0.34077972967E+01  0.61209663118E+02  0.10000000000E+01 0.  0.
<mgrwt>
<rscale>  0 0.12500201E+03</rscale>
<asrwt>0</asrwt>
<pdfrwt beam="2">  1        4 0.11248584E-01 0.12500201E+03</pdfrwt>
<pdfrwt beam="1">  1       -4 0.82195769E-02 0.12500201E+03</pdfrwt>
<totfact> 0.10418616E+04</totfact>
</mgrwt>
</event>
<event>
 5    1  0.3212987E-002  0.1249966E+03  0.7818608E-02  0.1235075E+00
         -4   -1    0    0    0  501 -0.00000000000E+00  0.00000000000E+00  0.13592080876E+03  0.13592674187E+03  0.12700000000E+01 0.  1.
          4   -1    0    0  501    0  0.00000000000E+00 -0.00000000000E+00 -0.28717022726E+02  0.28745091655E+02  0.12700000000E+01 0.  1.
         25    2    1    2    0    0  0.00000000000E+00  0.00000000000E+00  0.10720378604E+03  0.16467183352E+03  0.12499664402E+03 0.  0.
    9000005    1    3    3    0    0 -0.61294241166E+02 -0.53318611601E+01  0.68010981228E+02  0.91716445152E+02  0.10000000000E+01 0.  0.
    9000005    1    3    3    0    0  0.61294241166E+02  0.53318611601E+01  0.39192804807E+02  0.72955388370E+02  0.10000000000E+01 0.  0.
<mgrwt>
<rscale>  0 0.12499664E+03</rscale>
<asrwt>0</asrwt>
<pdfrwt beam="2">  1        4 0.44206191E-02 0.12499664E+03</pdfrwt>
<pdfrwt beam="1">  1       -4 0.20913509E-01 0.12499664E+03</pdfrwt>
<totfact> 0.96456850E+03</totfact>
</mgrwt>
</event>
<event>
 5    1  0.3212987E-002  0.1249981E+03  0.7818608E-02  0.1235072E+00
          4   -1    0    0  501    0  0.00000000000E+00  0.00000000000E+00  0.11609931070E+03  0.11610625670E+03  0.12700000000E+01 0.  1.
         -4   -1    0    0    0  501 -0.00000000000E+00 -0.00000000000E+00 -0.33624825809E+02  0.33648801029E+02  0.12700000000E+01 0.  1.
         25    2    1    2    0    0  0.00000000000E+00  0.00000000000E+00  0.82474484893E+02  0.14975505773E+03  0.12499814662E+03 0.  0.
    9000005    1    3    3    0    0  0.43486553448E+02 -0.41072845571E+02  0.62904389287E+02  0.86810259565E+02  0.10000000000E+01 0.  0.
    9000005    1    3    3    0    0 -0.43486553448E+02  0.41072845571E+02  0.19570095605E+02  0.62944798166E+02  0.10000000000E+01 0.  0.
<mgrwt>
<rscale>  0 0.12499815E+03</rscale>
<asrwt>0</asrwt>
<pdfrwt beam="1">  1        4 0.17863811E-01 0.12499815E+03</pdfrwt>
<pdfrwt beam="2">  1       -4 0.51754287E-02 0.12499815E+03</pdfrwt>
<totfact> 0.99356690E+03</totfact>
</mgrwt>
</event>
<event>
 5    1  0.3212987E-002  0.1250045E+03  0.7818608E-02  0.1235062E+00
          4   -1    0    0  501    0  0.00000000000E+00  0.00000000000E+00  0.16136293561E+02  0.16186193805E+02  0.12700000000E+01 0.  1.
         -4   -1    0    0    0  501 -0.00000000000E+00 -0.00000000000E+00 -0.24167056053E+03  0.24167389749E+03  0.12700000000E+01 0.  1.
         25    2    1    2    0    0  0.00000000000E+00  0.00000000000E+00 -0.22553426697E+03  0.25786009129E+03  0.12500448434E+03 0.  0.
    9000005    1    3    3    0    0 -0.22360360939E+02 -0.50028186185E+02 -0.50789312475E+02  0.74721880437E+02  0.10000000000E+01 0.  0.
    9000005    1    3    3    0    0  0.22360360939E+02  0.50028186185E+02 -0.17474495450E+03  0.18313821086E+03  0.10000000000E+01 0.  0.
<mgrwt>
<rscale>  0 0.12500448E+03</rscale>
<asrwt>0</asrwt>
<pdfrwt beam="1">  1        4 0.24866020E-02 0.12500448E+03</pdfrwt>
<pdfrwt beam="2">  1       -4 0.37184179E-01 0.12500448E+03</pdfrwt>
<totfact> 0.81199202E+03</totfact>
</mgrwt>
</event>
<event>
 5    1  0.3212987E-002  0.1249991E+03  0.7818608E-02  0.1235071E+00
         -4   -1    0    0    0  501 -0.00000000000E+00  0.00000000000E+00  0.10462836415E+03  0.10463607162E+03  0.12700000000E+01 0. -1.
          4   -1    0    0  501    0  0.00000000000E+00 -0.00000000000E+00 -0.37314108922E+02  0.37335715135E+02  0.12700000000E+01 0. -1.
         25    2    1    2    0    0  0.00000000000E+00  0.00000000000E+00  0.67314255229E+02  0.14197178676E+03  0.12499911711E+03 0.  0.
    9000005    1    3    3    0    0 -0.33828603284E+02  0.19866113997E+02  0.88905179281E+02  0.97181108187E+02  0.10000000000E+01 0.  0.
    9000005    1    3    3    0    0  0.33828603284E+02 -0.19866113997E+02 -0.21590924052E+02  0.44790678572E+02  0.10000000000E+01 0.  0.
<mgrwt>
<rscale>  0 0.12499912E+03</rscale>
<asrwt>0</asrwt>
<pdfrwt beam="2">  1        4 0.57428870E-02 0.12499912E+03</pdfrwt>
<pdfrwt beam="1">  1       -4 0.16098926E-01 0.12499912E+03</pdfrwt>
<totfact> 0.10093083E+04</totfact>
</mgrwt>
</event>
<event>
 5    1  0.3212987E-002  0.1250000E+03  0.7818608E-02  0.1235069E+00
          4   -1    0    0  501    0  0.00000000000E+00  0.00000000000E+00  0.14629766837E+02  0.14684787289E+02  0.12700000000E+01 0. -1.
         -4   -1    0    0    0  501 -0.00000000000E+00 -0.00000000000E+00 -0.26644939490E+03  0.26645242153E+03  0.12700000000E+01 0. -1.
         25    2    1    2    0    0  0.00000000000E+00  0.00000000000E+00 -0.25181962806E+03  0.28113720882E+03  0.12500002043E+03 0.  0.
    9000005    1    3    3    0    0  0.27198738094E+02  0.35030145909E+02 -0.26889009579E+02  0.51873898180E+02  0.10000000000E+01 0.  0.
    9000005    1    3    3    0    0 -0.27198738094E+02 -0.35030145909E+02 -0.22493061848E+03  0.22926331064E+03  0.10000000000E+01 0.  0.
<mgrwt>
<rscale>  0 0.12500002E+03</rscale>
<asrwt>0</asrwt>
<pdfrwt beam="1">  1        4 0.22551987E-02 0.12500002E+03</pdfrwt>
<pdfrwt beam="2">  1       -4 0.40996676E-01 0.12500002E+03</pdfrwt>
<totfact> 0.78027527E+03</totfact>
</mgrwt>
</event>
<event>
 5    1  0.3212987E-002  0.1249975E+03  0.7818608E-02  0.1235073E+00
          4   -1    0    0  501    0  0.00000000000E+00  0.00000000000E+00  0.21477365959E+02  0.21514882025E+02  0.12700000000E+01 0.  1.
         -4   -1    0    0    0  501 -0.00000000000E+00 -0.00000000000E+00 -0.18167187523E+03  0.18167631423E+03  0.12700000000E+01 0.  1.
         25    2    1    2    0    0  0.00000000000E+00  0.00000000000E+00 -0.16019450928E+03  0.20319119625E+03  0.12499752570E+03 0.  0.
    9000005    1    3    3    0    0 -0.16498355484E+02 -0.23769121311E+02  0.99407967781E+01  0.30610231984E+02  0.10000000000E+01 0.  0.
    9000005    1    3    3    0    0  0.16498355484E+02  0.23769121311E+02 -0.17013530605E+03  0.17258096427E+03  0.10000000000E+01 0.  0.
<mgrwt>
<rscale>  0 0.12499753E+03</rscale>
<asrwt>0</asrwt>
<pdfrwt beam="1">  1        4 0.33074376E-02 0.12499753E+03</pdfrwt>
<pdfrwt beam="2">  1       -4 0.27952746E-01 0.12499753E+03</pdfrwt>
<totfact> 0.89605023E+03</totfact>
</mgrwt>
</event>
<event>
 5    1  0.3212987E-002  0.1250001E+03  0.7818608E-02  0.1235069E+00
          4   -1    0    0  501    0  0.00000000000E+00  0.00000000000E+00  0.26841600687E+01  0.29694469644E+01  0.12700000000E+01 0. -1.
         -4   -1    0    0    0  501 -0.00000000000E+00 -0.00000000000E+00 -0.13815781916E+04  0.13815787753E+04  0.12700000000E+01 0. -1.
         25    2    1    2    0    0  0.00000000000E+00  0.00000000000E+00 -0.13788940315E+04  0.13845482223E+04  0.12500011851E+03 0.  0.
    9000005    1    3    3    0    0 -0.12212782211E+02 -0.60171104772E+02 -0.81840167042E+03  0.82070214332E+03  0.10000000000E+01 0.  0.
    9000005    1    3    3    0    0  0.12212782211E+02  0.60171104772E+02 -0.56049236111E+03  0.56384607897E+03  0.10000000000E+01 0.  0.
<mgrwt>
<rscale>  0 0.12500012E+03</rscale>
<asrwt>0</asrwt>
<pdfrwt beam="1">  1        4 0.43493885E-03 0.12500012E+03</pdfrwt>
<pdfrwt beam="2">  1       -4 0.21257194E+00 0.12500012E+03</pdfrwt>
<totfact> 0.20314978E+03</totfact>
</mgrwt>
</event>
<event>
 5    1  0.3212987E-002  0.1249987E+03  0.7818608E-02  0.1235071E+00
          4   -1    0    0  501    0  0.00000000000E+00  0.00000000000E+00  0.19550660871E+02  0.19591866692E+02  0.12700000000E+01 0. -1.
         -4   -1    0    0    0  501 -0.00000000000E+00 -0.00000000000E+00 -0.19954374051E+03  0.19954778194E+03  0.12700000000E+01 0. -1.
         25    2    1    2    0    0  0.00000000000E+00  0.00000000000E+00 -0.17999307964E+03  0.21913964864E+03  0.12499870753E+03 0.  0.
    9000005    1    3    3    0    0  0.33747254167E+01 -0.20462941679E+01  0.19340553877E+02  0.19764440689E+02  0.10000000000E+01 0.  0.
    9000005    1    3    3    0    0 -0.33747254167E+01  0.20462941679E+01 -0.19933363352E+03  0.19937520795E+03  0.10000000000E+01 0.  0.
<mgrwt>
<rscale>  0 0.12499871E+03</rscale>
<asrwt>0</asrwt>
<pdfrwt beam="1">  1        4 0.30112747E-02 0.12499871E+03</pdfrwt>
<pdfrwt beam="2">  1       -4 0.30702516E-01 0.12499871E+03</pdfrwt>
<totfact> 0.87007185E+03</totfact>
</mgrwt>
</event>
<event>
 5    1  0.3212987E-002  0.1249920E+03  0.7818608E-02  0.1235082E+00
          4   -1    0    0  501    0  0.00000000000E+00  0.00000000000E+00  0.47314818418E+01  0.48989611572E+01  0.12700000000E+01 0. -1.
         -4   -1    0    0    0  501 -0.00000000000E+00 -0.00000000000E+00 -0.81095805722E+03  0.81095905166E+03  0.12700000000E+01 0. -1.
         25    2    1    2    0    0  0.00000000000E+00  0.00000000000E+00 -0.80622657537E+03  0.81585801281E+03  0.12499202468E+03 0.  0.
    9000005    1    3    3    0    0  0.86405552535E+01  0.58567451650E+02 -0.27257649347E+03  0.27893323642E+03  0.10000000000E+01 0.  0.
    9000005    1    3    3    0    0 -0.86405552535E+01 -0.58567451650E+02 -0.53365008191E+03  0.53692477639E+03  0.10000000000E+01 0.  0.
<mgrwt>
<rscale>  0 0.12499202E+03</rscale>
<asrwt>0</asrwt>
<pdfrwt beam="1">  1        4 0.74088045E-03 0.12499202E+03</pdfrwt>
<pdfrwt beam="2">  1       -4 0.12477563E+00 0.12499202E+03</pdfrwt>
<totfact> 0.37573090E+03</totfact>
</mgrwt>
</event>
<event>
 5    1  0.3212987E-002  0.1249947E+03  0.7818608E-02  0.1235078E+00
          4   -1    0    0  501    0  0.00000000000E+00  0.00000000000E+00  0.14297062202E+02  0.14353358060E+02  0.12700000000E+01 0. -1.
         -4   -1    0    0    0  501 -0.00000000000E+00 -0.00000000000E+00 -0.27260284843E+03  0.27260580674E+03  0.12700000000E+01 0. -1.
         25    2    1    2    0    0  0.00000000000E+00  0.00000000000E+00 -0.25830578622E+03  0.28695916480E+03  0.12499473216E+03 0.  0.
    9000005    1    3    3    0    0  0.83992108395E+01 -0.56990338638E+01 -0.27070894807E+03  0.27090101568E+03  0.10000000000E+01 0.  0.
    9000005    1    3    3    0    0 -0.83992108395E+01  0.56990338638E+01  0.12403161844E+02  0.16058149128E+02  0.10000000000E+01 0.  0.
<mgrwt>
<rscale>  0 0.12499473E+03</rscale>
<asrwt>0</asrwt>
<pdfrwt beam="1">  1        4 0.22041063E-02 0.12499473E+03</pdfrwt>
<pdfrwt beam="2">  1       -4 0.41943454E-01 0.12499473E+03</pdfrwt>
<totfact> 0.77273373E+03</totfact>
</mgrwt>
</event>
<event>
 5    1  0.3212987E-002  0.1249929E+03  0.7818608E-02  0.1235080E+00
         -4   -1    0    0    0  501 -0.00000000000E+00  0.00000000000E+00  0.26589792496E+02  0.26620104526E+02  0.12700000000E+01 0. -1.
          4   -1    0    0  501    0  0.00000000000E+00 -0.00000000000E+00 -0.14677434173E+03  0.14677983611E+03  0.12700000000E+01 0. -1.
         25    2    1    2    0    0  0.00000000000E+00  0.00000000000E+00 -0.12018454923E+03  0.17339994064E+03  0.12499285396E+03 0.  0.
    9000005    1    3    3    0    0  0.20331251962E+02  0.23166882135E+02  0.15316751738E+02  0.34433517363E+02  0.10000000000E+01 0.  0.
    9000005    1    3    3    0    0 -0.20331251962E+02 -0.23166882135E+02 -0.13550130097E+03  0.13896642328E+03  0.10000000000E+01 0.  0.
<mgrwt>
<rscale>  0 0.12499285E+03</rscale>
<asrwt>0</asrwt>
<pdfrwt beam="2">  1        4 0.22583422E-01 0.12499285E+03</pdfrwt>
<pdfrwt beam="1">  1       -4 0.40934917E-02 0.12499285E+03</pdfrwt>
<totfact> 0.94833912E+03</totfact>
</mgrwt>
</event>
<event>
 5    1  0.3212987E-002  0.1250102E+03  0.7818608E-02  0.1235053E+00
          4   -1    0    0  501    0  0.00000000000E+00  0.00000000000E+00  0.37890889399E+01  0.39962601259E+01  0.12700000000E+01 0.  1.
         -4   -1    0    0    0  501 -0.00000000000E+00 -0.00000000000E+00 -0.10034440692E+04  0.10034448729E+04  0.12700000000E+01 0.  1.
         25    2    1    2    0    0  0.00000000000E+00  0.00000000000E+00 -0.99965498030E+03  0.10074411330E+04  0.12501022725E+03 0.  0.
    9000005    1    3    3    0    0  0.25614492262E+02 -0.49757687459E+02 -0.72402628153E+03  0.72618660551E+03  0.10000000000E+01 0.  0.
    9000005    1    3    3    0    0 -0.25614492262E+02  0.49757687459E+02 -0.27562869877E+03  0.28125452754E+03  0.10000000000E+01 0.  0.
<mgrwt>
<rscale>  0 0.12501023E+03</rscale>
<asrwt>0</asrwt>
<pdfrwt beam="1">  1        4 0.59893562E-03 0.12501023E+03</pdfrwt>
<pdfrwt beam="2">  1       -4 0.15439180E+00 0.12501023E+03</pdfrwt>
<totfact> 0.30353315E+03</totfact>
</mgrwt>
</event>
<event>
 5    1  0.3212987E-002  0.1249987E+03  0.7818608E-02  0.1235071E+00
         -4   -1    0    0    0  501 -0.00000000000E+00  0.00000000000E+00  0.34836984147E+02  0.34860125709E+02  0.12700000000E+01 0.  1.
          4   -1    0    0  501    0  0.00000000000E+00 -0.00000000000E+00 -0.11206307452E+03  0.11207027068E+03  0.12700000000E+01 0.  1.
         25    2    1    2    0    0  0.00000000000E+00  0.00000000000E+00 -0.77226090370E+02  0.14693039639E+03  0.12499868939E+03 0.  0.
    9000005    1    3    3    0    0  0.45158207044E+02 -0.28641863770E+02 -0.76621322997E+02  0.93442212953E+02  0.10000000000E+01 0.  0.
    9000005    1    3    3    0    0 -0.45158207044E+02  0.28641863770E+02 -0.60476737354E+00  0.53488183436E+02  0.10000000000E+01 0.  0.
<mgrwt>
<rscale>  0 0.12499869E+03</rscale>
<asrwt>0</asrwt>
<pdfrwt beam="2">  1        4 0.17242806E-01 0.12499869E+03</pdfrwt>
<pdfrwt beam="1">  1       -4 0.53618698E-02 0.12499869E+03</pdfrwt>
<totfact> 0.99922083E+03</totfact>
</mgrwt>
</event>
<event>
 5    1  0.3212987E-002  0.1250037E+03  0.7818608E-02  0.1235064E+00
          4   -1    0    0  501    0  0.00000000000E+00  0.00000000000E+00  0.87294908744E+01  0.88213893989E+01  0.12700000000E+01 0.  1.
         -4   -1    0    0    0  501 -0.00000000000E+00 -0.00000000000E+00 -0.44506772645E+03  0.44506953842E+03  0.12700000000E+01 0.  1.
         25    2    1    2    0    0  0.00000000000E+00  0.00000000000E+00 -0.43633823557E+03  0.45389092781E+03  0.12500367406E+03 0.  0.
    9000005    1    3    3    0    0 -0.29344714361E+02  0.34030356891E+02 -0.37587008537E+03  0.37854788142E+03  0.10000000000E+01 0.  0.
    9000005    1    3    3    0    0  0.29344714361E+02 -0.34030356891E+02 -0.60468150204E+02  0.75343046395E+02  0.10000000000E+01 0.  0.
<mgrwt>
<rscale>  0 0.12500367E+03</rscale>
<asrwt>0</asrwt>
<pdfrwt beam="1">  1        4 0.13502074E-02 0.12500367E+03</pdfrwt>
<pdfrwt beam="2">  1       -4 0.68479149E-01 0.12500367E+03</pdfrwt>
<totfact> 0.59623383E+03</totfact>
</mgrwt>
</event>
<event>
 5    1  0.3212987E-002  0.1249993E+03  0.7818608E-02  0.1235070E+00
          4   -1    0    0  501    0  0.00000000000E+00  0.00000000000E+00  0.56683228144E+01  0.58088538911E+01  0.12700000000E+01 0. -1.
         -4   -1    0    0    0  501 -0.00000000000E+00 -0.00000000000E+00 -0.68054971747E+03  0.68055090247E+03  0.12700000000E+01 0. -1.
         25    2    1    2    0    0  0.00000000000E+00  0.00000000000E+00 -0.67488139465E+03  0.68635975636E+03  0.12499927318E+03 0.  0.
    9000005    1    3    3    0    0 -0.52109928259E+02  0.23324339785E+02 -0.47697196141E+03  0.48037768623E+03  0.10000000000E+01 0.  0.
    9000005    1    3    3    0    0  0.52109928259E+02 -0.23324339785E+02 -0.19790943324E+03  0.20598207013E+03  0.10000000000E+01 0.  0.
<mgrwt>
<rscale>  0 0.12499927E+03</rscale>
<asrwt>0</asrwt>
<pdfrwt beam="1">  1        4 0.88295144E-03 0.12499927E+03</pdfrwt>
<pdfrwt beam="2">  1       -4 0.10471079E+00 0.12499927E+03</pdfrwt>
<totfact> 0.43817309E+03</totfact>
</mgrwt>
</event>
<event>
 5    1  0.3212987E-002  0.1249978E+03  0.7818608E-02  0.1235073E+00
          4   -1    0    0  501    0  0.00000000000E+00  0.00000000000E+00  0.45819824390E+03  0.45820000394E+03  0.12700000000E+01 0. -1.
         -4   -1    0    0    0  501 -0.00000000000E+00 -0.00000000000E+00 -0.84758594820E+01  0.85704780472E+01  0.12700000000E+01 0. -1.
         25    2    1    2    0    0  0.00000000000E+00  0.00000000000E+00  0.44972238442E+03  0.46677048199E+03  0.12499783922E+03 0.  0.
    9000005    1    3    3    0    0  0.61675341733E+02  0.99739955789E+01  0.21986990056E+03  0.22857624885E+03  0.10000000000E+01 0.  0.
    9000005    1    3    3    0    0 -0.61675341733E+02 -0.99739955789E+01  0.22985248386E+03  0.23819423314E+03  0.10000000000E+01 0.  0.
<mgrwt>
<rscale>  0 0.12499784E+03</rscale>
<asrwt>0</asrwt>
<pdfrwt beam="1">  1        4 0.70499453E-01 0.12499784E+03</pdfrwt>
<pdfrwt beam="2">  1       -4 0.13113921E-02 0.12499784E+03</pdfrwt>
<totfact> 0.58540791E+03</totfact>
</mgrwt>
</event>
<event>
 5    1  0.3212987E-002  0.1250054E+03  0.7818608E-02  0.1235061E+00
          4   -1    0    0  501    0  0.00000000000E+00  0.00000000000E+00  0.53542682904E+03  0.53542833522E+03  0.12700000000E+01 0. -1.
         -4   -1    0    0    0  501 -0.00000000000E+00 -0.00000000000E+00 -0.72394173501E+01  0.73499703107E+01  0.12700000000E+01 0. -1.
         25    2    1    2    0    0  0.00000000000E+00  0.00000000000E+00  0.52818741169E+03  0.54277830553E+03  0.12500538823E+03 0.  0.
    9000005    1    3    3    0    0  0.42856713168E+02 -0.43223309990E+02  0.32559672371E+03  0.33123885472E+03  0.10000000000E+01 0.  0.
    9000005    1    3    3    0    0 -0.42856713168E+02  0.43223309990E+02  0.20259068799E+03  0.21153945081E+03  0.10000000000E+01 0.  0.
<mgrwt>
<rscale>  0 0.12500539E+03</rscale>
<asrwt>0</asrwt>
<pdfrwt beam="1">  1        4 0.82381974E-01 0.12500539E+03</pdfrwt>
<pdfrwt beam="2">  1       -4 0.11223765E-02 0.12500539E+03</pdfrwt>
<totfact> 0.52685394E+03</totfact>
</mgrwt>
</event>
<event>
 5    1  0.3212987E-002  0.1250012E+03  0.7818608E-02  0.1235067E+00
         -4   -1    0    0    0  501 -0.00000000000E+00  0.00000000000E+00  0.88634151577E+01  0.89539392593E+01  0.12700000000E+01 0.  1.
          4   -1    0    0  501    0  0.00000000000E+00 -0.00000000000E+00 -0.43839427230E+03  0.43839611185E+03  0.12700000000E+01 0.  1.
         25    2    1    2    0    0  0.00000000000E+00  0.00000000000E+00 -0.42953085714E+03  0.44735005111E+03  0.12500124396E+03 0.  0.
    9000005    1    3    3    0    0 -0.11365826282E+02  0.59876132921E+02 -0.16530663407E+03  0.17618631209E+03  0.10000000000E+01 0.  0.
    9000005    1    3    3    0    0  0.11365826282E+02 -0.59876132921E+02 -0.26422422307E+03  0.27116373902E+03  0.10000000000E+01 0.  0.
<mgrwt>
<rscale>  0 0.12500124E+03</rscale>
<asrwt>0</asrwt>
<pdfrwt beam="2">  1        4 0.67452361E-01 0.12500124E+03</pdfrwt>
<pdfrwt beam="1">  1       -4 0.13707076E-02 0.12500124E+03</pdfrwt>
<totfact> 0.60192407E+03</totfact>
</mgrwt>
</event>
<event>
 5    1  0.3212987E-002  0.1250266E+03  0.7818608E-02  0.1235028E+00
          4   -1    0    0  501    0  0.00000000000E+00  0.00000000000E+00  0.71769593819E+02  0.71780829592E+02  0.12700000000E+01 0. -1.
         -4   -1    0    0    0  501 -0.00000000000E+00 -0.00000000000E+00 -0.54427933300E+02  0.54442748124E+02  0.12700000000E+01 0. -1.
         25    2    1    2    0    0  0.00000000000E+00  0.00000000000E+00  0.17341660519E+02  0.12622357772E+03  0.12502663069E+03 0.  0.
    9000005    1    3    3    0    0 -0.43866025873E+02 -0.21566770869E+02 -0.30657997581E+02  0.57708462527E+02  0.10000000000E+01 0.  0.
    9000005    1    3    3    0    0  0.43866025873E+02  0.21566770869E+02  0.47999658100E+02  0.68515115189E+02  0.10000000000E+01 0.  0.
<mgrwt>
<rscale>  0 0.12502663E+03</rscale>
<asrwt>0</asrwt>
<pdfrwt beam="1">  1        4 0.11043480E-01 0.12502663E+03</pdfrwt>
<pdfrwt beam="2">  1       -4 0.83755321E-02 0.12502663E+03</pdfrwt>
<totfact> 0.10419799E+04</totfact>
</mgrwt>
</event>
<event>
 5    1  0.3212987E-002  0.1250008E+03  0.7818608E-02  0.1235068E+00
          4   -1    0    0  501    0  0.00000000000E+00  0.00000000000E+00  0.79473696660E+02  0.79483843395E+02  0.12700000000E+01 0.  1.
         -4   -1    0    0    0  501 -0.00000000000E+00 -0.00000000000E+00 -0.49130602085E+02  0.49147013757E+02  0.12700000000E+01 0.  1.
         25    2    1    2    0    0  0.00000000000E+00  0.00000000000E+00  0.30343094575E+02  0.12863085715E+03  0.12500077609E+03 0.  0.
    9000005    1    3    3    0    0 -0.16567271521E+02  0.49733428359E+02  0.50180256033E+02  0.72573731319E+02  0.10000000000E+01 0.  0.
    9000005    1    3    3    0    0  0.16567271521E+02 -0.49733428359E+02 -0.19837161458E+02  0.56057125833E+02  0.10000000000E+01 0.  0.
<mgrwt>
<rscale>  0 0.12500078E+03</rscale>
<asrwt>0</asrwt>
<pdfrwt beam="1">  1        4 0.12228765E-01 0.12500078E+03</pdfrwt>
<pdfrwt beam="2">  1       -4 0.75605972E-02 0.12500078E+03</pdfrwt>
<totfact> 0.10373704E+04</totfact>
</mgrwt>
</event>
<event>
 5    1  0.3212987E-002  0.1249994E+03  0.7818608E-02  0.1235070E+00
         -4   -1    0    0    0  501 -0.00000000000E+00  0.00000000000E+00  0.14172056531E+03  0.14172625562E+03  0.12700000000E+01 0.  1.
          4   -1    0    0  501    0  0.00000000000E+00 -0.00000000000E+00 -0.27541887076E+02  0.27571152383E+02  0.12700000000E+01 0.  1.
         25    2    1    2    0    0  0.00000000000E+00  0.00000000000E+00  0.11417867823E+03  0.16929740800E+03  0.12499936717E+03 0.  0.
    9000005    1    3    3    0    0 -0.19947251147E+02  0.25579332091E+02  0.12943201216E+03  0.13343852828E+03  0.10000000000E+01 0.  0.
    9000005    1    3    3    0    0  0.19947251147E+02 -0.25579332091E+02 -0.15253333929E+02  0.35858879716E+02  0.10000000000E+01 0.  0.
<mgrwt>
<rscale>  0 0.12499937E+03</rscale>
<asrwt>0</asrwt>
<pdfrwt beam="2">  1        4 0.42399022E-02 0.12499937E+03</pdfrwt>
<pdfrwt beam="1">  1       -4 0.21805853E-01 0.12499937E+03</pdfrwt>
<totfact> 0.95581022E+03</totfact>
</mgrwt>
</event>
<event>
 5    1  0.3212987E-002  0.1249799E+03  0.7818608E-02  0.1235101E+00
         -4   -1    0    0    0  501 -0.00000000000E+00  0.00000000000E+00  0.88893431312E+03  0.88893522033E+03  0.12700000000E+01 0.  1.
          4   -1    0    0  501    0  0.00000000000E+00 -0.00000000000E+00 -0.43001740313E+01  0.44837926691E+01  0.12700000000E+01 0.  1.
         25    2    1    2    0    0  0.00000000000E+00  0.00000000000E+00  0.88463413909E+03  0.89341901300E+03  0.12497988937E+03 0.  0.
    9000005    1    3    3    0    0 -0.32402029865E+02  0.52550135561E+02  0.37353343272E+03  0.37860221031E+03  0.10000000000E+01 0.  0.
    9000005    1    3    3    0    0  0.32402029865E+02 -0.52550135561E+02  0.51110070637E+03  0.51481680270E+03  0.10000000000E+01 0.  0.
<mgrwt>
<rscale>  0 0.12497989E+03</rscale>
<asrwt>0</asrwt>
<pdfrwt beam="2">  1        4 0.67575987E-03 0.12497989E+03</pdfrwt>
<pdfrwt beam="1">  1       -4 0.13677325E+00 0.12497989E+03</pdfrwt>
<totfact> 0.34428292E+03</totfact>
</mgrwt>
</event>
<event>
 5    1  0.3212987E-002  0.1250010E+03  0.7818608E-02  0.1235068E+00
         -4   -1    0    0    0  501 -0.00000000000E+00  0.00000000000E+00  0.94850085132E+02  0.94858587116E+02  0.12700000000E+01 0. -1.
          4   -1    0    0  501    0  0.00000000000E+00 -0.00000000000E+00 -0.41163910885E+02  0.41183497415E+02  0.12700000000E+01 0. -1.
         25    2    1    2    0    0  0.00000000000E+00  0.00000000000E+00  0.53686174247E+02  0.13604208453E+03  0.12500097383E+03 0.  0.
    9000005    1    3    3    0    0 -0.11329528570E+02  0.60932639599E+02  0.18125172121E+02  0.64580698746E+02  0.10000000000E+01 0.  0.
    9000005    1    3    3    0    0  0.11329528570E+02 -0.60932639599E+02  0.35561002127E+02  0.71461385785E+02  0.10000000000E+01 0.  0.
<mgrwt>
<rscale>  0 0.12500097E+03</rscale>
<asrwt>0</asrwt>
<pdfrwt beam="2">  1        4 0.63350701E-02 0.12500097E+03</pdfrwt>
<pdfrwt beam="1">  1       -4 0.14594481E-01 0.12500097E+03</pdfrwt>
<totfact> 0.10215928E+04</totfact>
</mgrwt>
</event>
<event>
 5    1  0.3212987E-002  0.1250013E+03  0.7818608E-02  0.1235067E+00
          4   -1    0    0  501    0  0.00000000000E+00  0.00000000000E+00  0.29687254024E+02  0.29714406464E+02  0.12700000000E+01 0. -1.
         -4   -1    0    0    0  501 -0.00000000000E+00 -0.00000000000E+00 -0.13149234705E+03  0.13149847996E+03  0.12700000000E+01 0. -1.
         25    2    1    2    0    0  0.00000000000E+00  0.00000000000E+00 -0.10180509302E+03  0.16121288643E+03  0.12500127113E+03 0.  0.
    9000005    1    3    3    0    0 -0.42327747297E+00  0.21530471286E+02 -0.12656228443E+03  0.12838517125E+03  0.10000000000E+01 0.  0.
    9000005    1    3    3    0    0  0.42327747297E+00 -0.21530471286E+02  0.24757191402E+02  0.32827715176E+02  0.10000000000E+01 0.  0.
<mgrwt>
<rscale>  0 0.12500127E+03</rscale>
<asrwt>0</asrwt>
<pdfrwt beam="1">  1        4 0.45698303E-02 0.12500127E+03</pdfrwt>
<pdfrwt beam="2">  1       -4 0.20232152E-01 0.12500127E+03</pdfrwt>
<totfact> 0.97106684E+03</totfact>
</mgrwt>
</event>
<event>
 5    1  0.3212987E-002  0.1250002E+03  0.7818608E-02  0.1235069E+00
         -4   -1    0    0    0  501 -0.00000000000E+00  0.00000000000E+00  0.14003008062E+03  0.14003583962E+03  0.12700000000E+01 0. -1.
          4   -1    0    0  501    0  0.00000000000E+00 -0.00000000000E+00 -0.27875102008E+02  0.27904017846E+02  0.12700000000E+01 0. -1.
         25    2    1    2    0    0  0.00000000000E+00  0.00000000000E+00  0.11215497861E+03  0.16793985747E+03  0.12500022600E+03 0.  0.
    9000005    1    3    3    0    0  0.22454074182E+02  0.62889737532E+01  0.13397280028E+03  0.13599061678E+03  0.10000000000E+01 0.  0.
    9000005    1    3    3    0    0 -0.22454074182E+02 -0.62889737532E+01 -0.21817821666E+02  0.31949240687E+02  0.10000000000E+01 0.  0.
<mgrwt>
<rscale>  0 0.12500023E+03</rscale>
<asrwt>0</asrwt>
<pdfrwt beam="2">  1        4 0.42911445E-02 0.12500023E+03</pdfrwt>
<pdfrwt beam="1">  1       -4 0.21545757E-01 0.12500023E+03</pdfrwt>
<totfact> 0.95833022E+03</totfact>
</mgrwt>
</event>
<event>
 5    1  0.3212987E-002  0.1249999E+03  0.7818608E-02  0.1235069E+00
          4   -1    0    0  501    0  0.00000000000E+00  0.00000000000E+00  0.61298044790E+02  0.61311199589E+02  0.12700000000E+01 0.  1.
         -4   -1    0    0    0  501 -0.00000000000E+00 -0.00000000000E+00 -0.63699086589E+02  0.63711745638E+02  0.12700000000E+01 0.  1.
         25    2    1    2    0    0  0.00000000000E+00  0.00000000000E+00 -0.24010417994E+01  0.12502294523E+03  0.12499988733E+03 0.  0.
    9000005    1    3    3    0    0 -0.60621966043E+02 -0.71902790100E+00  0.13958237010E+02  0.62220351561E+02  0.10000000000E+01 0.  0.
    9000005    1    3    3    0    0  0.60621966043E+02  0.71902790100E+00 -0.16359278809E+02  0.62802593666E+02  0.10000000000E+01 0.  0.
<mgrwt>
<rscale>  0 0.12499989E+03</rscale>
<asrwt>0</asrwt>
<pdfrwt beam="1">  1        4 0.94324541E-02 0.12499989E+03</pdfrwt>
<pdfrwt beam="2">  1       -4 0.98018452E-02 0.12499989E+03</pdfrwt>
<totfact> 0.10452391E+04</totfact>
</mgrwt>
</event>
<event>
 5    1  0.3212987E-002  0.1249933E+03  0.7818608E-02  0.1235080E+00
         -4   -1    0    0    0  501 -0.00000000000E+00  0.00000000000E+00  0.15629896453E+03  0.15630412411E+03  0.12700000000E+01 0.  1.
          4   -1    0    0  501    0  0.00000000000E+00 -0.00000000000E+00 -0.24967796732E+02  0.25000075473E+02  0.12700000000E+01 0.  1.
         25    2    1    2    0    0  0.00000000000E+00  0.00000000000E+00  0.13133116780E+03  0.18130419958E+03  0.12499334843E+03 0.  0.
    9000005    1    3    3    0    0 -0.10415446714E+02  0.58436850537E+02  0.37334644244E+02  0.70130041293E+02  0.10000000000E+01 0.  0.
    9000005    1    3    3    0    0  0.10415446714E+02 -0.58436850537E+02  0.93996523555E+02  0.11117415829E+03  0.10000000000E+01 0.  0.
<mgrwt>
<rscale>  0 0.12499335E+03</rscale>
<asrwt>0</asrwt>
<pdfrwt beam="2">  1        4 0.38440794E-02 0.12499335E+03</pdfrwt>
<pdfrwt beam="1">  1       -4 0.24048874E-01 0.12499335E+03</pdfrwt>
<totfact> 0.93396695E+03</totfact>
</mgrwt>
</event>
<event>
 5    1  0.3212987E-002  0.1250017E+03  0.7818608E-02  0.1235067E+00
          4   -1    0    0  501    0  0.00000000000E+00  0.00000000000E+00  0.13454326702E+03  0.13454926087E+03  0.12700000000E+01 0.  1.
         -4   -1    0    0    0  501 -0.00000000000E+00 -0.00000000000E+00 -0.29013680081E+02  0.29041462288E+02  0.12700000000E+01 0.  1.
         25    2    1    2    0    0  0.00000000000E+00  0.00000000000E+00  0.10552958694E+03  0.16359072316E+03  0.12500172392E+03 0.  0.
    9000005    1    3    3    0    0 -0.30629986648E+02  0.39051131285E+02  0.30654078399E+01  0.49735135085E+02  0.10000000000E+01 0.  0.
    9000005    1    3    3    0    0  0.30629986648E+02 -0.39051131285E+02  0.10246417910E+03  0.11385558807E+03  0.10000000000E+01 0.  0.
<mgrwt>
<rscale>  0 0.12500172E+03</rscale>
<asrwt>0</asrwt>
<pdfrwt beam="1">  1        4 0.20701562E-01 0.12500172E+03</pdfrwt>
<pdfrwt beam="2">  1       -4 0.44662413E-02 0.12500172E+03</pdfrwt>
<totfact> 0.96651211E+03</totfact>
</mgrwt>
</event>
<event>
 5    1  0.3212987E-002  0.1249993E+03  0.7818608E-02  0.1235070E+00
         -4   -1    0    0    0  501 -0.00000000000E+00  0.00000000000E+00  0.15093408625E+04  0.15093413968E+04  0.12700000000E+01 0. -1.
          4   -1    0    0  501    0  0.00000000000E+00 -0.00000000000E+00 -0.24316508592E+01  0.27433238783E+01  0.12700000000E+01 0. -1.
         25    2    1    2    0    0  0.00000000000E+00  0.00000000000E+00  0.15069092116E+04  0.15120847207E+04  0.12499932159E+03 0.  0.
    9000005    1    3    3    0    0  0.86891045430E+01  0.52886563538E+02  0.11421947925E+04  0.11434519811E+04  0.10000000000E+01 0.  0.
    9000005    1    3    3    0    0 -0.86891045430E+01 -0.52886563538E+02  0.36471441915E+03  0.36863273957E+03  0.10000000000E+01 0.  0.
<mgrwt>
<rscale>  0 0.12499932E+03</rscale>
<asrwt>0</asrwt>
<pdfrwt beam="2">  1        4 0.39811518E-03 0.12499932E+03</pdfrwt>
<pdfrwt beam="1">  1       -4 0.23223083E+00 0.12499932E+03</pdfrwt>
<totfact> 0.17694267E+03</totfact>
</mgrwt>
</event>
<event>
 5    1  0.3212987E-002  0.1249965E+03  0.7818608E-02  0.1235075E+00
         -4   -1    0    0    0  501 -0.00000000000E+00  0.00000000000E+00  0.42686873680E+02  0.42705761726E+02  0.12700000000E+01 0. -1.
          4   -1    0    0  501    0  0.00000000000E+00 -0.00000000000E+00 -0.91460763449E+02  0.91469580466E+02  0.12700000000E+01 0. -1.
         25    2    1    2    0    0  0.00000000000E+00  0.00000000000E+00 -0.48773889769E+02  0.13417534219E+03  0.12499652047E+03 0.  0.
    9000005    1    3    3    0    0  0.38418166750E+02 -0.39605011704E+02  0.71017951297E+01  0.55641243539E+02  0.10000000000E+01 0.  0.
    9000005    1    3    3    0    0 -0.38418166750E+02  0.39605011704E+02 -0.55875684898E+02  0.78534098654E+02  0.10000000000E+01 0.  0.
<mgrwt>
<rscale>  0 0.12499652E+03</rscale>
<asrwt>0</asrwt>
<pdfrwt beam="2">  1        4 0.14073018E-01 0.12499652E+03</pdfrwt>
<pdfrwt beam="1">  1       -4 0.65693425E-02 0.12499652E+03</pdfrwt>
<totfact> 0.10256287E+04</totfact>
</mgrwt>
</event>
<event>
 5    1  0.3212987E-002  0.1250002E+03  0.7818608E-02  0.1235069E+00
          4   -1    0    0  501    0  0.00000000000E+00  0.00000000000E+00  0.60449456821E+02  0.60462796247E+02  0.12700000000E+01 0.  1.
         -4   -1    0    0    0  501 -0.00000000000E+00 -0.00000000000E+00 -0.64593615795E+02  0.64606099569E+02  0.12700000000E+01 0.  1.
         25    2    1    2    0    0  0.00000000000E+00  0.00000000000E+00 -0.41441589738E+01  0.12506889582E+03  0.12500021859E+03 0.  0.
    9000005    1    3    3    0    0 -0.37108166571E+01 -0.62246092344E+02 -0.61874268607E+01  0.62670809979E+02  0.10000000000E+01 0.  0.
    9000005    1    3    3    0    0  0.37108166571E+01  0.62246092344E+02  0.20432678869E+01  0.62398085836E+02  0.10000000000E+01 0.  0.
<mgrwt>
<rscale>  0 0.12500022E+03</rscale>
<asrwt>0</asrwt>
<pdfrwt beam="1">  1        4 0.93019028E-02 0.12500022E+03</pdfrwt>
<pdfrwt beam="2">  1       -4 0.99394658E-02 0.12500022E+03</pdfrwt>
<totfact> 0.10451315E+04</totfact>
</mgrwt>
</event>
<event>
 5    1  0.3212987E-002  0.1250002E+03  0.7818608E-02  0.1235069E+00
          4   -1    0    0  501    0  0.00000000000E+00  0.00000000000E+00  0.11351982729E+01  0.17034010446E+01  0.12700000000E+01 0. -1.
         -4   -1    0    0    0  501 -0.00000000000E+00 -0.00000000000E+00 -0.27516780175E+04  0.27516783106E+04  0.12700000000E+01 0. -1.
         25    2    1    2    0    0  0.00000000000E+00  0.00000000000E+00 -0.27505428193E+04  0.27533817117E+04  0.12500019793E+03 0.  0.
    9000005    1    3    3    0    0 -0.53997719152E+02  0.14741582761E+02 -0.19873667261E+04  0.19881550674E+04  0.10000000000E+01 0.  0.
    9000005    1    3    3    0    0  0.53997719152E+02 -0.14741582761E+02 -0.76317609315E+03  0.76522664427E+03  0.10000000000E+01 0.  0.
<mgrwt>
<rscale>  0 0.12500020E+03</rscale>
<asrwt>0</asrwt>
<pdfrwt beam="1">  1        4 0.21837854E-03 0.12500020E+03</pdfrwt>
<pdfrwt beam="2">  1       -4 0.42337454E+00 0.12500020E+03</pdfrwt>
<totfact> 0.29707018E+02</totfact>
</mgrwt>
</event>
<event>
 5    1  0.3212987E-002  0.1249999E+03  0.7818608E-02  0.1235069E+00
         -4   -1    0    0    0  501 -0.00000000000E+00  0.00000000000E+00  0.12906481993E+02  0.12968815576E+02  0.12700000000E+01 0.  1.
          4   -1    0    0  501    0  0.00000000000E+00 -0.00000000000E+00 -0.30186495669E+03  0.30186762823E+03  0.12700000000E+01 0.  1.
         25    2    1    2    0    0  0.00000000000E+00  0.00000000000E+00 -0.28895847469E+03  0.31483644381E+03  0.12499994501E+03 0.  0.
    9000005    1    3    3    0    0 -0.70177306522E+01  0.32599533630E+02 -0.27759562155E+03  0.27959311014E+03  0.10000000000E+01 0.  0.
    9000005    1    3    3    0    0  0.70177306522E+01 -0.32599533630E+02 -0.11362853146E+02  0.35243333667E+02  0.10000000000E+01 0.  0.
<mgrwt>
<rscale>  0 0.12499995E+03</rscale>
<asrwt>0</asrwt>
<pdfrwt beam="2">  1        4 0.46445758E-01 0.12499995E+03</pdfrwt>
<pdfrwt beam="1">  1       -4 0.19906132E-02 0.12499995E+03</pdfrwt>
<totfact> 0.73774592E+03</totfact>
</mgrwt>
</event>
<event>
 5    1  0.3212987E-002  0.1249987E+03  0.7818608E-02  0.1235071E+00
          4   -1    0    0  501    0  0.00000000000E+00  0.00000000000E+00  0.21410852336E+02  0.21448484743E+02  0.12700000000E+01 0.  1.
         -4   -1    0    0    0  501 -0.00000000000E+00 -0.00000000000E+00 -0.18223861987E+03  0.18224304505E+03  0.12700000000E+01 0.  1.
         25    2    1    2    0    0  0.00000000000E+00  0.00000000000E+00 -0.16082776753E+03  0.20369152980E+03  0.12499867400E+03 0.  0.
    9000005    1    3    3    0    0 -0.13490753484E+02 -0.31199537661E+02 -0.16586438356E+03  0.16931451595E+03  0.10000000000E+01 0.  0.
    9000005    1    3    3    0    0  0.13490753484E+02  0.31199537661E+02  0.50366160273E+01  0.34377013844E+02  0.10000000000E+01 0.  0.
<mgrwt>
<rscale>  0 0.12499867E+03</rscale>
<asrwt>0</asrwt>
<pdfrwt beam="1">  1        4 0.32972126E-02 0.12499867E+03</pdfrwt>
<pdfrwt beam="2">  1       -4 0.28039945E-01 0.12499867E+03</pdfrwt>
<totfact> 0.89519269E+03</totfact>
</mgrwt>
</event>
<event>
 5    1  0.3212987E-002  0.1249995E+03  0.7818608E-02  0.1235070E+00
         -4   -1    0    0    0  501 -0.00000000000E+00  0.00000000000E+00  0.94281034513E+02  0.94289587807E+02  0.12700000000E+01 0.  1.
          4   -1    0    0  501    0  0.00000000000E+00 -0.00000000000E+00 -0.41411479423E+02  0.41430948915E+02  0.12700000000E+01 0.  1.
         25    2    1    2    0    0  0.00000000000E+00  0.00000000000E+00  0.52869555091E+02  0.13572053672E+03  0.12499949693E+03 0.  0.
    9000005    1    3    3    0    0  0.43460804864E+01 -0.32108264870E+02  0.84453742932E+02  0.90461393886E+02  0.10000000000E+01 0.  0.
    9000005    1    3    3    0    0 -0.43460804864E+01  0.32108264870E+02 -0.31584187842E+02  0.45259142835E+02  0.10000000000E+01 0.  0.
<mgrwt>
<rscale>  0 0.12499950E+03</rscale>
<asrwt>0</asrwt>
<pdfrwt beam="2">  1        4 0.63731526E-02 0.12499950E+03</pdfrwt>
<pdfrwt beam="1">  1       -4 0.14506930E-01 0.12499950E+03</pdfrwt>
<totfact> 0.10223022E+04</totfact>
</mgrwt>
</event>
<event>
 5    1  0.3212987E-002  0.1249993E+03  0.7818608E-02  0.1235070E+00
         -4   -1    0    0    0  501 -0.00000000000E+00  0.00000000000E+00  0.16458831397E+02  0.16507756691E+02  0.12700000000E+01 0. -1.
          4   -1    0    0  501    0  0.00000000000E+00 -0.00000000000E+00 -0.23692896586E+03  0.23693236960E+03  0.12700000000E+01 0. -1.
         25    2    1    2    0    0  0.00000000000E+00  0.00000000000E+00 -0.22047013447E+03  0.25344012629E+03  0.12499926969E+03 0.  0.
    9000005    1    3    3    0    0  0.67038286340E+01  0.56004759972E+02 -0.16478021941E+03  0.17416944384E+03  0.10000000000E+01 0.  0.
    9000005    1    3    3    0    0 -0.67038286340E+01 -0.56004759972E+02 -0.55689915054E+02  0.79270682453E+02  0.10000000000E+01 0.  0.
<mgrwt>
<rscale>  0 0.12499927E+03</rscale>
<asrwt>0</asrwt>
<pdfrwt beam="2">  1        4 0.36454633E-01 0.12499927E+03</pdfrwt>
<pdfrwt beam="1">  1       -4 0.25361534E-02 0.12499927E+03</pdfrwt>
<totfact> 0.81836883E+03</totfact>
</mgrwt>
</event>
<event>
 5    1  0.3212987E-002  0.1249982E+03  0.7818608E-02  0.1235072E+00
         -4   -1    0    0    0  501 -0.00000000000E+00  0.00000000000E+00  0.10284475675E+04  0.10284483517E+04  0.12700000000E+01 0.  1.
          4   -1    0    0  501    0  0.00000000000E+00 -0.00000000000E+00 -0.36911189076E+01  0.39034931523E+01  0.12700000000E+01 0.  1.
         25    2    1    2    0    0  0.00000000000E+00  0.00000000000E+00  0.10247564486E+04  0.10323518448E+04  0.12499821007E+03 0.  0.
    9000005    1    3    3    0    0  0.23035896144E+02 -0.58040404034E+02  0.53226342766E+03  0.53591482293E+03  0.10000000000E+01 0.  0.
    9000005    1    3    3    0    0 -0.23035896144E+02  0.58040404034E+02  0.49249302097E+03  0.49643702190E+03  0.10000000000E+01 0.  0.
<mgrwt>
<rscale>  0 0.12499821E+03</rscale>
<asrwt>0</asrwt>
<pdfrwt beam="2">  1        4 0.58426139E-03 0.12499821E+03</pdfrwt>
<pdfrwt beam="1">  1       -4 0.15823906E+00 0.12499821E+03</pdfrwt>
<totfact> 0.29553433E+03</totfact>
</mgrwt>
</event>
<event>
 5    1  0.3212987E-002  0.1249972E+03  0.7818608E-02  0.1235074E+00
         -4   -1    0    0    0  501 -0.00000000000E+00  0.00000000000E+00  0.97877846014E+01  0.98698342136E+01  0.12700000000E+01 0. -1.
          4   -1    0    0  501    0  0.00000000000E+00 -0.00000000000E+00 -0.39732778322E+03  0.39732981290E+03  0.12700000000E+01 0. -1.
         25    2    1    2    0    0  0.00000000000E+00  0.00000000000E+00 -0.38753999862E+03  0.40719964711E+03  0.12499720829E+03 0.  0.
    9000005    1    3    3    0    0  0.33031056979E+02  0.37898961786E+02 -0.72854107697E+02  0.88521765900E+02  0.10000000000E+01 0.  0.
    9000005    1    3    3    0    0 -0.33031056979E+02 -0.37898961786E+02 -0.31468589092E+03  0.31867788121E+03  0.10000000000E+01 0.  0.
<mgrwt>
<rscale>  0 0.12499721E+03</rscale>
<asrwt>0</asrwt>
<pdfrwt beam="2">  1        4 0.61133806E-01 0.12499721E+03</pdfrwt>
<pdfrwt beam="1">  1       -4 0.15122810E-02 0.12499721E+03</pdfrwt>
<totfact> 0.63862473E+03</totfact>
</mgrwt>
</event>
<event>
 5    1  0.3212987E-002  0.1250205E+03  0.7818608E-02  0.1235037E+00
         -4   -1    0    0    0  501 -0.00000000000E+00  0.00000000000E+00  0.22409330510E+03  0.22409690380E+03  0.12700000000E+01 0. -1.
          4   -1    0    0  501    0  0.00000000000E+00 -0.00000000000E+00 -0.17410204840E+02  0.17456463920E+02  0.12700000000E+01 0. -1.
         25    2    1    2    0    0  0.00000000000E+00  0.00000000000E+00  0.20668310026E+03  0.24155336772E+03  0.12502050041E+03 0.  0.
    9000005    1    3    3    0    0 -0.35150076380E+02 -0.98954474303E+01  0.53341621433E+01  0.36917489556E+02  0.10000000000E+01 0.  0.
    9000005    1    3    3    0    0  0.35150076380E+02  0.98954474303E+01  0.20134893812E+03  0.20463587816E+03  0.10000000000E+01 0.  0.
<mgrwt>
<rscale>  0 0.12502050E+03</rscale>
<asrwt>0</asrwt>
<pdfrwt beam="2">  1        4 0.26823284E-02 0.12502050E+03</pdfrwt>
<pdfrwt beam="1">  1       -4 0.34479726E-01 0.12502050E+03</pdfrwt>
<totfact> 0.83528388E+03</totfact>
</mgrwt>
</event>
<event>
 5    1  0.3212987E-002  0.1250023E+03  0.7818608E-02  0.1235066E+00
          4   -1    0    0  501    0  0.00000000000E+00  0.00000000000E+00  0.16704788786E+03  0.16705271544E+03  0.12700000000E+01 0. -1.
         -4   -1    0    0    0  501 -0.00000000000E+00 -0.00000000000E+00 -0.23362461017E+02  0.23396954605E+02  0.12700000000E+01 0. -1.
         25    2    1    2    0    0  0.00000000000E+00  0.00000000000E+00  0.14368542684E+03  0.19044967005E+03  0.12500229972E+03 0.  0.
    9000005    1    3    3    0    0  0.59147378284E+02  0.19878581870E+02  0.77081523534E+02  0.99177273836E+02  0.10000000000E+01 0.  0.
    9000005    1    3    3    0    0 -0.59147378284E+02 -0.19878581870E+02  0.66603903303E+02  0.91272396212E+02  0.10000000000E+01 0.  0.
<mgrwt>
<rscale>  0 0.12500230E+03</rscale>
<asrwt>0</asrwt>
<pdfrwt beam="1">  1        4 0.25702700E-01 0.12500230E+03</pdfrwt>
<pdfrwt beam="2">  1       -4 0.35972494E-02 0.12500230E+03</pdfrwt>
<totfact> 0.91764404E+03</totfact>
</mgrwt>
</event>
<event>
 5    1  0.3212987E-002  0.1249983E+03  0.7818608E-02  0.1235072E+00
          4   -1    0    0  501    0  0.00000000000E+00  0.00000000000E+00  0.89608597466E+02  0.89617596709E+02  0.12700000000E+01 0. -1.
         -4   -1    0    0    0  501 -0.00000000000E+00 -0.00000000000E+00 -0.43570761686E+02  0.43589266728E+02  0.12700000000E+01 0. -1.
         25    2    1    2    0    0  0.00000000000E+00  0.00000000000E+00  0.46037835780E+02  0.13320686344E+03  0.12499834456E+03 0.  0.
    9000005    1    3    3    0    0 -0.28964390615E+02 -0.47415035044E+02  0.53498264036E+02  0.77137446981E+02  0.10000000000E+01 0.  0.
    9000005    1    3    3    0    0  0.28964390615E+02  0.47415035044E+02 -0.74604282558E+01  0.56069416455E+02  0.10000000000E+01 0.  0.
<mgrwt>
<rscale>  0 0.12499834E+03</rscale>
<asrwt>0</asrwt>
<pdfrwt beam="1">  1        4 0.13788054E-01 0.12499834E+03</pdfrwt>
<pdfrwt beam="2">  1       -4 0.67053099E-02 0.12499834E+03</pdfrwt>
<totfact> 0.10276389E+04</totfact>
</mgrwt>
</event>
<event>
 5    1  0.3212987E-002  0.1249988E+03  0.7818608E-02  0.1235071E+00
         -4   -1    0    0    0  501 -0.00000000000E+00  0.00000000000E+00  0.40351058057E+01  0.42302457213E+01  0.12700000000E+01 0.  1.
          4   -1    0    0  501    0  0.00000000000E+00 -0.00000000000E+00 -0.94499764236E+03  0.94499849575E+03  0.12700000000E+01 0.  1.
         25    2    1    2    0    0  0.00000000000E+00  0.00000000000E+00 -0.94096253655E+03  0.94922874147E+03  0.12499883373E+03 0.  0.
    9000005    1    3    3    0    0  0.57559558497E+02 -0.16347487401E+02 -0.60734729247E+03  0.61028851930E+03  0.10000000000E+01 0.  0.
    9000005    1    3    3    0    0 -0.57559558497E+02  0.16347487401E+02 -0.33361524408E+03  0.33894022217E+03  0.10000000000E+01 0.  0.
<mgrwt>
<rscale>  0 0.12499883E+03</rscale>
<asrwt>0</asrwt>
<pdfrwt beam="2">  1        4 0.14539916E+00 0.12499883E+03</pdfrwt>
<pdfrwt beam="1">  1       -4 0.63586267E-03 0.12499883E+03</pdfrwt>
<totfact> 0.32344230E+03</totfact>
</mgrwt>
</event>
<event>
 5    1  0.3212987E-002  0.1250027E+03  0.7818608E-02  0.1235065E+00
          4   -1    0    0  501    0  0.00000000000E+00  0.00000000000E+00  0.47601235829E+02  0.47618174602E+02  0.12700000000E+01 0.  1.
         -4   -1    0    0    0  501 -0.00000000000E+00 -0.00000000000E+00 -0.82029100982E+02  0.82038931660E+02  0.12700000000E+01 0.  1.
         25    2    1    2    0    0  0.00000000000E+00  0.00000000000E+00 -0.34427865153E+02  0.12965710626E+03  0.12500274919E+03 0.  0.
    9000005    1    3    3    0    0  0.44910914974E+01  0.58075407016E+02  0.62674292756E+01  0.58593544633E+02  0.10000000000E+01 0.  0.
    9000005    1    3    3    0    0 -0.44910914974E+01 -0.58075407016E+02 -0.40695294428E+02  0.71063561630E+02  0.10000000000E+01 0.  0.
<mgrwt>
<rscale>  0 0.12500275E+03</rscale>
<asrwt>0</asrwt>
<pdfrwt beam="1">  1        4 0.73253262E-02 0.12500275E+03</pdfrwt>
<pdfrwt beam="2">  1       -4 0.12621921E-01 0.12500275E+03</pdfrwt>
<totfact> 0.10351206E+04</totfact>
</mgrwt>
</event>
<event>
 5    1  0.3212987E-002  0.1249990E+03  0.7818608E-02  0.1235071E+00
         -4   -1    0    0    0  501 -0.00000000000E+00  0.00000000000E+00  0.20062699876E+02  0.20102856173E+02  0.12700000000E+01 0. -1.
          4   -1    0    0  501    0  0.00000000000E+00 -0.00000000000E+00 -0.19446210858E+03  0.19446625562E+03  0.12700000000E+01 0. -1.
         25    2    1    2    0    0  0.00000000000E+00  0.00000000000E+00 -0.17439940871E+03  0.21456911179E+03  0.12499899991E+03 0.  0.
    9000005    1    3    3    0    0 -0.27153892458E+02 -0.82560265872E+01 -0.18276933584E+03  0.18496249884E+03  0.10000000000E+01 0.  0.
    9000005    1    3    3    0    0  0.27153892458E+02  0.82560265872E+01  0.83699271356E+01  0.29606612959E+02  0.10000000000E+01 0.  0.
<mgrwt>
<rscale>  0 0.12499900E+03</rscale>
<asrwt>0</asrwt>
<pdfrwt beam="2">  1        4 0.29920654E-01 0.12499900E+03</pdfrwt>
<pdfrwt beam="1">  1       -4 0.30899773E-02 0.12499900E+03</pdfrwt>
<totfact> 0.87737041E+03</totfact>
</mgrwt>
</event>
<event>
 5    1  0.3212987E-002  0.1249985E+03  0.7818608E-02  0.1235072E+00
          4   -1    0    0  501    0  0.00000000000E+00  0.00000000000E+00  0.32393805768E+02  0.32418691400E+02  0.12700000000E+01 0. -1.
         -4   -1    0    0    0  501 -0.00000000000E+00 -0.00000000000E+00 -0.12050898126E+03  0.12051567310E+03  0.12700000000E+01 0. -1.
         25    2    1    2    0    0  0.00000000000E+00  0.00000000000E+00 -0.88115175490E+02  0.15293436450E+03  0.12499854277E+03 0.  0.
    9000005    1    3    3    0    0  0.52712955845E+02  0.16733490546E+02 -0.84607066790E+01  0.55957564076E+02  0.10000000000E+01 0.  0.
    9000005    1    3    3    0    0 -0.52712955845E+02 -0.16733490546E+02 -0.79654468811E+02  0.96976800429E+02  0.10000000000E+01 0.  0.
<mgrwt>
<rscale>  0 0.12499854E+03</rscale>
<asrwt>0</asrwt>
<pdfrwt beam="1">  1        4 0.49860915E-02 0.12499854E+03</pdfrwt>
<pdfrwt beam="2">  1       -4 0.18542272E-01 0.12499854E+03</pdfrwt>
<totfact> 0.98725197E+03</totfact>
</mgrwt>
</event>
<event>
 5    1  0.3212987E-002  0.1249993E+03  0.7818608E-02  0.1235070E+00
         -4   -1    0    0    0  501 -0.00000000000E+00  0.00000000000E+00  0.27281446229E+02  0.27310990615E+02  0.12700000000E+01 0. -1.
          4   -1    0    0  501    0  0.00000000000E+00 -0.00000000000E+00 -0.14307194790E+03  0.14307758447E+03  0.12700000000E+01 0. -1.
         25    2    1    2    0    0  0.00000000000E+00  0.00000000000E+00 -0.11579050167E+03  0.17038857508E+03  0.12499930496E+03 0.  0.
    9000005    1    3    3    0    0 -0.14345127032E+02  0.27960472156E+02 -0.13152416893E+03  0.13523009164E+03  0.10000000000E+01 0.  0.
    9000005    1    3    3    0    0  0.14345127032E+02 -0.27960472156E+02  0.15733667254E+02  0.35158483442E+02  0.10000000000E+01 0.  0.
<mgrwt>
<rscale>  0 0.12499930E+03</rscale>
<asrwt>0</asrwt>
<pdfrwt beam="2">  1        4 0.22013775E-01 0.12499930E+03</pdfrwt>
<pdfrwt beam="1">  1       -4 0.41998519E-02 0.12499930E+03</pdfrwt>
<totfact> 0.95377749E+03</totfact>
</mgrwt>
</event>
<event>
 5    1  0.3212987E-002  0.1249995E+03  0.7818608E-02  0.1235070E+00
         -4   -1    0    0    0  501 -0.00000000000E+00  0.00000000000E+00  0.93562416912E+01  0.94420420770E+01  0.12700000000E+01 0. -1.
          4   -1    0    0  501    0  0.00000000000E+00 -0.00000000000E+00 -0.41550623717E+03  0.41550817805E+03  0.12700000000E+01 0. -1.
         25    2    1    2    0    0  0.00000000000E+00  0.00000000000E+00 -0.40614999548E+03  0.42495022013E+03  0.12499948304E+03 0.  0.
    9000005    1    3    3    0    0 -0.39185807152E+02  0.29491980401E+02 -0.71412248393E+02  0.86637253019E+02  0.10000000000E+01 0.  0.
    9000005    1    3    3    0    0  0.39185807152E+02 -0.29491980401E+02 -0.33473774709E+03  0.33831296711E+03  0.10000000000E+01 0.  0.
<mgrwt>
<rscale>  0 0.12499948E+03</rscale>
<asrwt>0</asrwt>
<pdfrwt beam="2">  1        4 0.63930772E-01 0.12499948E+03</pdfrwt>
<pdfrwt beam="1">  1       -4 0.14461715E-02 0.12499948E+03</pdfrwt>
<totfact> 0.62197121E+03</totfact>
</mgrwt>
</event>
<event>
 5    1  0.3212987E-002  0.1249996E+03  0.7818608E-02  0.1235070E+00
          4   -1    0    0  501    0  0.00000000000E+00  0.00000000000E+00  0.22832006214E+03  0.22832359422E+03  0.12700000000E+01 0. -1.
         -4   -1    0    0    0  501 -0.00000000000E+00 -0.00000000000E+00 -0.17081319529E+02  0.17128466857E+02  0.12700000000E+01 0. -1.
         25    2    1    2    0    0  0.00000000000E+00  0.00000000000E+00  0.21123874261E+03  0.24545206107E+03  0.12499963162E+03 0.  0.
    9000005    1    3    3    0    0  0.39110969796E+02 -0.35191670096E+02  0.17183466445E+03  0.17971163988E+03  0.10000000000E+01 0.  0.
    9000005    1    3    3    0    0 -0.39110969796E+02  0.35191670096E+02  0.39404078161E+02  0.65740421191E+02  0.10000000000E+01 0.  0.
<mgrwt>
<rscale>  0 0.12499963E+03</rscale>
<asrwt>0</asrwt>
<pdfrwt beam="1">  1        4 0.35130063E-01 0.12499963E+03</pdfrwt>
<pdfrwt beam="2">  1       -4 0.26317937E-02 0.12499963E+03</pdfrwt>
<totfact> 0.82992701E+03</totfact>
</mgrwt>
</event>
<event>
 5    1  0.3212987E-002  0.1249992E+03  0.7818608E-02  0.1235071E+00
         -4   -1    0    0    0  501 -0.00000000000E+00  0.00000000000E+00  0.26226098406E+03  0.26226405903E+03  0.12700000000E+01 0.  1.
          4   -1    0    0  501    0  0.00000000000E+00 -0.00000000000E+00 -0.14864081978E+02  0.14918238269E+02  0.12700000000E+01 0.  1.
         25    2    1    2    0    0  0.00000000000E+00  0.00000000000E+00  0.24739690208E+03  0.27718229730E+03  0.12499919511E+03 0.  0.
    9000005    1    3    3    0    0 -0.24013408036E+02  0.46204422274E+02  0.20031228509E+03  0.20697222993E+03  0.10000000000E+01 0.  0.
    9000005    1    3    3    0    0  0.24013408036E+02 -0.46204422274E+02  0.47084616988E+02  0.70210067370E+02  0.10000000000E+01 0.  0.
<mgrwt>
<rscale>  0 0.12499920E+03</rscale>
<asrwt>0</asrwt>
<pdfrwt beam="2">  1        4 0.22911844E-02 0.12499920E+03</pdfrwt>
<pdfrwt beam="1">  1       -4 0.40352243E-01 0.12499920E+03</pdfrwt>
<totfact> 0.78554608E+03</totfact>
</mgrwt>
</event>
<event>
 5    1  0.3212987E-002  0.1249987E+03  0.7818608E-02  0.1235071E+00
          4   -1    0    0  501    0  0.00000000000E+00  0.00000000000E+00  0.21246952554E+02  0.21284874743E+02  0.12700000000E+01 0.  1.
         -4   -1    0    0    0  501 -0.00000000000E+00 -0.00000000000E+00 -0.18364189236E+03  0.18364628373E+03  0.12700000000E+01 0.  1.
         25    2    1    2    0    0  0.00000000000E+00  0.00000000000E+00 -0.16239493981E+03  0.20493115848E+03  0.12499865295E+03 0.  0.
    9000005    1    3    3    0    0 -0.30125502601E+02 -0.53005316255E+02 -0.58714863076E+02  0.84649539894E+02  0.10000000000E+01 0.  0.
    9000005    1    3    3    0    0  0.30125502601E+02  0.53005316255E+02 -0.10368007673E+03  0.12028161858E+03  0.10000000000E+01 0.  0.
<mgrwt>
<rscale>  0 0.12499865E+03</rscale>
<asrwt>0</asrwt>
<pdfrwt beam="1">  1        4 0.32720169E-02 0.12499865E+03</pdfrwt>
<pdfrwt beam="2">  1       -4 0.28255853E-01 0.12499865E+03</pdfrwt>
<totfact> 0.89313129E+03</totfact>
</mgrwt>
</event>
<event>
 5    1  0.3212987E-002  0.1250040E+03  0.7818608E-02  0.1235063E+00
         -4   -1    0    0    0  501 -0.00000000000E+00  0.00000000000E+00  0.89285953025E+02  0.89294984784E+02  0.12700000000E+01 0. -1.
          4   -1    0    0  501    0  0.00000000000E+00 -0.00000000000E+00 -0.43732193894E+02  0.43750630656E+02  0.12700000000E+01 0. -1.
         25    2    1    2    0    0  0.00000000000E+00  0.00000000000E+00  0.45553759131E+02  0.13304561544E+03  0.12500396320E+03 0.  0.
    9000005    1    3    3    0    0  0.39653674989E+02  0.28279195871E+02  0.64454257208E+02  0.80792809899E+02  0.10000000000E+01 0.  0.
    9000005    1    3    3    0    0 -0.39653674989E+02 -0.28279195871E+02 -0.18900498077E+02  0.52252805540E+02  0.10000000000E+01 0.  0.
<mgrwt>
<rscale>  0 0.12500396E+03</rscale>
<asrwt>0</asrwt>
<pdfrwt beam="2">  1        4 0.67301429E-02 0.12500396E+03</pdfrwt>
<pdfrwt beam="1">  1       -4 0.13738413E-01 0.12500396E+03</pdfrwt>
<totfact> 0.10278512E+04</totfact>
</mgrwt>
</event>
<event>
 5    1  0.3212987E-002  0.1250017E+03  0.7818608E-02  0.1235067E+00
         -4   -1    0    0    0  501 -0.00000000000E+00  0.00000000000E+00  0.56798945848E+03  0.56799087831E+03  0.12700000000E+01 0.  1.
          4   -1    0    0  501    0  0.00000000000E+00 -0.00000000000E+00 -0.68174465692E+01  0.69347298234E+01  0.12700000000E+01 0.  1.
         25    2    1    2    0    0  0.00000000000E+00  0.00000000000E+00  0.56117201191E+03  0.57492560813E+03  0.12500171173E+03 0.  0.
    9000005    1    3    3    0    0 -0.13364728501E+02 -0.58230382581E+02  0.19628324837E+03  0.20517677016E+03  0.10000000000E+01 0.  0.
    9000005    1    3    3    0    0  0.13364728501E+02  0.58230382581E+02  0.36488876354E+03  0.36974883797E+03  0.10000000000E+01 0.  0.
<mgrwt>
<rscale>  0 0.12500171E+03</rscale>
<asrwt>0</asrwt>
<pdfrwt beam="2">  1        4 0.10579683E-02 0.12500171E+03</pdfrwt>
<pdfrwt beam="1">  1       -4 0.87392175E-01 0.12500171E+03</pdfrwt>
<totfact> 0.50487703E+03</totfact>
</mgrwt>
</event>
<event>
 5    1  0.3212987E-002  0.1250027E+03  0.7818608E-02  0.1235065E+00
         -4   -1    0    0    0  501 -0.00000000000E+00  0.00000000000E+00  0.49136471319E+03  0.49136635443E+03  0.12700000000E+01 0. -1.
          4   -1    0    0  501    0  0.00000000000E+00 -0.00000000000E+00 -0.78977582596E+01  0.79992178073E+01  0.12700000000E+01 0. -1.
         25    2    1    2    0    0  0.00000000000E+00  0.00000000000E+00  0.48346695493E+03  0.49936557224E+03  0.12500271289E+03 0.  0.
    9000005    1    3    3    0    0  0.58332466757E+02  0.89896374207E+00  0.15223352841E+03  0.16303230350E+03  0.10000000000E+01 0.  0.
    9000005    1    3    3    0    0 -0.58332466757E+02 -0.89896374207E+00  0.33123342652E+03  0.33633326874E+03  0.10000000000E+01 0.  0.
<mgrwt>
<rscale>  0 0.12500271E+03</rscale>
<asrwt>0</asrwt>
<pdfrwt beam="2">  1        4 0.12229702E-02 0.12500271E+03</pdfrwt>
<pdfrwt beam="1">  1       -4 0.75602521E-01 0.12500271E+03</pdfrwt>
<totfact> 0.55910277E+03</totfact>
</mgrwt>
</event>
<event>
 5    1  0.3212987E-002  0.1250050E+03  0.7818608E-02  0.1235062E+00
          4   -1    0    0  501    0  0.00000000000E+00  0.00000000000E+00  0.41721803464E+02  0.41741128210E+02  0.12700000000E+01 0.  1.
         -4   -1    0    0    0  501 -0.00000000000E+00 -0.00000000000E+00 -0.93588215927E+02  0.93596832534E+02  0.12700000000E+01 0.  1.
         25    2    1    2    0    0  0.00000000000E+00  0.00000000000E+00 -0.51866412464E+02  0.13533796074E+03  0.12500495541E+03 0.  0.
    9000005    1    3    3    0    0 -0.93805962293E+00  0.58707297554E+02 -0.27598906588E+01  0.58788125828E+02  0.10000000000E+01 0.  0.
    9000005    1    3    3    0    0  0.93805962293E+00 -0.58707297554E+02 -0.49106521805E+02  0.76549834916E+02  0.10000000000E+01 0.  0.
<mgrwt>
<rscale>  0 0.12500496E+03</rscale>
<asrwt>0</asrwt>
<pdfrwt beam="1">  1        4 0.64208883E-02 0.12500496E+03</pdfrwt>
<pdfrwt beam="2">  1       -4 0.14400336E-01 0.12500496E+03</pdfrwt>
<totfact> 0.10229809E+04</totfact>
</mgrwt>
</event>
<event>
 5    1  0.3212987E-002  0.1250000E+03  0.7818608E-02  0.1235069E+00
          4   -1    0    0  501    0  0.00000000000E+00  0.00000000000E+00  0.22814377791E+03  0.22814731271E+03  0.12700000000E+01 0.  1.
         -4   -1    0    0    0  501 -0.00000000000E+00 -0.00000000000E+00 -0.17094666989E+02  0.17141777605E+02  0.12700000000E+01 0.  1.
         25    2    1    2    0    0  0.00000000000E+00  0.00000000000E+00  0.21104911092E+03  0.24528909032E+03  0.12500004244E+03 0.  0.
    9000005    1    3    3    0    0  0.27634985672E+02 -0.54839492122E+02  0.82793025276E+02  0.10308611625E+03  0.10000000000E+01 0.  0.
    9000005    1    3    3    0    0 -0.27634985672E+02  0.54839492122E+02  0.12825608564E+03  0.14220297407E+03  0.10000000000E+01 0.  0.
<mgrwt>
<rscale>  0 0.12500004E+03</rscale>
<asrwt>0</asrwt>
<pdfrwt beam="1">  1        4 0.35102938E-01 0.12500004E+03</pdfrwt>
<pdfrwt beam="2">  1       -4 0.26338446E-02 0.12500004E+03</pdfrwt>
<totfact> 0.83015825E+03</totfact>
</mgrwt>
</event>
<event>
 5    1  0.3212987E-002  0.1250018E+03  0.7818608E-02  0.1235066E+00
         -4   -1    0    0    0  501 -0.00000000000E+00  0.00000000000E+00  0.13135579425E+02  0.13196830939E+02  0.12700000000E+01 0.  1.
          4   -1    0    0  501    0  0.00000000000E+00 -0.00000000000E+00 -0.29663374048E+03  0.29663645914E+03  0.12700000000E+01 0.  1.
         25    2    1    2    0    0  0.00000000000E+00  0.00000000000E+00 -0.28349816105E+03  0.30983329008E+03  0.12500184127E+03 0.  0.
    9000005    1    3    3    0    0  0.15409834079E+02 -0.82736811431E+01  0.69573120174E+01  0.18849959589E+02  0.10000000000E+01 0.  0.
    9000005    1    3    3    0    0 -0.15409834079E+02  0.82736811431E+01 -0.29045547307E+03  0.29098333049E+03  0.10000000000E+01 0.  0.
<mgrwt>
<rscale>  0 0.12500184E+03</rscale>
<asrwt>0</asrwt>
<pdfrwt beam="2">  1        4 0.45640876E-01 0.12500184E+03</pdfrwt>
<pdfrwt beam="1">  1       -4 0.20257794E-02 0.12500184E+03</pdfrwt>
<totfact> 0.74378659E+03</totfact>
</mgrwt>
</event>
<event>
 5    1  0.3212987E-002  0.1250277E+03  0.7818608E-02  0.1235026E+00
         -4   -1    0    0    0  501 -0.00000000000E+00  0.00000000000E+00  0.32715214250E+02  0.32739855581E+02  0.12700000000E+01 0.  1.
          4   -1    0    0  501    0  0.00000000000E+00 -0.00000000000E+00 -0.11938149517E+03  0.11938825021E+03  0.12700000000E+01 0.  1.
         25    2    1    2    0    0  0.00000000000E+00  0.00000000000E+00 -0.86666280915E+02  0.15212810579E+03  0.12502766223E+03 0.  0.
    9000005    1    3    3    0    0 -0.42116705850E+02 -0.18132537035E+02  0.83520997858E+01  0.46619345575E+02  0.10000000000E+01 0.  0.
    9000005    1    3    3    0    0  0.42116705850E+02  0.18132537035E+02 -0.95018380701E+02  0.10550876021E+03  0.10000000000E+01 0.  0.
<mgrwt>
<rscale>  0 0.12502766E+03</rscale>
<asrwt>0</asrwt>
<pdfrwt beam="2">  1        4 0.18368799E-01 0.12502766E+03</pdfrwt>
<pdfrwt beam="1">  1       -4 0.50355251E-02 0.12502766E+03</pdfrwt>
<totfact> 0.98819652E+03</totfact>
</mgrwt>
</event>
<event>
 5    1  0.3212987E-002  0.1250003E+03  0.7818608E-02  0.1235069E+00
          4   -1    0    0  501    0  0.00000000000E+00  0.00000000000E+00  0.93826164442E+02  0.93834759199E+02  0.12700000000E+01 0. -1.
         -4   -1    0    0    0  501 -0.00000000000E+00 -0.00000000000E+00 -0.41612883010E+02  0.41632258315E+02  0.12700000000E+01 0. -1.
         25    2    1    2    0    0  0.00000000000E+00  0.00000000000E+00  0.52213281432E+02  0.13546701751E+03  0.12500034430E+03 0.  0.
    9000005    1    3    3    0    0  0.34462838890E+02 -0.46557575563E+01  0.82376380661E+02  0.89421649691E+02  0.10000000000E+01 0.  0.
    9000005    1    3    3    0    0 -0.34462838890E+02  0.46557575563E+01 -0.30163099228E+02  0.46045367822E+02  0.10000000000E+01 0.  0.
<mgrwt>
<rscale>  0 0.12500034E+03</rscale>
<asrwt>0</asrwt>
<pdfrwt beam="1">  1        4 0.14436946E-01 0.12500034E+03</pdfrwt>
<pdfrwt beam="2">  1       -4 0.64041336E-02 0.12500034E+03</pdfrwt>
<totfact> 0.10228157E+04</totfact>
</mgrwt>
</event>
<event>
 4    1  0.3212987E-002  0.1251112E+03  0.7818608E-02  0.1234896E+00
          4   -1    0    0  501    0  0.00000000000E+00  0.00000000000E+00  0.21696011120E+02  0.21733149761E+02  0.12700000000E+01 0. -1.
         -4   -1    0    0    0  501 -0.00000000000E+00 -0.00000000000E+00 -0.18017150783E+03  0.18017598379E+03  0.12700000000E+01 0. -1.
    9000005    1    1    2    0    0  0.40961766353E+02 -0.25020675842E+02 -0.14395852330E+03  0.15175294710E+03  0.10000000000E+01 0.  0.
    9000005    1    1    2    0    0 -0.40961766353E+02  0.25020675842E+02 -0.14516973410E+02  0.50156186451E+02  0.10000000000E+01 0.  0.
<mgrwt>
<rscale>  0 0.12511121E+03</rscale>
<asrwt>0</asrwt>
<pdfrwt beam="1">  1        4 0.33410491E-02 0.12511121E+03</pdfrwt>
<pdfrwt beam="2">  1       -4 0.27721894E-01 0.12511121E+03</pdfrwt>
<totfact> 0.89591405E+03</totfact>
</mgrwt>
</event>
<event>
 5    1  0.3212987E-002  0.1249801E+03  0.7818608E-02  0.1235100E+00
         -4   -1    0    0    0  501 -0.00000000000E+00  0.00000000000E+00  0.20305545701E+02  0.20345222688E+02  0.12700000000E+01 0. -1.
          4   -1    0    0  501    0  0.00000000000E+00 -0.00000000000E+00 -0.19208282105E+03  0.19208701945E+03  0.12700000000E+01 0. -1.
         25    2    1    2    0    0  0.00000000000E+00  0.00000000000E+00 -0.17177727535E+03  0.21243224214E+03  0.12498009912E+03 0.  0.
    9000005    1    3    3    0    0  0.42388859571E+02  0.39762477006E+02 -0.46900840190E+02  0.74689750327E+02  0.10000000000E+01 0.  0.
    9000005    1    3    3    0    0 -0.42388859571E+02 -0.39762477006E+02 -0.12487643516E+03  0.13774249181E+03  0.10000000000E+01 0.  0.
<mgrwt>
<rscale>  0 0.12498010E+03</rscale>
<asrwt>0</asrwt>
<pdfrwt beam="2">  1        4 0.29554577E-01 0.12498010E+03</pdfrwt>
<pdfrwt beam="1">  1       -4 0.31273053E-02 0.12498010E+03</pdfrwt>
<totfact> 0.88119390E+03</totfact>
</mgrwt>
</event>
<event>
 5    1  0.3212987E-002  0.1250030E+03  0.7818608E-02  0.1235065E+00
         -4   -1    0    0    0  501 -0.00000000000E+00  0.00000000000E+00  0.16580071260E+03  0.16580557650E+03  0.12700000000E+01 0. -1.
          4   -1    0    0  501    0  0.00000000000E+00 -0.00000000000E+00 -0.23538719077E+02  0.23572954753E+02  0.12700000000E+01 0. -1.
         25    2    1    2    0    0  0.00000000000E+00  0.00000000000E+00  0.14226199352E+03  0.18937853125E+03  0.12500301316E+03 0.  0.
    9000005    1    3    3    0    0 -0.58432867227E+02  0.22127489414E+02  0.72931584969E+02  0.96041875483E+02  0.10000000000E+01 0.  0.
    9000005    1    3    3    0    0  0.58432867227E+02 -0.22127489414E+02  0.69330408553E+02  0.93336655769E+02  0.10000000000E+01 0.  0.
<mgrwt>
<rscale>  0 0.12500301E+03</rscale>
<asrwt>0</asrwt>
<pdfrwt beam="2">  1        4 0.36243491E-02 0.12500301E+03</pdfrwt>
<pdfrwt beam="1">  1       -4 0.25510809E-01 0.12500301E+03</pdfrwt>
<totfact> 0.91949354E+03</totfact>
</mgrwt>
</event>
<event>
 5    1  0.3212987E-002  0.1249887E+03  0.7818608E-02  0.1235087E+00
          4   -1    0    0  501    0  0.00000000000E+00  0.00000000000E+00  0.56683601793E+02  0.56697827226E+02  0.12700000000E+01 0. -1.
         -4   -1    0    0    0  501 -0.00000000000E+00 -0.00000000000E+00 -0.68872061597E+02  0.68883769995E+02  0.12700000000E+01 0. -1.
         25    2    1    2    0    0  0.00000000000E+00  0.00000000000E+00 -0.12188459805E+02  0.12558159722E+03  0.12498871552E+03 0.  0.
    9000005    1    3    3    0    0  0.18336203789E+02 -0.56680466380E+02 -0.25042453675E+02  0.64629839274E+02  0.10000000000E+01 0.  0.
    9000005    1    3    3    0    0 -0.18336203789E+02  0.56680466380E+02  0.12853993870E+02  0.60951757947E+02  0.10000000000E+01 0.  0.
<mgrwt>
<rscale>  0 0.12498872E+03</rscale>
<asrwt>0</asrwt>
<pdfrwt beam="1">  1        4 0.87225491E-02 0.12498872E+03</pdfrwt>
<pdfrwt beam="2">  1       -4 0.10597697E-01 0.12498872E+03</pdfrwt>
<totfact> 0.10442811E+04</totfact>
</mgrwt>
</event>
<event>
 5    1  0.3212987E-002  0.1250033E+03  0.7818608E-02  0.1235064E+00
          4   -1    0    0  501    0  0.00000000000E+00  0.00000000000E+00  0.12611943425E+03  0.12612582842E+03  0.12700000000E+01 0.  1.
         -4   -1    0    0    0  501 -0.00000000000E+00 -0.00000000000E+00 -0.30954059351E+02  0.30980101522E+02  0.12700000000E+01 0.  1.
         25    2    1    2    0    0  0.00000000000E+00  0.00000000000E+00  0.95165374899E+02  0.15710592995E+03  0.12500329853E+03 0.  0.
    9000005    1    3    3    0    0  0.40648196738E+01  0.44125866081E+02 -0.78005037605E+01  0.45005140543E+02  0.10000000000E+01 0.  0.
    9000005    1    3    3    0    0 -0.40648196738E+01 -0.44125866081E+02  0.10296587866E+03  0.11210078940E+03  0.10000000000E+01 0.  0.
<mgrwt>
<rscale>  0 0.12500330E+03</rscale>
<asrwt>0</asrwt>
<pdfrwt beam="1">  1        4 0.19405485E-01 0.12500330E+03</pdfrwt>
<pdfrwt beam="2">  1       -4 0.47646581E-02 0.12500330E+03</pdfrwt>
<totfact> 0.97896397E+03</totfact>
</mgrwt>
</event>
<event>
 5    1  0.3212987E-002  0.1249807E+03  0.7818608E-02  0.1235099E+00
         -4   -1    0    0    0  501 -0.00000000000E+00  0.00000000000E+00  0.24550230248E+02  0.24583057280E+02  0.12700000000E+01 0. -1.
          4   -1    0    0  501    0  0.00000000000E+00 -0.00000000000E+00 -0.15892184216E+03  0.15892691659E+03  0.12700000000E+01 0. -1.
         25    2    1    2    0    0  0.00000000000E+00  0.00000000000E+00 -0.13437161191E+03  0.18350997387E+03  0.12498072020E+03 0.  0.
    9000005    1    3    3    0    0 -0.43775450672E+02  0.29045440648E+02 -0.17520633722E+02  0.55388629790E+02  0.10000000000E+01 0.  0.
    9000005    1    3    3    0    0  0.43775450672E+02 -0.29045440648E+02 -0.11685097819E+03  0.12812134408E+03  0.10000000000E+01 0.  0.
<mgrwt>
<rscale>  0 0.12498072E+03</rscale>
<asrwt>0</asrwt>
<pdfrwt beam="2">  1        4 0.24452429E-01 0.12498072E+03</pdfrwt>
<pdfrwt beam="1">  1       -4 0.37798741E-02 0.12498072E+03</pdfrwt>
<totfact> 0.93029181E+03</totfact>
</mgrwt>
</event>
<event>
 5    1  0.3212987E-002  0.1250003E+03  0.7818608E-02  0.1235069E+00
         -4   -1    0    0    0  501 -0.00000000000E+00  0.00000000000E+00  0.13767274611E+03  0.13767860372E+03  0.12700000000E+01 0. -1.
          4   -1    0    0  501    0  0.00000000000E+00 -0.00000000000E+00 -0.28352917350E+02  0.28381346379E+02  0.12700000000E+01 0. -1.
         25    2    1    2    0    0  0.00000000000E+00  0.00000000000E+00  0.10931982876E+03  0.16605995010E+03  0.12500032826E+03 0.  0.
    9000005    1    3    3    0    0  0.47857101443E+02 -0.36659737887E+02  0.32789147306E+02  0.68632111446E+02  0.10000000000E+01 0.  0.
    9000005    1    3    3    0    0 -0.47857101443E+02  0.36659737887E+02  0.76530681459E+02  0.97427838655E+02  0.10000000000E+01 0.  0.
<mgrwt>
<rscale>  0 0.12500033E+03</rscale>
<asrwt>0</asrwt>
<pdfrwt beam="2">  1        4 0.43646247E-02 0.12500033E+03</pdfrwt>
<pdfrwt beam="1">  1       -4 0.21183060E-01 0.12500033E+03</pdfrwt>
<totfact> 0.96186321E+03</totfact>
</mgrwt>
</event>
<event>
 5    1  0.3212987E-002  0.1250077E+03  0.7818608E-02  0.1235057E+00
          4   -1    0    0  501    0  0.00000000000E+00  0.00000000000E+00  0.88878251732E+01  0.89781031576E+01  0.12700000000E+01 0. -1.
         -4   -1    0    0    0  501 -0.00000000000E+00 -0.00000000000E+00 -0.43724771182E+03  0.43724955620E+03  0.12700000000E+01 0. -1.
         25    2    1    2    0    0  0.00000000000E+00  0.00000000000E+00 -0.42835988665E+03  0.44622765935E+03  0.12500772569E+03 0.  0.
    9000005    1    3    3    0    0  0.29672113736E+02 -0.61851207004E+01 -0.19087540989E+02  0.35833284425E+02  0.10000000000E+01 0.  0.
    9000005    1    3    3    0    0 -0.29672113736E+02  0.61851207004E+01 -0.40927234566E+03  0.41039437493E+03  0.10000000000E+01 0.  0.
<mgrwt>
<rscale>  0 0.12500773E+03</rscale>
<asrwt>0</asrwt>
<pdfrwt beam="1">  1        4 0.13744444E-02 0.12500773E+03</pdfrwt>
<pdfrwt beam="2">  1       -4 0.67275948E-01 0.12500773E+03</pdfrwt>
<totfact> 0.60281738E+03</totfact>
</mgrwt>
</event>
<event>
 5    1  0.3212987E-002  0.1249992E+03  0.7818608E-02  0.1235071E+00
         -4   -1    0    0    0  501 -0.00000000000E+00  0.00000000000E+00  0.86477890261E+01  0.87405466099E+01  0.12700000000E+01 0. -1.
          4   -1    0    0  501    0  0.00000000000E+00 -0.00000000000E+00 -0.44919572486E+03  0.44919752018E+03  0.12700000000E+01 0. -1.
         25    2    1    2    0    0  0.00000000000E+00  0.00000000000E+00 -0.44054793584E+03  0.45793806679E+03  0.12499915697E+03 0.  0.
    9000005    1    3    3    0    0  0.47199892823E+02  0.57714780173E+01 -0.71728926305E+02  0.86064967960E+02  0.10000000000E+01 0.  0.
    9000005    1    3    3    0    0 -0.47199892823E+02 -0.57714780173E+01 -0.36881900953E+03  0.37187309883E+03  0.10000000000E+01 0.  0.
<mgrwt>
<rscale>  0 0.12499916E+03</rscale>
<asrwt>0</asrwt>
<pdfrwt beam="2">  1        4 0.69114290E-01 0.12499916E+03</pdfrwt>
<pdfrwt beam="1">  1       -4 0.13377027E-02 0.12499916E+03</pdfrwt>
<totfact> 0.59283346E+03</totfact>
</mgrwt>
</event>
<event>
 5    1  0.3212987E-002  0.1250010E+03  0.7818608E-02  0.1235068E+00
         -4   -1    0    0    0  501 -0.00000000000E+00  0.00000000000E+00  0.21108267107E+02  0.21146438004E+02  0.12700000000E+01 0. -1.
          4   -1    0    0  501    0  0.00000000000E+00 -0.00000000000E+00 -0.18485339864E+03  0.18485776124E+03  0.12700000000E+01 0. -1.
         25    2    1    2    0    0  0.00000000000E+00  0.00000000000E+00 -0.16374513153E+03  0.20600419924E+03  0.12500104801E+03 0.  0.
    9000005    1    3    3    0    0  0.13160467997E+02 -0.60937349545E+02 -0.74735096292E+02  0.97328788676E+02  0.10000000000E+01 0.  0.
    9000005    1    3    3    0    0 -0.13160467997E+02  0.60937349545E+02 -0.89010035243E+02  0.10867541056E+03  0.10000000000E+01 0.  0.
<mgrwt>
<rscale>  0 0.12500105E+03</rscale>
<asrwt>0</asrwt>
<pdfrwt beam="2">  1        4 0.28442255E-01 0.12500105E+03</pdfrwt>
<pdfrwt beam="1">  1       -4 0.32506976E-02 0.12500105E+03</pdfrwt>
<totfact> 0.89130545E+03</totfact>
</mgrwt>
</event>
<event>
 5    1  0.3212987E-002  0.1249993E+03  0.7818608E-02  0.1235070E+00
          4   -1    0    0  501    0  0.00000000000E+00  0.00000000000E+00  0.46174172964E+02  0.46191635053E+02  0.12700000000E+01 0. -1.
         -4   -1    0    0    0  501 -0.00000000000E+00 -0.00000000000E+00 -0.84559026837E+02  0.84568563424E+02  0.12700000000E+01 0. -1.
         25    2    1    2    0    0  0.00000000000E+00  0.00000000000E+00 -0.38384853873E+02  0.13076019848E+03  0.12499932999E+03 0.  0.
    9000005    1    3    3    0    0  0.48746026640E+02 -0.34964125067E+02 -0.87714677735E+00  0.60003621069E+02  0.10000000000E+01 0.  0.
    9000005    1    3    3    0    0 -0.48746026640E+02  0.34964125067E+02 -0.37507707096E+02  0.70756577408E+02  0.10000000000E+01 0.  0.
<mgrwt>
<rscale>  0 0.12499933E+03</rscale>
<asrwt>0</asrwt>
<pdfrwt beam="1">  1        4 0.71057957E-02 0.12499933E+03</pdfrwt>
<pdfrwt beam="2">  1       -4 0.13011158E-01 0.12499933E+03</pdfrwt>
<totfact> 0.10328389E+04</totfact>
</mgrwt>
</event>
<event>
 5    1  0.3212987E-002  0.1249795E+03  0.7818608E-02  0.1235101E+00
          4   -1    0    0  501    0  0.00000000000E+00  0.00000000000E+00  0.36678880057E+03  0.36679099924E+03  0.12700000000E+01 0. -1.
         -4   -1    0    0    0  501 -0.00000000000E+00 -0.00000000000E+00 -0.10606258874E+02  0.10682023558E+02  0.12700000000E+01 0. -1.
         25    2    1    2    0    0  0.00000000000E+00  0.00000000000E+00  0.35618254170E+03  0.37747302280E+03  0.12497951805E+03 0.  0.
    9000005    1    3    3    0    0  0.41447070657E+02 -0.79960567761E+01  0.38955914082E+02  0.57448758315E+02  0.10000000000E+01 0.  0.
    9000005    1    3    3    0    0 -0.41447070657E+02  0.79960567761E+01  0.31722662762E+03  0.32002426449E+03  0.10000000000E+01 0.  0.
<mgrwt>
<rscale>  0 0.12497952E+03</rscale>
<asrwt>0</asrwt>
<pdfrwt beam="1">  1        4 0.56435053E-01 0.12497952E+03</pdfrwt>
<pdfrwt beam="2">  1       -4 0.16377290E-02 0.12497952E+03</pdfrwt>
<totfact> 0.66834539E+03</totfact>
</mgrwt>
</event>
<event>
 5    1  0.3212987E-002  0.1249982E+03  0.7818608E-02  0.1235072E+00
          4   -1    0    0  501    0  0.00000000000E+00  0.00000000000E+00  0.20311478515E+02  0.20351143935E+02  0.12700000000E+01 0.  1.
         -4   -1    0    0    0  501 -0.00000000000E+00 -0.00000000000E+00 -0.19208245999E+03  0.19208665840E+03  0.12700000000E+01 0.  1.
         25    2    1    2    0    0  0.00000000000E+00  0.00000000000E+00 -0.17177098148E+03  0.21243780234E+03  0.12499819913E+03 0.  0.
    9000005    1    3    3    0    0 -0.22899332548E+02 -0.33179434099E+02 -0.47362725557E+01  0.40604021427E+02  0.10000000000E+01 0.  0.
    9000005    1    3    3    0    0  0.22899332548E+02  0.33179434099E+02 -0.16703470892E+03  0.17183378091E+03  0.10000000000E+01 0.  0.
<mgrwt>
<rscale>  0 0.12499820E+03</rscale>
<asrwt>0</asrwt>
<pdfrwt beam="1">  1        4 0.31282171E-02 0.12499820E+03</pdfrwt>
<pdfrwt beam="2">  1       -4 0.29554520E-01 0.12499820E+03</pdfrwt>
<totfact> 0.88082843E+03</totfact>
</mgrwt>
</event>
<event>
 5    1  0.3212987E-002  0.1249587E+03  0.7818608E-02  0.1235134E+00
         -4   -1    0    0    0  501 -0.00000000000E+00  0.00000000000E+00  0.11940587358E+04  0.11940594112E+04  0.12700000000E+01 0. -1.
          4   -1    0    0  501    0  0.00000000000E+00 -0.00000000000E+00 -0.31452015438E+01  0.33919305345E+01  0.12700000000E+01 0. -1.
         25    2    1    2    0    0  0.00000000000E+00  0.00000000000E+00  0.11909135343E+04  0.11974513417E+04  0.12495867202E+03 0.  0.
    9000005    1    3    3    0    0 -0.16989278725E+02  0.59981064309E+02  0.55676350272E+03  0.56024366273E+03  0.10000000000E+01 0.  0.
    9000005    1    3    3    0    0  0.16989278725E+02 -0.59981064309E+02  0.63415003155E+03  0.63720767900E+03  0.10000000000E+01 0.  0.
<mgrwt>
<rscale>  0 0.12495867E+03</rscale>
<asrwt>0</asrwt>
<pdfrwt beam="2">  1        4 0.50290785E-03 0.12495867E+03</pdfrwt>
<pdfrwt beam="1">  1       -4 0.18372053E+00 0.12495867E+03</pdfrwt>
<totfact> 0.24801883E+03</totfact>
</mgrwt>
</event>
<event>
 5    1  0.3212987E-002  0.1249979E+03  0.7818608E-02  0.1235073E+00
          4   -1    0    0  501    0  0.00000000000E+00  0.00000000000E+00  0.46555987505E+03  0.46556160727E+03  0.12700000000E+01 0.  1.
         -4   -1    0    0    0  501 -0.00000000000E+00 -0.00000000000E+00 -0.83403318442E+01  0.84364705458E+01  0.12700000000E+01 0.  1.
         25    2    1    2    0    0  0.00000000000E+00  0.00000000000E+00  0.45721954321E+03  0.47399807781E+03  0.12499786829E+03 0.  0.
    9000005    1    3    3    0    0 -0.30329708593E+02 -0.97629330560E+01  0.43246233838E+03  0.43363565375E+03  0.10000000000E+01 0.  0.
    9000005    1    3    3    0    0  0.30329708593E+02  0.97629330560E+01  0.24757204827E+02  0.40362424060E+02  0.10000000000E+01 0.  0.
<mgrwt>
<rscale>  0 0.12499787E+03</rscale>
<asrwt>0</asrwt>
<pdfrwt beam="1">  1        4 0.71632121E-01 0.12499787E+03</pdfrwt>
<pdfrwt beam="2">  1       -4 0.12906566E-02 0.12499787E+03</pdfrwt>
<totfact> 0.57942504E+03</totfact>
</mgrwt>
</event>
<event>
 5    1  0.3212987E-002  0.1249989E+03  0.7818608E-02  0.1235071E+00
          4   -1    0    0  501    0  0.00000000000E+00  0.00000000000E+00  0.21167754944E+02  0.21205818762E+02  0.12700000000E+01 0.  1.
         -4   -1    0    0    0  501 -0.00000000000E+00 -0.00000000000E+00 -0.18432862603E+03  0.18433300104E+03  0.12700000000E+01 0.  1.
         25    2    1    2    0    0  0.00000000000E+00  0.00000000000E+00 -0.16316087108E+03  0.20553881981E+03  0.12499894637E+03 0.  0.
    9000005    1    3    3    0    0  0.28616079229E+02 -0.53851247384E+02 -0.59133912738E+02  0.84950906240E+02  0.10000000000E+01 0.  0.
    9000005    1    3    3    0    0 -0.28616079229E+02  0.53851247384E+02 -0.10402695835E+03  0.12058791356E+03  0.10000000000E+01 0.  0.
<mgrwt>
<rscale>  0 0.12499895E+03</rscale>
<asrwt>0</asrwt>
<pdfrwt beam="1">  1        4 0.32598423E-02 0.12499895E+03</pdfrwt>
<pdfrwt beam="2">  1       -4 0.28361514E-01 0.12499895E+03</pdfrwt>
<totfact> 0.89211775E+03</totfact>
</mgrwt>
</event>
<event>
 5    1  0.3212987E-002  0.1249992E+03  0.7818608E-02  0.1235071E+00
         -4   -1    0    0    0  501 -0.00000000000E+00  0.00000000000E+00  0.16552995034E+02  0.16601642828E+02  0.12700000000E+01 0.  1.
          4   -1    0    0  501    0  0.00000000000E+00 -0.00000000000E+00 -0.23558490317E+03  0.23558832633E+03  0.12700000000E+01 0.  1.
         25    2    1    2    0    0  0.00000000000E+00  0.00000000000E+00 -0.21903190814E+03  0.25218996916E+03  0.12499921504E+03 0.  0.
    9000005    1    3    3    0    0  0.15298259726E+02 -0.60416380445E+02 -0.11876698671E+03  0.13412968691E+03  0.10000000000E+01 0.  0.
    9000005    1    3    3    0    0 -0.15298259726E+02  0.60416380445E+02 -0.10026492142E+03  0.11806028225E+03  0.10000000000E+01 0.  0.
<mgrwt>
<rscale>  0 0.12499922E+03</rscale>
<asrwt>0</asrwt>
<pdfrwt beam="2">  1        4 0.36247834E-01 0.12499922E+03</pdfrwt>
<pdfrwt beam="1">  1       -4 0.25506202E-02 0.12499922E+03</pdfrwt>
<totfact> 0.82016171E+03</totfact>
</mgrwt>
</event>
<event>
 5    1  0.3212987E-002  0.1249991E+03  0.7818608E-02  0.1235071E+00
          4   -1    0    0  501    0  0.00000000000E+00  0.00000000000E+00  0.19275011764E+02  0.19316805597E+02  0.12700000000E+01 0.  1.
         -4   -1    0    0    0  501 -0.00000000000E+00 -0.00000000000E+00 -0.20239254048E+03  0.20239652503E+03  0.12700000000E+01 0.  1.
         25    2    1    2    0    0  0.00000000000E+00  0.00000000000E+00 -0.18311752872E+03  0.22171333062E+03  0.12499908661E+03 0.  0.
    9000005    1    3    3    0    0 -0.69759943271E+00 -0.53267300659E+02 -0.14950542511E+03  0.15871598565E+03  0.10000000000E+01 0.  0.
    9000005    1    3    3    0    0  0.69759943271E+00  0.53267300659E+02 -0.33612103609E+02  0.62997344971E+02  0.10000000000E+01 0.  0.
<mgrwt>
<rscale>  0 0.12499909E+03</rscale>
<asrwt>0</asrwt>
<pdfrwt beam="1">  1        4 0.29689080E-02 0.12499909E+03</pdfrwt>
<pdfrwt beam="2">  1       -4 0.31140834E-01 0.12499909E+03</pdfrwt>
<totfact> 0.86599729E+03</totfact>
</mgrwt>
</event>
<event>
 5    1  0.3212987E-002  0.1249999E+03  0.7818608E-02  0.1235069E+00
         -4   -1    0    0    0  501 -0.00000000000E+00  0.00000000000E+00  0.45418163697E+02  0.45435916339E+02  0.12700000000E+01 0. -1.
          4   -1    0    0  501    0  0.00000000000E+00 -0.00000000000E+00 -0.85966903366E+02  0.85976283790E+02  0.12700000000E+01 0. -1.
         25    2    1    2    0    0  0.00000000000E+00  0.00000000000E+00 -0.40548739670E+02  0.13141220013E+03  0.12499986422E+03 0.  0.
    9000005    1    3    3    0    0 -0.28997648588E+02 -0.40514204118E+02  0.19383109720E+02  0.53469330474E+02  0.10000000000E+01 0.  0.
    9000005    1    3    3    0    0  0.28997648588E+02  0.40514204118E+02 -0.59931849390E+02  0.77942869656E+02  0.10000000000E+01 0.  0.
<mgrwt>
<rscale>  0 0.12499986E+03</rscale>
<asrwt>0</asrwt>
<pdfrwt beam="2">  1        4 0.13227765E-01 0.12499986E+03</pdfrwt>
<pdfrwt beam="1">  1       -4 0.69894969E-02 0.12499986E+03</pdfrwt>
<totfact> 0.10314292E+04</totfact>
</mgrwt>
</event>
<event>
 5    1  0.3212987E-002  0.1249999E+03  0.7818608E-02  0.1235069E+00
          4   -1    0    0  501    0  0.00000000000E+00  0.00000000000E+00  0.44046423132E+03  0.44046606223E+03  0.12700000000E+01 0.  1.
         -4   -1    0    0    0  501 -0.00000000000E+00 -0.00000000000E+00 -0.88211491286E+01  0.89121025549E+01  0.12700000000E+01 0.  1.
         25    2    1    2    0    0  0.00000000000E+00  0.00000000000E+00  0.43164308220E+03  0.44937816478E+03  0.12499993831E+03 0.  0.
    9000005    1    3    3    0    0 -0.25410530994E+02 -0.55665191848E+02  0.17021461939E+03  0.18088207574E+03  0.10000000000E+01 0.  0.
    9000005    1    3    3    0    0  0.25410530994E+02  0.55665191848E+02  0.26142846281E+03  0.26849608905E+03  0.10000000000E+01 0.  0.
<mgrwt>
<rscale>  0 0.12499994E+03</rscale>
<asrwt>0</asrwt>
<pdfrwt beam="1">  1        4 0.67770842E-01 0.12499994E+03</pdfrwt>
<pdfrwt beam="2">  1       -4 0.13642376E-02 0.12499994E+03</pdfrwt>
<totfact> 0.60017794E+03</totfact>
</mgrwt>
</event>
<event>
 5    1  0.3212987E-002  0.1249992E+03  0.7818608E-02  0.1235071E+00
         -4   -1    0    0    0  501 -0.00000000000E+00  0.00000000000E+00  0.21903035691E+03  0.21903403879E+03  0.12700000000E+01 0.  1.
          4   -1    0    0  501    0  0.00000000000E+00 -0.00000000000E+00 -0.17807603888E+02  0.17852833283E+02  0.12700000000E+01 0.  1.
         25    2    1    2    0    0  0.00000000000E+00  0.00000000000E+00  0.20122275302E+03  0.23688687207E+03  0.12499917530E+03 0.  0.
    9000005    1    3    3    0    0  0.55809767127E+02 -0.19538856488E+02  0.13892356212E+03  0.15098759264E+03  0.10000000000E+01 0.  0.
    9000005    1    3    3    0    0 -0.55809767127E+02  0.19538856488E+02  0.62299190906E+02  0.85899279433E+02  0.10000000000E+01 0.  0.
<mgrwt>
<rscale>  0 0.12499918E+03</rscale>
<asrwt>0</asrwt>
<pdfrwt beam="2">  1        4 0.27433936E-02 0.12499918E+03</pdfrwt>
<pdfrwt beam="1">  1       -4 0.33700742E-01 0.12499918E+03</pdfrwt>
<totfact> 0.84264755E+03</totfact>
</mgrwt>
</event>
<event>
 5    1  0.3212987E-002  0.1249997E+03  0.7818608E-02  0.1235070E+00
          4   -1    0    0  501    0  0.00000000000E+00  0.00000000000E+00  0.50303042736E+03  0.50303203054E+03  0.12700000000E+01 0. -1.
         -4   -1    0    0    0  501 -0.00000000000E+00 -0.00000000000E+00 -0.77118456638E+01  0.78157190035E+01  0.12700000000E+01 0. -1.
         25    2    1    2    0    0  0.00000000000E+00  0.00000000000E+00  0.49531858170E+03  0.51084774955E+03  0.12499970336E+03 0.  0.
    9000005    1    3    3    0    0  0.54702887003E+02  0.69787790466E+01  0.12752414009E+03  0.13894069061E+03  0.10000000000E+01 0.  0.
    9000005    1    3    3    0    0 -0.54702887003E+02 -0.69787790466E+01  0.36779444161E+03  0.37190705893E+03  0.10000000000E+01 0.  0.
<mgrwt>
<rscale>  0 0.12499970E+03</rscale>
<asrwt>0</asrwt>
<pdfrwt beam="1">  1        4 0.77397406E-01 0.12499970E+03</pdfrwt>
<pdfrwt beam="2">  1       -4 0.11945514E-02 0.12499970E+03</pdfrwt>
<totfact> 0.55032789E+03</totfact>
</mgrwt>
</event>
<event>
 5    1  0.3212987E-002  0.1249985E+03  0.7818608E-02  0.1235072E+00
         -4   -1    0    0    0  501 -0.00000000000E+00  0.00000000000E+00  0.81030445661E+02  0.81040397482E+02  0.12700000000E+01 0.  1.
          4   -1    0    0  501    0  0.00000000000E+00 -0.00000000000E+00 -0.48184719247E+02  0.48201452975E+02  0.12700000000E+01 0.  1.
         25    2    1    2    0    0  0.00000000000E+00  0.00000000000E+00  0.32845726415E+02  0.12924185046E+03  0.12499845665E+03 0.  0.
    9000005    1    3    3    0    0 -0.63280043850E+01  0.43357728188E+02 -0.29645474645E+02  0.52913045651E+02  0.10000000000E+01 0.  0.
    9000005    1    3    3    0    0  0.63280043850E+01 -0.43357728188E+02  0.62491201060E+02  0.76328804806E+02  0.10000000000E+01 0.  0.
<mgrwt>
<rscale>  0 0.12499846E+03</rscale>
<asrwt>0</asrwt>
<pdfrwt beam="2">  1        4 0.74150865E-02 0.12499846E+03</pdfrwt>
<pdfrwt beam="1">  1       -4 0.12468275E-01 0.12499846E+03</pdfrwt>
<totfact> 0.10361114E+04</totfact>
</mgrwt>
</event>
<event>
 5    1  0.3212987E-002  0.1250026E+03  0.7818608E-02  0.1235065E+00
          4   -1    0    0  501    0  0.00000000000E+00  0.00000000000E+00  0.26954402894E+03  0.26954702083E+03  0.12700000000E+01 0.  1.
         -4   -1    0    0    0  501 -0.00000000000E+00 -0.00000000000E+00 -0.14461775646E+02  0.14517432791E+02  0.12700000000E+01 0.  1.
         25    2    1    2    0    0  0.00000000000E+00  0.00000000000E+00  0.25508225329E+03  0.28406445362E+03  0.12500263143E+03 0.  0.
    9000005    1    3    3    0    0  0.36393695220E+02 -0.36752181903E+02  0.47836427331E+02  0.70459546594E+02  0.10000000000E+01 0.  0.
    9000005    1    3    3    0    0 -0.36393695220E+02  0.36752181903E+02  0.20724582596E+03  0.21360490702E+03  0.10000000000E+01 0.  0.
<mgrwt>
<rscale>  0 0.12500263E+03</rscale>
<asrwt>0</asrwt>
<pdfrwt beam="1">  1        4 0.41472821E-01 0.12500263E+03</pdfrwt>
<pdfrwt beam="2">  1       -4 0.22294002E-02 0.12500263E+03</pdfrwt>
<totfact> 0.77637717E+03</totfact>
</mgrwt>
</event>
<event>
 5    1  0.3212987E-002  0.1249815E+03  0.7818608E-02  0.1235098E+00
          4   -1    0    0  501    0  0.00000000000E+00  0.00000000000E+00  0.68330632960E+03  0.68330750981E+03  0.12700000000E+01 0.  1.
         -4   -1    0    0    0  501 -0.00000000000E+00 -0.00000000000E+00 -0.56432451581E+01  0.57843855260E+01  0.12700000000E+01 0.  1.
         25    2    1    2    0    0  0.00000000000E+00  0.00000000000E+00  0.67766308444E+03  0.68909189534E+03  0.12498153548E+03 0.  0.
    9000005    1    3    3    0    0  0.20700391084E+02 -0.31986252516E+02  0.61187582958E+03  0.61306170763E+03  0.10000000000E+01 0.  0.
    9000005    1    3    3    0    0 -0.20700391084E+02  0.31986252516E+02  0.65787254865E+02  0.76030187713E+02  0.10000000000E+01 0.  0.
<mgrwt>
<rscale>  0 0.12498154E+03</rscale>
<asrwt>0</asrwt>
<pdfrwt beam="1">  1        4 0.10513498E+00 0.12498154E+03</pdfrwt>
<pdfrwt beam="2">  1       -4 0.87913947E-03 0.12498154E+03</pdfrwt>
<totfact> 0.43686460E+03</totfact>
</mgrwt>
</event>
<event>
 5    1  0.3212987E-002  0.1249977E+03  0.7818608E-02  0.1235073E+00
         -4   -1    0    0    0  501 -0.00000000000E+00  0.00000000000E+00  0.13265069292E+03  0.13265677228E+03  0.12700000000E+01 0. -1.
          4   -1    0    0  501    0  0.00000000000E+00 -0.00000000000E+00 -0.29426097976E+02  0.29453491170E+02  0.12700000000E+01 0. -1.
         25    2    1    2    0    0  0.00000000000E+00  0.00000000000E+00  0.10322459494E+03  0.16211026345E+03  0.12499768204E+03 0.  0.
    9000005    1    3    3    0    0  0.98120672407E+01 -0.43081095822E+02 -0.56993289843E+01  0.44561640810E+02  0.10000000000E+01 0.  0.
    9000005    1    3    3    0    0 -0.98120672407E+01  0.43081095822E+02  0.10892392392E+03  0.11754862264E+03  0.10000000000E+01 0.  0.
<mgrwt>
<rscale>  0 0.12499768E+03</rscale>
<asrwt>0</asrwt>
<pdfrwt beam="2">  1        4 0.45296669E-02 0.12499768E+03</pdfrwt>
<pdfrwt beam="1">  1       -4 0.20410373E-01 0.12499768E+03</pdfrwt>
<totfact> 0.96942529E+03</totfact>
</mgrwt>
</event>
<event>
 5    1  0.3212987E-002  0.1249984E+03  0.7818608E-02  0.1235072E+00
         -4   -1    0    0    0  501 -0.00000000000E+00  0.00000000000E+00  0.85027283879E+02  0.85036767952E+02  0.12700000000E+01 0. -1.
          4   -1    0    0  501    0  0.00000000000E+00 -0.00000000000E+00 -0.45919102304E+02  0.45936661355E+02  0.12700000000E+01 0. -1.
         25    2    1    2    0    0  0.00000000000E+00  0.00000000000E+00  0.39108181574E+02  0.13097342931E+03  0.12499835726E+03 0.  0.
    9000005    1    3    3    0    0 -0.56625459388E+02  0.71696272771E+00  0.47240453584E+02  0.73753760184E+02  0.10000000000E+01 0.  0.
    9000005    1    3    3    0    0  0.56625459388E+02 -0.71696272771E+00 -0.81322720101E+01  0.57219669123E+02  0.10000000000E+01 0.  0.
<mgrwt>
<rscale>  0 0.12499836E+03</rscale>
<asrwt>0</asrwt>
<pdfrwt beam="2">  1        4 0.70665576E-02 0.12499836E+03</pdfrwt>
<pdfrwt beam="1">  1       -4 0.13083201E-01 0.12499836E+03</pdfrwt>
<totfact> 0.10324042E+04</totfact>
</mgrwt>
</event>
<event>
 5    1  0.3212987E-002  0.1249919E+03  0.7818608E-02  0.1235082E+00
          4   -1    0    0  501    0  0.00000000000E+00  0.00000000000E+00  0.18437562420E+03  0.18437999810E+03  0.12700000000E+01 0. -1.
         -4   -1    0    0    0  501 -0.00000000000E+00 -0.00000000000E+00 -0.21159956464E+02  0.21198034285E+02  0.12700000000E+01 0. -1.
         25    2    1    2    0    0  0.00000000000E+00  0.00000000000E+00  0.16321566774E+03  0.20557803239E+03  0.12499189256E+03 0.  0.
    9000005    1    3    3    0    0  0.29515204133E+02 -0.11527243871E+02 -0.69746118110E+01  0.32460280901E+02  0.10000000000E+01 0.  0.
    9000005    1    3    3    0    0 -0.29515204133E+02  0.11527243871E+02  0.17019027955E+03  0.17311775148E+03  0.10000000000E+01 0.  0.
<mgrwt>
<rscale>  0 0.12499189E+03</rscale>
<asrwt>0</asrwt>
<pdfrwt beam="1">  1        4 0.28368746E-01 0.12499189E+03</pdfrwt>
<pdfrwt beam="2">  1       -4 0.32586434E-02 0.12499189E+03</pdfrwt>
<totfact> 0.89219353E+03</totfact>
</mgrwt>
</event>
<event>
 5    1  0.3212987E-002  0.1249992E+03  0.7818608E-02  0.1235071E+00
          4   -1    0    0  501    0  0.00000000000E+00  0.00000000000E+00  0.69322200702E+02  0.69333833084E+02  0.12700000000E+01 0. -1.
         -4   -1    0    0    0  501 -0.00000000000E+00 -0.00000000000E+00 -0.56324949477E+02  0.56339265469E+02  0.12700000000E+01 0. -1.
         25    2    1    2    0    0  0.00000000000E+00  0.00000000000E+00  0.12997251224E+02  0.12567309855E+03  0.12499919664E+03 0.  0.
    9000005    1    3    3    0    0 -0.56491957512E+01 -0.61287303078E+02  0.17380696405E+02  0.63961985106E+02  0.10000000000E+01 0.  0.
    9000005    1    3    3    0    0  0.56491957512E+01  0.61287303078E+02 -0.43834451804E+01  0.61711113447E+02  0.10000000000E+01 0.  0.
<mgrwt>
<rscale>  0 0.12499920E+03</rscale>
<asrwt>0</asrwt>
<pdfrwt beam="1">  1        4 0.10666950E-01 0.12499920E+03</pdfrwt>
<pdfrwt beam="2">  1       -4 0.86673729E-02 0.12499920E+03</pdfrwt>
<totfact> 0.10438326E+04</totfact>
</mgrwt>
</event>
<event>
 5    1  0.3212987E-002  0.1249974E+03  0.7818608E-02  0.1235073E+00
         -4   -1    0    0    0  501 -0.00000000000E+00  0.00000000000E+00  0.62410098587E+01  0.63689170238E+01  0.12700000000E+01 0. -1.
          4   -1    0    0  501    0  0.00000000000E+00 -0.00000000000E+00 -0.61939689063E+03  0.61939819262E+03  0.12700000000E+01 0. -1.
         25    2    1    2    0    0  0.00000000000E+00  0.00000000000E+00 -0.61315588077E+03  0.62576710965E+03  0.12499736553E+03 0.  0.
    9000005    1    3    3    0    0 -0.27457124210E+02  0.46789018514E+02 -0.46185051867E+03  0.46502688902E+03  0.10000000000E+01 0.  0.
    9000005    1    3    3    0    0  0.27457124210E+02 -0.46789018514E+02 -0.15130536211E+03  0.16074022062E+03  0.10000000000E+01 0.  0.
<mgrwt>
<rscale>  0 0.12499737E+03</rscale>
<asrwt>0</asrwt>
<pdfrwt beam="2">  1        4 0.95301720E-01 0.12499737E+03</pdfrwt>
<pdfrwt beam="1">  1       -4 0.97009502E-03 0.12499737E+03</pdfrwt>
<totfact> 0.47283237E+03</totfact>
</mgrwt>
</event>
<event>
 5    1  0.3212987E-002  0.1250007E+03  0.7818608E-02  0.1235068E+00
          4   -1    0    0  501    0  0.00000000000E+00  0.00000000000E+00  0.90405091945E+02  0.90414011910E+02  0.12700000000E+01 0.  1.
         -4   -1    0    0    0  501 -0.00000000000E+00 -0.00000000000E+00 -0.43188392425E+02  0.43207061232E+02  0.12700000000E+01 0.  1.
         25    2    1    2    0    0  0.00000000000E+00  0.00000000000E+00  0.47216699520E+02  0.13362107314E+03  0.12500069789E+03 0.  0.
    9000005    1    3    3    0    0 -0.98674429178E+01  0.57907422387E+02  0.46401521109E+02  0.74864792516E+02  0.10000000000E+01 0.  0.
    9000005    1    3    3    0    0  0.98674429178E+01 -0.57907422387E+02  0.81517841120E+00  0.58756280626E+02  0.10000000000E+01 0.  0.
<mgrwt>
<rscale>  0 0.12500070E+03</rscale>
<asrwt>0</asrwt>
<pdfrwt beam="1">  1        4 0.13910598E-01 0.12500070E+03</pdfrwt>
<pdfrwt beam="2">  1       -4 0.66464904E-02 0.12500070E+03</pdfrwt>
<totfact> 0.10267056E+04</totfact>
</mgrwt>
</event>
<event>
 5    1  0.3212987E-002  0.1250004E+03  0.7818608E-02  0.1235069E+00
         -4   -1    0    0    0  501 -0.00000000000E+00  0.00000000000E+00  0.24844715765E+02  0.24877154207E+02  0.12700000000E+01 0.  1.
          4   -1    0    0  501    0  0.00000000000E+00 -0.00000000000E+00 -0.15708993824E+03  0.15709507184E+03  0.12700000000E+01 0.  1.
         25    2    1    2    0    0  0.00000000000E+00  0.00000000000E+00 -0.13224522248E+03  0.18197222605E+03  0.12500036874E+03 0.  0.
    9000005    1    3    3    0    0  0.44030450643E+02  0.41235692759E+02 -0.89874933782E+02  0.10824770974E+03  0.10000000000E+01 0.  0.
    9000005    1    3    3    0    0 -0.44030450643E+02 -0.41235692759E+02 -0.42370288694E+02  0.73724516310E+02  0.10000000000E+01 0.  0.
<mgrwt>
<rscale>  0 0.12500037E+03</rscale>
<asrwt>0</asrwt>
<pdfrwt beam="2">  1        4 0.24170572E-01 0.12500037E+03</pdfrwt>
<pdfrwt beam="1">  1       -4 0.38251542E-02 0.12500037E+03</pdfrwt>
<totfact> 0.93262425E+03</totfact>
</mgrwt>
</event>
<event>
 5    1  0.3212987E-002  0.1250016E+03  0.7818608E-02  0.1235067E+00
         -4   -1    0    0    0  501 -0.00000000000E+00  0.00000000000E+00  0.13915892532E+04  0.13915898327E+04  0.12700000000E+01 0. -1.
          4   -1    0    0  501    0  0.00000000000E+00 -0.00000000000E+00 -0.26628608878E+01  0.29502081465E+01  0.12700000000E+01 0. -1.
         25    2    1    2    0    0  0.00000000000E+00  0.00000000000E+00  0.13889263923E+04  0.13945400408E+04  0.12500160923E+03 0.  0.
    9000005    1    3    3    0    0 -0.35802721006E+02 -0.51124733733E+02  0.65957922665E+03  0.66252647454E+03  0.10000000000E+01 0.  0.
    9000005    1    3    3    0    0  0.35802721006E+02  0.51124733733E+02  0.72934716564E+03  0.73201356630E+03  0.10000000000E+01 0.  0.
<mgrwt>
<rscale>  0 0.12500161E+03</rscale>
<asrwt>0</asrwt>
<pdfrwt beam="2">  1        4 0.43181844E-03 0.12500161E+03</pdfrwt>
<pdfrwt beam="1">  1       -4 0.21411314E+00 0.12500161E+03</pdfrwt>
<totfact> 0.20097643E+03</totfact>
</mgrwt>
</event>
<event>
 5    1  0.3212987E-002  0.1249994E+03  0.7818608E-02  0.1235070E+00
          4   -1    0    0  501    0  0.00000000000E+00  0.00000000000E+00  0.15962253154E+02  0.16012695768E+02  0.12700000000E+01 0.  1.
         -4   -1    0    0    0  501 -0.00000000000E+00 -0.00000000000E+00 -0.24427747764E+03  0.24428077898E+03  0.12700000000E+01 0.  1.
         25    2    1    2    0    0  0.00000000000E+00  0.00000000000E+00 -0.22831522448E+03  0.26029347475E+03  0.12499940507E+03 0.  0.
    9000005    1    3    3    0    0 -0.47972602306E+02  0.39640975836E+02 -0.12601705160E+03  0.14054919008E+03  0.10000000000E+01 0.  0.
    9000005    1    3    3    0    0  0.47972602306E+02 -0.39640975836E+02 -0.10229817288E+03  0.11974428467E+03  0.10000000000E+01 0.  0.
<mgrwt>
<rscale>  0 0.12499941E+03</rscale>
<asrwt>0</asrwt>
<pdfrwt beam="1">  1        4 0.24598656E-02 0.12499941E+03</pdfrwt>
<pdfrwt beam="2">  1       -4 0.37585282E-01 0.12499941E+03</pdfrwt>
<totfact> 0.80865965E+03</totfact>
</mgrwt>
</event>
<event>
 5    1  0.3212987E-002  0.1249988E+03  0.7818608E-02  0.1235071E+00
         -4   -1    0    0    0  501 -0.00000000000E+00  0.00000000000E+00  0.95741742510E+03  0.95741826742E+03  0.12700000000E+01 0.  1.
          4   -1    0    0  501    0  0.00000000000E+00 -0.00000000000E+00 -0.39802098360E+01  0.41779145920E+01  0.12700000000E+01 0.  1.
         25    2    1    2    0    0  0.00000000000E+00  0.00000000000E+00  0.95343721526E+03  0.96159618201E+03  0.12499877522E+03 0.  0.
    9000005    1    3    3    0    0  0.32955175987E+02  0.51301194154E+02  0.37143132347E+03  0.37640415008E+03  0.10000000000E+01 0.  0.
    9000005    1    3    3    0    0 -0.32955175987E+02 -0.51301194154E+02  0.58200589180E+03  0.58519203193E+03  0.10000000000E+01 0.  0.
<mgrwt>
<rscale>  0 0.12499878E+03</rscale>
<asrwt>0</asrwt>
<pdfrwt beam="2">  1        4 0.62761364E-03 0.12499878E+03</pdfrwt>
<pdfrwt beam="1">  1       -4 0.14731007E+00 0.12499878E+03</pdfrwt>
<totfact> 0.31908699E+03</totfact>
</mgrwt>
</event>
<event>
 5    1  0.3212987E-002  0.1250053E+03  0.7818608E-02  0.1235061E+00
         -4   -1    0    0    0  501 -0.00000000000E+00  0.00000000000E+00  0.33349074525E+02  0.33373247844E+02  0.12700000000E+01 0. -1.
          4   -1    0    0  501    0  0.00000000000E+00 -0.00000000000E+00 -0.11707203149E+03  0.11707891978E+03  0.12700000000E+01 0. -1.
         25    2    1    2    0    0  0.00000000000E+00  0.00000000000E+00 -0.83722956966E+02  0.15045216763E+03  0.12500528477E+03 0.  0.
    9000005    1    3    3    0    0  0.33423183292E+02 -0.48672284883E+02 -0.17210985697E+02  0.61508686588E+02  0.10000000000E+01 0.  0.
    9000005    1    3    3    0    0 -0.33423183292E+02  0.48672284883E+02 -0.66511971269E+02  0.88943481039E+02  0.10000000000E+01 0.  0.
<mgrwt>
<rscale>  0 0.12500528E+03</rscale>
<asrwt>0</asrwt>
<pdfrwt beam="2">  1        4 0.18013471E-01 0.12500528E+03</pdfrwt>
<pdfrwt beam="1">  1       -4 0.51330162E-02 0.12500528E+03</pdfrwt>
<totfact> 0.99201843E+03</totfact>
</mgrwt>
</event>
<event>
 5    1  0.3212987E-002  0.1250046E+03  0.7818608E-02  0.1235062E+00
          4   -1    0    0  501    0  0.00000000000E+00  0.00000000000E+00  0.14122532711E+02  0.14179521507E+02  0.12700000000E+01 0. -1.
         -4   -1    0    0    0  501 -0.00000000000E+00 -0.00000000000E+00 -0.27600209174E+03  0.27600501362E+03  0.12700000000E+01 0. -1.
         25    2    1    2    0    0  0.00000000000E+00  0.00000000000E+00 -0.26187955903E+03  0.29018453513E+03  0.12500464388E+03 0.  0.
    9000005    1    3    3    0    0 -0.36115790296E+02  0.50798906915E+02 -0.12038804790E+03  0.13556976554E+03  0.10000000000E+01 0.  0.
    9000005    1    3    3    0    0  0.36115790296E+02 -0.50798906915E+02 -0.14149151113E+03  0.15461476959E+03  0.10000000000E+01 0.  0.
<mgrwt>
<rscale>  0 0.12500464E+03</rscale>
<asrwt>0</asrwt>
<pdfrwt beam="1">  1        4 0.21773061E-02 0.12500464E+03</pdfrwt>
<pdfrwt beam="2">  1       -4 0.42466465E-01 0.12500464E+03</pdfrwt>
<totfact> 0.76838877E+03</totfact>
</mgrwt>
</event>
<event>
 5    1  0.3212987E-002  0.1250157E+03  0.7818608E-02  0.1235045E+00
         -4   -1    0    0    0  501 -0.00000000000E+00  0.00000000000E+00  0.17441854505E+04  0.17441859129E+04  0.12700000000E+01 0.  1.
          4   -1    0    0  501    0  0.00000000000E+00 -0.00000000000E+00 -0.20596476207E+01  0.24197207115E+01  0.12700000000E+01 0.  1.
         25    2    1    2    0    0  0.00000000000E+00  0.00000000000E+00  0.17421258029E+04  0.17466056336E+04  0.12501570374E+03 0.  0.
    9000005    1    3    3    0    0 -0.16362176183E+02  0.13237404751E+02  0.16932567160E+04  0.16933878044E+04  0.10000000000E+01 0.  0.
    9000005    1    3    3    0    0  0.16362176183E+02 -0.13237404751E+02  0.48869086936E+02  0.53217829267E+02  0.10000000000E+01 0.  0.
<mgrwt>
<rscale>  0 0.12501570E+03</rscale>
<asrwt>0</asrwt>
<pdfrwt beam="2">  1        4 0.34460218E-03 0.12501570E+03</pdfrwt>
<pdfrwt beam="1">  1       -4 0.26836410E+00 0.12501570E+03</pdfrwt>
<totfact> 0.13539645E+03</totfact>
</mgrwt>
</event>
<event>
 5    1  0.3212987E-002  0.1250325E+03  0.7818608E-02  0.1235018E+00
          4   -1    0    0  501    0  0.00000000000E+00  0.00000000000E+00  0.65278634312E+02  0.65290987109E+02  0.12700000000E+01 0. -1.
         -4   -1    0    0    0  501 -0.00000000000E+00 -0.00000000000E+00 -0.59846020608E+02  0.59859494506E+02  0.12700000000E+01 0. -1.
         25    2    1    2    0    0  0.00000000000E+00  0.00000000000E+00  0.54326137043E+01  0.12515048161E+03  0.12503251480E+03 0.  0.
    9000005    1    3    3    0    0  0.32065718703E+02 -0.26414210205E+02  0.49465421776E+02  0.64604556869E+02  0.10000000000E+01 0.  0.
    9000005    1    3    3    0    0 -0.32065718703E+02  0.26414210205E+02 -0.44032808071E+02  0.60545924746E+02  0.10000000000E+01 0.  0.
<mgrwt>
<rscale>  0 0.12503251E+03</rscale>
<asrwt>0</asrwt>
<pdfrwt beam="1">  1        4 0.10044853E-01 0.12503251E+03</pdfrwt>
<pdfrwt beam="2">  1       -4 0.92090668E-02 0.12503251E+03</pdfrwt>
<totfact> 0.10441920E+04</totfact>
</mgrwt>
</event>
<event>
 5    1  0.3212987E-002  0.1249925E+03  0.7818608E-02  0.1235081E+00
          4   -1    0    0  501    0  0.00000000000E+00  0.00000000000E+00  0.25752771766E+02  0.25784067826E+02  0.12700000000E+01 0.  1.
         -4   -1    0    0    0  501 -0.00000000000E+00 -0.00000000000E+00 -0.15153847512E+03  0.15154379678E+03  0.12700000000E+01 0.  1.
         25    2    1    2    0    0  0.00000000000E+00  0.00000000000E+00 -0.12578570335E+03  0.17732786460E+03  0.12499251336E+03 0.  0.
    9000005    1    3    3    0    0  0.53502296238E+02 -0.92923653507E+00 -0.10867609426E+03  0.12113980620E+03  0.10000000000E+01 0.  0.
    9000005    1    3    3    0    0 -0.53502296238E+02  0.92923653507E+00 -0.17109609091E+02  0.56188058398E+02  0.10000000000E+01 0.  0.
<mgrwt>
<rscale>  0 0.12499251E+03</rscale>
<asrwt>0</asrwt>
<pdfrwt beam="1">  1        4 0.39647817E-02 0.12499251E+03</pdfrwt>
<pdfrwt beam="2">  1       -4 0.23316428E-01 0.12499251E+03</pdfrwt>
<totfact> 0.94116022E+03</totfact>
</mgrwt>
</event>
<event>
 5    1  0.3212987E-002  0.1249986E+03  0.7818608E-02  0.1235071E+00
          4   -1    0    0  501    0  0.00000000000E+00  0.00000000000E+00  0.16412985774E+02  0.16462047322E+02  0.12700000000E+01 0. -1.
         -4   -1    0    0    0  501 -0.00000000000E+00 -0.00000000000E+00 -0.23758629076E+03  0.23758968509E+03  0.12700000000E+01 0. -1.
         25    2    1    2    0    0  0.00000000000E+00  0.00000000000E+00 -0.22117330499E+03  0.25405173241E+03  0.12499860759E+03 0.  0.
    9000005    1    3    3    0    0  0.55100304638E+02 -0.68083392567E+01 -0.16888485074E+03  0.17777932912E+03  0.10000000000E+01 0.  0.
    9000005    1    3    3    0    0 -0.55100304638E+02  0.68083392567E+01 -0.52288454250E+02  0.76272403283E+02  0.10000000000E+01 0.  0.
<mgrwt>
<rscale>  0 0.12499861E+03</rscale>
<asrwt>0</asrwt>
<pdfrwt beam="1">  1        4 0.25291100E-02 0.12499861E+03</pdfrwt>
<pdfrwt beam="2">  1       -4 0.36555770E-01 0.12499861E+03</pdfrwt>
<totfact> 0.81750667E+03</totfact>
</mgrwt>
</event>
<event>
 5    1  0.3212987E-002  0.1249993E+03  0.7818608E-02  0.1235070E+00
         -4   -1    0    0    0  501 -0.00000000000E+00  0.00000000000E+00  0.28633629170E+01  0.31323708584E+01  0.12700000000E+01 0.  1.
          4   -1    0    0  501    0  0.00000000000E+00 -0.00000000000E+00 -0.13027261285E+04  0.13027267475E+04  0.12700000000E+01 0.  1.
         25    2    1    2    0    0  0.00000000000E+00  0.00000000000E+00 -0.12998627656E+04  0.13058591184E+04  0.12499931110E+03 0.  0.
    9000005    1    3    3    0    0  0.51489042375E+02  0.19355062982E+01 -0.28052649038E+03  0.28522093099E+03  0.10000000000E+01 0.  0.
    9000005    1    3    3    0    0 -0.51489042375E+02 -0.19355062982E+01 -0.10193362752E+04  0.10206381874E+04  0.10000000000E+01 0.  0.
<mgrwt>
<rscale>  0 0.12499931E+03</rscale>
<asrwt>0</asrwt>
<pdfrwt beam="2">  1        4 0.20043969E+00 0.12499931E+03</pdfrwt>
<pdfrwt beam="1">  1       -4 0.46125895E-03 0.12499931E+03</pdfrwt>
<totfact> 0.22091051E+03</totfact>
</mgrwt>
</event>
<event>
 5    1  0.3212987E-002  0.1249978E+03  0.7818608E-02  0.1235073E+00
          4   -1    0    0  501    0  0.00000000000E+00  0.00000000000E+00  0.78217406854E+02  0.78227716540E+02  0.12700000000E+01 0. -1.
         -4   -1    0    0    0  501 -0.00000000000E+00 -0.00000000000E+00 -0.49917515649E+02  0.49933668687E+02  0.12700000000E+01 0. -1.
         25    2    1    2    0    0  0.00000000000E+00  0.00000000000E+00  0.28299891206E+02  0.12816138523E+03  0.12499782727E+03 0.  0.
    9000005    1    3    3    0    0 -0.42126567930E+02 -0.14445654069E+02  0.59097663185E+02  0.74005800049E+02  0.10000000000E+01 0.  0.
    9000005    1    3    3    0    0  0.42126567930E+02  0.14445654069E+02 -0.30797771979E+02  0.54155585178E+02  0.10000000000E+01 0.  0.
<mgrwt>
<rscale>  0 0.12499783E+03</rscale>
<asrwt>0</asrwt>
<pdfrwt beam="1">  1        4 0.12035483E-01 0.12499783E+03</pdfrwt>
<pdfrwt beam="2">  1       -4 0.76816534E-02 0.12499783E+03</pdfrwt>
<totfact> 0.10384513E+04</totfact>
</mgrwt>
</event>
<event>
 5    1  0.3212987E-002  0.1250001E+03  0.7818608E-02  0.1235069E+00
          4   -1    0    0  501    0  0.00000000000E+00  0.00000000000E+00  0.14594823177E+03  0.14595375726E+03  0.12700000000E+01 0. -1.
         -4   -1    0    0    0  501 -0.00000000000E+00 -0.00000000000E+00 -0.26743553600E+02  0.26773691549E+02  0.12700000000E+01 0. -1.
         25    2    1    2    0    0  0.00000000000E+00  0.00000000000E+00  0.11920467817E+03  0.17272744881E+03  0.12500006509E+03 0.  0.
    9000005    1    3    3    0    0  0.40500857162E+02 -0.38152310737E+02  0.20291211501E+02  0.59233871304E+02  0.10000000000E+01 0.  0.
    9000005    1    3    3    0    0 -0.40500857162E+02  0.38152310737E+02  0.98913466669E+02  0.11349357750E+03  0.10000000000E+01 0.  0.
<mgrwt>
<rscale>  0 0.12500007E+03</rscale>
<asrwt>0</asrwt>
<pdfrwt beam="1">  1        4 0.22456317E-01 0.12500007E+03</pdfrwt>
<pdfrwt beam="2">  1       -4 0.41171363E-02 0.12500007E+03</pdfrwt>
<totfact> 0.94942570E+03</totfact>
</mgrwt>
</event>
<event>
 5    1  0.3212987E-002  0.1249983E+03  0.7818608E-02  0.1235072E+00
         -4   -1    0    0    0  501 -0.00000000000E+00  0.00000000000E+00  0.20137475794E+03  0.20137876262E+03  0.12700000000E+01 0. -1.
          4   -1    0    0  501    0  0.00000000000E+00 -0.00000000000E+00 -0.19372383559E+02  0.19413967775E+02  0.12700000000E+01 0. -1.
         25    2    1    2    0    0  0.00000000000E+00  0.00000000000E+00  0.18200237438E+03  0.22079273040E+03  0.12499826205E+03 0.  0.
    9000005    1    3    3    0    0 -0.41287409658E+02  0.46658195942E+02  0.99564682740E+02  0.11745536809E+03  0.10000000000E+01 0.  0.
    9000005    1    3    3    0    0  0.41287409658E+02 -0.46658195942E+02  0.82437691641E+02  0.10333736230E+03  0.10000000000E+01 0.  0.
<mgrwt>
<rscale>  0 0.12499826E+03</rscale>
<asrwt>0</asrwt>
<pdfrwt beam="2">  1        4 0.29838733E-02 0.12499826E+03</pdfrwt>
<pdfrwt beam="1">  1       -4 0.30984242E-01 0.12499826E+03</pdfrwt>
<totfact> 0.86746429E+03</totfact>
</mgrwt>
</event>
<event>
 5    1  0.3212987E-002  0.1249993E+03  0.7818608E-02  0.1235070E+00
         -4   -1    0    0    0  501 -0.00000000000E+00  0.00000000000E+00  0.97133028488E+03  0.97133111513E+03  0.12700000000E+01 0.  1.
          4   -1    0    0  501    0  0.00000000000E+00 -0.00000000000E+00 -0.39203807222E+01  0.41209568072E+01  0.12700000000E+01 0.  1.
         25    2    1    2    0    0  0.00000000000E+00  0.00000000000E+00  0.96740990416E+03  0.97545207194E+03  0.12499928795E+03 0.  0.
    9000005    1    3    3    0    0  0.62406931832E+02  0.32428419686E+01  0.48568426336E+03  0.48968902872E+03  0.10000000000E+01 0.  0.
    9000005    1    3    3    0    0 -0.62406931832E+02 -0.32428419686E+01  0.48172564079E+03  0.48576304322E+03  0.10000000000E+01 0.  0.
<mgrwt>
<rscale>  0 0.12499929E+03</rscale>
<asrwt>0</asrwt>
<pdfrwt beam="2">  1        4 0.61862721E-03 0.12499929E+03</pdfrwt>
<pdfrwt beam="1">  1       -4 0.14945118E+00 0.12499929E+03</pdfrwt>
<totfact> 0.31429638E+03</totfact>
</mgrwt>
</event>
<event>
 5    1  0.3212987E-002  0.1249935E+03  0.7818608E-02  0.1235079E+00
         -4   -1    0    0    0  501 -0.00000000000E+00  0.00000000000E+00  0.67712492755E+02  0.67724401622E+02  0.12700000000E+01 0.  1.
          4   -1    0    0  501    0  0.00000000000E+00 -0.00000000000E+00 -0.57658827365E+02  0.57672812253E+02  0.12700000000E+01 0.  1.
         25    2    1    2    0    0  0.00000000000E+00  0.00000000000E+00  0.10053665389E+02  0.12539721387E+03  0.12499354007E+03 0.  0.
    9000005    1    3    3    0    0  0.52703276511E+02 -0.72104472223E+01 -0.27869619196E+02  0.60061148659E+02  0.10000000000E+01 0.  0.
    9000005    1    3    3    0    0 -0.52703276511E+02  0.72104472223E+01  0.37923284585E+02  0.65336065216E+02  0.10000000000E+01 0.  0.
<mgrwt>
<rscale>  0 0.12499354E+03</rscale>
<asrwt>0</asrwt>
<pdfrwt beam="2">  1        4 0.88725807E-02 0.12499354E+03</pdfrwt>
<pdfrwt beam="1">  1       -4 0.10419298E-01 0.12499354E+03</pdfrwt>
<totfact> 0.10445750E+04</totfact>
</mgrwt>
</event>
<event>
 5    1  0.3212987E-002  0.1250031E+03  0.7818608E-02  0.1235065E+00
          4   -1    0    0  501    0  0.00000000000E+00  0.00000000000E+00  0.48819886469E+02  0.48836402559E+02  0.12700000000E+01 0.  1.
         -4   -1    0    0    0  501 -0.00000000000E+00 -0.00000000000E+00 -0.79982323785E+02  0.79992406003E+02  0.12700000000E+01 0.  1.
         25    2    1    2    0    0  0.00000000000E+00  0.00000000000E+00 -0.31162437316E+02  0.12882880856E+03  0.12500305763E+03 0.  0.
    9000005    1    3    3    0    0  0.62207325299E+02 -0.58207472002E+01 -0.14195184814E+02  0.64079136158E+02  0.10000000000E+01 0.  0.
    9000005    1    3    3    0    0 -0.62207325299E+02  0.58207472002E+01 -0.16967252502E+02  0.64749672403E+02  0.10000000000E+01 0.  0.
<mgrwt>
<rscale>  0 0.12500306E+03</rscale>
<asrwt>0</asrwt>
<pdfrwt beam="1">  1        4 0.75127978E-02 0.12500306E+03</pdfrwt>
<pdfrwt beam="2">  1       -4 0.12307019E-01 0.12500306E+03</pdfrwt>
<totfact> 0.10368911E+04</totfact>
</mgrwt>
</event>
<event>
 5    1  0.3212987E-002  0.1250037E+03  0.7818608E-02  0.1235064E+00
          4   -1    0    0  501    0  0.00000000000E+00  0.00000000000E+00  0.42792943830E+02  0.42811785079E+02  0.12700000000E+01 0.  1.
         -4   -1    0    0    0  501 -0.00000000000E+00 -0.00000000000E+00 -0.91244561285E+02  0.91253399192E+02  0.12700000000E+01 0.  1.
         25    2    1    2    0    0  0.00000000000E+00  0.00000000000E+00 -0.48451617455E+02  0.13406518427E+03  0.12500365755E+03 0.  0.
    9000005    1    3    3    0    0 -0.44499073611E+02  0.16278558235E+02  0.19474965880E+02  0.51238982294E+02  0.10000000000E+01 0.  0.
    9000005    1    3    3    0    0  0.44499073611E+02 -0.16278558235E+02 -0.67926583335E+02  0.82826201978E+02  0.10000000000E+01 0.  0.
<mgrwt>
<rscale>  0 0.12500366E+03</rscale>
<asrwt>0</asrwt>
<pdfrwt beam="1">  1        4 0.65856590E-02 0.12500366E+03</pdfrwt>
<pdfrwt beam="2">  1       -4 0.14039754E-01 0.12500366E+03</pdfrwt>
<totfact> 0.10256966E+04</totfact>
</mgrwt>
</event>
<event>
 5    1  0.3212987E-002  0.1250018E+03  0.7818608E-02  0.1235066E+00
         -4   -1    0    0    0  501 -0.00000000000E+00  0.00000000000E+00  0.70211664203E+03  0.70211779062E+03  0.12700000000E+01 0.  1.
          4   -1    0    0  501    0  0.00000000000E+00 -0.00000000000E+00 -0.54900544036E+01  0.56350330393E+01  0.12700000000E+01 0.  1.
         25    2    1    2    0    0  0.00000000000E+00  0.00000000000E+00  0.69662658762E+03  0.70775282366E+03  0.12500182727E+03 0.  0.
    9000005    1    3    3    0    0 -0.78296182993E+01  0.31509888583E+02  0.65064116912E+03  0.65145153845E+03  0.10000000000E+01 0.  0.
    9000005    1    3    3    0    0  0.78296182993E+01 -0.31509888583E+02  0.45985418504E+02  0.56301285210E+02  0.10000000000E+01 0.  0.
<mgrwt>
<rscale>  0 0.12500183E+03</rscale>
<asrwt>0</asrwt>
<pdfrwt beam="2">  1        4 0.85586456E-03 0.12500183E+03</pdfrwt>
<pdfrwt beam="1">  1       -4 0.10802915E+00 0.12500183E+03</pdfrwt>
<totfact> 0.42678888E+03</totfact>
</mgrwt>
</event>
<event>
 5    1  0.3212987E-002  0.1250013E+03  0.7818608E-02  0.1235067E+00
         -4   -1    0    0    0  501 -0.00000000000E+00  0.00000000000E+00  0.40906041421E+02  0.40925751364E+02  0.12700000000E+01 0. -1.
          4   -1    0    0  501    0  0.00000000000E+00 -0.00000000000E+00 -0.95448325596E+02  0.95456774297E+02  0.12700000000E+01 0. -1.
         25    2    1    2    0    0  0.00000000000E+00  0.00000000000E+00 -0.54542284175E+02  0.13638252566E+03  0.12500133016E+03 0.  0.
    9000005    1    3    3    0    0  0.33003033220E+02 -0.72895535262E+01 -0.84621240951E+02  0.91126791957E+02  0.10000000000E+01 0.  0.
    9000005    1    3    3    0    0 -0.33003033220E+02  0.72895535262E+01  0.30078956776E+02  0.45255733704E+02  0.10000000000E+01 0.  0.
<mgrwt>
<rscale>  0 0.12500133E+03</rscale>
<asrwt>0</asrwt>
<pdfrwt beam="2">  1        4 0.14686524E-01 0.12500133E+03</pdfrwt>
<pdfrwt beam="1">  1       -4 0.62954032E-02 0.12500133E+03</pdfrwt>
<totfact> 0.10208706E+04</totfact>
</mgrwt>
</event>
<event>
 5    1  0.3212987E-002  0.1249880E+03  0.7818608E-02  0.1235088E+00
          4   -1    0    0  501    0  0.00000000000E+00  0.00000000000E+00  0.10374027239E+03  0.10374804584E+03  0.12700000000E+01 0. -1.
         -4   -1    0    0    0  501 -0.00000000000E+00 -0.00000000000E+00 -0.37627001770E+02  0.37648428416E+02  0.12700000000E+01 0. -1.
         25    2    1    2    0    0  0.00000000000E+00  0.00000000000E+00  0.66113270621E+02  0.14139647426E+03  0.12498799294E+03 0.  0.
    9000005    1    3    3    0    0  0.53757594713E+02 -0.31823713439E+02  0.31508859833E+02  0.69974538043E+02  0.10000000000E+01 0.  0.
    9000005    1    3    3    0    0 -0.53757594713E+02  0.31823713439E+02  0.34604410789E+02  0.71421936213E+02  0.10000000000E+01 0.  0.
<mgrwt>
<rscale>  0 0.12498799E+03</rscale>
<asrwt>0</asrwt>
<pdfrwt beam="1">  1        4 0.15962288E-01 0.12498799E+03</pdfrwt>
<pdfrwt beam="2">  1       -4 0.57910158E-02 0.12498799E+03</pdfrwt>
<totfact> 0.10107458E+04</totfact>
</mgrwt>
</event>
<event>
 5    1  0.3212987E-002  0.1249970E+03  0.7818608E-02  0.1235074E+00
         -4   -1    0    0    0  501 -0.00000000000E+00  0.00000000000E+00  0.52797056634E+02  0.52812328951E+02  0.12700000000E+01 0.  1.
          4   -1    0    0  501    0  0.00000000000E+00 -0.00000000000E+00 -0.73951108223E+02  0.73962012597E+02  0.12700000000E+01 0.  1.
         25    2    1    2    0    0  0.00000000000E+00  0.00000000000E+00 -0.21154051589E+02  0.12677434155E+03  0.12499695907E+03 0.  0.
    9000005    1    3    3    0    0  0.12052592148E+02  0.61243552001E+02 -0.75305995713E+01  0.62878832441E+02  0.10000000000E+01 0.  0.
    9000005    1    3    3    0    0 -0.12052592148E+02 -0.61243552001E+02 -0.13623452018E+02  0.63895509107E+02  0.10000000000E+01 0.  0.
<mgrwt>
<rscale>  0 0.12499696E+03</rscale>
<asrwt>0</asrwt>
<pdfrwt beam="2">  1        4 0.11379107E-01 0.12499696E+03</pdfrwt>
<pdfrwt beam="1">  1       -4 0.81246376E-02 0.12499696E+03</pdfrwt>
<totfact> 0.10414767E+04</totfact>
</mgrwt>
</event>
<event>
 5    1  0.3212987E-002  0.1250034E+03  0.7818608E-02  0.1235064E+00
         -4   -1    0    0    0  501 -0.00000000000E+00  0.00000000000E+00  0.42177355959E+02  0.42196472076E+02  0.12700000000E+01 0.  1.
          4   -1    0    0  501    0  0.00000000000E+00 -0.00000000000E+00 -0.92575430399E+02  0.92584141264E+02  0.12700000000E+01 0.  1.
         25    2    1    2    0    0  0.00000000000E+00  0.00000000000E+00 -0.50398074440E+02  0.13478061334E+03  0.12500339125E+03 0.  0.
    9000005    1    3    3    0    0 -0.53644349106E+02  0.68593559296E+01 -0.58964492811E+02  0.80016113173E+02  0.10000000000E+01 0.  0.
    9000005    1    3    3    0    0  0.53644349106E+02 -0.68593559296E+01  0.85664183714E+01  0.54764500167E+02  0.10000000000E+01 0.  0.
<mgrwt>
<rscale>  0 0.12500339E+03</rscale>
<asrwt>0</asrwt>
<pdfrwt beam="2">  1        4 0.14244514E-01 0.12500339E+03</pdfrwt>
<pdfrwt beam="1">  1       -4 0.64909646E-02 0.12500339E+03</pdfrwt>
<totfact> 0.10241914E+04</totfact>
</mgrwt>
</event>
<event>
 5    1  0.3212987E-002  0.1250002E+03  0.7818608E-02  0.1235069E+00
          4   -1    0    0  501    0  0.00000000000E+00  0.00000000000E+00  0.12093225156E+02  0.12159728396E+02  0.12700000000E+01 0. -1.
         -4   -1    0    0    0  501 -0.00000000000E+00 -0.00000000000E+00 -0.32205918301E+03  0.32206168704E+03  0.12700000000E+01 0. -1.
         25    2    1    2    0    0  0.00000000000E+00  0.00000000000E+00 -0.30996595785E+03  0.33422141544E+03  0.12500023804E+03 0.  0.
    9000005    1    3    3    0    0 -0.38752735254E+02  0.36876466528E+02 -0.68606812689E+02  0.87003120752E+02  0.10000000000E+01 0.  0.
    9000005    1    3    3    0    0  0.38752735254E+02 -0.36876466528E+02 -0.24135914516E+03  0.24721829469E+03  0.10000000000E+01 0.  0.
<mgrwt>
<rscale>  0 0.12500024E+03</rscale>
<asrwt>0</asrwt>
<pdfrwt beam="1">  1        4 0.18658047E-02 0.12500024E+03</pdfrwt>
<pdfrwt beam="2">  1       -4 0.49552868E-01 0.12500024E+03</pdfrwt>
<totfact> 0.71495627E+03</totfact>
</mgrwt>
</event>
<event>
 5    1  0.3212987E-002  0.1250091E+03  0.7818608E-02  0.1235055E+00
          4   -1    0    0  501    0  0.00000000000E+00  0.00000000000E+00  0.50053770953E+03  0.50053932069E+03  0.12700000000E+01 0. -1.
         -4   -1    0    0    0  501 -0.00000000000E+00 -0.00000000000E+00 -0.77519527088E+01  0.78552957169E+01  0.12700000000E+01 0. -1.
         25    2    1    2    0    0  0.00000000000E+00  0.00000000000E+00  0.49278575682E+03  0.50839461641E+03  0.12500913515E+03 0.  0.
    9000005    1    3    3    0    0  0.47914468885E+02  0.41585874569E+01  0.84088446023E+02  0.96875987390E+02  0.10000000000E+01 0.  0.
    9000005    1    3    3    0    0 -0.47914468885E+02 -0.41585874569E+01  0.40869731080E+03  0.41151862902E+03  0.10000000000E+01 0.  0.
<mgrwt>
<rscale>  0 0.12500914E+03</rscale>
<asrwt>0</asrwt>
<pdfrwt beam="1">  1        4 0.77013879E-01 0.12500914E+03</pdfrwt>
<pdfrwt beam="2">  1       -4 0.12006814E-02 0.12500914E+03</pdfrwt>
<totfact> 0.55207789E+03</totfact>
</mgrwt>
</event>
<event>
 5    1  0.3212987E-002  0.1250007E+03  0.7818608E-02  0.1235068E+00
          4   -1    0    0  501    0  0.00000000000E+00  0.00000000000E+00  0.58887888319E+02  0.58901581393E+02  0.12700000000E+01 0. -1.
         -4   -1    0    0    0  501 -0.00000000000E+00 -0.00000000000E+00 -0.66306954414E+02  0.66319115673E+02  0.12700000000E+01 0. -1.
         25    2    1    2    0    0  0.00000000000E+00  0.00000000000E+00 -0.74190660955E+01  0.12522069707E+03  0.12500072173E+03 0.  0.
    9000005    1    3    3    0    0  0.14054323574E+02  0.20979407392E+01  0.57252877793E+02  0.58998452370E+02  0.10000000000E+01 0.  0.
    9000005    1    3    3    0    0 -0.14054323574E+02 -0.20979407392E+01 -0.64671943888E+02  0.66222244697E+02  0.10000000000E+01 0.  0.
<mgrwt>
<rscale>  0 0.12500072E+03</rscale>
<asrwt>0</asrwt>
<pdfrwt beam="1">  1        4 0.90616639E-02 0.12500072E+03</pdfrwt>
<pdfrwt beam="2">  1       -4 0.10203059E-01 0.12500072E+03</pdfrwt>
<totfact> 0.10447901E+04</totfact>
</mgrwt>
</event>
<event>
 5    1  0.3212987E-002  0.1249995E+03  0.7818608E-02  0.1235070E+00
         -4   -1    0    0    0  501 -0.00000000000E+00  0.00000000000E+00  0.57372351505E+02  0.57386406205E+02  0.12700000000E+01 0. -1.
          4   -1    0    0  501    0  0.00000000000E+00 -0.00000000000E+00 -0.68057096252E+02  0.68068944830E+02  0.12700000000E+01 0. -1.
         25    2    1    2    0    0  0.00000000000E+00  0.00000000000E+00 -0.10684744747E+02  0.12545535104E+03  0.12499952533E+03 0.  0.
    9000005    1    3    3    0    0  0.17964442755E+02  0.11454844793E+02  0.53619501801E+02  0.57706027814E+02  0.10000000000E+01 0.  0.
    9000005    1    3    3    0    0 -0.17964442755E+02 -0.11454844793E+02 -0.64304246548E+02  0.67749323221E+02  0.10000000000E+01 0.  0.
<mgrwt>
<rscale>  0 0.12499953E+03</rscale>
<asrwt>0</asrwt>
<pdfrwt beam="2">  1        4 0.10472315E-01 0.12499953E+03</pdfrwt>
<pdfrwt beam="1">  1       -4 0.88285081E-02 0.12499953E+03</pdfrwt>
<totfact> 0.10443053E+04</totfact>
</mgrwt>
</event>
<event>
 5    1  0.3212987E-002  0.1250026E+03  0.7818608E-02  0.1235065E+00
         -4   -1    0    0    0  501 -0.00000000000E+00  0.00000000000E+00  0.14303772018E+01  0.19128196306E+01  0.12700000000E+01 0. -1.
          4   -1    0    0  501    0  0.00000000000E+00 -0.00000000000E+00 -0.23364509273E+04  0.23364512725E+04  0.12700000000E+01 0. -1.
         25    2    1    2    0    0  0.00000000000E+00  0.00000000000E+00 -0.23350205501E+04  0.23383640921E+04  0.12500263117E+03 0.  0.
    9000005    1    3    3    0    0  0.31340854657E+01 -0.46592927522E+02 -0.39063976617E+03  0.39342235612E+03  0.10000000000E+01 0.  0.
    9000005    1    3    3    0    0 -0.31340854657E+01  0.46592927522E+02 -0.19443807839E+04  0.19449417360E+04  0.10000000000E+01 0.  0.
<mgrwt>
<rscale>  0 0.12500263E+03</rscale>
<asrwt>0</asrwt>
<pdfrwt beam="2">  1        4 0.35948851E+00 0.12500263E+03</pdfrwt>
<pdfrwt beam="1">  1       -4 0.25719741E-03 0.12500263E+03</pdfrwt>
<totfact> 0.60662456E+02</totfact>
</mgrwt>
</event>
<event>
 5    1  0.3212987E-002  0.1249986E+03  0.7818608E-02  0.1235071E+00
          4   -1    0    0  501    0  0.00000000000E+00  0.00000000000E+00  0.36308272092E+02  0.36330476494E+02  0.12700000000E+01 0. -1.
         -4   -1    0    0    0  501 -0.00000000000E+00 -0.00000000000E+00 -0.10752445087E+03  0.10753195076E+03  0.12700000000E+01 0. -1.
         25    2    1    2    0    0  0.00000000000E+00  0.00000000000E+00 -0.71216178779E+02  0.14386242726E+03  0.12499861542E+03 0.  0.
    9000005    1    3    3    0    0  0.59026274475E+02 -0.61036416848E+01 -0.13060549667E+02  0.60769511088E+02  0.10000000000E+01 0.  0.
    9000005    1    3    3    0    0 -0.59026274475E+02  0.61036416848E+01 -0.58155629112E+02  0.83092916170E+02  0.10000000000E+01 0.  0.
<mgrwt>
<rscale>  0 0.12499862E+03</rscale>
<asrwt>0</asrwt>
<pdfrwt beam="1">  1        4 0.55881730E-02 0.12499862E+03</pdfrwt>
<pdfrwt beam="2">  1       -4 0.16544508E-01 0.12499862E+03</pdfrwt>
<totfact> 0.10054466E+04</totfact>
</mgrwt>
</event>
<event>
 5    1  0.3212987E-002  0.1250024E+03  0.7818608E-02  0.1235066E+00
         -4   -1    0    0    0  501 -0.00000000000E+00  0.00000000000E+00  0.87311913574E+02  0.87321149511E+02  0.12700000000E+01 0.  1.
          4   -1    0    0  501    0  0.00000000000E+00 -0.00000000000E+00 -0.44720115255E+02  0.44738144892E+02  0.12700000000E+01 0.  1.
         25    2    1    2    0    0  0.00000000000E+00  0.00000000000E+00  0.42591798319E+02  0.13205929440E+03  0.12500238379E+03 0.  0.
    9000005    1    3    3    0    0 -0.34626482778E+02  0.76442713168E+01  0.75659382059E+02  0.83562971986E+02  0.10000000000E+01 0.  0.
    9000005    1    3    3    0    0  0.34626482778E+02 -0.76442713168E+01 -0.33067583740E+02  0.48496322417E+02  0.10000000000E+01 0.  0.
<mgrwt>
<rscale>  0 0.12500238E+03</rscale>
<asrwt>0</asrwt>
<pdfrwt beam="2">  1        4 0.68821151E-02 0.12500238E+03</pdfrwt>
<pdfrwt beam="1">  1       -4 0.13434699E-01 0.12500238E+03</pdfrwt>
<totfact> 0.10299879E+04</totfact>
</mgrwt>
</event>
<event>
 5    1  0.3212987E-002  0.1250047E+03  0.7818608E-02  0.1235062E+00
          4   -1    0    0  501    0  0.00000000000E+00  0.00000000000E+00  0.12657968560E+03  0.12658605652E+03  0.12700000000E+01 0. -1.
         -4   -1    0    0    0  501 -0.00000000000E+00 -0.00000000000E+00 -0.30842107029E+02  0.30868243649E+02  0.12700000000E+01 0. -1.
         25    2    1    2    0    0  0.00000000000E+00  0.00000000000E+00  0.95737578567E+02  0.15745430017E+03  0.12500469068E+03 0.  0.
    9000005    1    3    3    0    0 -0.58583258204E+01 -0.61750693830E+02  0.57467719572E+02  0.84563626712E+02  0.10000000000E+01 0.  0.
    9000005    1    3    3    0    0  0.58583258204E+01  0.61750693830E+02  0.38269858995E+02  0.72890673459E+02  0.10000000000E+01 0.  0.
<mgrwt>
<rscale>  0 0.12500469E+03</rscale>
<asrwt>0</asrwt>
<pdfrwt beam="1">  1        4 0.19476298E-01 0.12500469E+03</pdfrwt>
<pdfrwt beam="2">  1       -4 0.47474402E-02 0.12500469E+03</pdfrwt>
<totfact> 0.97825515E+03</totfact>
</mgrwt>
</event>
<event>
 5    1  0.3212987E-002  0.1249970E+03  0.7818608E-02  0.1235074E+00
          4   -1    0    0  501    0  0.00000000000E+00  0.00000000000E+00  0.20596420420E+02  0.20635538135E+02  0.12700000000E+01 0.  1.
         -4   -1    0    0    0  501 -0.00000000000E+00 -0.00000000000E+00 -0.18942638437E+03  0.18943064165E+03  0.12700000000E+01 0.  1.
         25    2    1    2    0    0  0.00000000000E+00  0.00000000000E+00 -0.16882996395E+03  0.21006617978E+03  0.12499697261E+03 0.  0.
    9000005    1    3    3    0    0  0.47983261028E+02  0.19576754012E+02 -0.25729189846E+02  0.57867381543E+02  0.10000000000E+01 0.  0.
    9000005    1    3    3    0    0 -0.47983261028E+02 -0.19576754012E+02 -0.14310077410E+03  0.15219879824E+03  0.10000000000E+01 0.  0.
<mgrwt>
<rscale>  0 0.12499697E+03</rscale>
<asrwt>0</asrwt>
<pdfrwt beam="1">  1        4 0.31720167E-02 0.12499697E+03</pdfrwt>
<pdfrwt beam="2">  1       -4 0.29145856E-01 0.12499697E+03</pdfrwt>
<totfact> 0.88471062E+03</totfact>
</mgrwt>
</event>
<event>
 5    1  0.3212987E-002  0.1250032E+03  0.7818608E-02  0.1235064E+00
          4   -1    0    0  501    0  0.00000000000E+00  0.00000000000E+00  0.20442254445E+02  0.20481666602E+02  0.12700000000E+01 0.  1.
         -4   -1    0    0    0  501 -0.00000000000E+00 -0.00000000000E+00 -0.19087125231E+03  0.19087547737E+03  0.12700000000E+01 0.  1.
         25    2    1    2    0    0  0.00000000000E+00  0.00000000000E+00 -0.17042899787E+03  0.21135714397E+03  0.12500319593E+03 0.  0.
    9000005    1    3    3    0    0  0.19406140930E+02 -0.36799783860E+02 -0.63669426157E+01  0.42099410403E+02  0.10000000000E+01 0.  0.
    9000005    1    3    3    0    0 -0.19406140930E+02  0.36799783860E+02 -0.16406205525E+03  0.16925773357E+03  0.10000000000E+01 0.  0.
<mgrwt>
<rscale>  0 0.12500320E+03</rscale>
<asrwt>0</asrwt>
<pdfrwt beam="1">  1        4 0.31483191E-02 0.12500320E+03</pdfrwt>
<pdfrwt beam="2">  1       -4 0.29368163E-01 0.12500320E+03</pdfrwt>
<totfact> 0.88248416E+03</totfact>
</mgrwt>
</event>
<event>
 5    1  0.3212987E-002  0.1250006E+03  0.7818608E-02  0.1235068E+00
          4   -1    0    0  501    0  0.00000000000E+00  0.00000000000E+00  0.58320208615E+02  0.58334034945E+02  0.12700000000E+01 0.  1.
         -4   -1    0    0    0  501 -0.00000000000E+00 -0.00000000000E+00 -0.66952197508E+02  0.66964241585E+02  0.12700000000E+01 0.  1.
         25    2    1    2    0    0  0.00000000000E+00  0.00000000000E+00 -0.86319888921E+01  0.12529827653E+03  0.12500058748E+03 0.  0.
    9000005    1    3    3    0    0  0.92011830082E+01  0.51386695257E+02 -0.38749403941E+02  0.65021308230E+02  0.10000000000E+01 0.  0.
    9000005    1    3    3    0    0 -0.92011830082E+01 -0.51386695257E+02  0.30117415049E+02  0.60276968300E+02  0.10000000000E+01 0.  0.
<mgrwt>
<rscale>  0 0.12500059E+03</rscale>
<asrwt>0</asrwt>
<pdfrwt beam="1">  1        4 0.89743298E-02 0.12500059E+03</pdfrwt>
<pdfrwt beam="2">  1       -4 0.10302328E-01 0.12500059E+03</pdfrwt>
<totfact> 0.10446249E+04</totfact>
</mgrwt>
</event>
<event>
 5    1  0.3212987E-002  0.1250002E+03  0.7818608E-02  0.1235069E+00
         -4   -1    0    0    0  501 -0.00000000000E+00  0.00000000000E+00  0.18975379021E+03  0.18975804014E+03  0.12700000000E+01 0. -1.
          4   -1    0    0  501    0  0.00000000000E+00 -0.00000000000E+00 -0.20561893885E+02  0.20601077159E+02  0.12700000000E+01 0. -1.
         25    2    1    2    0    0  0.00000000000E+00  0.00000000000E+00  0.16919189632E+03  0.21035911730E+03  0.12500024180E+03 0.  0.
    9000005    1    3    3    0    0  0.28903735896E+02  0.54101803292E+02  0.10470846188E+03  0.12135605900E+03  0.10000000000E+01 0.  0.
    9000005    1    3    3    0    0 -0.28903735896E+02 -0.54101803292E+02  0.64483434446E+02  0.89003058297E+02  0.10000000000E+01 0.  0.
<mgrwt>
<rscale>  0 0.12500024E+03</rscale>
<asrwt>0</asrwt>
<pdfrwt beam="2">  1        4 0.31667093E-02 0.12500024E+03</pdfrwt>
<pdfrwt beam="1">  1       -4 0.29196232E-01 0.12500024E+03</pdfrwt>
<totfact> 0.88416788E+03</totfact>
</mgrwt>
</event>
<event>
 5    1  0.3212987E-002  0.1249959E+03  0.7818608E-02  0.1235076E+00
         -4   -1    0    0    0  501 -0.00000000000E+00  0.00000000000E+00  0.63089456626E+02  0.63102237974E+02  0.12700000000E+01 0.  1.
          4   -1    0    0  501    0  0.00000000000E+00 -0.00000000000E+00 -0.61886390060E+02  0.61899419824E+02  0.12700000000E+01 0.  1.
         25    2    1    2    0    0  0.00000000000E+00  0.00000000000E+00  0.12030665666E+01  0.12500165780E+03  0.12499586826E+03 0.  0.
    9000005    1    3    3    0    0 -0.95665931406E+01  0.75288439213E+01  0.61897019220E+02  0.63090761474E+02  0.10000000000E+01 0.  0.
    9000005    1    3    3    0    0  0.95665931406E+01 -0.75288439213E+01 -0.60693952653E+02  0.61910896325E+02  0.10000000000E+01 0.  0.
<mgrwt>
<rscale>  0 0.12499587E+03</rscale>
<asrwt>0</asrwt>
<pdfrwt beam="2">  1        4 0.95229685E-02 0.12499587E+03</pdfrwt>
<pdfrwt beam="1">  1       -4 0.97080558E-02 0.12499587E+03</pdfrwt>
<totfact> 0.10453803E+04</totfact>
</mgrwt>
</event>
<event>
 5    1  0.3212987E-002  0.1250021E+03  0.7818608E-02  0.1235066E+00
         -4   -1    0    0    0  501 -0.00000000000E+00  0.00000000000E+00  0.19865779575E+02  0.19906333116E+02  0.12700000000E+01 0. -1.
          4   -1    0    0  501    0  0.00000000000E+00 -0.00000000000E+00 -0.19639550267E+03  0.19639960889E+03  0.12700000000E+01 0. -1.
         25    2    1    2    0    0  0.00000000000E+00  0.00000000000E+00 -0.17652972310E+03  0.21630594200E+03  0.12500206962E+03 0.  0.
    9000005    1    3    3    0    0  0.47369449225E+02  0.11533009103E+02 -0.15591747581E+03  0.16336503384E+03  0.10000000000E+01 0.  0.
    9000005    1    3    3    0    0 -0.47369449225E+02 -0.11533009103E+02 -0.20612247291E+02  0.52940908164E+02  0.10000000000E+01 0.  0.
<mgrwt>
<rscale>  0 0.12500207E+03</rscale>
<asrwt>0</asrwt>
<pdfrwt beam="2">  1        4 0.30218127E-01 0.12500207E+03</pdfrwt>
<pdfrwt beam="1">  1       -4 0.30597093E-02 0.12500207E+03</pdfrwt>
<totfact> 0.87452239E+03</totfact>
</mgrwt>
</event>
<event>
 5    1  0.3212987E-002  0.1249967E+03  0.7818608E-02  0.1235074E+00
         -4   -1    0    0    0  501 -0.00000000000E+00  0.00000000000E+00  0.52348131231E+02  0.52363534481E+02  0.12700000000E+01 0.  1.
          4   -1    0    0  501    0  0.00000000000E+00 -0.00000000000E+00 -0.74584910203E+02  0.74595721928E+02  0.12700000000E+01 0.  1.
         25    2    1    2    0    0  0.00000000000E+00  0.00000000000E+00 -0.22236778972E+02  0.12695925641E+03  0.12499671375E+03 0.  0.
    9000005    1    3    3    0    0 -0.51666081983E+02 -0.33684886707E+02 -0.91127950924E+00  0.61691863729E+02  0.10000000000E+01 0.  0.
    9000005    1    3    3    0    0  0.51666081983E+02  0.33684886707E+02 -0.21325499463E+02  0.65267392681E+02  0.10000000000E+01 0.  0.
<mgrwt>
<rscale>  0 0.12499671E+03</rscale>
<asrwt>0</asrwt>
<pdfrwt beam="2">  1        4 0.11476618E-01 0.12499671E+03</pdfrwt>
<pdfrwt beam="1">  1       -4 0.80555751E-02 0.12499671E+03</pdfrwt>
<totfact> 0.10410803E+04</totfact>
</mgrwt>
</event>
<event>
 5    1  0.3212987E-002  0.1250004E+03  0.7818608E-02  0.1235069E+00
          4   -1    0    0  501    0  0.00000000000E+00  0.00000000000E+00  0.47851240829E+02  0.47868091134E+02  0.12700000000E+01 0. -1.
         -4   -1    0    0    0  501 -0.00000000000E+00 -0.00000000000E+00 -0.81597623020E+02  0.81607505675E+02  0.12700000000E+01 0. -1.
         25    2    1    2    0    0  0.00000000000E+00  0.00000000000E+00 -0.33746382191E+02  0.12947559681E+03  0.12500044743E+03 0.  0.
    9000005    1    3    3    0    0  0.40604733112E+02  0.46004058116E+02 -0.29135966844E+02  0.67933955266E+02  0.10000000000E+01 0.  0.
    9000005    1    3    3    0    0 -0.40604733112E+02 -0.46004058116E+02 -0.46104153472E+01  0.61541641543E+02  0.10000000000E+01 0.  0.
<mgrwt>
<rscale>  0 0.12500045E+03</rscale>
<asrwt>0</asrwt>
<pdfrwt beam="1">  1        4 0.73637857E-02 0.12500045E+03</pdfrwt>
<pdfrwt beam="2">  1       -4 0.12555537E-01 0.12500045E+03</pdfrwt>
<totfact> 0.10355634E+04</totfact>
</mgrwt>
</event>
<event>
 5    1  0.3212987E-002  0.1249975E+03  0.7818608E-02  0.1235073E+00
          4   -1    0    0  501    0  0.00000000000E+00  0.00000000000E+00  0.53536866111E+01  0.55022595658E+01  0.12700000000E+01 0. -1.
         -4   -1    0    0    0  501 -0.00000000000E+00 -0.00000000000E+00 -0.71947377309E+03  0.71947489398E+03  0.12700000000E+01 0. -1.
         25    2    1    2    0    0  0.00000000000E+00  0.00000000000E+00 -0.71412008648E+03  0.72497715354E+03  0.12499750096E+03 0.  0.
    9000005    1    3    3    0    0 -0.22590628070E+02  0.33555545325E+02 -0.80799130365E+02  0.90364874627E+02  0.10000000000E+01 0.  0.
    9000005    1    3    3    0    0  0.22590628070E+02 -0.33555545325E+02 -0.63332095611E+03  0.63461227891E+03  0.10000000000E+01 0.  0.
<mgrwt>
<rscale>  0 0.12499750E+03</rscale>
<asrwt>0</asrwt>
<pdfrwt beam="1">  1        4 0.83515957E-03 0.12499750E+03</pdfrwt>
<pdfrwt beam="2">  1       -4 0.11069971E+00 0.12499750E+03</pdfrwt>
<totfact> 0.41802817E+03</totfact>
</mgrwt>
</event>
<event>
 5    1  0.3212987E-002  0.1249925E+03  0.7818608E-02  0.1235081E+00
          4   -1    0    0  501    0  0.00000000000E+00  0.00000000000E+00  0.89769313532E+01  0.90663221055E+01  0.12700000000E+01 0. -1.
         -4   -1    0    0    0  501 -0.00000000000E+00 -0.00000000000E+00 -0.43284515518E+03  0.43284701832E+03  0.12700000000E+01 0. -1.
         25    2    1    2    0    0  0.00000000000E+00  0.00000000000E+00 -0.42386822383E+03  0.44191334042E+03  0.12499251686E+03 0.  0.
    9000005    1    3    3    0    0  0.10645178207E+02  0.14332642741E-02 -0.42963313557E+03  0.42976615851E+03  0.10000000000E+01 0.  0.
    9000005    1    3    3    0    0 -0.10645178207E+02 -0.14332642741E-02  0.57649117375E+01  0.12147181914E+02  0.10000000000E+01 0.  0.
<mgrwt>
<rscale>  0 0.12499252E+03</rscale>
<asrwt>0</asrwt>
<pdfrwt beam="1">  1        4 0.13880862E-02 0.12499252E+03</pdfrwt>
<pdfrwt beam="2">  1       -4 0.66598566E-01 0.12499252E+03</pdfrwt>
<totfact> 0.60680781E+03</totfact>
</mgrwt>
</event>
<event>
 5    1  0.3212987E-002  0.1249975E+03  0.7818608E-02  0.1235073E+00
         -4   -1    0    0    0  501 -0.00000000000E+00  0.00000000000E+00  0.26669573683E+03  0.26669876067E+03  0.12700000000E+01 0. -1.
          4   -1    0    0  501    0  0.00000000000E+00 -0.00000000000E+00 -0.14615606480E+02  0.14670680038E+02  0.12700000000E+01 0. -1.
         25    2    1    2    0    0  0.00000000000E+00  0.00000000000E+00  0.25208013035E+03  0.28136944070E+03  0.12499748016E+03 0.  0.
    9000005    1    3    3    0    0  0.11176567826E+02 -0.61315163364E+02  0.13626357133E+03  0.14984400488E+03  0.10000000000E+01 0.  0.
    9000005    1    3    3    0    0 -0.11176567826E+02  0.61315163364E+02  0.11581655902E+03  0.13152543583E+03  0.10000000000E+01 0.  0.
<mgrwt>
<rscale>  0 0.12499748E+03</rscale>
<asrwt>0</asrwt>
<pdfrwt beam="2">  1        4 0.22530238E-02 0.12499748E+03</pdfrwt>
<pdfrwt beam="1">  1       -4 0.41034584E-01 0.12499748E+03</pdfrwt>
<totfact> 0.78001243E+03</totfact>
</mgrwt>
</event>
<event>
 5    1  0.3212987E-002  0.1250006E+03  0.7818608E-02  0.1235068E+00
          4   -1    0    0  501    0  0.00000000000E+00  0.00000000000E+00  0.68694335589E+02  0.68706074273E+02  0.12700000000E+01 0.  1.
         -4   -1    0    0    0  501 -0.00000000000E+00 -0.00000000000E+00 -0.56841037371E+02  0.56855223414E+02  0.12700000000E+01 0.  1.
         25    2    1    2    0    0  0.00000000000E+00  0.00000000000E+00  0.11853298218E+02  0.12556129769E+03  0.12500055519E+03 0.  0.
    9000005    1    3    3    0    0 -0.56293628491E+02 -0.24042729198E+02  0.18563196310E+02  0.63973570271E+02  0.10000000000E+01 0.  0.
    9000005    1    3    3    0    0  0.56293628491E+02  0.24042729198E+02 -0.67098980918E+01  0.61587727417E+02  0.10000000000E+01 0.  0.
<mgrwt>
<rscale>  0 0.12500056E+03</rscale>
<asrwt>0</asrwt>
<pdfrwt beam="1">  1        4 0.10570353E-01 0.12500056E+03</pdfrwt>
<pdfrwt beam="2">  1       -4 0.87467693E-02 0.12500056E+03</pdfrwt>
<totfact> 0.10440470E+04</totfact>
</mgrwt>
</event>
<event>
 5    1  0.3212987E-002  0.1250000E+03  0.7818608E-02  0.1235069E+00
         -4   -1    0    0    0  501 -0.00000000000E+00  0.00000000000E+00  0.57227255934E+03  0.57227396855E+03  0.12700000000E+01 0. -1.
          4   -1    0    0  501    0  0.00000000000E+00 -0.00000000000E+00 -0.67653527405E+01  0.68835236401E+01  0.12700000000E+01 0. -1.
         25    2    1    2    0    0  0.00000000000E+00  0.00000000000E+00  0.56550720660E+03  0.57915749219E+03  0.12500000015E+03 0.  0.
    9000005    1    3    3    0    0  0.16176376079E+02  0.19163349450E+02  0.54795829774E+03  0.54853277492E+03  0.10000000000E+01 0.  0.
    9000005    1    3    3    0    0 -0.16176376079E+02 -0.19163349450E+02  0.17548908865E+02  0.30624717265E+02  0.10000000000E+01 0.  0.
<mgrwt>
<rscale>  0 0.12500000E+03</rscale>
<asrwt>0</asrwt>
<pdfrwt beam="2">  1        4 0.10500215E-02 0.12500000E+03</pdfrwt>
<pdfrwt beam="1">  1       -4 0.88051169E-01 0.12500000E+03</pdfrwt>
<totfact> 0.50210229E+03</totfact>
</mgrwt>
</event>
<event>
 5    1  0.3212987E-002  0.1249959E+03  0.7818608E-02  0.1235076E+00
          4   -1    0    0  501    0  0.00000000000E+00  0.00000000000E+00  0.61535323072E+02  0.61548427158E+02  0.12700000000E+01 0.  1.
         -4   -1    0    0    0  501 -0.00000000000E+00 -0.00000000000E+00 -0.63449408090E+02  0.63462116943E+02  0.12700000000E+01 0.  1.
         25    2    1    2    0    0  0.00000000000E+00  0.00000000000E+00 -0.19140850176E+01  0.12501054410E+03  0.12499588959E+03 0.  0.
    9000005    1    3    3    0    0 -0.38602242521E+02 -0.39115281935E+02  0.28792952247E+02  0.62049758320E+02  0.10000000000E+01 0.  0.
    9000005    1    3    3    0    0  0.38602242521E+02  0.39115281935E+02 -0.30707037265E+02  0.62960785780E+02  0.10000000000E+01 0.  0.
<mgrwt>
<rscale>  0 0.12499589E+03</rscale>
<asrwt>0</asrwt>
<pdfrwt beam="1">  1        4 0.94689584E-02 0.12499589E+03</pdfrwt>
<pdfrwt beam="2">  1       -4 0.97634330E-02 0.12499589E+03</pdfrwt>
<totfact> 0.10453605E+04</totfact>
</mgrwt>
</event>
<event>
 5    1  0.3212987E-002  0.1249989E+03  0.7818608E-02  0.1235071E+00
         -4   -1    0    0    0  501 -0.00000000000E+00  0.00000000000E+00  0.91570829598E+01  0.92447319233E+01  0.12700000000E+01 0. -1.
          4   -1    0    0  501    0  0.00000000000E+00 -0.00000000000E+00 -0.42445451358E+03  0.42445641355E+03  0.12700000000E+01 0. -1.
         25    2    1    2    0    0  0.00000000000E+00  0.00000000000E+00 -0.41529743062E+03  0.43370114547E+03  0.12499891079E+03 0.  0.
    9000005    1    3    3    0    0  0.10350668345E+02 -0.28390079781E+02 -0.17860741898E+02  0.35116079882E+02  0.10000000000E+01 0.  0.
    9000005    1    3    3    0    0 -0.10350668345E+02  0.28390079781E+02 -0.39743668872E+03  0.39858506559E+03  0.10000000000E+01 0.  0.
<mgrwt>
<rscale>  0 0.12499891E+03</rscale>
<asrwt>0</asrwt>
<pdfrwt beam="2">  1        4 0.65307568E-01 0.12499891E+03</pdfrwt>
<pdfrwt beam="1">  1       -4 0.14156707E-02 0.12499891E+03</pdfrwt>
<totfact> 0.61403414E+03</totfact>
</mgrwt>
</event>
<event>
 5    1  0.3212987E-002  0.1250036E+03  0.7818608E-02  0.1235064E+00
          4   -1    0    0  501    0  0.00000000000E+00  0.00000000000E+00  0.20413641793E+02  0.20453109086E+02  0.12700000000E+01 0. -1.
         -4   -1    0    0    0  501 -0.00000000000E+00 -0.00000000000E+00 -0.19113948899E+03  0.19114370811E+03  0.12700000000E+01 0. -1.
         25    2    1    2    0    0  0.00000000000E+00  0.00000000000E+00 -0.17072584719E+03  0.21159681720E+03  0.12500359254E+03 0.  0.
    9000005    1    3    3    0    0 -0.94571086136E+01 -0.61536795133E+02 -0.76206468994E+02  0.98410568412E+02  0.10000000000E+01 0.  0.
    9000005    1    3    3    0    0  0.94571086136E+01  0.61536795133E+02 -0.94519378199E+02  0.11318624878E+03  0.10000000000E+01 0.  0.
<mgrwt>
<rscale>  0 0.12500359E+03</rscale>
<asrwt>0</asrwt>
<pdfrwt beam="1">  1        4 0.31439209E-02 0.12500359E+03</pdfrwt>
<pdfrwt beam="2">  1       -4 0.29409434E-01 0.12500359E+03</pdfrwt>
<totfact> 0.88208679E+03</totfact>
</mgrwt>
</event>
<event>
 5    1  0.3212987E-002  0.1250008E+03  0.7818608E-02  0.1235068E+00
          4   -1    0    0  501    0  0.00000000000E+00  0.00000000000E+00  0.38128780266E+02  0.38149925092E+02  0.12700000000E+01 0.  1.
         -4   -1    0    0    0  501 -0.00000000000E+00 -0.00000000000E+00 -0.10239661630E+03  0.10240449174E+03  0.12700000000E+01 0.  1.
         25    2    1    2    0    0  0.00000000000E+00  0.00000000000E+00 -0.64267836033E+02  0.14055441684E+03  0.12500075737E+03 0.  0.
    9000005    1    3    3    0    0 -0.46141875462E+02  0.13869242677E+02 -0.76883754360E+02  0.90738857432E+02  0.10000000000E+01 0.  0.
    9000005    1    3    3    0    0  0.46141875462E+02 -0.13869242677E+02  0.12615918327E+02  0.49815559405E+02  0.10000000000E+01 0.  0.
<mgrwt>
<rscale>  0 0.12500076E+03</rscale>
<asrwt>0</asrwt>
<pdfrwt beam="1">  1        4 0.58681986E-02 0.12500076E+03</pdfrwt>
<pdfrwt beam="2">  1       -4 0.15755558E-01 0.12500076E+03</pdfrwt>
<totfact> 0.10121935E+04</totfact>
</mgrwt>
</event>
<event>
 5    1  0.3212987E-002  0.1250015E+03  0.7818608E-02  0.1235067E+00
         -4   -1    0    0    0  501 -0.00000000000E+00  0.00000000000E+00  0.32346847626E+03  0.32347096938E+03  0.12700000000E+01 0.  1.
          4   -1    0    0  501    0  0.00000000000E+00 -0.00000000000E+00 -0.12040484761E+02  0.12107277699E+02  0.12700000000E+01 0.  1.
         25    2    1    2    0    0  0.00000000000E+00  0.00000000000E+00  0.31142799150E+03  0.33557824708E+03  0.12500146410E+03 0.  0.
    9000005    1    3    3    0    0 -0.51442857985E+02 -0.11460480314E+01  0.25091913706E+03  0.25614272273E+03  0.10000000000E+01 0.  0.
    9000005    1    3    3    0    0  0.51442857985E+02  0.11460480314E+01  0.60508854432E+02  0.79435524348E+02  0.10000000000E+01 0.  0.
<mgrwt>
<rscale>  0 0.12500146E+03</rscale>
<asrwt>0</asrwt>
<pdfrwt beam="2">  1        4 0.18577122E-02 0.12500146E+03</pdfrwt>
<pdfrwt beam="1">  1       -4 0.49769705E-01 0.12500146E+03</pdfrwt>
<totfact> 0.71338508E+03</totfact>
</mgrwt>
</event>
<event>
 5    1  0.3212987E-002  0.1250314E+03  0.7818608E-02  0.1235020E+00
         -4   -1    0    0    0  501 -0.00000000000E+00  0.00000000000E+00  0.12225958216E+03  0.12226617819E+03  0.12700000000E+01 0. -1.
          4   -1    0    0  501    0  0.00000000000E+00 -0.00000000000E+00 -0.31946460751E+02  0.31971694583E+02  0.12700000000E+01 0. -1.
         25    2    1    2    0    0  0.00000000000E+00  0.00000000000E+00  0.90313121405E+02  0.15423787277E+03  0.12503144204E+03 0.  0.
    9000005    1    3    3    0    0 -0.40626338739E+02  0.41363065388E+02  0.16336582781E+02  0.60243559943E+02  0.10000000000E+01 0.  0.
    9000005    1    3    3    0    0  0.40626338739E+02 -0.41363065388E+02  0.73976538624E+02  0.93994312830E+02  0.10000000000E+01 0.  0.
<mgrwt>
<rscale>  0 0.12503144E+03</rscale>
<asrwt>0</asrwt>
<pdfrwt beam="2">  1        4 0.49172885E-02 0.12503144E+03</pdfrwt>
<pdfrwt beam="1">  1       -4 0.18811615E-01 0.12503144E+03</pdfrwt>
<totfact> 0.98395721E+03</totfact>
</mgrwt>
</event>
<event>
 5    1  0.3212987E-002  0.1249982E+03  0.7818608E-02  0.1235072E+00
          4   -1    0    0  501    0  0.00000000000E+00  0.00000000000E+00  0.80628527718E+02  0.80638529141E+02  0.12700000000E+01 0. -1.
         -4   -1    0    0    0  501 -0.00000000000E+00 -0.00000000000E+00 -0.48424730527E+02  0.48441381345E+02  0.12700000000E+01 0. -1.
         25    2    1    2    0    0  0.00000000000E+00  0.00000000000E+00  0.32203797191E+02  0.12907991049E+03  0.12499815494E+03 0.  0.
    9000005    1    3    3    0    0 -0.51411110642E+02  0.11344437879E+02 -0.18662475716E+02  0.55866685673E+02  0.10000000000E+01 0.  0.
    9000005    1    3    3    0    0  0.51411110642E+02 -0.11344437879E+02  0.50866272906E+02  0.73213224814E+02  0.10000000000E+01 0.  0.
<mgrwt>
<rscale>  0 0.12499815E+03</rscale>
<asrwt>0</asrwt>
<pdfrwt beam="1">  1        4 0.12406439E-01 0.12499815E+03</pdfrwt>
<pdfrwt beam="2">  1       -4 0.74520087E-02 0.12499815E+03</pdfrwt>
<totfact> 0.10364662E+04</totfact>
</mgrwt>
</event>
<event>
 5    1  0.3212987E-002  0.1250274E+03  0.7818608E-02  0.1235026E+00
          4   -1    0    0  501    0  0.00000000000E+00  0.00000000000E+00  0.23629333449E+03  0.23629674739E+03  0.12700000000E+01 0.  1.
         -4   -1    0    0    0  501 -0.00000000000E+00 -0.00000000000E+00 -0.16510699538E+02  0.16559471587E+02  0.12700000000E+01 0.  1.
         25    2    1    2    0    0  0.00000000000E+00  0.00000000000E+00  0.21978263495E+03  0.25285621897E+03  0.12502744037E+03 0.  0.
    9000005    1    3    3    0    0  0.59665537299E+02  0.18009481050E+02  0.11951581524E+03  0.13479372330E+03  0.10000000000E+01 0.  0.
    9000005    1    3    3    0    0 -0.59665537299E+02 -0.18009481050E+02  0.10026681971E+03  0.11806249567E+03  0.10000000000E+01 0.  0.
<mgrwt>
<rscale>  0 0.12502744E+03</rscale>
<asrwt>0</asrwt>
<pdfrwt beam="1">  1        4 0.36356832E-01 0.12502744E+03</pdfrwt>
<pdfrwt beam="2">  1       -4 0.25441221E-02 0.12502744E+03</pdfrwt>
<totfact> 0.81869118E+03</totfact>
</mgrwt>
</event>
<event>
 5    1  0.3212987E-002  0.1250035E+03  0.7818608E-02  0.1235064E+00
         -4   -1    0    0    0  501 -0.00000000000E+00  0.00000000000E+00  0.54574649937E+01  0.56032869066E+01  0.12700000000E+01 0. -1.
          4   -1    0    0  501    0  0.00000000000E+00 -0.00000000000E+00 -0.70621925756E+03  0.70622039949E+03  0.12700000000E+01 0. -1.
         25    2    1    2    0    0  0.00000000000E+00  0.00000000000E+00 -0.70076179257E+03  0.71182368640E+03  0.12500348230E+03 0.  0.
    9000005    1    3    3    0    0 -0.31313113136E+02  0.12995103506E+02 -0.51432285890E+02  0.61608958775E+02  0.10000000000E+01 0.  0.
    9000005    1    3    3    0    0  0.31313113136E+02 -0.12995103506E+02 -0.64932950668E+03  0.65021472762E+03  0.10000000000E+01 0.  0.
<mgrwt>
<rscale>  0 0.12500348E+03</rscale>
<asrwt>0</asrwt>
<pdfrwt beam="2">  1        4 0.10866035E+00 0.12500348E+03</pdfrwt>
<pdfrwt beam="1">  1       -4 0.85091547E-03 0.12500348E+03</pdfrwt>
<totfact> 0.42466637E+03</totfact>
</mgrwt>
</event>
<event>
 5    1  0.3212987E-002  0.1250006E+03  0.7818608E-02  0.1235068E+00
         -4   -1    0    0    0  501 -0.00000000000E+00  0.00000000000E+00  0.81567534432E+01  0.82550303896E+01  0.12700000000E+01 0.  1.
          4   -1    0    0  501    0  0.00000000000E+00 -0.00000000000E+00 -0.47593561585E+03  0.47593731030E+03  0.12700000000E+01 0.  1.
         25    2    1    2    0    0  0.00000000000E+00  0.00000000000E+00 -0.46777886240E+03  0.48419234069E+03  0.12500063466E+03 0.  0.
    9000005    1    3    3    0    0 -0.39222314149E+02 -0.40088807527E+01 -0.46080525896E+02  0.60653737881E+02  0.10000000000E+01 0.  0.
    9000005    1    3    3    0    0  0.39222314149E+02  0.40088807527E+01 -0.42169833651E+03  0.42353860281E+03  0.10000000000E+01 0.  0.
<mgrwt>
<rscale>  0 0.12500063E+03</rscale>
<asrwt>0</asrwt>
<pdfrwt beam="2">  1        4 0.73228532E-01 0.12500063E+03</pdfrwt>
<pdfrwt beam="1">  1       -4 0.12625756E-02 0.12500063E+03</pdfrwt>
<totfact> 0.57111261E+03</totfact>
</mgrwt>
</event>
<event>
 5    1  0.3212987E-002  0.1249980E+03  0.7818608E-02  0.1235072E+00
         -4   -1    0    0    0  501 -0.00000000000E+00  0.00000000000E+00  0.13447225730E+04  0.13447231728E+04  0.12700000000E+01 0. -1.
          4   -1    0    0  501    0  0.00000000000E+00 -0.00000000000E+00 -0.27653359886E+01  0.30430220390E+01  0.12700000000E+01 0. -1.
         25    2    1    2    0    0  0.00000000000E+00  0.00000000000E+00  0.13419572370E+04  0.13477661948E+04  0.12499795900E+03 0.  0.
    9000005    1    3    3    0    0  0.26722641913E+02 -0.27639693748E+02  0.12021721822E+04  0.12027871831E+04  0.10000000000E+01 0.  0.
    9000005    1    3    3    0    0 -0.26722641913E+02  0.27639693748E+02  0.13978505485E+03  0.14497901165E+03  0.10000000000E+01 0.  0.
<mgrwt>
<rscale>  0 0.12499796E+03</rscale>
<asrwt>0</asrwt>
<pdfrwt beam="2">  1        4 0.44684217E-03 0.12499796E+03</pdfrwt>
<pdfrwt beam="1">  1       -4 0.20690214E+00 0.12499796E+03</pdfrwt>
<totfact> 0.21129301E+03</totfact>
</mgrwt>
</event>
<event>
 5    1  0.3212987E-002  0.1249976E+03  0.7818608E-02  0.1235073E+00
         -4   -1    0    0    0  501 -0.00000000000E+00  0.00000000000E+00  0.12745292213E+03  0.12745924941E+03  0.12700000000E+01 0.  1.
          4   -1    0    0  501    0  0.00000000000E+00 -0.00000000000E+00 -0.30627166061E+02  0.30653485950E+02  0.12700000000E+01 0.  1.
         25    2    1    2    0    0  0.00000000000E+00  0.00000000000E+00  0.96825756069E+02  0.15811273536E+03  0.12499764015E+03 0.  0.
    9000005    1    3    3    0    0 -0.41253987220E+02 -0.46906621758E+02  0.50596436213E+02  0.80393544416E+02  0.10000000000E+01 0.  0.
    9000005    1    3    3    0    0  0.41253987220E+02  0.46906621758E+02  0.46229319857E+02  0.77719190942E+02  0.10000000000E+01 0.  0.
<mgrwt>
<rscale>  0 0.12499764E+03</rscale>
<asrwt>0</asrwt>
<pdfrwt beam="2">  1        4 0.47143830E-02 0.12499764E+03</pdfrwt>
<pdfrwt beam="1">  1       -4 0.19610653E-01 0.12499764E+03</pdfrwt>
<totfact> 0.97713057E+03</totfact>
</mgrwt>
</event>
<event>
 5    1  0.3212987E-002  0.1250007E+03  0.7818608E-02  0.1235068E+00
          4   -1    0    0  501    0  0.00000000000E+00  0.00000000000E+00  0.50312280725E+01  0.51890419075E+01  0.12700000000E+01 0. -1.
         -4   -1    0    0    0  501 -0.00000000000E+00 -0.00000000000E+00 -0.76426272128E+03  0.76426377648E+03  0.12700000000E+01 0. -1.
         25    2    1    2    0    0  0.00000000000E+00  0.00000000000E+00 -0.75923149321E+03  0.76945281839E+03  0.12500071778E+03 0.  0.
    9000005    1    3    3    0    0  0.13971836638E+02  0.35735643487E+02 -0.68324575108E+03  0.68432302665E+03  0.10000000000E+01 0.  0.
    9000005    1    3    3    0    0 -0.13971836638E+02 -0.35735643487E+02 -0.75985742126E+02  0.85129791736E+02  0.10000000000E+01 0.  0.
<mgrwt>
<rscale>  0 0.12500072E+03</rscale>
<asrwt>0</asrwt>
<pdfrwt beam="1">  1        4 0.78625639E-03 0.12500072E+03</pdfrwt>
<pdfrwt beam="2">  1       -4 0.11759101E+00 0.12500072E+03</pdfrwt>
<totfact> 0.39659938E+03</totfact>
</mgrwt>
</event>
<event>
 5    1  0.3212987E-002  0.1249961E+03  0.7818608E-02  0.1235075E+00
         -4   -1    0    0    0  501 -0.00000000000E+00  0.00000000000E+00  0.44693804618E+03  0.44693985056E+03  0.12700000000E+01 0. -1.
          4   -1    0    0  501    0  0.00000000000E+00 -0.00000000000E+00 -0.86915171380E+01  0.87838129625E+01  0.12700000000E+01 0. -1.
         25    2    1    2    0    0  0.00000000000E+00  0.00000000000E+00  0.43824652904E+03  0.45572366352E+03  0.12499614907E+03 0.  0.
    9000005    1    3    3    0    0  0.23185903176E+02  0.18645374332E+01  0.76626448084E+01  0.24510788062E+02  0.10000000000E+01 0.  0.
    9000005    1    3    3    0    0 -0.23185903176E+02 -0.18645374332E+01  0.43058388423E+03  0.43121287546E+03  0.10000000000E+01 0.  0.
<mgrwt>
<rscale>  0 0.12499615E+03</rscale>
<asrwt>0</asrwt>
<pdfrwt beam="2">  1        4 0.13443949E-02 0.12499615E+03</pdfrwt>
<pdfrwt beam="1">  1       -4 0.68766939E-01 0.12499615E+03</pdfrwt>
<totfact> 0.59476183E+03</totfact>
</mgrwt>
</event>
<event>
 5    1  0.3212987E-002  0.1250020E+03  0.7818608E-02  0.1235066E+00
         -4   -1    0    0    0  501 -0.00000000000E+00  0.00000000000E+00  0.50679589784E+01  0.52246634539E+01  0.12700000000E+01 0. -1.
          4   -1    0    0  501    0  0.00000000000E+00 -0.00000000000E+00 -0.75890597911E+03  0.75890704176E+03  0.12700000000E+01 0. -1.
         25    2    1    2    0    0  0.00000000000E+00  0.00000000000E+00 -0.75383802013E+03  0.76413170521E+03  0.12500200924E+03 0.  0.
    9000005    1    3    3    0    0 -0.57510728520E+02 -0.49862643641E+01 -0.52325106460E+03  0.52642665522E+03  0.10000000000E+01 0.  0.
    9000005    1    3    3    0    0  0.57510728520E+02  0.49862643641E+01 -0.23058695554E+03  0.23770504999E+03  0.10000000000E+01 0.  0.
<mgrwt>
<rscale>  0 0.12500201E+03</rscale>
<asrwt>0</asrwt>
<pdfrwt beam="2">  1        4 0.11676681E+00 0.12500201E+03</pdfrwt>
<pdfrwt beam="1">  1       -4 0.79182253E-03 0.12500201E+03</pdfrwt>
<totfact> 0.39905441E+03</totfact>
</mgrwt>
</event>
<event>
 5    1  0.3212987E-002  0.1249996E+03  0.7818608E-02  0.1235070E+00
          4   -1    0    0  501    0  0.00000000000E+00  0.00000000000E+00  0.12770112086E+03  0.12770743584E+03  0.12700000000E+01 0.  1.
         -4   -1    0    0    0  501 -0.00000000000E+00 -0.00000000000E+00 -0.30568550220E+02  0.30594920535E+02  0.12700000000E+01 0.  1.
         25    2    1    2    0    0  0.00000000000E+00  0.00000000000E+00  0.97132570635E+02  0.15830235637E+03  0.12499959902E+03 0.  0.
    9000005    1    3    3    0    0  0.98556536383E+01 -0.11492193615E+02  0.12534975320E+03  0.12626466272E+03  0.10000000000E+01 0.  0.
    9000005    1    3    3    0    0 -0.98556536383E+01  0.11492193615E+02 -0.28217182567E+02  0.32037693655E+02  0.10000000000E+01 0.  0.
<mgrwt>
<rscale>  0 0.12499960E+03</rscale>
<asrwt>0</asrwt>
<pdfrwt beam="1">  1        4 0.19648841E-01 0.12499960E+03</pdfrwt>
<pdfrwt beam="2">  1       -4 0.47053681E-02 0.12499960E+03</pdfrwt>
<totfact> 0.97671959E+03</totfact>
</mgrwt>
</event>
<event>
 5    1  0.3212987E-002  0.1250244E+03  0.7818608E-02  0.1235031E+00
          4   -1    0    0  501    0  0.00000000000E+00  0.00000000000E+00  0.32524136624E+02  0.32548922611E+02  0.12700000000E+01 0. -1.
         -4   -1    0    0    0  501 -0.00000000000E+00 -0.00000000000E+00 -0.12007617998E+03  0.12008289594E+03  0.12700000000E+01 0. -1.
         25    2    1    2    0    0  0.00000000000E+00  0.00000000000E+00 -0.87552043351E+02  0.15263181855E+03  0.12502444457E+03 0.  0.
    9000005    1    3    3    0    0 -0.60307073568E+02  0.71463448218E+01 -0.61832732240E+02  0.86673526194E+02  0.10000000000E+01 0.  0.
    9000005    1    3    3    0    0  0.60307073568E+02 -0.71463448218E+01 -0.25719311111E+02  0.65958292357E+02  0.10000000000E+01 0.  0.
<mgrwt>
<rscale>  0 0.12502444E+03</rscale>
<asrwt>0</asrwt>
<pdfrwt beam="1">  1        4 0.50061366E-02 0.12502444E+03</pdfrwt>
<pdfrwt beam="2">  1       -4 0.18475681E-01 0.12502444E+03</pdfrwt>
<totfact> 0.98727340E+03</totfact>
</mgrwt>
</event>
<event>
 5    1  0.3212987E-002  0.1250043E+03  0.7818608E-02  0.1235063E+00
          4   -1    0    0  501    0  0.00000000000E+00  0.00000000000E+00  0.24045318051E+02  0.24078833447E+02  0.12700000000E+01 0. -1.
         -4   -1    0    0    0  501 -0.00000000000E+00 -0.00000000000E+00 -0.16231574055E+03  0.16232070888E+03  0.12700000000E+01 0. -1.
         25    2    1    2    0    0  0.00000000000E+00  0.00000000000E+00 -0.13827042250E+03  0.18639954232E+03  0.12500431849E+03 0.  0.
    9000005    1    3    3    0    0 -0.33694640681E+02  0.31712907049E+01  0.92050308901E+01  0.35087298115E+02  0.10000000000E+01 0.  0.
    9000005    1    3    3    0    0  0.33694640681E+02 -0.31712907049E+01 -0.14747545339E+03  0.15131224421E+03  0.10000000000E+01 0.  0.
<mgrwt>
<rscale>  0 0.12500432E+03</rscale>
<asrwt>0</asrwt>
<pdfrwt beam="1">  1        4 0.37022401E-02 0.12500432E+03</pdfrwt>
<pdfrwt beam="2">  1       -4 0.24974612E-01 0.12500432E+03</pdfrwt>
<totfact> 0.92468636E+03</totfact>
</mgrwt>
</event>
<event>
 5    1  0.3212987E-002  0.1250010E+03  0.7818608E-02  0.1235068E+00
          4   -1    0    0  501    0  0.00000000000E+00  0.00000000000E+00  0.45490453549E+02  0.45508177992E+02  0.12700000000E+01 0. -1.
         -4   -1    0    0    0  501 -0.00000000000E+00 -0.00000000000E+00 -0.85831917768E+02  0.85841312942E+02  0.12700000000E+01 0. -1.
         25    2    1    2    0    0  0.00000000000E+00  0.00000000000E+00 -0.40341464218E+02  0.13134949093E+03  0.12500102013E+03 0.  0.
    9000005    1    3    3    0    0  0.41317840721E+02 -0.16389283007E+02  0.25986723919E+02  0.51498372589E+02  0.10000000000E+01 0.  0.
    9000005    1    3    3    0    0 -0.41317840721E+02  0.16389283007E+02 -0.66328188137E+02  0.79851118345E+02  0.10000000000E+01 0.  0.
<mgrwt>
<rscale>  0 0.12500102E+03</rscale>
<asrwt>0</asrwt>
<pdfrwt beam="1">  1        4 0.70006174E-02 0.12500102E+03</pdfrwt>
<pdfrwt beam="2">  1       -4 0.13206997E-01 0.12500102E+03</pdfrwt>
<totfact> 0.10315365E+04</totfact>
</mgrwt>
</event>
<event>
 5    1  0.3212987E-002  0.1250012E+03  0.7818608E-02  0.1235067E+00
          4   -1    0    0  501    0  0.00000000000E+00  0.00000000000E+00  0.32347600297E+02  0.32372521449E+02  0.12700000000E+01 0. -1.
         -4   -1    0    0    0  501 -0.00000000000E+00 -0.00000000000E+00 -0.12068605313E+03  0.12069273516E+03  0.12700000000E+01 0. -1.
         25    2    1    2    0    0  0.00000000000E+00  0.00000000000E+00 -0.88338452835E+02  0.15306525661E+03  0.12500116212E+03 0.  0.
    9000005    1    3    3    0    0  0.30462679227E+02 -0.44911718342E+02 -0.62235125218E+01  0.54633042916E+02  0.10000000000E+01 0.  0.
    9000005    1    3    3    0    0 -0.30462679227E+02  0.44911718342E+02 -0.82114940313E+02  0.98432213694E+02  0.10000000000E+01 0.  0.
<mgrwt>
<rscale>  0 0.12500116E+03</rscale>
<asrwt>0</asrwt>
<pdfrwt beam="1">  1        4 0.49789850E-02 0.12500116E+03</pdfrwt>
<pdfrwt beam="2">  1       -4 0.18569516E-01 0.12500116E+03</pdfrwt>
<totfact> 0.98693577E+03</totfact>
</mgrwt>
</event>
<event>
 5    1  0.3212987E-002  0.1250012E+03  0.7818608E-02  0.1235067E+00
         -4   -1    0    0    0  501 -0.00000000000E+00  0.00000000000E+00  0.21125758486E+02  0.21163897836E+02  0.12700000000E+01 0. -1.
          4   -1    0    0  501    0  0.00000000000E+00 -0.00000000000E+00 -0.18470118066E+03  0.18470554685E+03  0.12700000000E+01 0. -1.
         25    2    1    2    0    0  0.00000000000E+00  0.00000000000E+00 -0.16357542218E+03  0.20586944469E+03  0.12500123806E+03 0.  0.
    9000005    1    3    3    0    0  0.37407098908E+02  0.69304215904E+01 -0.16344012181E+03  0.16781238098E+03  0.10000000000E+01 0.  0.
    9000005    1    3    3    0    0 -0.37407098908E+02 -0.69304215904E+01 -0.13530036678E+00  0.38057063712E+02  0.10000000000E+01 0.  0.
<mgrwt>
<rscale>  0 0.12500124E+03</rscale>
<asrwt>0</asrwt>
<pdfrwt beam="2">  1        4 0.28418835E-01 0.12500124E+03</pdfrwt>
<pdfrwt beam="1">  1       -4 0.32533865E-02 0.12500124E+03</pdfrwt>
<totfact> 0.89152461E+03</totfact>
</mgrwt>
</event>
<event>
 5    1  0.3212987E-002  0.1249942E+03  0.7818608E-02  0.1235078E+00
          4   -1    0    0  501    0  0.00000000000E+00  0.00000000000E+00  0.44124598975E+01  0.45915903941E+01  0.12700000000E+01 0. -1.
         -4   -1    0    0    0  501 -0.00000000000E+00 -0.00000000000E+00 -0.86740552812E+03  0.86740645785E+03  0.12700000000E+01 0. -1.
         25    2    1    2    0    0  0.00000000000E+00  0.00000000000E+00 -0.86299306823E+03  0.87199804824E+03  0.12499424121E+03 0.  0.
    9000005    1    3    3    0    0 -0.40997484962E+02  0.38797055444E+02 -0.61854543420E+03  0.62111630107E+03  0.10000000000E+01 0.  0.
    9000005    1    3    3    0    0  0.40997484962E+02 -0.38797055444E+02 -0.24444763403E+03  0.25088174718E+03  0.10000000000E+01 0.  0.
<mgrwt>
<rscale>  0 0.12499424E+03</rscale>
<asrwt>0</asrwt>
<pdfrwt beam="1">  1        4 0.69269146E-03 0.12499424E+03</pdfrwt>
<pdfrwt beam="2">  1       -4 0.13346072E+00 0.12499424E+03</pdfrwt>
<totfact> 0.35248131E+03</totfact>
</mgrwt>
</event>
<event>
 5    1  0.3212987E-002  0.1250016E+03  0.7818608E-02  0.1235067E+00
         -4   -1    0    0    0  501 -0.00000000000E+00  0.00000000000E+00  0.12294278462E+04  0.12294285022E+04  0.12700000000E+01 0.  1.
          4   -1    0    0  501    0  0.00000000000E+00 -0.00000000000E+00 -0.30497863701E+01  0.33036490284E+01  0.12700000000E+01 0.  1.
         25    2    1    2    0    0  0.00000000000E+00  0.00000000000E+00  0.12263780599E+04  0.12327321512E+04  0.12500164371E+03 0.  0.
    9000005    1    3    3    0    0 -0.12202095576E+02  0.59197440908E+02  0.76977779475E+03  0.77214770701E+03  0.10000000000E+01 0.  0.
    9000005    1    3    3    0    0  0.12202095576E+02 -0.59197440908E+02  0.45660026510E+03  0.46058444420E+03  0.10000000000E+01 0.  0.
<mgrwt>
<rscale>  0 0.12500164E+03</rscale>
<asrwt>0</asrwt>
<pdfrwt beam="2">  1        4 0.48877561E-03 0.12500164E+03</pdfrwt>
<pdfrwt beam="1">  1       -4 0.18916258E+00 0.12500164E+03</pdfrwt>
<totfact> 0.23870812E+03</totfact>
</mgrwt>
</event>
<event>
 5    1  0.3212987E-002  0.1250146E+03  0.7818608E-02  0.1235047E+00
         -4   -1    0    0    0  501 -0.00000000000E+00  0.00000000000E+00  0.76233695634E+02  0.76244273556E+02  0.12700000000E+01 0.  1.
          4   -1    0    0  501    0  0.00000000000E+00 -0.00000000000E+00 -0.51230405604E+02  0.51246144814E+02  0.12700000000E+01 0.  1.
         25    2    1    2    0    0  0.00000000000E+00  0.00000000000E+00  0.25003290031E+02  0.12749041837E+03  0.12501456821E+03 0.  0.
    9000005    1    3    3    0    0  0.49616580107E+02 -0.13573399300E+02  0.48702813898E+02  0.70844945280E+02  0.10000000000E+01 0.  0.
    9000005    1    3    3    0    0 -0.49616580107E+02  0.13573399300E+02 -0.23699523868E+02  0.56645473090E+02  0.10000000000E+01 0.  0.
<mgrwt>
<rscale>  0 0.12501457E+03</rscale>
<asrwt>0</asrwt>
<pdfrwt beam="2">  1        4 0.78836253E-02 0.12501457E+03</pdfrwt>
<pdfrwt beam="1">  1       -4 0.11730285E-01 0.12501457E+03</pdfrwt>
<totfact> 0.10395089E+04</totfact>
</mgrwt>
</event>
<event>
 5    1  0.3212987E-002  0.1249981E+03  0.7818608E-02  0.1235072E+00
          4   -1    0    0  501    0  0.00000000000E+00  0.00000000000E+00  0.47666468330E+02  0.47683383931E+02  0.12700000000E+01 0.  1.
         -4   -1    0    0    0  501 -0.00000000000E+00 -0.00000000000E+00 -0.81910775895E+02  0.81920620772E+02  0.12700000000E+01 0.  1.
         25    2    1    2    0    0  0.00000000000E+00  0.00000000000E+00 -0.34244307565E+02  0.12960400470E+03  0.12499810172E+03 0.  0.
    9000005    1    3    3    0    0 -0.44884930172E+02  0.16329960979E+01 -0.62172059158E+02  0.76705205643E+02  0.10000000000E+01 0.  0.
    9000005    1    3    3    0    0  0.44884930172E+02 -0.16329960979E+01  0.27927751594E+02  0.52898799059E+02  0.10000000000E+01 0.  0.
<mgrwt>
<rscale>  0 0.12499810E+03</rscale>
<asrwt>0</asrwt>
<pdfrwt beam="1">  1        4 0.73353613E-02 0.12499810E+03</pdfrwt>
<pdfrwt beam="2">  1       -4 0.12603716E-01 0.12499810E+03</pdfrwt>
<totfact> 0.10353430E+04</totfact>
</mgrwt>
</event>
<event>
 5    1  0.3212987E-002  0.1250001E+03  0.7818608E-02  0.1235069E+00
          4   -1    0    0  501    0  0.00000000000E+00  0.00000000000E+00  0.12442505153E+03  0.12443153277E+03  0.12700000000E+01 0. -1.
         -4   -1    0    0    0  501 -0.00000000000E+00 -0.00000000000E+00 -0.31374314177E+02  0.31400007804E+02  0.12700000000E+01 0. -1.
         25    2    1    2    0    0  0.00000000000E+00  0.00000000000E+00  0.93050737348E+02  0.15583154057E+03  0.12500011726E+03 0.  0.
    9000005    1    3    3    0    0 -0.53573342101E+02  0.31704665616E+02  0.53349975171E+02  0.81990905938E+02  0.10000000000E+01 0.  0.
    9000005    1    3    3    0    0  0.53573342101E+02 -0.31704665616E+02  0.39700762177E+02  0.73840634634E+02  0.10000000000E+01 0.  0.
<mgrwt>
<rscale>  0 0.12500012E+03</rscale>
<asrwt>0</asrwt>
<pdfrwt beam="1">  1        4 0.19144791E-01 0.12500012E+03</pdfrwt>
<pdfrwt beam="2">  1       -4 0.48292926E-02 0.12500012E+03</pdfrwt>
<totfact> 0.98152245E+03</totfact>
</mgrwt>
</event>
<event>
 5    1  0.3212987E-002  0.1250078E+03  0.7818608E-02  0.1235057E+00
          4   -1    0    0  501    0  0.00000000000E+00  0.00000000000E+00  0.50237914570E+03  0.50238075096E+03  0.12700000000E+01 0.  1.
         -4   -1    0    0    0  501 -0.00000000000E+00 -0.00000000000E+00 -0.77229892722E+01  0.78267147194E+01  0.12700000000E+01 0.  1.
         25    2    1    2    0    0  0.00000000000E+00  0.00000000000E+00  0.49465615643E+03  0.51020746568E+03  0.12500777953E+03 0.  0.
    9000005    1    3    3    0    0  0.40381335401E+02 -0.44838596082E+02  0.31371641579E+03  0.31946852972E+03  0.10000000000E+01 0.  0.
    9000005    1    3    3    0    0 -0.40381335401E+02  0.44838596082E+02  0.18093974065E+03  0.19073893596E+03  0.10000000000E+01 0.  0.
<mgrwt>
<rscale>  0 0.12500778E+03</rscale>
<asrwt>0</asrwt>
<pdfrwt beam="1">  1        4 0.77297196E-01 0.12500778E+03</pdfrwt>
<pdfrwt beam="2">  1       -4 0.11962546E-02 0.12500778E+03</pdfrwt>
<totfact> 0.55071584E+03</totfact>
</mgrwt>
</event>
<event>
 5    1  0.3212987E-002  0.1249978E+03  0.7818608E-02  0.1235073E+00
         -4   -1    0    0    0  501 -0.00000000000E+00  0.00000000000E+00  0.38535993777E+03  0.38536203049E+03  0.12700000000E+01 0.  1.
          4   -1    0    0  501    0  0.00000000000E+00 -0.00000000000E+00 -0.10094354872E+02  0.10173932390E+02  0.12700000000E+01 0.  1.
         25    2    1    2    0    0  0.00000000000E+00  0.00000000000E+00  0.37526558290E+03  0.39553596288E+03  0.12499776085E+03 0.  0.
    9000005    1    3    3    0    0  0.42394309408E+02  0.43385114018E+02  0.14010812412E+03  0.15267885261E+03  0.10000000000E+01 0.  0.
    9000005    1    3    3    0    0 -0.42394309408E+02 -0.43385114018E+02  0.23515745878E+03  0.24285711027E+03  0.10000000000E+01 0.  0.
<mgrwt>
<rscale>  0 0.12499776E+03</rscale>
<asrwt>0</asrwt>
<pdfrwt beam="2">  1        4 0.15592600E-02 0.12499776E+03</pdfrwt>
<pdfrwt beam="1">  1       -4 0.59292426E-01 0.12499776E+03</pdfrwt>
<totfact> 0.64992496E+03</totfact>
</mgrwt>
</event>
<event>
 5    1  0.3212987E-002  0.1250009E+03  0.7818608E-02  0.1235068E+00
          4   -1    0    0  501    0  0.00000000000E+00  0.00000000000E+00  0.27330630320E+03  0.27330925390E+03  0.12700000000E+01 0.  1.
         -4   -1    0    0    0  501 -0.00000000000E+00 -0.00000000000E+00 -0.14261529657E+02  0.14317965225E+02  0.12700000000E+01 0.  1.
         25    2    1    2    0    0  0.00000000000E+00  0.00000000000E+00  0.25904477354E+03  0.28762721912E+03  0.12500088993E+03 0.  0.
    9000005    1    3    3    0    0 -0.61335012472E+02  0.59277207855E+01  0.15345545500E+03  0.16536837152E+03  0.10000000000E+01 0.  0.
    9000005    1    3    3    0    0  0.61335012472E+02 -0.59277207855E+01  0.10558931853E+03  0.12225884760E+03  0.10000000000E+01 0.  0.
<mgrwt>
<rscale>  0 0.12500089E+03</rscale>
<asrwt>0</asrwt>
<pdfrwt beam="1">  1        4 0.42051692E-01 0.12500089E+03</pdfrwt>
<pdfrwt beam="2">  1       -4 0.21986496E-02 0.12500089E+03</pdfrwt>
<totfact> 0.77176012E+03</totfact>
</mgrwt>
</event>
<event>
 5    1  0.3212987E-002  0.1249991E+03  0.7818608E-02  0.1235071E+00
          4   -1    0    0  501    0  0.00000000000E+00  0.00000000000E+00  0.11829856425E+04  0.11829863242E+04  0.12700000000E+01 0.  1.
         -4   -1    0    0    0  501 -0.00000000000E+00 -0.00000000000E+00 -0.31791535715E+01  0.34234364944E+01  0.12700000000E+01 0.  1.
         25    2    1    2    0    0  0.00000000000E+00  0.00000000000E+00  0.11798064889E+04  0.11864097607E+04  0.12499907588E+03 0.  0.
    9000005    1    3    3    0    0  0.37205522073E+02  0.47299795921E+02  0.74976152240E+03  0.75217342550E+03  0.10000000000E+01 0.  0.
    9000005    1    3    3    0    0 -0.37205522073E+02 -0.47299795921E+02  0.43004496653E+03  0.43423633519E+03  0.10000000000E+01 0.  0.
<mgrwt>
<rscale>  0 0.12499908E+03</rscale>
<asrwt>0</asrwt>
<pdfrwt beam="1">  1        4 0.18201652E+00 0.12499908E+03</pdfrwt>
<pdfrwt beam="2">  1       -4 0.50794432E-03 0.12499908E+03</pdfrwt>
<totfact> 0.25071794E+03</totfact>
</mgrwt>
</event>
<event>
 5    1  0.3212987E-002  0.1249999E+03  0.7818608E-02  0.1235070E+00
          4   -1    0    0  501    0  0.00000000000E+00  0.00000000000E+00  0.43459698422E+03  0.43459883984E+03  0.12700000000E+01 0. -1.
         -4   -1    0    0    0  501 -0.00000000000E+00 -0.00000000000E+00 -0.89414453640E+01  0.90311873636E+01  0.12700000000E+01 0. -1.
         25    2    1    2    0    0  0.00000000000E+00  0.00000000000E+00  0.42565553885E+03  0.44363002720E+03  0.12499985312E+03 0.  0.
    9000005    1    3    3    0    0 -0.12646254710E+02  0.83216643089E+01 -0.23527253957E+01  0.15352953197E+02  0.10000000000E+01 0.  0.
    9000005    1    3    3    0    0  0.12646254710E+02 -0.83216643089E+01  0.42800826425E+03  0.42827707401E+03  0.10000000000E+01 0.  0.
<mgrwt>
<rscale>  0 0.12499985E+03</rscale>
<asrwt>0</asrwt>
<pdfrwt beam="1">  1        4 0.66868128E-01 0.12499985E+03</pdfrwt>
<pdfrwt beam="2">  1       -4 0.13826528E-02 0.12499985E+03</pdfrwt>
<totfact> 0.60519815E+03</totfact>
</mgrwt>
</event>
<event>
 5    1  0.3212987E-002  0.1250005E+03  0.7818608E-02  0.1235068E+00
          4   -1    0    0  501    0  0.00000000000E+00  0.00000000000E+00  0.36968715314E+01  0.39089332457E+01  0.12700000000E+01 0. -1.
         -4   -1    0    0    0  501 -0.00000000000E+00 -0.00000000000E+00 -0.10269722465E+04  0.10269730318E+04  0.12700000000E+01 0. -1.
         25    2    1    2    0    0  0.00000000000E+00  0.00000000000E+00 -0.10232753750E+04  0.10308819651E+04  0.12500053111E+03 0.  0.
    9000005    1    3    3    0    0 -0.35764133171E+02 -0.38600842909E+02 -0.23365254161E+03  0.23950701137E+03  0.10000000000E+01 0.  0.
    9000005    1    3    3    0    0  0.35764133171E+02  0.38600842909E+02 -0.78962283341E+03  0.79137495370E+03  0.10000000000E+01 0.  0.
<mgrwt>
<rscale>  0 0.12500053E+03</rscale>
<asrwt>0</asrwt>
<pdfrwt beam="1">  1        4 0.58512313E-03 0.12500053E+03</pdfrwt>
<pdfrwt beam="2">  1       -4 0.15801188E+00 0.12500053E+03</pdfrwt>
<totfact> 0.29598996E+03</totfact>
</mgrwt>
</event>
<event>
 5    1  0.3212987E-002  0.1250000E+03  0.7818608E-02  0.1235069E+00
         -4   -1    0    0    0  501 -0.00000000000E+00  0.00000000000E+00  0.50817110465E+02  0.50832977643E+02  0.12700000000E+01 0.  1.
          4   -1    0    0  501    0  0.00000000000E+00 -0.00000000000E+00 -0.76835702922E+02  0.76846197977E+02  0.12700000000E+01 0.  1.
         25    2    1    2    0    0  0.00000000000E+00  0.00000000000E+00 -0.26018592457E+02  0.12767917562E+03  0.12500001893E+03 0.  0.
    9000005    1    3    3    0    0 -0.30243535626E+01 -0.57904383383E+02 -0.36815196862E+02  0.68690778488E+02  0.10000000000E+01 0.  0.
    9000005    1    3    3    0    0  0.30243535626E+01  0.57904383383E+02  0.10796604405E+02  0.58988397131E+02  0.10000000000E+01 0.  0.
<mgrwt>
<rscale>  0 0.12500002E+03</rscale>
<asrwt>0</asrwt>
<pdfrwt beam="2">  1        4 0.11822905E-01 0.12500002E+03</pdfrwt>
<pdfrwt beam="1">  1       -4 0.78200448E-02 0.12500002E+03</pdfrwt>
<totfact> 0.10394418E+04</totfact>
</mgrwt>
</event>
<event>
 5    1  0.3212987E-002  0.1250030E+03  0.7818608E-02  0.1235065E+00
          4   -1    0    0  501    0  0.00000000000E+00  0.00000000000E+00  0.53981210813E+02  0.53996148204E+02  0.12700000000E+01 0.  1.
         -4   -1    0    0    0  501 -0.00000000000E+00 -0.00000000000E+00 -0.72336144741E+02  0.72347292527E+02  0.12700000000E+01 0.  1.
         25    2    1    2    0    0  0.00000000000E+00  0.00000000000E+00 -0.18354933927E+02  0.12634344073E+03  0.12500304563E+03 0.  0.
    9000005    1    3    3    0    0 -0.52137221275E+01 -0.62273942861E+02 -0.87104559310E+01  0.63103873894E+02  0.10000000000E+01 0.  0.
    9000005    1    3    3    0    0  0.52137221275E+01  0.62273942861E+02 -0.96444779964E+01  0.63239566837E+02  0.10000000000E+01 0.  0.
<mgrwt>
<rscale>  0 0.12500305E+03</rscale>
<asrwt>0</asrwt>
<pdfrwt beam="1">  1        4 0.83068082E-02 0.12500305E+03</pdfrwt>
<pdfrwt beam="2">  1       -4 0.11130644E-01 0.12500305E+03</pdfrwt>
<totfact> 0.10422728E+04</totfact>
</mgrwt>
</event>
<event>
 5    1  0.3212987E-002  0.1249805E+03  0.7818608E-02  0.1235100E+00
          4   -1    0    0  501    0  0.00000000000E+00  0.00000000000E+00  0.18865391951E+03  0.18865819422E+03  0.12700000000E+01 0.  1.
         -4   -1    0    0    0  501 -0.00000000000E+00 -0.00000000000E+00 -0.20675462000E+02  0.20714430451E+02  0.12700000000E+01 0.  1.
         25    2    1    2    0    0  0.00000000000E+00  0.00000000000E+00  0.16797845751E+03  0.20937262467E+03  0.12498053358E+03 0.  0.
    9000005    1    3    3    0    0  0.55878313090E+02 -0.27263915596E+02  0.73618077485E+02  0.96365597077E+02  0.10000000000E+01 0.  0.
    9000005    1    3    3    0    0 -0.55878313090E+02  0.27263915596E+02  0.94360380023E+02  0.11300702759E+03  0.10000000000E+01 0.  0.
<mgrwt>
<rscale>  0 0.12498053E+03</rscale>
<asrwt>0</asrwt>
<pdfrwt beam="1">  1        4 0.29027005E-01 0.12498053E+03</pdfrwt>
<pdfrwt beam="2">  1       -4 0.31841669E-02 0.12498053E+03</pdfrwt>
<totfact> 0.88617006E+03</totfact>
</mgrwt>
</event>
<event>
 5    1  0.3212987E-002  0.1249948E+03  0.7818608E-02  0.1235077E+00
         -4   -1    0    0    0  501 -0.00000000000E+00  0.00000000000E+00  0.42560201715E+03  0.42560391199E+03  0.12700000000E+01 0. -1.
          4   -1    0    0  501    0  0.00000000000E+00 -0.00000000000E+00 -0.91315577064E+01  0.92194493407E+01  0.12700000000E+01 0. -1.
         25    2    1    2    0    0  0.00000000000E+00  0.00000000000E+00  0.41647045944E+03  0.43482336133E+03  0.12499484778E+03 0.  0.
    9000005    1    3    3    0    0  0.15514902237E+02 -0.60248216331E+02  0.18784137408E+03  0.19787860313E+03  0.10000000000E+01 0.  0.
    9000005    1    3    3    0    0 -0.15514902237E+02  0.60248216331E+02  0.22862908536E+03  0.23694475819E+03  0.10000000000E+01 0.  0.
<mgrwt>
<rscale>  0 0.12499485E+03</rscale>
<asrwt>0</asrwt>
<pdfrwt beam="2">  1        4 0.14117615E-02 0.12499485E+03</pdfrwt>
<pdfrwt beam="1">  1       -4 0.65484149E-01 0.12499485E+03</pdfrwt>
<totfact> 0.61308160E+03</totfact>
</mgrwt>
</event>
<event>
 5    1  0.3212987E-002  0.1250041E+03  0.7818608E-02  0.1235063E+00
          4   -1    0    0  501    0  0.00000000000E+00  0.00000000000E+00  0.14615394095E+03  0.14615945865E+03  0.12700000000E+01 0. -1.
         -4   -1    0    0    0  501 -0.00000000000E+00 -0.00000000000E+00 -0.26707588092E+02  0.26737766580E+02  0.12700000000E+01 0. -1.
         25    2    1    2    0    0  0.00000000000E+00  0.00000000000E+00  0.11944635285E+03  0.17289722523E+03  0.12500407707E+03 0.  0.
    9000005    1    3    3    0    0  0.16199052946E+02 -0.59539188792E+02  0.73428095356E+02  0.95916680019E+02  0.10000000000E+01 0.  0.
    9000005    1    3    3    0    0 -0.16199052946E+02  0.59539188792E+02  0.46018257499E+02  0.76980545215E+02  0.10000000000E+01 0.  0.
<mgrwt>
<rscale>  0 0.12500408E+03</rscale>
<asrwt>0</asrwt>
<pdfrwt beam="1">  1        4 0.22487967E-01 0.12500408E+03</pdfrwt>
<pdfrwt beam="2">  1       -4 0.41116057E-02 0.12500408E+03</pdfrwt>
<totfact> 0.94902694E+03</totfact>
</mgrwt>
</event>
<event>
 5    1  0.3212987E-002  0.1250104E+03  0.7818608E-02  0.1235053E+00
          4   -1    0    0  501    0  0.00000000000E+00  0.00000000000E+00  0.69094514265E+02  0.69106184973E+02  0.12700000000E+01 0.  1.
         -4   -1    0    0    0  501 -0.00000000000E+00 -0.00000000000E+00 -0.56520662901E+02  0.56534929333E+02  0.12700000000E+01 0.  1.
         25    2    1    2    0    0  0.00000000000E+00  0.00000000000E+00  0.12573851364E+02  0.12564111431E+03  0.12501035104E+03 0.  0.
    9000005    1    3    3    0    0 -0.23489409739E+02 -0.49628543783E+02  0.36289723541E+02  0.65823162812E+02  0.10000000000E+01 0.  0.
    9000005    1    3    3    0    0  0.23489409739E+02  0.49628543783E+02 -0.23715872177E+02  0.59817951495E+02  0.10000000000E+01 0.  0.
<mgrwt>
<rscale>  0 0.12501035E+03</rscale>
<asrwt>0</asrwt>
<pdfrwt beam="1">  1        4 0.10631920E-01 0.12501035E+03</pdfrwt>
<pdfrwt beam="2">  1       -4 0.86974818E-02 0.12501035E+03</pdfrwt>
<totfact> 0.10436404E+04</totfact>
</mgrwt>
</event>
<event>
 5    1  0.3212987E-002  0.1249987E+03  0.7818608E-02  0.1235071E+00
         -4   -1    0    0    0  501 -0.00000000000E+00  0.00000000000E+00  0.42824565372E+01  0.44668035543E+01  0.12700000000E+01 0.  1.
          4   -1    0    0  501    0  0.00000000000E+00 -0.00000000000E+00 -0.89272963321E+03  0.89273053656E+03  0.12700000000E+01 0.  1.
         25    2    1    2    0    0  0.00000000000E+00  0.00000000000E+00 -0.88844717667E+03  0.89719734011E+03  0.12499872549E+03 0.  0.
    9000005    1    3    3    0    0 -0.76156417790E+01 -0.35701265169E+02 -0.80827930132E+03  0.80910382973E+03  0.10000000000E+01 0.  0.
    9000005    1    3    3    0    0  0.76156417790E+01  0.35701265169E+02 -0.80167875349E+02  0.88093510387E+02  0.10000000000E+01 0.  0.
<mgrwt>
<rscale>  0 0.12499873E+03</rscale>
<asrwt>0</asrwt>
<pdfrwt beam="2">  1        4 0.13735713E+00 0.12499873E+03</pdfrwt>
<pdfrwt beam="1">  1       -4 0.67309020E-03 0.12499873E+03</pdfrwt>
<totfact> 0.34268449E+03</totfact>
</mgrwt>
</event>
<event>
 5    1  0.3212987E-002  0.1249998E+03  0.7818608E-02  0.1235070E+00
          4   -1    0    0  501    0  0.00000000000E+00  0.00000000000E+00  0.17577341123E+02  0.17623161491E+02  0.12700000000E+01 0.  1.
         -4   -1    0    0    0  501 -0.00000000000E+00 -0.00000000000E+00 -0.22189439261E+03  0.22189802696E+03  0.12700000000E+01 0.  1.
         25    2    1    2    0    0  0.00000000000E+00  0.00000000000E+00 -0.20431705148E+03  0.23952118846E+03  0.12499976877E+03 0.  0.
    9000005    1    3    3    0    0 -0.11531847105E+02 -0.30172208627E+02 -0.20466733470E+03  0.20720295259E+03  0.10000000000E+01 0.  0.
    9000005    1    3    3    0    0  0.11531847105E+02  0.30172208627E+02  0.35028321048E+00  0.32318235864E+02  0.10000000000E+01 0.  0.
<mgrwt>
<rscale>  0 0.12499977E+03</rscale>
<asrwt>0</asrwt>
<pdfrwt beam="1">  1        4 0.27080107E-02 0.12499977E+03</pdfrwt>
<pdfrwt beam="2">  1       -4 0.34141401E-01 0.12499977E+03</pdfrwt>
<totfact> 0.83869163E+03</totfact>
</mgrwt>
</event>
<event>
 5    1  0.3212987E-002  0.1249984E+03  0.7818608E-02  0.1235072E+00
          4   -1    0    0  501    0  0.00000000000E+00  0.00000000000E+00  0.18731619020E+02  0.18774622530E+02  0.12700000000E+01 0.  1.
         -4   -1    0    0    0  501 -0.00000000000E+00 -0.00000000000E+00 -0.20824851592E+03  0.20825238842E+03  0.12700000000E+01 0.  1.
         25    2    1    2    0    0  0.00000000000E+00  0.00000000000E+00 -0.18951689690E+03  0.22702701095E+03  0.12499843795E+03 0.  0.
    9000005    1    3    3    0    0  0.38022205879E+02 -0.45618370925E+02 -0.13009017369E+03  0.14300761237E+03  0.10000000000E+01 0.  0.
    9000005    1    3    3    0    0 -0.38022205879E+02  0.45618370925E+02 -0.59426723208E+02  0.84019398576E+02  0.10000000000E+01 0.  0.
<mgrwt>
<rscale>  0 0.12499844E+03</rscale>
<asrwt>0</asrwt>
<pdfrwt beam="1">  1        4 0.28853935E-02 0.12499844E+03</pdfrwt>
<pdfrwt beam="2">  1       -4 0.32041837E-01 0.12499844E+03</pdfrwt>
<totfact> 0.85771193E+03</totfact>
</mgrwt>
</event>
<event>
 5    1  0.3212987E-002  0.1250167E+03  0.7818608E-02  0.1235043E+00
          4   -1    0    0  501    0  0.00000000000E+00  0.00000000000E+00  0.56629473817E+03  0.56629616225E+03  0.12700000000E+01 0. -1.
         -4   -1    0    0    0  501 -0.00000000000E+00 -0.00000000000E+00 -0.68398655363E+01  0.69567708425E+01  0.12700000000E+01 0. -1.
         25    2    1    2    0    0  0.00000000000E+00  0.00000000000E+00  0.55945487264E+03  0.57325293309E+03  0.12501668203E+03 0.  0.
    9000005    1    3    3    0    0 -0.35442024495E+02  0.26582434174E+02  0.77577356150E+02  0.89342090272E+02  0.10000000000E+01 0.  0.
    9000005    1    3    3    0    0  0.35442024495E+02 -0.26582434174E+02  0.48187751649E+03  0.48391084282E+03  0.10000000000E+01 0.  0.
<mgrwt>
<rscale>  0 0.12501668E+03</rscale>
<asrwt>0</asrwt>
<pdfrwt beam="1">  1        4 0.87131386E-01 0.12501668E+03</pdfrwt>
<pdfrwt beam="2">  1       -4 0.10613891E-02 0.12501668E+03</pdfrwt>
<totfact> 0.50582168E+03</totfact>
</mgrwt>
</event>
<event>
 5    1  0.3212987E-002  0.1250037E+03  0.7818608E-02  0.1235064E+00
         -4   -1    0    0    0  501 -0.00000000000E+00  0.00000000000E+00  0.16458558538E+02  0.16507484640E+02  0.12700000000E+01 0. -1.
          4   -1    0    0  501    0  0.00000000000E+00 -0.00000000000E+00 -0.23694951292E+03  0.23695291636E+03  0.12700000000E+01 0. -1.
         25    2    1    2    0    0  0.00000000000E+00  0.00000000000E+00 -0.22049095438E+03  0.25346040100E+03  0.12500365560E+03 0.  0.
    9000005    1    3    3    0    0 -0.10727380754E+02  0.57330455765E+02 -0.15574838562E+03  0.16631421310E+03  0.10000000000E+01 0.  0.
    9000005    1    3    3    0    0  0.10727380754E+02 -0.57330455765E+02 -0.64742568759E+02  0.87146187900E+02  0.10000000000E+01 0.  0.
<mgrwt>
<rscale>  0 0.12500366E+03</rscale>
<asrwt>0</asrwt>
<pdfrwt beam="2">  1        4 0.36457794E-01 0.12500366E+03</pdfrwt>
<pdfrwt beam="1">  1       -4 0.25361115E-02 0.12500366E+03</pdfrwt>
<totfact> 0.81825990E+03</totfact>
</mgrwt>
</event>
<event>
 5    1  0.3212987E-002  0.1250059E+03  0.7818608E-02  0.1235060E+00
         -4   -1    0    0    0  501 -0.00000000000E+00  0.00000000000E+00  0.27898829837E+01  0.30653461571E+01  0.12700000000E+01 0.  1.
          4   -1    0    0  501    0  0.00000000000E+00 -0.00000000000E+00 -0.13341277917E+04  0.13341283962E+04  0.12700000000E+01 0.  1.
         25    2    1    2    0    0  0.00000000000E+00  0.00000000000E+00 -0.13313379087E+04  0.13371937423E+04  0.12500590927E+03 0.  0.
    9000005    1    3    3    0    0 -0.10578688214E+02 -0.30640477172E+02 -0.94115174150E+02  0.99546037043E+02  0.10000000000E+01 0.  0.
    9000005    1    3    3    0    0  0.10578688214E+02  0.30640477172E+02 -0.12372227345E+04  0.12376477053E+04  0.10000000000E+01 0.  0.
<mgrwt>
<rscale>  0 0.12500591E+03</rscale>
<asrwt>0</asrwt>
<pdfrwt beam="2">  1        4 0.20527118E+00 0.12500591E+03</pdfrwt>
<pdfrwt beam="1">  1       -4 0.45044980E-03 0.12500591E+03</pdfrwt>
<totfact> 0.21364642E+03</totfact>
</mgrwt>
</event>
<event>
 5    1  0.3212987E-002  0.1250004E+03  0.7818608E-02  0.1235069E+00
         -4   -1    0    0    0  501 -0.00000000000E+00  0.00000000000E+00  0.15756913790E+03  0.15757425589E+03  0.12700000000E+01 0.  1.
          4   -1    0    0  501    0  0.00000000000E+00 -0.00000000000E+00 -0.24769070308E+02  0.24801607688E+02  0.12700000000E+01 0.  1.
         25    2    1    2    0    0  0.00000000000E+00  0.00000000000E+00  0.13280006760E+03  0.18237586358E+03  0.12500039065E+03 0.  0.
    9000005    1    3    3    0    0  0.41388188077E+02  0.36620610569E+02  0.23832576098E+02  0.60191717987E+02  0.10000000000E+01 0.  0.
    9000005    1    3    3    0    0 -0.41388188077E+02 -0.36620610569E+02  0.10896749150E+03  0.12218414559E+03  0.10000000000E+01 0.  0.
<mgrwt>
<rscale>  0 0.12500039E+03</rscale>
<asrwt>0</asrwt>
<pdfrwt beam="2">  1        4 0.38135226E-02 0.12500039E+03</pdfrwt>
<pdfrwt beam="1">  1       -4 0.24244303E-01 0.12500039E+03</pdfrwt>
<totfact> 0.93190263E+03</totfact>
</mgrwt>
</event>
<event>
 5    1  0.3212987E-002  0.1249983E+03  0.7818608E-02  0.1235072E+00
          4   -1    0    0  501    0  0.00000000000E+00  0.00000000000E+00  0.14493507245E+03  0.14494063656E+03  0.12700000000E+01 0.  1.
         -4   -1    0    0    0  501 -0.00000000000E+00 -0.00000000000E+00 -0.26929922485E+02  0.26959852096E+02  0.12700000000E+01 0.  1.
         25    2    1    2    0    0  0.00000000000E+00  0.00000000000E+00  0.11800514997E+03  0.17190048866E+03  0.12499825032E+03 0.  0.
    9000005    1    3    3    0    0 -0.54832992878E+02 -0.21254796512E+02  0.88068857900E+02  0.10590348065E+03  0.10000000000E+01 0.  0.
    9000005    1    3    3    0    0  0.54832992878E+02  0.21254796512E+02  0.29936292069E+02  0.65997008005E+02  0.10000000000E+01 0.  0.
<mgrwt>
<rscale>  0 0.12499825E+03</rscale>
<asrwt>0</asrwt>
<pdfrwt beam="1">  1        4 0.22300434E-01 0.12499825E+03</pdfrwt>
<pdfrwt beam="2">  1       -4 0.41457952E-02 0.12499825E+03</pdfrwt>
<totfact> 0.95099327E+03</totfact>
</mgrwt>
</event>
<event>
 4    1  0.3212987E-002  0.1244907E+03  0.7818608E-02  0.1235867E+00
         -4   -1    0    0    0  501 -0.00000000000E+00  0.00000000000E+00  0.66882425271E+03  0.66882545848E+03  0.12700000000E+01 0.  1.
          4   -1    0    0  501    0  0.00000000000E+00 -0.00000000000E+00 -0.57221477471E+01  0.58613884737E+01  0.12700000000E+01 0.  1.
    9000005    1    1    2    0    0 -0.17841983032E+02 -0.26727600546E+02  0.42693077250E+02  0.53445297591E+02  0.10000000000E+01 0.  0.
    9000005    1    1    2    0    0  0.17841983032E+02  0.26727600546E+02  0.62040902771E+03  0.62124154936E+03  0.10000000000E+01 0.  0.
<mgrwt>
<rscale>  0 0.12449072E+03</rscale>
<asrwt>0</asrwt>
<pdfrwt beam="2">  1        4 0.89113426E-03 0.12449072E+03</pdfrwt>
<pdfrwt beam="1">  1       -4 0.10290681E+00 0.12449072E+03</pdfrwt>
<totfact> 0.44956309E+03</totfact>
</mgrwt>
</event>
<event>
 5    1  0.3212987E-002  0.1250056E+03  0.7818608E-02  0.1235061E+00
         -4   -1    0    0    0  501 -0.00000000000E+00  0.00000000000E+00  0.32430881564E+03  0.32431130230E+03  0.12700000000E+01 0. -1.
          4   -1    0    0  501    0  0.00000000000E+00 -0.00000000000E+00 -0.12009913814E+02  0.12076875830E+02  0.12700000000E+01 0. -1.
         25    2    1    2    0    0  0.00000000000E+00  0.00000000000E+00  0.31229890183E+03  0.33638817813E+03  0.12500560910E+03 0.  0.
    9000005    1    3    3    0    0  0.48641251518E+02  0.38205996822E+02  0.18020797275E+03  0.19052974304E+03  0.10000000000E+01 0.  0.
    9000005    1    3    3    0    0 -0.48641251518E+02 -0.38205996822E+02  0.13209092908E+03  0.14585843509E+03  0.10000000000E+01 0.  0.
<mgrwt>
<rscale>  0 0.12500561E+03</rscale>
<asrwt>0</asrwt>
<pdfrwt beam="2">  1        4 0.18530212E-02 0.12500561E+03</pdfrwt>
<pdfrwt beam="1">  1       -4 0.49899007E-01 0.12500561E+03</pdfrwt>
<totfact> 0.71239595E+03</totfact>
</mgrwt>
</event>
<event>
 5    1  0.3212987E-002  0.1250000E+03  0.7818608E-02  0.1235069E+00
         -4   -1    0    0    0  501 -0.00000000000E+00  0.00000000000E+00  0.10463327733E+03  0.10464098445E+03  0.12700000000E+01 0.  1.
          4   -1    0    0  501    0  0.00000000000E+00 -0.00000000000E+00 -0.37312911771E+02  0.37334518677E+02  0.12700000000E+01 0.  1.
         25    2    1    2    0    0  0.00000000000E+00  0.00000000000E+00  0.67320365563E+02  0.14197550312E+03  0.12500004747E+03 0.  0.
    9000005    1    3    3    0    0  0.24064420850E+01 -0.47098295398E+02 -0.12910708884E+02  0.48905283935E+02  0.10000000000E+01 0.  0.
    9000005    1    3    3    0    0 -0.24064420850E+01  0.47098295398E+02  0.80231074447E+02  0.93070219188E+02  0.10000000000E+01 0.  0.
<mgrwt>
<rscale>  0 0.12500005E+03</rscale>
<asrwt>0</asrwt>
<pdfrwt beam="2">  1        4 0.57427030E-02 0.12500005E+03</pdfrwt>
<pdfrwt beam="1">  1       -4 0.16099682E-01 0.12500005E+03</pdfrwt>
<totfact> 0.10092795E+04</totfact>
</mgrwt>
</event>
<event>
 5    1  0.3212987E-002  0.1250032E+03  0.7818608E-02  0.1235064E+00
          4   -1    0    0  501    0  0.00000000000E+00  0.00000000000E+00  0.14098830181E+02  0.14155914399E+02  0.12700000000E+01 0.  1.
         -4   -1    0    0    0  501 -0.00000000000E+00 -0.00000000000E+00 -0.27645806225E+03  0.27646097932E+03  0.12700000000E+01 0.  1.
         25    2    1    2    0    0  0.00000000000E+00  0.00000000000E+00 -0.26235923207E+03  0.29061689372E+03  0.12500324900E+03 0.  0.
    9000005    1    3    3    0    0  0.34411862096E+02 -0.34460647234E+01 -0.25219378838E+03  0.25455600271E+03  0.10000000000E+01 0.  0.
    9000005    1    3    3    0    0 -0.34411862096E+02  0.34460647234E+01 -0.10165443688E+02  0.36060891009E+02  0.10000000000E+01 0.  0.
<mgrwt>
<rscale>  0 0.12500325E+03</rscale>
<asrwt>0</asrwt>
<pdfrwt beam="1">  1        4 0.21736665E-02 0.12500325E+03</pdfrwt>
<pdfrwt beam="2">  1       -4 0.42536621E-01 0.12500325E+03</pdfrwt>
<totfact> 0.76785577E+03</totfact>
</mgrwt>
</event>
<event>
 5    1  0.3212987E-002  0.1250027E+03  0.7818608E-02  0.1235065E+00
         -4   -1    0    0    0  501 -0.00000000000E+00  0.00000000000E+00  0.39969536666E+02  0.39989708192E+02  0.12700000000E+01 0. -1.
          4   -1    0    0  501    0  0.00000000000E+00 -0.00000000000E+00 -0.97685917898E+02  0.97694173089E+02  0.12700000000E+01 0. -1.
         25    2    1    2    0    0  0.00000000000E+00  0.00000000000E+00 -0.57716381232E+02  0.13768388128E+03  0.12500268198E+03 0.  0.
    9000005    1    3    3    0    0  0.37695605235E+02  0.46032058069E+02 -0.49915969927E+02  0.77669254392E+02  0.10000000000E+01 0.  0.
    9000005    1    3    3    0    0 -0.37695605235E+02 -0.46032058069E+02 -0.78004113050E+01  0.60014626889E+02  0.10000000000E+01 0.  0.
<mgrwt>
<rscale>  0 0.12500268E+03</rscale>
<asrwt>0</asrwt>
<pdfrwt beam="2">  1        4 0.15030789E-01 0.12500268E+03</pdfrwt>
<pdfrwt beam="1">  1       -4 0.61513462E-02 0.12500268E+03</pdfrwt>
<totfact> 0.10181190E+04</totfact>
</mgrwt>
</event>
<event>
 5    1  0.3212987E-002  0.1249893E+03  0.7818608E-02  0.1235086E+00
         -4   -1    0    0    0  501 -0.00000000000E+00  0.00000000000E+00  0.49325184727E+02  0.49341531678E+02  0.12700000000E+01 0. -1.
          4   -1    0    0  501    0  0.00000000000E+00 -0.00000000000E+00 -0.79145710995E+02  0.79155899773E+02  0.12700000000E+01 0. -1.
         25    2    1    2    0    0  0.00000000000E+00  0.00000000000E+00 -0.29820526269E+02  0.12849743145E+03  0.12498930395E+03 0.  0.
    9000005    1    3    3    0    0 -0.18741294449E+02 -0.67929136090E+01  0.45973567696E+02  0.50119344764E+02  0.10000000000E+01 0.  0.
    9000005    1    3    3    0    0  0.18741294449E+02  0.67929136090E+01 -0.75794093964E+02  0.78378086687E+02  0.10000000000E+01 0.  0.
<mgrwt>
<rscale>  0 0.12498930E+03</rscale>
<asrwt>0</asrwt>
<pdfrwt beam="2">  1        4 0.12178305E-01 0.12498930E+03</pdfrwt>
<pdfrwt beam="1">  1       -4 0.75905311E-02 0.12498930E+03</pdfrwt>
<totfact> 0.10379265E+04</totfact>
</mgrwt>
</event>
<event>
 5    1  0.3212987E-002  0.1250058E+03  0.7818608E-02  0.1235060E+00
         -4   -1    0    0    0  501 -0.00000000000E+00  0.00000000000E+00  0.67539714813E+01  0.68723380861E+01  0.12700000000E+01 0.  1.
          4   -1    0    0  501    0  0.00000000000E+00 -0.00000000000E+00 -0.57327385346E+03  0.57327526020E+03  0.12700000000E+01 0.  1.
         25    2    1    2    0    0  0.00000000000E+00  0.00000000000E+00 -0.56651988198E+03  0.58014759829E+03  0.12500583636E+03 0.  0.
    9000005    1    3    3    0    0  0.18873898252E+02  0.50500870449E+02 -0.42995059189E+03  0.43331867421E+03  0.10000000000E+01 0.  0.
    9000005    1    3    3    0    0 -0.18873898252E+02 -0.50500870449E+02 -0.13656929009E+03  0.14682892408E+03  0.10000000000E+01 0.  0.
<mgrwt>
<rscale>  0 0.12500584E+03</rscale>
<asrwt>0</asrwt>
<pdfrwt beam="2">  1        4 0.88205153E-01 0.12500584E+03</pdfrwt>
<pdfrwt beam="1">  1       -4 0.10482863E-02 0.12500584E+03</pdfrwt>
<totfact> 0.50138814E+03</totfact>
</mgrwt>
</event>
<event>
 5    1  0.3212987E-002  0.1250050E+03  0.7818608E-02  0.1235061E+00
          4   -1    0    0  501    0  0.00000000000E+00  0.00000000000E+00  0.12780259373E+03  0.12780890369E+03  0.12700000000E+01 0. -1.
         -4   -1    0    0    0  501 -0.00000000000E+00 -0.00000000000E+00 -0.30546919242E+02  0.30573308214E+02  0.12700000000E+01 0. -1.
         25    2    1    2    0    0  0.00000000000E+00  0.00000000000E+00  0.97255674486E+02  0.15838221191E+03  0.12500503522E+03 0.  0.
    9000005    1    3    3    0    0  0.12900965432E+02  0.20750933764E+00 -0.28847177407E+02  0.31617046249E+02  0.10000000000E+01 0.  0.
    9000005    1    3    3    0    0 -0.12900965432E+02 -0.20750933764E+00  0.12610285189E+03  0.12676516566E+03  0.10000000000E+01 0.  0.
<mgrwt>
<rscale>  0 0.12500504E+03</rscale>
<asrwt>0</asrwt>
<pdfrwt beam="1">  1        4 0.19664453E-01 0.12500504E+03</pdfrwt>
<pdfrwt beam="2">  1       -4 0.47020412E-02 0.12500504E+03</pdfrwt>
<totfact> 0.97644537E+03</totfact>
</mgrwt>
</event>
<event>
 5    1  0.3212987E-002  0.1250047E+03  0.7818608E-02  0.1235062E+00
          4   -1    0    0  501    0  0.00000000000E+00  0.00000000000E+00  0.41964856039E+03  0.41965048211E+03  0.12700000000E+01 0.  1.
         -4   -1    0    0    0  501 -0.00000000000E+00 -0.00000000000E+00 -0.92638234068E+01  0.93504718657E+01  0.12700000000E+01 0.  1.
         25    2    1    2    0    0  0.00000000000E+00  0.00000000000E+00  0.41038473698E+03  0.42900095397E+03  0.12500474457E+03 0.  0.
    9000005    1    3    3    0    0 -0.10762563930E+01 -0.30248766902E+02  0.39283166621E+03  0.39399728959E+03  0.10000000000E+01 0.  0.
    9000005    1    3    3    0    0  0.10762563930E+01  0.30248766902E+02  0.17553070770E+02  0.35003664385E+02  0.10000000000E+01 0.  0.
<mgrwt>
<rscale>  0 0.12500474E+03</rscale>
<asrwt>0</asrwt>
<pdfrwt beam="1">  1        4 0.64568131E-01 0.12500474E+03</pdfrwt>
<pdfrwt beam="2">  1       -4 0.14320167E-02 0.12500474E+03</pdfrwt>
<totfact> 0.61820183E+03</totfact>
</mgrwt>
</event>
<event>
 5    1  0.3212987E-002  0.1250050E+03  0.7818608E-02  0.1235062E+00
         -4   -1    0    0    0  501 -0.00000000000E+00  0.00000000000E+00  0.31328291638E+03  0.31328549056E+03  0.12700000000E+01 0. -1.
          4   -1    0    0  501    0  0.00000000000E+00 -0.00000000000E+00 -0.12434780724E+02  0.12499466855E+02  0.12700000000E+01 0. -1.
         25    2    1    2    0    0  0.00000000000E+00  0.00000000000E+00  0.30084813565E+03  0.32578495741E+03  0.12500495090E+03 0.  0.
    9000005    1    3    3    0    0 -0.44818022059E+02 -0.41675897791E+02  0.11745579379E+03  0.13244772196E+03  0.10000000000E+01 0.  0.
    9000005    1    3    3    0    0  0.44818022059E+02  0.41675897791E+02  0.18339234186E+03  0.19333723545E+03  0.10000000000E+01 0.  0.
<mgrwt>
<rscale>  0 0.12500495E+03</rscale>
<asrwt>0</asrwt>
<pdfrwt beam="2">  1        4 0.19182172E-02 0.12500495E+03</pdfrwt>
<pdfrwt beam="1">  1       -4 0.48202542E-01 0.12500495E+03</pdfrwt>
<totfact> 0.72465374E+03</totfact>
</mgrwt>
</event>
<event>
 5    1  0.3212987E-002  0.1250038E+03  0.7818608E-02  0.1235063E+00
          4   -1    0    0  501    0  0.00000000000E+00  0.00000000000E+00  0.42462116359E+02  0.42481104337E+02  0.12700000000E+01 0. -1.
         -4   -1    0    0    0  501 -0.00000000000E+00 -0.00000000000E+00 -0.91955417412E+02  0.91964187004E+02  0.12700000000E+01 0. -1.
         25    2    1    2    0    0  0.00000000000E+00  0.00000000000E+00 -0.49493301052E+02  0.13444529134E+03  0.12500379800E+03 0.  0.
    9000005    1    3    3    0    0 -0.82364385901E+01  0.41463758510E+02  0.24755823421E+02  0.48999316155E+02  0.10000000000E+01 0.  0.
    9000005    1    3    3    0    0  0.82364385901E+01 -0.41463758510E+02 -0.74249124474E+02  0.85445975186E+02  0.10000000000E+01 0.  0.
<mgrwt>
<rscale>  0 0.12500380E+03</rscale>
<asrwt>0</asrwt>
<pdfrwt beam="1">  1        4 0.65347685E-02 0.12500380E+03</pdfrwt>
<pdfrwt beam="2">  1       -4 0.14149122E-01 0.12500380E+03</pdfrwt>
<totfact> 0.10248898E+04</totfact>
</mgrwt>
</event>
<event>
 5    1  0.3212987E-002  0.1250014E+03  0.7818608E-02  0.1235067E+00
         -4   -1    0    0    0  501 -0.00000000000E+00  0.00000000000E+00  0.69281504238E+01  0.70435905825E+01  0.12700000000E+01 0. -1.
          4   -1    0    0  501    0  0.00000000000E+00 -0.00000000000E+00 -0.55906110155E+03  0.55906254406E+03  0.12700000000E+01 0. -1.
         25    2    1    2    0    0  0.00000000000E+00  0.00000000000E+00 -0.55213295113E+03  0.56610613464E+03  0.12500143982E+03 0.  0.
    9000005    1    3    3    0    0 -0.55947722545E+02  0.21949627605E+02 -0.35364070559E+03  0.35871253458E+03  0.10000000000E+01 0.  0.
    9000005    1    3    3    0    0  0.55947722545E+02 -0.21949627605E+02 -0.19849224554E+03  0.20739360007E+03  0.10000000000E+01 0.  0.
<mgrwt>
<rscale>  0 0.12500144E+03</rscale>
<asrwt>0</asrwt>
<pdfrwt beam="2">  1        4 0.86018356E-01 0.12500144E+03</pdfrwt>
<pdfrwt beam="1">  1       -4 0.10748607E-02 0.12500144E+03</pdfrwt>
<totfact> 0.51077853E+03</totfact>
</mgrwt>
</event>
<event>
 5    1  0.3212987E-002  0.1250044E+03  0.7818608E-02  0.1235062E+00
         -4   -1    0    0    0  501 -0.00000000000E+00  0.00000000000E+00  0.57099939491E+01  0.58495239891E+01  0.12700000000E+01 0. -1.
          4   -1    0    0  501    0  0.00000000000E+00 -0.00000000000E+00 -0.67575731718E+03  0.67575851058E+03  0.12700000000E+01 0. -1.
         25    2    1    2    0    0  0.00000000000E+00  0.00000000000E+00 -0.67004732323E+03  0.68160803457E+03  0.12500438961E+03 0.  0.
    9000005    1    3    3    0    0 -0.35492757843E+02 -0.50472351958E+01 -0.61414053958E+03  0.61518681130E+03  0.10000000000E+01 0.  0.
    9000005    1    3    3    0    0  0.35492757843E+02  0.50472351958E+01 -0.55906783652E+02  0.66421223271E+02  0.10000000000E+01 0.  0.
<mgrwt>
<rscale>  0 0.12500439E+03</rscale>
<asrwt>0</asrwt>
<pdfrwt beam="2">  1        4 0.10397343E+00 0.12500439E+03</pdfrwt>
<pdfrwt beam="1">  1       -4 0.88928602E-03 0.12500439E+03</pdfrwt>
<totfact> 0.44071318E+03</totfact>
</mgrwt>
</event>
<event>
 5    1  0.3212987E-002  0.1249987E+03  0.7818608E-02  0.1235071E+00
         -4   -1    0    0    0  501 -0.00000000000E+00  0.00000000000E+00  0.25232766826E+01  0.28248584419E+01  0.12700000000E+01 0. -1.
          4   -1    0    0  501    0  0.00000000000E+00 -0.00000000000E+00 -0.14604584203E+04  0.14604589725E+04  0.12700000000E+01 0. -1.
         25    2    1    2    0    0  0.00000000000E+00  0.00000000000E+00 -0.14579351436E+04  0.14632838310E+04  0.12499874748E+03 0.  0.
    9000005    1    3    3    0    0  0.37276352203E+02 -0.11833399154E+02 -0.12995403248E+04  0.13001290749E+04  0.10000000000E+01 0.  0.
    9000005    1    3    3    0    0 -0.37276352203E+02  0.11833399154E+02 -0.15839481887E+03  0.16315475602E+03  0.10000000000E+01 0.  0.
<mgrwt>
<rscale>  0 0.12499875E+03</rscale>
<asrwt>0</asrwt>
<pdfrwt beam="2">  1        4 0.22470851E+00 0.12499875E+03</pdfrwt>
<pdfrwt beam="1">  1       -4 0.41143865E-03 0.12499875E+03</pdfrwt>
<totfact> 0.18662885E+03</totfact>
</mgrwt>
</event>
<event>
 5    1  0.3212987E-002  0.1249962E+03  0.7818608E-02  0.1235075E+00
          4   -1    0    0  501    0  0.00000000000E+00  0.00000000000E+00  0.60986180274E+03  0.60986312509E+03  0.12700000000E+01 0. -1.
         -4   -1    0    0    0  501 -0.00000000000E+00 -0.00000000000E+00 -0.63404483221E+01  0.64663888628E+01  0.12700000000E+01 0. -1.
         25    2    1    2    0    0  0.00000000000E+00  0.00000000000E+00  0.60352135442E+03  0.61632951395E+03  0.12499617805E+03 0.  0.
    9000005    1    3    3    0    0  0.13899106096E+02 -0.49381589947E+02  0.47770650257E+03  0.48045419050E+03  0.10000000000E+01 0.  0.
    9000005    1    3    3    0    0 -0.13899106096E+02  0.49381589947E+02  0.12581485185E+03  0.13587532345E+03  0.10000000000E+01 0.  0.
<mgrwt>
<rscale>  0 0.12499618E+03</rscale>
<asrwt>0</asrwt>
<pdfrwt beam="1">  1        4 0.93834663E-01 0.12499618E+03</pdfrwt>
<pdfrwt beam="2">  1       -4 0.98524324E-03 0.12499618E+03</pdfrwt>
<totfact> 0.47856821E+03</totfact>
</mgrwt>
</event>
<event>
 5    1  0.3212987E-002  0.1249973E+03  0.7818608E-02  0.1235073E+00
         -4   -1    0    0    0  501 -0.00000000000E+00  0.00000000000E+00  0.16371716534E+02  0.16420901384E+02  0.12700000000E+01 0. -1.
          4   -1    0    0  501    0  0.00000000000E+00 -0.00000000000E+00 -0.23817845801E+03  0.23818184389E+03  0.12700000000E+01 0. -1.
         25    2    1    2    0    0  0.00000000000E+00  0.00000000000E+00 -0.22180674147E+03  0.25460274527E+03  0.12499730932E+03 0.  0.
    9000005    1    3    3    0    0 -0.11355550898E+02  0.10612613540E+02  0.12381804078E+02  0.19896863435E+02  0.10000000000E+01 0.  0.
    9000005    1    3    3    0    0  0.11355550898E+02 -0.10612613540E+02 -0.23418854555E+03  0.23470588184E+03  0.10000000000E+01 0.  0.
<mgrwt>
<rscale>  0 0.12499731E+03</rscale>
<asrwt>0</asrwt>
<pdfrwt beam="2">  1        4 0.36646881E-01 0.12499731E+03</pdfrwt>
<pdfrwt beam="1">  1       -4 0.25227697E-02 0.12499731E+03</pdfrwt>
<totfact> 0.81674401E+03</totfact>
</mgrwt>
</event>
<event>
 5    1  0.3212987E-002  0.1250006E+03  0.7818608E-02  0.1235068E+00
          4   -1    0    0  501    0  0.00000000000E+00  0.00000000000E+00  0.31370358480E+03  0.31370615553E+03  0.12700000000E+01 0.  1.
         -4   -1    0    0    0  501 -0.00000000000E+00 -0.00000000000E+00 -0.12417152593E+02  0.12481930080E+02  0.12700000000E+01 0.  1.
         25    2    1    2    0    0  0.00000000000E+00  0.00000000000E+00  0.30128643221E+03  0.32618808561E+03  0.12500061184E+03 0.  0.
    9000005    1    3    3    0    0 -0.46255882599E+02  0.37039751318E+02  0.98863479806E+02  0.11526724379E+03  0.10000000000E+01 0.  0.
    9000005    1    3    3    0    0  0.46255882599E+02 -0.37039751318E+02  0.20242295240E+03  0.21092084181E+03  0.10000000000E+01 0.  0.
<mgrwt>
<rscale>  0 0.12500061E+03</rscale>
<asrwt>0</asrwt>
<pdfrwt beam="1">  1        4 0.48267272E-01 0.12500061E+03</pdfrwt>
<pdfrwt beam="2">  1       -4 0.19155117E-02 0.12500061E+03</pdfrwt>
<totfact> 0.72425144E+03</totfact>
</mgrwt>
</event>
<event>
 5    1  0.3212987E-002  0.1249981E+03  0.7818608E-02  0.1235072E+00
          4   -1    0    0  501    0  0.00000000000E+00  0.00000000000E+00  0.47622274856E+02  0.47639206149E+02  0.12700000000E+01 0. -1.
         -4   -1    0    0    0  501 -0.00000000000E+00 -0.00000000000E+00 -0.81986774857E+02  0.81996610609E+02  0.12700000000E+01 0. -1.
         25    2    1    2    0    0  0.00000000000E+00  0.00000000000E+00 -0.34364500000E+02  0.12963581676E+03  0.12499810449E+03 0.  0.
    9000005    1    3    3    0    0 -0.51392882581E+00 -0.78024472600E+01 -0.81482500052E+02  0.81862934963E+02  0.10000000000E+01 0.  0.
    9000005    1    3    3    0    0  0.51392882581E+00  0.78024472600E+01  0.47118000052E+02  0.47772881795E+02  0.10000000000E+01 0.  0.
<mgrwt>
<rscale>  0 0.12499810E+03</rscale>
<asrwt>0</asrwt>
<pdfrwt beam="1">  1        4 0.73285628E-02 0.12499810E+03</pdfrwt>
<pdfrwt beam="2">  1       -4 0.12615409E-01 0.12499810E+03</pdfrwt>
<totfact> 0.10352747E+04</totfact>
</mgrwt>
</event>
<event>
 5    1  0.3212987E-002  0.1250006E+03  0.7818608E-02  0.1235068E+00
         -4   -1    0    0    0  501 -0.00000000000E+00  0.00000000000E+00  0.19975563419E+03  0.19975967133E+03  0.12700000000E+01 0.  1.
          4   -1    0    0  501    0  0.00000000000E+00 -0.00000000000E+00 -0.19530461707E+02  0.19571710056E+02  0.12700000000E+01 0.  1.
         25    2    1    2    0    0  0.00000000000E+00  0.00000000000E+00  0.18022517248E+03  0.21933138139E+03  0.12500056826E+03 0.  0.
    9000005    1    3    3    0    0 -0.20509501166E+02  0.54180887361E+02  0.48997089617E+02  0.75880979067E+02  0.10000000000E+01 0.  0.
    9000005    1    3    3    0    0  0.20509501166E+02 -0.54180887361E+02  0.13122808287E+03  0.14345040232E+03  0.10000000000E+01 0.  0.
<mgrwt>
<rscale>  0 0.12500057E+03</rscale>
<asrwt>0</asrwt>
<pdfrwt beam="2">  1        4 0.30081697E-02 0.12500057E+03</pdfrwt>
<pdfrwt beam="1">  1       -4 0.30735122E-01 0.12500057E+03</pdfrwt>
<totfact> 0.86973153E+03</totfact>
</mgrwt>
</event>
<event>
 5    1  0.3212987E-002  0.1249992E+03  0.7818608E-02  0.1235070E+00
         -4   -1    0    0    0  501 -0.00000000000E+00  0.00000000000E+00  0.10280437676E+02  0.10358585753E+02  0.12700000000E+01 0.  1.
          4   -1    0    0  501    0  0.00000000000E+00 -0.00000000000E+00 -0.37844659310E+03  0.37844872405E+03  0.12700000000E+01 0.  1.
         25    2    1    2    0    0  0.00000000000E+00  0.00000000000E+00 -0.36816615543E+03  0.38880730980E+03  0.12499922460E+03 0.  0.
    9000005    1    3    3    0    0  0.58719082404E+02 -0.20647388900E+02 -0.20138925472E+03  0.21079107482E+03  0.10000000000E+01 0.  0.
    9000005    1    3    3    0    0 -0.58719082404E+02  0.20647388900E+02 -0.16677690070E+03  0.17801623498E+03  0.10000000000E+01 0.  0.
<mgrwt>
<rscale>  0 0.12499922E+03</rscale>
<asrwt>0</asrwt>
<pdfrwt beam="2">  1        4 0.58228717E-01 0.12499922E+03</pdfrwt>
<pdfrwt beam="1">  1       -4 0.15877814E-02 0.12499922E+03</pdfrwt>
<totfact> 0.65657260E+03</totfact>
</mgrwt>
</event>
<event>
 5    1  0.3212987E-002  0.1250055E+03  0.7818608E-02  0.1235061E+00
         -4   -1    0    0    0  501 -0.00000000000E+00  0.00000000000E+00  0.67236636764E+02  0.67248629899E+02  0.12700000000E+01 0.  1.
          4   -1    0    0  501    0  0.00000000000E+00 -0.00000000000E+00 -0.58078003297E+02  0.58091887274E+02  0.12700000000E+01 0.  1.
         25    2    1    2    0    0  0.00000000000E+00  0.00000000000E+00  0.91586334665E+01  0.12534051717E+03  0.12500545859E+03 0.  0.
    9000005    1    3    3    0    0  0.12701462364E+02  0.37560478217E+02  0.53014844273E+02  0.66209443309E+02  0.10000000000E+01 0.  0.
    9000005    1    3    3    0    0 -0.12701462364E+02 -0.37560478217E+02 -0.43856210806E+02  0.59131073864E+02  0.10000000000E+01 0.  0.
<mgrwt>
<rscale>  0 0.12500546E+03</rscale>
<asrwt>0</asrwt>
<pdfrwt beam="2">  1        4 0.89370679E-02 0.12500546E+03</pdfrwt>
<pdfrwt beam="1">  1       -4 0.10346089E-01 0.12500546E+03</pdfrwt>
<totfact> 0.10444182E+04</totfact>
</mgrwt>
</event>
<event>
 5    1  0.3212987E-002  0.1250000E+03  0.7818608E-02  0.1235069E+00
         -4   -1    0    0    0  501 -0.00000000000E+00  0.00000000000E+00  0.50021690870E+02  0.50037810278E+02  0.12700000000E+01 0. -1.
          4   -1    0    0  501    0  0.00000000000E+00 -0.00000000000E+00 -0.78057289804E+02  0.78067620634E+02  0.12700000000E+01 0. -1.
         25    2    1    2    0    0  0.00000000000E+00  0.00000000000E+00 -0.28035598934E+02  0.12810543091E+03  0.12500002649E+03 0.  0.
    9000005    1    3    3    0    0  0.58475475755E+02  0.18096640648E+02 -0.26915441867E+02  0.66875336847E+02  0.10000000000E+01 0.  0.
    9000005    1    3    3    0    0 -0.58475475755E+02 -0.18096640648E+02 -0.11201570674E+01  0.61230094066E+02  0.10000000000E+01 0.  0.
<mgrwt>
<rscale>  0 0.12500003E+03</rscale>
<asrwt>0</asrwt>
<pdfrwt beam="2">  1        4 0.12010848E-01 0.12500003E+03</pdfrwt>
<pdfrwt beam="1">  1       -4 0.76976794E-02 0.12500003E+03</pdfrwt>
<totfact> 0.10385205E+04</totfact>
</mgrwt>
</event>
<event>
 5    1  0.3212987E-002  0.1249945E+03  0.7818608E-02  0.1235078E+00
         -4   -1    0    0    0  501 -0.00000000000E+00  0.00000000000E+00  0.41101802372E+03  0.41101998579E+03  0.12700000000E+01 0.  1.
          4   -1    0    0  501    0  0.00000000000E+00 -0.00000000000E+00 -0.94585834637E+01  0.95434637915E+01  0.12700000000E+01 0.  1.
         25    2    1    2    0    0  0.00000000000E+00  0.00000000000E+00  0.40155944025E+03  0.42056344958E+03  0.12499452416E+03 0.  0.
    9000005    1    3    3    0    0 -0.42075103029E+01  0.59748877372E+02  0.26071179854E+03  0.26750565113E+03  0.10000000000E+01 0.  0.
    9000005    1    3    3    0    0  0.42075103029E+01 -0.59748877372E+02  0.14084764172E+03  0.15305779845E+03  0.10000000000E+01 0.  0.
<mgrwt>
<rscale>  0 0.12499452E+03</rscale>
<asrwt>0</asrwt>
<pdfrwt beam="2">  1        4 0.14618471E-02 0.12499452E+03</pdfrwt>
<pdfrwt beam="1">  1       -4 0.63240211E-01 0.12499452E+03</pdfrwt>
<totfact> 0.62608338E+03</totfact>
</mgrwt>
</event>
<event>
 5    1  0.3212987E-002  0.1250054E+03  0.7818608E-02  0.1235061E+00
         -4   -1    0    0    0  501 -0.00000000000E+00  0.00000000000E+00  0.20905856830E+02  0.20944396620E+02  0.12700000000E+01 0. -1.
          4   -1    0    0  501    0  0.00000000000E+00 -0.00000000000E+00 -0.18665279424E+03  0.18665711478E+03  0.12700000000E+01 0. -1.
         25    2    1    2    0    0  0.00000000000E+00  0.00000000000E+00 -0.16574693741E+03  0.20760151140E+03  0.12500536098E+03 0.  0.
    9000005    1    3    3    0    0  0.22753835862E+02  0.56197142588E+02 -0.10804501878E+03  0.12389746553E+03  0.10000000000E+01 0.  0.
    9000005    1    3    3    0    0 -0.22753835862E+02 -0.56197142588E+02 -0.57701918632E+02  0.83704045871E+02  0.10000000000E+01 0.  0.
<mgrwt>
<rscale>  0 0.12500536E+03</rscale>
<asrwt>0</asrwt>
<pdfrwt beam="2">  1        4 0.28719110E-01 0.12500536E+03</pdfrwt>
<pdfrwt beam="1">  1       -4 0.32195827E-02 0.12500536E+03</pdfrwt>
<totfact> 0.88858437E+03</totfact>
</mgrwt>
</event>
<event>
 5    1  0.3212987E-002  0.1249994E+03  0.7818608E-02  0.1235070E+00
          4   -1    0    0  501    0  0.00000000000E+00  0.00000000000E+00  0.65771879366E+03  0.65772001979E+03  0.12700000000E+01 0. -1.
         -4   -1    0    0    0  501 -0.00000000000E+00 -0.00000000000E+00 -0.58698908660E+01  0.60057071839E+01  0.12700000000E+01 0. -1.
         25    2    1    2    0    0  0.00000000000E+00  0.00000000000E+00  0.65184890279E+03  0.66372572697E+03  0.12499939430E+03 0.  0.
    9000005    1    3    3    0    0  0.25308497879E+02 -0.17906631767E+02  0.61403087211E+03  0.61481385755E+03  0.10000000000E+01 0.  0.
    9000005    1    3    3    0    0 -0.25308497879E+02  0.17906631767E+02  0.37818030680E+02  0.48911869425E+02  0.10000000000E+01 0.  0.
<mgrwt>
<rscale>  0 0.12499939E+03</rscale>
<asrwt>0</asrwt>
<pdfrwt beam="1">  1        4 0.10119806E+00 0.12499939E+03</pdfrwt>
<pdfrwt beam="2">  1       -4 0.91360176E-03 0.12499939E+03</pdfrwt>
<totfact> 0.45072484E+03</totfact>
</mgrwt>
</event>
<event>
 5    1  0.3212987E-002  0.1250027E+03  0.7818608E-02  0.1235065E+00
         -4   -1    0    0    0  501 -0.00000000000E+00  0.00000000000E+00  0.14848320923E+03  0.14848864039E+03  0.12700000000E+01 0. -1.
          4   -1    0    0  501    0  0.00000000000E+00 -0.00000000000E+00 -0.26287577316E+02  0.26318237425E+02  0.12700000000E+01 0. -1.
         25    2    1    2    0    0  0.00000000000E+00  0.00000000000E+00  0.12219563192E+03  0.17480687781E+03  0.12500268826E+03 0.  0.
    9000005    1    3    3    0    0  0.57532504873E+02 -0.18242634615E+02  0.83760722900E+02  0.10324554003E+03  0.10000000000E+01 0.  0.
    9000005    1    3    3    0    0 -0.57532504873E+02  0.18242634615E+02  0.38434909016E+02  0.71561337785E+02  0.10000000000E+01 0.  0.
<mgrwt>
<rscale>  0 0.12500269E+03</rscale>
<asrwt>0</asrwt>
<pdfrwt beam="2">  1        4 0.40470190E-02 0.12500269E+03</pdfrwt>
<pdfrwt beam="1">  1       -4 0.22846346E-01 0.12500269E+03</pdfrwt>
<totfact> 0.94554520E+03</totfact>
</mgrwt>
</event>
<event>
 5    1  0.3212987E-002  0.1250033E+03  0.7818608E-02  0.1235064E+00
          4   -1    0    0  501    0  0.00000000000E+00  0.00000000000E+00  0.92265847111E+02  0.92274587201E+02  0.12700000000E+01 0.  1.
         -4   -1    0    0    0  501 -0.00000000000E+00 -0.00000000000E+00 -0.42318889918E+02  0.42337942131E+02  0.12700000000E+01 0.  1.
         25    2    1    2    0    0  0.00000000000E+00  0.00000000000E+00  0.49946957193E+02  0.13461252933E+03  0.12500333804E+03 0.  0.
    9000005    1    3    3    0    0 -0.58077093386E+02  0.83008848091E+01  0.17868285534E+01  0.58703034173E+02  0.10000000000E+01 0.  0.
    9000005    1    3    3    0    0  0.58077093386E+02 -0.83008848091E+01  0.48160128640E+02  0.75909495160E+02  0.10000000000E+01 0.  0.
<mgrwt>
<rscale>  0 0.12500334E+03</rscale>
<asrwt>0</asrwt>
<pdfrwt beam="1">  1        4 0.14196883E-01 0.12500334E+03</pdfrwt>
<pdfrwt beam="2">  1       -4 0.65127364E-02 0.12500334E+03</pdfrwt>
<totfact> 0.10245473E+04</totfact>
</mgrwt>
</event>
<event>
 5    1  0.3212987E-002  0.1250019E+03  0.7818608E-02  0.1235066E+00
         -4   -1    0    0    0  501 -0.00000000000E+00  0.00000000000E+00  0.13155585112E+03  0.13156198108E+03  0.12700000000E+01 0. -1.
          4   -1    0    0  501    0  0.00000000000E+00 -0.00000000000E+00 -0.29673195199E+02  0.29700360492E+02  0.12700000000E+01 0. -1.
         25    2    1    2    0    0  0.00000000000E+00  0.00000000000E+00  0.10188265592E+03  0.16126234157E+03  0.12500186891E+03 0.  0.
    9000005    1    3    3    0    0 -0.98278503667E+00  0.60202815526E+02  0.29353324039E+02  0.66992256984E+02  0.10000000000E+01 0.  0.
    9000005    1    3    3    0    0  0.98278503667E+00 -0.60202815526E+02  0.72529331886E+02  0.94270084584E+02  0.10000000000E+01 0.  0.
<mgrwt>
<rscale>  0 0.12500187E+03</rscale>
<asrwt>0</asrwt>
<pdfrwt beam="2">  1        4 0.45676681E-02 0.12500187E+03</pdfrwt>
<pdfrwt beam="1">  1       -4 0.20241923E-01 0.12500187E+03</pdfrwt>
<totfact> 0.97095888E+03</totfact>
</mgrwt>
</event>
<event>
 5    1  0.3212987E-002  0.1249992E+03  0.7818608E-02  0.1235071E+00
          4   -1    0    0  501    0  0.00000000000E+00  0.00000000000E+00  0.49418938479E+01  0.51024714408E+01  0.12700000000E+01 0. -1.
         -4   -1    0    0    0  501 -0.00000000000E+00 -0.00000000000E+00 -0.77762831496E+03  0.77762935202E+03  0.12700000000E+01 0. -1.
         25    2    1    2    0    0  0.00000000000E+00  0.00000000000E+00 -0.77268642111E+03  0.78273182346E+03  0.12499920836E+03 0.  0.
    9000005    1    3    3    0    0  0.11720235428E+02 -0.61191963761E+02 -0.35606504134E+03  0.36147632566E+03  0.10000000000E+01 0.  0.
    9000005    1    3    3    0    0 -0.11720235428E+02  0.61191963761E+02 -0.41662137977E+03  0.42125549780E+03  0.10000000000E+01 0.  0.
<mgrwt>
<rscale>  0 0.12499921E+03</rscale>
<asrwt>0</asrwt>
<pdfrwt beam="1">  1        4 0.77272388E-03 0.12499921E+03</pdfrwt>
<pdfrwt beam="2">  1       -4 0.11964746E+00 0.12499921E+03</pdfrwt>
<totfact> 0.39048048E+03</totfact>
</mgrwt>
</event>
<event>
 5    1  0.3212987E-002  0.1249991E+03  0.7818608E-02  0.1235071E+00
         -4   -1    0    0    0  501 -0.00000000000E+00  0.00000000000E+00  0.44932527738E+01  0.46692847942E+01  0.12700000000E+01 0.  1.
          4   -1    0    0  501    0  0.00000000000E+00 -0.00000000000E+00 -0.85246754371E+03  0.85246848973E+03  0.12700000000E+01 0.  1.
         25    2    1    2    0    0  0.00000000000E+00  0.00000000000E+00 -0.84797429094E+03  0.85713777452E+03  0.12499906569E+03 0.  0.
    9000005    1    3    3    0    0 -0.12125045277E+02  0.38468364140E+00 -0.84434949479E+03  0.84443722919E+03  0.10000000000E+01 0.  0.
    9000005    1    3    3    0    0  0.12125045277E+02 -0.38468364140E+00 -0.36247961497E+01  0.12700545327E+02  0.10000000000E+01 0.  0.
<mgrwt>
<rscale>  0 0.12499907E+03</rscale>
<asrwt>0</asrwt>
<pdfrwt beam="2">  1        4 0.13116234E+00 0.12499907E+03</pdfrwt>
<pdfrwt beam="1">  1       -4 0.70488403E-03 0.12499907E+03</pdfrwt>
<totfact> 0.35837769E+03</totfact>
</mgrwt>
</event>
<event>
 5    1  0.3212987E-002  0.1249995E+03  0.7818608E-02  0.1235070E+00
         -4   -1    0    0    0  501 -0.00000000000E+00  0.00000000000E+00  0.19318853844E+02  0.19360553036E+02  0.12700000000E+01 0. -1.
          4   -1    0    0  501    0  0.00000000000E+00 -0.00000000000E+00 -0.20193563549E+03  0.20193962904E+03  0.12700000000E+01 0. -1.
         25    2    1    2    0    0  0.00000000000E+00  0.00000000000E+00 -0.18261678164E+03  0.22130018208E+03  0.12499952661E+03 0.  0.
    9000005    1    3    3    0    0 -0.55074298601E+02 -0.12279200920E+02 -0.43761698295E+02  0.71414588001E+02  0.10000000000E+01 0.  0.
    9000005    1    3    3    0    0  0.55074298601E+02  0.12279200920E+02 -0.13885508335E+03  0.14988559408E+03  0.10000000000E+01 0.  0.
<mgrwt>
<rscale>  0 0.12499953E+03</rscale>
<asrwt>0</asrwt>
<pdfrwt beam="2">  1        4 0.31070534E-01 0.12499953E+03</pdfrwt>
<pdfrwt beam="1">  1       -4 0.29756463E-02 0.12499953E+03</pdfrwt>
<totfact> 0.86663947E+03</totfact>
</mgrwt>
</event>
<event>
 5    1  0.3212987E-002  0.1250007E+03  0.7818608E-02  0.1235068E+00
         -4   -1    0    0    0  501 -0.00000000000E+00  0.00000000000E+00  0.38346865524E+03  0.38347075828E+03  0.12700000000E+01 0.  1.
          4   -1    0    0  501    0  0.00000000000E+00 -0.00000000000E+00 -0.10145005858E+02  0.10224189154E+02  0.12700000000E+01 0.  1.
         25    2    1    2    0    0  0.00000000000E+00  0.00000000000E+00  0.37332364939E+03  0.39369494743E+03  0.12500065777E+03 0.  0.
    9000005    1    3    3    0    0  0.64485907619E+01  0.15107434724E+02 -0.32394837649E+01  0.16772392847E+02  0.10000000000E+01 0.  0.
    9000005    1    3    3    0    0 -0.64485907619E+01 -0.15107434724E+02  0.37656313315E+03  0.37692255458E+03  0.10000000000E+01 0.  0.
<mgrwt>
<rscale>  0 0.12500066E+03</rscale>
<asrwt>0</asrwt>
<pdfrwt beam="2">  1        4 0.15670229E-02 0.12500066E+03</pdfrwt>
<pdfrwt beam="1">  1       -4 0.59001432E-01 0.12500066E+03</pdfrwt>
<totfact> 0.65169716E+03</totfact>
</mgrwt>
</event>
<event>
 5    1  0.3212987E-002  0.1250134E+03  0.7818608E-02  0.1235048E+00
         -4   -1    0    0    0  501 -0.00000000000E+00  0.00000000000E+00  0.12471727111E+02  0.12536222602E+02  0.12700000000E+01 0.  1.
          4   -1    0    0  501    0  0.00000000000E+00 -0.00000000000E+00 -0.31240164245E+03  0.31240422390E+03  0.12700000000E+01 0.  1.
         25    2    1    2    0    0  0.00000000000E+00  0.00000000000E+00 -0.29992991534E+03  0.32494044650E+03  0.12501335790E+03 0.  0.
    9000005    1    3    3    0    0 -0.26367507318E+02  0.45732685664E+02 -0.23692753950E+03  0.24273933128E+03  0.10000000000E+01 0.  0.
    9000005    1    3    3    0    0  0.26367507318E+02 -0.45732685664E+02 -0.63002375847E+02  0.82201115215E+02  0.10000000000E+01 0.  0.
<mgrwt>
<rscale>  0 0.12501336E+03</rscale>
<asrwt>0</asrwt>
<pdfrwt beam="2">  1        4 0.48066945E-01 0.12501336E+03</pdfrwt>
<pdfrwt beam="1">  1       -4 0.19238872E-02 0.12501336E+03</pdfrwt>
<totfact> 0.72550876E+03</totfact>
</mgrwt>
</event>
<event>
 5    1  0.3212987E-002  0.1249962E+03  0.7818608E-02  0.1235075E+00
         -4   -1    0    0    0  501 -0.00000000000E+00  0.00000000000E+00  0.38218454785E+02  0.38239550026E+02  0.12700000000E+01 0.  1.
          4   -1    0    0  501    0  0.00000000000E+00 -0.00000000000E+00 -0.10214900138E+03  0.10215689592E+03  0.12700000000E+01 0.  1.
         25    2    1    2    0    0  0.00000000000E+00  0.00000000000E+00 -0.63930546597E+02  0.14039644594E+03  0.12499618892E+03 0.  0.
    9000005    1    3    3    0    0 -0.11139516291E+02 -0.69513195952E+01 -0.10058756109E+03  0.10144588268E+03  0.10000000000E+01 0.  0.
    9000005    1    3    3    0    0  0.11139516291E+02  0.69513195952E+01  0.36657014489E+02  0.38950563264E+02  0.10000000000E+01 0.  0.
<mgrwt>
<rscale>  0 0.12499619E+03</rscale>
<asrwt>0</asrwt>
<pdfrwt beam="2">  1        4 0.15717461E-01 0.12499619E+03</pdfrwt>
<pdfrwt beam="1">  1       -4 0.58819923E-02 0.12499619E+03</pdfrwt>
<totfact> 0.10126245E+04</totfact>
</mgrwt>
</event>
<event>
 5    1  0.3212987E-002  0.1249992E+03  0.7818608E-02  0.1235070E+00
         -4   -1    0    0    0  501 -0.00000000000E+00  0.00000000000E+00  0.90752628144E+02  0.90761513953E+02  0.12700000000E+01 0.  1.
          4   -1    0    0  501    0  0.00000000000E+00 -0.00000000000E+00 -0.43021930083E+02  0.43040671092E+02  0.12700000000E+01 0.  1.
         25    2    1    2    0    0  0.00000000000E+00  0.00000000000E+00  0.47730698062E+02  0.13380218505E+03  0.12499922074E+03 0.  0.
    9000005    1    3    3    0    0  0.29379667011E+01  0.54515416007E+02 -0.86839784095E+01  0.55289906056E+02  0.10000000000E+01 0.  0.
    9000005    1    3    3    0    0 -0.29379667011E+01 -0.54515416007E+02  0.56414676471E+02  0.78512278989E+02  0.10000000000E+01 0.  0.
<mgrwt>
<rscale>  0 0.12499922E+03</rscale>
<asrwt>0</asrwt>
<pdfrwt beam="2">  1        4 0.66208837E-02 0.12499922E+03</pdfrwt>
<pdfrwt beam="1">  1       -4 0.13964068E-01 0.12499922E+03</pdfrwt>
<totfact> 0.10263560E+04</totfact>
</mgrwt>
</event>
<event>
 5    1  0.3212987E-002  0.1250003E+03  0.7818608E-02  0.1235069E+00
          4   -1    0    0  501    0  0.00000000000E+00  0.00000000000E+00  0.10039282363E+03  0.10040085625E+03  0.12700000000E+01 0. -1.
         -4   -1    0    0    0  501 -0.00000000000E+00 -0.00000000000E+00 -0.38889916323E+02  0.38910647535E+02  0.12700000000E+01 0. -1.
         25    2    1    2    0    0  0.00000000000E+00  0.00000000000E+00  0.61502907307E+02  0.13931150379E+03  0.12500034992E+03 0.  0.
    9000005    1    3    3    0    0 -0.64322873961E+01  0.11676021184E+01  0.10001614821E+03  0.10023456250E+03  0.10000000000E+01 0.  0.
    9000005    1    3    3    0    0  0.64322873961E+01 -0.11676021184E+01 -0.38513240904E+02  0.39076941292E+02  0.10000000000E+01 0.  0.
<mgrwt>
<rscale>  0 0.12500035E+03</rscale>
<asrwt>0</asrwt>
<pdfrwt beam="1">  1        4 0.15447262E-01 0.12500035E+03</pdfrwt>
<pdfrwt beam="2">  1       -4 0.59852767E-02 0.12500035E+03</pdfrwt>
<totfact> 0.10147795E+04</totfact>
</mgrwt>
</event>
<event>
 4    1  0.3212987E-002  0.1249335E+03  0.7818608E-02  0.1235173E+00
          4   -1    0    0  501    0  0.00000000000E+00  0.00000000000E+00  0.48037562886E+02  0.48054347858E+02  0.12700000000E+01 0. -1.
         -4   -1    0    0    0  501 -0.00000000000E+00 -0.00000000000E+00 -0.81194151080E+02  0.81204082838E+02  0.12700000000E+01 0. -1.
    9000005    1    1    2    0    0 -0.60240852926E+02  0.38198898196E+00  0.48472549506E+00  0.60252313115E+02  0.10000000000E+01 0.  0.
    9000005    1    1    2    0    0  0.60240852926E+02 -0.38198898196E+00 -0.33641313689E+02  0.69006117581E+02  0.10000000000E+01 0.  0.
<mgrwt>
<rscale>  0 0.12493351E+03</rscale>
<asrwt>0</asrwt>
<pdfrwt beam="1">  1        4 0.73924494E-02 0.12493351E+03</pdfrwt>
<pdfrwt beam="2">  1       -4 0.12493463E-01 0.12493351E+03</pdfrwt>
<totfact> 0.10375962E+04</totfact>
</mgrwt>
</event>
<event>
 5    1  0.3212987E-002  0.1249885E+03  0.7818608E-02  0.1235087E+00
          4   -1    0    0  501    0  0.00000000000E+00  0.00000000000E+00  0.59330768634E+02  0.59344359519E+02  0.12700000000E+01 0.  1.
         -4   -1    0    0    0  501 -0.00000000000E+00 -0.00000000000E+00 -0.65799096861E+02  0.65811351967E+02  0.12700000000E+01 0.  1.
         25    2    1    2    0    0  0.00000000000E+00  0.00000000000E+00 -0.64683282261E+01  0.12515571149E+03  0.12498845086E+03 0.  0.
    9000005    1    3    3    0    0  0.54880027358E+02 -0.27923455034E+02  0.74098051993E+01  0.62027751506E+02  0.10000000000E+01 0.  0.
    9000005    1    3    3    0    0 -0.54880027358E+02  0.27923455034E+02 -0.13878133425E+02  0.63127959980E+02  0.10000000000E+01 0.  0.
<mgrwt>
<rscale>  0 0.12498845E+03</rscale>
<asrwt>0</asrwt>
<pdfrwt beam="1">  1        4 0.91297987E-02 0.12498845E+03</pdfrwt>
<pdfrwt beam="2">  1       -4 0.10124926E-01 0.12498845E+03</pdfrwt>
<totfact> 0.10452209E+04</totfact>
</mgrwt>
</event>
<event>
 5    1  0.3212987E-002  0.1249994E+03  0.7818608E-02  0.1235070E+00
         -4   -1    0    0    0  501 -0.00000000000E+00  0.00000000000E+00  0.20642648744E+02  0.20681679022E+02  0.12700000000E+01 0.  1.
          4   -1    0    0  501    0  0.00000000000E+00 -0.00000000000E+00 -0.18901036032E+03  0.18901462697E+03  0.12700000000E+01 0.  1.
         25    2    1    2    0    0  0.00000000000E+00  0.00000000000E+00 -0.16836771158E+03  0.20969630599E+03  0.12499941778E+03 0.  0.
    9000005    1    3    3    0    0 -0.46000064366E+02 -0.21756236981E+01 -0.15504985987E+03  0.16174732859E+03  0.10000000000E+01 0.  0.
    9000005    1    3    3    0    0  0.46000064366E+02  0.21756236981E+01 -0.13317851713E+02  0.47948977408E+02  0.10000000000E+01 0.  0.
<mgrwt>
<rscale>  0 0.12499942E+03</rscale>
<asrwt>0</asrwt>
<pdfrwt beam="2">  1        4 0.29081846E-01 0.12499942E+03</pdfrwt>
<pdfrwt beam="1">  1       -4 0.31791228E-02 0.12499942E+03</pdfrwt>
<totfact> 0.88526655E+03</totfact>
</mgrwt>
</event>
<event>
 5    1  0.3212987E-002  0.1249968E+03  0.7818608E-02  0.1235074E+00
          4   -1    0    0  501    0  0.00000000000E+00  0.00000000000E+00  0.21287163459E+04  0.21287167247E+04  0.12700000000E+01 0.  1.
         -4   -1    0    0    0  501 -0.00000000000E+00 -0.00000000000E+00 -0.16147578889E+01  0.20543473513E+01  0.12700000000E+01 0.  1.
         25    2    1    2    0    0  0.00000000000E+00  0.00000000000E+00  0.21271015880E+04  0.21307710721E+04  0.12499678378E+03 0.  0.
    9000005    1    3    3    0    0  0.33411369699E+02 -0.48013262994E+02  0.14383653116E+04  0.14395545709E+04  0.10000000000E+01 0.  0.
    9000005    1    3    3    0    0 -0.33411369699E+02  0.48013262994E+02  0.68873627640E+03  0.69121650116E+03  0.10000000000E+01 0.  0.
<mgrwt>
<rscale>  0 0.12499678E+03</rscale>
<asrwt>0</asrwt>
<pdfrwt beam="1">  1        4 0.32752945E+00 0.12499678E+03</pdfrwt>
<pdfrwt beam="2">  1       -4 0.28226733E-03 0.12499678E+03</pdfrwt>
<totfact> 0.82500138E+02</totfact>
</mgrwt>
</event>
<event>
 5    1  0.3212987E-002  0.1250014E+03  0.7818608E-02  0.1235067E+00
         -4   -1    0    0    0  501 -0.00000000000E+00  0.00000000000E+00  0.10935912161E+02  0.11009408467E+02  0.12700000000E+01 0. -1.
          4   -1    0    0  501    0  0.00000000000E+00 -0.00000000000E+00 -0.35593181122E+03  0.35593407696E+03  0.12700000000E+01 0. -1.
         25    2    1    2    0    0  0.00000000000E+00  0.00000000000E+00 -0.34499589906E+03  0.36694348542E+03  0.12500140450E+03 0.  0.
    9000005    1    3    3    0    0 -0.11855195810E+02  0.60897167077E+02 -0.15046649347E+03  0.16275802986E+03  0.10000000000E+01 0.  0.
    9000005    1    3    3    0    0  0.11855195810E+02 -0.60897167077E+02 -0.19452940559E+03  0.20418545557E+03  0.10000000000E+01 0.  0.
<mgrwt>
<rscale>  0 0.12500140E+03</rscale>
<asrwt>0</asrwt>
<pdfrwt beam="2">  1        4 0.54764559E-01 0.12500140E+03</pdfrwt>
<pdfrwt beam="1">  1       -4 0.16882761E-02 0.12500140E+03</pdfrwt>
<totfact> 0.67897818E+03</totfact>
</mgrwt>
</event>
<event>
 5    1  0.3212987E-002  0.1250025E+03  0.7818608E-02  0.1235065E+00
          4   -1    0    0  501    0  0.00000000000E+00  0.00000000000E+00  0.47508856966E+02  0.47525828665E+02  0.12700000000E+01 0. -1.
         -4   -1    0    0    0  501 -0.00000000000E+00 -0.00000000000E+00 -0.82188194054E+02  0.82198005705E+02  0.12700000000E+01 0. -1.
         25    2    1    2    0    0  0.00000000000E+00  0.00000000000E+00 -0.34679337088E+02  0.12972383437E+03  0.12500246711E+03 0.  0.
    9000005    1    3    3    0    0  0.42180755781E+01 -0.57176121778E+02 -0.43148725990E+02  0.71761505124E+02  0.10000000000E+01 0.  0.
    9000005    1    3    3    0    0 -0.42180755781E+01  0.57176121778E+02  0.84693889021E+01  0.57962329245E+02  0.10000000000E+01 0.  0.
<mgrwt>
<rscale>  0 0.12500247E+03</rscale>
<asrwt>0</asrwt>
<pdfrwt beam="1">  1        4 0.73111152E-02 0.12500247E+03</pdfrwt>
<pdfrwt beam="2">  1       -4 0.12646398E-01 0.12500247E+03</pdfrwt>
<totfact> 0.10349842E+04</totfact>
</mgrwt>
</event>
<event>
 5    1  0.3212987E-002  0.1250582E+03  0.7818608E-02  0.1234978E+00
         -4   -1    0    0    0  501 -0.00000000000E+00  0.00000000000E+00  0.22636905029E+04  0.22636908592E+04  0.12700000000E+01 0.  1.
          4   -1    0    0  501    0  0.00000000000E+00 -0.00000000000E+00 -0.14933610977E+01  0.19603640907E+01  0.12700000000E+01 0.  1.
         25    2    1    2    0    0  0.00000000000E+00  0.00000000000E+00  0.22621971419E+04  0.22656512233E+04  0.12505821450E+03 0.  0.
    9000005    1    3    3    0    0  0.27571263992E+02 -0.32630073222E+02  0.19581432210E+04  0.19586093970E+04  0.10000000000E+01 0.  0.
    9000005    1    3    3    0    0 -0.27571263992E+02  0.32630073222E+02  0.30405392088E+03  0.30704182627E+03  0.10000000000E+01 0.  0.
<mgrwt>
<rscale>  0 0.12505821E+03</rscale>
<asrwt>0</asrwt>
<pdfrwt beam="2">  1        4 0.26569916E-03 0.12505821E+03</pdfrwt>
<pdfrwt beam="1">  1       -4 0.34829526E+00 0.12505821E+03</pdfrwt>
<totfact> 0.67714676E+02</totfact>
</mgrwt>
</event>
<event>
 5    1  0.3212987E-002  0.1249786E+03  0.7818608E-02  0.1235103E+00
          4   -1    0    0  501    0  0.00000000000E+00  0.00000000000E+00  0.96719859469E+02  0.96728197108E+02  0.12700000000E+01 0. -1.
         -4   -1    0    0    0  501 -0.00000000000E+00 -0.00000000000E+00 -0.40353379232E+02  0.40373358981E+02  0.12700000000E+01 0. -1.
         25    2    1    2    0    0  0.00000000000E+00  0.00000000000E+00  0.56366480237E+02  0.13710155609E+03  0.12497862452E+03 0.  0.
    9000005    1    3    3    0    0 -0.21629341763E+02 -0.56181252519E+02  0.46531449996E+02  0.76094266528E+02  0.10000000000E+01 0.  0.
    9000005    1    3    3    0    0  0.21629341763E+02  0.56181252519E+02  0.98350302416E+01  0.61007289561E+02  0.10000000000E+01 0.  0.
<mgrwt>
<rscale>  0 0.12497862E+03</rscale>
<asrwt>0</asrwt>
<pdfrwt beam="1">  1        4 0.14882156E-01 0.12497862E+03</pdfrwt>
<pdfrwt beam="2">  1       -4 0.62103906E-02 0.12497862E+03</pdfrwt>
<totfact> 0.10198877E+04</totfact>
</mgrwt>
</event>
<event>
 5    1  0.3212987E-002  0.1249953E+03  0.7818608E-02  0.1235077E+00
         -4   -1    0    0    0  501 -0.00000000000E+00  0.00000000000E+00  0.25283142990E+02  0.25315019641E+02  0.12700000000E+01 0. -1.
          4   -1    0    0  501    0  0.00000000000E+00 -0.00000000000E+00 -0.15435679490E+03  0.15436201940E+03  0.12700000000E+01 0. -1.
         25    2    1    2    0    0  0.00000000000E+00  0.00000000000E+00 -0.12907365191E+03  0.17967703904E+03  0.12499532287E+03 0.  0.
    9000005    1    3    3    0    0 -0.11907295819E+02  0.24903706499E+02 -0.14512467908E+03  0.14772999279E+03  0.10000000000E+01 0.  0.
    9000005    1    3    3    0    0  0.11907295819E+02 -0.24903706499E+02  0.16051027166E+02  0.31947046252E+02  0.10000000000E+01 0.  0.
<mgrwt>
<rscale>  0 0.12499532E+03</rscale>
<asrwt>0</asrwt>
<pdfrwt beam="2">  1        4 0.23750053E-01 0.12499532E+03</pdfrwt>
<pdfrwt beam="1">  1       -4 0.38925683E-02 0.12499532E+03</pdfrwt>
<totfact> 0.93684995E+03</totfact>
</mgrwt>
</event>
<event>
 5    1  0.3212987E-002  0.1250030E+03  0.7818608E-02  0.1235065E+00
          4   -1    0    0  501    0  0.00000000000E+00  0.00000000000E+00  0.14344545051E+02  0.14400655288E+02  0.12700000000E+01 0.  1.
         -4   -1    0    0    0  501 -0.00000000000E+00 -0.00000000000E+00 -0.27174003782E+03  0.27174300553E+03  0.12700000000E+01 0.  1.
         25    2    1    2    0    0  0.00000000000E+00  0.00000000000E+00 -0.25739549277E+03  0.28614366082E+03  0.12500301968E+03 0.  0.
    9000005    1    3    3    0    0 -0.37334173282E+02 -0.50098127630E+02 -0.13174821251E+03  0.14581582351E+03  0.10000000000E+01 0.  0.
    9000005    1    3    3    0    0  0.37334173282E+02  0.50098127630E+02 -0.12564728026E+03  0.14032783731E+03  0.10000000000E+01 0.  0.
<mgrwt>
<rscale>  0 0.12500302E+03</rscale>
<asrwt>0</asrwt>
<pdfrwt beam="1">  1        4 0.22113977E-02 0.12500302E+03</pdfrwt>
<pdfrwt beam="2">  1       -4 0.41810700E-01 0.12500302E+03</pdfrwt>
<totfact> 0.77365300E+03</totfact>
</mgrwt>
</event>
<event>
 5    1  0.3212987E-002  0.1250030E+03  0.7818608E-02  0.1235065E+00
          4   -1    0    0  501    0  0.00000000000E+00  0.00000000000E+00  0.86137568260E+03  0.86137661883E+03  0.12700000000E+01 0. -1.
         -4   -1    0    0    0  501 -0.00000000000E+00 -0.00000000000E+00 -0.44452429372E+01  0.46231033701E+01  0.12700000000E+01 0. -1.
         25    2    1    2    0    0  0.00000000000E+00  0.00000000000E+00  0.85693043966E+03  0.86599972220E+03  0.12500296172E+03 0.  0.
    9000005    1    3    3    0    0  0.51083080509E+02 -0.73895394727E+01  0.18437838998E+03  0.19146925889E+03  0.10000000000E+01 0.  0.
    9000005    1    3    3    0    0 -0.51083080509E+02  0.73895394727E+01  0.67255204968E+03  0.67453046331E+03  0.10000000000E+01 0.  0.
<mgrwt>
<rscale>  0 0.12500296E+03</rscale>
<asrwt>0</asrwt>
<pdfrwt beam="1">  1        4 0.13253306E+00 0.12500296E+03</pdfrwt>
<pdfrwt beam="2">  1       -4 0.69763726E-03 0.12500296E+03</pdfrwt>
<totfact> 0.35479111E+03</totfact>
</mgrwt>
</event>
<event>
 5    1  0.3212987E-002  0.1250017E+03  0.7818608E-02  0.1235067E+00
         -4   -1    0    0    0  501 -0.00000000000E+00  0.00000000000E+00  0.53048808048E+01  0.54547832544E+01  0.12700000000E+01 0. -1.
          4   -1    0    0  501    0  0.00000000000E+00 -0.00000000000E+00 -0.72596129661E+03  0.72596240748E+03  0.12700000000E+01 0. -1.
         25    2    1    2    0    0  0.00000000000E+00  0.00000000000E+00 -0.72065641580E+03  0.73141719073E+03  0.12500174904E+03 0.  0.
    9000005    1    3    3    0    0 -0.77909443100E+01  0.61982170648E+02 -0.37024263200E+03  0.37547715621E+03  0.10000000000E+01 0.  0.
    9000005    1    3    3    0    0  0.77909443100E+01 -0.61982170648E+02 -0.35041378380E+03  0.35594003452E+03  0.10000000000E+01 0.  0.
<mgrwt>
<rscale>  0 0.12500175E+03</rscale>
<asrwt>0</asrwt>
<pdfrwt beam="2">  1        4 0.11169789E+00 0.12500175E+03</pdfrwt>
<pdfrwt beam="1">  1       -4 0.82775249E-03 0.12500175E+03</pdfrwt>
<totfact> 0.41477551E+03</totfact>
</mgrwt>
</event>
<event>
 5    1  0.3212987E-002  0.1250007E+03  0.7818608E-02  0.1235068E+00
         -4   -1    0    0    0  501 -0.00000000000E+00  0.00000000000E+00  0.21214724009E+03  0.21215104143E+03  0.12700000000E+01 0. -1.
          4   -1    0    0  501    0  0.00000000000E+00 -0.00000000000E+00 -0.18387253345E+02  0.18431060348E+02  0.12700000000E+01 0. -1.
         25    2    1    2    0    0  0.00000000000E+00  0.00000000000E+00  0.19375998675E+03  0.23058210177E+03  0.12500069278E+03 0.  0.
    9000005    1    3    3    0    0  0.10779951364E+02 -0.13436817555E+02 -0.13929969128E+02  0.22176551971E+02  0.10000000000E+01 0.  0.
    9000005    1    3    3    0    0 -0.10779951364E+02  0.13436817555E+02  0.20768995588E+03  0.20840554980E+03  0.10000000000E+01 0.  0.
<mgrwt>
<rscale>  0 0.12500069E+03</rscale>
<asrwt>0</asrwt>
<pdfrwt beam="2">  1        4 0.28324706E-02 0.12500069E+03</pdfrwt>
<pdfrwt beam="1">  1       -4 0.32641696E-01 0.12500069E+03</pdfrwt>
<totfact> 0.85218979E+03</totfact>
</mgrwt>
</event>
<event>
 5    1  0.3212987E-002  0.1249971E+03  0.7818608E-02  0.1235074E+00
         -4   -1    0    0    0  501 -0.00000000000E+00  0.00000000000E+00  0.21722053772E+02  0.21759147963E+02  0.12700000000E+01 0. -1.
          4   -1    0    0  501    0  0.00000000000E+00 -0.00000000000E+00 -0.17962763168E+03  0.17963212119E+03  0.12700000000E+01 0. -1.
         25    2    1    2    0    0  0.00000000000E+00  0.00000000000E+00 -0.15790557791E+03  0.20139126915E+03  0.12499708699E+03 0.  0.
    9000005    1    3    3    0    0 -0.55457910430E+02 -0.85350308139E+01 -0.12327136367E+03  0.13544465911E+03  0.10000000000E+01 0.  0.
    9000005    1    3    3    0    0  0.55457910430E+02  0.85350308139E+01 -0.34634214238E+02  0.65946610043E+02  0.10000000000E+01 0.  0.
<mgrwt>
<rscale>  0 0.12499709E+03</rscale>
<asrwt>0</asrwt>
<pdfrwt beam="2">  1        4 0.27638218E-01 0.12499709E+03</pdfrwt>
<pdfrwt beam="1">  1       -4 0.33450533E-02 0.12499709E+03</pdfrwt>
<totfact> 0.89907247E+03</totfact>
</mgrwt>
</event>
<event>
 5    1  0.3212987E-002  0.1250043E+03  0.7818608E-02  0.1235063E+00
         -4   -1    0    0    0  501 -0.00000000000E+00  0.00000000000E+00  0.60356748930E+02  0.60370108840E+02  0.12700000000E+01 0. -1.
          4   -1    0    0  501    0  0.00000000000E+00 -0.00000000000E+00 -0.64697060587E+02  0.64709524404E+02  0.12700000000E+01 0. -1.
         25    2    1    2    0    0  0.00000000000E+00  0.00000000000E+00 -0.43403116567E+01  0.12507963324E+03  0.12500430531E+03 0.  0.
    9000005    1    3    3    0    0 -0.33465271740E+02  0.34744587256E+02  0.37582972475E+02  0.61160367693E+02  0.10000000000E+01 0.  0.
    9000005    1    3    3    0    0  0.33465271740E+02 -0.34744587256E+02 -0.41923284132E+02  0.63919265551E+02  0.10000000000E+01 0.  0.
<mgrwt>
<rscale>  0 0.12500431E+03</rscale>
<asrwt>0</asrwt>
<pdfrwt beam="2">  1        4 0.99553804E-02 0.12500431E+03</pdfrwt>
<pdfrwt beam="1">  1       -4 0.92876401E-02 0.12500431E+03</pdfrwt>
<totfact> 0.10450116E+04</totfact>
</mgrwt>
</event>
<event>
 5    1  0.3212987E-002  0.1249994E+03  0.7818608E-02  0.1235070E+00
          4   -1    0    0  501    0  0.00000000000E+00  0.00000000000E+00  0.50175671336E+01  0.51757975173E+01  0.12700000000E+01 0. -1.
         -4   -1    0    0    0  501 -0.00000000000E+00 -0.00000000000E+00 -0.76626387508E+03  0.76626492752E+03  0.12700000000E+01 0. -1.
         25    2    1    2    0    0  0.00000000000E+00  0.00000000000E+00 -0.76124630794E+03  0.77144072504E+03  0.12499940356E+03 0.  0.
    9000005    1    3    3    0    0 -0.17849345316E+02  0.68967185622E+01 -0.74776839303E+03  0.74801385915E+03  0.10000000000E+01 0.  0.
    9000005    1    3    3    0    0  0.17849345316E+02 -0.68967185622E+01 -0.13477914907E+02  0.23426865889E+02  0.10000000000E+01 0.  0.
<mgrwt>
<rscale>  0 0.12499940E+03</rscale>
<asrwt>0</asrwt>
<pdfrwt beam="1">  1        4 0.78418654E-03 0.12499940E+03</pdfrwt>
<pdfrwt beam="2">  1       -4 0.11789891E+00 0.12499940E+03</pdfrwt>
<totfact> 0.39569547E+03</totfact>
</mgrwt>
</event>
<event>
 5    1  0.3212987E-002  0.1249993E+03  0.7818608E-02  0.1235070E+00
          4   -1    0    0  501    0  0.00000000000E+00  0.00000000000E+00  0.35592866102E+02  0.35615516525E+02  0.12700000000E+01 0. -1.
         -4   -1    0    0    0  501 -0.00000000000E+00 -0.00000000000E+00 -0.10968570379E+03  0.10969305591E+03  0.12700000000E+01 0. -1.
         25    2    1    2    0    0  0.00000000000E+00  0.00000000000E+00 -0.74092837685E+02  0.14530857244E+03  0.12499933051E+03 0.  0.
    9000005    1    3    3    0    0 -0.39765018831E+02  0.34754379766E+02 -0.75882204165E+02  0.92456652246E+02  0.10000000000E+01 0.  0.
    9000005    1    3    3    0    0  0.39765018831E+02 -0.34754379766E+02  0.17893664802E+01  0.52851920192E+02  0.10000000000E+01 0.  0.
<mgrwt>
<rscale>  0 0.12499933E+03</rscale>
<asrwt>0</asrwt>
<pdfrwt beam="1">  1        4 0.54781335E-02 0.12499933E+03</pdfrwt>
<pdfrwt beam="2">  1       -4 0.16877031E-01 0.12499933E+03</pdfrwt>
<totfact> 0.10024874E+04</totfact>
</mgrwt>
</event>
<event>
 5    1  0.3212987E-002  0.1250003E+03  0.7818608E-02  0.1235069E+00
          4   -1    0    0  501    0  0.00000000000E+00  0.00000000000E+00  0.10839813576E+03  0.10840557521E+03  0.12700000000E+01 0. -1.
         -4   -1    0    0    0  501 -0.00000000000E+00 -0.00000000000E+00 -0.36016425620E+02  0.36038809836E+02  0.12700000000E+01 0. -1.
         25    2    1    2    0    0  0.00000000000E+00  0.00000000000E+00  0.72381710137E+02  0.14444438504E+03  0.12500027363E+03 0.  0.
    9000005    1    3    3    0    0  0.32161761403E+01 -0.60645784858E+02  0.19168028786E+02  0.63691980167E+02  0.10000000000E+01 0.  0.
    9000005    1    3    3    0    0 -0.32161761403E+01  0.60645784858E+02  0.53213681351E+02  0.80752404874E+02  0.10000000000E+01 0.  0.
<mgrwt>
<rscale>  0 0.12500027E+03</rscale>
<asrwt>0</asrwt>
<pdfrwt beam="1">  1        4 0.16678930E-01 0.12500027E+03</pdfrwt>
<pdfrwt beam="2">  1       -4 0.55432827E-02 0.12500027E+03</pdfrwt>
<totfact> 0.10042228E+04</totfact>
</mgrwt>
</event>
<event>
 5    1  0.3212987E-002  0.1250058E+03  0.7818608E-02  0.1235060E+00
          4   -1    0    0  501    0  0.00000000000E+00  0.00000000000E+00  0.40484405205E+02  0.40504320322E+02  0.12700000000E+01 0. -1.
         -4   -1    0    0    0  501 -0.00000000000E+00 -0.00000000000E+00 -0.96448822828E+02  0.96457183895E+02  0.12700000000E+01 0. -1.
         25    2    1    2    0    0  0.00000000000E+00  0.00000000000E+00 -0.55964417623E+02  0.13696150422E+03  0.12500575026E+03 0.  0.
    9000005    1    3    3    0    0  0.35738329877E+01  0.17812043562E+02  0.37532838727E+02  0.41710372343E+02  0.10000000000E+01 0.  0.
    9000005    1    3    3    0    0 -0.35738329877E+01 -0.17812043562E+02 -0.93497256351E+02  0.95251131874E+02  0.10000000000E+01 0.  0.
<mgrwt>
<rscale>  0 0.12500575E+03</rscale>
<asrwt>0</asrwt>
<pdfrwt beam="1">  1        4 0.62305452E-02 0.12500575E+03</pdfrwt>
<pdfrwt beam="2">  1       -4 0.14840455E-01 0.12500575E+03</pdfrwt>
<totfact> 0.10195569E+04</totfact>
</mgrwt>
</event>
<event>
 5    1  0.3212987E-002  0.1250002E+03  0.7818608E-02  0.1235069E+00
         -4   -1    0    0    0  501 -0.00000000000E+00  0.00000000000E+00  0.42077268197E+03  0.42077459856E+03  0.12700000000E+01 0.  1.
          4   -1    0    0  501    0  0.00000000000E+00 -0.00000000000E+00 -0.92381590067E+01  0.93250459427E+01  0.12700000000E+01 0.  1.
         25    2    1    2    0    0  0.00000000000E+00  0.00000000000E+00  0.41153452296E+03  0.43009964450E+03  0.12500016244E+03 0.  0.
    9000005    1    3    3    0    0 -0.46673828628E+02  0.77278963228E+01  0.34625502028E+03  0.34947346928E+03  0.10000000000E+01 0.  0.
    9000005    1    3    3    0    0  0.46673828628E+02 -0.77278963228E+01  0.65279502677E+02  0.80626175217E+02  0.10000000000E+01 0.  0.
<mgrwt>
<rscale>  0 0.12500016E+03</rscale>
<asrwt>0</asrwt>
<pdfrwt beam="2">  1        4 0.14280861E-02 0.12500016E+03</pdfrwt>
<pdfrwt beam="1">  1       -4 0.64741100E-01 0.12500016E+03</pdfrwt>
<totfact> 0.61726732E+03</totfact>
</mgrwt>
</event>
<event>
 5    1  0.3212987E-002  0.1250019E+03  0.7818608E-02  0.1235066E+00
         -4   -1    0    0    0  501 -0.00000000000E+00  0.00000000000E+00  0.38099492745E+03  0.38099704414E+03  0.12700000000E+01 0. -1.
          4   -1    0    0  501    0  0.00000000000E+00 -0.00000000000E+00 -0.10211597948E+02  0.10290268833E+02  0.12700000000E+01 0. -1.
         25    2    1    2    0    0  0.00000000000E+00  0.00000000000E+00  0.37078332951E+03  0.39128731298E+03  0.12500193541E+03 0.  0.
    9000005    1    3    3    0    0 -0.17129997700E+02  0.25454890443E+02  0.14973116530E+02  0.34155270271E+02  0.10000000000E+01 0.  0.
    9000005    1    3    3    0    0  0.17129997700E+02 -0.25454890443E+02  0.35581021297E+03  0.35713204270E+03  0.10000000000E+01 0.  0.
<mgrwt>
<rscale>  0 0.12500194E+03</rscale>
<asrwt>0</asrwt>
<pdfrwt beam="2">  1        4 0.15772299E-02 0.12500194E+03</pdfrwt>
<pdfrwt beam="1">  1       -4 0.58620806E-01 0.12500194E+03</pdfrwt>
<totfact> 0.65406299E+03</totfact>
</mgrwt>
</event>
<event>
 5    1  0.3212987E-002  0.1250053E+03  0.7818608E-02  0.1235061E+00
          4   -1    0    0  501    0  0.00000000000E+00  0.00000000000E+00  0.72529646484E+02  0.72540764534E+02  0.12700000000E+01 0. -1.
         -4   -1    0    0    0  501 -0.00000000000E+00 -0.00000000000E+00 -0.53839100727E+02  0.53854077534E+02  0.12700000000E+01 0. -1.
         25    2    1    2    0    0  0.00000000000E+00  0.00000000000E+00  0.18690545757E+02  0.12639484207E+03  0.12500527829E+03 0.  0.
    9000005    1    3    3    0    0  0.47734789834E+02 -0.30290808895E+02  0.36276603181E+02  0.67179872003E+02  0.10000000000E+01 0.  0.
    9000005    1    3    3    0    0 -0.47734789834E+02  0.30290808895E+02 -0.17586057423E+02  0.59214970065E+02  0.10000000000E+01 0.  0.
<mgrwt>
<rscale>  0 0.12500528E+03</rscale>
<asrwt>0</asrwt>
<pdfrwt beam="1">  1        4 0.11160414E-01 0.12500528E+03</pdfrwt>
<pdfrwt beam="2">  1       -4 0.82849459E-02 0.12500528E+03</pdfrwt>
<totfact> 0.10421081E+04</totfact>
</mgrwt>
</event>
<event>
 5    1  0.3212987E-002  0.1249996E+03  0.7818608E-02  0.1235070E+00
         -4   -1    0    0    0  501 -0.00000000000E+00  0.00000000000E+00  0.32451457148E+02  0.32476298605E+02  0.12700000000E+01 0.  1.
          4   -1    0    0  501    0  0.00000000000E+00 -0.00000000000E+00 -0.12029702850E+03  0.12030373214E+03  0.12700000000E+01 0.  1.
         25    2    1    2    0    0  0.00000000000E+00  0.00000000000E+00 -0.87845571356E+02  0.15278003075E+03  0.12499957355E+03 0.  0.
    9000005    1    3    3    0    0 -0.59049037894E+02  0.33611255863E+01 -0.19260773334E+02  0.62209833875E+02  0.10000000000E+01 0.  0.
    9000005    1    3    3    0    0  0.59049037894E+02 -0.33611255863E+01 -0.68584798022E+02  0.90570196870E+02  0.10000000000E+01 0.  0.
<mgrwt>
<rscale>  0 0.12499957E+03</rscale>
<asrwt>0</asrwt>
<pdfrwt beam="2">  1        4 0.18509661E-01 0.12499957E+03</pdfrwt>
<pdfrwt beam="1">  1       -4 0.49949585E-02 0.12499957E+03</pdfrwt>
<totfact> 0.98753347E+03</totfact>
</mgrwt>
</event>
<event>
 5    1  0.3212987E-002  0.1249638E+03  0.7818608E-02  0.1235126E+00
          4   -1    0    0  501    0  0.00000000000E+00  0.00000000000E+00  0.27757369160E+03  0.27757659694E+03  0.12700000000E+01 0.  1.
         -4   -1    0    0    0  501 -0.00000000000E+00 -0.00000000000E+00 -0.14033035387E+02  0.14090386161E+02  0.12700000000E+01 0.  1.
         25    2    1    2    0    0  0.00000000000E+00  0.00000000000E+00  0.26354065622E+03  0.29166698310E+03  0.12496380097E+03 0.  0.
    9000005    1    3    3    0    0  0.13715046542E+01  0.50912200483E+02  0.47323772364E+02  0.69530371880E+02  0.10000000000E+01 0.  0.
    9000005    1    3    3    0    0 -0.13715046542E+01 -0.50912200483E+02  0.21621688385E+03  0.22213661122E+03  0.10000000000E+01 0.  0.
<mgrwt>
<rscale>  0 0.12496380E+03</rscale>
<asrwt>0</asrwt>
<pdfrwt beam="1">  1        4 0.42708283E-01 0.12496380E+03</pdfrwt>
<pdfrwt beam="2">  1       -4 0.21635635E-02 0.12496380E+03</pdfrwt>
<totfact> 0.76717811E+03</totfact>
</mgrwt>
</event>
<event>
 5    1  0.3212987E-002  0.1250152E+03  0.7818608E-02  0.1235046E+00
          4   -1    0    0  501    0  0.00000000000E+00  0.00000000000E+00  0.52209097242E+01  0.53731553438E+01  0.12700000000E+01 0. -1.
         -4   -1    0    0    0  501 -0.00000000000E+00 -0.00000000000E+00 -0.73746774050E+03  0.73746883404E+03  0.12700000000E+01 0. -1.
         25    2    1    2    0    0  0.00000000000E+00  0.00000000000E+00 -0.73224683078E+03  0.74284198938E+03  0.12501519911E+03 0.  0.
    9000005    1    3    3    0    0 -0.97536810581E+01  0.33051749321E+02 -0.56302962999E+02  0.66019512796E+02  0.10000000000E+01 0.  0.
    9000005    1    3    3    0    0  0.97536810581E+01 -0.33051749321E+02 -0.67594386778E+03  0.67682247659E+03  0.10000000000E+01 0.  0.
<mgrwt>
<rscale>  0 0.12501520E+03</rscale>
<asrwt>0</asrwt>
<pdfrwt beam="1">  1        4 0.81501278E-03 0.12501520E+03</pdfrwt>
<pdfrwt beam="2">  1       -4 0.11346829E+00 0.12501520E+03</pdfrwt>
<totfact> 0.40905295E+03</totfact>
</mgrwt>
</event>
<event>
 5    1  0.3212987E-002  0.1250060E+03  0.7818608E-02  0.1235060E+00
          4   -1    0    0  501    0  0.00000000000E+00  0.00000000000E+00  0.83061420926E+02  0.83071129439E+02  0.12700000000E+01 0.  1.
         -4   -1    0    0    0  501 -0.00000000000E+00 -0.00000000000E+00 -0.47011919197E+02  0.47029070229E+02  0.12700000000E+01 0.  1.
         25    2    1    2    0    0  0.00000000000E+00  0.00000000000E+00  0.36049501729E+02  0.13010019967E+03  0.12500598137E+03 0.  0.
    9000005    1    3    3    0    0  0.28192821329E+02 -0.28217333360E+02  0.68095305383E+02  0.78924164180E+02  0.10000000000E+01 0.  0.
    9000005    1    3    3    0    0 -0.28192821329E+02  0.28217333360E+02 -0.32045803654E+02  0.51176035488E+02  0.10000000000E+01 0.  0.
<mgrwt>
<rscale>  0 0.12500598E+03</rscale>
<asrwt>0</asrwt>
<pdfrwt beam="1">  1        4 0.12780746E-01 0.12500598E+03</pdfrwt>
<pdfrwt beam="2">  1       -4 0.72346691E-02 0.12500598E+03</pdfrwt>
<totfact> 0.10340968E+04</totfact>
</mgrwt>
</event>
<event>
 5    1  0.3212987E-002  0.1250009E+03  0.7818608E-02  0.1235068E+00
         -4   -1    0    0    0  501 -0.00000000000E+00  0.00000000000E+00  0.41724116407E+01  0.43614124890E+01  0.12700000000E+01 0.  1.
          4   -1    0    0  501    0  0.00000000000E+00 -0.00000000000E+00 -0.91529812006E+03  0.91529900114E+03  0.12700000000E+01 0.  1.
         25    2    1    2    0    0  0.00000000000E+00  0.00000000000E+00 -0.91112570842E+03  0.91966041363E+03  0.12500087940E+03 0.  0.
    9000005    1    3    3    0    0 -0.57253796717E+02  0.72784430930E+01 -0.63188056077E+03  0.63451163587E+03  0.10000000000E+01 0.  0.
    9000005    1    3    3    0    0  0.57253796717E+02 -0.72784430930E+01 -0.27924514765E+03  0.28514877776E+03  0.10000000000E+01 0.  0.
<mgrwt>
<rscale>  0 0.12500088E+03</rscale>
<asrwt>0</asrwt>
<pdfrwt beam="2">  1        4 0.14082955E+00 0.12500088E+03</pdfrwt>
<pdfrwt beam="1">  1       -4 0.65651651E-03 0.12500088E+03</pdfrwt>
<totfact> 0.33417592E+03</totfact>
</mgrwt>
</event>
<event>
 5    1  0.3212987E-002  0.1249983E+03  0.7818608E-02  0.1235072E+00
         -4   -1    0    0    0  501 -0.00000000000E+00  0.00000000000E+00  0.37847972290E+02  0.37869273910E+02  0.12700000000E+01 0. -1.
          4   -1    0    0  501    0  0.00000000000E+00 -0.00000000000E+00 -0.10315197000E+03  0.10315978778E+03  0.12700000000E+01 0. -1.
         25    2    1    2    0    0  0.00000000000E+00  0.00000000000E+00 -0.65303997709E+02  0.14102906169E+03  0.12499833649E+03 0.  0.
    9000005    1    3    3    0    0 -0.42735847452E+02  0.32815118178E+02 -0.68365290218E+02  0.87051694671E+02  0.10000000000E+01 0.  0.
    9000005    1    3    3    0    0  0.42735847452E+02 -0.32815118178E+02  0.30612925088E+01  0.53977367019E+02  0.10000000000E+01 0.  0.
<mgrwt>
<rscale>  0 0.12499834E+03</rscale>
<asrwt>0</asrwt>
<pdfrwt beam="2">  1        4 0.15871774E-01 0.12499834E+03</pdfrwt>
<pdfrwt beam="1">  1       -4 0.58250050E-02 0.12499834E+03</pdfrwt>
<totfact> 0.10112681E+04</totfact>
</mgrwt>
</event>
<event>
 5    1  0.3212987E-002  0.1249997E+03  0.7818608E-02  0.1235070E+00
          4   -1    0    0  501    0  0.00000000000E+00  0.00000000000E+00  0.20302720059E+01  0.23947660466E+01  0.12700000000E+01 0. -1.
         -4   -1    0    0    0  501 -0.00000000000E+00 -0.00000000000E+00 -0.17651494305E+04  0.17651498873E+04  0.12700000000E+01 0. -1.
         25    2    1    2    0    0  0.00000000000E+00  0.00000000000E+00 -0.17631191585E+04  0.17675446534E+04  0.12499973914E+03 0.  0.
    9000005    1    3    3    0    0  0.56081884683E+02  0.26038414790E+02 -0.10096506155E+04  0.10115426547E+04  0.10000000000E+01 0.  0.
    9000005    1    3    3    0    0 -0.56081884683E+02 -0.26038414790E+02 -0.75346854297E+03  0.75600199872E+03  0.10000000000E+01 0.  0.
<mgrwt>
<rscale>  0 0.12499974E+03</rscale>
<asrwt>0</asrwt>
<pdfrwt beam="1">  1        4 0.34042410E-03 0.12499974E+03</pdfrwt>
<pdfrwt beam="2">  1       -4 0.27158840E+00 0.12499974E+03</pdfrwt>
<totfact> 0.13210398E+03</totfact>
</mgrwt>
</event>
<event>
 5    1  0.3212987E-002  0.1249844E+03  0.7818608E-02  0.1235094E+00
          4   -1    0    0  501    0  0.00000000000E+00  0.00000000000E+00  0.47512558374E+01  0.49180618166E+01  0.12700000000E+01 0. -1.
         -4   -1    0    0    0  501 -0.00000000000E+00 -0.00000000000E+00 -0.80759947293E+03  0.80760047151E+03  0.12700000000E+01 0. -1.
         25    2    1    2    0    0  0.00000000000E+00  0.00000000000E+00 -0.80284821710E+03  0.81251853333E+03  0.12498442825E+03 0.  0.
    9000005    1    3    3    0    0 -0.25385630546E+02  0.34024640289E+02 -0.69948934754E+03  0.70077703566E+03  0.10000000000E+01 0.  0.
    9000005    1    3    3    0    0  0.25385630546E+02 -0.34024640289E+02 -0.10335886956E+03  0.11174149767E+03  0.10000000000E+01 0.  0.
<mgrwt>
<rscale>  0 0.12498443E+03</rscale>
<asrwt>0</asrwt>
<pdfrwt beam="1">  1        4 0.74387112E-03 0.12498443E+03</pdfrwt>
<pdfrwt beam="2">  1       -4 0.12425887E+00 0.12498443E+03</pdfrwt>
<totfact> 0.37724801E+03</totfact>
</mgrwt>
</event>
<event>
 5    1  0.3212987E-002  0.1249983E+03  0.7818608E-02  0.1235072E+00
          4   -1    0    0  501    0  0.00000000000E+00  0.00000000000E+00  0.10526420696E+02  0.10602755900E+02  0.12700000000E+01 0.  1.
         -4   -1    0    0    0  501 -0.00000000000E+00 -0.00000000000E+00 -0.36966180011E+03  0.36966398170E+03  0.12700000000E+01 0.  1.
         25    2    1    2    0    0  0.00000000000E+00  0.00000000000E+00 -0.35913537942E+03  0.38026673760E+03  0.12499828388E+03 0.  0.
    9000005    1    3    3    0    0  0.36325191148E+02  0.16676835113E+02 -0.32570319499E+03  0.32814814881E+03  0.10000000000E+01 0.  0.
    9000005    1    3    3    0    0 -0.36325191148E+02 -0.16676835113E+02 -0.33432184428E+02  0.52118588785E+02  0.10000000000E+01 0.  0.
<mgrwt>
<rscale>  0 0.12499828E+03</rscale>
<asrwt>0</asrwt>
<pdfrwt beam="1">  1        4 0.16254894E-02 0.12499828E+03</pdfrwt>
<pdfrwt beam="2">  1       -4 0.56877076E-01 0.12499828E+03</pdfrwt>
<totfact> 0.66520875E+03</totfact>
</mgrwt>
</event>
<event>
 4    1  0.3212987E-002  0.1256087E+03  0.7818608E-02  0.1234121E+00
          4   -1    0    0  501    0  0.00000000000E+00  0.00000000000E+00  0.28706724868E+02  0.28734803856E+02  0.12700000000E+01 0.  1.
         -4   -1    0    0    0  501 -0.00000000000E+00 -0.00000000000E+00 -0.13730474371E+03  0.13731061701E+03  0.12700000000E+01 0.  1.
    9000005    1    1    2    0    0 -0.52869635528E+02 -0.24543600995E+02 -0.85182357765E+02  0.10322122255E+03  0.10000000000E+01 0.  0.
    9000005    1    1    2    0    0  0.52869635528E+02  0.24543600995E+02 -0.23415661072E+02  0.62824198316E+02  0.10000000000E+01 0.  0.
<mgrwt>
<rscale>  0 0.12560873E+03</rscale>
<asrwt>0</asrwt>
<pdfrwt beam="1">  1        4 0.44190310E-02 0.12560873E+03</pdfrwt>
<pdfrwt beam="2">  1       -4 0.21126418E-01 0.12560873E+03</pdfrwt>
<totfact> 0.94886264E+03</totfact>
</mgrwt>
</event>
<event>
 5    1  0.3212987E-002  0.1249977E+03  0.7818608E-02  0.1235073E+00
          4   -1    0    0  501    0  0.00000000000E+00  0.00000000000E+00  0.56943982583E+01  0.58343012885E+01  0.12700000000E+01 0.  1.
         -4   -1    0    0    0  501 -0.00000000000E+00 -0.00000000000E+00 -0.67749108492E+03  0.67749227527E+03  0.12700000000E+01 0.  1.
         25    2    1    2    0    0  0.00000000000E+00  0.00000000000E+00 -0.67179668666E+03  0.68332657656E+03  0.12499768805E+03 0.  0.
    9000005    1    3    3    0    0 -0.15161444620E+02  0.55540746409E+02 -0.20306039561E+03  0.21106673869E+03  0.10000000000E+01 0.  0.
    9000005    1    3    3    0    0  0.15161444620E+02 -0.55540746409E+02 -0.46873629105E+03  0.47225983787E+03  0.10000000000E+01 0.  0.
<mgrwt>
<rscale>  0 0.12499769E+03</rscale>
<asrwt>0</asrwt>
<pdfrwt beam="1">  1        4 0.88691514E-03 0.12499769E+03</pdfrwt>
<pdfrwt beam="2">  1       -4 0.10424019E+00 0.12499769E+03</pdfrwt>
<totfact> 0.43983847E+03</totfact>
</mgrwt>
</event>
<event>
 5    1  0.3212987E-002  0.1250006E+03  0.7818608E-02  0.1235068E+00
         -4   -1    0    0    0  501 -0.00000000000E+00  0.00000000000E+00  0.27761094405E+03  0.27761384900E+03  0.12700000000E+01 0.  1.
          4   -1    0    0  501    0  0.00000000000E+00 -0.00000000000E+00 -0.14039450720E+02  0.14096775394E+02  0.12700000000E+01 0.  1.
         25    2    1    2    0    0  0.00000000000E+00  0.00000000000E+00  0.26357149333E+03  0.29171062440E+03  0.12500062515E+03 0.  0.
    9000005    1    3    3    0    0  0.15723790493E+02  0.53024409749E+02  0.63889749930E+02  0.84508731874E+02  0.10000000000E+01 0.  0.
    9000005    1    3    3    0    0 -0.15723790493E+02 -0.53024409749E+02  0.19968174340E+03  0.20720189252E+03  0.10000000000E+01 0.  0.
<mgrwt>
<rscale>  0 0.12500063E+03</rscale>
<asrwt>0</asrwt>
<pdfrwt beam="2">  1        4 0.21645486E-02 0.12500063E+03</pdfrwt>
<pdfrwt beam="1">  1       -4 0.42714009E-01 0.12500063E+03</pdfrwt>
<totfact> 0.76649483E+03</totfact>
</mgrwt>
</event>
<event>
 5    1  0.3212987E-002  0.1250006E+03  0.7818608E-02  0.1235068E+00
         -4   -1    0    0    0  501 -0.00000000000E+00  0.00000000000E+00  0.27672340498E+02  0.27701467987E+02  0.12700000000E+01 0. -1.
          4   -1    0    0  501    0  0.00000000000E+00 -0.00000000000E+00 -0.14105602639E+03  0.14106174350E+03  0.12700000000E+01 0. -1.
         25    2    1    2    0    0  0.00000000000E+00  0.00000000000E+00 -0.11338368589E+03  0.16876321149E+03  0.12500064531E+03 0.  0.
    9000005    1    3    3    0    0 -0.26181855934E+02 -0.28308945761E+02 -0.12308601860E+03  0.12898858075E+03  0.10000000000E+01 0.  0.
    9000005    1    3    3    0    0  0.26181855934E+02  0.28308945761E+02  0.97023327095E+01  0.39774630737E+02  0.10000000000E+01 0.  0.
<mgrwt>
<rscale>  0 0.12500065E+03</rscale>
<asrwt>0</asrwt>
<pdfrwt beam="2">  1        4 0.21703607E-01 0.12500065E+03</pdfrwt>
<pdfrwt beam="1">  1       -4 0.42599636E-02 0.12500065E+03</pdfrwt>
<totfact> 0.95678022E+03</totfact>
</mgrwt>
</event>
<event>
 5    1  0.3212987E-002  0.1249902E+03  0.7818608E-02  0.1235085E+00
         -4   -1    0    0    0  501 -0.00000000000E+00  0.00000000000E+00  0.17843744028E+03  0.17844195974E+03  0.12700000000E+01 0. -1.
          4   -1    0    0  501    0  0.00000000000E+00 -0.00000000000E+00 -0.21864777897E+02  0.21901630362E+02  0.12700000000E+01 0. -1.
         25    2    1    2    0    0  0.00000000000E+00  0.00000000000E+00  0.15657266238E+03  0.20034359010E+03  0.12499022157E+03 0.  0.
    9000005    1    3    3    0    0 -0.10519548081E+02  0.77793892735E+01  0.17622520640E+03  0.17671305317E+03  0.10000000000E+01 0.  0.
    9000005    1    3    3    0    0  0.10519548081E+02 -0.77793892735E+01 -0.19652544015E+02  0.23630536929E+02  0.10000000000E+01 0.  0.
<mgrwt>
<rscale>  0 0.12499022E+03</rscale>
<asrwt>0</asrwt>
<pdfrwt beam="2">  1        4 0.33669945E-02 0.12499022E+03</pdfrwt>
<pdfrwt beam="1">  1       -4 0.27455096E-01 0.12499022E+03</pdfrwt>
<totfact> 0.90097301E+03</totfact>
</mgrwt>
</event>
<event>
 5    1  0.3212987E-002  0.1249996E+03  0.7818608E-02  0.1235070E+00
         -4   -1    0    0    0  501 -0.00000000000E+00  0.00000000000E+00  0.81689037200E+01  0.82670362275E+01  0.12700000000E+01 0. -1.
          4   -1    0    0  501    0  0.00000000000E+00 -0.00000000000E+00 -0.47522801624E+03  0.47522971321E+03  0.12700000000E+01 0. -1.
         25    2    1    2    0    0  0.00000000000E+00  0.00000000000E+00 -0.46705911252E+03  0.48349674944E+03  0.12499956852E+03 0.  0.
    9000005    1    3    3    0    0  0.21458168357E+02 -0.53710832003E+02 -0.14200308803E+03  0.15333356930E+03  0.10000000000E+01 0.  0.
    9000005    1    3    3    0    0 -0.21458168357E+02  0.53710832003E+02 -0.32505602449E+03  0.33016318014E+03  0.10000000000E+01 0.  0.
<mgrwt>
<rscale>  0 0.12499957E+03</rscale>
<asrwt>0</asrwt>
<pdfrwt beam="2">  1        4 0.73119660E-01 0.12499957E+03</pdfrwt>
<pdfrwt beam="1">  1       -4 0.12644340E-02 0.12499957E+03</pdfrwt>
<totfact> 0.57168495E+03</totfact>
</mgrwt>
</event>
<event>
 5    1  0.3212987E-002  0.1250009E+03  0.7818608E-02  0.1235068E+00
          4   -1    0    0  501    0  0.00000000000E+00  0.00000000000E+00  0.11896325329E+02  0.11963923116E+02  0.12700000000E+01 0. -1.
         -4   -1    0    0    0  501 -0.00000000000E+00 -0.00000000000E+00 -0.32736310170E+03  0.32736556516E+03  0.12700000000E+01 0. -1.
         25    2    1    2    0    0  0.00000000000E+00  0.00000000000E+00 -0.31546677637E+03  0.33932948828E+03  0.12500085848E+03 0.  0.
    9000005    1    3    3    0    0 -0.36169873024E+02 -0.48320796214E+02 -0.20168543043E+03  0.21052594118E+03  0.10000000000E+01 0.  0.
    9000005    1    3    3    0    0  0.36169873024E+02  0.48320796214E+02 -0.11378134594E+03  0.12880354710E+03  0.10000000000E+01 0.  0.
<mgrwt>
<rscale>  0 0.12500086E+03</rscale>
<asrwt>0</asrwt>
<pdfrwt beam="1">  1        4 0.18355935E-02 0.12500086E+03</pdfrwt>
<pdfrwt beam="2">  1       -4 0.50368937E-01 0.12500086E+03</pdfrwt>
<totfact> 0.70913273E+03</totfact>
</mgrwt>
</event>
<event>
 5    1  0.3212987E-002  0.1249996E+03  0.7818608E-02  0.1235070E+00
          4   -1    0    0  501    0  0.00000000000E+00  0.00000000000E+00  0.37623778641E+02  0.37645207121E+02  0.12700000000E+01 0. -1.
         -4   -1    0    0    0  501 -0.00000000000E+00 -0.00000000000E+00 -0.10376838947E+03  0.10377616081E+03  0.12700000000E+01 0. -1.
         25    2    1    2    0    0  0.00000000000E+00  0.00000000000E+00 -0.66144610825E+02  0.14142136793E+03  0.12499957506E+03 0.  0.
    9000005    1    3    3    0    0 -0.51925938713E+02  0.33053979700E+02 -0.20868407458E+02  0.65002762365E+02  0.10000000000E+01 0.  0.
    9000005    1    3    3    0    0  0.51925938713E+02 -0.33053979700E+02 -0.45276203367E+02  0.76418605566E+02  0.10000000000E+01 0.  0.
<mgrwt>
<rscale>  0 0.12499958E+03</rscale>
<asrwt>0</asrwt>
<pdfrwt beam="1">  1        4 0.57905198E-02 0.12499958E+03</pdfrwt>
<pdfrwt beam="2">  1       -4 0.15966614E-01 0.12499958E+03</pdfrwt>
<totfact> 0.10104308E+04</totfact>
</mgrwt>
</event>
<event>
 5    1  0.3212987E-002  0.1249956E+03  0.7818608E-02  0.1235076E+00
         -4   -1    0    0    0  501 -0.00000000000E+00  0.00000000000E+00  0.82011847236E+01  0.82989355263E+01  0.12700000000E+01 0. -1.
          4   -1    0    0  501    0  0.00000000000E+00 -0.00000000000E+00 -0.47334961084E+03  0.47335131454E+03  0.12700000000E+01 0. -1.
         25    2    1    2    0    0  0.00000000000E+00  0.00000000000E+00 -0.46514842611E+03  0.48165025007E+03  0.12499562023E+03 0.  0.
    9000005    1    3    3    0    0 -0.24637710159E+02 -0.56131747917E+02 -0.18582537611E+03  0.19567795045E+03  0.10000000000E+01 0.  0.
    9000005    1    3    3    0    0  0.24637710159E+02  0.56131747917E+02 -0.27932305000E+03  0.28597229962E+03  0.10000000000E+01 0.  0.
<mgrwt>
<rscale>  0 0.12499562E+03</rscale>
<asrwt>0</asrwt>
<pdfrwt beam="2">  1        4 0.72830646E-01 0.12499562E+03</pdfrwt>
<pdfrwt beam="1">  1       -4 0.12693714E-02 0.12499562E+03</pdfrwt>
<totfact> 0.57322262E+03</totfact>
</mgrwt>
</event>
<event>
 5    1  0.3212987E-002  0.1249885E+03  0.7818608E-02  0.1235087E+00
         -4   -1    0    0    0  501 -0.00000000000E+00  0.00000000000E+00  0.53152196573E+02  0.53167366876E+02  0.12700000000E+01 0.  1.
          4   -1    0    0  501    0  0.00000000000E+00 -0.00000000000E+00 -0.73447100406E+02  0.73458079597E+02  0.12700000000E+01 0.  1.
         25    2    1    2    0    0  0.00000000000E+00  0.00000000000E+00 -0.20294903833E+02  0.12662544647E+03  0.12498848176E+03 0.  0.
    9000005    1    3    3    0    0 -0.33612567832E+02  0.20054445976E+01  0.43179410625E+02  0.54765755963E+02  0.10000000000E+01 0.  0.
    9000005    1    3    3    0    0  0.33612567832E+02 -0.20054445976E+01 -0.63474314458E+02  0.71859690510E+02  0.10000000000E+01 0.  0.
<mgrwt>
<rscale>  0 0.12498848E+03</rscale>
<asrwt>0</asrwt>
<pdfrwt beam="2">  1        4 0.11301565E-01 0.12498848E+03</pdfrwt>
<pdfrwt beam="1">  1       -4 0.81792725E-02 0.12498848E+03</pdfrwt>
<totfact> 0.10420003E+04</totfact>
</mgrwt>
</event>
<event>
 5    1  0.3212987E-002  0.1249987E+03  0.7818608E-02  0.1235071E+00
         -4   -1    0    0    0  501 -0.00000000000E+00  0.00000000000E+00  0.41939166600E+03  0.41939358890E+03  0.12700000000E+01 0.  1.
          4   -1    0    0  501    0  0.00000000000E+00 -0.00000000000E+00 -0.92686451792E+01  0.93552489790E+01  0.12700000000E+01 0.  1.
         25    2    1    2    0    0  0.00000000000E+00  0.00000000000E+00  0.41012302082E+03  0.42874883787E+03  0.12499869509E+03 0.  0.
    9000005    1    3    3    0    0  0.25426993692E+02  0.27893684206E+02  0.34227635435E+02  0.50961953007E+02  0.10000000000E+01 0.  0.
    9000005    1    3    3    0    0 -0.25426993692E+02 -0.27893684206E+02  0.37589538538E+03  0.37778688487E+03  0.10000000000E+01 0.  0.
<mgrwt>
<rscale>  0 0.12499870E+03</rscale>
<asrwt>0</asrwt>
<pdfrwt beam="2">  1        4 0.14327552E-02 0.12499870E+03</pdfrwt>
<pdfrwt beam="1">  1       -4 0.64528603E-01 0.12499870E+03</pdfrwt>
<totfact> 0.61851344E+03</totfact>
</mgrwt>
</event>
<event>
 5    1  0.3212987E-002  0.1250093E+03  0.7818608E-02  0.1235055E+00
         -4   -1    0    0    0  501 -0.00000000000E+00  0.00000000000E+00  0.21494586728E+02  0.21532072790E+02  0.12700000000E+01 0. -1.
          4   -1    0    0  501    0  0.00000000000E+00 -0.00000000000E+00 -0.18156067884E+03  0.18156512056E+03  0.12700000000E+01 0. -1.
         25    2    1    2    0    0  0.00000000000E+00  0.00000000000E+00 -0.16006609212E+03  0.20309719335E+03  0.12500926405E+03 0.  0.
    9000005    1    3    3    0    0 -0.28274297594E+02 -0.30174210776E+02 -0.15616535546E+03  0.16155041673E+03  0.10000000000E+01 0.  0.
    9000005    1    3    3    0    0  0.28274297594E+02  0.30174210776E+02 -0.39007366551E+01  0.41546776612E+02  0.10000000000E+01 0.  0.
<mgrwt>
<rscale>  0 0.12500926E+03</rscale>
<asrwt>0</asrwt>
<pdfrwt beam="2">  1        4 0.27935636E-01 0.12500926E+03</pdfrwt>
<pdfrwt beam="1">  1       -4 0.33100848E-02 0.12500926E+03</pdfrwt>
<totfact> 0.89597187E+03</totfact>
</mgrwt>
</event>
<event>
 5    1  0.3212987E-002  0.1249942E+03  0.7818608E-02  0.1235078E+00
         -4   -1    0    0    0  501 -0.00000000000E+00  0.00000000000E+00  0.81783180142E+02  0.81793040377E+02  0.12700000000E+01 0. -1.
          4   -1    0    0  501    0  0.00000000000E+00 -0.00000000000E+00 -0.47737884476E+02  0.47754774779E+02  0.12700000000E+01 0. -1.
         25    2    1    2    0    0  0.00000000000E+00  0.00000000000E+00  0.34045295666E+02  0.12954781516E+03  0.12499421689E+03 0.  0.
    9000005    1    3    3    0    0 -0.24851893374E+01 -0.47403223050E+02 -0.25098361418E+02  0.53704464130E+02  0.10000000000E+01 0.  0.
    9000005    1    3    3    0    0  0.24851893374E+01  0.47403223050E+02  0.59143657085E+02  0.75843351027E+02  0.10000000000E+01 0.  0.
<mgrwt>
<rscale>  0 0.12499422E+03</rscale>
<asrwt>0</asrwt>
<pdfrwt beam="2">  1        4 0.73463478E-02 0.12499422E+03</pdfrwt>
<pdfrwt beam="1">  1       -4 0.12584085E-01 0.12499422E+03</pdfrwt>
<totfact> 0.10355542E+04</totfact>
</mgrwt>
</event>
<event>
 5    1  0.3212987E-002  0.1250041E+03  0.7818608E-02  0.1235063E+00
          4   -1    0    0  501    0  0.00000000000E+00  0.00000000000E+00  0.72971819760E+02  0.72982870450E+02  0.12700000000E+01 0.  1.
         -4   -1    0    0    0  501 -0.00000000000E+00 -0.00000000000E+00 -0.53511819643E+02  0.53526888024E+02  0.12700000000E+01 0.  1.
         25    2    1    2    0    0  0.00000000000E+00  0.00000000000E+00  0.19460000117E+02  0.12650975847E+03  0.12500410947E+03 0.  0.
    9000005    1    3    3    0    0  0.34770005836E+02  0.44714589340E+02 -0.16991797395E+02  0.59144475519E+02  0.10000000000E+01 0.  0.
    9000005    1    3    3    0    0 -0.34770005836E+02 -0.44714589340E+02  0.36451797512E+02  0.67365282955E+02  0.10000000000E+01 0.  0.
<mgrwt>
<rscale>  0 0.12500411E+03</rscale>
<asrwt>0</asrwt>
<pdfrwt beam="1">  1        4 0.11228443E-01 0.12500411E+03</pdfrwt>
<pdfrwt beam="2">  1       -4 0.82345969E-02 0.12500411E+03</pdfrwt>
<totfact> 0.10418849E+04</totfact>
</mgrwt>
</event>
<event>
 5    1  0.3212987E-002  0.1249852E+03  0.7818608E-02  0.1235092E+00
         -4   -1    0    0    0  501 -0.00000000000E+00  0.00000000000E+00  0.47474956969E+02  0.47491940782E+02  0.12700000000E+01 0. -1.
          4   -1    0    0  501    0  0.00000000000E+00 -0.00000000000E+00 -0.82224091282E+02  0.82233898650E+02  0.12700000000E+01 0. -1.
         25    2    1    2    0    0  0.00000000000E+00  0.00000000000E+00 -0.34749134313E+02  0.12972583943E+03  0.12498516344E+03 0.  0.
    9000005    1    3    3    0    0  0.51939072057E+01  0.62157272781E+02 -0.21233034230E+02  0.65896471637E+02  0.10000000000E+01 0.  0.
    9000005    1    3    3    0    0 -0.51939072057E+01 -0.62157272781E+02 -0.13516100083E+02  0.63829367794E+02  0.10000000000E+01 0.  0.
<mgrwt>
<rscale>  0 0.12498516E+03</rscale>
<asrwt>0</asrwt>
<pdfrwt beam="2">  1        4 0.12651921E-01 0.12498516E+03</pdfrwt>
<pdfrwt beam="1">  1       -4 0.73059004E-02 0.12498516E+03</pdfrwt>
<totfact> 0.10353843E+04</totfact>
</mgrwt>
</event>
<event>
 5    1  0.3212987E-002  0.1250080E+03  0.7818608E-02  0.1235057E+00
         -4   -1    0    0    0  501 -0.00000000000E+00  0.00000000000E+00  0.17053520483E+04  0.17053525212E+04  0.12700000000E+01 0. -1.
          4   -1    0    0  501    0  0.00000000000E+00 -0.00000000000E+00 -0.21143520529E+01  0.24664518247E+01  0.12700000000E+01 0. -1.
         25    2    1    2    0    0  0.00000000000E+00  0.00000000000E+00  0.17032376962E+04  0.17078189730E+04  0.12500797848E+03 0.  0.
    9000005    1    3    3    0    0 -0.49979108523E+01 -0.76287795112E+01  0.69589063021E+01  0.11515370886E+02  0.10000000000E+01 0.  0.
    9000005    1    3    3    0    0  0.49979108523E+01  0.76287795112E+01  0.16962787899E+04  0.16963036021E+04  0.10000000000E+01 0.  0.
<mgrwt>
<rscale>  0 0.12500798E+03</rscale>
<asrwt>0</asrwt>
<pdfrwt beam="2">  1        4 0.35240557E-03 0.12500798E+03</pdfrwt>
<pdfrwt beam="1">  1       -4 0.26238922E+00 0.12500798E+03</pdfrwt>
<totfact> 0.14175373E+03</totfact>
</mgrwt>
</event>
<event>
 5    1  0.3212987E-002  0.1249984E+03  0.7818608E-02  0.1235072E+00
         -4   -1    0    0    0  501 -0.00000000000E+00  0.00000000000E+00  0.15381708741E+02  0.15434048847E+02  0.12700000000E+01 0.  1.
          4   -1    0    0  501    0  0.00000000000E+00 -0.00000000000E+00 -0.25346253767E+03  0.25346571938E+03  0.12700000000E+01 0.  1.
         25    2    1    2    0    0  0.00000000000E+00  0.00000000000E+00 -0.23808082893E+03  0.26889976823E+03  0.12499841699E+03 0.  0.
    9000005    1    3    3    0    0  0.43255093157E+02  0.20823069408E+02 -0.20510415818E+03  0.21064975435E+03  0.10000000000E+01 0.  0.
    9000005    1    3    3    0    0 -0.43255093157E+02 -0.20823069408E+02 -0.32976670748E+02  0.58250013881E+02  0.10000000000E+01 0.  0.
<mgrwt>
<rscale>  0 0.12499842E+03</rscale>
<asrwt>0</asrwt>
<pdfrwt beam="2">  1        4 0.38998504E-01 0.12499842E+03</pdfrwt>
<pdfrwt beam="1">  1       -4 0.23706878E-02 0.12499842E+03</pdfrwt>
<totfact> 0.79675910E+03</totfact>
</mgrwt>
</event>
<event>
 5    1  0.3212987E-002  0.1249992E+03  0.7818608E-02  0.1235071E+00
         -4   -1    0    0    0  501 -0.00000000000E+00  0.00000000000E+00  0.34173435507E+03  0.34173671494E+03  0.12700000000E+01 0. -1.
          4   -1    0    0  501    0  0.00000000000E+00 -0.00000000000E+00 -0.11392827499E+02  0.11463394716E+02  0.12700000000E+01 0. -1.
         25    2    1    2    0    0  0.00000000000E+00  0.00000000000E+00  0.33034152758E+03  0.35320010966E+03  0.12499917048E+03 0.  0.
    9000005    1    3    3    0    0  0.23078881358E+02  0.24704610465E+02  0.31367705254E+03  0.31549523900E+03  0.10000000000E+01 0.  0.
    9000005    1    3    3    0    0 -0.23078881358E+02 -0.24704610465E+02  0.16664475039E+02  0.37704870658E+02  0.10000000000E+01 0.  0.
<mgrwt>
<rscale>  0 0.12499917E+03</rscale>
<asrwt>0</asrwt>
<pdfrwt beam="2">  1        4 0.17583525E-02 0.12499917E+03</pdfrwt>
<pdfrwt beam="1">  1       -4 0.52580125E-01 0.12499917E+03</pdfrwt>
<totfact> 0.69375205E+03</totfact>
</mgrwt>
</event>
<event>
 5    1  0.3212987E-002  0.1249981E+03  0.7818608E-02  0.1235072E+00
         -4   -1    0    0    0  501 -0.00000000000E+00  0.00000000000E+00  0.21820974700E+02  0.21857901017E+02  0.12700000000E+01 0.  1.
          4   -1    0    0  501    0  0.00000000000E+00 -0.00000000000E+00 -0.17881760095E+03  0.17882211080E+03  0.12700000000E+01 0.  1.
         25    2    1    2    0    0  0.00000000000E+00  0.00000000000E+00 -0.15699662625E+03  0.20068001182E+03  0.12499810594E+03 0.  0.
    9000005    1    3    3    0    0 -0.13532625187E+02 -0.59982080306E+02 -0.96386797967E+02  0.11433458236E+03  0.10000000000E+01 0.  0.
    9000005    1    3    3    0    0  0.13532625187E+02  0.59982080306E+02 -0.60609828287E+02  0.86345429452E+02  0.10000000000E+01 0.  0.
<mgrwt>
<rscale>  0 0.12499811E+03</rscale>
<asrwt>0</asrwt>
<pdfrwt beam="2">  1        4 0.27513587E-01 0.12499811E+03</pdfrwt>
<pdfrwt beam="1">  1       -4 0.33602605E-02 0.12499811E+03</pdfrwt>
<totfact> 0.90024759E+03</totfact>
</mgrwt>
</event>
<event>
 5    1  0.3212987E-002  0.1249754E+03  0.7818608E-02  0.1235108E+00
          4   -1    0    0  501    0  0.00000000000E+00  0.00000000000E+00  0.60896625729E+02  0.60909867223E+02  0.12700000000E+01 0. -1.
         -4   -1    0    0    0  501 -0.00000000000E+00 -0.00000000000E+00 -0.64093834756E+02  0.64106415854E+02  0.12700000000E+01 0. -1.
         25    2    1    2    0    0  0.00000000000E+00  0.00000000000E+00 -0.31972090266E+01  0.12501628308E+03  0.12497539313E+03 0.  0.
    9000005    1    3    3    0    0 -0.15419998610E+02  0.32174797437E+02 -0.52905914073E+02  0.63820292158E+02  0.10000000000E+01 0.  0.
    9000005    1    3    3    0    0  0.15419998610E+02 -0.32174797437E+02  0.49708705046E+02  0.61195990920E+02  0.10000000000E+01 0.  0.
<mgrwt>
<rscale>  0 0.12497539E+03</rscale>
<asrwt>0</asrwt>
<pdfrwt beam="1">  1        4 0.93706980E-02 0.12497539E+03</pdfrwt>
<pdfrwt beam="2">  1       -4 0.98625763E-02 0.12497539E+03</pdfrwt>
<totfact> 0.10458324E+04</totfact>
</mgrwt>
</event>
<event>
 5    1  0.3212987E-002  0.1250026E+03  0.7818608E-02  0.1235065E+00
          4   -1    0    0  501    0  0.00000000000E+00  0.00000000000E+00  0.10154581302E+04  0.10154589244E+04  0.12700000000E+01 0.  1.
         -4   -1    0    0    0  501 -0.00000000000E+00 -0.00000000000E+00 -0.37413128099E+01  0.39509899445E+01  0.12700000000E+01 0.  1.
         25    2    1    2    0    0  0.00000000000E+00  0.00000000000E+00  0.10117168174E+04  0.10194099143E+04  0.12500261925E+03 0.  0.
    9000005    1    3    3    0    0  0.18730204388E+02  0.53034685397E+02  0.28372856982E+03  0.28925144726E+03  0.10000000000E+01 0.  0.
    9000005    1    3    3    0    0 -0.18730204388E+02 -0.53034685397E+02  0.72798824755E+03  0.73015846704E+03  0.10000000000E+01 0.  0.
<mgrwt>
<rscale>  0 0.12500262E+03</rscale>
<asrwt>0</asrwt>
<pdfrwt beam="1">  1        4 0.15624054E+00 0.12500262E+03</pdfrwt>
<pdfrwt beam="2">  1       -4 0.59177661E-03 0.12500262E+03</pdfrwt>
<totfact> 0.29967725E+03</totfact>
</mgrwt>
</event>
<event>
 5    1  0.3212987E-002  0.1249660E+03  0.7818608E-02  0.1235122E+00
          4   -1    0    0  501    0  0.00000000000E+00  0.00000000000E+00  0.32069531044E+03  0.32069782512E+03  0.12700000000E+01 0.  1.
         -4   -1    0    0    0  501 -0.00000000000E+00 -0.00000000000E+00 -0.12138251479E+02  0.12204509370E+02  0.12700000000E+01 0.  1.
         25    2    1    2    0    0  0.00000000000E+00  0.00000000000E+00  0.30855705896E+03  0.33290233449E+03  0.12496601808E+03 0.  0.
    9000005    1    3    3    0    0 -0.17668572759E+02  0.33678177169E+02  0.22239149390E+02  0.44067877716E+02  0.10000000000E+01 0.  0.
    9000005    1    3    3    0    0  0.17668572759E+02 -0.33678177169E+02  0.28631790957E+03  0.28883445677E+03  0.10000000000E+01 0.  0.
<mgrwt>
<rscale>  0 0.12496602E+03</rscale>
<asrwt>0</asrwt>
<pdfrwt beam="1">  1        4 0.49343030E-01 0.12496602E+03</pdfrwt>
<pdfrwt beam="2">  1       -4 0.18727135E-02 0.12496602E+03</pdfrwt>
<totfact> 0.71701349E+03</totfact>
</mgrwt>
</event>
<event>
 5    1  0.3212987E-002  0.1249889E+03  0.7818608E-02  0.1235087E+00
         -4   -1    0    0    0  501 -0.00000000000E+00  0.00000000000E+00  0.35998209258E+03  0.35998433282E+03  0.12700000000E+01 0.  1.
          4   -1    0    0  501    0  0.00000000000E+00 -0.00000000000E+00 -0.10809866903E+02  0.10884214371E+02  0.12700000000E+01 0.  1.
         25    2    1    2    0    0  0.00000000000E+00  0.00000000000E+00  0.34917222567E+03  0.37086854719E+03  0.12498894397E+03 0.  0.
    9000005    1    3    3    0    0 -0.62122100794E+02  0.66009832885E+01  0.17057144160E+03  0.18165446616E+03  0.10000000000E+01 0.  0.
    9000005    1    3    3    0    0  0.62122100794E+02 -0.66009832885E+01  0.17860078408E+03  0.18921408103E+03  0.10000000000E+01 0.  0.
<mgrwt>
<rscale>  0 0.12498894E+03</rscale>
<asrwt>0</asrwt>
<pdfrwt beam="2">  1        4 0.16689476E-02 0.12498894E+03</pdfrwt>
<pdfrwt beam="1">  1       -4 0.55387760E-01 0.12498894E+03</pdfrwt>
<totfact> 0.67504659E+03</totfact>
</mgrwt>
</event>
<event>
 5    1  0.3212987E-002  0.1250083E+03  0.7818608E-02  0.1235056E+00
         -4   -1    0    0    0  501 -0.00000000000E+00  0.00000000000E+00  0.35089135634E+02  0.35112111010E+02  0.12700000000E+01 0. -1.
          4   -1    0    0  501    0  0.00000000000E+00 -0.00000000000E+00 -0.11127543141E+03  0.11128267850E+03  0.12700000000E+01 0. -1.
         25    2    1    2    0    0  0.00000000000E+00  0.00000000000E+00 -0.76186295773E+02  0.14639478951E+03  0.12500833065E+03 0.  0.
    9000005    1    3    3    0    0  0.10329637552E+02 -0.14982330790E+02 -0.10810963715E+03  0.10963514625E+03  0.10000000000E+01 0.  0.
    9000005    1    3    3    0    0 -0.10329637552E+02  0.14982330790E+02  0.31923341381E+02  0.36759643263E+02  0.10000000000E+01 0.  0.
<mgrwt>
<rscale>  0 0.12500833E+03</rscale>
<asrwt>0</asrwt>
<pdfrwt beam="2">  1        4 0.17121622E-01 0.12500833E+03</pdfrwt>
<pdfrwt beam="1">  1       -4 0.54006534E-02 0.12500833E+03</pdfrwt>
<totfact> 0.10000850E+04</totfact>
</mgrwt>
</event>
<event>
 5    1  0.3212987E-002  0.1249735E+03  0.7818608E-02  0.1235111E+00
          4   -1    0    0  501    0  0.00000000000E+00  0.00000000000E+00  0.82908769170E+02  0.82918495556E+02  0.12700000000E+01 0.  1.
         -4   -1    0    0    0  501 -0.00000000000E+00 -0.00000000000E+00 -0.47074017949E+02  0.47091146364E+02  0.12700000000E+01 0.  1.
         25    2    1    2    0    0  0.00000000000E+00  0.00000000000E+00  0.35834751221E+02  0.13000964192E+03  0.12497350758E+03 0.  0.
    9000005    1    3    3    0    0 -0.30634201506E+02  0.97821793899E+00 -0.38720913077E+02  0.49393525100E+02  0.10000000000E+01 0.  0.
    9000005    1    3    3    0    0  0.30634201506E+02 -0.97821793899E+00  0.74555664299E+02  0.80616116821E+02  0.10000000000E+01 0.  0.
<mgrwt>
<rscale>  0 0.12497351E+03</rscale>
<asrwt>0</asrwt>
<pdfrwt beam="1">  1        4 0.12757261E-01 0.12497351E+03</pdfrwt>
<pdfrwt beam="2">  1       -4 0.72442224E-02 0.12497351E+03</pdfrwt>
<totfact> 0.10350490E+04</totfact>
</mgrwt>
</event>
<event>
 5    1  0.3212987E-002  0.1250024E+03  0.7818608E-02  0.1235066E+00
          4   -1    0    0  501    0  0.00000000000E+00  0.00000000000E+00  0.24856428134E+03  0.24856752576E+03  0.12700000000E+01 0. -1.
         -4   -1    0    0    0  501 -0.00000000000E+00 -0.00000000000E+00 -0.15686838893E+02  0.15738164266E+02  0.12700000000E+01 0. -1.
         25    2    1    2    0    0  0.00000000000E+00  0.00000000000E+00  0.23287744245E+03  0.26430569002E+03  0.12500237828E+03 0.  0.
    9000005    1    3    3    0    0  0.28075966222E+02 -0.45015943457E+02  0.18626865176E+03  0.19367938887E+03  0.10000000000E+01 0.  0.
    9000005    1    3    3    0    0 -0.28075966222E+02  0.45015943457E+02  0.46608790693E+02  0.70626301152E+02  0.10000000000E+01 0.  0.
<mgrwt>
<rscale>  0 0.12500238E+03</rscale>
<asrwt>0</asrwt>
<pdfrwt beam="1">  1        4 0.38244856E-01 0.12500238E+03</pdfrwt>
<pdfrwt beam="2">  1       -4 0.24175575E-02 0.12500238E+03</pdfrwt>
<totfact> 0.80301339E+03</totfact>
</mgrwt>
</event>
<event>
 5    1  0.3212987E-002  0.1250039E+03  0.7818608E-02  0.1235063E+00
          4   -1    0    0  501    0  0.00000000000E+00  0.00000000000E+00  0.34796693499E+02  0.34819861839E+02  0.12700000000E+01 0.  1.
         -4   -1    0    0    0  501 -0.00000000000E+00 -0.00000000000E+00 -0.11220210849E+03  0.11220929574E+03  0.12700000000E+01 0.  1.
         25    2    1    2    0    0  0.00000000000E+00  0.00000000000E+00 -0.77405414994E+02  0.14702915758E+03  0.12500389957E+03 0.  0.
    9000005    1    3    3    0    0 -0.25693639731E+02  0.28472975230E+02 -0.96738447414E+02  0.10406824996E+03  0.10000000000E+01 0.  0.
    9000005    1    3    3    0    0  0.25693639731E+02 -0.28472975230E+02  0.19333032420E+02  0.42960907621E+02  0.10000000000E+01 0.  0.
<mgrwt>
<rscale>  0 0.12500390E+03</rscale>
<asrwt>0</asrwt>
<pdfrwt beam="1">  1        4 0.53556726E-02 0.12500390E+03</pdfrwt>
<pdfrwt beam="2">  1       -4 0.17264198E-01 0.12500390E+03</pdfrwt>
<totfact> 0.99890452E+03</totfact>
</mgrwt>
</event>
<event>
 5    1  0.3212987E-002  0.1249992E+03  0.7818608E-02  0.1235070E+00
         -4   -1    0    0    0  501 -0.00000000000E+00  0.00000000000E+00  0.54689111537E+02  0.54703855629E+02  0.12700000000E+01 0.  1.
          4   -1    0    0  501    0  0.00000000000E+00 -0.00000000000E+00 -0.71395575998E+02  0.71406870622E+02  0.12700000000E+01 0.  1.
         25    2    1    2    0    0  0.00000000000E+00  0.00000000000E+00 -0.16706464461E+02  0.12611072625E+03  0.12499923728E+03 0.  0.
    9000005    1    3    3    0    0 -0.15234019830E+02 -0.34280935441E+02  0.42070623379E+02  0.56375484444E+02  0.10000000000E+01 0.  0.
    9000005    1    3    3    0    0  0.15234019830E+02  0.34280935441E+02 -0.58777087840E+02  0.69735241806E+02  0.10000000000E+01 0.  0.
<mgrwt>
<rscale>  0 0.12499924E+03</rscale>
<asrwt>0</asrwt>
<pdfrwt beam="2">  1        4 0.10985938E-01 0.12499924E+03</pdfrwt>
<pdfrwt beam="1">  1       -4 0.84157124E-02 0.12499924E+03</pdfrwt>
<totfact> 0.10428711E+04</totfact>
</mgrwt>
</event>
<event>
 5    1  0.3212987E-002  0.1250052E+03  0.7818608E-02  0.1235061E+00
          4   -1    0    0  501    0  0.00000000000E+00  0.00000000000E+00  0.44063903966E+01  0.45857579883E+01  0.12700000000E+01 0. -1.
         -4   -1    0    0    0  501 -0.00000000000E+00 -0.00000000000E+00 -0.86870537147E+03  0.86870629980E+03  0.12700000000E+01 0. -1.
         25    2    1    2    0    0  0.00000000000E+00  0.00000000000E+00 -0.86429898107E+03  0.87329205779E+03  0.12500515798E+03 0.  0.
    9000005    1    3    3    0    0 -0.47782586630E+02 -0.83413764628E+01 -0.70744041119E+03  0.70910203041E+03  0.10000000000E+01 0.  0.
    9000005    1    3    3    0    0  0.47782586630E+02  0.83413764628E+01 -0.15685856988E+03  0.16419002738E+03  0.10000000000E+01 0.  0.
<mgrwt>
<rscale>  0 0.12500516E+03</rscale>
<asrwt>0</asrwt>
<pdfrwt beam="1">  1        4 0.69177582E-03 0.12500516E+03</pdfrwt>
<pdfrwt beam="2">  1       -4 0.13366072E+00 0.12500516E+03</pdfrwt>
<totfact> 0.35188758E+03</totfact>
</mgrwt>
</event>
<event>
 5    1  0.3212987E-002  0.1250015E+03  0.7818608E-02  0.1235067E+00
          4   -1    0    0  501    0  0.00000000000E+00  0.00000000000E+00  0.96579669009E+01  0.97411100322E+01  0.12700000000E+01 0. -1.
         -4   -1    0    0    0  501 -0.00000000000E+00 -0.00000000000E+00 -0.40265073305E+03  0.40265273590E+03  0.12700000000E+01 0. -1.
         25    2    1    2    0    0  0.00000000000E+00  0.00000000000E+00 -0.39299276615E+03  0.41239384593E+03  0.12500147965E+03 0.  0.
    9000005    1    3    3    0    0  0.62053522882E+02  0.43377395939E+01 -0.17673286112E+03  0.18736317644E+03  0.10000000000E+01 0.  0.
    9000005    1    3    3    0    0 -0.62053522882E+02 -0.43377395939E+01 -0.21625990503E+03  0.22503066949E+03  0.10000000000E+01 0.  0.
<mgrwt>
<rscale>  0 0.12500148E+03</rscale>
<asrwt>0</asrwt>
<pdfrwt beam="1">  1        4 0.14923911E-02 0.12500148E+03</pdfrwt>
<pdfrwt beam="2">  1       -4 0.61952803E-01 0.12500148E+03</pdfrwt>
<totfact> 0.63362905E+03</totfact>
</mgrwt>
</event>
<event>
 5    1  0.3212987E-002  0.1249943E+03  0.7818608E-02  0.1235078E+00
          4   -1    0    0  501    0  0.00000000000E+00  0.00000000000E+00  0.16661890691E+03  0.16662374692E+03  0.12700000000E+01 0. -1.
         -4   -1    0    0    0  501 -0.00000000000E+00 -0.00000000000E+00 -0.23419676805E+02  0.23454086246E+02  0.12700000000E+01 0. -1.
         25    2    1    2    0    0  0.00000000000E+00  0.00000000000E+00  0.14319923010E+03  0.19007783317E+03  0.12499425251E+03 0.  0.
    9000005    1    3    3    0    0  0.22349697084E+02 -0.32759795783E+02  0.14503785158E+03  0.15036519402E+03  0.10000000000E+01 0.  0.
    9000005    1    3    3    0    0 -0.22349697084E+02  0.32759795783E+02 -0.18386214831E+01  0.39712639152E+02  0.10000000000E+01 0.  0.
<mgrwt>
<rscale>  0 0.12499425E+03</rscale>
<asrwt>0</asrwt>
<pdfrwt beam="1">  1        4 0.25636698E-01 0.12499425E+03</pdfrwt>
<pdfrwt beam="2">  1       -4 0.36060463E-02 0.12499425E+03</pdfrwt>
<totfact> 0.91845597E+03</totfact>
</mgrwt>
</event>
<event>
 5    1  0.3212987E-002  0.1249986E+03  0.7818608E-02  0.1235072E+00
         -4   -1    0    0    0  501 -0.00000000000E+00  0.00000000000E+00  0.82955076961E+02  0.82964797918E+02  0.12700000000E+01 0. -1.
          4   -1    0    0  501    0  0.00000000000E+00 -0.00000000000E+00 -0.47066603520E+02  0.47083734632E+02  0.12700000000E+01 0. -1.
         25    2    1    2    0    0  0.00000000000E+00  0.00000000000E+00  0.35888473441E+02  0.13004853255E+03  0.12499855316E+03 0.  0.
    9000005    1    3    3    0    0 -0.98328904522E+00  0.19887747518E+02  0.79571338625E+02  0.82031014191E+02  0.10000000000E+01 0.  0.
    9000005    1    3    3    0    0  0.98328904522E+00 -0.19887747518E+02 -0.43682865184E+02  0.48017518359E+02  0.10000000000E+01 0.  0.
<mgrwt>
<rscale>  0 0.12499855E+03</rscale>
<asrwt>0</asrwt>
<pdfrwt beam="2">  1        4 0.72430816E-02 0.12499855E+03</pdfrwt>
<pdfrwt beam="1">  1       -4 0.12764385E-01 0.12499855E+03</pdfrwt>
<totfact> 0.10343807E+04</totfact>
</mgrwt>
</event>
<event>
 5    1  0.3212987E-002  0.1249956E+03  0.7818608E-02  0.1235076E+00
          4   -1    0    0  501    0  0.00000000000E+00  0.00000000000E+00  0.13191504446E+03  0.13192115773E+03  0.12700000000E+01 0.  1.
         -4   -1    0    0    0  501 -0.00000000000E+00 -0.00000000000E+00 -0.29589371919E+02  0.29616614097E+02  0.12700000000E+01 0.  1.
         25    2    1    2    0    0  0.00000000000E+00  0.00000000000E+00  0.10232567255E+03  0.16153777182E+03  0.12499563378E+03 0.  0.
    9000005    1    3    3    0    0  0.53708021845E+01 -0.24839713559E+02 -0.22615598312E+02  0.34034132467E+02  0.10000000000E+01 0.  0.
    9000005    1    3    3    0    0 -0.53708021845E+01  0.24839713559E+02  0.12494127086E+03  0.12750363936E+03  0.10000000000E+01 0.  0.
<mgrwt>
<rscale>  0 0.12499563E+03</rscale>
<asrwt>0</asrwt>
<pdfrwt beam="1">  1        4 0.20297188E-01 0.12499563E+03</pdfrwt>
<pdfrwt beam="2">  1       -4 0.45547769E-02 0.12499563E+03</pdfrwt>
<totfact> 0.97056655E+03</totfact>
</mgrwt>
</event>
<event>
 5    1  0.3212987E-002  0.1250020E+03  0.7818608E-02  0.1235066E+00
          4   -1    0    0  501    0  0.00000000000E+00  0.00000000000E+00  0.31991953523E+02  0.32017151501E+02  0.12700000000E+01 0. -1.
         -4   -1    0    0    0  501 -0.00000000000E+00 -0.00000000000E+00 -0.12202827086E+03  0.12203487940E+03  0.12700000000E+01 0. -1.
         25    2    1    2    0    0  0.00000000000E+00  0.00000000000E+00 -0.90036317340E+02  0.15405203090E+03  0.12500195912E+03 0.  0.
    9000005    1    3    3    0    0 -0.31199038726E+02 -0.53811178627E+02 -0.52448345429E+02  0.81368617421E+02  0.10000000000E+01 0.  0.
    9000005    1    3    3    0    0  0.31199038726E+02  0.53811178627E+02 -0.37587971911E+02  0.72683413480E+02  0.10000000000E+01 0.  0.
<mgrwt>
<rscale>  0 0.12500196E+03</rscale>
<asrwt>0</asrwt>
<pdfrwt beam="1">  1        4 0.49242857E-02 0.12500196E+03</pdfrwt>
<pdfrwt beam="2">  1       -4 0.18776027E-01 0.12500196E+03</pdfrwt>
<totfact> 0.98497579E+03</totfact>
</mgrwt>
</event>
<event>
 5    1  0.3212987E-002  0.1249993E+03  0.7818608E-02  0.1235070E+00
         -4   -1    0    0    0  501 -0.00000000000E+00  0.00000000000E+00  0.53882084940E+03  0.53882234610E+03  0.12700000000E+01 0. -1.
          4   -1    0    0  501    0  0.00000000000E+00 -0.00000000000E+00 -0.71924031185E+01  0.73036677511E+01  0.12700000000E+01 0. -1.
         25    2    1    2    0    0  0.00000000000E+00  0.00000000000E+00  0.53162844628E+03  0.54612601385E+03  0.12499927240E+03 0.  0.
    9000005    1    3    3    0    0 -0.24676347474E+01  0.61713448714E+02  0.30739253933E+03  0.31353757703E+03  0.10000000000E+01 0.  0.
    9000005    1    3    3    0    0  0.24676347474E+01 -0.61713448714E+02  0.22423590695E+03  0.23258843681E+03  0.10000000000E+01 0.  0.
<mgrwt>
<rscale>  0 0.12499927E+03</rscale>
<asrwt>0</asrwt>
<pdfrwt beam="2">  1        4 0.11151977E-02 0.12499927E+03</pdfrwt>
<pdfrwt beam="1">  1       -4 0.82904173E-01 0.12499927E+03</pdfrwt>
<totfact> 0.52455973E+03</totfact>
</mgrwt>
</event>
<event>
 5    1  0.3212987E-002  0.1249862E+03  0.7818608E-02  0.1235091E+00
          4   -1    0    0  501    0  0.00000000000E+00  0.00000000000E+00  0.27836194485E+02  0.27865150698E+02  0.12700000000E+01 0. -1.
         -4   -1    0    0    0  501 -0.00000000000E+00 -0.00000000000E+00 -0.14019407308E+03  0.14019982534E+03  0.12700000000E+01 0. -1.
         25    2    1    2    0    0  0.00000000000E+00  0.00000000000E+00 -0.11235787859E+03  0.16806497604E+03  0.12498617239E+03 0.  0.
    9000005    1    3    3    0    0  0.57112425439E+02 -0.22552274186E+02 -0.40616086071E+02  0.73628124098E+02  0.10000000000E+01 0.  0.
    9000005    1    3    3    0    0 -0.57112425439E+02  0.22552274186E+02 -0.71741792521E+02  0.94436851941E+02  0.10000000000E+01 0.  0.
<mgrwt>
<rscale>  0 0.12498617E+03</rscale>
<asrwt>0</asrwt>
<pdfrwt beam="1">  1        4 0.42851614E-02 0.12498617E+03</pdfrwt>
<pdfrwt beam="2">  1       -4 0.21570988E-01 0.12498617E+03</pdfrwt>
<totfact> 0.95839821E+03</totfact>
</mgrwt>
</event>
<event>
 5    1  0.3212987E-002  0.1249995E+03  0.7818608E-02  0.1235070E+00
         -4   -1    0    0    0  501 -0.00000000000E+00  0.00000000000E+00  0.14480904629E+03  0.14481461524E+03  0.12700000000E+01 0.  1.
          4   -1    0    0  501    0  0.00000000000E+00 -0.00000000000E+00 -0.26953945515E+02  0.26983848481E+02  0.12700000000E+01 0.  1.
         25    2    1    2    0    0  0.00000000000E+00  0.00000000000E+00  0.11785510077E+03  0.17179846372E+03  0.12499954943E+03 0.  0.
    9000005    1    3    3    0    0  0.19055987378E+02  0.44714727970E+01 -0.22638886593E+02  0.29944012926E+02  0.10000000000E+01 0.  0.
    9000005    1    3    3    0    0 -0.19055987378E+02 -0.44714727970E+01  0.14049398737E+03  0.14185445080E+03  0.10000000000E+01 0.  0.
<mgrwt>
<rscale>  0 0.12499955E+03</rscale>
<asrwt>0</asrwt>
<pdfrwt beam="2">  1        4 0.41494894E-02 0.12499955E+03</pdfrwt>
<pdfrwt beam="1">  1       -4 0.22281044E-01 0.12499955E+03</pdfrwt>
<totfact> 0.95115448E+03</totfact>
</mgrwt>
</event>
<event>
 5    1  0.3212987E-002  0.1249999E+03  0.7818608E-02  0.1235070E+00
          4   -1    0    0  501    0  0.00000000000E+00  0.00000000000E+00  0.93176410882E+03  0.93176497433E+03  0.12700000000E+01 0.  1.
         -4   -1    0    0    0  501 -0.00000000000E+00 -0.00000000000E+00 -0.40952372796E+01  0.42876413535E+01  0.12700000000E+01 0.  1.
         25    2    1    2    0    0  0.00000000000E+00  0.00000000000E+00  0.92766887154E+03  0.93605261568E+03  0.12499985640E+03 0.  0.
    9000005    1    3    3    0    0  0.35800015929E+02 -0.21827807159E+01  0.80617367018E+02  0.88241518217E+02  0.10000000000E+01 0.  0.
    9000005    1    3    3    0    0 -0.35800015929E+02  0.21827807159E+01  0.84705150452E+03  0.84781109747E+03  0.10000000000E+01 0.  0.
<mgrwt>
<rscale>  0 0.12499986E+03</rscale>
<asrwt>0</asrwt>
<pdfrwt beam="1">  1        4 0.14336333E+00 0.12499986E+03</pdfrwt>
<pdfrwt beam="2">  1       -4 0.64490277E-03 0.12499986E+03</pdfrwt>
<totfact> 0.32816463E+03</totfact>
</mgrwt>
</event>
<event>
 5    1  0.3212987E-002  0.1249959E+03  0.7818608E-02  0.1235076E+00
         -4   -1    0    0    0  501 -0.00000000000E+00  0.00000000000E+00  0.40396503910E+03  0.40396703543E+03  0.12700000000E+01 0. -1.
          4   -1    0    0  501    0  0.00000000000E+00 -0.00000000000E+00 -0.96254125955E+01  0.97088345147E+01  0.12700000000E+01 0. -1.
         25    2    1    2    0    0  0.00000000000E+00  0.00000000000E+00  0.39433962650E+03  0.41367586995E+03  0.12499593731E+03 0.  0.
    9000005    1    3    3    0    0 -0.38209260347E+02 -0.43516663162E+02  0.11945972457E+03  0.13276020994E+03  0.10000000000E+01 0.  0.
    9000005    1    3    3    0    0  0.38209260347E+02  0.43516663162E+02  0.27487990193E+03  0.28091566000E+03  0.10000000000E+01 0.  0.
<mgrwt>
<rscale>  0 0.12499594E+03</rscale>
<asrwt>0</asrwt>
<pdfrwt beam="2">  1        4 0.14874034E-02 0.12499594E+03</pdfrwt>
<pdfrwt beam="1">  1       -4 0.62155037E-01 0.12499594E+03</pdfrwt>
<totfact> 0.63249742E+03</totfact>
</mgrwt>
</event>
<event>
 5    1  0.3212987E-002  0.1249979E+03  0.7818608E-02  0.1235073E+00
          4   -1    0    0  501    0  0.00000000000E+00  0.00000000000E+00  0.15429712565E+03  0.15430235217E+03  0.12700000000E+01 0.  1.
         -4   -1    0    0    0  501 -0.00000000000E+00 -0.00000000000E+00 -0.25293976046E+02  0.25325839062E+02  0.12700000000E+01 0.  1.
         25    2    1    2    0    0  0.00000000000E+00  0.00000000000E+00  0.12900314961E+03  0.17962819123E+03  0.12499789789E+03 0.  0.
    9000005    1    3    3    0    0 -0.60897421414E+02  0.15621124856E+01  0.44476376806E+02  0.75432646938E+02  0.10000000000E+01 0.  0.
    9000005    1    3    3    0    0  0.60897421414E+02 -0.15621124856E+01  0.84526772801E+02  0.10419554429E+03  0.10000000000E+01 0.  0.
<mgrwt>
<rscale>  0 0.12499790E+03</rscale>
<asrwt>0</asrwt>
<pdfrwt beam="1">  1        4 0.23740873E-01 0.12499790E+03</pdfrwt>
<pdfrwt beam="2">  1       -4 0.38942338E-02 0.12499790E+03</pdfrwt>
<totfact> 0.93688388E+03</totfact>
</mgrwt>
</event>
<event>
 5    1  0.3212987E-002  0.1249989E+03  0.7818608E-02  0.1235071E+00
         -4   -1    0    0    0  501 -0.00000000000E+00  0.00000000000E+00  0.73562171672E+02  0.73573133691E+02  0.12700000000E+01 0. -1.
          4   -1    0    0  501    0  0.00000000000E+00 -0.00000000000E+00 -0.53077859807E+02  0.53093051350E+02  0.12700000000E+01 0. -1.
         25    2    1    2    0    0  0.00000000000E+00  0.00000000000E+00  0.20484311865E+02  0.12666618504E+03  0.12499886160E+03 0.  0.
    9000005    1    3    3    0    0 -0.46655101895E+02 -0.27822855525E+02  0.41547090555E+02  0.68395691063E+02  0.10000000000E+01 0.  0.
    9000005    1    3    3    0    0  0.46655101895E+02  0.27822855525E+02 -0.21062778690E+02  0.58270493979E+02  0.10000000000E+01 0.  0.
<mgrwt>
<rscale>  0 0.12499886E+03</rscale>
<asrwt>0</asrwt>
<pdfrwt beam="2">  1        4 0.81678364E-02 0.12499886E+03</pdfrwt>
<pdfrwt beam="1">  1       -4 0.11319269E-01 0.12499886E+03</pdfrwt>
<totfact> 0.10416674E+04</totfact>
</mgrwt>
</event>
<event>
 5    1  0.3212987E-002  0.1250005E+03  0.7818608E-02  0.1235068E+00
          4   -1    0    0  501    0  0.00000000000E+00  0.00000000000E+00  0.23636382193E+02  0.23670476615E+02  0.12700000000E+01 0. -1.
         -4   -1    0    0    0  501 -0.00000000000E+00 -0.00000000000E+00 -0.16511009502E+03  0.16511497926E+03  0.12700000000E+01 0. -1.
         25    2    1    2    0    0  0.00000000000E+00  0.00000000000E+00 -0.14147371282E+03  0.18878545588E+03  0.12500054772E+03 0.  0.
    9000005    1    3    3    0    0 -0.56129757541E+02 -0.95057087812E+01 -0.31808721055E+02  0.65220417939E+02  0.10000000000E+01 0.  0.
    9000005    1    3    3    0    0  0.56129757541E+02  0.95057087812E+01 -0.10966499177E+03  0.12356503794E+03  0.10000000000E+01 0.  0.
<mgrwt>
<rscale>  0 0.12500055E+03</rscale>
<asrwt>0</asrwt>
<pdfrwt beam="1">  1        4 0.36393650E-02 0.12500055E+03</pdfrwt>
<pdfrwt beam="2">  1       -4 0.25404551E-01 0.12500055E+03</pdfrwt>
<totfact> 0.92057942E+03</totfact>
</mgrwt>
</event>
<event>
 5    1  0.3212987E-002  0.1250000E+03  0.7818608E-02  0.1235069E+00
          4   -1    0    0  501    0  0.00000000000E+00  0.00000000000E+00  0.16231251834E+02  0.16280861037E+02  0.12700000000E+01 0.  1.
         -4   -1    0    0    0  501 -0.00000000000E+00 -0.00000000000E+00 -0.24024384882E+03  0.24024720560E+03  0.12700000000E+01 0.  1.
         25    2    1    2    0    0  0.00000000000E+00  0.00000000000E+00 -0.22401259699E+03  0.25652806664E+03  0.12500002145E+03 0.  0.
    9000005    1    3    3    0    0 -0.18312298855E+02  0.37363596664E+02 -0.20769085634E+03  0.21182037308E+03  0.10000000000E+01 0.  0.
    9000005    1    3    3    0    0  0.18312298855E+02 -0.37363596664E+02 -0.16321740649E+02  0.44707693553E+02  0.10000000000E+01 0.  0.
<mgrwt>
<rscale>  0 0.12500002E+03</rscale>
<asrwt>0</asrwt>
<pdfrwt beam="1">  1        4 0.25011901E-02 0.12500002E+03</pdfrwt>
<pdfrwt beam="2">  1       -4 0.36964664E-01 0.12500002E+03</pdfrwt>
<totfact> 0.81395742E+03</totfact>
</mgrwt>
</event>
<event>
 5    1  0.3212987E-002  0.1249920E+03  0.7818608E-02  0.1235082E+00
          4   -1    0    0  501    0  0.00000000000E+00  0.00000000000E+00  0.12679241332E+02  0.12742686559E+02  0.12700000000E+01 0.  1.
         -4   -1    0    0    0  501 -0.00000000000E+00 -0.00000000000E+00 -0.30720937964E+03  0.30721200471E+03  0.12700000000E+01 0.  1.
         25    2    1    2    0    0  0.00000000000E+00  0.00000000000E+00 -0.29453013830E+03  0.31995469127E+03  0.12499200812E+03 0.  0.
    9000005    1    3    3    0    0  0.42842984859E+02 -0.44198580601E+02 -0.17480104042E+03  0.18532522659E+03  0.10000000000E+01 0.  0.
    9000005    1    3    3    0    0 -0.42842984859E+02  0.44198580601E+02 -0.11972909789E+03  0.13462946468E+03  0.10000000000E+01 0.  0.
<mgrwt>
<rscale>  0 0.12499201E+03</rscale>
<asrwt>0</asrwt>
<pdfrwt beam="1">  1        4 0.19557351E-02 0.12499201E+03</pdfrwt>
<pdfrwt beam="2">  1       -4 0.47268058E-01 0.12499201E+03</pdfrwt>
<totfact> 0.73174479E+03</totfact>
</mgrwt>
</event>
<event>
 5    1  0.3212987E-002  0.1250041E+03  0.7818608E-02  0.1235063E+00
         -4   -1    0    0    0  501 -0.00000000000E+00  0.00000000000E+00  0.67466592014E+01  0.68651518832E+01  0.12700000000E+01 0.  1.
          4   -1    0    0  501    0  0.00000000000E+00 -0.00000000000E+00 -0.57386856979E+03  0.57386997508E+03  0.12700000000E+01 0.  1.
         25    2    1    2    0    0  0.00000000000E+00  0.00000000000E+00 -0.56712191059E+03  0.58073512696E+03  0.12500410479E+03 0.  0.
    9000005    1    3    3    0    0  0.60567585147E+02  0.11548176641E+02 -0.33087304096E+03  0.33657058990E+03  0.10000000000E+01 0.  0.
    9000005    1    3    3    0    0 -0.60567585147E+02 -0.11548176641E+02 -0.23624886963E+03  0.24416453706E+03  0.10000000000E+01 0.  0.
<mgrwt>
<rscale>  0 0.12500410E+03</rscale>
<asrwt>0</asrwt>
<pdfrwt beam="2">  1        4 0.88296657E-01 0.12500410E+03</pdfrwt>
<pdfrwt beam="1">  1       -4 0.10471709E-02 0.12500410E+03</pdfrwt>
<totfact> 0.50102195E+03</totfact>
</mgrwt>
</event>
<event>
 5    1  0.3212987E-002  0.1250016E+03  0.7818608E-02  0.1235067E+00
          4   -1    0    0  501    0  0.00000000000E+00  0.00000000000E+00  0.46967894853E+02  0.46985061955E+02  0.12700000000E+01 0.  1.
         -4   -1    0    0    0  501 -0.00000000000E+00 -0.00000000000E+00 -0.83133491057E+02  0.83143191154E+02  0.12700000000E+01 0.  1.
         25    2    1    2    0    0  0.00000000000E+00  0.00000000000E+00 -0.36165596203E+02  0.13012825311E+03  0.12500164762E+03 0.  0.
    9000005    1    3    3    0    0  0.24889568271E+02 -0.40105961900E+02 -0.60718247025E+02  0.76913485882E+02  0.10000000000E+01 0.  0.
    9000005    1    3    3    0    0 -0.24889568271E+02  0.40105961900E+02  0.24552650822E+02  0.53214767227E+02  0.10000000000E+01 0.  0.
<mgrwt>
<rscale>  0 0.12500165E+03</rscale>
<asrwt>0</asrwt>
<pdfrwt beam="1">  1        4 0.72278967E-02 0.12500165E+03</pdfrwt>
<pdfrwt beam="2">  1       -4 0.12791835E-01 0.12500165E+03</pdfrwt>
<totfact> 0.10341380E+04</totfact>
</mgrwt>
</event>
<event>
 5    1  0.3212987E-002  0.1249981E+03  0.7818608E-02  0.1235072E+00
         -4   -1    0    0    0  501 -0.00000000000E+00  0.00000000000E+00  0.30638352082E+01  0.33166227073E+01  0.12700000000E+01 0.  1.
          4   -1    0    0  501    0  0.00000000000E+00 -0.00000000000E+00 -0.12241506541E+04  0.12241513129E+04  0.12700000000E+01 0.  1.
         25    2    1    2    0    0  0.00000000000E+00  0.00000000000E+00 -0.12210868189E+04  0.12274679356E+04  0.12499805451E+03 0.  0.
    9000005    1    3    3    0    0  0.42453141003E+02  0.41815344373E+02 -0.79539137087E+03  0.79762097833E+03  0.10000000000E+01 0.  0.
    9000005    1    3    3    0    0 -0.42453141003E+02 -0.41815344373E+02 -0.42569544804E+03  0.42984695729E+03  0.10000000000E+01 0.  0.
<mgrwt>
<rscale>  0 0.12499805E+03</rscale>
<asrwt>0</asrwt>
<pdfrwt beam="2">  1        4 0.18834999E+00 0.12499805E+03</pdfrwt>
<pdfrwt beam="1">  1       -4 0.49085611E-03 0.12499805E+03</pdfrwt>
<totfact> 0.24005975E+03</totfact>
</mgrwt>
</event>
<event>
 5    1  0.3212987E-002  0.1250012E+03  0.7818608E-02  0.1235067E+00
          4   -1    0    0  501    0  0.00000000000E+00  0.00000000000E+00  0.47922604148E+01  0.49576869489E+01  0.12700000000E+01 0. -1.
         -4   -1    0    0    0  501 -0.00000000000E+00 -0.00000000000E+00 -0.80113599725E+03  0.80113700388E+03  0.12700000000E+01 0. -1.
         25    2    1    2    0    0  0.00000000000E+00  0.00000000000E+00 -0.79634373684E+03  0.80609469083E+03  0.12500121355E+03 0.  0.
    9000005    1    3    3    0    0 -0.29180657327E+02  0.10593102011E+02 -0.74792670918E+03  0.74857136392E+03  0.10000000000E+01 0.  0.
    9000005    1    3    3    0    0  0.29180657327E+02 -0.10593102011E+02 -0.48417027654E+02  0.57523326913E+02  0.10000000000E+01 0.  0.
<mgrwt>
<rscale>  0 0.12500121E+03</rscale>
<asrwt>0</asrwt>
<pdfrwt beam="1">  1        4 0.75007402E-03 0.12500121E+03</pdfrwt>
<pdfrwt beam="2">  1       -4 0.12326439E+00 0.12500121E+03</pdfrwt>
<totfact> 0.37993108E+03</totfact>
</mgrwt>
</event>
<event>
 5    1  0.3212987E-002  0.1249941E+03  0.7818608E-02  0.1235078E+00
         -4   -1    0    0    0  501 -0.00000000000E+00  0.00000000000E+00  0.86448771297E+03  0.86448864583E+03  0.12700000000E+01 0. -1.
          4   -1    0    0  501    0  0.00000000000E+00 -0.00000000000E+00 -0.44279472928E+01  0.46064755755E+01  0.12700000000E+01 0. -1.
         25    2    1    2    0    0  0.00000000000E+00  0.00000000000E+00  0.86005976567E+03  0.86909512141E+03  0.12499411795E+03 0.  0.
    9000005    1    3    3    0    0  0.53432678083E+02  0.15790157335E+02  0.62675463526E+03  0.62922710763E+03  0.10000000000E+01 0.  0.
    9000005    1    3    3    0    0 -0.53432678083E+02 -0.15790157335E+02  0.23330513041E+03  0.23986801377E+03  0.10000000000E+01 0.  0.
<mgrwt>
<rscale>  0 0.12499412E+03</rscale>
<asrwt>0</asrwt>
<pdfrwt beam="2">  1        4 0.69502825E-03 0.12499412E+03</pdfrwt>
<pdfrwt beam="1">  1       -4 0.13301174E+00 0.12499412E+03</pdfrwt>
<totfact> 0.35363008E+03</totfact>
</mgrwt>
</event>
<event>
 5    1  0.3212987E-002  0.1250197E+03  0.7818608E-02  0.1235038E+00
          4   -1    0    0  501    0  0.00000000000E+00  0.00000000000E+00  0.84556982559E+01  0.85505399242E+01  0.12700000000E+01 0.  1.
         -4   -1    0    0    0  501 -0.00000000000E+00 -0.00000000000E+00 -0.45943946632E+03  0.45944122161E+03  0.12700000000E+01 0.  1.
         25    2    1    2    0    0  0.00000000000E+00  0.00000000000E+00 -0.45098376807E+03  0.46799176154E+03  0.12501971766E+03 0.  0.
    9000005    1    3    3    0    0  0.50777439682E+02  0.19016265234E+01 -0.89256911692E+02  0.10271202875E+03  0.10000000000E+01 0.  0.
    9000005    1    3    3    0    0 -0.50777439682E+02 -0.19016265234E+01 -0.36172685638E+03  0.36527973279E+03  0.10000000000E+01 0.  0.
<mgrwt>
<rscale>  0 0.12501972E+03</rscale>
<asrwt>0</asrwt>
<pdfrwt beam="1">  1        4 0.13083075E-02 0.12501972E+03</pdfrwt>
<pdfrwt beam="2">  1       -4 0.70690406E-01 0.12501972E+03</pdfrwt>
<totfact> 0.58410904E+03</totfact>
</mgrwt>
</event>
<event>
 5    1  0.3212987E-002  0.1249987E+03  0.7818608E-02  0.1235071E+00
          4   -1    0    0  501    0  0.00000000000E+00  0.00000000000E+00  0.43757672981E+03  0.43757857280E+03  0.12700000000E+01 0.  1.
         -4   -1    0    0    0  501 -0.00000000000E+00 -0.00000000000E+00 -0.88797808085E+01  0.89701397541E+01  0.12700000000E+01 0.  1.
         25    2    1    2    0    0  0.00000000000E+00  0.00000000000E+00  0.42869694901E+03  0.44654871256E+03  0.12499871439E+03 0.  0.
    9000005    1    3    3    0    0 -0.22276901754E+02  0.40282608697E+01  0.42243065921E+03  0.42303799957E+03  0.10000000000E+01 0.  0.
    9000005    1    3    3    0    0  0.22276901754E+02 -0.40282608697E+01  0.62662897947E+01  0.23510712987E+02  0.10000000000E+01 0.  0.
<mgrwt>
<rscale>  0 0.12499871E+03</rscale>
<asrwt>0</asrwt>
<pdfrwt beam="1">  1        4 0.67326581E-01 0.12499871E+03</pdfrwt>
<pdfrwt beam="2">  1       -4 0.13732128E-02 0.12499871E+03</pdfrwt>
<totfact> 0.60265660E+03</totfact>
</mgrwt>
</event>
<event>
 5    1  0.3212987E-002  0.1249982E+03  0.7818608E-02  0.1235072E+00
          4   -1    0    0  501    0  0.00000000000E+00  0.00000000000E+00  0.26797416941E+03  0.26797717882E+03  0.12700000000E+01 0.  1.
         -4   -1    0    0    0  501 -0.00000000000E+00 -0.00000000000E+00 -0.14545792820E+02  0.14601129709E+02  0.12700000000E+01 0.  1.
         25    2    1    2    0    0  0.00000000000E+00  0.00000000000E+00  0.25342837659E+03  0.28257830853E+03  0.12499823356E+03 0.  0.
    9000005    1    3    3    0    0 -0.32385688242E+02 -0.40812295801E+02  0.20472044367E+03  0.21124851797E+03  0.10000000000E+01 0.  0.
    9000005    1    3    3    0    0  0.32385688242E+02  0.40812295801E+02  0.48707932922E+02  0.71329790557E+02  0.10000000000E+01 0.  0.
<mgrwt>
<rscale>  0 0.12499823E+03</rscale>
<asrwt>0</asrwt>
<pdfrwt beam="1">  1        4 0.41231284E-01 0.12499823E+03</pdfrwt>
<pdfrwt beam="2">  1       -4 0.22423024E-02 0.12499823E+03</pdfrwt>
<totfact> 0.77840532E+03</totfact>
</mgrwt>
</event>
<event>
 5    1  0.3212987E-002  0.1249999E+03  0.7818608E-02  0.1235069E+00
          4   -1    0    0  501    0  0.00000000000E+00  0.00000000000E+00  0.28122152455E+02  0.28150814530E+02  0.12700000000E+01 0. -1.
         -4   -1    0    0    0  501 -0.00000000000E+00 -0.00000000000E+00 -0.13880039672E+03  0.13880620674E+03  0.12700000000E+01 0. -1.
         25    2    1    2    0    0  0.00000000000E+00  0.00000000000E+00 -0.11067824427E+03  0.16695702127E+03  0.12499989279E+03 0.  0.
    9000005    1    3    3    0    0  0.37038908008E+02 -0.39394881997E+02 -0.13496453809E+02  0.55740395580E+02  0.10000000000E+01 0.  0.
    9000005    1    3    3    0    0 -0.37038908008E+02  0.39394881997E+02 -0.97181790457E+02  0.11121662569E+03  0.10000000000E+01 0.  0.
<mgrwt>
<rscale>  0 0.12499989E+03</rscale>
<asrwt>0</asrwt>
<pdfrwt beam="1">  1        4 0.43291368E-02 0.12499989E+03</pdfrwt>
<pdfrwt beam="2">  1       -4 0.21356559E-01 0.12499989E+03</pdfrwt>
<totfact> 0.96018273E+03</totfact>
</mgrwt>
</event>
<event>
 5    1  0.3212987E-002  0.1250000E+03  0.7818608E-02  0.1235069E+00
         -4   -1    0    0    0  501 -0.00000000000E+00  0.00000000000E+00  0.37455912736E+03  0.37456128042E+03  0.12700000000E+01 0. -1.
          4   -1    0    0  501    0  0.00000000000E+00 -0.00000000000E+00 -0.10388074291E+02  0.10465418648E+02  0.12700000000E+01 0. -1.
         25    2    1    2    0    0  0.00000000000E+00  0.00000000000E+00  0.36417105307E+03  0.38502669907E+03  0.12500001240E+03 0.  0.
    9000005    1    3    3    0    0 -0.30576231442E+02  0.36268363397E+02  0.56779108533E+02  0.73994373290E+02  0.10000000000E+01 0.  0.
    9000005    1    3    3    0    0  0.30576231442E+02 -0.36268363397E+02  0.30739194454E+03  0.31103232578E+03  0.10000000000E+01 0.  0.
<mgrwt>
<rscale>  0 0.12500001E+03</rscale>
<asrwt>0</asrwt>
<pdfrwt beam="2">  1        4 0.16042804E-02 0.12500001E+03</pdfrwt>
<pdfrwt beam="1">  1       -4 0.57630600E-01 0.12500001E+03</pdfrwt>
<totfact> 0.66035579E+03</totfact>
</mgrwt>
</event>
<event>
 5    1  0.3212987E-002  0.1250083E+03  0.7818608E-02  0.1235056E+00
         -4   -1    0    0    0  501 -0.00000000000E+00  0.00000000000E+00  0.12979446181E+03  0.12980067494E+03  0.12700000000E+01 0.  1.
          4   -1    0    0  501    0  0.00000000000E+00 -0.00000000000E+00 -0.30079341312E+02  0.30106140134E+02  0.12700000000E+01 0.  1.
         25    2    1    2    0    0  0.00000000000E+00  0.00000000000E+00  0.99715120493E+02  0.15990681508E+03  0.12500833673E+03 0.  0.
    9000005    1    3    3    0    0  0.24515702138E+02 -0.48290093144E+02  0.99602272108E+01  0.55074121629E+02  0.10000000000E+01 0.  0.
    9000005    1    3    3    0    0 -0.24515702138E+02  0.48290093144E+02  0.89754893282E+02  0.10483269345E+03  0.10000000000E+01 0.  0.
<mgrwt>
<rscale>  0 0.12500834E+03</rscale>
<asrwt>0</asrwt>
<pdfrwt beam="2">  1        4 0.46301304E-02 0.12500834E+03</pdfrwt>
<pdfrwt beam="1">  1       -4 0.19970918E-01 0.12500834E+03</pdfrwt>
<totfact> 0.97342511E+03</totfact>
</mgrwt>
</event>
<event>
 5    1  0.3212987E-002  0.1249977E+03  0.7818608E-02  0.1235073E+00
         -4   -1    0    0    0  501 -0.00000000000E+00  0.00000000000E+00  0.46957682490E+02  0.46974853324E+02  0.12700000000E+01 0.  1.
          4   -1    0    0  501    0  0.00000000000E+00 -0.00000000000E+00 -0.83146356206E+02  0.83156054802E+02  0.12700000000E+01 0.  1.
         25    2    1    2    0    0  0.00000000000E+00  0.00000000000E+00 -0.36188673715E+02  0.13013090813E+03  0.12499773256E+03 0.  0.
    9000005    1    3    3    0    0 -0.34192868333E+02  0.22430949802E+02  0.31098749063E+02  0.51385133523E+02  0.10000000000E+01 0.  0.
    9000005    1    3    3    0    0  0.34192868333E+02 -0.22430949802E+02 -0.67287422778E+02  0.78745774604E+02  0.10000000000E+01 0.  0.
<mgrwt>
<rscale>  0 0.12499773E+03</rscale>
<asrwt>0</asrwt>
<pdfrwt beam="2">  1        4 0.12793814E-01 0.12499773E+03</pdfrwt>
<pdfrwt beam="1">  1       -4 0.72263258E-02 0.12499773E+03</pdfrwt>
<totfact> 0.10342237E+04</totfact>
</mgrwt>
</event>
<event>
 5    1  0.3212987E-002  0.1250032E+03  0.7818608E-02  0.1235064E+00
          4   -1    0    0  501    0  0.00000000000E+00  0.00000000000E+00  0.18604533321E+03  0.18604966786E+03  0.12700000000E+01 0.  1.
         -4   -1    0    0    0  501 -0.00000000000E+00 -0.00000000000E+00 -0.20973509255E+02  0.21011924958E+02  0.12700000000E+01 0.  1.
         25    2    1    2    0    0  0.00000000000E+00  0.00000000000E+00  0.16507182396E+03  0.20706159282E+03  0.12500318458E+03 0.  0.
    9000005    1    3    3    0    0  0.66552900593E+01  0.14279174020E+02 -0.17638423692E+02  0.23670692571E+02  0.10000000000E+01 0.  0.
    9000005    1    3    3    0    0 -0.66552900593E+01 -0.14279174020E+02  0.18271024765E+03  0.18339090025E+03  0.10000000000E+01 0.  0.
<mgrwt>
<rscale>  0 0.12500318E+03</rscale>
<asrwt>0</asrwt>
<pdfrwt beam="1">  1        4 0.28625647E-01 0.12500318E+03</pdfrwt>
<pdfrwt beam="2">  1       -4 0.32299823E-02 0.12500318E+03</pdfrwt>
<totfact> 0.88951686E+03</totfact>
</mgrwt>
</event>
<event>
 5    1  0.3212987E-002  0.1250441E+03  0.7818608E-02  0.1235000E+00
         -4   -1    0    0    0  501 -0.00000000000E+00  0.00000000000E+00  0.17829308396E+02  0.17874482870E+02  0.12700000000E+01 0.  1.
          4   -1    0    0  501    0  0.00000000000E+00 -0.00000000000E+00 -0.21892181789E+03  0.21892550160E+03  0.12700000000E+01 0.  1.
         25    2    1    2    0    0  0.00000000000E+00  0.00000000000E+00 -0.20109250950E+03  0.23679998447E+03  0.12504413328E+03 0.  0.
    9000005    1    3    3    0    0  0.34033190550E+00  0.61385181947E+02 -0.78159144880E+02  0.99388672981E+02  0.10000000000E+01 0.  0.
    9000005    1    3    3    0    0 -0.34033190550E+00 -0.61385181947E+02 -0.12293336462E+03  0.13741131149E+03  0.10000000000E+01 0.  0.
<mgrwt>
<rscale>  0 0.12504413E+03</rscale>
<asrwt>0</asrwt>
<pdfrwt beam="2">  1        4 0.33684036E-01 0.12504413E+03</pdfrwt>
<pdfrwt beam="1">  1       -4 0.27467290E-02 0.12504413E+03</pdfrwt>
<totfact> 0.84193388E+03</totfact>
</mgrwt>
</event>
<event>
 5    1  0.3212987E-002  0.1249963E+03  0.7818608E-02  0.1235075E+00
          4   -1    0    0  501    0  0.00000000000E+00  0.00000000000E+00  0.31372183595E+04  0.31372186166E+04  0.12700000000E+01 0. -1.
         -4   -1    0    0    0  501 -0.00000000000E+00 -0.00000000000E+00 -0.92087441614E+00  0.15687286860E+01  0.12700000000E+01 0. -1.
         25    2    1    2    0    0  0.00000000000E+00  0.00000000000E+00  0.31362974851E+04  0.31387873453E+04  0.12499633485E+03 0.  0.
    9000005    1    3    3    0    0  0.45141089062E+02 -0.28382068786E+02  0.23863837111E+04  0.23869795718E+04  0.10000000000E+01 0.  0.
    9000005    1    3    3    0    0 -0.45141089062E+02  0.28382068786E+02  0.74991377402E+03  0.75180777345E+03  0.10000000000E+01 0.  0.
<mgrwt>
<rscale>  0 0.12499633E+03</rscale>
<asrwt>0</asrwt>
<pdfrwt beam="1">  1        4 0.48269578E+00 0.12499633E+03</pdfrwt>
<pdfrwt beam="2">  1       -4 0.19152892E-03 0.12499633E+03</pdfrwt>
<totfact> 0.13487819E+02</totfact>
</mgrwt>
</event>
<event>
 5    1  0.3212987E-002  0.1249984E+03  0.7818608E-02  0.1235072E+00
          4   -1    0    0  501    0  0.00000000000E+00  0.00000000000E+00  0.31355282062E+02  0.31380991272E+02  0.12700000000E+01 0. -1.
         -4   -1    0    0    0  501 -0.00000000000E+00 -0.00000000000E+00 -0.12449713426E+03  0.12450361175E+03  0.12700000000E+01 0. -1.
         25    2    1    2    0    0  0.00000000000E+00  0.00000000000E+00 -0.93141852201E+02  0.15588460303E+03  0.12499841931E+03 0.  0.
    9000005    1    3    3    0    0  0.15657049517E+02  0.54801846405E+02 -0.14611136501E+02  0.58846162821E+02  0.10000000000E+01 0.  0.
    9000005    1    3    3    0    0 -0.15657049517E+02 -0.54801846405E+02 -0.78530715700E+02  0.97038440205E+02  0.10000000000E+01 0.  0.
<mgrwt>
<rscale>  0 0.12499842E+03</rscale>
<asrwt>0</asrwt>
<pdfrwt beam="1">  1        4 0.48263655E-02 0.12499842E+03</pdfrwt>
<pdfrwt beam="2">  1       -4 0.19155881E-01 0.12499842E+03</pdfrwt>
<totfact> 0.98145608E+03</totfact>
</mgrwt>
</event>
<event>
 5    1  0.3212987E-002  0.1250079E+03  0.7818608E-02  0.1235057E+00
          4   -1    0    0  501    0  0.00000000000E+00  0.00000000000E+00  0.15289673818E+02  0.15342327902E+02  0.12700000000E+01 0.  1.
         -4   -1    0    0    0  501 -0.00000000000E+00 -0.00000000000E+00 -0.25502184818E+03  0.25502501044E+03  0.12700000000E+01 0.  1.
         25    2    1    2    0    0  0.00000000000E+00  0.00000000000E+00 -0.23973217437E+03  0.27036733834E+03  0.12500792862E+03 0.  0.
    9000005    1    3    3    0    0  0.48880503526E+02 -0.34004311424E+02 -0.16091083700E+03  0.17157766254E+03  0.10000000000E+01 0.  0.
    9000005    1    3    3    0    0 -0.48880503526E+02  0.34004311424E+02 -0.78821337371E+02  0.98789675804E+02  0.10000000000E+01 0.  0.
<mgrwt>
<rscale>  0 0.12500793E+03</rscale>
<asrwt>0</asrwt>
<pdfrwt beam="1">  1        4 0.23565513E-02 0.12500793E+03</pdfrwt>
<pdfrwt beam="2">  1       -4 0.39238421E-01 0.12500793E+03</pdfrwt>
<totfact> 0.79458800E+03</totfact>
</mgrwt>
</event>
<event>
 5    1  0.3212987E-002  0.1250013E+03  0.7818608E-02  0.1235067E+00
          4   -1    0    0  501    0  0.00000000000E+00  0.00000000000E+00  0.37836553581E+01  0.39911086015E+01  0.12700000000E+01 0. -1.
         -4   -1    0    0    0  501 -0.00000000000E+00 -0.00000000000E+00 -0.10046660918E+04  0.10046668945E+04  0.12700000000E+01 0. -1.
         25    2    1    2    0    0  0.00000000000E+00  0.00000000000E+00 -0.10008824365E+04  0.10086580031E+04  0.12500126260E+03 0.  0.
    9000005    1    3    3    0    0  0.47471289265E+02  0.36028871769E+02 -0.65220321607E+03  0.65492109293E+03  0.10000000000E+01 0.  0.
    9000005    1    3    3    0    0 -0.47471289265E+02 -0.36028871769E+02 -0.34867922038E+03  0.35373691019E+03  0.10000000000E+01 0.  0.
<mgrwt>
<rscale>  0 0.12500126E+03</rscale>
<asrwt>0</asrwt>
<pdfrwt beam="1">  1        4 0.59812131E-03 0.12500126E+03</pdfrwt>
<pdfrwt beam="2">  1       -4 0.15457983E+00 0.12500126E+03</pdfrwt>
<totfact> 0.30319515E+03</totfact>
</mgrwt>
</event>
<event>
 5    1  0.3212987E-002  0.1250033E+03  0.7818608E-02  0.1235064E+00
         -4   -1    0    0    0  501 -0.00000000000E+00  0.00000000000E+00  0.12506686313E+03  0.12507331112E+03  0.12700000000E+01 0. -1.
          4   -1    0    0  501    0  0.00000000000E+00 -0.00000000000E+00 -0.31214751639E+02  0.31240576497E+02  0.12700000000E+01 0. -1.
         25    2    1    2    0    0  0.00000000000E+00  0.00000000000E+00  0.93852111495E+02  0.15631388762E+03  0.12500325048E+03 0.  0.
    9000005    1    3    3    0    0  0.44872452613E+02  0.34029416129E+02  0.80802602828E+02  0.98496694307E+02  0.10000000000E+01 0.  0.
    9000005    1    3    3    0    0 -0.44872452613E+02 -0.34029416129E+02  0.13049508666E+02  0.57817193308E+02  0.10000000000E+01 0.  0.
<mgrwt>
<rscale>  0 0.12500325E+03</rscale>
<asrwt>0</asrwt>
<pdfrwt beam="2">  1        4 0.48047519E-02 0.12500325E+03</pdfrwt>
<pdfrwt beam="1">  1       -4 0.19243539E-01 0.12500325E+03</pdfrwt>
<totfact> 0.98051015E+03</totfact>
</mgrwt>
</event>
<event>
 5    1  0.3212987E-002  0.1250009E+03  0.7818608E-02  0.1235068E+00
         -4   -1    0    0    0  501 -0.00000000000E+00  0.00000000000E+00  0.14712346080E+04  0.14712351562E+04  0.12700000000E+01 0.  1.
          4   -1    0    0  501    0  0.00000000000E+00 -0.00000000000E+00 -0.25026721699E+01  0.28064689540E+01  0.12700000000E+01 0.  1.
         25    2    1    2    0    0  0.00000000000E+00  0.00000000000E+00  0.14687319358E+04  0.14740416251E+04  0.12500085279E+03 0.  0.
    9000005    1    3    3    0    0 -0.20725723116E+02 -0.58936647633E+02  0.75193312539E+03  0.75452469084E+03  0.10000000000E+01 0.  0.
    9000005    1    3    3    0    0  0.20725723116E+02  0.58936647633E+02  0.71679881046E+03  0.71951693428E+03  0.10000000000E+01 0.  0.
<mgrwt>
<rscale>  0 0.12500085E+03</rscale>
<asrwt>0</asrwt>
<pdfrwt beam="2">  1        4 0.40843663E-03 0.12500085E+03</pdfrwt>
<pdfrwt beam="1">  1       -4 0.22636776E+00 0.12500085E+03</pdfrwt>
<totfact> 0.18445220E+03</totfact>
</mgrwt>
</event>
<event>
 5    1  0.3212987E-002  0.1250238E+03  0.7818608E-02  0.1235032E+00
         -4   -1    0    0    0  501 -0.00000000000E+00  0.00000000000E+00  0.10514010725E+03  0.10514777721E+03  0.12700000000E+01 0. -1.
          4   -1    0    0  501    0  0.00000000000E+00 -0.00000000000E+00 -0.37147056542E+02  0.37168759863E+02  0.12700000000E+01 0. -1.
         25    2    1    2    0    0  0.00000000000E+00  0.00000000000E+00  0.67993050705E+02  0.14231653707E+03  0.12502376486E+03 0.  0.
    9000005    1    3    3    0    0 -0.41976686652E+02 -0.45993073009E+02  0.27831679586E+02  0.68212956069E+02  0.10000000000E+01 0.  0.
    9000005    1    3    3    0    0  0.41976686652E+02  0.45993073009E+02  0.40161371119E+02  0.74103581002E+02  0.10000000000E+01 0.  0.
<mgrwt>
<rscale>  0 0.12502376E+03</rscale>
<asrwt>0</asrwt>
<pdfrwt beam="2">  1        4 0.57171913E-02 0.12502376E+03</pdfrwt>
<pdfrwt beam="1">  1       -4 0.16177660E-01 0.12502376E+03</pdfrwt>
<totfact> 0.10080401E+04</totfact>
</mgrwt>
</event>
<event>
 5    1  0.3212987E-002  0.1249982E+03  0.7818608E-02  0.1235072E+00
          4   -1    0    0  501    0  0.00000000000E+00  0.00000000000E+00  0.21073176824E+02  0.21111411166E+02  0.12700000000E+01 0.  1.
         -4   -1    0    0    0  501 -0.00000000000E+00 -0.00000000000E+00 -0.18515221399E+03  0.18515656955E+03  0.12700000000E+01 0.  1.
         25    2    1    2    0    0  0.00000000000E+00  0.00000000000E+00 -0.16407903717E+03  0.20626798072E+03  0.12499819770E+03 0.  0.
    9000005    1    3    3    0    0 -0.43162745244E+02  0.38246960894E+02 -0.12175630656E+03  0.13472732010E+03  0.10000000000E+01 0.  0.
    9000005    1    3    3    0    0  0.43162745244E+02 -0.38246960894E+02 -0.42322730611E+02  0.71540660614E+02  0.10000000000E+01 0.  0.
<mgrwt>
<rscale>  0 0.12499820E+03</rscale>
<asrwt>0</asrwt>
<pdfrwt beam="1">  1        4 0.32453035E-02 0.12499820E+03</pdfrwt>
<pdfrwt beam="2">  1       -4 0.28488231E-01 0.12499820E+03</pdfrwt>
<totfact> 0.89092610E+03</totfact>
</mgrwt>
</event>
<event>
 5    1  0.3212987E-002  0.1249979E+03  0.7818608E-02  0.1235073E+00
          4   -1    0    0  501    0  0.00000000000E+00  0.00000000000E+00  0.14794914768E+02  0.14849323317E+02  0.12700000000E+01 0. -1.
         -4   -1    0    0    0  501 -0.00000000000E+00 -0.00000000000E+00 -0.26347726574E+03  0.26348032652E+03  0.12700000000E+01 0. -1.
         25    2    1    2    0    0  0.00000000000E+00  0.00000000000E+00 -0.24868235097E+03  0.27832964984E+03  0.12499792915E+03 0.  0.
    9000005    1    3    3    0    0  0.31249730141E+02  0.53625926599E+02 -0.14052634476E+03  0.15362597179E+03  0.10000000000E+01 0.  0.
    9000005    1    3    3    0    0 -0.31249730141E+02 -0.53625926599E+02 -0.10815600621E+03  0.12470367804E+03  0.10000000000E+01 0.  0.
<mgrwt>
<rscale>  0 0.12499793E+03</rscale>
<asrwt>0</asrwt>
<pdfrwt beam="1">  1        4 0.22805616E-02 0.12499793E+03</pdfrwt>
<pdfrwt beam="2">  1       -4 0.40539381E-01 0.12499793E+03</pdfrwt>
<totfact> 0.78403715E+03</totfact>
</mgrwt>
</event>
<event>
 5    1  0.3212987E-002  0.1249961E+03  0.7818608E-02  0.1235075E+00
         -4   -1    0    0    0  501 -0.00000000000E+00  0.00000000000E+00  0.99295051282E+03  0.99295132500E+03  0.12700000000E+01 0.  1.
          4   -1    0    0  501    0  0.00000000000E+00 -0.00000000000E+00 -0.38303965687E+01  0.40354476671E+01  0.12700000000E+01 0.  1.
         25    2    1    2    0    0  0.00000000000E+00  0.00000000000E+00  0.98912011626E+03  0.99698677267E+03  0.12499608190E+03 0.  0.
    9000005    1    3    3    0    0  0.25939883450E+02 -0.52380292721E+02  0.67083690565E+03  0.67337933337E+03  0.10000000000E+01 0.  0.
    9000005    1    3    3    0    0 -0.25939883450E+02  0.52380292721E+02  0.31828321060E+03  0.32360743930E+03  0.10000000000E+01 0.  0.
<mgrwt>
<rscale>  0 0.12499608E+03</rscale>
<asrwt>0</asrwt>
<pdfrwt beam="2">  1        4 0.60512728E-03 0.12499608E+03</pdfrwt>
<pdfrwt beam="1">  1       -4 0.15277749E+00 0.12499608E+03</pdfrwt>
<totfact> 0.30706798E+03</totfact>
</mgrwt>
</event>
<event>
 5    1  0.3212987E-002  0.1250011E+03  0.7818608E-02  0.1235068E+00
         -4   -1    0    0    0  501 -0.00000000000E+00  0.00000000000E+00  0.22056164705E+02  0.22092697923E+02  0.12700000000E+01 0.  1.
          4   -1    0    0  501    0  0.00000000000E+00 -0.00000000000E+00 -0.17692236231E+03  0.17692692046E+03  0.12700000000E+01 0.  1.
         25    2    1    2    0    0  0.00000000000E+00  0.00000000000E+00 -0.15486619760E+03  0.19901961838E+03  0.12500107736E+03 0.  0.
    9000005    1    3    3    0    0 -0.30655069958E+02  0.28839655304E+02 -0.38861057172E+01  0.42279555932E+02  0.10000000000E+01 0.  0.
    9000005    1    3    3    0    0  0.30655069958E+02 -0.28839655304E+02 -0.15098009188E+03  0.15674006245E+03  0.10000000000E+01 0.  0.
<mgrwt>
<rscale>  0 0.12500108E+03</rscale>
<asrwt>0</asrwt>
<pdfrwt beam="2">  1        4 0.27221985E-01 0.12500108E+03</pdfrwt>
<pdfrwt beam="1">  1       -4 0.33964171E-02 0.12500108E+03</pdfrwt>
<totfact> 0.90298943E+03</totfact>
</mgrwt>
</event>
<event>
 5    1  0.3212987E-002  0.1249986E+03  0.7818608E-02  0.1235072E+00
          4   -1    0    0  501    0  0.00000000000E+00  0.00000000000E+00  0.12612390988E+03  0.12613030383E+03  0.12700000000E+01 0. -1.
         -4   -1    0    0    0  501 -0.00000000000E+00 -0.00000000000E+00 -0.30950618441E+02  0.30976663504E+02  0.12700000000E+01 0. -1.
         25    2    1    2    0    0  0.00000000000E+00  0.00000000000E+00  0.95173291444E+02  0.15710696734E+03  0.12499857512E+03 0.  0.
    9000005    1    3    3    0    0 -0.51148272238E+02  0.33913981461E+02  0.32775987632E+02  0.69581385849E+02  0.10000000000E+01 0.  0.
    9000005    1    3    3    0    0  0.51148272238E+02 -0.33913981461E+02  0.62397303812E+02  0.87525581486E+02  0.10000000000E+01 0.  0.
<mgrwt>
<rscale>  0 0.12499858E+03</rscale>
<asrwt>0</asrwt>
<pdfrwt beam="1">  1        4 0.19406174E-01 0.12499858E+03</pdfrwt>
<pdfrwt beam="2">  1       -4 0.47641289E-02 0.12499858E+03</pdfrwt>
<totfact> 0.97906592E+03</totfact>
</mgrwt>
</event>
<event>
 5    1  0.3212987E-002  0.1249971E+03  0.7818608E-02  0.1235074E+00
         -4   -1    0    0    0  501 -0.00000000000E+00  0.00000000000E+00  0.52195323012E+01  0.53718169592E+01  0.12700000000E+01 0. -1.
          4   -1    0    0  501    0  0.00000000000E+00 -0.00000000000E+00 -0.73744345666E+03  0.73744455024E+03  0.12700000000E+01 0. -1.
         25    2    1    2    0    0  0.00000000000E+00  0.00000000000E+00 -0.73222392436E+03  0.74281636720E+03  0.12499711984E+03 0.  0.
    9000005    1    3    3    0    0 -0.49437501675E+02 -0.38095915140E+02 -0.38462475059E+03  0.38965698260E+03  0.10000000000E+01 0.  0.
    9000005    1    3    3    0    0  0.49437501675E+02  0.38095915140E+02 -0.34759917377E+03  0.35315938460E+03  0.10000000000E+01 0.  0.
<mgrwt>
<rscale>  0 0.12499712E+03</rscale>
<asrwt>0</asrwt>
<pdfrwt beam="2">  1        4 0.11346456E+00 0.12499712E+03</pdfrwt>
<pdfrwt beam="1">  1       -4 0.81480388E-03 0.12499712E+03</pdfrwt>
<totfact> 0.40922710E+03</totfact>
</mgrwt>
</event>
<event>
 5    1  0.3212987E-002  0.1249994E+03  0.7818608E-02  0.1235070E+00
          4   -1    0    0  501    0  0.00000000000E+00  0.00000000000E+00  0.42319855655E+01  0.44184388449E+01  0.12700000000E+01 0. -1.
         -4   -1    0    0    0  501 -0.00000000000E+00 -0.00000000000E+00 -0.90293895308E+03  0.90293984622E+03  0.12700000000E+01 0. -1.
         25    2    1    2    0    0  0.00000000000E+00  0.00000000000E+00 -0.89870696751E+03  0.90735828506E+03  0.12499937605E+03 0.  0.
    9000005    1    3    3    0    0  0.17653811070E+02  0.22759759671E+02 -0.85191492016E+03  0.85240230813E+03  0.10000000000E+01 0.  0.
    9000005    1    3    3    0    0 -0.17653811070E+02 -0.22759759671E+02 -0.46792047350E+02  0.54955976934E+02  0.10000000000E+01 0.  0.
<mgrwt>
<rscale>  0 0.12499938E+03</rscale>
<asrwt>0</asrwt>
<pdfrwt beam="1">  1        4 0.66548669E-03 0.12499938E+03</pdfrwt>
<pdfrwt beam="2">  1       -4 0.13892795E+00 0.12499938E+03</pdfrwt>
<totfact> 0.33880221E+03</totfact>
</mgrwt>
</event>
<event>
 5    1  0.3212987E-002  0.1250005E+03  0.7818608E-02  0.1235069E+00
         -4   -1    0    0    0  501 -0.00000000000E+00  0.00000000000E+00  0.13493974505E+02  0.13553606455E+02  0.12700000000E+01 0.  1.
          4   -1    0    0  501    0  0.00000000000E+00 -0.00000000000E+00 -0.28878394409E+03  0.28878673664E+03  0.12700000000E+01 0.  1.
         25    2    1    2    0    0  0.00000000000E+00  0.00000000000E+00 -0.27528996958E+03  0.30234034310E+03  0.12500046286E+03 0.  0.
    9000005    1    3    3    0    0 -0.53759085781E+02 -0.39215060004E+01 -0.21412613048E+03  0.22080855343E+03  0.10000000000E+01 0.  0.
    9000005    1    3    3    0    0  0.53759085781E+02  0.39215060004E+01 -0.61163839101E+02  0.81531789670E+02  0.10000000000E+01 0.  0.
<mgrwt>
<rscale>  0 0.12500046E+03</rscale>
<asrwt>0</asrwt>
<pdfrwt beam="2">  1        4 0.44433096E-01 0.12500046E+03</pdfrwt>
<pdfrwt beam="1">  1       -4 0.20807982E-02 0.12500046E+03</pdfrwt>
<totfact> 0.75305433E+03</totfact>
</mgrwt>
</event>
<event>
 5    1  0.3212987E-002  0.1250050E+03  0.7818608E-02  0.1235061E+00
         -4   -1    0    0    0  501 -0.00000000000E+00  0.00000000000E+00  0.88596944889E+02  0.88606046880E+02  0.12700000000E+01 0. -1.
          4   -1    0    0  501    0  0.00000000000E+00 -0.00000000000E+00 -0.44073144778E+02  0.44091438972E+02  0.12700000000E+01 0. -1.
         25    2    1    2    0    0  0.00000000000E+00  0.00000000000E+00  0.44523800111E+02  0.13269748585E+03  0.12500501580E+03 0.  0.
    9000005    1    3    3    0    0  0.17090130677E+02  0.26931891208E+02  0.79310657900E+02  0.85490232115E+02  0.10000000000E+01 0.  0.
    9000005    1    3    3    0    0 -0.17090130677E+02 -0.26931891208E+02 -0.34786857789E+02  0.47207253737E+02  0.10000000000E+01 0.  0.
<mgrwt>
<rscale>  0 0.12500502E+03</rscale>
<asrwt>0</asrwt>
<pdfrwt beam="2">  1        4 0.67825912E-02 0.12500502E+03</pdfrwt>
<pdfrwt beam="1">  1       -4 0.13632407E-01 0.12500502E+03</pdfrwt>
<totfact> 0.10285670E+04</totfact>
</mgrwt>
</event>
<event>
 5    1  0.3212987E-002  0.1250005E+03  0.7818608E-02  0.1235069E+00
          4   -1    0    0  501    0  0.00000000000E+00  0.00000000000E+00  0.28786707384E+02  0.28814708432E+02  0.12700000000E+01 0. -1.
         -4   -1    0    0    0  501 -0.00000000000E+00 -0.00000000000E+00 -0.13560035235E+03  0.13560629947E+03  0.12700000000E+01 0. -1.
         25    2    1    2    0    0  0.00000000000E+00  0.00000000000E+00 -0.10681364496E+03  0.16442100790E+03  0.12500045236E+03 0.  0.
    9000005    1    3    3    0    0 -0.43019848211E+02  0.42287708978E+02 -0.74872673121E+02  0.96155472288E+02  0.10000000000E+01 0.  0.
    9000005    1    3    3    0    0  0.43019848211E+02 -0.42287708978E+02 -0.31940971843E+02  0.68265535617E+02  0.10000000000E+01 0.  0.
<mgrwt>
<rscale>  0 0.12500045E+03</rscale>
<asrwt>0</asrwt>
<pdfrwt beam="1">  1        4 0.44313357E-02 0.12500045E+03</pdfrwt>
<pdfrwt beam="2">  1       -4 0.20864204E-01 0.12500045E+03</pdfrwt>
<totfact> 0.96496176E+03</totfact>
</mgrwt>
</event>
<event>
 5    1  0.3212987E-002  0.1249915E+03  0.7818608E-02  0.1235083E+00
          4   -1    0    0  501    0  0.00000000000E+00  0.00000000000E+00  0.49352850105E+01  0.50960708526E+01  0.12700000000E+01 0. -1.
         -4   -1    0    0    0  501 -0.00000000000E+00 -0.00000000000E+00 -0.77854092160E+03  0.77854195745E+03  0.12700000000E+01 0. -1.
         25    2    1    2    0    0  0.00000000000E+00  0.00000000000E+00 -0.77360563659E+03  0.78363802830E+03  0.12499151345E+03 0.  0.
    9000005    1    3    3    0    0 -0.18298966406E+02  0.16662817315E+02 -0.74653497892E+03  0.74694576537E+03  0.10000000000E+01 0.  0.
    9000005    1    3    3    0    0  0.18298966406E+02 -0.16662817315E+02 -0.27070657675E+02  0.36692262935E+02  0.10000000000E+01 0.  0.
<mgrwt>
<rscale>  0 0.12499151E+03</rscale>
<asrwt>0</asrwt>
<pdfrwt beam="1">  1        4 0.77172306E-03 0.12499151E+03</pdfrwt>
<pdfrwt beam="2">  1       -4 0.11978788E+00 0.12499151E+03</pdfrwt>
<totfact> 0.39012949E+03</totfact>
</mgrwt>
</event>
<event>
 5    1  0.3212987E-002  0.1250040E+03  0.7818608E-02  0.1235063E+00
          4   -1    0    0  501    0  0.00000000000E+00  0.00000000000E+00  0.22858413167E+03  0.22858765966E+03  0.12700000000E+01 0.  1.
         -4   -1    0    0    0  501 -0.00000000000E+00 -0.00000000000E+00 -0.17062729615E+02  0.17109928168E+02  0.12700000000E+01 0.  1.
         25    2    1    2    0    0  0.00000000000E+00  0.00000000000E+00  0.21152140205E+03  0.24569758783E+03  0.12500400449E+03 0.  0.
    9000005    1    3    3    0    0 -0.13524223929E+02  0.60491270630E+02  0.12141118823E+03  0.13632232056E+03  0.10000000000E+01 0.  0.
    9000005    1    3    3    0    0  0.13524223929E+02 -0.60491270630E+02  0.90110213816E+02  0.10937526726E+03  0.10000000000E+01 0.  0.
<mgrwt>
<rscale>  0 0.12500400E+03</rscale>
<asrwt>0</asrwt>
<pdfrwt beam="1">  1        4 0.35170690E-01 0.12500400E+03</pdfrwt>
<pdfrwt beam="2">  1       -4 0.26289375E-02 0.12500400E+03</pdfrwt>
<totfact> 0.82948662E+03</totfact>
</mgrwt>
</event>
<event>
 5    1  0.3212987E-002  0.1249967E+03  0.7818608E-02  0.1235074E+00
         -4   -1    0    0    0  501 -0.00000000000E+00  0.00000000000E+00  0.96119782188E+01  0.96955157304E+01  0.12700000000E+01 0. -1.
          4   -1    0    0  501    0  0.00000000000E+00 -0.00000000000E+00 -0.40452970854E+03  0.40453170209E+03  0.12700000000E+01 0. -1.
         25    2    1    2    0    0  0.00000000000E+00  0.00000000000E+00 -0.39491773032E+03  0.41422721782E+03  0.12499669698E+03 0.  0.
    9000005    1    3    3    0    0  0.87614809419E+01 -0.61862319656E+02 -0.19363216863E+03  0.20346529647E+03  0.10000000000E+01 0.  0.
    9000005    1    3    3    0    0 -0.87614809419E+01  0.61862319656E+02 -0.20128556170E+03  0.21076192135E+03  0.10000000000E+01 0.  0.
<mgrwt>
<rscale>  0 0.12499670E+03</rscale>
<asrwt>0</asrwt>
<pdfrwt beam="2">  1        4 0.62241906E-01 0.12499670E+03</pdfrwt>
<pdfrwt beam="1">  1       -4 0.14853455E-02 0.12499670E+03</pdfrwt>
<totfact> 0.63196806E+03</totfact>
</mgrwt>
</event>
<event>
 5    1  0.3212987E-002  0.1249977E+03  0.7818608E-02  0.1235073E+00
          4   -1    0    0  501    0  0.00000000000E+00  0.00000000000E+00  0.35706223208E+02  0.35728801768E+02  0.12700000000E+01 0. -1.
         -4   -1    0    0    0  501 -0.00000000000E+00 -0.00000000000E+00 -0.10933474480E+03  0.10934212052E+03  0.12700000000E+01 0. -1.
         25    2    1    2    0    0  0.00000000000E+00  0.00000000000E+00 -0.73628521589E+02  0.14507092229E+03  0.12499765319E+03 0.  0.
    9000005    1    3    3    0    0  0.57140026739E+01  0.60652049408E+02 -0.20658192521E+02  0.64335696485E+02  0.10000000000E+01 0.  0.
    9000005    1    3    3    0    0 -0.57140026739E+01 -0.60652049408E+02 -0.52970329068E+02  0.80735225804E+02  0.10000000000E+01 0.  0.
<mgrwt>
<rscale>  0 0.12499765E+03</rscale>
<asrwt>0</asrwt>
<pdfrwt beam="1">  1        4 0.54955693E-02 0.12499765E+03</pdfrwt>
<pdfrwt beam="2">  1       -4 0.16823034E-01 0.12499765E+03</pdfrwt>
<totfact> 0.10030078E+04</totfact>
</mgrwt>
</event>
<event>
 5    1  0.3212987E-002  0.1250022E+03  0.7818608E-02  0.1235066E+00
          4   -1    0    0  501    0  0.00000000000E+00  0.00000000000E+00  0.61059259394E+01  0.62366041703E+01  0.12700000000E+01 0.  1.
         -4   -1    0    0    0  501 -0.00000000000E+00 -0.00000000000E+00 -0.63286508944E+03  0.63286636373E+03  0.12700000000E+01 0.  1.
         25    2    1    2    0    0  0.00000000000E+00  0.00000000000E+00 -0.62675916350E+03  0.63910296790E+03  0.12500221813E+03 0.  0.
    9000005    1    3    3    0    0 -0.19688045090E+01 -0.61541706914E+02 -0.25875923447E+03  0.26598608855E+03  0.10000000000E+01 0.  0.
    9000005    1    3    3    0    0  0.19688045090E+01  0.61541706914E+02 -0.36799992903E+03  0.37311687934E+03  0.10000000000E+01 0.  0.
<mgrwt>
<rscale>  0 0.12500222E+03</rscale>
<asrwt>0</asrwt>
<pdfrwt beam="1">  1        4 0.94952391E-03 0.12500222E+03</pdfrwt>
<pdfrwt beam="2">  1       -4 0.97373959E-01 0.12500222E+03</pdfrwt>
<totfact> 0.46486540E+03</totfact>
</mgrwt>
</event>
<event>
 5    1  0.3212987E-002  0.1249977E+03  0.7818608E-02  0.1235073E+00
         -4   -1    0    0    0  501 -0.00000000000E+00  0.00000000000E+00  0.56719929534E+02  0.56734145859E+02  0.12700000000E+01 0.  1.
          4   -1    0    0  501    0  0.00000000000E+00 -0.00000000000E+00 -0.68837820868E+02  0.68849535088E+02  0.12700000000E+01 0.  1.
         25    2    1    2    0    0  0.00000000000E+00  0.00000000000E+00 -0.12117891334E+02  0.12558368095E+03  0.12499767050E+03 0.  0.
    9000005    1    3    3    0    0  0.33245069585E+02 -0.48567626096E+02  0.15040832338E+02  0.60755868800E+02  0.10000000000E+01 0.  0.
    9000005    1    3    3    0    0 -0.33245069585E+02  0.48567626096E+02 -0.27158723672E+02  0.64827812147E+02  0.10000000000E+01 0.  0.
<mgrwt>
<rscale>  0 0.12499767E+03</rscale>
<asrwt>0</asrwt>
<pdfrwt beam="2">  1        4 0.10592429E-01 0.12499767E+03</pdfrwt>
<pdfrwt beam="1">  1       -4 0.87281376E-02 0.12499767E+03</pdfrwt>
<totfact> 0.10440655E+04</totfact>
</mgrwt>
</event>
<event>
 5    1  0.3212987E-002  0.1249992E+03  0.7818608E-02  0.1235070E+00
         -4   -1    0    0    0  501 -0.00000000000E+00  0.00000000000E+00  0.13431493620E+02  0.13491401739E+02  0.12700000000E+01 0. -1.
          4   -1    0    0  501    0  0.00000000000E+00 -0.00000000000E+00 -0.29011561427E+03  0.29011839401E+03  0.12700000000E+01 0. -1.
         25    2    1    2    0    0  0.00000000000E+00  0.00000000000E+00 -0.27668412065E+03  0.30360979575E+03  0.12499922182E+03 0.  0.
    9000005    1    3    3    0    0 -0.11378819321E+01 -0.62004357928E+02 -0.11962756817E+03  0.13475010294E+03  0.10000000000E+01 0.  0.
    9000005    1    3    3    0    0  0.11378819321E+01  0.62004357928E+02 -0.15705655248E+03  0.16885969281E+03  0.10000000000E+01 0.  0.
<mgrwt>
<rscale>  0 0.12499922E+03</rscale>
<asrwt>0</asrwt>
<pdfrwt beam="2">  1        4 0.44637989E-01 0.12499922E+03</pdfrwt>
<pdfrwt beam="1">  1       -4 0.20712060E-02 0.12499922E+03</pdfrwt>
<totfact> 0.75149552E+03</totfact>
</mgrwt>
</event>
<event>
 5    1  0.3212987E-002  0.1250058E+03  0.7818608E-02  0.1235060E+00
          4   -1    0    0  501    0  0.00000000000E+00  0.00000000000E+00  0.89773122928E+03  0.89773212760E+03  0.12700000000E+01 0. -1.
         -4   -1    0    0    0  501 -0.00000000000E+00 -0.00000000000E+00 -0.42580738814E+01  0.44434325897E+01  0.12700000000E+01 0. -1.
         25    2    1    2    0    0  0.00000000000E+00  0.00000000000E+00  0.89347315540E+03  0.90217556019E+03  0.12500584780E+03 0.  0.
    9000005    1    3    3    0    0 -0.30140907666E+02  0.11421498361E+02  0.83314905016E+03  0.83377290956E+03  0.10000000000E+01 0.  0.
    9000005    1    3    3    0    0  0.30140907666E+02 -0.11421498361E+02  0.60324105238E+02  0.68402650625E+02  0.10000000000E+01 0.  0.
<mgrwt>
<rscale>  0 0.12500585E+03</rscale>
<asrwt>0</asrwt>
<pdfrwt beam="1">  1        4 0.13812673E+00 0.12500585E+03</pdfrwt>
<pdfrwt beam="2">  1       -4 0.66941620E-03 0.12500585E+03</pdfrwt>
<totfact> 0.34072422E+03</totfact>
</mgrwt>
</event>
<event>
 5    1  0.3212987E-002  0.1250015E+03  0.7818608E-02  0.1235067E+00
          4   -1    0    0  501    0  0.00000000000E+00  0.00000000000E+00  0.59675381252E+02  0.59688893670E+02  0.12700000000E+01 0.  1.
         -4   -1    0    0    0  501 -0.00000000000E+00 -0.00000000000E+00 -0.65432763436E+02  0.65445087141E+02  0.12700000000E+01 0.  1.
         25    2    1    2    0    0  0.00000000000E+00  0.00000000000E+00 -0.57573821843E+01  0.12513398081E+03  0.12500146281E+03 0.  0.
    9000005    1    3    3    0    0  0.10303934030E+02  0.59696346804E+02 -0.18241508854E+02  0.63273829688E+02  0.10000000000E+01 0.  0.
    9000005    1    3    3    0    0 -0.10303934030E+02 -0.59696346804E+02  0.12484126669E+02  0.61860151122E+02  0.10000000000E+01 0.  0.
<mgrwt>
<rscale>  0 0.12500146E+03</rscale>
<asrwt>0</asrwt>
<pdfrwt beam="1">  1        4 0.91828153E-02 0.12500146E+03</pdfrwt>
<pdfrwt beam="2">  1       -4 0.10068566E-01 0.12500146E+03</pdfrwt>
<totfact> 0.10449608E+04</totfact>
</mgrwt>
</event>
<event>
 5    1  0.3212987E-002  0.1250017E+03  0.7818608E-02  0.1235067E+00
         -4   -1    0    0    0  501 -0.00000000000E+00  0.00000000000E+00  0.15831875563E+02  0.15882732254E+02  0.12700000000E+01 0.  1.
          4   -1    0    0  501    0  0.00000000000E+00 -0.00000000000E+00 -0.24629174312E+03  0.24629501746E+03  0.12700000000E+01 0.  1.
         25    2    1    2    0    0  0.00000000000E+00  0.00000000000E+00 -0.23045986755E+03  0.26217774972E+03  0.12500168757E+03 0.  0.
    9000005    1    3    3    0    0  0.30939781957E+02  0.13967726292E+01 -0.22907290772E+03  0.23115929168E+03  0.10000000000E+01 0.  0.
    9000005    1    3    3    0    0 -0.30939781957E+02 -0.13967726292E+01 -0.13869598379E+01  0.31018458036E+02  0.10000000000E+01 0.  0.
<mgrwt>
<rscale>  0 0.12500169E+03</rscale>
<asrwt>0</asrwt>
<pdfrwt beam="2">  1        4 0.37895198E-01 0.12500169E+03</pdfrwt>
<pdfrwt beam="1">  1       -4 0.24398373E-02 0.12500169E+03</pdfrwt>
<totfact> 0.80598387E+03</totfact>
</mgrwt>
</event>
<event>
 5    1  0.3212987E-002  0.1249987E+03  0.7818608E-02  0.1235071E+00
         -4   -1    0    0    0  501 -0.00000000000E+00  0.00000000000E+00  0.50133502568E+02  0.50149586038E+02  0.12700000000E+01 0.  1.
          4   -1    0    0  501    0  0.00000000000E+00 -0.00000000000E+00 -0.77881574219E+02  0.77891928355E+02  0.12700000000E+01 0.  1.
         25    2    1    2    0    0  0.00000000000E+00  0.00000000000E+00 -0.27748071650E+02  0.12804151439E+03  0.12499869570E+03 0.  0.
    9000005    1    3    3    0    0 -0.26013659205E+02  0.54743499601E+02 -0.29463149095E+02  0.67399097682E+02  0.10000000000E+01 0.  0.
    9000005    1    3    3    0    0  0.26013659205E+02 -0.54743499601E+02  0.17150774443E+01  0.60642416710E+02  0.10000000000E+01 0.  0.
<mgrwt>
<rscale>  0 0.12499870E+03</rscale>
<asrwt>0</asrwt>
<pdfrwt beam="2">  1        4 0.11983814E-01 0.12499870E+03</pdfrwt>
<pdfrwt beam="1">  1       -4 0.77148803E-02 0.12499870E+03</pdfrwt>
<totfact> 0.10386897E+04</totfact>
</mgrwt>
</event>
<event>
 5    1  0.3212987E-002  0.1250022E+03  0.7818608E-02  0.1235066E+00
          4   -1    0    0  501    0  0.00000000000E+00  0.00000000000E+00  0.58350034824E+02  0.58363854088E+02  0.12700000000E+01 0.  1.
         -4   -1    0    0    0  501 -0.00000000000E+00 -0.00000000000E+00 -0.66919702005E+02  0.66931751930E+02  0.12700000000E+01 0.  1.
         25    2    1    2    0    0  0.00000000000E+00  0.00000000000E+00 -0.85696671811E+01  0.12529560602E+03  0.12500219875E+03 0.  0.
    9000005    1    3    3    0    0 -0.28122835096E+02  0.55026164341E+02  0.50437189109E+01  0.62009771136E+02  0.10000000000E+01 0.  0.
    9000005    1    3    3    0    0  0.28122835096E+02 -0.55026164341E+02 -0.13613386092E+02  0.63285834882E+02  0.10000000000E+01 0.  0.
<mgrwt>
<rscale>  0 0.12500220E+03</rscale>
<asrwt>0</asrwt>
<pdfrwt beam="1">  1        4 0.89789184E-02 0.12500220E+03</pdfrwt>
<pdfrwt beam="2">  1       -4 0.10297329E-01 0.12500220E+03</pdfrwt>
<totfact> 0.10445926E+04</totfact>
</mgrwt>
</event>
<event>
 5    1  0.3212987E-002  0.1250004E+03  0.7818608E-02  0.1235069E+00
          4   -1    0    0  501    0  0.00000000000E+00  0.00000000000E+00  0.49875703216E+02  0.49891869791E+02  0.12700000000E+01 0. -1.
         -4   -1    0    0    0  501 -0.00000000000E+00 -0.00000000000E+00 -0.78286247061E+02  0.78296547682E+02  0.12700000000E+01 0. -1.
         25    2    1    2    0    0  0.00000000000E+00  0.00000000000E+00 -0.28410543845E+02  0.12818841747E+03  0.12500044549E+03 0.  0.
    9000005    1    3    3    0    0  0.18253329087E+02 -0.32849972030E+02 -0.65408344941E+02  0.75442403680E+02  0.10000000000E+01 0.  0.
    9000005    1    3    3    0    0 -0.18253329087E+02  0.32849972030E+02  0.36997801096E+02  0.52746013793E+02  0.10000000000E+01 0.  0.
<mgrwt>
<rscale>  0 0.12500045E+03</rscale>
<asrwt>0</asrwt>
<pdfrwt beam="1">  1        4 0.76752210E-02 0.12500045E+03</pdfrwt>
<pdfrwt beam="2">  1       -4 0.12046074E-01 0.12500045E+03</pdfrwt>
<totfact> 0.10383316E+04</totfact>
</mgrwt>
</event>
<event>
 5    1  0.3212987E-002  0.1250079E+03  0.7818608E-02  0.1235057E+00
         -4   -1    0    0    0  501 -0.00000000000E+00  0.00000000000E+00  0.18496452945E+03  0.18496888942E+03  0.12700000000E+01 0. -1.
          4   -1    0    0  501    0  0.00000000000E+00 -0.00000000000E+00 -0.21097870022E+02  0.21136059696E+02  0.12700000000E+01 0. -1.
         25    2    1    2    0    0  0.00000000000E+00  0.00000000000E+00  0.16386665943E+03  0.20610494912E+03  0.12500787167E+03 0.  0.
    9000005    1    3    3    0    0 -0.45170567711E+02  0.50903284258E+01  0.15264565130E+03  0.15927330753E+03  0.10000000000E+01 0.  0.
    9000005    1    3    3    0    0  0.45170567711E+02 -0.50903284258E+01  0.11221008133E+02  0.46831641594E+02  0.10000000000E+01 0.  0.
<mgrwt>
<rscale>  0 0.12500787E+03</rscale>
<asrwt>0</asrwt>
<pdfrwt beam="2">  1        4 0.32490992E-02 0.12500787E+03</pdfrwt>
<pdfrwt beam="1">  1       -4 0.28459354E-01 0.12500787E+03</pdfrwt>
<totfact> 0.89100284E+03</totfact>
</mgrwt>
</event>
<event>
 5    1  0.3212987E-002  0.1250032E+03  0.7818608E-02  0.1235064E+00
         -4   -1    0    0    0  501 -0.00000000000E+00  0.00000000000E+00  0.27695273028E+02  0.27724376423E+02  0.12700000000E+01 0.  1.
          4   -1    0    0  501    0  0.00000000000E+00 -0.00000000000E+00 -0.14094517131E+03  0.14095089292E+03  0.12700000000E+01 0.  1.
         25    2    1    2    0    0  0.00000000000E+00  0.00000000000E+00 -0.11324989828E+03  0.16867526934E+03  0.12500322807E+03 0.  0.
    9000005    1    3    3    0    0 -0.48058493777E+02 -0.16643284477E+02 -0.10562824083E+03  0.11723882891E+03  0.10000000000E+01 0.  0.
    9000005    1    3    3    0    0  0.48058493777E+02  0.16643284477E+02 -0.76216574459E+01  0.51436440434E+02  0.10000000000E+01 0.  0.
<mgrwt>
<rscale>  0 0.12500323E+03</rscale>
<asrwt>0</asrwt>
<pdfrwt beam="2">  1        4 0.21686551E-01 0.12500323E+03</pdfrwt>
<pdfrwt beam="1">  1       -4 0.42634901E-02 0.12500323E+03</pdfrwt>
<totfact> 0.95688910E+03</totfact>
</mgrwt>
</event>
<event>
 5    1  0.3212987E-002  0.1250525E+03  0.7818608E-02  0.1234987E+00
         -4   -1    0    0    0  501 -0.00000000000E+00  0.00000000000E+00  0.80863132148E+02  0.80873104557E+02  0.12700000000E+01 0. -1.
          4   -1    0    0  501    0  0.00000000000E+00 -0.00000000000E+00 -0.48326198382E+02  0.48342883138E+02  0.12700000000E+01 0. -1.
         25    2    1    2    0    0  0.00000000000E+00  0.00000000000E+00  0.32536933766E+02  0.12921598769E+03  0.12505246666E+03 0.  0.
    9000005    1    3    3    0    0 -0.23615748057E+02  0.12950778276E+02  0.74565892717E+02  0.79287442706E+02  0.10000000000E+01 0.  0.
    9000005    1    3    3    0    0  0.23615748057E+02 -0.12950778276E+02 -0.42028958951E+02  0.49928544989E+02  0.10000000000E+01 0.  0.
<mgrwt>
<rscale>  0 0.12505247E+03</rscale>
<asrwt>0</asrwt>
<pdfrwt beam="2">  1        4 0.74368503E-02 0.12505247E+03</pdfrwt>
<pdfrwt beam="1">  1       -4 0.12442532E-01 0.12505247E+03</pdfrwt>
<totfact> 0.10349046E+04</totfact>
</mgrwt>
</event>
<event>
 5    1  0.3212987E-002  0.1250005E+03  0.7818608E-02  0.1235068E+00
         -4   -1    0    0    0  501 -0.00000000000E+00  0.00000000000E+00  0.12748225395E+02  0.12811328999E+02  0.12700000000E+01 0.  1.
          4   -1    0    0  501    0  0.00000000000E+00 -0.00000000000E+00 -0.30559673703E+03  0.30559937595E+03  0.12700000000E+01 0.  1.
         25    2    1    2    0    0  0.00000000000E+00  0.00000000000E+00 -0.29284851163E+03  0.31841070495E+03  0.12500050505E+03 0.  0.
    9000005    1    3    3    0    0  0.44448165284E+02  0.23729168436E+02 -0.24058971589E+03  0.24581115561E+03  0.10000000000E+01 0.  0.
    9000005    1    3    3    0    0 -0.44448165284E+02 -0.23729168436E+02 -0.52258795747E+02  0.72599549342E+02  0.10000000000E+01 0.  0.
<mgrwt>
<rscale>  0 0.12500051E+03</rscale>
<asrwt>0</asrwt>
<pdfrwt beam="2">  1        4 0.47019934E-01 0.12500051E+03</pdfrwt>
<pdfrwt beam="1">  1       -4 0.19663228E-02 0.12500051E+03</pdfrwt>
<totfact> 0.73344731E+03</totfact>
</mgrwt>
</event>
<event>
 5    1  0.3212987E-002  0.1249984E+03  0.7818608E-02  0.1235072E+00
          4   -1    0    0  501    0  0.00000000000E+00  0.00000000000E+00  0.17294096995E+02  0.17340665814E+02  0.12700000000E+01 0. -1.
         -4   -1    0    0    0  501 -0.00000000000E+00 -0.00000000000E+00 -0.22551406404E+03  0.22551764006E+03  0.12700000000E+01 0. -1.
         25    2    1    2    0    0  0.00000000000E+00  0.00000000000E+00 -0.20821996704E+03  0.24285830587E+03  0.12499840822E+03 0.  0.
    9000005    1    3    3    0    0  0.44925807526E+02 -0.39298568957E+02 -0.68156268386E+02  0.90603436051E+02  0.10000000000E+01 0.  0.
    9000005    1    3    3    0    0 -0.44925807526E+02  0.39298568957E+02 -0.14006369865E+03  0.15225486982E+03  0.10000000000E+01 0.  0.
<mgrwt>
<rscale>  0 0.12499841E+03</rscale>
<asrwt>0</asrwt>
<pdfrwt beam="1">  1        4 0.26644878E-02 0.12499841E+03</pdfrwt>
<pdfrwt beam="2">  1       -4 0.34698327E-01 0.12499841E+03</pdfrwt>
<totfact> 0.83376466E+03</totfact>
</mgrwt>
</event>
<event>
 5    1  0.3212987E-002  0.1250014E+03  0.7818608E-02  0.1235067E+00
         -4   -1    0    0    0  501 -0.00000000000E+00  0.00000000000E+00  0.46676260435E+03  0.46676433210E+03  0.12700000000E+01 0. -1.
          4   -1    0    0  501    0  0.00000000000E+00 -0.00000000000E+00 -0.83190689116E+01  0.84154505260E+01  0.12700000000E+01 0. -1.
         25    2    1    2    0    0  0.00000000000E+00  0.00000000000E+00  0.45844353544E+03  0.47517978263E+03  0.12500140251E+03 0.  0.
    9000005    1    3    3    0    0 -0.45348084656E+02 -0.42965690799E+02  0.22281747114E+03  0.23141115965E+03  0.10000000000E+01 0.  0.
    9000005    1    3    3    0    0  0.45348084656E+02  0.42965690799E+02  0.23562606430E+03  0.24376862297E+03  0.10000000000E+01 0.  0.
<mgrwt>
<rscale>  0 0.12500140E+03</rscale>
<asrwt>0</asrwt>
<pdfrwt beam="2">  1        4 0.12874039E-02 0.12500140E+03</pdfrwt>
<pdfrwt beam="1">  1       -4 0.71817166E-01 0.12500140E+03</pdfrwt>
<totfact> 0.57841102E+03</totfact>
</mgrwt>
</event>
<event>
 5    1  0.3212987E-002  0.1249998E+03  0.7818608E-02  0.1235070E+00
          4   -1    0    0  501    0  0.00000000000E+00  0.00000000000E+00  0.40323372682E+03  0.40323572677E+03  0.12700000000E+01 0. -1.
         -4   -1    0    0    0  501 -0.00000000000E+00 -0.00000000000E+00 -0.96436195986E+01  0.97268853680E+01  0.12700000000E+01 0. -1.
         25    2    1    2    0    0  0.00000000000E+00  0.00000000000E+00  0.39359010722E+03  0.41296261214E+03  0.12499978609E+03 0.  0.
    9000005    1    3    3    0    0  0.15701687939E+02  0.32025114282E+02  0.27269972748E+02  0.44908822770E+02  0.10000000000E+01 0.  0.
    9000005    1    3    3    0    0 -0.15701687939E+02 -0.32025114282E+02  0.36632013447E+03  0.36805378937E+03  0.10000000000E+01 0.  0.
<mgrwt>
<rscale>  0 0.12499979E+03</rscale>
<asrwt>0</asrwt>
<pdfrwt beam="1">  1        4 0.62042519E-01 0.12499979E+03</pdfrwt>
<pdfrwt beam="2">  1       -4 0.14901926E-02 0.12499979E+03</pdfrwt>
<totfact> 0.63311584E+03</totfact>
</mgrwt>
</event>
<event>
 5    1  0.3212987E-002  0.1250009E+03  0.7818608E-02  0.1235068E+00
         -4   -1    0    0    0  501 -0.00000000000E+00  0.00000000000E+00  0.27828012852E+03  0.27828302648E+03  0.12700000000E+01 0. -1.
          4   -1    0    0  501    0  0.00000000000E+00 -0.00000000000E+00 -0.14005603097E+02  0.14063065743E+02  0.12700000000E+01 0. -1.
         25    2    1    2    0    0  0.00000000000E+00  0.00000000000E+00  0.26427452542E+03  0.29234609222E+03  0.12500085141E+03 0.  0.
    9000005    1    3    3    0    0  0.18112484173E+01 -0.31417176391E+02  0.25840790259E+03  0.26031896534E+03  0.10000000000E+01 0.  0.
    9000005    1    3    3    0    0 -0.18112484173E+01  0.31417176391E+02  0.58666228305E+01  0.32027126888E+02  0.10000000000E+01 0.  0.
<mgrwt>
<rscale>  0 0.12500085E+03</rscale>
<asrwt>0</asrwt>
<pdfrwt beam="2">  1        4 0.21593516E-02 0.12500085E+03</pdfrwt>
<pdfrwt beam="1">  1       -4 0.42816965E-01 0.12500085E+03</pdfrwt>
<totfact> 0.76567626E+03</totfact>
</mgrwt>
</event>
<event>
 5    1  0.3212987E-002  0.1249887E+03  0.7818608E-02  0.1235087E+00
          4   -1    0    0  501    0  0.00000000000E+00  0.00000000000E+00  0.71928138237E+02  0.71939349248E+02  0.12700000000E+01 0.  1.
         -4   -1    0    0    0  501 -0.00000000000E+00 -0.00000000000E+00 -0.54275002688E+02  0.54289859245E+02  0.12700000000E+01 0.  1.
         25    2    1    2    0    0  0.00000000000E+00  0.00000000000E+00  0.17653135548E+02  0.12622920849E+03  0.12498871902E+03 0.  0.
    9000005    1    3    3    0    0  0.11753055107E+02  0.62274578676E+01 -0.52833700243E+02  0.54491425172E+02  0.10000000000E+01 0.  0.
    9000005    1    3    3    0    0 -0.11753055107E+02 -0.62274578676E+01  0.70486835792E+02  0.71737783321E+02  0.10000000000E+01 0.  0.
<mgrwt>
<rscale>  0 0.12498872E+03</rscale>
<asrwt>0</asrwt>
<pdfrwt beam="1">  1        4 0.11067873E-01 0.12498872E+03</pdfrwt>
<pdfrwt beam="2">  1       -4 0.83520056E-02 0.12498872E+03</pdfrwt>
<totfact> 0.10428595E+04</totfact>
</mgrwt>
</event>
<event>
 5    1  0.3212987E-002  0.1249996E+03  0.7818608E-02  0.1235070E+00
          4   -1    0    0  501    0  0.00000000000E+00  0.00000000000E+00  0.18451347812E+02  0.18495003003E+02  0.12700000000E+01 0. -1.
         -4   -1    0    0    0  501 -0.00000000000E+00 -0.00000000000E+00 -0.21140827257E+03  0.21141208719E+03  0.12700000000E+01 0. -1.
         25    2    1    2    0    0  0.00000000000E+00  0.00000000000E+00 -0.19295692476E+03  0.22990709020E+03  0.12499958124E+03 0.  0.
    9000005    1    3    3    0    0  0.22840832036E+02  0.55310532863E+02 -0.12959873941E+03  0.14275080353E+03  0.10000000000E+01 0.  0.
    9000005    1    3    3    0    0 -0.22840832036E+02 -0.55310532863E+02 -0.63358185351E+02  0.87156286662E+02  0.10000000000E+01 0.  0.
<mgrwt>
<rscale>  0 0.12499958E+03</rscale>
<asrwt>0</asrwt>
<pdfrwt beam="1">  1        4 0.28423206E-02 0.12499958E+03</pdfrwt>
<pdfrwt beam="2">  1       -4 0.32528000E-01 0.12499958E+03</pdfrwt>
<totfact> 0.85324663E+03</totfact>
</mgrwt>
</event>
<event>
 5    1  0.3212987E-002  0.1249997E+03  0.7818608E-02  0.1235070E+00
          4   -1    0    0  501    0  0.00000000000E+00  0.00000000000E+00  0.12568866863E+04  0.12568873279E+04  0.12700000000E+01 0. -1.
         -4   -1    0    0    0  501 -0.00000000000E+00 -0.00000000000E+00 -0.29774475373E+01  0.32369883901E+01  0.12700000000E+01 0. -1.
         25    2    1    2    0    0  0.00000000000E+00  0.00000000000E+00  0.12539092387E+04  0.12601243163E+04  0.12499965405E+03 0.  0.
    9000005    1    3    3    0    0 -0.64897823266E+01  0.61374914620E+02  0.72584680797E+03  0.72846659914E+03  0.10000000000E+01 0.  0.
    9000005    1    3    3    0    0  0.64897823266E+01 -0.61374914620E+02  0.52806243078E+03  0.53165771716E+03  0.10000000000E+01 0.  0.
<mgrwt>
<rscale>  0 0.12499965E+03</rscale>
<asrwt>0</asrwt>
<pdfrwt beam="1">  1        4 0.19338702E+00 0.12499965E+03</pdfrwt>
<pdfrwt beam="2">  1       -4 0.47808332E-03 0.12499965E+03</pdfrwt>
<totfact> 0.23189851E+03</totfact>
</mgrwt>
</event>
<event>
 5    1  0.3212987E-002  0.1250005E+03  0.7818608E-02  0.1235068E+00
          4   -1    0    0  501    0  0.00000000000E+00  0.00000000000E+00  0.59409049274E+03  0.59409185019E+03  0.12700000000E+01 0.  1.
         -4   -1    0    0    0  501 -0.00000000000E+00 -0.00000000000E+00 -0.65125310131E+01  0.66352061156E+01  0.12700000000E+01 0.  1.
         25    2    1    2    0    0  0.00000000000E+00  0.00000000000E+00  0.58757796173E+03  0.60072705631E+03  0.12500054029E+03 0.  0.
    9000005    1    3    3    0    0  0.62170695155E+02  0.41735978786E+00  0.32415090215E+03  0.33006086847E+03  0.10000000000E+01 0.  0.
    9000005    1    3    3    0    0 -0.62170695155E+02 -0.41735978786E+00  0.26342705958E+03  0.27066618784E+03  0.10000000000E+01 0.  0.
<mgrwt>
<rscale>  0 0.12500054E+03</rscale>
<asrwt>0</asrwt>
<pdfrwt beam="1">  1        4 0.91408043E-01 0.12500054E+03</pdfrwt>
<pdfrwt beam="2">  1       -4 0.10114692E-02 0.12500054E+03</pdfrwt>
<totfact> 0.48821184E+03</totfact>
</mgrwt>
</event>
<event>
 4    1  0.3212987E-002  0.1251955E+03  0.7818608E-02  0.1234764E+00
         -4   -1    0    0    0  501 -0.00000000000E+00  0.00000000000E+00  0.21016641518E+02  0.21054978526E+02  0.12700000000E+01 0. -1.
          4   -1    0    0  501    0  0.00000000000E+00 -0.00000000000E+00 -0.18623610070E+03  0.18624043090E+03  0.12700000000E+01 0. -1.
    9000005    1    1    2    0    0 -0.35620028545E+02 -0.21050331803E+02 -0.16037075200E+03  0.16562512189E+03  0.10000000000E+01 0.  0.
    9000005    1    1    2    0    0  0.35620028545E+02  0.21050331803E+02 -0.48487071781E+01  0.41670287542E+02  0.10000000000E+01 0.  0.
<mgrwt>
<rscale>  0 0.12519552E+03</rscale>
<asrwt>0</asrwt>
<pdfrwt beam="2">  1        4 0.28654989E-01 0.12519552E+03</pdfrwt>
<pdfrwt beam="1">  1       -4 0.32366117E-02 0.12519552E+03</pdfrwt>
<totfact> 0.88531837E+03</totfact>
</mgrwt>
</event>
<event>
 5    1  0.3212987E-002  0.1249987E+03  0.7818608E-02  0.1235071E+00
          4   -1    0    0  501    0  0.00000000000E+00  0.00000000000E+00  0.19785001124E+02  0.19825719898E+02  0.12700000000E+01 0.  1.
         -4   -1    0    0    0  501 -0.00000000000E+00 -0.00000000000E+00 -0.19718515904E+03  0.19718924881E+03  0.12700000000E+01 0.  1.
         25    2    1    2    0    0  0.00000000000E+00  0.00000000000E+00 -0.17740015792E+03  0.21701496871E+03  0.12499872245E+03 0.  0.
    9000005    1    3    3    0    0  0.54157162812E+02  0.29639300196E+02 -0.71895940240E+02  0.94770842684E+02  0.10000000000E+01 0.  0.
    9000005    1    3    3    0    0 -0.54157162812E+02 -0.29639300196E+02 -0.10550421768E+03  0.12224412602E+03  0.10000000000E+01 0.  0.
<mgrwt>
<rscale>  0 0.12499872E+03</rscale>
<asrwt>0</asrwt>
<pdfrwt beam="1">  1        4 0.30472933E-02 0.12499872E+03</pdfrwt>
<pdfrwt beam="2">  1       -4 0.30339624E-01 0.12499872E+03</pdfrwt>
<totfact> 0.87345400E+03</totfact>
</mgrwt>
</event>
<event>
 5    1  0.3212987E-002  0.1250136E+03  0.7818608E-02  0.1235048E+00
         -4   -1    0    0    0  501 -0.00000000000E+00  0.00000000000E+00  0.66930905195E+02  0.66942953104E+02  0.12700000000E+01 0.  1.
          4   -1    0    0  501    0  0.00000000000E+00 -0.00000000000E+00 -0.58350873603E+02  0.58364692668E+02  0.12700000000E+01 0.  1.
         25    2    1    2    0    0  0.00000000000E+00  0.00000000000E+00  0.85800315921E+01  0.12530764577E+03  0.12501355585E+03 0.  0.
    9000005    1    3    3    0    0 -0.42687977342E+02  0.66431788547E+01 -0.40979289389E+02  0.59554155134E+02  0.10000000000E+01 0.  0.
    9000005    1    3    3    0    0  0.42687977342E+02 -0.66431788547E+01  0.49559320981E+02  0.65753490637E+02  0.10000000000E+01 0.  0.
<mgrwt>
<rscale>  0 0.12501356E+03</rscale>
<asrwt>0</asrwt>
<pdfrwt beam="2">  1        4 0.89790473E-02 0.12501356E+03</pdfrwt>
<pdfrwt beam="1">  1       -4 0.10299052E-01 0.12501356E+03</pdfrwt>
<totfact> 0.10442985E+04</totfact>
</mgrwt>
</event>
<event>
 5    1  0.3212987E-002  0.1250017E+03  0.7818608E-02  0.1235067E+00
          4   -1    0    0  501    0  0.00000000000E+00  0.00000000000E+00  0.12922958277E+03  0.12923582307E+03  0.12700000000E+01 0. -1.
         -4   -1    0    0    0  501 -0.00000000000E+00 -0.00000000000E+00 -0.30207735336E+02  0.30234420354E+02  0.12700000000E+01 0. -1.
         25    2    1    2    0    0  0.00000000000E+00  0.00000000000E+00  0.99021847438E+02  0.15947024342E+03  0.12500172906E+03 0.  0.
    9000005    1    3    3    0    0 -0.32246761246E+02  0.28318586587E+02  0.10746345490E+03  0.11572030978E+03  0.10000000000E+01 0.  0.
    9000005    1    3    3    0    0  0.32246761246E+02 -0.28318586587E+02 -0.84416074593E+01  0.43749933641E+02  0.10000000000E+01 0.  0.
<mgrwt>
<rscale>  0 0.12500173E+03</rscale>
<asrwt>0</asrwt>
<pdfrwt beam="1">  1        4 0.19884007E-01 0.12500173E+03</pdfrwt>
<pdfrwt beam="2">  1       -4 0.46498765E-02 0.12500173E+03</pdfrwt>
<totfact> 0.97441227E+03</totfact>
</mgrwt>
</event>
<event>
 5    1  0.3212987E-002  0.1249941E+03  0.7818608E-02  0.1235079E+00
         -4   -1    0    0    0  501 -0.00000000000E+00  0.00000000000E+00  0.24873435952E+01  0.27928082929E+01  0.12700000000E+01 0. -1.
          4   -1    0    0  501    0  0.00000000000E+00 -0.00000000000E+00 -0.14791516891E+04  0.14791522343E+04  0.12700000000E+01 0. -1.
         25    2    1    2    0    0  0.00000000000E+00  0.00000000000E+00 -0.14766643455E+04  0.14819450426E+04  0.12499407991E+03 0.  0.
    9000005    1    3    3    0    0 -0.27945889700E+02 -0.35937524572E+02 -0.23081238108E+03  0.23526120310E+03  0.10000000000E+01 0.  0.
    9000005    1    3    3    0    0  0.27945889700E+02  0.35937524572E+02 -0.12458519645E+04  0.12466838395E+04  0.10000000000E+01 0.  0.
<mgrwt>
<rscale>  0 0.12499408E+03</rscale>
<asrwt>0</asrwt>
<pdfrwt beam="2">  1        4 0.22758467E+00 0.12499408E+03</pdfrwt>
<pdfrwt beam="1">  1       -4 0.40620865E-03 0.12499408E+03</pdfrwt>
<totfact> 0.18290233E+03</totfact>
</mgrwt>
</event>
