<event>
 4    1  0.2193160E-006  0.1300000E+05  0.7957747E-01  0.1322471E+00
    9000001   -1    0    0    0    0  0.00000000000E+00  0.00000000000E+00  0.64999999231E+04  0.65000000000E+04  0.10000000000E+01 0.  0.
    9000001   -1    0    0    0    0 -0.00000000000E+00 -0.00000000000E+00 -0.64999999231E+04  0.65000000000E+04  0.10000000000E+01 0.  0.
    9000001    1    1    2    0    0 -0.59951197122E+04 -0.17471872248E+04  0.18044044551E+04  0.65000000000E+04  0.10000000000E+01 0.  0.
    9000001    1    1    2    0    0  0.59951197122E+04  0.17471872248E+04 -0.18044044551E+04  0.65000000000E+04  0.10000000000E+01 0.  0.
</event>
<event>
 4    1  0.2193160E-006  0.1300000E+05  0.7957747E-01  0.1322471E+00
    9000001   -1    0    0    0    0  0.00000000000E+00  0.00000000000E+00  0.64999999231E+04  0.65000000000E+04  0.10000000000E+01 0.  0.
    9000001   -1    0    0    0    0 -0.00000000000E+00 -0.00000000000E+00 -0.64999999231E+04  0.65000000000E+04  0.10000000000E+01 0.  0.
    9000001    1    1    2    0    0  0.85071667031E+03  0.27497934506E+04 -0.58279427010E+04  0.65000000000E+04  0.10000000000E+01 0.  0.
    9000001    1    1    2    0    0 -0.85071667031E+03 -0.27497934506E+04  0.58279427010E+04  0.65000000000E+04  0.10000000000E+01 0.  0.
</event>
<event>
 4    1  0.2193160E-006  0.1300000E+05  0.7957747E-01  0.1322471E+00
    9000001   -1    0    0    0    0  0.00000000000E+00  0.00000000000E+00  0.64999999231E+04  0.65000000000E+04  0.10000000000E+01 0.  0.
    9000001   -1    0    0    0    0 -0.00000000000E+00 -0.00000000000E+00 -0.64999999231E+04  0.65000000000E+04  0.10000000000E+01 0.  0.
    9000001    1    1    2    0    0 -0.35504318070E+04  0.54438454292E+04 -0.94762473324E+02  0.65000000000E+04  0.10000000000E+01 0.  0.
    9000001    1    1    2    0    0  0.35504318070E+04 -0.54438454292E+04  0.94762473324E+02  0.65000000000E+04  0.10000000000E+01 0.  0.
</event>
<event>
 4    1  0.2193160E-006  0.1300000E+05  0.7957747E-01  0.1322471E+00
    9000001   -1    0    0    0    0  0.00000000000E+00  0.00000000000E+00  0.64999999231E+04  0.65000000000E+04  0.10000000000E+01 0.  0.
    9000001   -1    0    0    0    0 -0.00000000000E+00 -0.00000000000E+00 -0.64999999231E+04  0.65000000000E+04  0.10000000000E+01 0.  0.
    9000001    1    1    2    0    0  0.38834603994E+04 -0.51893962959E+04 -0.48877439609E+03  0.65000000000E+04  0.10000000000E+01 0.  0.
    9000001    1    1    2    0    0 -0.38834603994E+04  0.51893962959E+04  0.48877439609E+03  0.65000000000E+04  0.10000000000E+01 0.  0.
</event>
<event>
 4    1  0.2193160E-006  0.1300000E+05  0.7957747E-01  0.1322471E+00
    9000001   -1    0    0    0    0  0.00000000000E+00  0.00000000000E+00  0.64999999231E+04  0.65000000000E+04  0.10000000000E+01 0.  0.
    9000001   -1    0    0    0    0 -0.00000000000E+00 -0.00000000000E+00 -0.64999999231E+04  0.65000000000E+04  0.10000000000E+01 0.  0.
    9000001    1    1    2    0    0 -0.56147586693E+04  0.20153000077E+04 -0.25812884311E+04  0.65000000000E+04  0.10000000000E+01 0.  0.
    9000001    1    1    2    0    0  0.56147586693E+04 -0.20153000077E+04  0.25812884311E+04  0.65000000000E+04  0.10000000000E+01 0.  0.
</event>
<event>
 4    1  0.2193160E-006  0.1300000E+05  0.7957747E-01  0.1322471E+00
    9000001   -1    0    0    0    0  0.00000000000E+00  0.00000000000E+00  0.64999999231E+04  0.65000000000E+04  0.10000000000E+01 0.  0.
    9000001   -1    0    0    0    0 -0.00000000000E+00 -0.00000000000E+00 -0.64999999231E+04  0.65000000000E+04  0.10000000000E+01 0.  0.
    9000001    1    1    2    0    0  0.13363628932E+04 -0.87068498813E+03  0.63012729563E+04  0.65000000000E+04  0.10000000000E+01 0.  0.
    9000001    1    1    2    0    0 -0.13363628932E+04  0.87068498813E+03 -0.63012729563E+04  0.65000000000E+04  0.10000000000E+01 0.  0.
</event>
<event>
 4    1  0.2193160E-006  0.1300000E+05  0.7957747E-01  0.1322471E+00
    9000001   -1    0    0    0    0  0.00000000000E+00  0.00000000000E+00  0.64999999231E+04  0.65000000000E+04  0.10000000000E+01 0.  0.
    9000001   -1    0    0    0    0 -0.00000000000E+00 -0.00000000000E+00 -0.64999999231E+04  0.65000000000E+04  0.10000000000E+01 0.  0.
    9000001    1    1    2    0    0 -0.33150689507E+03  0.32302493951E+04 -0.56307717965E+04  0.65000000000E+04  0.10000000000E+01 0.  0.
    9000001    1    1    2    0    0  0.33150689507E+03 -0.32302493951E+04  0.56307717965E+04  0.65000000000E+04  0.10000000000E+01 0.  0.
</event>
<event>
 4    1  0.2193160E-006  0.1300000E+05  0.7957747E-01  0.1322471E+00
    9000001   -1    0    0    0    0  0.00000000000E+00  0.00000000000E+00  0.64999999231E+04  0.65000000000E+04  0.10000000000E+01 0.  0.
    9000001   -1    0    0    0    0 -0.00000000000E+00 -0.00000000000E+00 -0.64999999231E+04  0.65000000000E+04  0.10000000000E+01 0.  0.
    9000001    1    1    2    0    0  0.53832685499E+04 -0.36305110331E+04 -0.29968042634E+03  0.65000000000E+04  0.10000000000E+01 0.  0.
    9000001    1    1    2    0    0 -0.53832685499E+04  0.36305110331E+04  0.29968042634E+03  0.65000000000E+04  0.10000000000E+01 0.  0.
</event>
<event>
 4    1  0.2193160E-006  0.1300000E+05  0.7957747E-01  0.1322471E+00
    9000001   -1    0    0    0    0  0.00000000000E+00  0.00000000000E+00  0.64999999231E+04  0.65000000000E+04  0.10000000000E+01 0.  0.
    9000001   -1    0    0    0    0 -0.00000000000E+00 -0.00000000000E+00 -0.64999999231E+04  0.65000000000E+04  0.10000000000E+01 0.  0.
    9000001    1    1    2    0    0 -0.59219417728E+03  0.53764406362E+03 -0.64506002757E+04  0.65000000000E+04  0.10000000000E+01 0.  0.
    9000001    1    1    2    0    0  0.59219417728E+03 -0.53764406362E+03  0.64506002757E+04  0.65000000000E+04  0.10000000000E+01 0.  0.
</event>
<event>
 4    1  0.2193160E-006  0.1300000E+05  0.7957747E-01  0.1322471E+00
    9000001   -1    0    0    0    0  0.00000000000E+00  0.00000000000E+00  0.64999999231E+04  0.65000000000E+04  0.10000000000E+01 0.  0.
    9000001   -1    0    0    0    0 -0.00000000000E+00 -0.00000000000E+00 -0.64999999231E+04  0.65000000000E+04  0.10000000000E+01 0.  0.
    9000001    1    1    2    0    0  0.56592446754E+04  0.30004322918E+04 -0.11046966855E+04  0.65000000000E+04  0.10000000000E+01 0.  0.
    9000001    1    1    2    0    0 -0.56592446754E+04 -0.30004322918E+04  0.11046966855E+04  0.65000000000E+04  0.10000000000E+01 0.  0.
</event>
<event>
 4    1  0.2193160E-006  0.1300000E+05  0.7957747E-01  0.1322471E+00
    9000001   -1    0    0    0    0  0.00000000000E+00  0.00000000000E+00  0.64999999231E+04  0.65000000000E+04  0.10000000000E+01 0.  0.
    9000001   -1    0    0    0    0 -0.00000000000E+00 -0.00000000000E+00 -0.64999999231E+04  0.65000000000E+04  0.10000000000E+01 0.  0.
    9000001    1    1    2    0    0  0.51888566783E+03  0.63501931961E+04 -0.12867801039E+04  0.65000000000E+04  0.10000000000E+01 0.  0.
    9000001    1    1    2    0    0 -0.51888566783E+03 -0.63501931961E+04  0.12867801039E+04  0.65000000000E+04  0.10000000000E+01 0.  0.
</event>
<event>
 4    1  0.2193160E-006  0.1300000E+05  0.7957747E-01  0.1322471E+00
    9000001   -1    0    0    0    0  0.00000000000E+00  0.00000000000E+00  0.64999999231E+04  0.65000000000E+04  0.10000000000E+01 0.  0.
    9000001   -1    0    0    0    0 -0.00000000000E+00 -0.00000000000E+00 -0.64999999231E+04  0.65000000000E+04  0.10000000000E+01 0.  0.
    9000001    1    1    2    0    0 -0.26200547901E+04  0.31528113170E+04 -0.50443129063E+04  0.65000000000E+04  0.10000000000E+01 0.  0.
    9000001    1    1    2    0    0  0.26200547901E+04 -0.31528113170E+04  0.50443129063E+04  0.65000000000E+04  0.10000000000E+01 0.  0.
</event>
<event>
 4    1  0.2193160E-006  0.1300000E+05  0.7957747E-01  0.1322471E+00
    9000001   -1    0    0    0    0  0.00000000000E+00  0.00000000000E+00  0.64999999231E+04  0.65000000000E+04  0.10000000000E+01 0.  0.
    9000001   -1    0    0    0    0 -0.00000000000E+00 -0.00000000000E+00 -0.64999999231E+04  0.65000000000E+04  0.10000000000E+01 0.  0.
    9000001    1    1    2    0    0  0.11648574251E+04 -0.73493186297E+03  0.63523996518E+04  0.65000000000E+04  0.10000000000E+01 0.  0.
    9000001    1    1    2    0    0 -0.11648574251E+04  0.73493186297E+03 -0.63523996518E+04  0.65000000000E+04  0.10000000000E+01 0.  0.
</event>
<event>
 4    1  0.2193160E-006  0.1300000E+05  0.7957747E-01  0.1322471E+00
    9000001   -1    0    0    0    0  0.00000000000E+00  0.00000000000E+00  0.64999999231E+04  0.65000000000E+04  0.10000000000E+01 0.  0.
    9000001   -1    0    0    0    0 -0.00000000000E+00 -0.00000000000E+00 -0.64999999231E+04  0.65000000000E+04  0.10000000000E+01 0.  0.
    9000001    1    1    2    0    0  0.27518729246E+04  0.22263750852E+04  0.54516463923E+04  0.65000000000E+04  0.10000000000E+01 0.  0.
    9000001    1    1    2    0    0 -0.27518729246E+04 -0.22263750852E+04 -0.54516463923E+04  0.65000000000E+04  0.10000000000E+01 0.  0.
</event>
<event>
 4    1  0.2193160E-006  0.1300000E+05  0.7957747E-01  0.1322471E+00
    9000001   -1    0    0    0    0  0.00000000000E+00  0.00000000000E+00  0.64999999231E+04  0.65000000000E+04  0.10000000000E+01 0.  0.
    9000001   -1    0    0    0    0 -0.00000000000E+00 -0.00000000000E+00 -0.64999999231E+04  0.65000000000E+04  0.10000000000E+01 0.  0.
    9000001    1    1    2    0    0  0.21481876578E+03 -0.30780777383E+04 -0.57209517857E+04  0.65000000000E+04  0.10000000000E+01 0.  0.
    9000001    1    1    2    0    0 -0.21481876578E+03  0.30780777383E+04  0.57209517857E+04  0.65000000000E+04  0.10000000000E+01 0.  0.
</event>
<event>
 4    1  0.2193160E-006  0.1300000E+05  0.7957747E-01  0.1322471E+00
    9000001   -1    0    0    0    0  0.00000000000E+00  0.00000000000E+00  0.64999999231E+04  0.65000000000E+04  0.10000000000E+01 0.  0.
    9000001   -1    0    0    0    0 -0.00000000000E+00 -0.00000000000E+00 -0.64999999231E+04  0.65000000000E+04  0.10000000000E+01 0.  0.
    9000001    1    1    2    0    0  0.62405642846E+04 -0.67061805400E+03  0.16898603005E+04  0.65000000000E+04  0.10000000000E+01 0.  0.
    9000001    1    1    2    0    0 -0.62405642846E+04  0.67061805400E+03 -0.16898603005E+04  0.65000000000E+04  0.10000000000E+01 0.  0.
</event>
<event>
 4    1  0.2193160E-006  0.1300000E+05  0.7957747E-01  0.1322471E+00
    9000001   -1    0    0    0    0  0.00000000000E+00  0.00000000000E+00  0.64999999231E+04  0.65000000000E+04  0.10000000000E+01 0.  0.
    9000001   -1    0    0    0    0 -0.00000000000E+00 -0.00000000000E+00 -0.64999999231E+04  0.65000000000E+04  0.10000000000E+01 0.  0.
    9000001    1    1    2    0    0 -0.77134298190E+03  0.56701009785E+04 -0.30830153906E+04  0.65000000000E+04  0.10000000000E+01 0.  0.
    9000001    1    1    2    0    0  0.77134298190E+03 -0.56701009785E+04  0.30830153906E+04  0.65000000000E+04  0.10000000000E+01 0.  0.
</event>
<event>
 4    1  0.2193160E-006  0.1300000E+05  0.7957747E-01  0.1322471E+00
    9000001   -1    0    0    0    0  0.00000000000E+00  0.00000000000E+00  0.64999999231E+04  0.65000000000E+04  0.10000000000E+01 0.  0.
    9000001   -1    0    0    0    0 -0.00000000000E+00 -0.00000000000E+00 -0.64999999231E+04  0.65000000000E+04  0.10000000000E+01 0.  0.
    9000001    1    1    2    0    0  0.41596705987E+04  0.41335783593E+04 -0.28036885450E+04  0.65000000000E+04  0.10000000000E+01 0.  0.
    9000001    1    1    2    0    0 -0.41596705987E+04 -0.41335783593E+04  0.28036885450E+04  0.65000000000E+04  0.10000000000E+01 0.  0.
</event>
<event>
 4    1  0.2193160E-006  0.1300000E+05  0.7957747E-01  0.1322471E+00
    9000001   -1    0    0    0    0  0.00000000000E+00  0.00000000000E+00  0.64999999231E+04  0.65000000000E+04  0.10000000000E+01 0.  0.
    9000001   -1    0    0    0    0 -0.00000000000E+00 -0.00000000000E+00 -0.64999999231E+04  0.65000000000E+04  0.10000000000E+01 0.  0.
    9000001    1    1    2    0    0  0.44297418763E+04 -0.94334788719E+03  0.46623471206E+04  0.65000000000E+04  0.10000000000E+01 0.  0.
    9000001    1    1    2    0    0 -0.44297418763E+04  0.94334788719E+03 -0.46623471206E+04  0.65000000000E+04  0.10000000000E+01 0.  0.
</event>
<event>
 4    1  0.2193160E-006  0.1300000E+05  0.7957747E-01  0.1322471E+00
    9000001   -1    0    0    0    0  0.00000000000E+00  0.00000000000E+00  0.64999999231E+04  0.65000000000E+04  0.10000000000E+01 0.  0.
    9000001   -1    0    0    0    0 -0.00000000000E+00 -0.00000000000E+00 -0.64999999231E+04  0.65000000000E+04  0.10000000000E+01 0.  0.
    9000001    1    1    2    0    0  0.51933965062E+04 -0.32484489168E+04 -0.21739851343E+04  0.65000000000E+04  0.10000000000E+01 0.  0.
    9000001    1    1    2    0    0 -0.51933965062E+04  0.32484489168E+04  0.21739851343E+04  0.65000000000E+04  0.10000000000E+01 0.  0.
</event>
<event>
 4    1  0.2193160E-006  0.1300000E+05  0.7957747E-01  0.1322471E+00
    9000001   -1    0    0    0    0  0.00000000000E+00  0.00000000000E+00  0.64999999231E+04  0.65000000000E+04  0.10000000000E+01 0.  0.
    9000001   -1    0    0    0    0 -0.00000000000E+00 -0.00000000000E+00 -0.64999999231E+04  0.65000000000E+04  0.10000000000E+01 0.  0.
    9000001    1    1    2    0    0  0.58381071502E+04 -0.24670438367E+04 -0.14422893645E+04  0.65000000000E+04  0.10000000000E+01 0.  0.
    9000001    1    1    2    0    0 -0.58381071502E+04  0.24670438367E+04  0.14422893645E+04  0.65000000000E+04  0.10000000000E+01 0.  0.
</event>
<event>
 4    1  0.2193160E-006  0.1300000E+05  0.7957747E-01  0.1322471E+00
    9000001   -1    0    0    0    0  0.00000000000E+00  0.00000000000E+00  0.64999999231E+04  0.65000000000E+04  0.10000000000E+01 0.  0.
    9000001   -1    0    0    0    0 -0.00000000000E+00 -0.00000000000E+00 -0.64999999231E+04  0.65000000000E+04  0.10000000000E+01 0.  0.
    9000001    1    1    2    0    0 -0.26153949966E+04 -0.16274734221E+04  0.57237259082E+04  0.65000000000E+04  0.10000000000E+01 0.  0.
    9000001    1    1    2    0    0  0.26153949966E+04  0.16274734221E+04 -0.57237259082E+04  0.65000000000E+04  0.10000000000E+01 0.  0.
</event>
<event>
 4    1  0.2193160E-006  0.1300000E+05  0.7957747E-01  0.1322471E+00
    9000001   -1    0    0    0    0  0.00000000000E+00  0.00000000000E+00  0.64999999231E+04  0.65000000000E+04  0.10000000000E+01 0.  0.
    9000001   -1    0    0    0    0 -0.00000000000E+00 -0.00000000000E+00 -0.64999999231E+04  0.65000000000E+04  0.10000000000E+01 0.  0.
    9000001    1    1    2    0    0 -0.26698638009E+04 -0.47894780681E+04  0.34903762146E+04  0.65000000000E+04  0.10000000000E+01 0.  0.
    9000001    1    1    2    0    0  0.26698638009E+04  0.47894780681E+04 -0.34903762146E+04  0.65000000000E+04  0.10000000000E+01 0.  0.
</event>
<event>
 4    1  0.2193160E-006  0.1300000E+05  0.7957747E-01  0.1322471E+00
    9000001   -1    0    0    0    0  0.00000000000E+00  0.00000000000E+00  0.64999999231E+04  0.65000000000E+04  0.10000000000E+01 0.  0.
    9000001   -1    0    0    0    0 -0.00000000000E+00 -0.00000000000E+00 -0.64999999231E+04  0.65000000000E+04  0.10000000000E+01 0.  0.
    9000001    1    1    2    0    0  0.61049610540E+04 -0.10236532155E+04  0.19828221361E+04  0.65000000000E+04  0.10000000000E+01 0.  0.
    9000001    1    1    2    0    0 -0.61049610540E+04  0.10236532155E+04 -0.19828221361E+04  0.65000000000E+04  0.10000000000E+01 0.  0.
</event>
<event>
 4    1  0.2193160E-006  0.1300000E+05  0.7957747E-01  0.1322471E+00
    9000001   -1    0    0    0    0  0.00000000000E+00  0.00000000000E+00  0.64999999231E+04  0.65000000000E+04  0.10000000000E+01 0.  0.
    9000001   -1    0    0    0    0 -0.00000000000E+00 -0.00000000000E+00 -0.64999999231E+04  0.65000000000E+04  0.10000000000E+01 0.  0.
    9000001    1    1    2    0    0  0.63260455296E+04 -0.56079783457E+03 -0.13844322829E+04  0.65000000000E+04  0.10000000000E+01 0.  0.
    9000001    1    1    2    0    0 -0.63260455296E+04  0.56079783457E+03  0.13844322829E+04  0.65000000000E+04  0.10000000000E+01 0.  0.
</event>
<event>
 4    1  0.2193160E-006  0.1300000E+05  0.7957747E-01  0.1322471E+00
    9000001   -1    0    0    0    0  0.00000000000E+00  0.00000000000E+00  0.64999999231E+04  0.65000000000E+04  0.10000000000E+01 0.  0.
    9000001   -1    0    0    0    0 -0.00000000000E+00 -0.00000000000E+00 -0.64999999231E+04  0.65000000000E+04  0.10000000000E+01 0.  0.
    9000001    1    1    2    0    0  0.18821319451E+04  0.55116263477E+04  0.28860965585E+04  0.65000000000E+04  0.10000000000E+01 0.  0.
    9000001    1    1    2    0    0 -0.18821319451E+04 -0.55116263477E+04 -0.28860965585E+04  0.65000000000E+04  0.10000000000E+01 0.  0.
</event>
<event>
 4    1  0.2193160E-006  0.1300000E+05  0.7957747E-01  0.1322471E+00
    9000001   -1    0    0    0    0  0.00000000000E+00  0.00000000000E+00  0.64999999231E+04  0.65000000000E+04  0.10000000000E+01 0.  0.
    9000001   -1    0    0    0    0 -0.00000000000E+00 -0.00000000000E+00 -0.64999999231E+04  0.65000000000E+04  0.10000000000E+01 0.  0.
    9000001    1    1    2    0    0 -0.15872368470E+04  0.10384428336E+04  0.62170985735E+04  0.65000000000E+04  0.10000000000E+01 0.  0.
    9000001    1    1    2    0    0  0.15872368470E+04 -0.10384428336E+04 -0.62170985735E+04  0.65000000000E+04  0.10000000000E+01 0.  0.
</event>
<event>
 4    1  0.2193160E-006  0.1300000E+05  0.7957747E-01  0.1322471E+00
    9000001   -1    0    0    0    0  0.00000000000E+00  0.00000000000E+00  0.64999999231E+04  0.65000000000E+04  0.10000000000E+01 0.  0.
    9000001   -1    0    0    0    0 -0.00000000000E+00 -0.00000000000E+00 -0.64999999231E+04  0.65000000000E+04  0.10000000000E+01 0.  0.
    9000001    1    1    2    0    0 -0.40109651623E+04  0.50631689504E+04 -0.72558779371E+03  0.65000000000E+04  0.10000000000E+01 0.  0.
    9000001    1    1    2    0    0  0.40109651623E+04 -0.50631689504E+04  0.72558779371E+03  0.65000000000E+04  0.10000000000E+01 0.  0.
</event>
<event>
 4    1  0.2193160E-006  0.1300000E+05  0.7957747E-01  0.1322471E+00
    9000001   -1    0    0    0    0  0.00000000000E+00  0.00000000000E+00  0.64999999231E+04  0.65000000000E+04  0.10000000000E+01 0.  0.
    9000001   -1    0    0    0    0 -0.00000000000E+00 -0.00000000000E+00 -0.64999999231E+04  0.65000000000E+04  0.10000000000E+01 0.  0.
    9000001    1    1    2    0    0  0.23492680955E+04 -0.80019813410E+03  0.60075470336E+04  0.65000000000E+04  0.10000000000E+01 0.  0.
    9000001    1    1    2    0    0 -0.23492680955E+04  0.80019813410E+03 -0.60075470336E+04  0.65000000000E+04  0.10000000000E+01 0.  0.
</event>
<event>
 4    1  0.2193160E-006  0.1300000E+05  0.7957747E-01  0.1322471E+00
    9000001   -1    0    0    0    0  0.00000000000E+00  0.00000000000E+00  0.64999999231E+04  0.65000000000E+04  0.10000000000E+01 0.  0.
    9000001   -1    0    0    0    0 -0.00000000000E+00 -0.00000000000E+00 -0.64999999231E+04  0.65000000000E+04  0.10000000000E+01 0.  0.
    9000001    1    1    2    0    0  0.55323261914E+04  0.33339693692E+04  0.72664582642E+03  0.65000000000E+04  0.10000000000E+01 0.  0.
    9000001    1    1    2    0    0 -0.55323261914E+04 -0.33339693692E+04 -0.72664582642E+03  0.65000000000E+04  0.10000000000E+01 0.  0.
</event>
<event>
 4    1  0.2193160E-006  0.1300000E+05  0.7957747E-01  0.1322471E+00
    9000001   -1    0    0    0    0  0.00000000000E+00  0.00000000000E+00  0.64999999231E+04  0.65000000000E+04  0.10000000000E+01 0.  0.
    9000001   -1    0    0    0    0 -0.00000000000E+00 -0.00000000000E+00 -0.64999999231E+04  0.65000000000E+04  0.10000000000E+01 0.  0.
    9000001    1    1    2    0    0  0.29314397059E+03 -0.50908162507E+04 -0.40308380659E+04  0.65000000000E+04  0.10000000000E+01 0.  0.
    9000001    1    1    2    0    0 -0.29314397059E+03  0.50908162507E+04  0.40308380659E+04  0.65000000000E+04  0.10000000000E+01 0.  0.
</event>
<event>
 4    1  0.2193160E-006  0.1300000E+05  0.7957747E-01  0.1322471E+00
    9000001   -1    0    0    0    0  0.00000000000E+00  0.00000000000E+00  0.64999999231E+04  0.65000000000E+04  0.10000000000E+01 0.  0.
    9000001   -1    0    0    0    0 -0.00000000000E+00 -0.00000000000E+00 -0.64999999231E+04  0.65000000000E+04  0.10000000000E+01 0.  0.
    9000001    1    1    2    0    0  0.32509843264E+03  0.28161884153E+03  0.64857536830E+04  0.65000000000E+04  0.10000000000E+01 0.  0.
    9000001    1    1    2    0    0 -0.32509843264E+03 -0.28161884153E+03 -0.64857536830E+04  0.65000000000E+04  0.10000000000E+01 0.  0.
</event>
<event>
 4    1  0.2193160E-006  0.1300000E+05  0.7957747E-01  0.1322471E+00
    9000001   -1    0    0    0    0  0.00000000000E+00  0.00000000000E+00  0.64999999231E+04  0.65000000000E+04  0.10000000000E+01 0.  0.
    9000001   -1    0    0    0    0 -0.00000000000E+00 -0.00000000000E+00 -0.64999999231E+04  0.65000000000E+04  0.10000000000E+01 0.  0.
    9000001    1    1    2    0    0 -0.54533717453E+04  0.12463171687E+04  0.33102007677E+04  0.65000000000E+04  0.10000000000E+01 0.  0.
    9000001    1    1    2    0    0  0.54533717453E+04 -0.12463171687E+04 -0.33102007677E+04  0.65000000000E+04  0.10000000000E+01 0.  0.
</event>
<event>
 4    1  0.2193160E-006  0.1300000E+05  0.7957747E-01  0.1322471E+00
    9000001   -1    0    0    0    0  0.00000000000E+00  0.00000000000E+00  0.64999999231E+04  0.65000000000E+04  0.10000000000E+01 0.  0.
    9000001   -1    0    0    0    0 -0.00000000000E+00 -0.00000000000E+00 -0.64999999231E+04  0.65000000000E+04  0.10000000000E+01 0.  0.
    9000001    1    1    2    0    0 -0.50108366366E+04 -0.40924748251E+04 -0.62702871304E+03  0.65000000000E+04  0.10000000000E+01 0.  0.
    9000001    1    1    2    0    0  0.50108366366E+04  0.40924748251E+04  0.62702871304E+03  0.65000000000E+04  0.10000000000E+01 0.  0.
</event>
<event>
 4    1  0.2193160E-006  0.1300000E+05  0.7957747E-01  0.1322471E+00
    9000001   -1    0    0    0    0  0.00000000000E+00  0.00000000000E+00  0.64999999231E+04  0.65000000000E+04  0.10000000000E+01 0.  0.
    9000001   -1    0    0    0    0 -0.00000000000E+00 -0.00000000000E+00 -0.64999999231E+04  0.65000000000E+04  0.10000000000E+01 0.  0.
    9000001    1    1    2    0    0 -0.36479862134E+04  0.32399352231E+04 -0.42947660398E+04  0.65000000000E+04  0.10000000000E+01 0.  0.
    9000001    1    1    2    0    0  0.36479862134E+04 -0.32399352231E+04  0.42947660398E+04  0.65000000000E+04  0.10000000000E+01 0.  0.
</event>
<event>
 4    1  0.2193160E-006  0.1300000E+05  0.7957747E-01  0.1322471E+00
    9000001   -1    0    0    0    0  0.00000000000E+00  0.00000000000E+00  0.64999999231E+04  0.65000000000E+04  0.10000000000E+01 0.  0.
    9000001   -1    0    0    0    0 -0.00000000000E+00 -0.00000000000E+00 -0.64999999231E+04  0.65000000000E+04  0.10000000000E+01 0.  0.
    9000001    1    1    2    0    0  0.46607798275E+04 -0.43252610690E+04  0.13487946784E+04  0.65000000000E+04  0.10000000000E+01 0.  0.
    9000001    1    1    2    0    0 -0.46607798275E+04  0.43252610690E+04 -0.13487946784E+04  0.65000000000E+04  0.10000000000E+01 0.  0.
</event>
<event>
 4    1  0.2193160E-006  0.1300000E+05  0.7957747E-01  0.1322471E+00
    9000001   -1    0    0    0    0  0.00000000000E+00  0.00000000000E+00  0.64999999231E+04  0.65000000000E+04  0.10000000000E+01 0.  0.
    9000001   -1    0    0    0    0 -0.00000000000E+00 -0.00000000000E+00 -0.64999999231E+04  0.65000000000E+04  0.10000000000E+01 0.  0.
    9000001    1    1    2    0    0 -0.31207511941E+04  0.56946005021E+04  0.28711688507E+03  0.65000000000E+04  0.10000000000E+01 0.  0.
    9000001    1    1    2    0    0  0.31207511941E+04 -0.56946005021E+04 -0.28711688507E+03  0.65000000000E+04  0.10000000000E+01 0.  0.
</event>
<event>
 4    1  0.2193160E-006  0.1300000E+05  0.7957747E-01  0.1322471E+00
    9000001   -1    0    0    0    0  0.00000000000E+00  0.00000000000E+00  0.64999999231E+04  0.65000000000E+04  0.10000000000E+01 0.  0.
    9000001   -1    0    0    0    0 -0.00000000000E+00 -0.00000000000E+00 -0.64999999231E+04  0.65000000000E+04  0.10000000000E+01 0.  0.
    9000001    1    1    2    0    0 -0.11910281878E+04 -0.58504951651E+04  0.25696609073E+04  0.65000000000E+04  0.10000000000E+01 0.  0.
    9000001    1    1    2    0    0  0.11910281878E+04  0.58504951651E+04 -0.25696609073E+04  0.65000000000E+04  0.10000000000E+01 0.  0.
</event>
<event>
 4    1  0.2193160E-006  0.1300000E+05  0.7957747E-01  0.1322471E+00
    9000001   -1    0    0    0    0  0.00000000000E+00  0.00000000000E+00  0.64999999231E+04  0.65000000000E+04  0.10000000000E+01 0.  0.
    9000001   -1    0    0    0    0 -0.00000000000E+00 -0.00000000000E+00 -0.64999999231E+04  0.65000000000E+04  0.10000000000E+01 0.  0.
    9000001    1    1    2    0    0  0.26052541505E+04 -0.13160335886E+04 -0.58078141676E+04  0.65000000000E+04  0.10000000000E+01 0.  0.
    9000001    1    1    2    0    0 -0.26052541505E+04  0.13160335886E+04  0.58078141676E+04  0.65000000000E+04  0.10000000000E+01 0.  0.
</event>
<event>
 4    1  0.2193160E-006  0.1300000E+05  0.7957747E-01  0.1322471E+00
    9000001   -1    0    0    0    0  0.00000000000E+00  0.00000000000E+00  0.64999999231E+04  0.65000000000E+04  0.10000000000E+01 0.  0.
    9000001   -1    0    0    0    0 -0.00000000000E+00 -0.00000000000E+00 -0.64999999231E+04  0.65000000000E+04  0.10000000000E+01 0.  0.
    9000001    1    1    2    0    0  0.10598309433E+04 -0.85646402759E+03 -0.63555665948E+04  0.65000000000E+04  0.10000000000E+01 0.  0.
    9000001    1    1    2    0    0 -0.10598309433E+04  0.85646402759E+03  0.63555665948E+04  0.65000000000E+04  0.10000000000E+01 0.  0.
</event>
<event>
 4    1  0.2193160E-006  0.1300000E+05  0.7957747E-01  0.1322471E+00
    9000001   -1    0    0    0    0  0.00000000000E+00  0.00000000000E+00  0.64999999231E+04  0.65000000000E+04  0.10000000000E+01 0.  0.
    9000001   -1    0    0    0    0 -0.00000000000E+00 -0.00000000000E+00 -0.64999999231E+04  0.65000000000E+04  0.10000000000E+01 0.  0.
    9000001    1    1    2    0    0  0.49337673624E+03 -0.58578586609E+04  0.27734581853E+04  0.65000000000E+04  0.10000000000E+01 0.  0.
    9000001    1    1    2    0    0 -0.49337673624E+03  0.58578586609E+04 -0.27734581853E+04  0.65000000000E+04  0.10000000000E+01 0.  0.
</event>
<event>
 4    1  0.2193160E-006  0.1300000E+05  0.7957747E-01  0.1322471E+00
    9000001   -1    0    0    0    0  0.00000000000E+00  0.00000000000E+00  0.64999999231E+04  0.65000000000E+04  0.10000000000E+01 0.  0.
    9000001   -1    0    0    0    0 -0.00000000000E+00 -0.00000000000E+00 -0.64999999231E+04  0.65000000000E+04  0.10000000000E+01 0.  0.
    9000001    1    1    2    0    0  0.16362604587E+04  0.61914581200E+04 -0.11128778279E+04  0.65000000000E+04  0.10000000000E+01 0.  0.
    9000001    1    1    2    0    0 -0.16362604587E+04 -0.61914581200E+04  0.11128778279E+04  0.65000000000E+04  0.10000000000E+01 0.  0.
</event>
<event>
 4    1  0.2193160E-006  0.1300000E+05  0.7957747E-01  0.1322471E+00
    9000001   -1    0    0    0    0  0.00000000000E+00  0.00000000000E+00  0.64999999231E+04  0.65000000000E+04  0.10000000000E+01 0.  0.
    9000001   -1    0    0    0    0 -0.00000000000E+00 -0.00000000000E+00 -0.64999999231E+04  0.65000000000E+04  0.10000000000E+01 0.  0.
    9000001    1    1    2    0    0  0.30762676096E+04 -0.56860192287E+04  0.67510141836E+03  0.65000000000E+04  0.10000000000E+01 0.  0.
    9000001    1    1    2    0    0 -0.30762676096E+04  0.56860192287E+04 -0.67510141836E+03  0.65000000000E+04  0.10000000000E+01 0.  0.
</event>
<event>
 4    1  0.2193160E-006  0.1300000E+05  0.7957747E-01  0.1322471E+00
    9000001   -1    0    0    0    0  0.00000000000E+00  0.00000000000E+00  0.64999999231E+04  0.65000000000E+04  0.10000000000E+01 0.  0.
    9000001   -1    0    0    0    0 -0.00000000000E+00 -0.00000000000E+00 -0.64999999231E+04  0.65000000000E+04  0.10000000000E+01 0.  0.
    9000001    1    1    2    0    0 -0.39817955864E+04 -0.44606236567E+04  0.25491448569E+04  0.65000000000E+04  0.10000000000E+01 0.  0.
    9000001    1    1    2    0    0  0.39817955864E+04  0.44606236567E+04 -0.25491448569E+04  0.65000000000E+04  0.10000000000E+01 0.  0.
</event>
<event>
 4    1  0.2193160E-006  0.1300000E+05  0.7957747E-01  0.1322471E+00
    9000001   -1    0    0    0    0  0.00000000000E+00  0.00000000000E+00  0.64999999231E+04  0.65000000000E+04  0.10000000000E+01 0.  0.
    9000001   -1    0    0    0    0 -0.00000000000E+00 -0.00000000000E+00 -0.64999999231E+04  0.65000000000E+04  0.10000000000E+01 0.  0.
    9000001    1    1    2    0    0 -0.11345545148E+04  0.27238380390E+04  0.57916743166E+04  0.65000000000E+04  0.10000000000E+01 0.  0.
    9000001    1    1    2    0    0  0.11345545148E+04 -0.27238380390E+04 -0.57916743166E+04  0.65000000000E+04  0.10000000000E+01 0.  0.
</event>
<event>
 4    1  0.2193160E-006  0.1300000E+05  0.7957747E-01  0.1322471E+00
    9000001   -1    0    0    0    0  0.00000000000E+00  0.00000000000E+00  0.64999999231E+04  0.65000000000E+04  0.10000000000E+01 0.  0.
    9000001   -1    0    0    0    0 -0.00000000000E+00 -0.00000000000E+00 -0.64999999231E+04  0.65000000000E+04  0.10000000000E+01 0.  0.
    9000001    1    1    2    0    0  0.34163651937E+04 -0.55295845721E+04 -0.46285236297E+02  0.65000000000E+04  0.10000000000E+01 0.  0.
    9000001    1    1    2    0    0 -0.34163651937E+04  0.55295845721E+04  0.46285236297E+02  0.65000000000E+04  0.10000000000E+01 0.  0.
</event>
<event>
 4    1  0.2193160E-006  0.1300000E+05  0.7957747E-01  0.1322471E+00
    9000001   -1    0    0    0    0  0.00000000000E+00  0.00000000000E+00  0.64999999231E+04  0.65000000000E+04  0.10000000000E+01 0.  0.
    9000001   -1    0    0    0    0 -0.00000000000E+00 -0.00000000000E+00 -0.64999999231E+04  0.65000000000E+04  0.10000000000E+01 0.  0.
    9000001    1    1    2    0    0 -0.14882494128E+04 -0.61374411195E+04 -0.15384827557E+04  0.65000000000E+04  0.10000000000E+01 0.  0.
    9000001    1    1    2    0    0  0.14882494128E+04  0.61374411195E+04  0.15384827557E+04  0.65000000000E+04  0.10000000000E+01 0.  0.
</event>
<event>
 4    1  0.2193160E-006  0.1300000E+05  0.7957747E-01  0.1322471E+00
    9000001   -1    0    0    0    0  0.00000000000E+00  0.00000000000E+00  0.64999999231E+04  0.65000000000E+04  0.10000000000E+01 0.  0.
    9000001   -1    0    0    0    0 -0.00000000000E+00 -0.00000000000E+00 -0.64999999231E+04  0.65000000000E+04  0.10000000000E+01 0.  0.
    9000001    1    1    2    0    0 -0.39545967566E+03  0.26026840202E+04 -0.59430334457E+04  0.65000000000E+04  0.10000000000E+01 0.  0.
    9000001    1    1    2    0    0  0.39545967566E+03 -0.26026840202E+04  0.59430334457E+04  0.65000000000E+04  0.10000000000E+01 0.  0.
</event>
<event>
 4    1  0.2193160E-006  0.1300000E+05  0.7957747E-01  0.1322471E+00
    9000001   -1    0    0    0    0  0.00000000000E+00  0.00000000000E+00  0.64999999231E+04  0.65000000000E+04  0.10000000000E+01 0.  0.
    9000001   -1    0    0    0    0 -0.00000000000E+00 -0.00000000000E+00 -0.64999999231E+04  0.65000000000E+04  0.10000000000E+01 0.  0.
    9000001    1    1    2    0    0 -0.42331510683E+04  0.25069884043E+04 -0.42479924874E+04  0.65000000000E+04  0.10000000000E+01 0.  0.
    9000001    1    1    2    0    0  0.42331510683E+04 -0.25069884043E+04  0.42479924874E+04  0.65000000000E+04  0.10000000000E+01 0.  0.
</event>
<event>
 4    1  0.2193160E-006  0.1300000E+05  0.7957747E-01  0.1322471E+00
    9000001   -1    0    0    0    0  0.00000000000E+00  0.00000000000E+00  0.64999999231E+04  0.65000000000E+04  0.10000000000E+01 0.  0.
    9000001   -1    0    0    0    0 -0.00000000000E+00 -0.00000000000E+00 -0.64999999231E+04  0.65000000000E+04  0.10000000000E+01 0.  0.
    9000001    1    1    2    0    0 -0.36431723434E+04  0.52926687884E+04  0.98231938428E+03  0.65000000000E+04  0.10000000000E+01 0.  0.
    9000001    1    1    2    0    0  0.36431723434E+04 -0.52926687884E+04 -0.98231938428E+03  0.65000000000E+04  0.10000000000E+01 0.  0.
</event>
<event>
 4    1  0.2193160E-006  0.1300000E+05  0.7957747E-01  0.1322471E+00
    9000001   -1    0    0    0    0  0.00000000000E+00  0.00000000000E+00  0.64999999231E+04  0.65000000000E+04  0.10000000000E+01 0.  0.
    9000001   -1    0    0    0    0 -0.00000000000E+00 -0.00000000000E+00 -0.64999999231E+04  0.65000000000E+04  0.10000000000E+01 0.  0.
    9000001    1    1    2    0    0 -0.63556228005E+04 -0.10827651968E+04 -0.82684783757E+03  0.65000000000E+04  0.10000000000E+01 0.  0.
    9000001    1    1    2    0    0  0.63556228005E+04  0.10827651968E+04  0.82684783757E+03  0.65000000000E+04  0.10000000000E+01 0.  0.
</event>
<event>
 4    1  0.2193160E-006  0.1300000E+05  0.7957747E-01  0.1322471E+00
    9000001   -1    0    0    0    0  0.00000000000E+00  0.00000000000E+00  0.64999999231E+04  0.65000000000E+04  0.10000000000E+01 0.  0.
    9000001   -1    0    0    0    0 -0.00000000000E+00 -0.00000000000E+00 -0.64999999231E+04  0.65000000000E+04  0.10000000000E+01 0.  0.
    9000001    1    1    2    0    0 -0.38214077601E+04  0.50612430751E+04  0.14250123738E+04  0.65000000000E+04  0.10000000000E+01 0.  0.
    9000001    1    1    2    0    0  0.38214077601E+04 -0.50612430751E+04 -0.14250123738E+04  0.65000000000E+04  0.10000000000E+01 0.  0.
</event>
<event>
 4    1  0.2193160E-006  0.1300000E+05  0.7957747E-01  0.1322471E+00
    9000001   -1    0    0    0    0  0.00000000000E+00  0.00000000000E+00  0.64999999231E+04  0.65000000000E+04  0.10000000000E+01 0.  0.
    9000001   -1    0    0    0    0 -0.00000000000E+00 -0.00000000000E+00 -0.64999999231E+04  0.65000000000E+04  0.10000000000E+01 0.  0.
    9000001    1    1    2    0    0 -0.69122504539E+03 -0.12834205125E+04  0.63344327863E+04  0.65000000000E+04  0.10000000000E+01 0.  0.
    9000001    1    1    2    0    0  0.69122504539E+03  0.12834205125E+04 -0.63344327863E+04  0.65000000000E+04  0.10000000000E+01 0.  0.
</event>
<event>
 4    1  0.2193160E-006  0.1300000E+05  0.7957747E-01  0.1322471E+00
    9000001   -1    0    0    0    0  0.00000000000E+00  0.00000000000E+00  0.64999999231E+04  0.65000000000E+04  0.10000000000E+01 0.  0.
    9000001   -1    0    0    0    0 -0.00000000000E+00 -0.00000000000E+00 -0.64999999231E+04  0.65000000000E+04  0.10000000000E+01 0.  0.
    9000001    1    1    2    0    0 -0.15994195665E+04 -0.99417034739E+03  0.62212122107E+04  0.65000000000E+04  0.10000000000E+01 0.  0.
    9000001    1    1    2    0    0  0.15994195665E+04  0.99417034739E+03 -0.62212122107E+04  0.65000000000E+04  0.10000000000E+01 0.  0.
</event>
<event>
 4    1  0.2193160E-006  0.1300000E+05  0.7957747E-01  0.1322471E+00
    9000001   -1    0    0    0    0  0.00000000000E+00  0.00000000000E+00  0.64999999231E+04  0.65000000000E+04  0.10000000000E+01 0.  0.
    9000001   -1    0    0    0    0 -0.00000000000E+00 -0.00000000000E+00 -0.64999999231E+04  0.65000000000E+04  0.10000000000E+01 0.  0.
    9000001    1    1    2    0    0 -0.51511416998E+04  0.32362978419E+04 -0.22895664365E+04  0.65000000000E+04  0.10000000000E+01 0.  0.
    9000001    1    1    2    0    0  0.51511416998E+04 -0.32362978419E+04  0.22895664365E+04  0.65000000000E+04  0.10000000000E+01 0.  0.
</event>
<event>
 4    1  0.2193160E-006  0.1300000E+05  0.7957747E-01  0.1322471E+00
    9000001   -1    0    0    0    0  0.00000000000E+00  0.00000000000E+00  0.64999999231E+04  0.65000000000E+04  0.10000000000E+01 0.  0.
    9000001   -1    0    0    0    0 -0.00000000000E+00 -0.00000000000E+00 -0.64999999231E+04  0.65000000000E+04  0.10000000000E+01 0.  0.
    9000001    1    1    2    0    0 -0.38756342314E+04 -0.18891623349E+04 -0.48642084636E+04  0.65000000000E+04  0.10000000000E+01 0.  0.
    9000001    1    1    2    0    0  0.38756342314E+04  0.18891623349E+04  0.48642084636E+04  0.65000000000E+04  0.10000000000E+01 0.  0.
</event>
<event>
 4    1  0.2193160E-006  0.1300000E+05  0.7957747E-01  0.1322471E+00
    9000001   -1    0    0    0    0  0.00000000000E+00  0.00000000000E+00  0.64999999231E+04  0.65000000000E+04  0.10000000000E+01 0.  0.
    9000001   -1    0    0    0    0 -0.00000000000E+00 -0.00000000000E+00 -0.64999999231E+04  0.65000000000E+04  0.10000000000E+01 0.  0.
    9000001    1    1    2    0    0 -0.40607967748E+04 -0.50754169040E+04 -0.84737376474E+01  0.65000000000E+04  0.10000000000E+01 0.  0.
    9000001    1    1    2    0    0  0.40607967748E+04  0.50754169040E+04  0.84737376474E+01  0.65000000000E+04  0.10000000000E+01 0.  0.
</event>
<event>
 4    1  0.2193160E-006  0.1300000E+05  0.7957747E-01  0.1322471E+00
    9000001   -1    0    0    0    0  0.00000000000E+00  0.00000000000E+00  0.64999999231E+04  0.65000000000E+04  0.10000000000E+01 0.  0.
    9000001   -1    0    0    0    0 -0.00000000000E+00 -0.00000000000E+00 -0.64999999231E+04  0.65000000000E+04  0.10000000000E+01 0.  0.
    9000001    1    1    2    0    0 -0.31610178631E+04  0.51847527512E+04 -0.23186858298E+04  0.65000000000E+04  0.10000000000E+01 0.  0.
    9000001    1    1    2    0    0  0.31610178631E+04 -0.51847527512E+04  0.23186858298E+04  0.65000000000E+04  0.10000000000E+01 0.  0.
</event>
<event>
 4    1  0.2193160E-006  0.1300000E+05  0.7957747E-01  0.1322471E+00
    9000001   -1    0    0    0    0  0.00000000000E+00  0.00000000000E+00  0.64999999231E+04  0.65000000000E+04  0.10000000000E+01 0.  0.
    9000001   -1    0    0    0    0 -0.00000000000E+00 -0.00000000000E+00 -0.64999999231E+04  0.65000000000E+04  0.10000000000E+01 0.  0.
    9000001    1    1    2    0    0 -0.20443181546E+04  0.14073529694E+04  0.60075052978E+04  0.65000000000E+04  0.10000000000E+01 0.  0.
    9000001    1    1    2    0    0  0.20443181546E+04 -0.14073529694E+04 -0.60075052978E+04  0.65000000000E+04  0.10000000000E+01 0.  0.
</event>
<event>
 4    1  0.2193160E-006  0.1300000E+05  0.7957747E-01  0.1322471E+00
    9000001   -1    0    0    0    0  0.00000000000E+00  0.00000000000E+00  0.64999999231E+04  0.65000000000E+04  0.10000000000E+01 0.  0.
    9000001   -1    0    0    0    0 -0.00000000000E+00 -0.00000000000E+00 -0.64999999231E+04  0.65000000000E+04  0.10000000000E+01 0.  0.
    9000001    1    1    2    0    0  0.40575610370E+04 -0.47405987375E+04 -0.18201431374E+04  0.65000000000E+04  0.10000000000E+01 0.  0.
    9000001    1    1    2    0    0 -0.40575610370E+04  0.47405987375E+04  0.18201431374E+04  0.65000000000E+04  0.10000000000E+01 0.  0.
</event>
<event>
 4    1  0.2193160E-006  0.1300000E+05  0.7957747E-01  0.1322471E+00
    9000001   -1    0    0    0    0  0.00000000000E+00  0.00000000000E+00  0.64999999231E+04  0.65000000000E+04  0.10000000000E+01 0.  0.
    9000001   -1    0    0    0    0 -0.00000000000E+00 -0.00000000000E+00 -0.64999999231E+04  0.65000000000E+04  0.10000000000E+01 0.  0.
    9000001    1    1    2    0    0  0.34843586291E+04  0.30822428626E+04  0.45397161673E+04  0.65000000000E+04  0.10000000000E+01 0.  0.
    9000001    1    1    2    0    0 -0.34843586291E+04 -0.30822428626E+04 -0.45397161673E+04  0.65000000000E+04  0.10000000000E+01 0.  0.
</event>
<event>
 4    1  0.2193160E-006  0.1300000E+05  0.7957747E-01  0.1322471E+00
    9000001   -1    0    0    0    0  0.00000000000E+00  0.00000000000E+00  0.64999999231E+04  0.65000000000E+04  0.10000000000E+01 0.  0.
    9000001   -1    0    0    0    0 -0.00000000000E+00 -0.00000000000E+00 -0.64999999231E+04  0.65000000000E+04  0.10000000000E+01 0.  0.
    9000001    1    1    2    0    0  0.84950981080E+03  0.62441387689E+04 -0.15934437912E+04  0.65000000000E+04  0.10000000000E+01 0.  0.
    9000001    1    1    2    0    0 -0.84950981080E+03 -0.62441387689E+04  0.15934437912E+04  0.65000000000E+04  0.10000000000E+01 0.  0.
</event>
<event>
 4    1  0.2193160E-006  0.1300000E+05  0.7957747E-01  0.1322471E+00
    9000001   -1    0    0    0    0  0.00000000000E+00  0.00000000000E+00  0.64999999231E+04  0.65000000000E+04  0.10000000000E+01 0.  0.
    9000001   -1    0    0    0    0 -0.00000000000E+00 -0.00000000000E+00 -0.64999999231E+04  0.65000000000E+04  0.10000000000E+01 0.  0.
    9000001    1    1    2    0    0  0.13605450363E+04 -0.61946758626E+04 -0.14229923265E+04  0.65000000000E+04  0.10000000000E+01 0.  0.
    9000001    1    1    2    0    0 -0.13605450363E+04  0.61946758626E+04  0.14229923265E+04  0.65000000000E+04  0.10000000000E+01 0.  0.
</event>
<event>
 4    1  0.2193160E-006  0.1300000E+05  0.7957747E-01  0.1322471E+00
    9000001   -1    0    0    0    0  0.00000000000E+00  0.00000000000E+00  0.64999999231E+04  0.65000000000E+04  0.10000000000E+01 0.  0.
    9000001   -1    0    0    0    0 -0.00000000000E+00 -0.00000000000E+00 -0.64999999231E+04  0.65000000000E+04  0.10000000000E+01 0.  0.
    9000001    1    1    2    0    0 -0.32744330231E+04  0.43454110648E+03 -0.55981480334E+04  0.65000000000E+04  0.10000000000E+01 0.  0.
    9000001    1    1    2    0    0  0.32744330231E+04 -0.43454110648E+03  0.55981480334E+04  0.65000000000E+04  0.10000000000E+01 0.  0.
</event>
<event>
 4    1  0.2193160E-006  0.1300000E+05  0.7957747E-01  0.1322471E+00
    9000001   -1    0    0    0    0  0.00000000000E+00  0.00000000000E+00  0.64999999231E+04  0.65000000000E+04  0.10000000000E+01 0.  0.
    9000001   -1    0    0    0    0 -0.00000000000E+00 -0.00000000000E+00 -0.64999999231E+04  0.65000000000E+04  0.10000000000E+01 0.  0.
    9000001    1    1    2    0    0  0.31802820157E+04  0.33354144759E+03 -0.56590242448E+04  0.65000000000E+04  0.10000000000E+01 0.  0.
    9000001    1    1    2    0    0 -0.31802820157E+04 -0.33354144759E+03  0.56590242448E+04  0.65000000000E+04  0.10000000000E+01 0.  0.
</event>
<event>
 4    1  0.2193160E-006  0.1300000E+05  0.7957747E-01  0.1322471E+00
    9000001   -1    0    0    0    0  0.00000000000E+00  0.00000000000E+00  0.64999999231E+04  0.65000000000E+04  0.10000000000E+01 0.  0.
    9000001   -1    0    0    0    0 -0.00000000000E+00 -0.00000000000E+00 -0.64999999231E+04  0.65000000000E+04  0.10000000000E+01 0.  0.
    9000001    1    1    2    0    0  0.46223462053E+03 -0.49037116045E+04 -0.42414561952E+04  0.65000000000E+04  0.10000000000E+01 0.  0.
    9000001    1    1    2    0    0 -0.46223462053E+03  0.49037116045E+04  0.42414561952E+04  0.65000000000E+04  0.10000000000E+01 0.  0.
</event>
<event>
 4    1  0.2193160E-006  0.1300000E+05  0.7957747E-01  0.1322471E+00
    9000001   -1    0    0    0    0  0.00000000000E+00  0.00000000000E+00  0.64999999231E+04  0.65000000000E+04  0.10000000000E+01 0.  0.
    9000001   -1    0    0    0    0 -0.00000000000E+00 -0.00000000000E+00 -0.64999999231E+04  0.65000000000E+04  0.10000000000E+01 0.  0.
    9000001    1    1    2    0    0 -0.39326762183E+04 -0.26578663781E+04  0.44406984899E+04  0.65000000000E+04  0.10000000000E+01 0.  0.
    9000001    1    1    2    0    0  0.39326762183E+04  0.26578663781E+04 -0.44406984899E+04  0.65000000000E+04  0.10000000000E+01 0.  0.
</event>
<event>
 4    1  0.2193160E-006  0.1300000E+05  0.7957747E-01  0.1322471E+00
    9000001   -1    0    0    0    0  0.00000000000E+00  0.00000000000E+00  0.64999999231E+04  0.65000000000E+04  0.10000000000E+01 0.  0.
    9000001   -1    0    0    0    0 -0.00000000000E+00 -0.00000000000E+00 -0.64999999231E+04  0.65000000000E+04  0.10000000000E+01 0.  0.
    9000001    1    1    2    0    0  0.16922731305E+04 -0.51816626290E+04 -0.35407037509E+04  0.65000000000E+04  0.10000000000E+01 0.  0.
    9000001    1    1    2    0    0 -0.16922731305E+04  0.51816626290E+04  0.35407037509E+04  0.65000000000E+04  0.10000000000E+01 0.  0.
</event>
<event>
 4    1  0.2193160E-006  0.1300000E+05  0.7957747E-01  0.1322471E+00
    9000001   -1    0    0    0    0  0.00000000000E+00  0.00000000000E+00  0.64999999231E+04  0.65000000000E+04  0.10000000000E+01 0.  0.
    9000001   -1    0    0    0    0 -0.00000000000E+00 -0.00000000000E+00 -0.64999999231E+04  0.65000000000E+04  0.10000000000E+01 0.  0.
    9000001    1    1    2    0    0 -0.53192086697E+04 -0.35316423839E+04  0.12179984401E+04  0.65000000000E+04  0.10000000000E+01 0.  0.
    9000001    1    1    2    0    0  0.53192086697E+04  0.35316423839E+04 -0.12179984401E+04  0.65000000000E+04  0.10000000000E+01 0.  0.
</event>
<event>
 4    1  0.2193160E-006  0.1300000E+05  0.7957747E-01  0.1322471E+00
    9000001   -1    0    0    0    0  0.00000000000E+00  0.00000000000E+00  0.64999999231E+04  0.65000000000E+04  0.10000000000E+01 0.  0.
    9000001   -1    0    0    0    0 -0.00000000000E+00 -0.00000000000E+00 -0.64999999231E+04  0.65000000000E+04  0.10000000000E+01 0.  0.
    9000001    1    1    2    0    0 -0.49089115824E+04  0.17867043302E+04  0.38678513043E+04  0.65000000000E+04  0.10000000000E+01 0.  0.
    9000001    1    1    2    0    0  0.49089115824E+04 -0.17867043302E+04 -0.38678513043E+04  0.65000000000E+04  0.10000000000E+01 0.  0.
</event>
<event>
 4    1  0.2193160E-006  0.1300000E+05  0.7957747E-01  0.1322471E+00
    9000001   -1    0    0    0    0  0.00000000000E+00  0.00000000000E+00  0.64999999231E+04  0.65000000000E+04  0.10000000000E+01 0.  0.
    9000001   -1    0    0    0    0 -0.00000000000E+00 -0.00000000000E+00 -0.64999999231E+04  0.65000000000E+04  0.10000000000E+01 0.  0.
    9000001    1    1    2    0    0 -0.61119928245E+04 -0.14540885433E+04 -0.16670840475E+04  0.65000000000E+04  0.10000000000E+01 0.  0.
    9000001    1    1    2    0    0  0.61119928245E+04  0.14540885433E+04  0.16670840475E+04  0.65000000000E+04  0.10000000000E+01 0.  0.
</event>
<event>
 4    1  0.2193160E-006  0.1300000E+05  0.7957747E-01  0.1322471E+00
    9000001   -1    0    0    0    0  0.00000000000E+00  0.00000000000E+00  0.64999999231E+04  0.65000000000E+04  0.10000000000E+01 0.  0.
    9000001   -1    0    0    0    0 -0.00000000000E+00 -0.00000000000E+00 -0.64999999231E+04  0.65000000000E+04  0.10000000000E+01 0.  0.
    9000001    1    1    2    0    0  0.12034313727E+04 -0.16184109561E+04  0.61791988080E+04  0.65000000000E+04  0.10000000000E+01 0.  0.
    9000001    1    1    2    0    0 -0.12034313727E+04  0.16184109561E+04 -0.61791988080E+04  0.65000000000E+04  0.10000000000E+01 0.  0.
</event>
<event>
 4    1  0.2193160E-006  0.1300000E+05  0.7957747E-01  0.1322471E+00
    9000001   -1    0    0    0    0  0.00000000000E+00  0.00000000000E+00  0.64999999231E+04  0.65000000000E+04  0.10000000000E+01 0.  0.
    9000001   -1    0    0    0    0 -0.00000000000E+00 -0.00000000000E+00 -0.64999999231E+04  0.65000000000E+04  0.10000000000E+01 0.  0.
    9000001    1    1    2    0    0 -0.39110070753E+04 -0.37528464378E+03 -0.51781448505E+04  0.65000000000E+04  0.10000000000E+01 0.  0.
    9000001    1    1    2    0    0  0.39110070753E+04  0.37528464378E+03  0.51781448505E+04  0.65000000000E+04  0.10000000000E+01 0.  0.
</event>
<event>
 4    1  0.2193160E-006  0.1300000E+05  0.7957747E-01  0.1322471E+00
    9000001   -1    0    0    0    0  0.00000000000E+00  0.00000000000E+00  0.64999999231E+04  0.65000000000E+04  0.10000000000E+01 0.  0.
    9000001   -1    0    0    0    0 -0.00000000000E+00 -0.00000000000E+00 -0.64999999231E+04  0.65000000000E+04  0.10000000000E+01 0.  0.
    9000001    1    1    2    0    0 -0.21134358322E+04  0.52202285065E+04  0.32453970979E+04  0.65000000000E+04  0.10000000000E+01 0.  0.
    9000001    1    1    2    0    0  0.21134358322E+04 -0.52202285065E+04 -0.32453970979E+04  0.65000000000E+04  0.10000000000E+01 0.  0.
</event>
<event>
 4    1  0.2193160E-006  0.1300000E+05  0.7957747E-01  0.1322471E+00
    9000001   -1    0    0    0    0  0.00000000000E+00  0.00000000000E+00  0.64999999231E+04  0.65000000000E+04  0.10000000000E+01 0.  0.
    9000001   -1    0    0    0    0 -0.00000000000E+00 -0.00000000000E+00 -0.64999999231E+04  0.65000000000E+04  0.10000000000E+01 0.  0.
    9000001    1    1    2    0    0  0.11202111134E+04 -0.59633928461E+04  0.23308950693E+04  0.65000000000E+04  0.10000000000E+01 0.  0.
    9000001    1    1    2    0    0 -0.11202111134E+04  0.59633928461E+04 -0.23308950693E+04  0.65000000000E+04  0.10000000000E+01 0.  0.
</event>
<event>
 4    1  0.2193160E-006  0.1300000E+05  0.7957747E-01  0.1322471E+00
    9000001   -1    0    0    0    0  0.00000000000E+00  0.00000000000E+00  0.64999999231E+04  0.65000000000E+04  0.10000000000E+01 0.  0.
    9000001   -1    0    0    0    0 -0.00000000000E+00 -0.00000000000E+00 -0.64999999231E+04  0.65000000000E+04  0.10000000000E+01 0.  0.
    9000001    1    1    2    0    0  0.57738722837E+03  0.73487291735E+03 -0.64324633527E+04  0.65000000000E+04  0.10000000000E+01 0.  0.
    9000001    1    1    2    0    0 -0.57738722837E+03 -0.73487291735E+03  0.64324633527E+04  0.65000000000E+04  0.10000000000E+01 0.  0.
</event>
<event>
 4    1  0.2193160E-006  0.1300000E+05  0.7957747E-01  0.1322471E+00
    9000001   -1    0    0    0    0  0.00000000000E+00  0.00000000000E+00  0.64999999231E+04  0.65000000000E+04  0.10000000000E+01 0.  0.
    9000001   -1    0    0    0    0 -0.00000000000E+00 -0.00000000000E+00 -0.64999999231E+04  0.65000000000E+04  0.10000000000E+01 0.  0.
    9000001    1    1    2    0    0  0.54183875888E+04 -0.35068369562E+04  0.77017498044E+03  0.65000000000E+04  0.10000000000E+01 0.  0.
    9000001    1    1    2    0    0 -0.54183875888E+04  0.35068369562E+04 -0.77017498044E+03  0.65000000000E+04  0.10000000000E+01 0.  0.
</event>
<event>
 4    1  0.2193160E-006  0.1300000E+05  0.7957747E-01  0.1322471E+00
    9000001   -1    0    0    0    0  0.00000000000E+00  0.00000000000E+00  0.64999999231E+04  0.65000000000E+04  0.10000000000E+01 0.  0.
    9000001   -1    0    0    0    0 -0.00000000000E+00 -0.00000000000E+00 -0.64999999231E+04  0.65000000000E+04  0.10000000000E+01 0.  0.
    9000001    1    1    2    0    0  0.76762537130E+03  0.63844875899E+04  0.94819222906E+03  0.65000000000E+04  0.10000000000E+01 0.  0.
    9000001    1    1    2    0    0 -0.76762537130E+03 -0.63844875899E+04 -0.94819222906E+03  0.65000000000E+04  0.10000000000E+01 0.  0.
</event>
<event>
 4    1  0.2193160E-006  0.1300000E+05  0.7957747E-01  0.1322471E+00
    9000001   -1    0    0    0    0  0.00000000000E+00  0.00000000000E+00  0.64999999231E+04  0.65000000000E+04  0.10000000000E+01 0.  0.
    9000001   -1    0    0    0    0 -0.00000000000E+00 -0.00000000000E+00 -0.64999999231E+04  0.65000000000E+04  0.10000000000E+01 0.  0.
    9000001    1    1    2    0    0  0.61455566013E+04  0.18114184705E+04 -0.10958540890E+04  0.65000000000E+04  0.10000000000E+01 0.  0.
    9000001    1    1    2    0    0 -0.61455566013E+04 -0.18114184705E+04  0.10958540890E+04  0.65000000000E+04  0.10000000000E+01 0.  0.
</event>
<event>
 4    1  0.2193160E-006  0.1300000E+05  0.7957747E-01  0.1322471E+00
    9000001   -1    0    0    0    0  0.00000000000E+00  0.00000000000E+00  0.64999999231E+04  0.65000000000E+04  0.10000000000E+01 0.  0.
    9000001   -1    0    0    0    0 -0.00000000000E+00 -0.00000000000E+00 -0.64999999231E+04  0.65000000000E+04  0.10000000000E+01 0.  0.
    9000001    1    1    2    0    0  0.34497074615E+04 -0.54764509151E+04  0.59833335618E+03  0.65000000000E+04  0.10000000000E+01 0.  0.
    9000001    1    1    2    0    0 -0.34497074615E+04  0.54764509151E+04 -0.59833335618E+03  0.65000000000E+04  0.10000000000E+01 0.  0.
</event>
<event>
 4    1  0.2193160E-006  0.1300000E+05  0.7957747E-01  0.1322471E+00
    9000001   -1    0    0    0    0  0.00000000000E+00  0.00000000000E+00  0.64999999231E+04  0.65000000000E+04  0.10000000000E+01 0.  0.
    9000001   -1    0    0    0    0 -0.00000000000E+00 -0.00000000000E+00 -0.64999999231E+04  0.65000000000E+04  0.10000000000E+01 0.  0.
    9000001    1    1    2    0    0  0.52884016088E+04 -0.63367920224E+03  0.37257560432E+04  0.65000000000E+04  0.10000000000E+01 0.  0.
    9000001    1    1    2    0    0 -0.52884016088E+04  0.63367920224E+03 -0.37257560432E+04  0.65000000000E+04  0.10000000000E+01 0.  0.
</event>
<event>
 4    1  0.2193160E-006  0.1300000E+05  0.7957747E-01  0.1322471E+00
    9000001   -1    0    0    0    0  0.00000000000E+00  0.00000000000E+00  0.64999999231E+04  0.65000000000E+04  0.10000000000E+01 0.  0.
    9000001   -1    0    0    0    0 -0.00000000000E+00 -0.00000000000E+00 -0.64999999231E+04  0.65000000000E+04  0.10000000000E+01 0.  0.
    9000001    1    1    2    0    0  0.61397611080E+04 -0.19446341222E+03 -0.21249744748E+04  0.65000000000E+04  0.10000000000E+01 0.  0.
    9000001    1    1    2    0    0 -0.61397611080E+04  0.19446341222E+03  0.21249744748E+04  0.65000000000E+04  0.10000000000E+01 0.  0.
</event>
<event>
 4    1  0.2193160E-006  0.1300000E+05  0.7957747E-01  0.1322471E+00
    9000001   -1    0    0    0    0  0.00000000000E+00  0.00000000000E+00  0.64999999231E+04  0.65000000000E+04  0.10000000000E+01 0.  0.
    9000001   -1    0    0    0    0 -0.00000000000E+00 -0.00000000000E+00 -0.64999999231E+04  0.65000000000E+04  0.10000000000E+01 0.  0.
    9000001    1    1    2    0    0 -0.31044188768E+04  0.11343967321E+04 -0.55969390288E+04  0.65000000000E+04  0.10000000000E+01 0.  0.
    9000001    1    1    2    0    0  0.31044188768E+04 -0.11343967321E+04  0.55969390288E+04  0.65000000000E+04  0.10000000000E+01 0.  0.
</event>
<event>
 4    1  0.2193160E-006  0.1300000E+05  0.7957747E-01  0.1322471E+00
    9000001   -1    0    0    0    0  0.00000000000E+00  0.00000000000E+00  0.64999999231E+04  0.65000000000E+04  0.10000000000E+01 0.  0.
    9000001   -1    0    0    0    0 -0.00000000000E+00 -0.00000000000E+00 -0.64999999231E+04  0.65000000000E+04  0.10000000000E+01 0.  0.
    9000001    1    1    2    0    0 -0.29412168898E+04 -0.27051305736E+04  0.51265495986E+04  0.65000000000E+04  0.10000000000E+01 0.  0.
    9000001    1    1    2    0    0  0.29412168898E+04  0.27051305736E+04 -0.51265495986E+04  0.65000000000E+04  0.10000000000E+01 0.  0.
</event>
<event>
 4    1  0.2193160E-006  0.1300000E+05  0.7957747E-01  0.1322471E+00
    9000001   -1    0    0    0    0  0.00000000000E+00  0.00000000000E+00  0.64999999231E+04  0.65000000000E+04  0.10000000000E+01 0.  0.
    9000001   -1    0    0    0    0 -0.00000000000E+00 -0.00000000000E+00 -0.64999999231E+04  0.65000000000E+04  0.10000000000E+01 0.  0.
    9000001    1    1    2    0    0 -0.39242649331E+04 -0.46943882910E+04  0.21938236730E+04  0.65000000000E+04  0.10000000000E+01 0.  0.
    9000001    1    1    2    0    0  0.39242649331E+04  0.46943882910E+04 -0.21938236730E+04  0.65000000000E+04  0.10000000000E+01 0.  0.
</event>
<event>
 4    1  0.2193160E-006  0.1300000E+05  0.7957747E-01  0.1322471E+00
    9000001   -1    0    0    0    0  0.00000000000E+00  0.00000000000E+00  0.64999999231E+04  0.65000000000E+04  0.10000000000E+01 0.  0.
    9000001   -1    0    0    0    0 -0.00000000000E+00 -0.00000000000E+00 -0.64999999231E+04  0.65000000000E+04  0.10000000000E+01 0.  0.
    9000001    1    1    2    0    0  0.22492516050E+04  0.31093663729E+04  0.52462088194E+04  0.65000000000E+04  0.10000000000E+01 0.  0.
    9000001    1    1    2    0    0 -0.22492516050E+04 -0.31093663729E+04 -0.52462088194E+04  0.65000000000E+04  0.10000000000E+01 0.  0.
</event>
<event>
 4    1  0.2193160E-006  0.1300000E+05  0.7957747E-01  0.1322471E+00
    9000001   -1    0    0    0    0  0.00000000000E+00  0.00000000000E+00  0.64999999231E+04  0.65000000000E+04  0.10000000000E+01 0.  0.
    9000001   -1    0    0    0    0 -0.00000000000E+00 -0.00000000000E+00 -0.64999999231E+04  0.65000000000E+04  0.10000000000E+01 0.  0.
    9000001    1    1    2    0    0  0.12666633979E+04  0.59241537826E+04  0.23558363263E+04  0.65000000000E+04  0.10000000000E+01 0.  0.
    9000001    1    1    2    0    0 -0.12666633979E+04 -0.59241537826E+04 -0.23558363263E+04  0.65000000000E+04  0.10000000000E+01 0.  0.
</event>
<event>
 4    1  0.2193160E-006  0.1300000E+05  0.7957747E-01  0.1322471E+00
    9000001   -1    0    0    0    0  0.00000000000E+00  0.00000000000E+00  0.64999999231E+04  0.65000000000E+04  0.10000000000E+01 0.  0.
    9000001   -1    0    0    0    0 -0.00000000000E+00 -0.00000000000E+00 -0.64999999231E+04  0.65000000000E+04  0.10000000000E+01 0.  0.
    9000001    1    1    2    0    0 -0.59039474370E+04 -0.25242018737E+04 -0.10108454691E+04  0.65000000000E+04  0.10000000000E+01 0.  0.
    9000001    1    1    2    0    0  0.59039474370E+04  0.25242018737E+04  0.10108454691E+04  0.65000000000E+04  0.10000000000E+01 0.  0.
</event>
<event>
 4    1  0.2193160E-006  0.1300000E+05  0.7957747E-01  0.1322471E+00
    9000001   -1    0    0    0    0  0.00000000000E+00  0.00000000000E+00  0.64999999231E+04  0.65000000000E+04  0.10000000000E+01 0.  0.
    9000001   -1    0    0    0    0 -0.00000000000E+00 -0.00000000000E+00 -0.64999999231E+04  0.65000000000E+04  0.10000000000E+01 0.  0.
    9000001    1    1    2    0    0  0.48734557291E+04  0.42298344730E+04  0.77969775365E+03  0.65000000000E+04  0.10000000000E+01 0.  0.
    9000001    1    1    2    0    0 -0.48734557291E+04 -0.42298344730E+04 -0.77969775365E+03  0.65000000000E+04  0.10000000000E+01 0.  0.
</event>
<event>
 4    1  0.2193160E-006  0.1300000E+05  0.7957747E-01  0.1322471E+00
    9000001   -1    0    0    0    0  0.00000000000E+00  0.00000000000E+00  0.64999999231E+04  0.65000000000E+04  0.10000000000E+01 0.  0.
    9000001   -1    0    0    0    0 -0.00000000000E+00 -0.00000000000E+00 -0.64999999231E+04  0.65000000000E+04  0.10000000000E+01 0.  0.
    9000001    1    1    2    0    0  0.42405898650E+04 -0.16456742151E+04  0.46431834957E+04  0.65000000000E+04  0.10000000000E+01 0.  0.
    9000001    1    1    2    0    0 -0.42405898650E+04  0.16456742151E+04 -0.46431834957E+04  0.65000000000E+04  0.10000000000E+01 0.  0.
</event>
<event>
 4    1  0.2193160E-006  0.1300000E+05  0.7957747E-01  0.1322471E+00
    9000001   -1    0    0    0    0  0.00000000000E+00  0.00000000000E+00  0.64999999231E+04  0.65000000000E+04  0.10000000000E+01 0.  0.
    9000001   -1    0    0    0    0 -0.00000000000E+00 -0.00000000000E+00 -0.64999999231E+04  0.65000000000E+04  0.10000000000E+01 0.  0.
    9000001    1    1    2    0    0  0.33376559799E+04 -0.51733123659E+04  0.20849198364E+04  0.65000000000E+04  0.10000000000E+01 0.  0.
    9000001    1    1    2    0    0 -0.33376559799E+04  0.51733123659E+04 -0.20849198364E+04  0.65000000000E+04  0.10000000000E+01 0.  0.
</event>
<event>
 4    1  0.2193160E-006  0.1300000E+05  0.7957747E-01  0.1322471E+00
    9000001   -1    0    0    0    0  0.00000000000E+00  0.00000000000E+00  0.64999999231E+04  0.65000000000E+04  0.10000000000E+01 0.  0.
    9000001   -1    0    0    0    0 -0.00000000000E+00 -0.00000000000E+00 -0.64999999231E+04  0.65000000000E+04  0.10000000000E+01 0.  0.
    9000001    1    1    2    0    0  0.10746412773E+04 -0.23719338804E+04  0.59555918927E+04  0.65000000000E+04  0.10000000000E+01 0.  0.
    9000001    1    1    2    0    0 -0.10746412773E+04  0.23719338804E+04 -0.59555918927E+04  0.65000000000E+04  0.10000000000E+01 0.  0.
</event>
<event>
 4    1  0.2193160E-006  0.1300000E+05  0.7957747E-01  0.1322471E+00
    9000001   -1    0    0    0    0  0.00000000000E+00  0.00000000000E+00  0.64999999231E+04  0.65000000000E+04  0.10000000000E+01 0.  0.
    9000001   -1    0    0    0    0 -0.00000000000E+00 -0.00000000000E+00 -0.64999999231E+04  0.65000000000E+04  0.10000000000E+01 0.  0.
    9000001    1    1    2    0    0  0.42213757584E+04  0.40233552175E+04  0.28709925984E+04  0.65000000000E+04  0.10000000000E+01 0.  0.
    9000001    1    1    2    0    0 -0.42213757584E+04 -0.40233552175E+04 -0.28709925984E+04  0.65000000000E+04  0.10000000000E+01 0.  0.
</event>
<event>
 4    1  0.2193160E-006  0.1300000E+05  0.7957747E-01  0.1322471E+00
    9000001   -1    0    0    0    0  0.00000000000E+00  0.00000000000E+00  0.64999999231E+04  0.65000000000E+04  0.10000000000E+01 0.  0.
    9000001   -1    0    0    0    0 -0.00000000000E+00 -0.00000000000E+00 -0.64999999231E+04  0.65000000000E+04  0.10000000000E+01 0.  0.
    9000001    1    1    2    0    0  0.44965304613E+04 -0.75175582834E+03 -0.46331496830E+04  0.65000000000E+04  0.10000000000E+01 0.  0.
    9000001    1    1    2    0    0 -0.44965304613E+04  0.75175582834E+03  0.46331496830E+04  0.65000000000E+04  0.10000000000E+01 0.  0.
</event>
<event>
 4    1  0.2193160E-006  0.1300000E+05  0.7957747E-01  0.1322471E+00
    9000001   -1    0    0    0    0  0.00000000000E+00  0.00000000000E+00  0.64999999231E+04  0.65000000000E+04  0.10000000000E+01 0.  0.
    9000001   -1    0    0    0    0 -0.00000000000E+00 -0.00000000000E+00 -0.64999999231E+04  0.65000000000E+04  0.10000000000E+01 0.  0.
    9000001    1    1    2    0    0 -0.45483120237E+04  0.38361062920E+02  0.46434238622E+04  0.65000000000E+04  0.10000000000E+01 0.  0.
    9000001    1    1    2    0    0  0.45483120237E+04 -0.38361062920E+02 -0.46434238622E+04  0.65000000000E+04  0.10000000000E+01 0.  0.
</event>
<event>
 4    1  0.2193160E-006  0.1300000E+05  0.7957747E-01  0.1322471E+00
    9000001   -1    0    0    0    0  0.00000000000E+00  0.00000000000E+00  0.64999999231E+04  0.65000000000E+04  0.10000000000E+01 0.  0.
    9000001   -1    0    0    0    0 -0.00000000000E+00 -0.00000000000E+00 -0.64999999231E+04  0.65000000000E+04  0.10000000000E+01 0.  0.
    9000001    1    1    2    0    0  0.64898297805E+04 -0.21257452620E+03  0.29482281257E+03  0.65000000000E+04  0.10000000000E+01 0.  0.
    9000001    1    1    2    0    0 -0.64898297805E+04  0.21257452620E+03 -0.29482281257E+03  0.65000000000E+04  0.10000000000E+01 0.  0.
</event>
<event>
 4    1  0.2193160E-006  0.1300000E+05  0.7957747E-01  0.1322471E+00
    9000001   -1    0    0    0    0  0.00000000000E+00  0.00000000000E+00  0.64999999231E+04  0.65000000000E+04  0.10000000000E+01 0.  0.
    9000001   -1    0    0    0    0 -0.00000000000E+00 -0.00000000000E+00 -0.64999999231E+04  0.65000000000E+04  0.10000000000E+01 0.  0.
    9000001    1    1    2    0    0 -0.18471743787E+03 -0.26442013058E+04 -0.59349876093E+04  0.65000000000E+04  0.10000000000E+01 0.  0.
    9000001    1    1    2    0    0  0.18471743787E+03  0.26442013058E+04  0.59349876093E+04  0.65000000000E+04  0.10000000000E+01 0.  0.
</event>
<event>
 4    1  0.2193160E-006  0.1300000E+05  0.7957747E-01  0.1322471E+00
    9000001   -1    0    0    0    0  0.00000000000E+00  0.00000000000E+00  0.64999999231E+04  0.65000000000E+04  0.10000000000E+01 0.  0.
    9000001   -1    0    0    0    0 -0.00000000000E+00 -0.00000000000E+00 -0.64999999231E+04  0.65000000000E+04  0.10000000000E+01 0.  0.
    9000001    1    1    2    0    0 -0.27048631388E+03  0.63924983925E+04  0.11457750458E+04  0.65000000000E+04  0.10000000000E+01 0.  0.
    9000001    1    1    2    0    0  0.27048631388E+03 -0.63924983925E+04 -0.11457750458E+04  0.65000000000E+04  0.10000000000E+01 0.  0.
</event>
<event>
 4    1  0.2193160E-006  0.1300000E+05  0.7957747E-01  0.1322471E+00
    9000001   -1    0    0    0    0  0.00000000000E+00  0.00000000000E+00  0.64999999231E+04  0.65000000000E+04  0.10000000000E+01 0.  0.
    9000001   -1    0    0    0    0 -0.00000000000E+00 -0.00000000000E+00 -0.64999999231E+04  0.65000000000E+04  0.10000000000E+01 0.  0.
    9000001    1    1    2    0    0 -0.64146438449E+04 -0.99779396426E+03  0.32672702426E+03  0.65000000000E+04  0.10000000000E+01 0.  0.
    9000001    1    1    2    0    0  0.64146438449E+04  0.99779396426E+03 -0.32672702426E+03  0.65000000000E+04  0.10000000000E+01 0.  0.
</event>
<event>
 4    1  0.2193160E-006  0.1300000E+05  0.7957747E-01  0.1322471E+00
    9000001   -1    0    0    0    0  0.00000000000E+00  0.00000000000E+00  0.64999999231E+04  0.65000000000E+04  0.10000000000E+01 0.  0.
    9000001   -1    0    0    0    0 -0.00000000000E+00 -0.00000000000E+00 -0.64999999231E+04  0.65000000000E+04  0.10000000000E+01 0.  0.
    9000001    1    1    2    0    0  0.58440657250E+04 -0.22518248646E+04 -0.17395917858E+04  0.65000000000E+04  0.10000000000E+01 0.  0.
    9000001    1    1    2    0    0 -0.58440657250E+04  0.22518248646E+04  0.17395917858E+04  0.65000000000E+04  0.10000000000E+01 0.  0.
</event>
<event>
 4    1  0.2193160E-006  0.1300000E+05  0.7957747E-01  0.1322471E+00
    9000001   -1    0    0    0    0  0.00000000000E+00  0.00000000000E+00  0.64999999231E+04  0.65000000000E+04  0.10000000000E+01 0.  0.
    9000001   -1    0    0    0    0 -0.00000000000E+00 -0.00000000000E+00 -0.64999999231E+04  0.65000000000E+04  0.10000000000E+01 0.  0.
    9000001    1    1    2    0    0 -0.54250673577E+04 -0.34056829437E+04  0.11045210959E+04  0.65000000000E+04  0.10000000000E+01 0.  0.
    9000001    1    1    2    0    0  0.54250673577E+04  0.34056829437E+04 -0.11045210959E+04  0.65000000000E+04  0.10000000000E+01 0.  0.
</event>
<event>
 4    1  0.2193160E-006  0.1300000E+05  0.7957747E-01  0.1322471E+00
    9000001   -1    0    0    0    0  0.00000000000E+00  0.00000000000E+00  0.64999999231E+04  0.65000000000E+04  0.10000000000E+01 0.  0.
    9000001   -1    0    0    0    0 -0.00000000000E+00 -0.00000000000E+00 -0.64999999231E+04  0.65000000000E+04  0.10000000000E+01 0.  0.
    9000001    1    1    2    0    0  0.16127738903E+04 -0.62965351093E+04 -0.51039168675E+02  0.65000000000E+04  0.10000000000E+01 0.  0.
    9000001    1    1    2    0    0 -0.16127738903E+04  0.62965351093E+04  0.51039168675E+02  0.65000000000E+04  0.10000000000E+01 0.  0.
</event>
<event>
 4    1  0.2193160E-006  0.1300000E+05  0.7957747E-01  0.1322471E+00
    9000001   -1    0    0    0    0  0.00000000000E+00  0.00000000000E+00  0.64999999231E+04  0.65000000000E+04  0.10000000000E+01 0.  0.
    9000001   -1    0    0    0    0 -0.00000000000E+00 -0.00000000000E+00 -0.64999999231E+04  0.65000000000E+04  0.10000000000E+01 0.  0.
    9000001    1    1    2    0    0  0.29635959433E+04  0.39309001576E+04  0.42444224620E+04  0.65000000000E+04  0.10000000000E+01 0.  0.
    9000001    1    1    2    0    0 -0.29635959433E+04 -0.39309001576E+04 -0.42444224620E+04  0.65000000000E+04  0.10000000000E+01 0.  0.
</event>
<event>
 4    1  0.2193160E-006  0.1300000E+05  0.7957747E-01  0.1322471E+00
    9000001   -1    0    0    0    0  0.00000000000E+00  0.00000000000E+00  0.64999999231E+04  0.65000000000E+04  0.10000000000E+01 0.  0.
    9000001   -1    0    0    0    0 -0.00000000000E+00 -0.00000000000E+00 -0.64999999231E+04  0.65000000000E+04  0.10000000000E+01 0.  0.
    9000001    1    1    2    0    0  0.86664736298E+03 -0.58519332527E+04 -0.26932876849E+04  0.65000000000E+04  0.10000000000E+01 0.  0.
    9000001    1    1    2    0    0 -0.86664736298E+03  0.58519332527E+04  0.26932876849E+04  0.65000000000E+04  0.10000000000E+01 0.  0.
</event>
<event>
 4    1  0.2193160E-006  0.1300000E+05  0.7957747E-01  0.1322471E+00
    9000001   -1    0    0    0    0  0.00000000000E+00  0.00000000000E+00  0.64999999231E+04  0.65000000000E+04  0.10000000000E+01 0.  0.
    9000001   -1    0    0    0    0 -0.00000000000E+00 -0.00000000000E+00 -0.64999999231E+04  0.65000000000E+04  0.10000000000E+01 0.  0.
    9000001    1    1    2    0    0  0.85746735197E+03  0.51903840141E+04  0.38176776352E+04  0.65000000000E+04  0.10000000000E+01 0.  0.
    9000001    1    1    2    0    0 -0.85746735197E+03 -0.51903840141E+04 -0.38176776352E+04  0.65000000000E+04  0.10000000000E+01 0.  0.
</event>
<event>
 4    1  0.2193160E-006  0.1300000E+05  0.7957747E-01  0.1322471E+00
    9000001   -1    0    0    0    0  0.00000000000E+00  0.00000000000E+00  0.64999999231E+04  0.65000000000E+04  0.10000000000E+01 0.  0.
    9000001   -1    0    0    0    0 -0.00000000000E+00 -0.00000000000E+00 -0.64999999231E+04  0.65000000000E+04  0.10000000000E+01 0.  0.
    9000001    1    1    2    0    0  0.14493994177E+04  0.63275858174E+04 -0.33301359116E+03  0.65000000000E+04  0.10000000000E+01 0.  0.
    9000001    1    1    2    0    0 -0.14493994177E+04 -0.63275858174E+04  0.33301359116E+03  0.65000000000E+04  0.10000000000E+01 0.  0.
</event>
<event>
 4    1  0.2193160E-006  0.1300000E+05  0.7957747E-01  0.1322471E+00
    9000001   -1    0    0    0    0  0.00000000000E+00  0.00000000000E+00  0.64999999231E+04  0.65000000000E+04  0.10000000000E+01 0.  0.
    9000001   -1    0    0    0    0 -0.00000000000E+00 -0.00000000000E+00 -0.64999999231E+04  0.65000000000E+04  0.10000000000E+01 0.  0.
    9000001    1    1    2    0    0  0.64130834683E+04  0.92586546651E+03 -0.51491025141E+03  0.65000000000E+04  0.10000000000E+01 0.  0.
    9000001    1    1    2    0    0 -0.64130834683E+04 -0.92586546651E+03  0.51491025141E+03  0.65000000000E+04  0.10000000000E+01 0.  0.
</event>
<event>
 4    1  0.2193160E-006  0.1300000E+05  0.7957747E-01  0.1322471E+00
    9000001   -1    0    0    0    0  0.00000000000E+00  0.00000000000E+00  0.64999999231E+04  0.65000000000E+04  0.10000000000E+01 0.  0.
    9000001   -1    0    0    0    0 -0.00000000000E+00 -0.00000000000E+00 -0.64999999231E+04  0.65000000000E+04  0.10000000000E+01 0.  0.
    9000001    1    1    2    0    0 -0.46663187362E+04 -0.22326102210E+03  0.45194715364E+04  0.65000000000E+04  0.10000000000E+01 0.  0.
    9000001    1    1    2    0    0  0.46663187362E+04  0.22326102210E+03 -0.45194715364E+04  0.65000000000E+04  0.10000000000E+01 0.  0.
</event>
<event>
 4    1  0.2193160E-006  0.1300000E+05  0.7957747E-01  0.1322471E+00
    9000001   -1    0    0    0    0  0.00000000000E+00  0.00000000000E+00  0.64999999231E+04  0.65000000000E+04  0.10000000000E+01 0.  0.
    9000001   -1    0    0    0    0 -0.00000000000E+00 -0.00000000000E+00 -0.64999999231E+04  0.65000000000E+04  0.10000000000E+01 0.  0.
    9000001    1    1    2    0    0  0.18562359867E+04  0.15580890219E+04 -0.60313137509E+04  0.65000000000E+04  0.10000000000E+01 0.  0.
    9000001    1    1    2    0    0 -0.18562359867E+04 -0.15580890219E+04  0.60313137509E+04  0.65000000000E+04  0.10000000000E+01 0.  0.
</event>
<event>
 4    1  0.2193160E-006  0.1300000E+05  0.7957747E-01  0.1322471E+00
    9000001   -1    0    0    0    0  0.00000000000E+00  0.00000000000E+00  0.64999999231E+04  0.65000000000E+04  0.10000000000E+01 0.  0.
    9000001   -1    0    0    0    0 -0.00000000000E+00 -0.00000000000E+00 -0.64999999231E+04  0.65000000000E+04  0.10000000000E+01 0.  0.
    9000001    1    1    2    0    0 -0.43466785301E+04 -0.27285985481E+04 -0.39888763730E+04  0.65000000000E+04  0.10000000000E+01 0.  0.
    9000001    1    1    2    0    0  0.43466785301E+04  0.27285985481E+04  0.39888763730E+04  0.65000000000E+04  0.10000000000E+01 0.  0.
</event>
<event>
 4    1  0.2193160E-006  0.1300000E+05  0.7957747E-01  0.1322471E+00
    9000001   -1    0    0    0    0  0.00000000000E+00  0.00000000000E+00  0.64999999231E+04  0.65000000000E+04  0.10000000000E+01 0.  0.
    9000001   -1    0    0    0    0 -0.00000000000E+00 -0.00000000000E+00 -0.64999999231E+04  0.65000000000E+04  0.10000000000E+01 0.  0.
    9000001    1    1    2    0    0  0.58130897906E+04  0.21574272636E+04 -0.19502547752E+04  0.65000000000E+04  0.10000000000E+01 0.  0.
    9000001    1    1    2    0    0 -0.58130897906E+04 -0.21574272636E+04  0.19502547752E+04  0.65000000000E+04  0.10000000000E+01 0.  0.
</event>
<event>
 4    1  0.2193160E-006  0.1300000E+05  0.7957747E-01  0.1322471E+00
    9000001   -1    0    0    0    0  0.00000000000E+00  0.00000000000E+00  0.64999999231E+04  0.65000000000E+04  0.10000000000E+01 0.  0.
    9000001   -1    0    0    0    0 -0.00000000000E+00 -0.00000000000E+00 -0.64999999231E+04  0.65000000000E+04  0.10000000000E+01 0.  0.
    9000001    1    1    2    0    0  0.68829282537E+03  0.24733431283E+04  0.59715011309E+04  0.65000000000E+04  0.10000000000E+01 0.  0.
    9000001    1    1    2    0    0 -0.68829282537E+03 -0.24733431283E+04 -0.59715011309E+04  0.65000000000E+04  0.10000000000E+01 0.  0.
</event>
<event>
 4    1  0.2193160E-006  0.1300000E+05  0.7957747E-01  0.1322471E+00
    9000001   -1    0    0    0    0  0.00000000000E+00  0.00000000000E+00  0.64999999231E+04  0.65000000000E+04  0.10000000000E+01 0.  0.
    9000001   -1    0    0    0    0 -0.00000000000E+00 -0.00000000000E+00 -0.64999999231E+04  0.65000000000E+04  0.10000000000E+01 0.  0.
    9000001    1    1    2    0    0 -0.26816849316E+04 -0.36533629965E+04 -0.46595604667E+04  0.65000000000E+04  0.10000000000E+01 0.  0.
    9000001    1    1    2    0    0  0.26816849316E+04  0.36533629965E+04  0.46595604667E+04  0.65000000000E+04  0.10000000000E+01 0.  0.
</event>
<event>
 4    1  0.2193160E-006  0.1300000E+05  0.7957747E-01  0.1322471E+00
    9000001   -1    0    0    0    0  0.00000000000E+00  0.00000000000E+00  0.64999999231E+04  0.65000000000E+04  0.10000000000E+01 0.  0.
    9000001   -1    0    0    0    0 -0.00000000000E+00 -0.00000000000E+00 -0.64999999231E+04  0.65000000000E+04  0.10000000000E+01 0.  0.
    9000001    1    1    2    0    0  0.55616566053E+04  0.29508669254E+04  0.16156606059E+04  0.65000000000E+04  0.10000000000E+01 0.  0.
    9000001    1    1    2    0    0 -0.55616566053E+04 -0.29508669254E+04 -0.16156606059E+04  0.65000000000E+04  0.10000000000E+01 0.  0.
</event>
<event>
 4    1  0.2193160E-006  0.1300000E+05  0.7957747E-01  0.1322471E+00
    9000001   -1    0    0    0    0  0.00000000000E+00  0.00000000000E+00  0.64999999231E+04  0.65000000000E+04  0.10000000000E+01 0.  0.
    9000001   -1    0    0    0    0 -0.00000000000E+00 -0.00000000000E+00 -0.64999999231E+04  0.65000000000E+04  0.10000000000E+01 0.  0.
    9000001    1    1    2    0    0 -0.29928384220E+04  0.15463881820E+04 -0.55589208279E+04  0.65000000000E+04  0.10000000000E+01 0.  0.
    9000001    1    1    2    0    0  0.29928384220E+04 -0.15463881820E+04  0.55589208279E+04  0.65000000000E+04  0.10000000000E+01 0.  0.
</event>
<event>
 4    1  0.2193160E-006  0.1300000E+05  0.7957747E-01  0.1322471E+00
    9000001   -1    0    0    0    0  0.00000000000E+00  0.00000000000E+00  0.64999999231E+04  0.65000000000E+04  0.10000000000E+01 0.  0.
    9000001   -1    0    0    0    0 -0.00000000000E+00 -0.00000000000E+00 -0.64999999231E+04  0.65000000000E+04  0.10000000000E+01 0.  0.
    9000001    1    1    2    0    0 -0.33712008406E+04  0.23063003229E+04 -0.50562815104E+04  0.65000000000E+04  0.10000000000E+01 0.  0.
    9000001    1    1    2    0    0  0.33712008406E+04 -0.23063003229E+04  0.50562815104E+04  0.65000000000E+04  0.10000000000E+01 0.  0.
</event>
<event>
 4    1  0.2193160E-006  0.1300000E+05  0.7957747E-01  0.1322471E+00
    9000001   -1    0    0    0    0  0.00000000000E+00  0.00000000000E+00  0.64999999231E+04  0.65000000000E+04  0.10000000000E+01 0.  0.
    9000001   -1    0    0    0    0 -0.00000000000E+00 -0.00000000000E+00 -0.64999999231E+04  0.65000000000E+04  0.10000000000E+01 0.  0.
    9000001    1    1    2    0    0  0.63808474906E+04 -0.74779810292E+03  0.98771569720E+03  0.65000000000E+04  0.10000000000E+01 0.  0.
    9000001    1    1    2    0    0 -0.63808474906E+04  0.74779810292E+03 -0.98771569720E+03  0.65000000000E+04  0.10000000000E+01 0.  0.
</event>
<event>
 4    1  0.2193160E-006  0.1300000E+05  0.7957747E-01  0.1322471E+00
    9000001   -1    0    0    0    0  0.00000000000E+00  0.00000000000E+00  0.64999999231E+04  0.65000000000E+04  0.10000000000E+01 0.  0.
    9000001   -1    0    0    0    0 -0.00000000000E+00 -0.00000000000E+00 -0.64999999231E+04  0.65000000000E+04  0.10000000000E+01 0.  0.
    9000001    1    1    2    0    0 -0.51338929960E+04  0.37511476007E+04  0.13498271679E+04  0.65000000000E+04  0.10000000000E+01 0.  0.
    9000001    1    1    2    0    0  0.51338929960E+04 -0.37511476007E+04 -0.13498271679E+04  0.65000000000E+04  0.10000000000E+01 0.  0.
</event>
<event>
 4    1  0.2193160E-006  0.1300000E+05  0.7957747E-01  0.1322471E+00
    9000001   -1    0    0    0    0  0.00000000000E+00  0.00000000000E+00  0.64999999231E+04  0.65000000000E+04  0.10000000000E+01 0.  0.
    9000001   -1    0    0    0    0 -0.00000000000E+00 -0.00000000000E+00 -0.64999999231E+04  0.65000000000E+04  0.10000000000E+01 0.  0.
    9000001    1    1    2    0    0 -0.21302024026E+04 -0.54572335066E+04 -0.28161745647E+04  0.65000000000E+04  0.10000000000E+01 0.  0.
    9000001    1    1    2    0    0  0.21302024026E+04  0.54572335066E+04  0.28161745647E+04  0.65000000000E+04  0.10000000000E+01 0.  0.
</event>
<event>
 4    1  0.2193160E-006  0.1300000E+05  0.7957747E-01  0.1322471E+00
    9000001   -1    0    0    0    0  0.00000000000E+00  0.00000000000E+00  0.64999999231E+04  0.65000000000E+04  0.10000000000E+01 0.  0.
    9000001   -1    0    0    0    0 -0.00000000000E+00 -0.00000000000E+00 -0.64999999231E+04  0.65000000000E+04  0.10000000000E+01 0.  0.
    9000001    1    1    2    0    0  0.22206622224E+04 -0.60032642793E+04 -0.11311393755E+04  0.65000000000E+04  0.10000000000E+01 0.  0.
    9000001    1    1    2    0    0 -0.22206622224E+04  0.60032642793E+04  0.11311393755E+04  0.65000000000E+04  0.10000000000E+01 0.  0.
</event>
<event>
 4    1  0.2193160E-006  0.1300000E+05  0.7957747E-01  0.1322471E+00
    9000001   -1    0    0    0    0  0.00000000000E+00  0.00000000000E+00  0.64999999231E+04  0.65000000000E+04  0.10000000000E+01 0.  0.
    9000001   -1    0    0    0    0 -0.00000000000E+00 -0.00000000000E+00 -0.64999999231E+04  0.65000000000E+04  0.10000000000E+01 0.  0.
    9000001    1    1    2    0    0  0.59371152955E+04  0.21622013510E+03 -0.26370267008E+04  0.65000000000E+04  0.10000000000E+01 0.  0.
    9000001    1    1    2    0    0 -0.59371152955E+04 -0.21622013510E+03  0.26370267008E+04  0.65000000000E+04  0.10000000000E+01 0.  0.
</event>
<event>
 4    1  0.2193160E-006  0.1300000E+05  0.7957747E-01  0.1322471E+00
    9000001   -1    0    0    0    0  0.00000000000E+00  0.00000000000E+00  0.64999999231E+04  0.65000000000E+04  0.10000000000E+01 0.  0.
    9000001   -1    0    0    0    0 -0.00000000000E+00 -0.00000000000E+00 -0.64999999231E+04  0.65000000000E+04  0.10000000000E+01 0.  0.
    9000001    1    1    2    0    0  0.54376284685E+04 -0.57187574651E+03  0.35149898675E+04  0.65000000000E+04  0.10000000000E+01 0.  0.
    9000001    1    1    2    0    0 -0.54376284685E+04  0.57187574651E+03 -0.35149898675E+04  0.65000000000E+04  0.10000000000E+01 0.  0.
</event>
<event>
 4    1  0.2193160E-006  0.1300000E+05  0.7957747E-01  0.1322471E+00
    9000001   -1    0    0    0    0  0.00000000000E+00  0.00000000000E+00  0.64999999231E+04  0.65000000000E+04  0.10000000000E+01 0.  0.
    9000001   -1    0    0    0    0 -0.00000000000E+00 -0.00000000000E+00 -0.64999999231E+04  0.65000000000E+04  0.10000000000E+01 0.  0.
    9000001    1    1    2    0    0  0.58272553389E+04  0.68717805806E+02  0.28789532957E+04  0.65000000000E+04  0.10000000000E+01 0.  0.
    9000001    1    1    2    0    0 -0.58272553389E+04 -0.68717805806E+02 -0.28789532957E+04  0.65000000000E+04  0.10000000000E+01 0.  0.
</event>
<event>
 4    1  0.2193160E-006  0.1300000E+05  0.7957747E-01  0.1322471E+00
    9000001   -1    0    0    0    0  0.00000000000E+00  0.00000000000E+00  0.64999999231E+04  0.65000000000E+04  0.10000000000E+01 0.  0.
    9000001   -1    0    0    0    0 -0.00000000000E+00 -0.00000000000E+00 -0.64999999231E+04  0.65000000000E+04  0.10000000000E+01 0.  0.
    9000001    1    1    2    0    0 -0.28641852742E+04 -0.57253929285E+04 -0.11253077489E+04  0.65000000000E+04  0.10000000000E+01 0.  0.
    9000001    1    1    2    0    0  0.28641852742E+04  0.57253929285E+04  0.11253077489E+04  0.65000000000E+04  0.10000000000E+01 0.  0.
</event>
<event>
 4    1  0.2193160E-006  0.1300000E+05  0.7957747E-01  0.1322471E+00
    9000001   -1    0    0    0    0  0.00000000000E+00  0.00000000000E+00  0.64999999231E+04  0.65000000000E+04  0.10000000000E+01 0.  0.
    9000001   -1    0    0    0    0 -0.00000000000E+00 -0.00000000000E+00 -0.64999999231E+04  0.65000000000E+04  0.10000000000E+01 0.  0.
    9000001    1    1    2    0    0  0.96120836632E+03  0.74152432252E+03  0.63856259799E+04  0.65000000000E+04  0.10000000000E+01 0.  0.
    9000001    1    1    2    0    0 -0.96120836632E+03 -0.74152432252E+03 -0.63856259799E+04  0.65000000000E+04  0.10000000000E+01 0.  0.
</event>
<event>
 4    1  0.2193160E-006  0.1300000E+05  0.7957747E-01  0.1322471E+00
    9000001   -1    0    0    0    0  0.00000000000E+00  0.00000000000E+00  0.64999999231E+04  0.65000000000E+04  0.10000000000E+01 0.  0.
    9000001   -1    0    0    0    0 -0.00000000000E+00 -0.00000000000E+00 -0.64999999231E+04  0.65000000000E+04  0.10000000000E+01 0.  0.
    9000001    1    1    2    0    0  0.31882444056E+04 -0.29086346890E+04  0.48605494397E+04  0.65000000000E+04  0.10000000000E+01 0.  0.
    9000001    1    1    2    0    0 -0.31882444056E+04  0.29086346890E+04 -0.48605494397E+04  0.65000000000E+04  0.10000000000E+01 0.  0.
</event>
<event>
 4    1  0.2193160E-006  0.1300000E+05  0.7957747E-01  0.1322471E+00
    9000001   -1    0    0    0    0  0.00000000000E+00  0.00000000000E+00  0.64999999231E+04  0.65000000000E+04  0.10000000000E+01 0.  0.
    9000001   -1    0    0    0    0 -0.00000000000E+00 -0.00000000000E+00 -0.64999999231E+04  0.65000000000E+04  0.10000000000E+01 0.  0.
    9000001    1    1    2    0    0 -0.19193456886E+04 -0.60517876745E+04 -0.13935483739E+04  0.65000000000E+04  0.10000000000E+01 0.  0.
    9000001    1    1    2    0    0  0.19193456886E+04  0.60517876745E+04  0.13935483739E+04  0.65000000000E+04  0.10000000000E+01 0.  0.
</event>
<event>
 4    1  0.2193160E-006  0.1300000E+05  0.7957747E-01  0.1322471E+00
    9000001   -1    0    0    0    0  0.00000000000E+00  0.00000000000E+00  0.64999999231E+04  0.65000000000E+04  0.10000000000E+01 0.  0.
    9000001   -1    0    0    0    0 -0.00000000000E+00 -0.00000000000E+00 -0.64999999231E+04  0.65000000000E+04  0.10000000000E+01 0.  0.
    9000001    1    1    2    0    0 -0.37536278584E+04 -0.20590778307E+03  0.53026294313E+04  0.65000000000E+04  0.10000000000E+01 0.  0.
    9000001    1    1    2    0    0  0.37536278584E+04  0.20590778307E+03 -0.53026294313E+04  0.65000000000E+04  0.10000000000E+01 0.  0.
</event>
<event>
 4    1  0.2193160E-006  0.1300000E+05  0.7957747E-01  0.1322471E+00
    9000001   -1    0    0    0    0  0.00000000000E+00  0.00000000000E+00  0.64999999231E+04  0.65000000000E+04  0.10000000000E+01 0.  0.
    9000001   -1    0    0    0    0 -0.00000000000E+00 -0.00000000000E+00 -0.64999999231E+04  0.65000000000E+04  0.10000000000E+01 0.  0.
    9000001    1    1    2    0    0  0.32192846903E+04  0.13781455896E+04 -0.54760313930E+04  0.65000000000E+04  0.10000000000E+01 0.  0.
    9000001    1    1    2    0    0 -0.32192846903E+04 -0.13781455896E+04  0.54760313930E+04  0.65000000000E+04  0.10000000000E+01 0.  0.
</event>
<event>
 4    1  0.2193160E-006  0.1300000E+05  0.7957747E-01  0.1322471E+00
    9000001   -1    0    0    0    0  0.00000000000E+00  0.00000000000E+00  0.64999999231E+04  0.65000000000E+04  0.10000000000E+01 0.  0.
    9000001   -1    0    0    0    0 -0.00000000000E+00 -0.00000000000E+00 -0.64999999231E+04  0.65000000000E+04  0.10000000000E+01 0.  0.
    9000001    1    1    2    0    0 -0.16421904619E+04  0.45702315828E+04 -0.43204389553E+04  0.65000000000E+04  0.10000000000E+01 0.  0.
    9000001    1    1    2    0    0  0.16421904619E+04 -0.45702315828E+04  0.43204389553E+04  0.65000000000E+04  0.10000000000E+01 0.  0.
</event>
<event>
 4    1  0.2193160E-006  0.1300000E+05  0.7957747E-01  0.1322471E+00
    9000001   -1    0    0    0    0  0.00000000000E+00  0.00000000000E+00  0.64999999231E+04  0.65000000000E+04  0.10000000000E+01 0.  0.
    9000001   -1    0    0    0    0 -0.00000000000E+00 -0.00000000000E+00 -0.64999999231E+04  0.65000000000E+04  0.10000000000E+01 0.  0.
    9000001    1    1    2    0    0  0.23660487274E+04  0.12485206230E+04  0.59239352354E+04  0.65000000000E+04  0.10000000000E+01 0.  0.
    9000001    1    1    2    0    0 -0.23660487274E+04 -0.12485206230E+04 -0.59239352354E+04  0.65000000000E+04  0.10000000000E+01 0.  0.
</event>
<event>
 4    1  0.2193160E-006  0.1300000E+05  0.7957747E-01  0.1322471E+00
    9000001   -1    0    0    0    0  0.00000000000E+00  0.00000000000E+00  0.64999999231E+04  0.65000000000E+04  0.10000000000E+01 0.  0.
    9000001   -1    0    0    0    0 -0.00000000000E+00 -0.00000000000E+00 -0.64999999231E+04  0.65000000000E+04  0.10000000000E+01 0.  0.
    9000001    1    1    2    0    0  0.11929240245E+04 -0.58840360770E+04 -0.24909939212E+04  0.65000000000E+04  0.10000000000E+01 0.  0.
    9000001    1    1    2    0    0 -0.11929240245E+04  0.58840360770E+04  0.24909939212E+04  0.65000000000E+04  0.10000000000E+01 0.  0.
</event>
<event>
 4    1  0.2193160E-006  0.1300000E+05  0.7957747E-01  0.1322471E+00
    9000001   -1    0    0    0    0  0.00000000000E+00  0.00000000000E+00  0.64999999231E+04  0.65000000000E+04  0.10000000000E+01 0.  0.
    9000001   -1    0    0    0    0 -0.00000000000E+00 -0.00000000000E+00 -0.64999999231E+04  0.65000000000E+04  0.10000000000E+01 0.  0.
    9000001    1    1    2    0    0 -0.40744575504E+04 -0.41320253305E+04  0.29283376408E+04  0.65000000000E+04  0.10000000000E+01 0.  0.
    9000001    1    1    2    0    0  0.40744575504E+04  0.41320253305E+04 -0.29283376408E+04  0.65000000000E+04  0.10000000000E+01 0.  0.
</event>
<event>
 4    1  0.2193160E-006  0.1300000E+05  0.7957747E-01  0.1322471E+00
    9000001   -1    0    0    0    0  0.00000000000E+00  0.00000000000E+00  0.64999999231E+04  0.65000000000E+04  0.10000000000E+01 0.  0.
    9000001   -1    0    0    0    0 -0.00000000000E+00 -0.00000000000E+00 -0.64999999231E+04  0.65000000000E+04  0.10000000000E+01 0.  0.
    9000001    1    1    2    0    0 -0.50990691103E+04 -0.37073099733E+04  0.15828284717E+04  0.65000000000E+04  0.10000000000E+01 0.  0.
    9000001    1    1    2    0    0  0.50990691103E+04  0.37073099733E+04 -0.15828284717E+04  0.65000000000E+04  0.10000000000E+01 0.  0.
</event>
<event>
 4    1  0.2193160E-006  0.1300000E+05  0.7957747E-01  0.1322471E+00
    9000001   -1    0    0    0    0  0.00000000000E+00  0.00000000000E+00  0.64999999231E+04  0.65000000000E+04  0.10000000000E+01 0.  0.
    9000001   -1    0    0    0    0 -0.00000000000E+00 -0.00000000000E+00 -0.64999999231E+04  0.65000000000E+04  0.10000000000E+01 0.  0.
    9000001    1    1    2    0    0 -0.25145949622E+02 -0.63174718217E+04 -0.15293516481E+04  0.65000000000E+04  0.10000000000E+01 0.  0.
    9000001    1    1    2    0    0  0.25145949622E+02  0.63174718217E+04  0.15293516481E+04  0.65000000000E+04  0.10000000000E+01 0.  0.
</event>
<event>
 4    1  0.2193160E-006  0.1300000E+05  0.7957747E-01  0.1322471E+00
    9000001   -1    0    0    0    0  0.00000000000E+00  0.00000000000E+00  0.64999999231E+04  0.65000000000E+04  0.10000000000E+01 0.  0.
    9000001   -1    0    0    0    0 -0.00000000000E+00 -0.00000000000E+00 -0.64999999231E+04  0.65000000000E+04  0.10000000000E+01 0.  0.
    9000001    1    1    2    0    0 -0.53309543137E+04  0.90578467913E+03  0.36070041892E+04  0.65000000000E+04  0.10000000000E+01 0.  0.
    9000001    1    1    2    0    0  0.53309543137E+04 -0.90578467913E+03 -0.36070041892E+04  0.65000000000E+04  0.10000000000E+01 0.  0.
</event>
<event>
 4    1  0.2193160E-006  0.1300000E+05  0.7957747E-01  0.1322471E+00
    9000001   -1    0    0    0    0  0.00000000000E+00  0.00000000000E+00  0.64999999231E+04  0.65000000000E+04  0.10000000000E+01 0.  0.
    9000001   -1    0    0    0    0 -0.00000000000E+00 -0.00000000000E+00 -0.64999999231E+04  0.65000000000E+04  0.10000000000E+01 0.  0.
    9000001    1    1    2    0    0 -0.48180658071E+04 -0.27399460345E+04 -0.33954287809E+04  0.65000000000E+04  0.10000000000E+01 0.  0.
    9000001    1    1    2    0    0  0.48180658071E+04  0.27399460345E+04  0.33954287809E+04  0.65000000000E+04  0.10000000000E+01 0.  0.
</event>
<event>
 4    1  0.2193160E-006  0.1300000E+05  0.7957747E-01  0.1322471E+00
    9000001   -1    0    0    0    0  0.00000000000E+00  0.00000000000E+00  0.64999999231E+04  0.65000000000E+04  0.10000000000E+01 0.  0.
    9000001   -1    0    0    0    0 -0.00000000000E+00 -0.00000000000E+00 -0.64999999231E+04  0.65000000000E+04  0.10000000000E+01 0.  0.
    9000001    1    1    2    0    0 -0.11510014286E+04  0.62616331376E+04 -0.13103988559E+04  0.65000000000E+04  0.10000000000E+01 0.  0.
    9000001    1    1    2    0    0  0.11510014286E+04 -0.62616331376E+04  0.13103988559E+04  0.65000000000E+04  0.10000000000E+01 0.  0.
</event>
<event>
 4    1  0.2193160E-006  0.1300000E+05  0.7957747E-01  0.1322471E+00
    9000001   -1    0    0    0    0  0.00000000000E+00  0.00000000000E+00  0.64999999231E+04  0.65000000000E+04  0.10000000000E+01 0.  0.
    9000001   -1    0    0    0    0 -0.00000000000E+00 -0.00000000000E+00 -0.64999999231E+04  0.65000000000E+04  0.10000000000E+01 0.  0.
    9000001    1    1    2    0    0 -0.29683296294E+03  0.18184326481E+03  0.64906719390E+04  0.65000000000E+04  0.10000000000E+01 0.  0.
    9000001    1    1    2    0    0  0.29683296294E+03 -0.18184326481E+03 -0.64906719390E+04  0.65000000000E+04  0.10000000000E+01 0.  0.
</event>
<event>
 4    1  0.2193160E-006  0.1300000E+05  0.7957747E-01  0.1322471E+00
    9000001   -1    0    0    0    0  0.00000000000E+00  0.00000000000E+00  0.64999999231E+04  0.65000000000E+04  0.10000000000E+01 0.  0.
    9000001   -1    0    0    0    0 -0.00000000000E+00 -0.00000000000E+00 -0.64999999231E+04  0.65000000000E+04  0.10000000000E+01 0.  0.
    9000001    1    1    2    0    0 -0.53000366083E+04 -0.14338229388E+04 -0.34790462386E+04  0.65000000000E+04  0.10000000000E+01 0.  0.
    9000001    1    1    2    0    0  0.53000366083E+04  0.14338229388E+04  0.34790462386E+04  0.65000000000E+04  0.10000000000E+01 0.  0.
</event>
<event>
 4    1  0.2193160E-006  0.1300000E+05  0.7957747E-01  0.1322471E+00
    9000001   -1    0    0    0    0  0.00000000000E+00  0.00000000000E+00  0.64999999231E+04  0.65000000000E+04  0.10000000000E+01 0.  0.
    9000001   -1    0    0    0    0 -0.00000000000E+00 -0.00000000000E+00 -0.64999999231E+04  0.65000000000E+04  0.10000000000E+01 0.  0.
    9000001    1    1    2    0    0  0.52377553514E+04 -0.10203827739E+03  0.38477923630E+04  0.65000000000E+04  0.10000000000E+01 0.  0.
    9000001    1    1    2    0    0 -0.52377553514E+04  0.10203827739E+03 -0.38477923630E+04  0.65000000000E+04  0.10000000000E+01 0.  0.
</event>
<event>
 4    1  0.2193160E-006  0.1300000E+05  0.7957747E-01  0.1322471E+00
    9000001   -1    0    0    0    0  0.00000000000E+00  0.00000000000E+00  0.64999999231E+04  0.65000000000E+04  0.10000000000E+01 0.  0.
    9000001   -1    0    0    0    0 -0.00000000000E+00 -0.00000000000E+00 -0.64999999231E+04  0.65000000000E+04  0.10000000000E+01 0.  0.
    9000001    1    1    2    0    0  0.43730957528E+04  0.99690159090E+03  0.47044893192E+04  0.65000000000E+04  0.10000000000E+01 0.  0.
    9000001    1    1    2    0    0 -0.43730957528E+04 -0.99690159090E+03 -0.47044893192E+04  0.65000000000E+04  0.10000000000E+01 0.  0.
</event>
<event>
 4    1  0.2193160E-006  0.1300000E+05  0.7957747E-01  0.1322471E+00
    9000001   -1    0    0    0    0  0.00000000000E+00  0.00000000000E+00  0.64999999231E+04  0.65000000000E+04  0.10000000000E+01 0.  0.
    9000001   -1    0    0    0    0 -0.00000000000E+00 -0.00000000000E+00 -0.64999999231E+04  0.65000000000E+04  0.10000000000E+01 0.  0.
    9000001    1    1    2    0    0 -0.45495527888E+04 -0.37626188629E+03  0.46270936250E+04  0.65000000000E+04  0.10000000000E+01 0.  0.
    9000001    1    1    2    0    0  0.45495527888E+04  0.37626188629E+03 -0.46270936250E+04  0.65000000000E+04  0.10000000000E+01 0.  0.
</event>
<event>
 4    1  0.2193160E-006  0.1300000E+05  0.7957747E-01  0.1322471E+00
    9000001   -1    0    0    0    0  0.00000000000E+00  0.00000000000E+00  0.64999999231E+04  0.65000000000E+04  0.10000000000E+01 0.  0.
    9000001   -1    0    0    0    0 -0.00000000000E+00 -0.00000000000E+00 -0.64999999231E+04  0.65000000000E+04  0.10000000000E+01 0.  0.
    9000001    1    1    2    0    0 -0.44776117555E+04 -0.28998575928E+03  0.47028608555E+04  0.65000000000E+04  0.10000000000E+01 0.  0.
    9000001    1    1    2    0    0  0.44776117555E+04  0.28998575928E+03 -0.47028608555E+04  0.65000000000E+04  0.10000000000E+01 0.  0.
</event>
<event>
 4    1  0.2193160E-006  0.1300000E+05  0.7957747E-01  0.1322471E+00
    9000001   -1    0    0    0    0  0.00000000000E+00  0.00000000000E+00  0.64999999231E+04  0.65000000000E+04  0.10000000000E+01 0.  0.
    9000001   -1    0    0    0    0 -0.00000000000E+00 -0.00000000000E+00 -0.64999999231E+04  0.65000000000E+04  0.10000000000E+01 0.  0.
    9000001    1    1    2    0    0 -0.62420440782E+04  0.17706127955E+04  0.38963451368E+03  0.65000000000E+04  0.10000000000E+01 0.  0.
    9000001    1    1    2    0    0  0.62420440782E+04 -0.17706127955E+04 -0.38963451368E+03  0.65000000000E+04  0.10000000000E+01 0.  0.
</event>
<event>
 4    1  0.2193160E-006  0.1300000E+05  0.7957747E-01  0.1322471E+00
    9000001   -1    0    0    0    0  0.00000000000E+00  0.00000000000E+00  0.64999999231E+04  0.65000000000E+04  0.10000000000E+01 0.  0.
    9000001   -1    0    0    0    0 -0.00000000000E+00 -0.00000000000E+00 -0.64999999231E+04  0.65000000000E+04  0.10000000000E+01 0.  0.
    9000001    1    1    2    0    0  0.15827756862E+04 -0.62876218585E+04  0.45894606547E+03  0.65000000000E+04  0.10000000000E+01 0.  0.
    9000001    1    1    2    0    0 -0.15827756862E+04  0.62876218585E+04 -0.45894606547E+03  0.65000000000E+04  0.10000000000E+01 0.  0.
</event>
<event>
 4    1  0.2193160E-006  0.1300000E+05  0.7957747E-01  0.1322471E+00
    9000001   -1    0    0    0    0  0.00000000000E+00  0.00000000000E+00  0.64999999231E+04  0.65000000000E+04  0.10000000000E+01 0.  0.
    9000001   -1    0    0    0    0 -0.00000000000E+00 -0.00000000000E+00 -0.64999999231E+04  0.65000000000E+04  0.10000000000E+01 0.  0.
    9000001    1    1    2    0    0 -0.53170737227E+04  0.30336965683E+04 -0.21852714153E+04  0.65000000000E+04  0.10000000000E+01 0.  0.
    9000001    1    1    2    0    0  0.53170737227E+04 -0.30336965683E+04  0.21852714153E+04  0.65000000000E+04  0.10000000000E+01 0.  0.
</event>
<event>
 4    1  0.2193160E-006  0.1300000E+05  0.7957747E-01  0.1322471E+00
    9000001   -1    0    0    0    0  0.00000000000E+00  0.00000000000E+00  0.64999999231E+04  0.65000000000E+04  0.10000000000E+01 0.  0.
    9000001   -1    0    0    0    0 -0.00000000000E+00 -0.00000000000E+00 -0.64999999231E+04  0.65000000000E+04  0.10000000000E+01 0.  0.
    9000001    1    1    2    0    0  0.92495519757E+02  0.50061837628E+04 -0.41448242076E+04  0.65000000000E+04  0.10000000000E+01 0.  0.
    9000001    1    1    2    0    0 -0.92495519757E+02 -0.50061837628E+04  0.41448242076E+04  0.65000000000E+04  0.10000000000E+01 0.  0.
</event>
<event>
 4    1  0.2193160E-006  0.1300000E+05  0.7957747E-01  0.1322471E+00
    9000001   -1    0    0    0    0  0.00000000000E+00  0.00000000000E+00  0.64999999231E+04  0.65000000000E+04  0.10000000000E+01 0.  0.
    9000001   -1    0    0    0    0 -0.00000000000E+00 -0.00000000000E+00 -0.64999999231E+04  0.65000000000E+04  0.10000000000E+01 0.  0.
    9000001    1    1    2    0    0  0.34366234463E+04 -0.55022795048E+04 -0.40563350378E+03  0.65000000000E+04  0.10000000000E+01 0.  0.
    9000001    1    1    2    0    0 -0.34366234463E+04  0.55022795048E+04  0.40563350378E+03  0.65000000000E+04  0.10000000000E+01 0.  0.
</event>
<event>
 4    1  0.2193160E-006  0.1300000E+05  0.7957747E-01  0.1322471E+00
    9000001   -1    0    0    0    0  0.00000000000E+00  0.00000000000E+00  0.64999999231E+04  0.65000000000E+04  0.10000000000E+01 0.  0.
    9000001   -1    0    0    0    0 -0.00000000000E+00 -0.00000000000E+00 -0.64999999231E+04  0.65000000000E+04  0.10000000000E+01 0.  0.
    9000001    1    1    2    0    0  0.62904404672E+03  0.61333318651E+04  0.20582863795E+04  0.65000000000E+04  0.10000000000E+01 0.  0.
    9000001    1    1    2    0    0 -0.62904404672E+03 -0.61333318651E+04 -0.20582863795E+04  0.65000000000E+04  0.10000000000E+01 0.  0.
</event>
<event>
 4    1  0.2193160E-006  0.1300000E+05  0.7957747E-01  0.1322471E+00
    9000001   -1    0    0    0    0  0.00000000000E+00  0.00000000000E+00  0.64999999231E+04  0.65000000000E+04  0.10000000000E+01 0.  0.
    9000001   -1    0    0    0    0 -0.00000000000E+00 -0.00000000000E+00 -0.64999999231E+04  0.65000000000E+04  0.10000000000E+01 0.  0.
    9000001    1    1    2    0    0 -0.55963075212E+04  0.31530916354E+04 -0.99466289105E+03  0.65000000000E+04  0.10000000000E+01 0.  0.
    9000001    1    1    2    0    0  0.55963075212E+04 -0.31530916354E+04  0.99466289105E+03  0.65000000000E+04  0.10000000000E+01 0.  0.
</event>
<event>
 4    1  0.2193160E-006  0.1300000E+05  0.7957747E-01  0.1322471E+00
    9000001   -1    0    0    0    0  0.00000000000E+00  0.00000000000E+00  0.64999999231E+04  0.65000000000E+04  0.10000000000E+01 0.  0.
    9000001   -1    0    0    0    0 -0.00000000000E+00 -0.00000000000E+00 -0.64999999231E+04  0.65000000000E+04  0.10000000000E+01 0.  0.
    9000001    1    1    2    0    0 -0.17423966077E+04  0.53733971626E+04  0.32156890388E+04  0.65000000000E+04  0.10000000000E+01 0.  0.
    9000001    1    1    2    0    0  0.17423966077E+04 -0.53733971626E+04 -0.32156890388E+04  0.65000000000E+04  0.10000000000E+01 0.  0.
</event>
<event>
 4    1  0.2193160E-006  0.1300000E+05  0.7957747E-01  0.1322471E+00
    9000001   -1    0    0    0    0  0.00000000000E+00  0.00000000000E+00  0.64999999231E+04  0.65000000000E+04  0.10000000000E+01 0.  0.
    9000001   -1    0    0    0    0 -0.00000000000E+00 -0.00000000000E+00 -0.64999999231E+04  0.65000000000E+04  0.10000000000E+01 0.  0.
    9000001    1    1    2    0    0 -0.21684654787E+04 -0.61235746129E+04 -0.22268908335E+03  0.65000000000E+04  0.10000000000E+01 0.  0.
    9000001    1    1    2    0    0  0.21684654787E+04  0.61235746129E+04  0.22268908335E+03  0.65000000000E+04  0.10000000000E+01 0.  0.
</event>
<event>
 4    1  0.2193160E-006  0.1300000E+05  0.7957747E-01  0.1322471E+00
    9000001   -1    0    0    0    0  0.00000000000E+00  0.00000000000E+00  0.64999999231E+04  0.65000000000E+04  0.10000000000E+01 0.  0.
    9000001   -1    0    0    0    0 -0.00000000000E+00 -0.00000000000E+00 -0.64999999231E+04  0.65000000000E+04  0.10000000000E+01 0.  0.
    9000001    1    1    2    0    0  0.43237076590E+04  0.43992885579E+04 -0.20498320088E+04  0.65000000000E+04  0.10000000000E+01 0.  0.
    9000001    1    1    2    0    0 -0.43237076590E+04 -0.43992885579E+04  0.20498320088E+04  0.65000000000E+04  0.10000000000E+01 0.  0.
</event>
<event>
 4    1  0.2193160E-006  0.1300000E+05  0.7957747E-01  0.1322471E+00
    9000001   -1    0    0    0    0  0.00000000000E+00  0.00000000000E+00  0.64999999231E+04  0.65000000000E+04  0.10000000000E+01 0.  0.
    9000001   -1    0    0    0    0 -0.00000000000E+00 -0.00000000000E+00 -0.64999999231E+04  0.65000000000E+04  0.10000000000E+01 0.  0.
    9000001    1    1    2    0    0  0.80808164742E+03  0.49839534172E+04 -0.40935573022E+04  0.65000000000E+04  0.10000000000E+01 0.  0.
    9000001    1    1    2    0    0 -0.80808164742E+03 -0.49839534172E+04  0.40935573022E+04  0.65000000000E+04  0.10000000000E+01 0.  0.
</event>
<event>
 4    1  0.2193160E-006  0.1300000E+05  0.7957747E-01  0.1322471E+00
    9000001   -1    0    0    0    0  0.00000000000E+00  0.00000000000E+00  0.64999999231E+04  0.65000000000E+04  0.10000000000E+01 0.  0.
    9000001   -1    0    0    0    0 -0.00000000000E+00 -0.00000000000E+00 -0.64999999231E+04  0.65000000000E+04  0.10000000000E+01 0.  0.
    9000001    1    1    2    0    0  0.14318190054E+04 -0.32204646107E+04 -0.54615474938E+04  0.65000000000E+04  0.10000000000E+01 0.  0.
    9000001    1    1    2    0    0 -0.14318190054E+04  0.32204646107E+04  0.54615474938E+04  0.65000000000E+04  0.10000000000E+01 0.  0.
</event>
<event>
 4    1  0.2193160E-006  0.1300000E+05  0.7957747E-01  0.1322471E+00
    9000001   -1    0    0    0    0  0.00000000000E+00  0.00000000000E+00  0.64999999231E+04  0.65000000000E+04  0.10000000000E+01 0.  0.
    9000001   -1    0    0    0    0 -0.00000000000E+00 -0.00000000000E+00 -0.64999999231E+04  0.65000000000E+04  0.10000000000E+01 0.  0.
    9000001    1    1    2    0    0 -0.12442306169E+04 -0.27960627931E+04  0.57344504557E+04  0.65000000000E+04  0.10000000000E+01 0.  0.
    9000001    1    1    2    0    0  0.12442306169E+04  0.27960627931E+04 -0.57344504557E+04  0.65000000000E+04  0.10000000000E+01 0.  0.
</event>
<event>
 4    1  0.2193160E-006  0.1300000E+05  0.7957747E-01  0.1322471E+00
    9000001   -1    0    0    0    0  0.00000000000E+00  0.00000000000E+00  0.64999999231E+04  0.65000000000E+04  0.10000000000E+01 0.  0.
    9000001   -1    0    0    0    0 -0.00000000000E+00 -0.00000000000E+00 -0.64999999231E+04  0.65000000000E+04  0.10000000000E+01 0.  0.
    9000001    1    1    2    0    0 -0.70748004971E+03  0.55453284945E+04 -0.33164443109E+04  0.65000000000E+04  0.10000000000E+01 0.  0.
    9000001    1    1    2    0    0  0.70748004971E+03 -0.55453284945E+04  0.33164443109E+04  0.65000000000E+04  0.10000000000E+01 0.  0.
</event>
<event>
 4    1  0.2193160E-006  0.1300000E+05  0.7957747E-01  0.1322471E+00
    9000001   -1    0    0    0    0  0.00000000000E+00  0.00000000000E+00  0.64999999231E+04  0.65000000000E+04  0.10000000000E+01 0.  0.
    9000001   -1    0    0    0    0 -0.00000000000E+00 -0.00000000000E+00 -0.64999999231E+04  0.65000000000E+04  0.10000000000E+01 0.  0.
    9000001    1    1    2    0    0 -0.15776597856E+04  0.61015981422E+04 -0.15910652759E+04  0.65000000000E+04  0.10000000000E+01 0.  0.
    9000001    1    1    2    0    0  0.15776597856E+04 -0.61015981422E+04  0.15910652759E+04  0.65000000000E+04  0.10000000000E+01 0.  0.
</event>
<event>
 4    1  0.2193160E-006  0.1300000E+05  0.7957747E-01  0.1322471E+00
    9000001   -1    0    0    0    0  0.00000000000E+00  0.00000000000E+00  0.64999999231E+04  0.65000000000E+04  0.10000000000E+01 0.  0.
    9000001   -1    0    0    0    0 -0.00000000000E+00 -0.00000000000E+00 -0.64999999231E+04  0.65000000000E+04  0.10000000000E+01 0.  0.
    9000001    1    1    2    0    0 -0.33210513723E+02 -0.54834109173E+04  0.34901433745E+04  0.65000000000E+04  0.10000000000E+01 0.  0.
    9000001    1    1    2    0    0  0.33210513723E+02  0.54834109173E+04 -0.34901433745E+04  0.65000000000E+04  0.10000000000E+01 0.  0.
</event>
<event>
 4    1  0.2193160E-006  0.1300000E+05  0.7957747E-01  0.1322471E+00
    9000001   -1    0    0    0    0  0.00000000000E+00  0.00000000000E+00  0.64999999231E+04  0.65000000000E+04  0.10000000000E+01 0.  0.
    9000001   -1    0    0    0    0 -0.00000000000E+00 -0.00000000000E+00 -0.64999999231E+04  0.65000000000E+04  0.10000000000E+01 0.  0.
    9000001    1    1    2    0    0  0.12718252093E+04  0.56847172974E+04  0.28838253910E+04  0.65000000000E+04  0.10000000000E+01 0.  0.
    9000001    1    1    2    0    0 -0.12718252093E+04 -0.56847172974E+04 -0.28838253910E+04  0.65000000000E+04  0.10000000000E+01 0.  0.
</event>
<event>
 4    1  0.2193160E-006  0.1300000E+05  0.7957747E-01  0.1322471E+00
    9000001   -1    0    0    0    0  0.00000000000E+00  0.00000000000E+00  0.64999999231E+04  0.65000000000E+04  0.10000000000E+01 0.  0.
    9000001   -1    0    0    0    0 -0.00000000000E+00 -0.00000000000E+00 -0.64999999231E+04  0.65000000000E+04  0.10000000000E+01 0.  0.
    9000001    1    1    2    0    0  0.46356427770E+04 -0.45062618216E+04 -0.67410639993E+03  0.65000000000E+04  0.10000000000E+01 0.  0.
    9000001    1    1    2    0    0 -0.46356427770E+04  0.45062618216E+04  0.67410639993E+03  0.65000000000E+04  0.10000000000E+01 0.  0.
</event>
<event>
 4    1  0.2193160E-006  0.1300000E+05  0.7957747E-01  0.1322471E+00
    9000001   -1    0    0    0    0  0.00000000000E+00  0.00000000000E+00  0.64999999231E+04  0.65000000000E+04  0.10000000000E+01 0.  0.
    9000001   -1    0    0    0    0 -0.00000000000E+00 -0.00000000000E+00 -0.64999999231E+04  0.65000000000E+04  0.10000000000E+01 0.  0.
    9000001    1    1    2    0    0 -0.58655117332E+04 -0.27203525797E+04 -0.66742261685E+03  0.65000000000E+04  0.10000000000E+01 0.  0.
    9000001    1    1    2    0    0  0.58655117332E+04  0.27203525797E+04  0.66742261685E+03  0.65000000000E+04  0.10000000000E+01 0.  0.
</event>
<event>
 4    1  0.2193160E-006  0.1300000E+05  0.7957747E-01  0.1322471E+00
    9000001   -1    0    0    0    0  0.00000000000E+00  0.00000000000E+00  0.64999999231E+04  0.65000000000E+04  0.10000000000E+01 0.  0.
    9000001   -1    0    0    0    0 -0.00000000000E+00 -0.00000000000E+00 -0.64999999231E+04  0.65000000000E+04  0.10000000000E+01 0.  0.
    9000001    1    1    2    0    0  0.29277265589E+04  0.55141604412E+04 -0.18089916597E+04  0.65000000000E+04  0.10000000000E+01 0.  0.
    9000001    1    1    2    0    0 -0.29277265589E+04 -0.55141604412E+04  0.18089916597E+04  0.65000000000E+04  0.10000000000E+01 0.  0.
</event>
<event>
 4    1  0.2193160E-006  0.1300000E+05  0.7957747E-01  0.1322471E+00
    9000001   -1    0    0    0    0  0.00000000000E+00  0.00000000000E+00  0.64999999231E+04  0.65000000000E+04  0.10000000000E+01 0.  0.
    9000001   -1    0    0    0    0 -0.00000000000E+00 -0.00000000000E+00 -0.64999999231E+04  0.65000000000E+04  0.10000000000E+01 0.  0.
    9000001    1    1    2    0    0 -0.28329438429E+04 -0.53801637843E+04 -0.22974476788E+04  0.65000000000E+04  0.10000000000E+01 0.  0.
    9000001    1    1    2    0    0  0.28329438429E+04  0.53801637843E+04  0.22974476788E+04  0.65000000000E+04  0.10000000000E+01 0.  0.
</event>
<event>
 4    1  0.2193160E-006  0.1300000E+05  0.7957747E-01  0.1322471E+00
    9000001   -1    0    0    0    0  0.00000000000E+00  0.00000000000E+00  0.64999999231E+04  0.65000000000E+04  0.10000000000E+01 0.  0.
    9000001   -1    0    0    0    0 -0.00000000000E+00 -0.00000000000E+00 -0.64999999231E+04  0.65000000000E+04  0.10000000000E+01 0.  0.
    9000001    1    1    2    0    0  0.32367613107E+04  0.29606305872E+04 -0.47966698598E+04  0.65000000000E+04  0.10000000000E+01 0.  0.
    9000001    1    1    2    0    0 -0.32367613107E+04 -0.29606305872E+04  0.47966698598E+04  0.65000000000E+04  0.10000000000E+01 0.  0.
</event>
<event>
 4    1  0.2193160E-006  0.1300000E+05  0.7957747E-01  0.1322471E+00
    9000001   -1    0    0    0    0  0.00000000000E+00  0.00000000000E+00  0.64999999231E+04  0.65000000000E+04  0.10000000000E+01 0.  0.
    9000001   -1    0    0    0    0 -0.00000000000E+00 -0.00000000000E+00 -0.64999999231E+04  0.65000000000E+04  0.10000000000E+01 0.  0.
    9000001    1    1    2    0    0 -0.57002907066E+04 -0.31016956768E+04  0.36901055378E+03  0.65000000000E+04  0.10000000000E+01 0.  0.
    9000001    1    1    2    0    0  0.57002907066E+04  0.31016956768E+04 -0.36901055378E+03  0.65000000000E+04  0.10000000000E+01 0.  0.
</event>
<event>
 4    1  0.2193160E-006  0.1300000E+05  0.7957747E-01  0.1322471E+00
    9000001   -1    0    0    0    0  0.00000000000E+00  0.00000000000E+00  0.64999999231E+04  0.65000000000E+04  0.10000000000E+01 0.  0.
    9000001   -1    0    0    0    0 -0.00000000000E+00 -0.00000000000E+00 -0.64999999231E+04  0.65000000000E+04  0.10000000000E+01 0.  0.
    9000001    1    1    2    0    0  0.40644298787E+04 -0.31895059754E+04  0.39442946637E+04  0.65000000000E+04  0.10000000000E+01 0.  0.
    9000001    1    1    2    0    0 -0.40644298787E+04  0.31895059754E+04 -0.39442946637E+04  0.65000000000E+04  0.10000000000E+01 0.  0.
</event>
<event>
 4    1  0.2193160E-006  0.1300000E+05  0.7957747E-01  0.1322471E+00
    9000001   -1    0    0    0    0  0.00000000000E+00  0.00000000000E+00  0.64999999231E+04  0.65000000000E+04  0.10000000000E+01 0.  0.
    9000001   -1    0    0    0    0 -0.00000000000E+00 -0.00000000000E+00 -0.64999999231E+04  0.65000000000E+04  0.10000000000E+01 0.  0.
    9000001    1    1    2    0    0  0.53182070957E+03 -0.58196187656E+04  0.28459098996E+04  0.65000000000E+04  0.10000000000E+01 0.  0.
    9000001    1    1    2    0    0 -0.53182070957E+03  0.58196187656E+04 -0.28459098996E+04  0.65000000000E+04  0.10000000000E+01 0.  0.
</event>
<event>
 4    1  0.2193160E-006  0.1300000E+05  0.7957747E-01  0.1322471E+00
    9000001   -1    0    0    0    0  0.00000000000E+00  0.00000000000E+00  0.64999999231E+04  0.65000000000E+04  0.10000000000E+01 0.  0.
    9000001   -1    0    0    0    0 -0.00000000000E+00 -0.00000000000E+00 -0.64999999231E+04  0.65000000000E+04  0.10000000000E+01 0.  0.
    9000001    1    1    2    0    0  0.22462453567E+04 -0.35190400717E+04 -0.49820415264E+04  0.65000000000E+04  0.10000000000E+01 0.  0.
    9000001    1    1    2    0    0 -0.22462453567E+04  0.35190400717E+04  0.49820415264E+04  0.65000000000E+04  0.10000000000E+01 0.  0.
</event>
<event>
 4    1  0.2193160E-006  0.1300000E+05  0.7957747E-01  0.1322471E+00
    9000001   -1    0    0    0    0  0.00000000000E+00  0.00000000000E+00  0.64999999231E+04  0.65000000000E+04  0.10000000000E+01 0.  0.
    9000001   -1    0    0    0    0 -0.00000000000E+00 -0.00000000000E+00 -0.64999999231E+04  0.65000000000E+04  0.10000000000E+01 0.  0.
    9000001    1    1    2    0    0 -0.11461319046E+04  0.37028773930E+04  0.52177657737E+04  0.65000000000E+04  0.10000000000E+01 0.  0.
    9000001    1    1    2    0    0  0.11461319046E+04 -0.37028773930E+04 -0.52177657737E+04  0.65000000000E+04  0.10000000000E+01 0.  0.
</event>
<event>
 4    1  0.2193160E-006  0.1300000E+05  0.7957747E-01  0.1322471E+00
    9000001   -1    0    0    0    0  0.00000000000E+00  0.00000000000E+00  0.64999999231E+04  0.65000000000E+04  0.10000000000E+01 0.  0.
    9000001   -1    0    0    0    0 -0.00000000000E+00 -0.00000000000E+00 -0.64999999231E+04  0.65000000000E+04  0.10000000000E+01 0.  0.
    9000001    1    1    2    0    0  0.81753350098E+03  0.33683160646E+03  0.64395793685E+04  0.65000000000E+04  0.10000000000E+01 0.  0.
    9000001    1    1    2    0    0 -0.81753350098E+03 -0.33683160646E+03 -0.64395793685E+04  0.65000000000E+04  0.10000000000E+01 0.  0.
</event>
<event>
 4    1  0.2193160E-006  0.1300000E+05  0.7957747E-01  0.1322471E+00
    9000001   -1    0    0    0    0  0.00000000000E+00  0.00000000000E+00  0.64999999231E+04  0.65000000000E+04  0.10000000000E+01 0.  0.
    9000001   -1    0    0    0    0 -0.00000000000E+00 -0.00000000000E+00 -0.64999999231E+04  0.65000000000E+04  0.10000000000E+01 0.  0.
    9000001    1    1    2    0    0 -0.32115847904E+04 -0.23919431894E+04 -0.51199931556E+04  0.65000000000E+04  0.10000000000E+01 0.  0.
    9000001    1    1    2    0    0  0.32115847904E+04  0.23919431894E+04  0.51199931556E+04  0.65000000000E+04  0.10000000000E+01 0.  0.
</event>
<event>
 4    1  0.2193160E-006  0.1300000E+05  0.7957747E-01  0.1322471E+00
    9000001   -1    0    0    0    0  0.00000000000E+00  0.00000000000E+00  0.64999999231E+04  0.65000000000E+04  0.10000000000E+01 0.  0.
    9000001   -1    0    0    0    0 -0.00000000000E+00 -0.00000000000E+00 -0.64999999231E+04  0.65000000000E+04  0.10000000000E+01 0.  0.
    9000001    1    1    2    0    0  0.27526651781E+04  0.31649477619E+04  0.49654747086E+04  0.65000000000E+04  0.10000000000E+01 0.  0.
    9000001    1    1    2    0    0 -0.27526651781E+04 -0.31649477619E+04 -0.49654747086E+04  0.65000000000E+04  0.10000000000E+01 0.  0.
</event>
<event>
 4    1  0.2193160E-006  0.1300000E+05  0.7957747E-01  0.1322471E+00
    9000001   -1    0    0    0    0  0.00000000000E+00  0.00000000000E+00  0.64999999231E+04  0.65000000000E+04  0.10000000000E+01 0.  0.
    9000001   -1    0    0    0    0 -0.00000000000E+00 -0.00000000000E+00 -0.64999999231E+04  0.65000000000E+04  0.10000000000E+01 0.  0.
    9000001    1    1    2    0    0  0.68495881730E+03  0.28921291845E+04 -0.57806936607E+04  0.65000000000E+04  0.10000000000E+01 0.  0.
    9000001    1    1    2    0    0 -0.68495881730E+03 -0.28921291845E+04  0.57806936607E+04  0.65000000000E+04  0.10000000000E+01 0.  0.
</event>
<event>
 4    1  0.2193160E-006  0.1300000E+05  0.7957747E-01  0.1322471E+00
    9000001   -1    0    0    0    0  0.00000000000E+00  0.00000000000E+00  0.64999999231E+04  0.65000000000E+04  0.10000000000E+01 0.  0.
    9000001   -1    0    0    0    0 -0.00000000000E+00 -0.00000000000E+00 -0.64999999231E+04  0.65000000000E+04  0.10000000000E+01 0.  0.
    9000001    1    1    2    0    0 -0.56374266813E+04  0.25882079647E+04 -0.19418030137E+04  0.65000000000E+04  0.10000000000E+01 0.  0.
    9000001    1    1    2    0    0  0.56374266813E+04 -0.25882079647E+04  0.19418030137E+04  0.65000000000E+04  0.10000000000E+01 0.  0.
</event>
<event>
 4    1  0.2193160E-006  0.1300000E+05  0.7957747E-01  0.1322471E+00
    9000001   -1    0    0    0    0  0.00000000000E+00  0.00000000000E+00  0.64999999231E+04  0.65000000000E+04  0.10000000000E+01 0.  0.
    9000001   -1    0    0    0    0 -0.00000000000E+00 -0.00000000000E+00 -0.64999999231E+04  0.65000000000E+04  0.10000000000E+01 0.  0.
    9000001    1    1    2    0    0 -0.56116952902E+03 -0.14008486166E+04 -0.63223975605E+04  0.65000000000E+04  0.10000000000E+01 0.  0.
    9000001    1    1    2    0    0  0.56116952902E+03  0.14008486166E+04  0.63223975605E+04  0.65000000000E+04  0.10000000000E+01 0.  0.
</event>
<event>
 4    1  0.2193160E-006  0.1300000E+05  0.7957747E-01  0.1322471E+00
    9000001   -1    0    0    0    0  0.00000000000E+00  0.00000000000E+00  0.64999999231E+04  0.65000000000E+04  0.10000000000E+01 0.  0.
    9000001   -1    0    0    0    0 -0.00000000000E+00 -0.00000000000E+00 -0.64999999231E+04  0.65000000000E+04  0.10000000000E+01 0.  0.
    9000001    1    1    2    0    0  0.10657223678E+04  0.24204582891E+04 -0.59376440198E+04  0.65000000000E+04  0.10000000000E+01 0.  0.
    9000001    1    1    2    0    0 -0.10657223678E+04 -0.24204582891E+04  0.59376440198E+04  0.65000000000E+04  0.10000000000E+01 0.  0.
</event>
<event>
 4    1  0.2193160E-006  0.1300000E+05  0.7957747E-01  0.1322471E+00
    9000001   -1    0    0    0    0  0.00000000000E+00  0.00000000000E+00  0.64999999231E+04  0.65000000000E+04  0.10000000000E+01 0.  0.
    9000001   -1    0    0    0    0 -0.00000000000E+00 -0.00000000000E+00 -0.64999999231E+04  0.65000000000E+04  0.10000000000E+01 0.  0.
    9000001    1    1    2    0    0  0.36797239631E+04  0.23629764235E+03 -0.53529238720E+04  0.65000000000E+04  0.10000000000E+01 0.  0.
    9000001    1    1    2    0    0 -0.36797239631E+04 -0.23629764235E+03  0.53529238720E+04  0.65000000000E+04  0.10000000000E+01 0.  0.
</event>
<event>
 4    1  0.2193160E-006  0.1300000E+05  0.7957747E-01  0.1322471E+00
    9000001   -1    0    0    0    0  0.00000000000E+00  0.00000000000E+00  0.64999999231E+04  0.65000000000E+04  0.10000000000E+01 0.  0.
    9000001   -1    0    0    0    0 -0.00000000000E+00 -0.00000000000E+00 -0.64999999231E+04  0.65000000000E+04  0.10000000000E+01 0.  0.
    9000001    1    1    2    0    0  0.28872494470E+04  0.82264821026E+03  0.57651573745E+04  0.65000000000E+04  0.10000000000E+01 0.  0.
    9000001    1    1    2    0    0 -0.28872494470E+04 -0.82264821026E+03 -0.57651573745E+04  0.65000000000E+04  0.10000000000E+01 0.  0.
</event>
<event>
 4    1  0.2193160E-006  0.1300000E+05  0.7957747E-01  0.1322471E+00
    9000001   -1    0    0    0    0  0.00000000000E+00  0.00000000000E+00  0.64999999231E+04  0.65000000000E+04  0.10000000000E+01 0.  0.
    9000001   -1    0    0    0    0 -0.00000000000E+00 -0.00000000000E+00 -0.64999999231E+04  0.65000000000E+04  0.10000000000E+01 0.  0.
    9000001    1    1    2    0    0 -0.16040766447E+04 -0.33120949432E+04 -0.53578880359E+04  0.65000000000E+04  0.10000000000E+01 0.  0.
    9000001    1    1    2    0    0  0.16040766447E+04  0.33120949432E+04  0.53578880359E+04  0.65000000000E+04  0.10000000000E+01 0.  0.
</event>
<event>
 4    1  0.2193160E-006  0.1300000E+05  0.7957747E-01  0.1322471E+00
    9000001   -1    0    0    0    0  0.00000000000E+00  0.00000000000E+00  0.64999999231E+04  0.65000000000E+04  0.10000000000E+01 0.  0.
    9000001   -1    0    0    0    0 -0.00000000000E+00 -0.00000000000E+00 -0.64999999231E+04  0.65000000000E+04  0.10000000000E+01 0.  0.
    9000001    1    1    2    0    0  0.44621641562E+04  0.46922723324E+04  0.56715994382E+03  0.65000000000E+04  0.10000000000E+01 0.  0.
    9000001    1    1    2    0    0 -0.44621641562E+04 -0.46922723324E+04 -0.56715994382E+03  0.65000000000E+04  0.10000000000E+01 0.  0.
</event>
<event>
 4    1  0.2193160E-006  0.1300000E+05  0.7957747E-01  0.1322471E+00
    9000001   -1    0    0    0    0  0.00000000000E+00  0.00000000000E+00  0.64999999231E+04  0.65000000000E+04  0.10000000000E+01 0.  0.
    9000001   -1    0    0    0    0 -0.00000000000E+00 -0.00000000000E+00 -0.64999999231E+04  0.65000000000E+04  0.10000000000E+01 0.  0.
    9000001    1    1    2    0    0 -0.50658376837E+04  0.21384770305E+04 -0.34661511151E+04  0.65000000000E+04  0.10000000000E+01 0.  0.
    9000001    1    1    2    0    0  0.50658376837E+04 -0.21384770305E+04  0.34661511151E+04  0.65000000000E+04  0.10000000000E+01 0.  0.
</event>
<event>
 4    1  0.2193160E-006  0.1300000E+05  0.7957747E-01  0.1322471E+00
    9000001   -1    0    0    0    0  0.00000000000E+00  0.00000000000E+00  0.64999999231E+04  0.65000000000E+04  0.10000000000E+01 0.  0.
    9000001   -1    0    0    0    0 -0.00000000000E+00 -0.00000000000E+00 -0.64999999231E+04  0.65000000000E+04  0.10000000000E+01 0.  0.
    9000001    1    1    2    0    0 -0.47073483924E+04  0.21435266019E+04  0.39365167115E+04  0.65000000000E+04  0.10000000000E+01 0.  0.
    9000001    1    1    2    0    0  0.47073483924E+04 -0.21435266019E+04 -0.39365167115E+04  0.65000000000E+04  0.10000000000E+01 0.  0.
</event>
<event>
 4    1  0.2193160E-006  0.1300000E+05  0.7957747E-01  0.1322471E+00
    9000001   -1    0    0    0    0  0.00000000000E+00  0.00000000000E+00  0.64999999231E+04  0.65000000000E+04  0.10000000000E+01 0.  0.
    9000001   -1    0    0    0    0 -0.00000000000E+00 -0.00000000000E+00 -0.64999999231E+04  0.65000000000E+04  0.10000000000E+01 0.  0.
    9000001    1    1    2    0    0  0.57119955384E+04 -0.10850331583E+04 -0.29061674101E+04  0.65000000000E+04  0.10000000000E+01 0.  0.
    9000001    1    1    2    0    0 -0.57119955384E+04  0.10850331583E+04  0.29061674101E+04  0.65000000000E+04  0.10000000000E+01 0.  0.
</event>
<event>
 4    1  0.2193160E-006  0.1300000E+05  0.7957747E-01  0.1322471E+00
    9000001   -1    0    0    0    0  0.00000000000E+00  0.00000000000E+00  0.64999999231E+04  0.65000000000E+04  0.10000000000E+01 0.  0.
    9000001   -1    0    0    0    0 -0.00000000000E+00 -0.00000000000E+00 -0.64999999231E+04  0.65000000000E+04  0.10000000000E+01 0.  0.
    9000001    1    1    2    0    0 -0.16811155712E+04 -0.40628797310E+04 -0.47871554944E+04  0.65000000000E+04  0.10000000000E+01 0.  0.
    9000001    1    1    2    0    0  0.16811155712E+04  0.40628797310E+04  0.47871554944E+04  0.65000000000E+04  0.10000000000E+01 0.  0.
</event>
<event>
 4    1  0.2193160E-006  0.1300000E+05  0.7957747E-01  0.1322471E+00
    9000001   -1    0    0    0    0  0.00000000000E+00  0.00000000000E+00  0.64999999231E+04  0.65000000000E+04  0.10000000000E+01 0.  0.
    9000001   -1    0    0    0    0 -0.00000000000E+00 -0.00000000000E+00 -0.64999999231E+04  0.65000000000E+04  0.10000000000E+01 0.  0.
    9000001    1    1    2    0    0  0.17666460651E+04 -0.55029151759E+04  0.29743714038E+04  0.65000000000E+04  0.10000000000E+01 0.  0.
    9000001    1    1    2    0    0 -0.17666460651E+04  0.55029151759E+04 -0.29743714038E+04  0.65000000000E+04  0.10000000000E+01 0.  0.
</event>
<event>
 4    1  0.2193160E-006  0.1300000E+05  0.7957747E-01  0.1322471E+00
    9000001   -1    0    0    0    0  0.00000000000E+00  0.00000000000E+00  0.64999999231E+04  0.65000000000E+04  0.10000000000E+01 0.  0.
    9000001   -1    0    0    0    0 -0.00000000000E+00 -0.00000000000E+00 -0.64999999231E+04  0.65000000000E+04  0.10000000000E+01 0.  0.
    9000001    1    1    2    0    0 -0.42149395504E+04 -0.11502637602E+04  0.48126060371E+04  0.65000000000E+04  0.10000000000E+01 0.  0.
    9000001    1    1    2    0    0  0.42149395504E+04  0.11502637602E+04 -0.48126060371E+04  0.65000000000E+04  0.10000000000E+01 0.  0.
</event>
<event>
 4    1  0.2193160E-006  0.1300000E+05  0.7957747E-01  0.1322471E+00
    9000001   -1    0    0    0    0  0.00000000000E+00  0.00000000000E+00  0.64999999231E+04  0.65000000000E+04  0.10000000000E+01 0.  0.
    9000001   -1    0    0    0    0 -0.00000000000E+00 -0.00000000000E+00 -0.64999999231E+04  0.65000000000E+04  0.10000000000E+01 0.  0.
    9000001    1    1    2    0    0  0.37560298366E+04  0.52846997191E+04 -0.46280422016E+03  0.65000000000E+04  0.10000000000E+01 0.  0.
    9000001    1    1    2    0    0 -0.37560298366E+04 -0.52846997191E+04  0.46280422016E+03  0.65000000000E+04  0.10000000000E+01 0.  0.
</event>
<event>
 4    1  0.2193160E-006  0.1300000E+05  0.7957747E-01  0.1322471E+00
    9000001   -1    0    0    0    0  0.00000000000E+00  0.00000000000E+00  0.64999999231E+04  0.65000000000E+04  0.10000000000E+01 0.  0.
    9000001   -1    0    0    0    0 -0.00000000000E+00 -0.00000000000E+00 -0.64999999231E+04  0.65000000000E+04  0.10000000000E+01 0.  0.
    9000001    1    1    2    0    0 -0.38670598448E+02 -0.55607093916E+04  0.33655630506E+04  0.65000000000E+04  0.10000000000E+01 0.  0.
    9000001    1    1    2    0    0  0.38670598448E+02  0.55607093916E+04 -0.33655630506E+04  0.65000000000E+04  0.10000000000E+01 0.  0.
</event>
<event>
 4    1  0.2193160E-006  0.1300000E+05  0.7957747E-01  0.1322471E+00
    9000001   -1    0    0    0    0  0.00000000000E+00  0.00000000000E+00  0.64999999231E+04  0.65000000000E+04  0.10000000000E+01 0.  0.
    9000001   -1    0    0    0    0 -0.00000000000E+00 -0.00000000000E+00 -0.64999999231E+04  0.65000000000E+04  0.10000000000E+01 0.  0.
    9000001    1    1    2    0    0  0.71715252927E+03  0.10793998466E+04 -0.63695044722E+04  0.65000000000E+04  0.10000000000E+01 0.  0.
    9000001    1    1    2    0    0 -0.71715252927E+03 -0.10793998466E+04  0.63695044722E+04  0.65000000000E+04  0.10000000000E+01 0.  0.
</event>
<event>
 4    1  0.2193160E-006  0.1300000E+05  0.7957747E-01  0.1322471E+00
    9000001   -1    0    0    0    0  0.00000000000E+00  0.00000000000E+00  0.64999999231E+04  0.65000000000E+04  0.10000000000E+01 0.  0.
    9000001   -1    0    0    0    0 -0.00000000000E+00 -0.00000000000E+00 -0.64999999231E+04  0.65000000000E+04  0.10000000000E+01 0.  0.
    9000001    1    1    2    0    0 -0.18066983675E+04 -0.16648741705E+04 -0.60178097349E+04  0.65000000000E+04  0.10000000000E+01 0.  0.
    9000001    1    1    2    0    0  0.18066983675E+04  0.16648741705E+04  0.60178097349E+04  0.65000000000E+04  0.10000000000E+01 0.  0.
</event>
<event>
 4    1  0.2193160E-006  0.1300000E+05  0.7957747E-01  0.1322471E+00
    9000001   -1    0    0    0    0  0.00000000000E+00  0.00000000000E+00  0.64999999231E+04  0.65000000000E+04  0.10000000000E+01 0.  0.
    9000001   -1    0    0    0    0 -0.00000000000E+00 -0.00000000000E+00 -0.64999999231E+04  0.65000000000E+04  0.10000000000E+01 0.  0.
    9000001    1    1    2    0    0 -0.64558737768E+04  0.50260733480E+03  0.56487046737E+03  0.65000000000E+04  0.10000000000E+01 0.  0.
    9000001    1    1    2    0    0  0.64558737768E+04 -0.50260733480E+03 -0.56487046737E+03  0.65000000000E+04  0.10000000000E+01 0.  0.
</event>
<event>
 4    1  0.2193160E-006  0.1300000E+05  0.7957747E-01  0.1322471E+00
    9000001   -1    0    0    0    0  0.00000000000E+00  0.00000000000E+00  0.64999999231E+04  0.65000000000E+04  0.10000000000E+01 0.  0.
    9000001   -1    0    0    0    0 -0.00000000000E+00 -0.00000000000E+00 -0.64999999231E+04  0.65000000000E+04  0.10000000000E+01 0.  0.
    9000001    1    1    2    0    0 -0.34050362847E+04  0.10356269983E+04  0.54390443665E+04  0.65000000000E+04  0.10000000000E+01 0.  0.
    9000001    1    1    2    0    0  0.34050362847E+04 -0.10356269983E+04 -0.54390443665E+04  0.65000000000E+04  0.10000000000E+01 0.  0.
</event>
<event>
 4    1  0.2193160E-006  0.1300000E+05  0.7957747E-01  0.1322471E+00
    9000001   -1    0    0    0    0  0.00000000000E+00  0.00000000000E+00  0.64999999231E+04  0.65000000000E+04  0.10000000000E+01 0.  0.
    9000001   -1    0    0    0    0 -0.00000000000E+00 -0.00000000000E+00 -0.64999999231E+04  0.65000000000E+04  0.10000000000E+01 0.  0.
    9000001    1    1    2    0    0 -0.54806062239E+04 -0.32901970875E+04 -0.11779463246E+04  0.65000000000E+04  0.10000000000E+01 0.  0.
    9000001    1    1    2    0    0  0.54806062239E+04  0.32901970875E+04  0.11779463246E+04  0.65000000000E+04  0.10000000000E+01 0.  0.
</event>
<event>
 4    1  0.2193160E-006  0.1300000E+05  0.7957747E-01  0.1322471E+00
    9000001   -1    0    0    0    0  0.00000000000E+00  0.00000000000E+00  0.64999999231E+04  0.65000000000E+04  0.10000000000E+01 0.  0.
    9000001   -1    0    0    0    0 -0.00000000000E+00 -0.00000000000E+00 -0.64999999231E+04  0.65000000000E+04  0.10000000000E+01 0.  0.
    9000001    1    1    2    0    0 -0.29932317997E+04  0.57281869271E+04  0.69169134841E+03  0.65000000000E+04  0.10000000000E+01 0.  0.
    9000001    1    1    2    0    0  0.29932317997E+04 -0.57281869271E+04 -0.69169134841E+03  0.65000000000E+04  0.10000000000E+01 0.  0.
</event>
<event>
 4    1  0.2193160E-006  0.1300000E+05  0.7957747E-01  0.1322471E+00
    9000001   -1    0    0    0    0  0.00000000000E+00  0.00000000000E+00  0.64999999231E+04  0.65000000000E+04  0.10000000000E+01 0.  0.
    9000001   -1    0    0    0    0 -0.00000000000E+00 -0.00000000000E+00 -0.64999999231E+04  0.65000000000E+04  0.10000000000E+01 0.  0.
    9000001    1    1    2    0    0  0.54959571804E+04  0.31348364653E+04 -0.14890446625E+04  0.65000000000E+04  0.10000000000E+01 0.  0.
    9000001    1    1    2    0    0 -0.54959571804E+04 -0.31348364653E+04  0.14890446625E+04  0.65000000000E+04  0.10000000000E+01 0.  0.
</event>
<event>
 4    1  0.2193160E-006  0.1300000E+05  0.7957747E-01  0.1322471E+00
    9000001   -1    0    0    0    0  0.00000000000E+00  0.00000000000E+00  0.64999999231E+04  0.65000000000E+04  0.10000000000E+01 0.  0.
    9000001   -1    0    0    0    0 -0.00000000000E+00 -0.00000000000E+00 -0.64999999231E+04  0.65000000000E+04  0.10000000000E+01 0.  0.
    9000001    1    1    2    0    0  0.50718276669E+04  0.18800248410E+04  0.36044513750E+04  0.65000000000E+04  0.10000000000E+01 0.  0.
    9000001    1    1    2    0    0 -0.50718276669E+04 -0.18800248410E+04 -0.36044513750E+04  0.65000000000E+04  0.10000000000E+01 0.  0.
</event>
<event>
 4    1  0.2193160E-006  0.1300000E+05  0.7957747E-01  0.1322471E+00
    9000001   -1    0    0    0    0  0.00000000000E+00  0.00000000000E+00  0.64999999231E+04  0.65000000000E+04  0.10000000000E+01 0.  0.
    9000001   -1    0    0    0    0 -0.00000000000E+00 -0.00000000000E+00 -0.64999999231E+04  0.65000000000E+04  0.10000000000E+01 0.  0.
    9000001    1    1    2    0    0  0.19428693915E+04 -0.29909348399E+04 -0.54341113635E+04  0.65000000000E+04  0.10000000000E+01 0.  0.
    9000001    1    1    2    0    0 -0.19428693915E+04  0.29909348399E+04  0.54341113635E+04  0.65000000000E+04  0.10000000000E+01 0.  0.
</event>
<event>
 4    1  0.2193160E-006  0.1300000E+05  0.7957747E-01  0.1322471E+00
    9000001   -1    0    0    0    0  0.00000000000E+00  0.00000000000E+00  0.64999999231E+04  0.65000000000E+04  0.10000000000E+01 0.  0.
    9000001   -1    0    0    0    0 -0.00000000000E+00 -0.00000000000E+00 -0.64999999231E+04  0.65000000000E+04  0.10000000000E+01 0.  0.
    9000001    1    1    2    0    0 -0.42420804898E+04  0.11773794286E+04 -0.47821051639E+04  0.65000000000E+04  0.10000000000E+01 0.  0.
    9000001    1    1    2    0    0  0.42420804898E+04 -0.11773794286E+04  0.47821051639E+04  0.65000000000E+04  0.10000000000E+01 0.  0.
</event>
<event>
 4    1  0.2193160E-006  0.1300000E+05  0.7957747E-01  0.1322471E+00
    9000001   -1    0    0    0    0  0.00000000000E+00  0.00000000000E+00  0.64999999231E+04  0.65000000000E+04  0.10000000000E+01 0.  0.
    9000001   -1    0    0    0    0 -0.00000000000E+00 -0.00000000000E+00 -0.64999999231E+04  0.65000000000E+04  0.10000000000E+01 0.  0.
    9000001    1    1    2    0    0  0.39499964420E+04 -0.51618200783E+04 -0.56040943732E+02  0.65000000000E+04  0.10000000000E+01 0.  0.
    9000001    1    1    2    0    0 -0.39499964420E+04  0.51618200783E+04  0.56040943732E+02  0.65000000000E+04  0.10000000000E+01 0.  0.
</event>
<event>
 4    1  0.2193160E-006  0.1300000E+05  0.7957747E-01  0.1322471E+00
    9000001   -1    0    0    0    0  0.00000000000E+00  0.00000000000E+00  0.64999999231E+04  0.65000000000E+04  0.10000000000E+01 0.  0.
    9000001   -1    0    0    0    0 -0.00000000000E+00 -0.00000000000E+00 -0.64999999231E+04  0.65000000000E+04  0.10000000000E+01 0.  0.
    9000001    1    1    2    0    0  0.58683792179E+03  0.31324806361E+04 -0.56650847582E+04  0.65000000000E+04  0.10000000000E+01 0.  0.
    9000001    1    1    2    0    0 -0.58683792179E+03 -0.31324806361E+04  0.56650847582E+04  0.65000000000E+04  0.10000000000E+01 0.  0.
</event>
<event>
 4    1  0.2193160E-006  0.1300000E+05  0.7957747E-01  0.1322471E+00
    9000001   -1    0    0    0    0  0.00000000000E+00  0.00000000000E+00  0.64999999231E+04  0.65000000000E+04  0.10000000000E+01 0.  0.
    9000001   -1    0    0    0    0 -0.00000000000E+00 -0.00000000000E+00 -0.64999999231E+04  0.65000000000E+04  0.10000000000E+01 0.  0.
    9000001    1    1    2    0    0 -0.11005775542E+03  0.61425069195E+04 -0.21230862051E+04  0.65000000000E+04  0.10000000000E+01 0.  0.
    9000001    1    1    2    0    0  0.11005775542E+03 -0.61425069195E+04  0.21230862051E+04  0.65000000000E+04  0.10000000000E+01 0.  0.
</event>
<event>
 4    1  0.2193160E-006  0.1300000E+05  0.7957747E-01  0.1322471E+00
    9000001   -1    0    0    0    0  0.00000000000E+00  0.00000000000E+00  0.64999999231E+04  0.65000000000E+04  0.10000000000E+01 0.  0.
    9000001   -1    0    0    0    0 -0.00000000000E+00 -0.00000000000E+00 -0.64999999231E+04  0.65000000000E+04  0.10000000000E+01 0.  0.
    9000001    1    1    2    0    0 -0.42138494715E+04  0.13278571380E+04 -0.47676269834E+04  0.65000000000E+04  0.10000000000E+01 0.  0.
    9000001    1    1    2    0    0  0.42138494715E+04 -0.13278571380E+04  0.47676269834E+04  0.65000000000E+04  0.10000000000E+01 0.  0.
</event>
<event>
 4    1  0.2193160E-006  0.1300000E+05  0.7957747E-01  0.1322471E+00
    9000001   -1    0    0    0    0  0.00000000000E+00  0.00000000000E+00  0.64999999231E+04  0.65000000000E+04  0.10000000000E+01 0.  0.
    9000001   -1    0    0    0    0 -0.00000000000E+00 -0.00000000000E+00 -0.64999999231E+04  0.65000000000E+04  0.10000000000E+01 0.  0.
    9000001    1    1    2    0    0  0.34014270642E+04 -0.49740872158E+04 -0.24369549229E+04  0.65000000000E+04  0.10000000000E+01 0.  0.
    9000001    1    1    2    0    0 -0.34014270642E+04  0.49740872158E+04  0.24369549229E+04  0.65000000000E+04  0.10000000000E+01 0.  0.
</event>
<event>
 4    1  0.2193160E-006  0.1300000E+05  0.7957747E-01  0.1322471E+00
    9000001   -1    0    0    0    0  0.00000000000E+00  0.00000000000E+00  0.64999999231E+04  0.65000000000E+04  0.10000000000E+01 0.  0.
    9000001   -1    0    0    0    0 -0.00000000000E+00 -0.00000000000E+00 -0.64999999231E+04  0.65000000000E+04  0.10000000000E+01 0.  0.
    9000001    1    1    2    0    0 -0.61264172935E+04 -0.60440518222E+03 -0.20860739492E+04  0.65000000000E+04  0.10000000000E+01 0.  0.
    9000001    1    1    2    0    0  0.61264172935E+04  0.60440518222E+03  0.20860739492E+04  0.65000000000E+04  0.10000000000E+01 0.  0.
</event>
<event>
 4    1  0.2193160E-006  0.1300000E+05  0.7957747E-01  0.1322471E+00
    9000001   -1    0    0    0    0  0.00000000000E+00  0.00000000000E+00  0.64999999231E+04  0.65000000000E+04  0.10000000000E+01 0.  0.
    9000001   -1    0    0    0    0 -0.00000000000E+00 -0.00000000000E+00 -0.64999999231E+04  0.65000000000E+04  0.10000000000E+01 0.  0.
    9000001    1    1    2    0    0 -0.57809354895E+03 -0.58452483937E+04  0.27836806685E+04  0.65000000000E+04  0.10000000000E+01 0.  0.
    9000001    1    1    2    0    0  0.57809354895E+03  0.58452483937E+04 -0.27836806685E+04  0.65000000000E+04  0.10000000000E+01 0.  0.
</event>
<event>
 4    1  0.2193160E-006  0.1300000E+05  0.7957747E-01  0.1322471E+00
    9000001   -1    0    0    0    0  0.00000000000E+00  0.00000000000E+00  0.64999999231E+04  0.65000000000E+04  0.10000000000E+01 0.  0.
    9000001   -1    0    0    0    0 -0.00000000000E+00 -0.00000000000E+00 -0.64999999231E+04  0.65000000000E+04  0.10000000000E+01 0.  0.
    9000001    1    1    2    0    0 -0.41796079884E+03 -0.42933091492E+04  0.48623866897E+04  0.65000000000E+04  0.10000000000E+01 0.  0.
    9000001    1    1    2    0    0  0.41796079884E+03  0.42933091492E+04 -0.48623866897E+04  0.65000000000E+04  0.10000000000E+01 0.  0.
</event>
<event>
 4    1  0.2193160E-006  0.1300000E+05  0.7957747E-01  0.1322471E+00
    9000001   -1    0    0    0    0  0.00000000000E+00  0.00000000000E+00  0.64999999231E+04  0.65000000000E+04  0.10000000000E+01 0.  0.
    9000001   -1    0    0    0    0 -0.00000000000E+00 -0.00000000000E+00 -0.64999999231E+04  0.65000000000E+04  0.10000000000E+01 0.  0.
    9000001    1    1    2    0    0  0.21985552413E+04  0.61003097113E+04 -0.45008363329E+03  0.65000000000E+04  0.10000000000E+01 0.  0.
    9000001    1    1    2    0    0 -0.21985552413E+04 -0.61003097113E+04  0.45008363329E+03  0.65000000000E+04  0.10000000000E+01 0.  0.
</event>
<event>
 4    1  0.2193160E-006  0.1300000E+05  0.7957747E-01  0.1322471E+00
    9000001   -1    0    0    0    0  0.00000000000E+00  0.00000000000E+00  0.64999999231E+04  0.65000000000E+04  0.10000000000E+01 0.  0.
    9000001   -1    0    0    0    0 -0.00000000000E+00 -0.00000000000E+00 -0.64999999231E+04  0.65000000000E+04  0.10000000000E+01 0.  0.
    9000001    1    1    2    0    0 -0.21253670610E+04  0.27154435525E+04  0.55099165302E+04  0.65000000000E+04  0.10000000000E+01 0.  0.
    9000001    1    1    2    0    0  0.21253670610E+04 -0.27154435525E+04 -0.55099165302E+04  0.65000000000E+04  0.10000000000E+01 0.  0.
</event>
<event>
 4    1  0.2193160E-006  0.1300000E+05  0.7957747E-01  0.1322471E+00
    9000001   -1    0    0    0    0  0.00000000000E+00  0.00000000000E+00  0.64999999231E+04  0.65000000000E+04  0.10000000000E+01 0.  0.
    9000001   -1    0    0    0    0 -0.00000000000E+00 -0.00000000000E+00 -0.64999999231E+04  0.65000000000E+04  0.10000000000E+01 0.  0.
    9000001    1    1    2    0    0  0.64542726277E+04 -0.54050752851E+03  0.54791920845E+03  0.65000000000E+04  0.10000000000E+01 0.  0.
    9000001    1    1    2    0    0 -0.64542726277E+04  0.54050752851E+03 -0.54791920845E+03  0.65000000000E+04  0.10000000000E+01 0.  0.
</event>
<event>
 4    1  0.2193160E-006  0.1300000E+05  0.7957747E-01  0.1322471E+00
    9000001   -1    0    0    0    0  0.00000000000E+00  0.00000000000E+00  0.64999999231E+04  0.65000000000E+04  0.10000000000E+01 0.  0.
    9000001   -1    0    0    0    0 -0.00000000000E+00 -0.00000000000E+00 -0.64999999231E+04  0.65000000000E+04  0.10000000000E+01 0.  0.
    9000001    1    1    2    0    0  0.27254767236E+04 -0.47111164908E+04 -0.35534711254E+04  0.65000000000E+04  0.10000000000E+01 0.  0.
    9000001    1    1    2    0    0 -0.27254767236E+04  0.47111164908E+04  0.35534711254E+04  0.65000000000E+04  0.10000000000E+01 0.  0.
</event>
<event>
 4    1  0.2193160E-006  0.1300000E+05  0.7957747E-01  0.1322471E+00
    9000001   -1    0    0    0    0  0.00000000000E+00  0.00000000000E+00  0.64999999231E+04  0.65000000000E+04  0.10000000000E+01 0.  0.
    9000001   -1    0    0    0    0 -0.00000000000E+00 -0.00000000000E+00 -0.64999999231E+04  0.65000000000E+04  0.10000000000E+01 0.  0.
    9000001    1    1    2    0    0  0.49111584970E+04 -0.39393343230E+04 -0.16162197590E+04  0.65000000000E+04  0.10000000000E+01 0.  0.
    9000001    1    1    2    0    0 -0.49111584970E+04  0.39393343230E+04  0.16162197590E+04  0.65000000000E+04  0.10000000000E+01 0.  0.
</event>
<event>
 4    1  0.2193160E-006  0.1300000E+05  0.7957747E-01  0.1322471E+00
    9000001   -1    0    0    0    0  0.00000000000E+00  0.00000000000E+00  0.64999999231E+04  0.65000000000E+04  0.10000000000E+01 0.  0.
    9000001   -1    0    0    0    0 -0.00000000000E+00 -0.00000000000E+00 -0.64999999231E+04  0.65000000000E+04  0.10000000000E+01 0.  0.
    9000001    1    1    2    0    0 -0.62713980392E+04 -0.14781667216E+04 -0.85708154655E+03  0.65000000000E+04  0.10000000000E+01 0.  0.
    9000001    1    1    2    0    0  0.62713980392E+04  0.14781667216E+04  0.85708154655E+03  0.65000000000E+04  0.10000000000E+01 0.  0.
</event>
<event>
 4    1  0.2193160E-006  0.1300000E+05  0.7957747E-01  0.1322471E+00
    9000001   -1    0    0    0    0  0.00000000000E+00  0.00000000000E+00  0.64999999231E+04  0.65000000000E+04  0.10000000000E+01 0.  0.
    9000001   -1    0    0    0    0 -0.00000000000E+00 -0.00000000000E+00 -0.64999999231E+04  0.65000000000E+04  0.10000000000E+01 0.  0.
    9000001    1    1    2    0    0 -0.38358949711E+04 -0.50212222430E+04  0.15242165059E+04  0.65000000000E+04  0.10000000000E+01 0.  0.
    9000001    1    1    2    0    0  0.38358949711E+04  0.50212222430E+04 -0.15242165059E+04  0.65000000000E+04  0.10000000000E+01 0.  0.
</event>
<event>
 4    1  0.2193160E-006  0.1300000E+05  0.7957747E-01  0.1322471E+00
    9000001   -1    0    0    0    0  0.00000000000E+00  0.00000000000E+00  0.64999999231E+04  0.65000000000E+04  0.10000000000E+01 0.  0.
    9000001   -1    0    0    0    0 -0.00000000000E+00 -0.00000000000E+00 -0.64999999231E+04  0.65000000000E+04  0.10000000000E+01 0.  0.
    9000001    1    1    2    0    0 -0.31642985245E+04 -0.17953171104E+04  0.53864691887E+04  0.65000000000E+04  0.10000000000E+01 0.  0.
    9000001    1    1    2    0    0  0.31642985245E+04  0.17953171104E+04 -0.53864691887E+04  0.65000000000E+04  0.10000000000E+01 0.  0.
</event>
<event>
 4    1  0.2193160E-006  0.1300000E+05  0.7957747E-01  0.1322471E+00
    9000001   -1    0    0    0    0  0.00000000000E+00  0.00000000000E+00  0.64999999231E+04  0.65000000000E+04  0.10000000000E+01 0.  0.
    9000001   -1    0    0    0    0 -0.00000000000E+00 -0.00000000000E+00 -0.64999999231E+04  0.65000000000E+04  0.10000000000E+01 0.  0.
    9000001    1    1    2    0    0 -0.52110080406E+04  0.11411559224E+03  0.38836029448E+04  0.65000000000E+04  0.10000000000E+01 0.  0.
    9000001    1    1    2    0    0  0.52110080406E+04 -0.11411559224E+03 -0.38836029448E+04  0.65000000000E+04  0.10000000000E+01 0.  0.
</event>
<event>
 4    1  0.2193160E-006  0.1300000E+05  0.7957747E-01  0.1322471E+00
    9000001   -1    0    0    0    0  0.00000000000E+00  0.00000000000E+00  0.64999999231E+04  0.65000000000E+04  0.10000000000E+01 0.  0.
    9000001   -1    0    0    0    0 -0.00000000000E+00 -0.00000000000E+00 -0.64999999231E+04  0.65000000000E+04  0.10000000000E+01 0.  0.
    9000001    1    1    2    0    0  0.46050717861E+04  0.41665814448E+04  0.19190914279E+04  0.65000000000E+04  0.10000000000E+01 0.  0.
    9000001    1    1    2    0    0 -0.46050717861E+04 -0.41665814448E+04 -0.19190914279E+04  0.65000000000E+04  0.10000000000E+01 0.  0.
</event>
<event>
 4    1  0.2193160E-006  0.1300000E+05  0.7957747E-01  0.1322471E+00
    9000001   -1    0    0    0    0  0.00000000000E+00  0.00000000000E+00  0.64999999231E+04  0.65000000000E+04  0.10000000000E+01 0.  0.
    9000001   -1    0    0    0    0 -0.00000000000E+00 -0.00000000000E+00 -0.64999999231E+04  0.65000000000E+04  0.10000000000E+01 0.  0.
    9000001    1    1    2    0    0 -0.15752780031E+04 -0.60633914586E+04  0.17331423001E+04  0.65000000000E+04  0.10000000000E+01 0.  0.
    9000001    1    1    2    0    0  0.15752780031E+04  0.60633914586E+04 -0.17331423001E+04  0.65000000000E+04  0.10000000000E+01 0.  0.
</event>
<event>
 4    1  0.2193160E-006  0.1300000E+05  0.7957747E-01  0.1322471E+00
    9000001   -1    0    0    0    0  0.00000000000E+00  0.00000000000E+00  0.64999999231E+04  0.65000000000E+04  0.10000000000E+01 0.  0.
    9000001   -1    0    0    0    0 -0.00000000000E+00 -0.00000000000E+00 -0.64999999231E+04  0.65000000000E+04  0.10000000000E+01 0.  0.
    9000001    1    1    2    0    0 -0.58658763534E+04  0.34695242218E+03 -0.27786899113E+04  0.65000000000E+04  0.10000000000E+01 0.  0.
    9000001    1    1    2    0    0  0.58658763534E+04 -0.34695242218E+03  0.27786899113E+04  0.65000000000E+04  0.10000000000E+01 0.  0.
</event>
<event>
 4    1  0.2193160E-006  0.1300000E+05  0.7957747E-01  0.1322471E+00
    9000001   -1    0    0    0    0  0.00000000000E+00  0.00000000000E+00  0.64999999231E+04  0.65000000000E+04  0.10000000000E+01 0.  0.
    9000001   -1    0    0    0    0 -0.00000000000E+00 -0.00000000000E+00 -0.64999999231E+04  0.65000000000E+04  0.10000000000E+01 0.  0.
    9000001    1    1    2    0    0  0.48544113593E+04  0.34220018649E+04  0.26409453972E+04  0.65000000000E+04  0.10000000000E+01 0.  0.
    9000001    1    1    2    0    0 -0.48544113593E+04 -0.34220018649E+04 -0.26409453972E+04  0.65000000000E+04  0.10000000000E+01 0.  0.
</event>
<event>
 4    1  0.2193160E-006  0.1300000E+05  0.7957747E-01  0.1322471E+00
    9000001   -1    0    0    0    0  0.00000000000E+00  0.00000000000E+00  0.64999999231E+04  0.65000000000E+04  0.10000000000E+01 0.  0.
    9000001   -1    0    0    0    0 -0.00000000000E+00 -0.00000000000E+00 -0.64999999231E+04  0.65000000000E+04  0.10000000000E+01 0.  0.
    9000001    1    1    2    0    0 -0.22468979248E+04  0.15923624088E+04 -0.58877695840E+04  0.65000000000E+04  0.10000000000E+01 0.  0.
    9000001    1    1    2    0    0  0.22468979248E+04 -0.15923624088E+04  0.58877695840E+04  0.65000000000E+04  0.10000000000E+01 0.  0.
</event>
<event>
 4    1  0.2193160E-006  0.1300000E+05  0.7957747E-01  0.1322471E+00
    9000001   -1    0    0    0    0  0.00000000000E+00  0.00000000000E+00  0.64999999231E+04  0.65000000000E+04  0.10000000000E+01 0.  0.
    9000001   -1    0    0    0    0 -0.00000000000E+00 -0.00000000000E+00 -0.64999999231E+04  0.65000000000E+04  0.10000000000E+01 0.  0.
    9000001    1    1    2    0    0  0.19294879870E+04 -0.38141656904E+04 -0.48968576857E+04  0.65000000000E+04  0.10000000000E+01 0.  0.
    9000001    1    1    2    0    0 -0.19294879870E+04  0.38141656904E+04  0.48968576857E+04  0.65000000000E+04  0.10000000000E+01 0.  0.
</event>
<event>
 4    1  0.2193160E-006  0.1300000E+05  0.7957747E-01  0.1322471E+00
    9000001   -1    0    0    0    0  0.00000000000E+00  0.00000000000E+00  0.64999999231E+04  0.65000000000E+04  0.10000000000E+01 0.  0.
    9000001   -1    0    0    0    0 -0.00000000000E+00 -0.00000000000E+00 -0.64999999231E+04  0.65000000000E+04  0.10000000000E+01 0.  0.
    9000001    1    1    2    0    0 -0.55560126113E+04 -0.29410098499E+04 -0.16526293977E+04  0.65000000000E+04  0.10000000000E+01 0.  0.
    9000001    1    1    2    0    0  0.55560126113E+04  0.29410098499E+04  0.16526293977E+04  0.65000000000E+04  0.10000000000E+01 0.  0.
</event>
<event>
 4    1  0.2193160E-006  0.1300000E+05  0.7957747E-01  0.1322471E+00
    9000001   -1    0    0    0    0  0.00000000000E+00  0.00000000000E+00  0.64999999231E+04  0.65000000000E+04  0.10000000000E+01 0.  0.
    9000001   -1    0    0    0    0 -0.00000000000E+00 -0.00000000000E+00 -0.64999999231E+04  0.65000000000E+04  0.10000000000E+01 0.  0.
    9000001    1    1    2    0    0 -0.44515863035E+04 -0.17854623919E+04  0.43869696181E+04  0.65000000000E+04  0.10000000000E+01 0.  0.
    9000001    1    1    2    0    0  0.44515863035E+04  0.17854623919E+04 -0.43869696181E+04  0.65000000000E+04  0.10000000000E+01 0.  0.
</event>
<event>
 4    1  0.2193160E-006  0.1300000E+05  0.7957747E-01  0.1322471E+00
    9000001   -1    0    0    0    0  0.00000000000E+00  0.00000000000E+00  0.64999999231E+04  0.65000000000E+04  0.10000000000E+01 0.  0.
    9000001   -1    0    0    0    0 -0.00000000000E+00 -0.00000000000E+00 -0.64999999231E+04  0.65000000000E+04  0.10000000000E+01 0.  0.
    9000001    1    1    2    0    0 -0.21493785642E+04 -0.44333285018E+04  0.42397840962E+04  0.65000000000E+04  0.10000000000E+01 0.  0.
    9000001    1    1    2    0    0  0.21493785642E+04  0.44333285018E+04 -0.42397840962E+04  0.65000000000E+04  0.10000000000E+01 0.  0.
</event>
<event>
 4    1  0.2193160E-006  0.1300000E+05  0.7957747E-01  0.1322471E+00
    9000001   -1    0    0    0    0  0.00000000000E+00  0.00000000000E+00  0.64999999231E+04  0.65000000000E+04  0.10000000000E+01 0.  0.
    9000001   -1    0    0    0    0 -0.00000000000E+00 -0.00000000000E+00 -0.64999999231E+04  0.65000000000E+04  0.10000000000E+01 0.  0.
    9000001    1    1    2    0    0  0.67510577468E+03  0.38604774070E+04 -0.51856480196E+04  0.65000000000E+04  0.10000000000E+01 0.  0.
    9000001    1    1    2    0    0 -0.67510577468E+03 -0.38604774070E+04  0.51856480196E+04  0.65000000000E+04  0.10000000000E+01 0.  0.
</event>
<event>
 4    1  0.2193160E-006  0.1300000E+05  0.7957747E-01  0.1322471E+00
    9000001   -1    0    0    0    0  0.00000000000E+00  0.00000000000E+00  0.64999999231E+04  0.65000000000E+04  0.10000000000E+01 0.  0.
    9000001   -1    0    0    0    0 -0.00000000000E+00 -0.00000000000E+00 -0.64999999231E+04  0.65000000000E+04  0.10000000000E+01 0.  0.
    9000001    1    1    2    0    0  0.15162127657E+04  0.24298824212E+04 -0.58349609483E+04  0.65000000000E+04  0.10000000000E+01 0.  0.
    9000001    1    1    2    0    0 -0.15162127657E+04 -0.24298824212E+04  0.58349609483E+04  0.65000000000E+04  0.10000000000E+01 0.  0.
</event>
<event>
 4    1  0.2193160E-006  0.1300000E+05  0.7957747E-01  0.1322471E+00
    9000001   -1    0    0    0    0  0.00000000000E+00  0.00000000000E+00  0.64999999231E+04  0.65000000000E+04  0.10000000000E+01 0.  0.
    9000001   -1    0    0    0    0 -0.00000000000E+00 -0.00000000000E+00 -0.64999999231E+04  0.65000000000E+04  0.10000000000E+01 0.  0.
    9000001    1    1    2    0    0 -0.48672523486E+04 -0.26134719895E+03  0.43001803703E+04  0.65000000000E+04  0.10000000000E+01 0.  0.
    9000001    1    1    2    0    0  0.48672523486E+04  0.26134719895E+03 -0.43001803703E+04  0.65000000000E+04  0.10000000000E+01 0.  0.
</event>
<event>
 4    1  0.2193160E-006  0.1300000E+05  0.7957747E-01  0.1322471E+00
    9000001   -1    0    0    0    0  0.00000000000E+00  0.00000000000E+00  0.64999999231E+04  0.65000000000E+04  0.10000000000E+01 0.  0.
    9000001   -1    0    0    0    0 -0.00000000000E+00 -0.00000000000E+00 -0.64999999231E+04  0.65000000000E+04  0.10000000000E+01 0.  0.
    9000001    1    1    2    0    0  0.45997692107E+04 -0.43541977424E+04 -0.14605082088E+04  0.65000000000E+04  0.10000000000E+01 0.  0.
    9000001    1    1    2    0    0 -0.45997692107E+04  0.43541977424E+04  0.14605082088E+04  0.65000000000E+04  0.10000000000E+01 0.  0.
</event>
<event>
 4    1  0.2193160E-006  0.1300000E+05  0.7957747E-01  0.1322471E+00
    9000001   -1    0    0    0    0  0.00000000000E+00  0.00000000000E+00  0.64999999231E+04  0.65000000000E+04  0.10000000000E+01 0.  0.
    9000001   -1    0    0    0    0 -0.00000000000E+00 -0.00000000000E+00 -0.64999999231E+04  0.65000000000E+04  0.10000000000E+01 0.  0.
    9000001    1    1    2    0    0 -0.46865194808E+04 -0.52243171614E+03 -0.44736561399E+04  0.65000000000E+04  0.10000000000E+01 0.  0.
    9000001    1    1    2    0    0  0.46865194808E+04  0.52243171614E+03  0.44736561399E+04  0.65000000000E+04  0.10000000000E+01 0.  0.
</event>
<event>
 4    1  0.2193160E-006  0.1300000E+05  0.7957747E-01  0.1322471E+00
    9000001   -1    0    0    0    0  0.00000000000E+00  0.00000000000E+00  0.64999999231E+04  0.65000000000E+04  0.10000000000E+01 0.  0.
    9000001   -1    0    0    0    0 -0.00000000000E+00 -0.00000000000E+00 -0.64999999231E+04  0.65000000000E+04  0.10000000000E+01 0.  0.
    9000001    1    1    2    0    0  0.61270690447E+04 -0.68856106677E+03  0.20578891075E+04  0.65000000000E+04  0.10000000000E+01 0.  0.
    9000001    1    1    2    0    0 -0.61270690447E+04  0.68856106677E+03 -0.20578891075E+04  0.65000000000E+04  0.10000000000E+01 0.  0.
</event>
<event>
 4    1  0.2193160E-006  0.1300000E+05  0.7957747E-01  0.1322471E+00
    9000001   -1    0    0    0    0  0.00000000000E+00  0.00000000000E+00  0.64999999231E+04  0.65000000000E+04  0.10000000000E+01 0.  0.
    9000001   -1    0    0    0    0 -0.00000000000E+00 -0.00000000000E+00 -0.64999999231E+04  0.65000000000E+04  0.10000000000E+01 0.  0.
    9000001    1    1    2    0    0  0.57106628223E+04  0.31023367039E+04 -0.11762697817E+03  0.65000000000E+04  0.10000000000E+01 0.  0.
    9000001    1    1    2    0    0 -0.57106628223E+04 -0.31023367039E+04  0.11762697817E+03  0.65000000000E+04  0.10000000000E+01 0.  0.
</event>
<event>
 4    1  0.2193160E-006  0.1300000E+05  0.7957747E-01  0.1322471E+00
    9000001   -1    0    0    0    0  0.00000000000E+00  0.00000000000E+00  0.64999999231E+04  0.65000000000E+04  0.10000000000E+01 0.  0.
    9000001   -1    0    0    0    0 -0.00000000000E+00 -0.00000000000E+00 -0.64999999231E+04  0.65000000000E+04  0.10000000000E+01 0.  0.
    9000001    1    1    2    0    0 -0.20011031261E+03 -0.57071084670E+04  0.31046526067E+04  0.65000000000E+04  0.10000000000E+01 0.  0.
    9000001    1    1    2    0    0  0.20011031261E+03  0.57071084670E+04 -0.31046526067E+04  0.65000000000E+04  0.10000000000E+01 0.  0.
</event>
<event>
 4    1  0.2193160E-006  0.1300000E+05  0.7957747E-01  0.1322471E+00
    9000001   -1    0    0    0    0  0.00000000000E+00  0.00000000000E+00  0.64999999231E+04  0.65000000000E+04  0.10000000000E+01 0.  0.
    9000001   -1    0    0    0    0 -0.00000000000E+00 -0.00000000000E+00 -0.64999999231E+04  0.65000000000E+04  0.10000000000E+01 0.  0.
    9000001    1    1    2    0    0  0.59192524526E+03  0.64407558531E+04 -0.64520349141E+03  0.65000000000E+04  0.10000000000E+01 0.  0.
    9000001    1    1    2    0    0 -0.59192524526E+03 -0.64407558531E+04  0.64520349141E+03  0.65000000000E+04  0.10000000000E+01 0.  0.
</event>
<event>
 4    1  0.2193160E-006  0.1300000E+05  0.7957747E-01  0.1322471E+00
    9000001   -1    0    0    0    0  0.00000000000E+00  0.00000000000E+00  0.64999999231E+04  0.65000000000E+04  0.10000000000E+01 0.  0.
    9000001   -1    0    0    0    0 -0.00000000000E+00 -0.00000000000E+00 -0.64999999231E+04  0.65000000000E+04  0.10000000000E+01 0.  0.
    9000001    1    1    2    0    0  0.60481726287E+04  0.23663119559E+04 -0.26490485329E+03  0.65000000000E+04  0.10000000000E+01 0.  0.
    9000001    1    1    2    0    0 -0.60481726287E+04 -0.23663119559E+04  0.26490485329E+03  0.65000000000E+04  0.10000000000E+01 0.  0.
</event>
<event>
 4    1  0.2193160E-006  0.1300000E+05  0.7957747E-01  0.1322471E+00
    9000001   -1    0    0    0    0  0.00000000000E+00  0.00000000000E+00  0.64999999231E+04  0.65000000000E+04  0.10000000000E+01 0.  0.
    9000001   -1    0    0    0    0 -0.00000000000E+00 -0.00000000000E+00 -0.64999999231E+04  0.65000000000E+04  0.10000000000E+01 0.  0.
    9000001    1    1    2    0    0 -0.56246733325E+04 -0.18724501937E+04 -0.26658918161E+04  0.65000000000E+04  0.10000000000E+01 0.  0.
    9000001    1    1    2    0    0  0.56246733325E+04  0.18724501937E+04  0.26658918161E+04  0.65000000000E+04  0.10000000000E+01 0.  0.
</event>
<event>
 4    1  0.2193160E-006  0.1300000E+05  0.7957747E-01  0.1322471E+00
    9000001   -1    0    0    0    0  0.00000000000E+00  0.00000000000E+00  0.64999999231E+04  0.65000000000E+04  0.10000000000E+01 0.  0.
    9000001   -1    0    0    0    0 -0.00000000000E+00 -0.00000000000E+00 -0.64999999231E+04  0.65000000000E+04  0.10000000000E+01 0.  0.
    9000001    1    1    2    0    0  0.52705042552E+04 -0.11032302202E+04  0.36406959467E+04  0.65000000000E+04  0.10000000000E+01 0.  0.
    9000001    1    1    2    0    0 -0.52705042552E+04  0.11032302202E+04 -0.36406959467E+04  0.65000000000E+04  0.10000000000E+01 0.  0.
</event>
<event>
 4    1  0.2193160E-006  0.1300000E+05  0.7957747E-01  0.1322471E+00
    9000001   -1    0    0    0    0  0.00000000000E+00  0.00000000000E+00  0.64999999231E+04  0.65000000000E+04  0.10000000000E+01 0.  0.
    9000001   -1    0    0    0    0 -0.00000000000E+00 -0.00000000000E+00 -0.64999999231E+04  0.65000000000E+04  0.10000000000E+01 0.  0.
    9000001    1    1    2    0    0 -0.30792341159E+04 -0.55868510280E+04  0.12471615172E+04  0.65000000000E+04  0.10000000000E+01 0.  0.
    9000001    1    1    2    0    0  0.30792341159E+04  0.55868510280E+04 -0.12471615172E+04  0.65000000000E+04  0.10000000000E+01 0.  0.
</event>
<event>
 4    1  0.2193160E-006  0.1300000E+05  0.7957747E-01  0.1322471E+00
    9000001   -1    0    0    0    0  0.00000000000E+00  0.00000000000E+00  0.64999999231E+04  0.65000000000E+04  0.10000000000E+01 0.  0.
    9000001   -1    0    0    0    0 -0.00000000000E+00 -0.00000000000E+00 -0.64999999231E+04  0.65000000000E+04  0.10000000000E+01 0.  0.
    9000001    1    1    2    0    0 -0.79980260597E+03 -0.36854179910E+04  0.52941485645E+04  0.65000000000E+04  0.10000000000E+01 0.  0.
    9000001    1    1    2    0    0  0.79980260597E+03  0.36854179910E+04 -0.52941485645E+04  0.65000000000E+04  0.10000000000E+01 0.  0.
</event>
<event>
 4    1  0.2193160E-006  0.1300000E+05  0.7957747E-01  0.1322471E+00
    9000001   -1    0    0    0    0  0.00000000000E+00  0.00000000000E+00  0.64999999231E+04  0.65000000000E+04  0.10000000000E+01 0.  0.
    9000001   -1    0    0    0    0 -0.00000000000E+00 -0.00000000000E+00 -0.64999999231E+04  0.65000000000E+04  0.10000000000E+01 0.  0.
    9000001    1    1    2    0    0 -0.29747502002E+04 -0.44576223469E+04 -0.36783778026E+04  0.65000000000E+04  0.10000000000E+01 0.  0.
    9000001    1    1    2    0    0  0.29747502002E+04  0.44576223469E+04  0.36783778026E+04  0.65000000000E+04  0.10000000000E+01 0.  0.
</event>
<event>
 4    1  0.2193160E-006  0.1300000E+05  0.7957747E-01  0.1322471E+00
    9000001   -1    0    0    0    0  0.00000000000E+00  0.00000000000E+00  0.64999999231E+04  0.65000000000E+04  0.10000000000E+01 0.  0.
    9000001   -1    0    0    0    0 -0.00000000000E+00 -0.00000000000E+00 -0.64999999231E+04  0.65000000000E+04  0.10000000000E+01 0.  0.
    9000001    1    1    2    0    0 -0.54111775656E+04  0.32599778530E+04 -0.15302616610E+04  0.65000000000E+04  0.10000000000E+01 0.  0.
    9000001    1    1    2    0    0  0.54111775656E+04 -0.32599778530E+04  0.15302616610E+04  0.65000000000E+04  0.10000000000E+01 0.  0.
</event>
<event>
 4    1  0.2193160E-006  0.1300000E+05  0.7957747E-01  0.1322471E+00
    9000001   -1    0    0    0    0  0.00000000000E+00  0.00000000000E+00  0.64999999231E+04  0.65000000000E+04  0.10000000000E+01 0.  0.
    9000001   -1    0    0    0    0 -0.00000000000E+00 -0.00000000000E+00 -0.64999999231E+04  0.65000000000E+04  0.10000000000E+01 0.  0.
    9000001    1    1    2    0    0 -0.62351666227E+04 -0.22477991451E+03 -0.18226821383E+04  0.65000000000E+04  0.10000000000E+01 0.  0.
    9000001    1    1    2    0    0  0.62351666227E+04  0.22477991451E+03  0.18226821383E+04  0.65000000000E+04  0.10000000000E+01 0.  0.
</event>
<event>
 4    1  0.2193160E-006  0.1300000E+05  0.7957747E-01  0.1322471E+00
    9000001   -1    0    0    0    0  0.00000000000E+00  0.00000000000E+00  0.64999999231E+04  0.65000000000E+04  0.10000000000E+01 0.  0.
    9000001   -1    0    0    0    0 -0.00000000000E+00 -0.00000000000E+00 -0.64999999231E+04  0.65000000000E+04  0.10000000000E+01 0.  0.
    9000001    1    1    2    0    0  0.43614774355E+04  0.44262594569E+04  0.19067618622E+04  0.65000000000E+04  0.10000000000E+01 0.  0.
    9000001    1    1    2    0    0 -0.43614774355E+04 -0.44262594569E+04 -0.19067618622E+04  0.65000000000E+04  0.10000000000E+01 0.  0.
</event>
<event>
 4    1  0.2193160E-006  0.1300000E+05  0.7957747E-01  0.1322471E+00
    9000001   -1    0    0    0    0  0.00000000000E+00  0.00000000000E+00  0.64999999231E+04  0.65000000000E+04  0.10000000000E+01 0.  0.
    9000001   -1    0    0    0    0 -0.00000000000E+00 -0.00000000000E+00 -0.64999999231E+04  0.65000000000E+04  0.10000000000E+01 0.  0.
    9000001    1    1    2    0    0  0.22941778700E+04 -0.49464545901E+04  0.35382670743E+04  0.65000000000E+04  0.10000000000E+01 0.  0.
    9000001    1    1    2    0    0 -0.22941778700E+04  0.49464545901E+04 -0.35382670743E+04  0.65000000000E+04  0.10000000000E+01 0.  0.
</event>
<event>
 4    1  0.2193160E-006  0.1300000E+05  0.7957747E-01  0.1322471E+00
    9000001   -1    0    0    0    0  0.00000000000E+00  0.00000000000E+00  0.64999999231E+04  0.65000000000E+04  0.10000000000E+01 0.  0.
    9000001   -1    0    0    0    0 -0.00000000000E+00 -0.00000000000E+00 -0.64999999231E+04  0.65000000000E+04  0.10000000000E+01 0.  0.
    9000001    1    1    2    0    0  0.15583568500E+04  0.49827228541E+04  0.38722081410E+04  0.65000000000E+04  0.10000000000E+01 0.  0.
    9000001    1    1    2    0    0 -0.15583568500E+04 -0.49827228541E+04 -0.38722081410E+04  0.65000000000E+04  0.10000000000E+01 0.  0.
</event>
<event>
 4    1  0.2193160E-006  0.1300000E+05  0.7957747E-01  0.1322471E+00
    9000001   -1    0    0    0    0  0.00000000000E+00  0.00000000000E+00  0.64999999231E+04  0.65000000000E+04  0.10000000000E+01 0.  0.
    9000001   -1    0    0    0    0 -0.00000000000E+00 -0.00000000000E+00 -0.64999999231E+04  0.65000000000E+04  0.10000000000E+01 0.  0.
    9000001    1    1    2    0    0 -0.45251217481E+04 -0.38147924239E+04 -0.26871231694E+04  0.65000000000E+04  0.10000000000E+01 0.  0.
    9000001    1    1    2    0    0  0.45251217481E+04  0.38147924239E+04  0.26871231694E+04  0.65000000000E+04  0.10000000000E+01 0.  0.
</event>
<event>
 4    1  0.2193160E-006  0.1300000E+05  0.7957747E-01  0.1322471E+00
    9000001   -1    0    0    0    0  0.00000000000E+00  0.00000000000E+00  0.64999999231E+04  0.65000000000E+04  0.10000000000E+01 0.  0.
    9000001   -1    0    0    0    0 -0.00000000000E+00 -0.00000000000E+00 -0.64999999231E+04  0.65000000000E+04  0.10000000000E+01 0.  0.
    9000001    1    1    2    0    0  0.53519736503E+03  0.64608316715E+04  0.47033699911E+03  0.65000000000E+04  0.10000000000E+01 0.  0.
    9000001    1    1    2    0    0 -0.53519736503E+03 -0.64608316715E+04 -0.47033699911E+03  0.65000000000E+04  0.10000000000E+01 0.  0.
</event>
<event>
 4    1  0.2193160E-006  0.1300000E+05  0.7957747E-01  0.1322471E+00
    9000001   -1    0    0    0    0  0.00000000000E+00  0.00000000000E+00  0.64999999231E+04  0.65000000000E+04  0.10000000000E+01 0.  0.
    9000001   -1    0    0    0    0 -0.00000000000E+00 -0.00000000000E+00 -0.64999999231E+04  0.65000000000E+04  0.10000000000E+01 0.  0.
    9000001    1    1    2    0    0 -0.28215150277E+04 -0.56429930323E+04  0.15638675092E+04  0.65000000000E+04  0.10000000000E+01 0.  0.
    9000001    1    1    2    0    0  0.28215150277E+04  0.56429930323E+04 -0.15638675092E+04  0.65000000000E+04  0.10000000000E+01 0.  0.
</event>
<event>
 4    1  0.2193160E-006  0.1300000E+05  0.7957747E-01  0.1322471E+00
    9000001   -1    0    0    0    0  0.00000000000E+00  0.00000000000E+00  0.64999999231E+04  0.65000000000E+04  0.10000000000E+01 0.  0.
    9000001   -1    0    0    0    0 -0.00000000000E+00 -0.00000000000E+00 -0.64999999231E+04  0.65000000000E+04  0.10000000000E+01 0.  0.
    9000001    1    1    2    0    0  0.14196699237E+04 -0.12722789097E+04 -0.62141646811E+04  0.65000000000E+04  0.10000000000E+01 0.  0.
    9000001    1    1    2    0    0 -0.14196699237E+04  0.12722789097E+04  0.62141646811E+04  0.65000000000E+04  0.10000000000E+01 0.  0.
</event>
<event>
 4    1  0.2193160E-006  0.1300000E+05  0.7957747E-01  0.1322471E+00
    9000001   -1    0    0    0    0  0.00000000000E+00  0.00000000000E+00  0.64999999231E+04  0.65000000000E+04  0.10000000000E+01 0.  0.
    9000001   -1    0    0    0    0 -0.00000000000E+00 -0.00000000000E+00 -0.64999999231E+04  0.65000000000E+04  0.10000000000E+01 0.  0.
    9000001    1    1    2    0    0 -0.16515802338E+04  0.16777572679E+04  0.60586642324E+04  0.65000000000E+04  0.10000000000E+01 0.  0.
    9000001    1    1    2    0    0  0.16515802338E+04 -0.16777572679E+04 -0.60586642324E+04  0.65000000000E+04  0.10000000000E+01 0.  0.
</event>
<event>
 4    1  0.2193160E-006  0.1300000E+05  0.7957747E-01  0.1322471E+00
    9000001   -1    0    0    0    0  0.00000000000E+00  0.00000000000E+00  0.64999999231E+04  0.65000000000E+04  0.10000000000E+01 0.  0.
    9000001   -1    0    0    0    0 -0.00000000000E+00 -0.00000000000E+00 -0.64999999231E+04  0.65000000000E+04  0.10000000000E+01 0.  0.
    9000001    1    1    2    0    0  0.12949022740E+04 -0.38272508395E+04 -0.50916969776E+04  0.65000000000E+04  0.10000000000E+01 0.  0.
    9000001    1    1    2    0    0 -0.12949022740E+04  0.38272508395E+04  0.50916969776E+04  0.65000000000E+04  0.10000000000E+01 0.  0.
</event>
<event>
 4    1  0.2193160E-006  0.1300000E+05  0.7957747E-01  0.1322471E+00
    9000001   -1    0    0    0    0  0.00000000000E+00  0.00000000000E+00  0.64999999231E+04  0.65000000000E+04  0.10000000000E+01 0.  0.
    9000001   -1    0    0    0    0 -0.00000000000E+00 -0.00000000000E+00 -0.64999999231E+04  0.65000000000E+04  0.10000000000E+01 0.  0.
    9000001    1    1    2    0    0 -0.10941427037E+04  0.74758185531E+03 -0.63634874176E+04  0.65000000000E+04  0.10000000000E+01 0.  0.
    9000001    1    1    2    0    0  0.10941427037E+04 -0.74758185531E+03  0.63634874176E+04  0.65000000000E+04  0.10000000000E+01 0.  0.
</event>
<event>
 4    1  0.2193160E-006  0.1300000E+05  0.7957747E-01  0.1322471E+00
    9000001   -1    0    0    0    0  0.00000000000E+00  0.00000000000E+00  0.64999999231E+04  0.65000000000E+04  0.10000000000E+01 0.  0.
    9000001   -1    0    0    0    0 -0.00000000000E+00 -0.00000000000E+00 -0.64999999231E+04  0.65000000000E+04  0.10000000000E+01 0.  0.
    9000001    1    1    2    0    0 -0.51517584831E+04 -0.39003103926E+04 -0.70495558270E+03  0.65000000000E+04  0.10000000000E+01 0.  0.
    9000001    1    1    2    0    0  0.51517584831E+04  0.39003103926E+04  0.70495558270E+03  0.65000000000E+04  0.10000000000E+01 0.  0.
</event>
<event>
 4    1  0.2193160E-006  0.1300000E+05  0.7957747E-01  0.1322471E+00
    9000001   -1    0    0    0    0  0.00000000000E+00  0.00000000000E+00  0.64999999231E+04  0.65000000000E+04  0.10000000000E+01 0.  0.
    9000001   -1    0    0    0    0 -0.00000000000E+00 -0.00000000000E+00 -0.64999999231E+04  0.65000000000E+04  0.10000000000E+01 0.  0.
    9000001    1    1    2    0    0 -0.53924306116E+04 -0.34354964506E+04  0.11700663386E+04  0.65000000000E+04  0.10000000000E+01 0.  0.
    9000001    1    1    2    0    0  0.53924306116E+04  0.34354964506E+04 -0.11700663386E+04  0.65000000000E+04  0.10000000000E+01 0.  0.
</event>
<event>
 4    1  0.2193160E-006  0.1300000E+05  0.7957747E-01  0.1322471E+00
    9000001   -1    0    0    0    0  0.00000000000E+00  0.00000000000E+00  0.64999999231E+04  0.65000000000E+04  0.10000000000E+01 0.  0.
    9000001   -1    0    0    0    0 -0.00000000000E+00 -0.00000000000E+00 -0.64999999231E+04  0.65000000000E+04  0.10000000000E+01 0.  0.
    9000001    1    1    2    0    0 -0.49566732767E+04  0.58147976929E+03 -0.41645252198E+04  0.65000000000E+04  0.10000000000E+01 0.  0.
    9000001    1    1    2    0    0  0.49566732767E+04 -0.58147976929E+03  0.41645252198E+04  0.65000000000E+04  0.10000000000E+01 0.  0.
</event>
<event>
 4    1  0.2193160E-006  0.1300000E+05  0.7957747E-01  0.1322471E+00
    9000001   -1    0    0    0    0  0.00000000000E+00  0.00000000000E+00  0.64999999231E+04  0.65000000000E+04  0.10000000000E+01 0.  0.
    9000001   -1    0    0    0    0 -0.00000000000E+00 -0.00000000000E+00 -0.64999999231E+04  0.65000000000E+04  0.10000000000E+01 0.  0.
    9000001    1    1    2    0    0  0.37981069704E+04 -0.42711740584E+04  0.30953924799E+04  0.65000000000E+04  0.10000000000E+01 0.  0.
    9000001    1    1    2    0    0 -0.37981069704E+04  0.42711740584E+04 -0.30953924799E+04  0.65000000000E+04  0.10000000000E+01 0.  0.
</event>
<event>
 4    1  0.2193160E-006  0.1300000E+05  0.7957747E-01  0.1322471E+00
    9000001   -1    0    0    0    0  0.00000000000E+00  0.00000000000E+00  0.64999999231E+04  0.65000000000E+04  0.10000000000E+01 0.  0.
    9000001   -1    0    0    0    0 -0.00000000000E+00 -0.00000000000E+00 -0.64999999231E+04  0.65000000000E+04  0.10000000000E+01 0.  0.
    9000001    1    1    2    0    0 -0.22136768015E+04  0.27061711002E+04 -0.54796233443E+04  0.65000000000E+04  0.10000000000E+01 0.  0.
    9000001    1    1    2    0    0  0.22136768015E+04 -0.27061711002E+04  0.54796233443E+04  0.65000000000E+04  0.10000000000E+01 0.  0.
</event>
<event>
 4    1  0.2193160E-006  0.1300000E+05  0.7957747E-01  0.1322471E+00
    9000001   -1    0    0    0    0  0.00000000000E+00  0.00000000000E+00  0.64999999231E+04  0.65000000000E+04  0.10000000000E+01 0.  0.
    9000001   -1    0    0    0    0 -0.00000000000E+00 -0.00000000000E+00 -0.64999999231E+04  0.65000000000E+04  0.10000000000E+01 0.  0.
    9000001    1    1    2    0    0  0.88108637873E+02  0.15747574022E+04  0.63057414308E+04  0.65000000000E+04  0.10000000000E+01 0.  0.
    9000001    1    1    2    0    0 -0.88108637873E+02 -0.15747574022E+04 -0.63057414308E+04  0.65000000000E+04  0.10000000000E+01 0.  0.
</event>
<event>
 4    1  0.2193160E-006  0.1300000E+05  0.7957747E-01  0.1322471E+00
    9000001   -1    0    0    0    0  0.00000000000E+00  0.00000000000E+00  0.64999999231E+04  0.65000000000E+04  0.10000000000E+01 0.  0.
    9000001   -1    0    0    0    0 -0.00000000000E+00 -0.00000000000E+00 -0.64999999231E+04  0.65000000000E+04  0.10000000000E+01 0.  0.
    9000001    1    1    2    0    0 -0.37813772840E+04 -0.44883216352E+04 -0.27939494869E+04  0.65000000000E+04  0.10000000000E+01 0.  0.
    9000001    1    1    2    0    0  0.37813772840E+04  0.44883216352E+04  0.27939494869E+04  0.65000000000E+04  0.10000000000E+01 0.  0.
</event>
<event>
 4    1  0.2193160E-006  0.1300000E+05  0.7957747E-01  0.1322471E+00
    9000001   -1    0    0    0    0  0.00000000000E+00  0.00000000000E+00  0.64999999231E+04  0.65000000000E+04  0.10000000000E+01 0.  0.
    9000001   -1    0    0    0    0 -0.00000000000E+00 -0.00000000000E+00 -0.64999999231E+04  0.65000000000E+04  0.10000000000E+01 0.  0.
    9000001    1    1    2    0    0  0.50998966824E+04 -0.38446623250E+04 -0.12081491779E+04  0.65000000000E+04  0.10000000000E+01 0.  0.
    9000001    1    1    2    0    0 -0.50998966824E+04  0.38446623250E+04  0.12081491779E+04  0.65000000000E+04  0.10000000000E+01 0.  0.
</event>
<event>
 4    1  0.2193160E-006  0.1300000E+05  0.7957747E-01  0.1322471E+00
    9000001   -1    0    0    0    0  0.00000000000E+00  0.00000000000E+00  0.64999999231E+04  0.65000000000E+04  0.10000000000E+01 0.  0.
    9000001   -1    0    0    0    0 -0.00000000000E+00 -0.00000000000E+00 -0.64999999231E+04  0.65000000000E+04  0.10000000000E+01 0.  0.
    9000001    1    1    2    0    0  0.44274966971E+04  0.42062084003E+04 -0.22260015478E+04  0.65000000000E+04  0.10000000000E+01 0.  0.
    9000001    1    1    2    0    0 -0.44274966971E+04 -0.42062084003E+04  0.22260015478E+04  0.65000000000E+04  0.10000000000E+01 0.  0.
</event>
<event>
 4    1  0.2193160E-006  0.1300000E+05  0.7957747E-01  0.1322471E+00
    9000001   -1    0    0    0    0  0.00000000000E+00  0.00000000000E+00  0.64999999231E+04  0.65000000000E+04  0.10000000000E+01 0.  0.
    9000001   -1    0    0    0    0 -0.00000000000E+00 -0.00000000000E+00 -0.64999999231E+04  0.65000000000E+04  0.10000000000E+01 0.  0.
    9000001    1    1    2    0    0 -0.25978301012E+04  0.47704163651E+03  0.59391673695E+04  0.65000000000E+04  0.10000000000E+01 0.  0.
    9000001    1    1    2    0    0  0.25978301012E+04 -0.47704163651E+03 -0.59391673695E+04  0.65000000000E+04  0.10000000000E+01 0.  0.
</event>
<event>
 4    1  0.2193160E-006  0.1300000E+05  0.7957747E-01  0.1322471E+00
    9000001   -1    0    0    0    0  0.00000000000E+00  0.00000000000E+00  0.64999999231E+04  0.65000000000E+04  0.10000000000E+01 0.  0.
    9000001   -1    0    0    0    0 -0.00000000000E+00 -0.00000000000E+00 -0.64999999231E+04  0.65000000000E+04  0.10000000000E+01 0.  0.
    9000001    1    1    2    0    0  0.49976522917E+04 -0.34419424426E+04  0.23294855212E+04  0.65000000000E+04  0.10000000000E+01 0.  0.
    9000001    1    1    2    0    0 -0.49976522917E+04  0.34419424426E+04 -0.23294855212E+04  0.65000000000E+04  0.10000000000E+01 0.  0.
</event>
<event>
 4    1  0.2193160E-006  0.1300000E+05  0.7957747E-01  0.1322471E+00
    9000001   -1    0    0    0    0  0.00000000000E+00  0.00000000000E+00  0.64999999231E+04  0.65000000000E+04  0.10000000000E+01 0.  0.
    9000001   -1    0    0    0    0 -0.00000000000E+00 -0.00000000000E+00 -0.64999999231E+04  0.65000000000E+04  0.10000000000E+01 0.  0.
    9000001    1    1    2    0    0 -0.54592278716E+04 -0.34732710725E+04 -0.61904612299E+03  0.65000000000E+04  0.10000000000E+01 0.  0.
    9000001    1    1    2    0    0  0.54592278716E+04  0.34732710725E+04  0.61904612299E+03  0.65000000000E+04  0.10000000000E+01 0.  0.
</event>
<event>
 4    1  0.2193160E-006  0.1300000E+05  0.7957747E-01  0.1322471E+00
    9000001   -1    0    0    0    0  0.00000000000E+00  0.00000000000E+00  0.64999999231E+04  0.65000000000E+04  0.10000000000E+01 0.  0.
    9000001   -1    0    0    0    0 -0.00000000000E+00 -0.00000000000E+00 -0.64999999231E+04  0.65000000000E+04  0.10000000000E+01 0.  0.
    9000001    1    1    2    0    0 -0.10988300879E+04  0.63591170611E+04 -0.77730408575E+03  0.65000000000E+04  0.10000000000E+01 0.  0.
    9000001    1    1    2    0    0  0.10988300879E+04 -0.63591170611E+04  0.77730408575E+03  0.65000000000E+04  0.10000000000E+01 0.  0.
</event>
<event>
 4    1  0.2193160E-006  0.1300000E+05  0.7957747E-01  0.1322471E+00
    9000001   -1    0    0    0    0  0.00000000000E+00  0.00000000000E+00  0.64999999231E+04  0.65000000000E+04  0.10000000000E+01 0.  0.
    9000001   -1    0    0    0    0 -0.00000000000E+00 -0.00000000000E+00 -0.64999999231E+04  0.65000000000E+04  0.10000000000E+01 0.  0.
    9000001    1    1    2    0    0 -0.38489352555E+04 -0.51960592359E+04  0.66080618613E+03  0.65000000000E+04  0.10000000000E+01 0.  0.
    9000001    1    1    2    0    0  0.38489352555E+04  0.51960592359E+04 -0.66080618613E+03  0.65000000000E+04  0.10000000000E+01 0.  0.
</event>
<event>
 4    1  0.2193160E-006  0.1300000E+05  0.7957747E-01  0.1322471E+00
    9000001   -1    0    0    0    0  0.00000000000E+00  0.00000000000E+00  0.64999999231E+04  0.65000000000E+04  0.10000000000E+01 0.  0.
    9000001   -1    0    0    0    0 -0.00000000000E+00 -0.00000000000E+00 -0.64999999231E+04  0.65000000000E+04  0.10000000000E+01 0.  0.
    9000001    1    1    2    0    0  0.26561411899E+04  0.50773908973E+04  0.30683895866E+04  0.65000000000E+04  0.10000000000E+01 0.  0.
    9000001    1    1    2    0    0 -0.26561411899E+04 -0.50773908973E+04 -0.30683895866E+04  0.65000000000E+04  0.10000000000E+01 0.  0.
</event>
<event>
 4    1  0.2193160E-006  0.1300000E+05  0.7957747E-01  0.1322471E+00
    9000001   -1    0    0    0    0  0.00000000000E+00  0.00000000000E+00  0.64999999231E+04  0.65000000000E+04  0.10000000000E+01 0.  0.
    9000001   -1    0    0    0    0 -0.00000000000E+00 -0.00000000000E+00 -0.64999999231E+04  0.65000000000E+04  0.10000000000E+01 0.  0.
    9000001    1    1    2    0    0  0.33082572587E+04 -0.50133413398E+03 -0.55726202990E+04  0.65000000000E+04  0.10000000000E+01 0.  0.
    9000001    1    1    2    0    0 -0.33082572587E+04  0.50133413398E+03  0.55726202990E+04  0.65000000000E+04  0.10000000000E+01 0.  0.
</event>
<event>
 4    1  0.2193160E-006  0.1300000E+05  0.7957747E-01  0.1322471E+00
    9000001   -1    0    0    0    0  0.00000000000E+00  0.00000000000E+00  0.64999999231E+04  0.65000000000E+04  0.10000000000E+01 0.  0.
    9000001   -1    0    0    0    0 -0.00000000000E+00 -0.00000000000E+00 -0.64999999231E+04  0.65000000000E+04  0.10000000000E+01 0.  0.
    9000001    1    1    2    0    0 -0.20281369913E+04  0.59241267780E+04  0.17439556366E+04  0.65000000000E+04  0.10000000000E+01 0.  0.
    9000001    1    1    2    0    0  0.20281369913E+04 -0.59241267780E+04 -0.17439556366E+04  0.65000000000E+04  0.10000000000E+01 0.  0.
</event>
<event>
 4    1  0.2193160E-006  0.1300000E+05  0.7957747E-01  0.1322471E+00
    9000001   -1    0    0    0    0  0.00000000000E+00  0.00000000000E+00  0.64999999231E+04  0.65000000000E+04  0.10000000000E+01 0.  0.
    9000001   -1    0    0    0    0 -0.00000000000E+00 -0.00000000000E+00 -0.64999999231E+04  0.65000000000E+04  0.10000000000E+01 0.  0.
    9000001    1    1    2    0    0 -0.36831760075E+04  0.45404098211E+04  0.28405795455E+04  0.65000000000E+04  0.10000000000E+01 0.  0.
    9000001    1    1    2    0    0  0.36831760075E+04 -0.45404098211E+04 -0.28405795455E+04  0.65000000000E+04  0.10000000000E+01 0.  0.
</event>
<event>
 4    1  0.2193160E-006  0.1300000E+05  0.7957747E-01  0.1322471E+00
    9000001   -1    0    0    0    0  0.00000000000E+00  0.00000000000E+00  0.64999999231E+04  0.65000000000E+04  0.10000000000E+01 0.  0.
    9000001   -1    0    0    0    0 -0.00000000000E+00 -0.00000000000E+00 -0.64999999231E+04  0.65000000000E+04  0.10000000000E+01 0.  0.
    9000001    1    1    2    0    0  0.63150641701E+04 -0.12999545274E+04 -0.82467069453E+03  0.65000000000E+04  0.10000000000E+01 0.  0.
    9000001    1    1    2    0    0 -0.63150641701E+04  0.12999545274E+04  0.82467069453E+03  0.65000000000E+04  0.10000000000E+01 0.  0.
</event>
<event>
 4    1  0.2193160E-006  0.1300000E+05  0.7957747E-01  0.1322471E+00
    9000001   -1    0    0    0    0  0.00000000000E+00  0.00000000000E+00  0.64999999231E+04  0.65000000000E+04  0.10000000000E+01 0.  0.
    9000001   -1    0    0    0    0 -0.00000000000E+00 -0.00000000000E+00 -0.64999999231E+04  0.65000000000E+04  0.10000000000E+01 0.  0.
    9000001    1    1    2    0    0 -0.49195355018E+04 -0.39252642927E+04  0.16249522083E+04  0.65000000000E+04  0.10000000000E+01 0.  0.
    9000001    1    1    2    0    0  0.49195355018E+04  0.39252642927E+04 -0.16249522083E+04  0.65000000000E+04  0.10000000000E+01 0.  0.
</event>
<event>
 4    1  0.2193160E-006  0.1300000E+05  0.7957747E-01  0.1322471E+00
    9000001   -1    0    0    0    0  0.00000000000E+00  0.00000000000E+00  0.64999999231E+04  0.65000000000E+04  0.10000000000E+01 0.  0.
    9000001   -1    0    0    0    0 -0.00000000000E+00 -0.00000000000E+00 -0.64999999231E+04  0.65000000000E+04  0.10000000000E+01 0.  0.
    9000001    1    1    2    0    0 -0.24164038237E+04  0.85800823597E+03 -0.59728396453E+04  0.65000000000E+04  0.10000000000E+01 0.  0.
    9000001    1    1    2    0    0  0.24164038237E+04 -0.85800823597E+03  0.59728396453E+04  0.65000000000E+04  0.10000000000E+01 0.  0.
</event>
<event>
 4    1  0.2193160E-006  0.1300000E+05  0.7957747E-01  0.1322471E+00
    9000001   -1    0    0    0    0  0.00000000000E+00  0.00000000000E+00  0.64999999231E+04  0.65000000000E+04  0.10000000000E+01 0.  0.
    9000001   -1    0    0    0    0 -0.00000000000E+00 -0.00000000000E+00 -0.64999999231E+04  0.65000000000E+04  0.10000000000E+01 0.  0.
    9000001    1    1    2    0    0 -0.27251021583E+04  0.36050609962E+04 -0.46719752183E+04  0.65000000000E+04  0.10000000000E+01 0.  0.
    9000001    1    1    2    0    0  0.27251021583E+04 -0.36050609962E+04  0.46719752183E+04  0.65000000000E+04  0.10000000000E+01 0.  0.
</event>
<event>
 4    1  0.2193160E-006  0.1300000E+05  0.7957747E-01  0.1322471E+00
    9000001   -1    0    0    0    0  0.00000000000E+00  0.00000000000E+00  0.64999999231E+04  0.65000000000E+04  0.10000000000E+01 0.  0.
    9000001   -1    0    0    0    0 -0.00000000000E+00 -0.00000000000E+00 -0.64999999231E+04  0.65000000000E+04  0.10000000000E+01 0.  0.
    9000001    1    1    2    0    0 -0.37948611360E+04  0.52754146374E+04 -0.13794332803E+03  0.65000000000E+04  0.10000000000E+01 0.  0.
    9000001    1    1    2    0    0  0.37948611360E+04 -0.52754146374E+04  0.13794332803E+03  0.65000000000E+04  0.10000000000E+01 0.  0.
</event>
<event>
 4    1  0.2193160E-006  0.1300000E+05  0.7957747E-01  0.1322471E+00
    9000001   -1    0    0    0    0  0.00000000000E+00  0.00000000000E+00  0.64999999231E+04  0.65000000000E+04  0.10000000000E+01 0.  0.
    9000001   -1    0    0    0    0 -0.00000000000E+00 -0.00000000000E+00 -0.64999999231E+04  0.65000000000E+04  0.10000000000E+01 0.  0.
    9000001    1    1    2    0    0  0.25760132153E+04  0.50279243810E+02  0.59675478140E+04  0.65000000000E+04  0.10000000000E+01 0.  0.
    9000001    1    1    2    0    0 -0.25760132153E+04 -0.50279243810E+02 -0.59675478140E+04  0.65000000000E+04  0.10000000000E+01 0.  0.
</event>
<event>
 4    1  0.2193160E-006  0.1300000E+05  0.7957747E-01  0.1322471E+00
    9000001   -1    0    0    0    0  0.00000000000E+00  0.00000000000E+00  0.64999999231E+04  0.65000000000E+04  0.10000000000E+01 0.  0.
    9000001   -1    0    0    0    0 -0.00000000000E+00 -0.00000000000E+00 -0.64999999231E+04  0.65000000000E+04  0.10000000000E+01 0.  0.
    9000001    1    1    2    0    0  0.23024362046E+04  0.38950558362E+04 -0.46666183213E+04  0.65000000000E+04  0.10000000000E+01 0.  0.
    9000001    1    1    2    0    0 -0.23024362046E+04 -0.38950558362E+04  0.46666183213E+04  0.65000000000E+04  0.10000000000E+01 0.  0.
</event>
<event>
 4    1  0.2193160E-006  0.1300000E+05  0.7957747E-01  0.1322471E+00
    9000001   -1    0    0    0    0  0.00000000000E+00  0.00000000000E+00  0.64999999231E+04  0.65000000000E+04  0.10000000000E+01 0.  0.
    9000001   -1    0    0    0    0 -0.00000000000E+00 -0.00000000000E+00 -0.64999999231E+04  0.65000000000E+04  0.10000000000E+01 0.  0.
    9000001    1    1    2    0    0  0.15955599232E+04  0.67664050676E+03 -0.62646903480E+04  0.65000000000E+04  0.10000000000E+01 0.  0.
    9000001    1    1    2    0    0 -0.15955599232E+04 -0.67664050676E+03  0.62646903480E+04  0.65000000000E+04  0.10000000000E+01 0.  0.
</event>
<event>
 4    1  0.2193160E-006  0.1300000E+05  0.7957747E-01  0.1322471E+00
    9000001   -1    0    0    0    0  0.00000000000E+00  0.00000000000E+00  0.64999999231E+04  0.65000000000E+04  0.10000000000E+01 0.  0.
    9000001   -1    0    0    0    0 -0.00000000000E+00 -0.00000000000E+00 -0.64999999231E+04  0.65000000000E+04  0.10000000000E+01 0.  0.
    9000001    1    1    2    0    0  0.38398434751E+04 -0.52267363614E+04  0.43223615658E+03  0.65000000000E+04  0.10000000000E+01 0.  0.
    9000001    1    1    2    0    0 -0.38398434751E+04  0.52267363614E+04 -0.43223615658E+03  0.65000000000E+04  0.10000000000E+01 0.  0.
</event>
<event>
 4    1  0.2193160E-006  0.1300000E+05  0.7957747E-01  0.1322471E+00
    9000001   -1    0    0    0    0  0.00000000000E+00  0.00000000000E+00  0.64999999231E+04  0.65000000000E+04  0.10000000000E+01 0.  0.
    9000001   -1    0    0    0    0 -0.00000000000E+00 -0.00000000000E+00 -0.64999999231E+04  0.65000000000E+04  0.10000000000E+01 0.  0.
    9000001    1    1    2    0    0 -0.39875753043E+04  0.15009836644E+04  0.49087972286E+04  0.65000000000E+04  0.10000000000E+01 0.  0.
    9000001    1    1    2    0    0  0.39875753043E+04 -0.15009836644E+04 -0.49087972286E+04  0.65000000000E+04  0.10000000000E+01 0.  0.
</event>
<event>
 4    1  0.2193160E-006  0.1300000E+05  0.7957747E-01  0.1322471E+00
    9000001   -1    0    0    0    0  0.00000000000E+00  0.00000000000E+00  0.64999999231E+04  0.65000000000E+04  0.10000000000E+01 0.  0.
    9000001   -1    0    0    0    0 -0.00000000000E+00 -0.00000000000E+00 -0.64999999231E+04  0.65000000000E+04  0.10000000000E+01 0.  0.
    9000001    1    1    2    0    0 -0.21135987429E+04 -0.60003113382E+04 -0.13337777921E+04  0.65000000000E+04  0.10000000000E+01 0.  0.
    9000001    1    1    2    0    0  0.21135987429E+04  0.60003113382E+04  0.13337777921E+04  0.65000000000E+04  0.10000000000E+01 0.  0.
</event>
<event>
 4    1  0.2193160E-006  0.1300000E+05  0.7957747E-01  0.1322471E+00
    9000001   -1    0    0    0    0  0.00000000000E+00  0.00000000000E+00  0.64999999231E+04  0.65000000000E+04  0.10000000000E+01 0.  0.
    9000001   -1    0    0    0    0 -0.00000000000E+00 -0.00000000000E+00 -0.64999999231E+04  0.65000000000E+04  0.10000000000E+01 0.  0.
    9000001    1    1    2    0    0 -0.20710466394E+04 -0.59554408551E+04  0.15790785411E+04  0.65000000000E+04  0.10000000000E+01 0.  0.
    9000001    1    1    2    0    0  0.20710466394E+04  0.59554408551E+04 -0.15790785411E+04  0.65000000000E+04  0.10000000000E+01 0.  0.
</event>
<event>
 4    1  0.2193160E-006  0.1300000E+05  0.7957747E-01  0.1322471E+00
    9000001   -1    0    0    0    0  0.00000000000E+00  0.00000000000E+00  0.64999999231E+04  0.65000000000E+04  0.10000000000E+01 0.  0.
    9000001   -1    0    0    0    0 -0.00000000000E+00 -0.00000000000E+00 -0.64999999231E+04  0.65000000000E+04  0.10000000000E+01 0.  0.
    9000001    1    1    2    0    0  0.96162340955E+03  0.59156335042E+04  0.25160603456E+04  0.65000000000E+04  0.10000000000E+01 0.  0.
    9000001    1    1    2    0    0 -0.96162340955E+03 -0.59156335042E+04 -0.25160603456E+04  0.65000000000E+04  0.10000000000E+01 0.  0.
</event>
<event>
 4    1  0.2193160E-006  0.1300000E+05  0.7957747E-01  0.1322471E+00
    9000001   -1    0    0    0    0  0.00000000000E+00  0.00000000000E+00  0.64999999231E+04  0.65000000000E+04  0.10000000000E+01 0.  0.
    9000001   -1    0    0    0    0 -0.00000000000E+00 -0.00000000000E+00 -0.64999999231E+04  0.65000000000E+04  0.10000000000E+01 0.  0.
    9000001    1    1    2    0    0  0.11430944065E+04  0.57941844137E+04 -0.27149145765E+04  0.65000000000E+04  0.10000000000E+01 0.  0.
    9000001    1    1    2    0    0 -0.11430944065E+04 -0.57941844137E+04  0.27149145765E+04  0.65000000000E+04  0.10000000000E+01 0.  0.
</event>
<event>
 4    1  0.2193160E-006  0.1300000E+05  0.7957747E-01  0.1322471E+00
    9000001   -1    0    0    0    0  0.00000000000E+00  0.00000000000E+00  0.64999999231E+04  0.65000000000E+04  0.10000000000E+01 0.  0.
    9000001   -1    0    0    0    0 -0.00000000000E+00 -0.00000000000E+00 -0.64999999231E+04  0.65000000000E+04  0.10000000000E+01 0.  0.
    9000001    1    1    2    0    0  0.40082505030E+04  0.48891701129E+04 -0.15099478510E+04  0.65000000000E+04  0.10000000000E+01 0.  0.
    9000001    1    1    2    0    0 -0.40082505030E+04 -0.48891701129E+04  0.15099478510E+04  0.65000000000E+04  0.10000000000E+01 0.  0.
</event>
<event>
 4    1  0.2193160E-006  0.1300000E+05  0.7957747E-01  0.1322471E+00
    9000001   -1    0    0    0    0  0.00000000000E+00  0.00000000000E+00  0.64999999231E+04  0.65000000000E+04  0.10000000000E+01 0.  0.
    9000001   -1    0    0    0    0 -0.00000000000E+00 -0.00000000000E+00 -0.64999999231E+04  0.65000000000E+04  0.10000000000E+01 0.  0.
    9000001    1    1    2    0    0 -0.42282473256E+04  0.30873660157E+04 -0.38522843403E+04  0.65000000000E+04  0.10000000000E+01 0.  0.
    9000001    1    1    2    0    0  0.42282473256E+04 -0.30873660157E+04  0.38522843403E+04  0.65000000000E+04  0.10000000000E+01 0.  0.
</event>
<event>
 4    1  0.2193160E-006  0.1300000E+05  0.7957747E-01  0.1322471E+00
    9000001   -1    0    0    0    0  0.00000000000E+00  0.00000000000E+00  0.64999999231E+04  0.65000000000E+04  0.10000000000E+01 0.  0.
    9000001   -1    0    0    0    0 -0.00000000000E+00 -0.00000000000E+00 -0.64999999231E+04  0.65000000000E+04  0.10000000000E+01 0.  0.
    9000001    1    1    2    0    0 -0.20629057254E+04  0.44346849773E+04  0.42811199609E+04  0.65000000000E+04  0.10000000000E+01 0.  0.
    9000001    1    1    2    0    0  0.20629057254E+04 -0.44346849773E+04 -0.42811199609E+04  0.65000000000E+04  0.10000000000E+01 0.  0.
</event>
<event>
 4    1  0.2193160E-006  0.1300000E+05  0.7957747E-01  0.1322471E+00
    9000001   -1    0    0    0    0  0.00000000000E+00  0.00000000000E+00  0.64999999231E+04  0.65000000000E+04  0.10000000000E+01 0.  0.
    9000001   -1    0    0    0    0 -0.00000000000E+00 -0.00000000000E+00 -0.64999999231E+04  0.65000000000E+04  0.10000000000E+01 0.  0.
    9000001    1    1    2    0    0 -0.25451573414E+04  0.24708847603E+04 -0.54467331134E+04  0.65000000000E+04  0.10000000000E+01 0.  0.
    9000001    1    1    2    0    0  0.25451573414E+04 -0.24708847603E+04  0.54467331134E+04  0.65000000000E+04  0.10000000000E+01 0.  0.
</event>
<event>
 4    1  0.2193160E-006  0.1300000E+05  0.7957747E-01  0.1322471E+00
    9000001   -1    0    0    0    0  0.00000000000E+00  0.00000000000E+00  0.64999999231E+04  0.65000000000E+04  0.10000000000E+01 0.  0.
    9000001   -1    0    0    0    0 -0.00000000000E+00 -0.00000000000E+00 -0.64999999231E+04  0.65000000000E+04  0.10000000000E+01 0.  0.
    9000001    1    1    2    0    0 -0.49184379201E+04 -0.10305574500E+04  0.41227319545E+04  0.65000000000E+04  0.10000000000E+01 0.  0.
    9000001    1    1    2    0    0  0.49184379201E+04  0.10305574500E+04 -0.41227319545E+04  0.65000000000E+04  0.10000000000E+01 0.  0.
</event>
<event>
 4    1  0.2193160E-006  0.1300000E+05  0.7957747E-01  0.1322471E+00
    9000001   -1    0    0    0    0  0.00000000000E+00  0.00000000000E+00  0.64999999231E+04  0.65000000000E+04  0.10000000000E+01 0.  0.
    9000001   -1    0    0    0    0 -0.00000000000E+00 -0.00000000000E+00 -0.64999999231E+04  0.65000000000E+04  0.10000000000E+01 0.  0.
    9000001    1    1    2    0    0 -0.21047629015E+04  0.27730755721E+04  0.54890822548E+04  0.65000000000E+04  0.10000000000E+01 0.  0.
    9000001    1    1    2    0    0  0.21047629015E+04 -0.27730755721E+04 -0.54890822548E+04  0.65000000000E+04  0.10000000000E+01 0.  0.
</event>
<event>
 4    1  0.2193160E-006  0.1300000E+05  0.7957747E-01  0.1322471E+00
    9000001   -1    0    0    0    0  0.00000000000E+00  0.00000000000E+00  0.64999999231E+04  0.65000000000E+04  0.10000000000E+01 0.  0.
    9000001   -1    0    0    0    0 -0.00000000000E+00 -0.00000000000E+00 -0.64999999231E+04  0.65000000000E+04  0.10000000000E+01 0.  0.
    9000001    1    1    2    0    0 -0.10937713412E+04 -0.14934342692E+04 -0.62308360062E+04  0.65000000000E+04  0.10000000000E+01 0.  0.
    9000001    1    1    2    0    0  0.10937713412E+04  0.14934342692E+04  0.62308360062E+04  0.65000000000E+04  0.10000000000E+01 0.  0.
</event>
<event>
 4    1  0.2193160E-006  0.1300000E+05  0.7957747E-01  0.1322471E+00
    9000001   -1    0    0    0    0  0.00000000000E+00  0.00000000000E+00  0.64999999231E+04  0.65000000000E+04  0.10000000000E+01 0.  0.
    9000001   -1    0    0    0    0 -0.00000000000E+00 -0.00000000000E+00 -0.64999999231E+04  0.65000000000E+04  0.10000000000E+01 0.  0.
    9000001    1    1    2    0    0 -0.25185428409E+04 -0.55410012489E+04 -0.22812816833E+04  0.65000000000E+04  0.10000000000E+01 0.  0.
    9000001    1    1    2    0    0  0.25185428409E+04  0.55410012489E+04  0.22812816833E+04  0.65000000000E+04  0.10000000000E+01 0.  0.
</event>
<event>
 4    1  0.2193160E-006  0.1300000E+05  0.7957747E-01  0.1322471E+00
    9000001   -1    0    0    0    0  0.00000000000E+00  0.00000000000E+00  0.64999999231E+04  0.65000000000E+04  0.10000000000E+01 0.  0.
    9000001   -1    0    0    0    0 -0.00000000000E+00 -0.00000000000E+00 -0.64999999231E+04  0.65000000000E+04  0.10000000000E+01 0.  0.
    9000001    1    1    2    0    0  0.26887507127E+04  0.76329309445E+03 -0.58683900907E+04  0.65000000000E+04  0.10000000000E+01 0.  0.
    9000001    1    1    2    0    0 -0.26887507127E+04 -0.76329309445E+03  0.58683900907E+04  0.65000000000E+04  0.10000000000E+01 0.  0.
</event>
<event>
 4    1  0.2193160E-006  0.1300000E+05  0.7957747E-01  0.1322471E+00
    9000001   -1    0    0    0    0  0.00000000000E+00  0.00000000000E+00  0.64999999231E+04  0.65000000000E+04  0.10000000000E+01 0.  0.
    9000001   -1    0    0    0    0 -0.00000000000E+00 -0.00000000000E+00 -0.64999999231E+04  0.65000000000E+04  0.10000000000E+01 0.  0.
    9000001    1    1    2    0    0  0.49049381058E+04 -0.37251859906E+04 -0.20771544269E+04  0.65000000000E+04  0.10000000000E+01 0.  0.
    9000001    1    1    2    0    0 -0.49049381058E+04  0.37251859906E+04  0.20771544269E+04  0.65000000000E+04  0.10000000000E+01 0.  0.
</event>
<event>
 4    1  0.2193160E-006  0.1300000E+05  0.7957747E-01  0.1322471E+00
    9000001   -1    0    0    0    0  0.00000000000E+00  0.00000000000E+00  0.64999999231E+04  0.65000000000E+04  0.10000000000E+01 0.  0.
    9000001   -1    0    0    0    0 -0.00000000000E+00 -0.00000000000E+00 -0.64999999231E+04  0.65000000000E+04  0.10000000000E+01 0.  0.
    9000001    1    1    2    0    0  0.43817291722E+04 -0.30566750771E+04  0.37023216952E+04  0.65000000000E+04  0.10000000000E+01 0.  0.
    9000001    1    1    2    0    0 -0.43817291722E+04  0.30566750771E+04 -0.37023216952E+04  0.65000000000E+04  0.10000000000E+01 0.  0.
</event>
<event>
 4    1  0.2193160E-006  0.1300000E+05  0.7957747E-01  0.1322471E+00
    9000001   -1    0    0    0    0  0.00000000000E+00  0.00000000000E+00  0.64999999231E+04  0.65000000000E+04  0.10000000000E+01 0.  0.
    9000001   -1    0    0    0    0 -0.00000000000E+00 -0.00000000000E+00 -0.64999999231E+04  0.65000000000E+04  0.10000000000E+01 0.  0.
    9000001    1    1    2    0    0  0.20053498055E+04  0.42896510330E+04 -0.44528041920E+04  0.65000000000E+04  0.10000000000E+01 0.  0.
    9000001    1    1    2    0    0 -0.20053498055E+04 -0.42896510330E+04  0.44528041920E+04  0.65000000000E+04  0.10000000000E+01 0.  0.
</event>
<event>
 4    1  0.2193160E-006  0.1300000E+05  0.7957747E-01  0.1322471E+00
    9000001   -1    0    0    0    0  0.00000000000E+00  0.00000000000E+00  0.64999999231E+04  0.65000000000E+04  0.10000000000E+01 0.  0.
    9000001   -1    0    0    0    0 -0.00000000000E+00 -0.00000000000E+00 -0.64999999231E+04  0.65000000000E+04  0.10000000000E+01 0.  0.
    9000001    1    1    2    0    0 -0.47201105041E+03  0.64652877819E+04 -0.47671633670E+03  0.65000000000E+04  0.10000000000E+01 0.  0.
    9000001    1    1    2    0    0  0.47201105041E+03 -0.64652877819E+04  0.47671633670E+03  0.65000000000E+04  0.10000000000E+01 0.  0.
</event>
<event>
 4    1  0.2193160E-006  0.1300000E+05  0.7957747E-01  0.1322471E+00
    9000001   -1    0    0    0    0  0.00000000000E+00  0.00000000000E+00  0.64999999231E+04  0.65000000000E+04  0.10000000000E+01 0.  0.
    9000001   -1    0    0    0    0 -0.00000000000E+00 -0.00000000000E+00 -0.64999999231E+04  0.65000000000E+04  0.10000000000E+01 0.  0.
    9000001    1    1    2    0    0 -0.73611628241E+03 -0.27203555260E+04  0.58572858587E+04  0.65000000000E+04  0.10000000000E+01 0.  0.
    9000001    1    1    2    0    0  0.73611628241E+03  0.27203555260E+04 -0.58572858587E+04  0.65000000000E+04  0.10000000000E+01 0.  0.
</event>
<event>
 4    1  0.2193160E-006  0.1300000E+05  0.7957747E-01  0.1322471E+00
    9000001   -1    0    0    0    0  0.00000000000E+00  0.00000000000E+00  0.64999999231E+04  0.65000000000E+04  0.10000000000E+01 0.  0.
    9000001   -1    0    0    0    0 -0.00000000000E+00 -0.00000000000E+00 -0.64999999231E+04  0.65000000000E+04  0.10000000000E+01 0.  0.
    9000001    1    1    2    0    0 -0.25789160892E+04 -0.35378008417E+04 -0.48044933145E+04  0.65000000000E+04  0.10000000000E+01 0.  0.
    9000001    1    1    2    0    0  0.25789160892E+04  0.35378008417E+04  0.48044933145E+04  0.65000000000E+04  0.10000000000E+01 0.  0.
</event>
<event>
 4    1  0.2193160E-006  0.1300000E+05  0.7957747E-01  0.1322471E+00
    9000001   -1    0    0    0    0  0.00000000000E+00  0.00000000000E+00  0.64999999231E+04  0.65000000000E+04  0.10000000000E+01 0.  0.
    9000001   -1    0    0    0    0 -0.00000000000E+00 -0.00000000000E+00 -0.64999999231E+04  0.65000000000E+04  0.10000000000E+01 0.  0.
    9000001    1    1    2    0    0 -0.36979192563E+04  0.19051108075E+04 -0.49945915733E+04  0.65000000000E+04  0.10000000000E+01 0.  0.
    9000001    1    1    2    0    0  0.36979192563E+04 -0.19051108075E+04  0.49945915733E+04  0.65000000000E+04  0.10000000000E+01 0.  0.
</event>
<event>
 4    1  0.2193160E-006  0.1300000E+05  0.7957747E-01  0.1322471E+00
    9000001   -1    0    0    0    0  0.00000000000E+00  0.00000000000E+00  0.64999999231E+04  0.65000000000E+04  0.10000000000E+01 0.  0.
    9000001   -1    0    0    0    0 -0.00000000000E+00 -0.00000000000E+00 -0.64999999231E+04  0.65000000000E+04  0.10000000000E+01 0.  0.
    9000001    1    1    2    0    0  0.60563955234E+04  0.15205753552E+04  0.18049717044E+04  0.65000000000E+04  0.10000000000E+01 0.  0.
    9000001    1    1    2    0    0 -0.60563955234E+04 -0.15205753552E+04 -0.18049717044E+04  0.65000000000E+04  0.10000000000E+01 0.  0.
</event>
<event>
 4    1  0.2193160E-006  0.1300000E+05  0.7957747E-01  0.1322471E+00
    9000001   -1    0    0    0    0  0.00000000000E+00  0.00000000000E+00  0.64999999231E+04  0.65000000000E+04  0.10000000000E+01 0.  0.
    9000001   -1    0    0    0    0 -0.00000000000E+00 -0.00000000000E+00 -0.64999999231E+04  0.65000000000E+04  0.10000000000E+01 0.  0.
    9000001    1    1    2    0    0 -0.34429223110E+04 -0.52469970669E+04  0.16927216961E+04  0.65000000000E+04  0.10000000000E+01 0.  0.
    9000001    1    1    2    0    0  0.34429223110E+04  0.52469970669E+04 -0.16927216961E+04  0.65000000000E+04  0.10000000000E+01 0.  0.
</event>
<event>
 4    1  0.2193160E-006  0.1300000E+05  0.7957747E-01  0.1322471E+00
    9000001   -1    0    0    0    0  0.00000000000E+00  0.00000000000E+00  0.64999999231E+04  0.65000000000E+04  0.10000000000E+01 0.  0.
    9000001   -1    0    0    0    0 -0.00000000000E+00 -0.00000000000E+00 -0.64999999231E+04  0.65000000000E+04  0.10000000000E+01 0.  0.
    9000001    1    1    2    0    0 -0.55419882190E+04 -0.33585007404E+04  0.50679222367E+03  0.65000000000E+04  0.10000000000E+01 0.  0.
    9000001    1    1    2    0    0  0.55419882190E+04  0.33585007404E+04 -0.50679222367E+03  0.65000000000E+04  0.10000000000E+01 0.  0.
</event>
<event>
 4    1  0.2193160E-006  0.1300000E+05  0.7957747E-01  0.1322471E+00
    9000001   -1    0    0    0    0  0.00000000000E+00  0.00000000000E+00  0.64999999231E+04  0.65000000000E+04  0.10000000000E+01 0.  0.
    9000001   -1    0    0    0    0 -0.00000000000E+00 -0.00000000000E+00 -0.64999999231E+04  0.65000000000E+04  0.10000000000E+01 0.  0.
    9000001    1    1    2    0    0  0.53468997804E+04 -0.16592712713E+04 -0.33026475116E+04  0.65000000000E+04  0.10000000000E+01 0.  0.
    9000001    1    1    2    0    0 -0.53468997804E+04  0.16592712713E+04  0.33026475116E+04  0.65000000000E+04  0.10000000000E+01 0.  0.
</event>
<event>
 4    1  0.2193160E-006  0.1300000E+05  0.7957747E-01  0.1322471E+00
    9000001   -1    0    0    0    0  0.00000000000E+00  0.00000000000E+00  0.64999999231E+04  0.65000000000E+04  0.10000000000E+01 0.  0.
    9000001   -1    0    0    0    0 -0.00000000000E+00 -0.00000000000E+00 -0.64999999231E+04  0.65000000000E+04  0.10000000000E+01 0.  0.
    9000001    1    1    2    0    0  0.45589147396E+04  0.49801100115E+02  0.46329057024E+04  0.65000000000E+04  0.10000000000E+01 0.  0.
    9000001    1    1    2    0    0 -0.45589147396E+04 -0.49801100115E+02 -0.46329057024E+04  0.65000000000E+04  0.10000000000E+01 0.  0.
</event>
<event>
 4    1  0.2193160E-006  0.1300000E+05  0.7957747E-01  0.1322471E+00
    9000001   -1    0    0    0    0  0.00000000000E+00  0.00000000000E+00  0.64999999231E+04  0.65000000000E+04  0.10000000000E+01 0.  0.
    9000001   -1    0    0    0    0 -0.00000000000E+00 -0.00000000000E+00 -0.64999999231E+04  0.65000000000E+04  0.10000000000E+01 0.  0.
    9000001    1    1    2    0    0 -0.21302169466E+04  0.41533767120E+04 -0.45234540617E+04  0.65000000000E+04  0.10000000000E+01 0.  0.
    9000001    1    1    2    0    0  0.21302169466E+04 -0.41533767120E+04  0.45234540617E+04  0.65000000000E+04  0.10000000000E+01 0.  0.
</event>
<event>
 4    1  0.2193160E-006  0.1300000E+05  0.7957747E-01  0.1322471E+00
    9000001   -1    0    0    0    0  0.00000000000E+00  0.00000000000E+00  0.64999999231E+04  0.65000000000E+04  0.10000000000E+01 0.  0.
    9000001   -1    0    0    0    0 -0.00000000000E+00 -0.00000000000E+00 -0.64999999231E+04  0.65000000000E+04  0.10000000000E+01 0.  0.
    9000001    1    1    2    0    0 -0.39028866807E+04 -0.50190791213E+04  0.13514138272E+04  0.65000000000E+04  0.10000000000E+01 0.  0.
    9000001    1    1    2    0    0  0.39028866807E+04  0.50190791213E+04 -0.13514138272E+04  0.65000000000E+04  0.10000000000E+01 0.  0.
</event>
<event>
 4    1  0.2193160E-006  0.1300000E+05  0.7957747E-01  0.1322471E+00
    9000001   -1    0    0    0    0  0.00000000000E+00  0.00000000000E+00  0.64999999231E+04  0.65000000000E+04  0.10000000000E+01 0.  0.
    9000001   -1    0    0    0    0 -0.00000000000E+00 -0.00000000000E+00 -0.64999999231E+04  0.65000000000E+04  0.10000000000E+01 0.  0.
    9000001    1    1    2    0    0 -0.27019421213E+04  0.85740483049E+03 -0.58493046364E+04  0.65000000000E+04  0.10000000000E+01 0.  0.
    9000001    1    1    2    0    0  0.27019421213E+04 -0.85740483049E+03  0.58493046364E+04  0.65000000000E+04  0.10000000000E+01 0.  0.
</event>
<event>
 4    1  0.2193160E-006  0.1300000E+05  0.7957747E-01  0.1322471E+00
    9000001   -1    0    0    0    0  0.00000000000E+00  0.00000000000E+00  0.64999999231E+04  0.65000000000E+04  0.10000000000E+01 0.  0.
    9000001   -1    0    0    0    0 -0.00000000000E+00 -0.00000000000E+00 -0.64999999231E+04  0.65000000000E+04  0.10000000000E+01 0.  0.
    9000001    1    1    2    0    0 -0.44503281623E+01 -0.61156788617E+04  0.22019199019E+04  0.65000000000E+04  0.10000000000E+01 0.  0.
    9000001    1    1    2    0    0  0.44503281623E+01  0.61156788617E+04 -0.22019199019E+04  0.65000000000E+04  0.10000000000E+01 0.  0.
</event>
<event>
 4    1  0.2193160E-006  0.1300000E+05  0.7957747E-01  0.1322471E+00
    9000001   -1    0    0    0    0  0.00000000000E+00  0.00000000000E+00  0.64999999231E+04  0.65000000000E+04  0.10000000000E+01 0.  0.
    9000001   -1    0    0    0    0 -0.00000000000E+00 -0.00000000000E+00 -0.64999999231E+04  0.65000000000E+04  0.10000000000E+01 0.  0.
    9000001    1    1    2    0    0  0.43405242415E+03 -0.35765897376E+04  0.54101389393E+04  0.65000000000E+04  0.10000000000E+01 0.  0.
    9000001    1    1    2    0    0 -0.43405242415E+03  0.35765897376E+04 -0.54101389393E+04  0.65000000000E+04  0.10000000000E+01 0.  0.
</event>
<event>
 4    1  0.2193160E-006  0.1300000E+05  0.7957747E-01  0.1322471E+00
    9000001   -1    0    0    0    0  0.00000000000E+00  0.00000000000E+00  0.64999999231E+04  0.65000000000E+04  0.10000000000E+01 0.  0.
    9000001   -1    0    0    0    0 -0.00000000000E+00 -0.00000000000E+00 -0.64999999231E+04  0.65000000000E+04  0.10000000000E+01 0.  0.
    9000001    1    1    2    0    0  0.54097989605E+04  0.35292404338E+04  0.72700492922E+03  0.65000000000E+04  0.10000000000E+01 0.  0.
    9000001    1    1    2    0    0 -0.54097989605E+04 -0.35292404338E+04 -0.72700492922E+03  0.65000000000E+04  0.10000000000E+01 0.  0.
</event>
<event>
 4    1  0.2193160E-006  0.1300000E+05  0.7957747E-01  0.1322471E+00
    9000001   -1    0    0    0    0  0.00000000000E+00  0.00000000000E+00  0.64999999231E+04  0.65000000000E+04  0.10000000000E+01 0.  0.
    9000001   -1    0    0    0    0 -0.00000000000E+00 -0.00000000000E+00 -0.64999999231E+04  0.65000000000E+04  0.10000000000E+01 0.  0.
    9000001    1    1    2    0    0  0.41852264314E+04  0.23121027172E+04  0.44031874526E+04  0.65000000000E+04  0.10000000000E+01 0.  0.
    9000001    1    1    2    0    0 -0.41852264314E+04 -0.23121027172E+04 -0.44031874526E+04  0.65000000000E+04  0.10000000000E+01 0.  0.
</event>
<event>
 4    1  0.2193160E-006  0.1300000E+05  0.7957747E-01  0.1322471E+00
    9000001   -1    0    0    0    0  0.00000000000E+00  0.00000000000E+00  0.64999999231E+04  0.65000000000E+04  0.10000000000E+01 0.  0.
    9000001   -1    0    0    0    0 -0.00000000000E+00 -0.00000000000E+00 -0.64999999231E+04  0.65000000000E+04  0.10000000000E+01 0.  0.
    9000001    1    1    2    0    0  0.48594762238E+04  0.59942865961E+03 -0.42750643401E+04  0.65000000000E+04  0.10000000000E+01 0.  0.
    9000001    1    1    2    0    0 -0.48594762238E+04 -0.59942865961E+03  0.42750643401E+04  0.65000000000E+04  0.10000000000E+01 0.  0.
</event>
<event>
 4    1  0.2193160E-006  0.1300000E+05  0.7957747E-01  0.1322471E+00
    9000001   -1    0    0    0    0  0.00000000000E+00  0.00000000000E+00  0.64999999231E+04  0.65000000000E+04  0.10000000000E+01 0.  0.
    9000001   -1    0    0    0    0 -0.00000000000E+00 -0.00000000000E+00 -0.64999999231E+04  0.65000000000E+04  0.10000000000E+01 0.  0.
    9000001    1    1    2    0    0 -0.59023661007E+04 -0.68094527271E+03  0.26359793149E+04  0.65000000000E+04  0.10000000000E+01 0.  0.
    9000001    1    1    2    0    0  0.59023661007E+04  0.68094527271E+03 -0.26359793149E+04  0.65000000000E+04  0.10000000000E+01 0.  0.
</event>
<event>
 4    1  0.2193160E-006  0.1300000E+05  0.7957747E-01  0.1322471E+00
    9000001   -1    0    0    0    0  0.00000000000E+00  0.00000000000E+00  0.64999999231E+04  0.65000000000E+04  0.10000000000E+01 0.  0.
    9000001   -1    0    0    0    0 -0.00000000000E+00 -0.00000000000E+00 -0.64999999231E+04  0.65000000000E+04  0.10000000000E+01 0.  0.
    9000001    1    1    2    0    0 -0.21344919085E+04  0.32298649704E+04  0.52212944339E+04  0.65000000000E+04  0.10000000000E+01 0.  0.
    9000001    1    1    2    0    0  0.21344919085E+04 -0.32298649704E+04 -0.52212944339E+04  0.65000000000E+04  0.10000000000E+01 0.  0.
</event>
<event>
 4    1  0.2193160E-006  0.1300000E+05  0.7957747E-01  0.1322471E+00
    9000001   -1    0    0    0    0  0.00000000000E+00  0.00000000000E+00  0.64999999231E+04  0.65000000000E+04  0.10000000000E+01 0.  0.
    9000001   -1    0    0    0    0 -0.00000000000E+00 -0.00000000000E+00 -0.64999999231E+04  0.65000000000E+04  0.10000000000E+01 0.  0.
    9000001    1    1    2    0    0 -0.61468701403E+04 -0.20322183509E+04 -0.57971980561E+03  0.65000000000E+04  0.10000000000E+01 0.  0.
    9000001    1    1    2    0    0  0.61468701403E+04  0.20322183509E+04  0.57971980561E+03  0.65000000000E+04  0.10000000000E+01 0.  0.
</event>
<event>
 4    1  0.2193160E-006  0.1300000E+05  0.7957747E-01  0.1322471E+00
    9000001   -1    0    0    0    0  0.00000000000E+00  0.00000000000E+00  0.64999999231E+04  0.65000000000E+04  0.10000000000E+01 0.  0.
    9000001   -1    0    0    0    0 -0.00000000000E+00 -0.00000000000E+00 -0.64999999231E+04  0.65000000000E+04  0.10000000000E+01 0.  0.
    9000001    1    1    2    0    0  0.38388208786E+04 -0.35910519604E+03 -0.52330198471E+04  0.65000000000E+04  0.10000000000E+01 0.  0.
    9000001    1    1    2    0    0 -0.38388208786E+04  0.35910519604E+03  0.52330198471E+04  0.65000000000E+04  0.10000000000E+01 0.  0.
</event>
<event>
 4    1  0.2193160E-006  0.1300000E+05  0.7957747E-01  0.1322471E+00
    9000001   -1    0    0    0    0  0.00000000000E+00  0.00000000000E+00  0.64999999231E+04  0.65000000000E+04  0.10000000000E+01 0.  0.
    9000001   -1    0    0    0    0 -0.00000000000E+00 -0.00000000000E+00 -0.64999999231E+04  0.65000000000E+04  0.10000000000E+01 0.  0.
    9000001    1    1    2    0    0  0.51340092552E+04 -0.30699555079E+04  0.25430928310E+04  0.65000000000E+04  0.10000000000E+01 0.  0.
    9000001    1    1    2    0    0 -0.51340092552E+04  0.30699555079E+04 -0.25430928310E+04  0.65000000000E+04  0.10000000000E+01 0.  0.
</event>
<event>
 4    1  0.2193160E-006  0.1300000E+05  0.7957747E-01  0.1322471E+00
    9000001   -1    0    0    0    0  0.00000000000E+00  0.00000000000E+00  0.64999999231E+04  0.65000000000E+04  0.10000000000E+01 0.  0.
    9000001   -1    0    0    0    0 -0.00000000000E+00 -0.00000000000E+00 -0.64999999231E+04  0.65000000000E+04  0.10000000000E+01 0.  0.
    9000001    1    1    2    0    0 -0.48512331950E+04 -0.10108670841E+04  0.42063860054E+04  0.65000000000E+04  0.10000000000E+01 0.  0.
    9000001    1    1    2    0    0  0.48512331950E+04  0.10108670841E+04 -0.42063860054E+04  0.65000000000E+04  0.10000000000E+01 0.  0.
</event>
<event>
 4    1  0.2193160E-006  0.1300000E+05  0.7957747E-01  0.1322471E+00
    9000001   -1    0    0    0    0  0.00000000000E+00  0.00000000000E+00  0.64999999231E+04  0.65000000000E+04  0.10000000000E+01 0.  0.
    9000001   -1    0    0    0    0 -0.00000000000E+00 -0.00000000000E+00 -0.64999999231E+04  0.65000000000E+04  0.10000000000E+01 0.  0.
    9000001    1    1    2    0    0 -0.26205484212E+04 -0.59211543425E+04  0.56802836593E+03  0.65000000000E+04  0.10000000000E+01 0.  0.
    9000001    1    1    2    0    0  0.26205484212E+04  0.59211543425E+04 -0.56802836593E+03  0.65000000000E+04  0.10000000000E+01 0.  0.
</event>
<event>
 4    1  0.2193160E-006  0.1300000E+05  0.7957747E-01  0.1322471E+00
    9000001   -1    0    0    0    0  0.00000000000E+00  0.00000000000E+00  0.64999999231E+04  0.65000000000E+04  0.10000000000E+01 0.  0.
    9000001   -1    0    0    0    0 -0.00000000000E+00 -0.00000000000E+00 -0.64999999231E+04  0.65000000000E+04  0.10000000000E+01 0.  0.
    9000001    1    1    2    0    0 -0.26418516128E+04  0.57780352854E+04 -0.13729265446E+04  0.65000000000E+04  0.10000000000E+01 0.  0.
    9000001    1    1    2    0    0  0.26418516128E+04 -0.57780352854E+04  0.13729265446E+04  0.65000000000E+04  0.10000000000E+01 0.  0.
</event>
<event>
 4    1  0.2193160E-006  0.1300000E+05  0.7957747E-01  0.1322471E+00
    9000001   -1    0    0    0    0  0.00000000000E+00  0.00000000000E+00  0.64999999231E+04  0.65000000000E+04  0.10000000000E+01 0.  0.
    9000001   -1    0    0    0    0 -0.00000000000E+00 -0.00000000000E+00 -0.64999999231E+04  0.65000000000E+04  0.10000000000E+01 0.  0.
    9000001    1    1    2    0    0  0.29865645012E+04 -0.36239279213E+04  0.44941715478E+04  0.65000000000E+04  0.10000000000E+01 0.  0.
    9000001    1    1    2    0    0 -0.29865645012E+04  0.36239279213E+04 -0.44941715478E+04  0.65000000000E+04  0.10000000000E+01 0.  0.
</event>
<event>
 4    1  0.2193160E-006  0.1300000E+05  0.7957747E-01  0.1322471E+00
    9000001   -1    0    0    0    0  0.00000000000E+00  0.00000000000E+00  0.64999999231E+04  0.65000000000E+04  0.10000000000E+01 0.  0.
    9000001   -1    0    0    0    0 -0.00000000000E+00 -0.00000000000E+00 -0.64999999231E+04  0.65000000000E+04  0.10000000000E+01 0.  0.
    9000001    1    1    2    0    0  0.23224006495E+04 -0.47799519859E+04  0.37427948428E+04  0.65000000000E+04  0.10000000000E+01 0.  0.
    9000001    1    1    2    0    0 -0.23224006495E+04  0.47799519859E+04 -0.37427948428E+04  0.65000000000E+04  0.10000000000E+01 0.  0.
</event>
<event>
 4    1  0.2193160E-006  0.1300000E+05  0.7957747E-01  0.1322471E+00
    9000001   -1    0    0    0    0  0.00000000000E+00  0.00000000000E+00  0.64999999231E+04  0.65000000000E+04  0.10000000000E+01 0.  0.
    9000001   -1    0    0    0    0 -0.00000000000E+00 -0.00000000000E+00 -0.64999999231E+04  0.65000000000E+04  0.10000000000E+01 0.  0.
    9000001    1    1    2    0    0  0.64729043638E+04  0.51151789630E+03  0.29976247000E+03  0.65000000000E+04  0.10000000000E+01 0.  0.
    9000001    1    1    2    0    0 -0.64729043638E+04 -0.51151789630E+03 -0.29976247000E+03  0.65000000000E+04  0.10000000000E+01 0.  0.
</event>
<event>
 4    1  0.2193160E-006  0.1300000E+05  0.7957747E-01  0.1322471E+00
    9000001   -1    0    0    0    0  0.00000000000E+00  0.00000000000E+00  0.64999999231E+04  0.65000000000E+04  0.10000000000E+01 0.  0.
    9000001   -1    0    0    0    0 -0.00000000000E+00 -0.00000000000E+00 -0.64999999231E+04  0.65000000000E+04  0.10000000000E+01 0.  0.
    9000001    1    1    2    0    0  0.57860189902E+03  0.48782949050E+04  0.42564606967E+04  0.65000000000E+04  0.10000000000E+01 0.  0.
    9000001    1    1    2    0    0 -0.57860189902E+03 -0.48782949050E+04 -0.42564606967E+04  0.65000000000E+04  0.10000000000E+01 0.  0.
</event>
<event>
 4    1  0.2193160E-006  0.1300000E+05  0.7957747E-01  0.1322471E+00
    9000001   -1    0    0    0    0  0.00000000000E+00  0.00000000000E+00  0.64999999231E+04  0.65000000000E+04  0.10000000000E+01 0.  0.
    9000001   -1    0    0    0    0 -0.00000000000E+00 -0.00000000000E+00 -0.64999999231E+04  0.65000000000E+04  0.10000000000E+01 0.  0.
    9000001    1    1    2    0    0  0.57211834834E+04 -0.71864509402E+03  0.30002679511E+04  0.65000000000E+04  0.10000000000E+01 0.  0.
    9000001    1    1    2    0    0 -0.57211834834E+04  0.71864509402E+03 -0.30002679511E+04  0.65000000000E+04  0.10000000000E+01 0.  0.
</event>
<event>
 4    1  0.2193160E-006  0.1300000E+05  0.7957747E-01  0.1322471E+00
    9000001   -1    0    0    0    0  0.00000000000E+00  0.00000000000E+00  0.64999999231E+04  0.65000000000E+04  0.10000000000E+01 0.  0.
    9000001   -1    0    0    0    0 -0.00000000000E+00 -0.00000000000E+00 -0.64999999231E+04  0.65000000000E+04  0.10000000000E+01 0.  0.
    9000001    1    1    2    0    0  0.44605804899E+04 -0.14988267287E+04  0.44840538724E+04  0.65000000000E+04  0.10000000000E+01 0.  0.
    9000001    1    1    2    0    0 -0.44605804899E+04  0.14988267287E+04 -0.44840538724E+04  0.65000000000E+04  0.10000000000E+01 0.  0.
</event>
<event>
 4    1  0.2193160E-006  0.1300000E+05  0.7957747E-01  0.1322471E+00
    9000001   -1    0    0    0    0  0.00000000000E+00  0.00000000000E+00  0.64999999231E+04  0.65000000000E+04  0.10000000000E+01 0.  0.
    9000001   -1    0    0    0    0 -0.00000000000E+00 -0.00000000000E+00 -0.64999999231E+04  0.65000000000E+04  0.10000000000E+01 0.  0.
    9000001    1    1    2    0    0  0.34314533995E+04  0.50792770007E+04  0.21624226499E+04  0.65000000000E+04  0.10000000000E+01 0.  0.
    9000001    1    1    2    0    0 -0.34314533995E+04 -0.50792770007E+04 -0.21624226499E+04  0.65000000000E+04  0.10000000000E+01 0.  0.
</event>
<event>
 4    1  0.2193160E-006  0.1300000E+05  0.7957747E-01  0.1322471E+00
    9000001   -1    0    0    0    0  0.00000000000E+00  0.00000000000E+00  0.64999999231E+04  0.65000000000E+04  0.10000000000E+01 0.  0.
    9000001   -1    0    0    0    0 -0.00000000000E+00 -0.00000000000E+00 -0.64999999231E+04  0.65000000000E+04  0.10000000000E+01 0.  0.
    9000001    1    1    2    0    0  0.23980827691E+04  0.49671356057E+04  0.34390059475E+04  0.65000000000E+04  0.10000000000E+01 0.  0.
    9000001    1    1    2    0    0 -0.23980827691E+04 -0.49671356057E+04 -0.34390059475E+04  0.65000000000E+04  0.10000000000E+01 0.  0.
</event>
<event>
 4    1  0.2193160E-006  0.1300000E+05  0.7957747E-01  0.1322471E+00
    9000001   -1    0    0    0    0  0.00000000000E+00  0.00000000000E+00  0.64999999231E+04  0.65000000000E+04  0.10000000000E+01 0.  0.
    9000001   -1    0    0    0    0 -0.00000000000E+00 -0.00000000000E+00 -0.64999999231E+04  0.65000000000E+04  0.10000000000E+01 0.  0.
    9000001    1    1    2    0    0  0.62174094267E+04  0.18025509393E+04 -0.58705121715E+03  0.65000000000E+04  0.10000000000E+01 0.  0.
    9000001    1    1    2    0    0 -0.62174094267E+04 -0.18025509393E+04  0.58705121715E+03  0.65000000000E+04  0.10000000000E+01 0.  0.
</event>
<event>
 4    1  0.2193160E-006  0.1300000E+05  0.7957747E-01  0.1322471E+00
    9000001   -1    0    0    0    0  0.00000000000E+00  0.00000000000E+00  0.64999999231E+04  0.65000000000E+04  0.10000000000E+01 0.  0.
    9000001   -1    0    0    0    0 -0.00000000000E+00 -0.00000000000E+00 -0.64999999231E+04  0.65000000000E+04  0.10000000000E+01 0.  0.
    9000001    1    1    2    0    0  0.58728614543E+03 -0.31849697144E+04 -0.56356953343E+04  0.65000000000E+04  0.10000000000E+01 0.  0.
    9000001    1    1    2    0    0 -0.58728614543E+03  0.31849697144E+04  0.56356953343E+04  0.65000000000E+04  0.10000000000E+01 0.  0.
</event>
<event>
 4    1  0.2193160E-006  0.1300000E+05  0.7957747E-01  0.1322471E+00
    9000001   -1    0    0    0    0  0.00000000000E+00  0.00000000000E+00  0.64999999231E+04  0.65000000000E+04  0.10000000000E+01 0.  0.
    9000001   -1    0    0    0    0 -0.00000000000E+00 -0.00000000000E+00 -0.64999999231E+04  0.65000000000E+04  0.10000000000E+01 0.  0.
    9000001    1    1    2    0    0 -0.79785999215E+03  0.17325780733E+04  0.62138226281E+04  0.65000000000E+04  0.10000000000E+01 0.  0.
    9000001    1    1    2    0    0  0.79785999215E+03 -0.17325780733E+04 -0.62138226281E+04  0.65000000000E+04  0.10000000000E+01 0.  0.
</event>
<event>
 4    1  0.2193160E-006  0.1300000E+05  0.7957747E-01  0.1322471E+00
    9000001   -1    0    0    0    0  0.00000000000E+00  0.00000000000E+00  0.64999999231E+04  0.65000000000E+04  0.10000000000E+01 0.  0.
    9000001   -1    0    0    0    0 -0.00000000000E+00 -0.00000000000E+00 -0.64999999231E+04  0.65000000000E+04  0.10000000000E+01 0.  0.
    9000001    1    1    2    0    0 -0.11501414191E+04  0.62618918429E+04  0.13099176554E+04  0.65000000000E+04  0.10000000000E+01 0.  0.
    9000001    1    1    2    0    0  0.11501414191E+04 -0.62618918429E+04 -0.13099176554E+04  0.65000000000E+04  0.10000000000E+01 0.  0.
</event>
<event>
 4    1  0.2193160E-006  0.1300000E+05  0.7957747E-01  0.1322471E+00
    9000001   -1    0    0    0    0  0.00000000000E+00  0.00000000000E+00  0.64999999231E+04  0.65000000000E+04  0.10000000000E+01 0.  0.
    9000001   -1    0    0    0    0 -0.00000000000E+00 -0.00000000000E+00 -0.64999999231E+04  0.65000000000E+04  0.10000000000E+01 0.  0.
    9000001    1    1    2    0    0 -0.14311609670E+04  0.51606013266E+04  0.36837441868E+04  0.65000000000E+04  0.10000000000E+01 0.  0.
    9000001    1    1    2    0    0  0.14311609670E+04 -0.51606013266E+04 -0.36837441868E+04  0.65000000000E+04  0.10000000000E+01 0.  0.
</event>
<event>
 4    1  0.2193160E-006  0.1300000E+05  0.7957747E-01  0.1322471E+00
    9000001   -1    0    0    0    0  0.00000000000E+00  0.00000000000E+00  0.64999999231E+04  0.65000000000E+04  0.10000000000E+01 0.  0.
    9000001   -1    0    0    0    0 -0.00000000000E+00 -0.00000000000E+00 -0.64999999231E+04  0.65000000000E+04  0.10000000000E+01 0.  0.
    9000001    1    1    2    0    0  0.20733312700E+04  0.60080189422E+04  0.13619856221E+04  0.65000000000E+04  0.10000000000E+01 0.  0.
    9000001    1    1    2    0    0 -0.20733312700E+04 -0.60080189422E+04 -0.13619856221E+04  0.65000000000E+04  0.10000000000E+01 0.  0.
</event>
<event>
 4    1  0.2193160E-006  0.1300000E+05  0.7957747E-01  0.1322471E+00
    9000001   -1    0    0    0    0  0.00000000000E+00  0.00000000000E+00  0.64999999231E+04  0.65000000000E+04  0.10000000000E+01 0.  0.
    9000001   -1    0    0    0    0 -0.00000000000E+00 -0.00000000000E+00 -0.64999999231E+04  0.65000000000E+04  0.10000000000E+01 0.  0.
    9000001    1    1    2    0    0 -0.29152142993E+04 -0.52508166059E+04  0.24860509971E+04  0.65000000000E+04  0.10000000000E+01 0.  0.
    9000001    1    1    2    0    0  0.29152142993E+04  0.52508166059E+04 -0.24860509971E+04  0.65000000000E+04  0.10000000000E+01 0.  0.
</event>
<event>
 4    1  0.2193160E-006  0.1300000E+05  0.7957747E-01  0.1322471E+00
    9000001   -1    0    0    0    0  0.00000000000E+00  0.00000000000E+00  0.64999999231E+04  0.65000000000E+04  0.10000000000E+01 0.  0.
    9000001   -1    0    0    0    0 -0.00000000000E+00 -0.00000000000E+00 -0.64999999231E+04  0.65000000000E+04  0.10000000000E+01 0.  0.
    9000001    1    1    2    0    0  0.36669757035E+04 -0.10062258710E+04 -0.52716977993E+04  0.65000000000E+04  0.10000000000E+01 0.  0.
    9000001    1    1    2    0    0 -0.36669757035E+04  0.10062258710E+04  0.52716977993E+04  0.65000000000E+04  0.10000000000E+01 0.  0.
</event>
<event>
 4    1  0.2193160E-006  0.1300000E+05  0.7957747E-01  0.1322471E+00
    9000001   -1    0    0    0    0  0.00000000000E+00  0.00000000000E+00  0.64999999231E+04  0.65000000000E+04  0.10000000000E+01 0.  0.
    9000001   -1    0    0    0    0 -0.00000000000E+00 -0.00000000000E+00 -0.64999999231E+04  0.65000000000E+04  0.10000000000E+01 0.  0.
    9000001    1    1    2    0    0 -0.17317853612E+04 -0.61250616830E+04 -0.13170185428E+04  0.65000000000E+04  0.10000000000E+01 0.  0.
    9000001    1    1    2    0    0  0.17317853612E+04  0.61250616830E+04  0.13170185428E+04  0.65000000000E+04  0.10000000000E+01 0.  0.
</event>
<event>
 4    1  0.2193160E-006  0.1300000E+05  0.7957747E-01  0.1322471E+00
    9000001   -1    0    0    0    0  0.00000000000E+00  0.00000000000E+00  0.64999999231E+04  0.65000000000E+04  0.10000000000E+01 0.  0.
    9000001   -1    0    0    0    0 -0.00000000000E+00 -0.00000000000E+00 -0.64999999231E+04  0.65000000000E+04  0.10000000000E+01 0.  0.
    9000001    1    1    2    0    0 -0.11667736662E+04  0.60235510716E+04  0.21460360435E+04  0.65000000000E+04  0.10000000000E+01 0.  0.
    9000001    1    1    2    0    0  0.11667736662E+04 -0.60235510716E+04 -0.21460360435E+04  0.65000000000E+04  0.10000000000E+01 0.  0.
</event>
<event>
 4    1  0.2193160E-006  0.1300000E+05  0.7957747E-01  0.1322471E+00
    9000001   -1    0    0    0    0  0.00000000000E+00  0.00000000000E+00  0.64999999231E+04  0.65000000000E+04  0.10000000000E+01 0.  0.
    9000001   -1    0    0    0    0 -0.00000000000E+00 -0.00000000000E+00 -0.64999999231E+04  0.65000000000E+04  0.10000000000E+01 0.  0.
    9000001    1    1    2    0    0  0.53305776313E+03  0.21630714657E+04 -0.61063057781E+04  0.65000000000E+04  0.10000000000E+01 0.  0.
    9000001    1    1    2    0    0 -0.53305776313E+03 -0.21630714657E+04  0.61063057781E+04  0.65000000000E+04  0.10000000000E+01 0.  0.
</event>
<event>
 4    1  0.2193160E-006  0.1300000E+05  0.7957747E-01  0.1322471E+00
    9000001   -1    0    0    0    0  0.00000000000E+00  0.00000000000E+00  0.64999999231E+04  0.65000000000E+04  0.10000000000E+01 0.  0.
    9000001   -1    0    0    0    0 -0.00000000000E+00 -0.00000000000E+00 -0.64999999231E+04  0.65000000000E+04  0.10000000000E+01 0.  0.
    9000001    1    1    2    0    0 -0.60523399110E+04  0.19647783492E+04  0.13262076156E+04  0.65000000000E+04  0.10000000000E+01 0.  0.
    9000001    1    1    2    0    0  0.60523399110E+04 -0.19647783492E+04 -0.13262076156E+04  0.65000000000E+04  0.10000000000E+01 0.  0.
</event>
<event>
 4    1  0.2193160E-006  0.1300000E+05  0.7957747E-01  0.1322471E+00
    9000001   -1    0    0    0    0  0.00000000000E+00  0.00000000000E+00  0.64999999231E+04  0.65000000000E+04  0.10000000000E+01 0.  0.
    9000001   -1    0    0    0    0 -0.00000000000E+00 -0.00000000000E+00 -0.64999999231E+04  0.65000000000E+04  0.10000000000E+01 0.  0.
    9000001    1    1    2    0    0  0.14389531299E+04 -0.53495535346E+04  0.34002485012E+04  0.65000000000E+04  0.10000000000E+01 0.  0.
    9000001    1    1    2    0    0 -0.14389531299E+04  0.53495535346E+04 -0.34002485012E+04  0.65000000000E+04  0.10000000000E+01 0.  0.
</event>
<event>
 4    1  0.2193160E-006  0.1300000E+05  0.7957747E-01  0.1322471E+00
    9000001   -1    0    0    0    0  0.00000000000E+00  0.00000000000E+00  0.64999999231E+04  0.65000000000E+04  0.10000000000E+01 0.  0.
    9000001   -1    0    0    0    0 -0.00000000000E+00 -0.00000000000E+00 -0.64999999231E+04  0.65000000000E+04  0.10000000000E+01 0.  0.
    9000001    1    1    2    0    0  0.42365493196E+04 -0.21921944951E+04  0.44154198167E+04  0.65000000000E+04  0.10000000000E+01 0.  0.
    9000001    1    1    2    0    0 -0.42365493196E+04  0.21921944951E+04 -0.44154198167E+04  0.65000000000E+04  0.10000000000E+01 0.  0.
</event>
<event>
 4    1  0.2193160E-006  0.1300000E+05  0.7957747E-01  0.1322471E+00
    9000001   -1    0    0    0    0  0.00000000000E+00  0.00000000000E+00  0.64999999231E+04  0.65000000000E+04  0.10000000000E+01 0.  0.
    9000001   -1    0    0    0    0 -0.00000000000E+00 -0.00000000000E+00 -0.64999999231E+04  0.65000000000E+04  0.10000000000E+01 0.  0.
    9000001    1    1    2    0    0  0.55101756452E+04 -0.30782138061E+04 -0.15532427767E+04  0.65000000000E+04  0.10000000000E+01 0.  0.
    9000001    1    1    2    0    0 -0.55101756452E+04  0.30782138061E+04  0.15532427767E+04  0.65000000000E+04  0.10000000000E+01 0.  0.
</event>
<event>
 4    1  0.2193160E-006  0.1300000E+05  0.7957747E-01  0.1322471E+00
    9000001   -1    0    0    0    0  0.00000000000E+00  0.00000000000E+00  0.64999999231E+04  0.65000000000E+04  0.10000000000E+01 0.  0.
    9000001   -1    0    0    0    0 -0.00000000000E+00 -0.00000000000E+00 -0.64999999231E+04  0.65000000000E+04  0.10000000000E+01 0.  0.
    9000001    1    1    2    0    0 -0.20729141111E+04 -0.49988441598E+04 -0.36006364929E+04  0.65000000000E+04  0.10000000000E+01 0.  0.
    9000001    1    1    2    0    0  0.20729141111E+04  0.49988441598E+04  0.36006364929E+04  0.65000000000E+04  0.10000000000E+01 0.  0.
</event>
<event>
 4    1  0.2193160E-006  0.1300000E+05  0.7957747E-01  0.1322471E+00
    9000001   -1    0    0    0    0  0.00000000000E+00  0.00000000000E+00  0.64999999231E+04  0.65000000000E+04  0.10000000000E+01 0.  0.
    9000001   -1    0    0    0    0 -0.00000000000E+00 -0.00000000000E+00 -0.64999999231E+04  0.65000000000E+04  0.10000000000E+01 0.  0.
    9000001    1    1    2    0    0 -0.20858617734E+04 -0.26462188862E+04  0.55584804820E+04  0.65000000000E+04  0.10000000000E+01 0.  0.
    9000001    1    1    2    0    0  0.20858617734E+04  0.26462188862E+04 -0.55584804820E+04  0.65000000000E+04  0.10000000000E+01 0.  0.
</event>
<event>
 4    1  0.2193160E-006  0.1300000E+05  0.7957747E-01  0.1322471E+00
    9000001   -1    0    0    0    0  0.00000000000E+00  0.00000000000E+00  0.64999999231E+04  0.65000000000E+04  0.10000000000E+01 0.  0.
    9000001   -1    0    0    0    0 -0.00000000000E+00 -0.00000000000E+00 -0.64999999231E+04  0.65000000000E+04  0.10000000000E+01 0.  0.
    9000001    1    1    2    0    0  0.51780037104E+04  0.22212755910E+04 -0.32410201055E+04  0.65000000000E+04  0.10000000000E+01 0.  0.
    9000001    1    1    2    0    0 -0.51780037104E+04 -0.22212755910E+04  0.32410201055E+04  0.65000000000E+04  0.10000000000E+01 0.  0.
</event>
<event>
 4    1  0.2193160E-006  0.1300000E+05  0.7957747E-01  0.1322471E+00
    9000001   -1    0    0    0    0  0.00000000000E+00  0.00000000000E+00  0.64999999231E+04  0.65000000000E+04  0.10000000000E+01 0.  0.
    9000001   -1    0    0    0    0 -0.00000000000E+00 -0.00000000000E+00 -0.64999999231E+04  0.65000000000E+04  0.10000000000E+01 0.  0.
    9000001    1    1    2    0    0  0.17851482745E+04 -0.60986350830E+04 -0.13674409539E+04  0.65000000000E+04  0.10000000000E+01 0.  0.
    9000001    1    1    2    0    0 -0.17851482745E+04  0.60986350830E+04  0.13674409539E+04  0.65000000000E+04  0.10000000000E+01 0.  0.
</event>
<event>
 4    1  0.2193160E-006  0.1300000E+05  0.7957747E-01  0.1322471E+00
    9000001   -1    0    0    0    0  0.00000000000E+00  0.00000000000E+00  0.64999999231E+04  0.65000000000E+04  0.10000000000E+01 0.  0.
    9000001   -1    0    0    0    0 -0.00000000000E+00 -0.00000000000E+00 -0.64999999231E+04  0.65000000000E+04  0.10000000000E+01 0.  0.
    9000001    1    1    2    0    0 -0.29269154494E+04 -0.11120317053E+04  0.56961873598E+04  0.65000000000E+04  0.10000000000E+01 0.  0.
    9000001    1    1    2    0    0  0.29269154494E+04  0.11120317053E+04 -0.56961873598E+04  0.65000000000E+04  0.10000000000E+01 0.  0.
</event>
<event>
 4    1  0.2193160E-006  0.1300000E+05  0.7957747E-01  0.1322471E+00
    9000001   -1    0    0    0    0  0.00000000000E+00  0.00000000000E+00  0.64999999231E+04  0.65000000000E+04  0.10000000000E+01 0.  0.
    9000001   -1    0    0    0    0 -0.00000000000E+00 -0.00000000000E+00 -0.64999999231E+04  0.65000000000E+04  0.10000000000E+01 0.  0.
    9000001    1    1    2    0    0  0.19968814277E+04 -0.13169199284E+04 -0.60438551824E+04  0.65000000000E+04  0.10000000000E+01 0.  0.
    9000001    1    1    2    0    0 -0.19968814277E+04  0.13169199284E+04  0.60438551824E+04  0.65000000000E+04  0.10000000000E+01 0.  0.
</event>
<event>
 4    1  0.2193160E-006  0.1300000E+05  0.7957747E-01  0.1322471E+00
    9000001   -1    0    0    0    0  0.00000000000E+00  0.00000000000E+00  0.64999999231E+04  0.65000000000E+04  0.10000000000E+01 0.  0.
    9000001   -1    0    0    0    0 -0.00000000000E+00 -0.00000000000E+00 -0.64999999231E+04  0.65000000000E+04  0.10000000000E+01 0.  0.
    9000001    1    1    2    0    0 -0.57393356601E+03  0.64745478437E+04 -0.28800709832E+02  0.65000000000E+04  0.10000000000E+01 0.  0.
    9000001    1    1    2    0    0  0.57393356601E+03 -0.64745478437E+04  0.28800709832E+02  0.65000000000E+04  0.10000000000E+01 0.  0.
</event>
<event>
 4    1  0.2193160E-006  0.1300000E+05  0.7957747E-01  0.1322471E+00
    9000001   -1    0    0    0    0  0.00000000000E+00  0.00000000000E+00  0.64999999231E+04  0.65000000000E+04  0.10000000000E+01 0.  0.
    9000001   -1    0    0    0    0 -0.00000000000E+00 -0.00000000000E+00 -0.64999999231E+04  0.65000000000E+04  0.10000000000E+01 0.  0.
    9000001    1    1    2    0    0  0.39838633863E+04 -0.46855765912E+04  0.21033790735E+04  0.65000000000E+04  0.10000000000E+01 0.  0.
    9000001    1    1    2    0    0 -0.39838633863E+04  0.46855765912E+04 -0.21033790735E+04  0.65000000000E+04  0.10000000000E+01 0.  0.
</event>
<event>
 4    1  0.2193160E-006  0.1300000E+05  0.7957747E-01  0.1322471E+00
    9000001   -1    0    0    0    0  0.00000000000E+00  0.00000000000E+00  0.64999999231E+04  0.65000000000E+04  0.10000000000E+01 0.  0.
    9000001   -1    0    0    0    0 -0.00000000000E+00 -0.00000000000E+00 -0.64999999231E+04  0.65000000000E+04  0.10000000000E+01 0.  0.
    9000001    1    1    2    0    0 -0.16285684115E+04 -0.48550655720E+04 -0.40032614479E+04  0.65000000000E+04  0.10000000000E+01 0.  0.
    9000001    1    1    2    0    0  0.16285684115E+04  0.48550655720E+04  0.40032614479E+04  0.65000000000E+04  0.10000000000E+01 0.  0.
</event>
<event>
 4    1  0.2193160E-006  0.1300000E+05  0.7957747E-01  0.1322471E+00
    9000001   -1    0    0    0    0  0.00000000000E+00  0.00000000000E+00  0.64999999231E+04  0.65000000000E+04  0.10000000000E+01 0.  0.
    9000001   -1    0    0    0    0 -0.00000000000E+00 -0.00000000000E+00 -0.64999999231E+04  0.65000000000E+04  0.10000000000E+01 0.  0.
    9000001    1    1    2    0    0  0.38351241760E+04  0.52479454192E+04 -0.29840100065E+02  0.65000000000E+04  0.10000000000E+01 0.  0.
    9000001    1    1    2    0    0 -0.38351241760E+04 -0.52479454192E+04  0.29840100065E+02  0.65000000000E+04  0.10000000000E+01 0.  0.
</event>
<event>
 4    1  0.2193160E-006  0.1300000E+05  0.7957747E-01  0.1322471E+00
    9000001   -1    0    0    0    0  0.00000000000E+00  0.00000000000E+00  0.64999999231E+04  0.65000000000E+04  0.10000000000E+01 0.  0.
    9000001   -1    0    0    0    0 -0.00000000000E+00 -0.00000000000E+00 -0.64999999231E+04  0.65000000000E+04  0.10000000000E+01 0.  0.
    9000001    1    1    2    0    0 -0.12219416372E+04  0.63832992927E+04  0.10172401345E+03  0.65000000000E+04  0.10000000000E+01 0.  0.
    9000001    1    1    2    0    0  0.12219416372E+04 -0.63832992927E+04 -0.10172401345E+03  0.65000000000E+04  0.10000000000E+01 0.  0.
</event>
<event>
 4    1  0.2193160E-006  0.1300000E+05  0.7957747E-01  0.1322471E+00
    9000001   -1    0    0    0    0  0.00000000000E+00  0.00000000000E+00  0.64999999231E+04  0.65000000000E+04  0.10000000000E+01 0.  0.
    9000001   -1    0    0    0    0 -0.00000000000E+00 -0.00000000000E+00 -0.64999999231E+04  0.65000000000E+04  0.10000000000E+01 0.  0.
    9000001    1    1    2    0    0 -0.16459085361E+04  0.61270579338E+04  0.14142648854E+04  0.65000000000E+04  0.10000000000E+01 0.  0.
    9000001    1    1    2    0    0  0.16459085361E+04 -0.61270579338E+04 -0.14142648854E+04  0.65000000000E+04  0.10000000000E+01 0.  0.
</event>
<event>
 4    1  0.2193160E-006  0.1300000E+05  0.7957747E-01  0.1322471E+00
    9000001   -1    0    0    0    0  0.00000000000E+00  0.00000000000E+00  0.64999999231E+04  0.65000000000E+04  0.10000000000E+01 0.  0.
    9000001   -1    0    0    0    0 -0.00000000000E+00 -0.00000000000E+00 -0.64999999231E+04  0.65000000000E+04  0.10000000000E+01 0.  0.
    9000001    1    1    2    0    0 -0.45421715726E+04  0.44841694018E+04 -0.12291872035E+04  0.65000000000E+04  0.10000000000E+01 0.  0.
    9000001    1    1    2    0    0  0.45421715726E+04 -0.44841694018E+04  0.12291872035E+04  0.65000000000E+04  0.10000000000E+01 0.  0.
</event>
<event>
 4    1  0.2193160E-006  0.1300000E+05  0.7957747E-01  0.1322471E+00
    9000001   -1    0    0    0    0  0.00000000000E+00  0.00000000000E+00  0.64999999231E+04  0.65000000000E+04  0.10000000000E+01 0.  0.
    9000001   -1    0    0    0    0 -0.00000000000E+00 -0.00000000000E+00 -0.64999999231E+04  0.65000000000E+04  0.10000000000E+01 0.  0.
    9000001    1    1    2    0    0 -0.18376141689E+03  0.61209264647E+04  0.21795618723E+04  0.65000000000E+04  0.10000000000E+01 0.  0.
    9000001    1    1    2    0    0  0.18376141689E+03 -0.61209264647E+04 -0.21795618723E+04  0.65000000000E+04  0.10000000000E+01 0.  0.
</event>
<event>
 4    1  0.2193160E-006  0.1300000E+05  0.7957747E-01  0.1322471E+00
    9000001   -1    0    0    0    0  0.00000000000E+00  0.00000000000E+00  0.64999999231E+04  0.65000000000E+04  0.10000000000E+01 0.  0.
    9000001   -1    0    0    0    0 -0.00000000000E+00 -0.00000000000E+00 -0.64999999231E+04  0.65000000000E+04  0.10000000000E+01 0.  0.
    9000001    1    1    2    0    0  0.54480382167E+04  0.24234556334E+04 -0.25876130665E+04  0.65000000000E+04  0.10000000000E+01 0.  0.
    9000001    1    1    2    0    0 -0.54480382167E+04 -0.24234556334E+04  0.25876130665E+04  0.65000000000E+04  0.10000000000E+01 0.  0.
</event>
<event>
 4    1  0.2193160E-006  0.1300000E+05  0.7957747E-01  0.1322471E+00
    9000001   -1    0    0    0    0  0.00000000000E+00  0.00000000000E+00  0.64999999231E+04  0.65000000000E+04  0.10000000000E+01 0.  0.
    9000001   -1    0    0    0    0 -0.00000000000E+00 -0.00000000000E+00 -0.64999999231E+04  0.65000000000E+04  0.10000000000E+01 0.  0.
    9000001    1    1    2    0    0 -0.12413816288E+04  0.54205202070E+04  0.33655506737E+04  0.65000000000E+04  0.10000000000E+01 0.  0.
    9000001    1    1    2    0    0  0.12413816288E+04 -0.54205202070E+04 -0.33655506737E+04  0.65000000000E+04  0.10000000000E+01 0.  0.
</event>
<event>
 4    1  0.2193160E-006  0.1300000E+05  0.7957747E-01  0.1322471E+00
    9000001   -1    0    0    0    0  0.00000000000E+00  0.00000000000E+00  0.64999999231E+04  0.65000000000E+04  0.10000000000E+01 0.  0.
    9000001   -1    0    0    0    0 -0.00000000000E+00 -0.00000000000E+00 -0.64999999231E+04  0.65000000000E+04  0.10000000000E+01 0.  0.
    9000001    1    1    2    0    0  0.32851146197E+04  0.35865450799E+04  0.43121590097E+04  0.65000000000E+04  0.10000000000E+01 0.  0.
    9000001    1    1    2    0    0 -0.32851146197E+04 -0.35865450799E+04 -0.43121590097E+04  0.65000000000E+04  0.10000000000E+01 0.  0.
</event>
<event>
 4    1  0.2193160E-006  0.1300000E+05  0.7957747E-01  0.1322471E+00
    9000001   -1    0    0    0    0  0.00000000000E+00  0.00000000000E+00  0.64999999231E+04  0.65000000000E+04  0.10000000000E+01 0.  0.
    9000001   -1    0    0    0    0 -0.00000000000E+00 -0.00000000000E+00 -0.64999999231E+04  0.65000000000E+04  0.10000000000E+01 0.  0.
    9000001    1    1    2    0    0 -0.42667839575E+04 -0.48892051282E+04  0.37446879011E+03  0.65000000000E+04  0.10000000000E+01 0.  0.
    9000001    1    1    2    0    0  0.42667839575E+04  0.48892051282E+04 -0.37446879011E+03  0.65000000000E+04  0.10000000000E+01 0.  0.
</event>
<event>
 4    1  0.2193160E-006  0.1300000E+05  0.7957747E-01  0.1322471E+00
    9000001   -1    0    0    0    0  0.00000000000E+00  0.00000000000E+00  0.64999999231E+04  0.65000000000E+04  0.10000000000E+01 0.  0.
    9000001   -1    0    0    0    0 -0.00000000000E+00 -0.00000000000E+00 -0.64999999231E+04  0.65000000000E+04  0.10000000000E+01 0.  0.
    9000001    1    1    2    0    0 -0.21341500985E+04 -0.59428221740E+04 -0.15421630799E+04  0.65000000000E+04  0.10000000000E+01 0.  0.
    9000001    1    1    2    0    0  0.21341500985E+04  0.59428221740E+04  0.15421630799E+04  0.65000000000E+04  0.10000000000E+01 0.  0.
</event>
<event>
 4    1  0.2193160E-006  0.1300000E+05  0.7957747E-01  0.1322471E+00
    9000001   -1    0    0    0    0  0.00000000000E+00  0.00000000000E+00  0.64999999231E+04  0.65000000000E+04  0.10000000000E+01 0.  0.
    9000001   -1    0    0    0    0 -0.00000000000E+00 -0.00000000000E+00 -0.64999999231E+04  0.65000000000E+04  0.10000000000E+01 0.  0.
    9000001    1    1    2    0    0  0.54105637547E+04 -0.80517303174E+02 -0.36012936315E+04  0.65000000000E+04  0.10000000000E+01 0.  0.
    9000001    1    1    2    0    0 -0.54105637547E+04  0.80517303174E+02  0.36012936315E+04  0.65000000000E+04  0.10000000000E+01 0.  0.
</event>
<event>
 4    1  0.2193160E-006  0.1300000E+05  0.7957747E-01  0.1322471E+00
    9000001   -1    0    0    0    0  0.00000000000E+00  0.00000000000E+00  0.64999999231E+04  0.65000000000E+04  0.10000000000E+01 0.  0.
    9000001   -1    0    0    0    0 -0.00000000000E+00 -0.00000000000E+00 -0.64999999231E+04  0.65000000000E+04  0.10000000000E+01 0.  0.
    9000001    1    1    2    0    0 -0.40967180093E+04 -0.15736934763E+04  0.47948294438E+04  0.65000000000E+04  0.10000000000E+01 0.  0.
    9000001    1    1    2    0    0  0.40967180093E+04  0.15736934763E+04 -0.47948294438E+04  0.65000000000E+04  0.10000000000E+01 0.  0.
</event>
<event>
 4    1  0.2193160E-006  0.1300000E+05  0.7957747E-01  0.1322471E+00
    9000001   -1    0    0    0    0  0.00000000000E+00  0.00000000000E+00  0.64999999231E+04  0.65000000000E+04  0.10000000000E+01 0.  0.
    9000001   -1    0    0    0    0 -0.00000000000E+00 -0.00000000000E+00 -0.64999999231E+04  0.65000000000E+04  0.10000000000E+01 0.  0.
    9000001    1    1    2    0    0 -0.53084206946E+04  0.11452523896E+03 -0.37493403018E+04  0.65000000000E+04  0.10000000000E+01 0.  0.
    9000001    1    1    2    0    0  0.53084206946E+04 -0.11452523896E+03  0.37493403018E+04  0.65000000000E+04  0.10000000000E+01 0.  0.
</event>
<event>
 4    1  0.2193160E-006  0.1300000E+05  0.7957747E-01  0.1322471E+00
    9000001   -1    0    0    0    0  0.00000000000E+00  0.00000000000E+00  0.64999999231E+04  0.65000000000E+04  0.10000000000E+01 0.  0.
    9000001   -1    0    0    0    0 -0.00000000000E+00 -0.00000000000E+00 -0.64999999231E+04  0.65000000000E+04  0.10000000000E+01 0.  0.
    9000001    1    1    2    0    0 -0.84471738697E+03  0.29777780580E+04 -0.57157055009E+04  0.65000000000E+04  0.10000000000E+01 0.  0.
    9000001    1    1    2    0    0  0.84471738697E+03 -0.29777780580E+04  0.57157055009E+04  0.65000000000E+04  0.10000000000E+01 0.  0.
</event>
<event>
 4    1  0.2193160E-006  0.1300000E+05  0.7957747E-01  0.1322471E+00
    9000001   -1    0    0    0    0  0.00000000000E+00  0.00000000000E+00  0.64999999231E+04  0.65000000000E+04  0.10000000000E+01 0.  0.
    9000001   -1    0    0    0    0 -0.00000000000E+00 -0.00000000000E+00 -0.64999999231E+04  0.65000000000E+04  0.10000000000E+01 0.  0.
    9000001    1    1    2    0    0  0.58652885328E+04 -0.24748176002E+04  0.13128850953E+04  0.65000000000E+04  0.10000000000E+01 0.  0.
    9000001    1    1    2    0    0 -0.58652885328E+04  0.24748176002E+04 -0.13128850953E+04  0.65000000000E+04  0.10000000000E+01 0.  0.
</event>
<event>
 4    1  0.2193160E-006  0.1300000E+05  0.7957747E-01  0.1322471E+00
    9000001   -1    0    0    0    0  0.00000000000E+00  0.00000000000E+00  0.64999999231E+04  0.65000000000E+04  0.10000000000E+01 0.  0.
    9000001   -1    0    0    0    0 -0.00000000000E+00 -0.00000000000E+00 -0.64999999231E+04  0.65000000000E+04  0.10000000000E+01 0.  0.
    9000001    1    1    2    0    0 -0.46745890643E+03  0.61195600351E+04 -0.21406695560E+04  0.65000000000E+04  0.10000000000E+01 0.  0.
    9000001    1    1    2    0    0  0.46745890643E+03 -0.61195600351E+04  0.21406695560E+04  0.65000000000E+04  0.10000000000E+01 0.  0.
</event>
<event>
 4    1  0.2193160E-006  0.1300000E+05  0.7957747E-01  0.1322471E+00
    9000001   -1    0    0    0    0  0.00000000000E+00  0.00000000000E+00  0.64999999231E+04  0.65000000000E+04  0.10000000000E+01 0.  0.
    9000001   -1    0    0    0    0 -0.00000000000E+00 -0.00000000000E+00 -0.64999999231E+04  0.65000000000E+04  0.10000000000E+01 0.  0.
    9000001    1    1    2    0    0  0.57409640260E+04  0.77879713387E+03 -0.29469995041E+04  0.65000000000E+04  0.10000000000E+01 0.  0.
    9000001    1    1    2    0    0 -0.57409640260E+04 -0.77879713387E+03  0.29469995041E+04  0.65000000000E+04  0.10000000000E+01 0.  0.
</event>
<event>
 4    1  0.2193160E-006  0.1300000E+05  0.7957747E-01  0.1322471E+00
    9000001   -1    0    0    0    0  0.00000000000E+00  0.00000000000E+00  0.64999999231E+04  0.65000000000E+04  0.10000000000E+01 0.  0.
    9000001   -1    0    0    0    0 -0.00000000000E+00 -0.00000000000E+00 -0.64999999231E+04  0.65000000000E+04  0.10000000000E+01 0.  0.
    9000001    1    1    2    0    0 -0.57849928524E+04 -0.27953665119E+04  0.98477548773E+03  0.65000000000E+04  0.10000000000E+01 0.  0.
    9000001    1    1    2    0    0  0.57849928524E+04  0.27953665119E+04 -0.98477548773E+03  0.65000000000E+04  0.10000000000E+01 0.  0.
</event>
<event>
 4    1  0.2193160E-006  0.1300000E+05  0.7957747E-01  0.1322471E+00
    9000001   -1    0    0    0    0  0.00000000000E+00  0.00000000000E+00  0.64999999231E+04  0.65000000000E+04  0.10000000000E+01 0.  0.
    9000001   -1    0    0    0    0 -0.00000000000E+00 -0.00000000000E+00 -0.64999999231E+04  0.65000000000E+04  0.10000000000E+01 0.  0.
    9000001    1    1    2    0    0  0.18062833145E+04  0.61285023365E+04 -0.11953236796E+04  0.65000000000E+04  0.10000000000E+01 0.  0.
    9000001    1    1    2    0    0 -0.18062833145E+04 -0.61285023365E+04  0.11953236796E+04  0.65000000000E+04  0.10000000000E+01 0.  0.
</event>
<event>
 4    1  0.2193160E-006  0.1300000E+05  0.7957747E-01  0.1322471E+00
    9000001   -1    0    0    0    0  0.00000000000E+00  0.00000000000E+00  0.64999999231E+04  0.65000000000E+04  0.10000000000E+01 0.  0.
    9000001   -1    0    0    0    0 -0.00000000000E+00 -0.00000000000E+00 -0.64999999231E+04  0.65000000000E+04  0.10000000000E+01 0.  0.
    9000001    1    1    2    0    0  0.25543600444E+04  0.17615453633E+04  0.57115848673E+04  0.65000000000E+04  0.10000000000E+01 0.  0.
    9000001    1    1    2    0    0 -0.25543600444E+04 -0.17615453633E+04 -0.57115848673E+04  0.65000000000E+04  0.10000000000E+01 0.  0.
</event>
<event>
 4    1  0.2193160E-006  0.1300000E+05  0.7957747E-01  0.1322471E+00
    9000001   -1    0    0    0    0  0.00000000000E+00  0.00000000000E+00  0.64999999231E+04  0.65000000000E+04  0.10000000000E+01 0.  0.
    9000001   -1    0    0    0    0 -0.00000000000E+00 -0.00000000000E+00 -0.64999999231E+04  0.65000000000E+04  0.10000000000E+01 0.  0.
    9000001    1    1    2    0    0 -0.39537040556E+04 -0.23928005501E+04  0.45708564589E+04  0.65000000000E+04  0.10000000000E+01 0.  0.
    9000001    1    1    2    0    0  0.39537040556E+04  0.23928005501E+04 -0.45708564589E+04  0.65000000000E+04  0.10000000000E+01 0.  0.
</event>
<event>
 4    1  0.2193160E-006  0.1300000E+05  0.7957747E-01  0.1322471E+00
    9000001   -1    0    0    0    0  0.00000000000E+00  0.00000000000E+00  0.64999999231E+04  0.65000000000E+04  0.10000000000E+01 0.  0.
    9000001   -1    0    0    0    0 -0.00000000000E+00 -0.00000000000E+00 -0.64999999231E+04  0.65000000000E+04  0.10000000000E+01 0.  0.
    9000001    1    1    2    0    0 -0.46293437589E+04  0.44099324847E+04 -0.11711835219E+04  0.65000000000E+04  0.10000000000E+01 0.  0.
    9000001    1    1    2    0    0  0.46293437589E+04 -0.44099324847E+04  0.11711835219E+04  0.65000000000E+04  0.10000000000E+01 0.  0.
</event>
<event>
 4    1  0.2193160E-006  0.1300000E+05  0.7957747E-01  0.1322471E+00
    9000001   -1    0    0    0    0  0.00000000000E+00  0.00000000000E+00  0.64999999231E+04  0.65000000000E+04  0.10000000000E+01 0.  0.
    9000001   -1    0    0    0    0 -0.00000000000E+00 -0.00000000000E+00 -0.64999999231E+04  0.65000000000E+04  0.10000000000E+01 0.  0.
    9000001    1    1    2    0    0  0.59115802295E+04  0.14679305674E+04  0.22690081620E+04  0.65000000000E+04  0.10000000000E+01 0.  0.
    9000001    1    1    2    0    0 -0.59115802295E+04 -0.14679305674E+04 -0.22690081620E+04  0.65000000000E+04  0.10000000000E+01 0.  0.
</event>
<event>
 4    1  0.2193160E-006  0.1300000E+05  0.7957747E-01  0.1322471E+00
    9000001   -1    0    0    0    0  0.00000000000E+00  0.00000000000E+00  0.64999999231E+04  0.65000000000E+04  0.10000000000E+01 0.  0.
    9000001   -1    0    0    0    0 -0.00000000000E+00 -0.00000000000E+00 -0.64999999231E+04  0.65000000000E+04  0.10000000000E+01 0.  0.
    9000001    1    1    2    0    0  0.18659648924E+04  0.62256089897E+04  0.99833497883E+02  0.65000000000E+04  0.10000000000E+01 0.  0.
    9000001    1    1    2    0    0 -0.18659648924E+04 -0.62256089897E+04 -0.99833497883E+02  0.65000000000E+04  0.10000000000E+01 0.  0.
</event>
<event>
 4    1  0.2193160E-006  0.1300000E+05  0.7957747E-01  0.1322471E+00
    9000001   -1    0    0    0    0  0.00000000000E+00  0.00000000000E+00  0.64999999231E+04  0.65000000000E+04  0.10000000000E+01 0.  0.
    9000001   -1    0    0    0    0 -0.00000000000E+00 -0.00000000000E+00 -0.64999999231E+04  0.65000000000E+04  0.10000000000E+01 0.  0.
    9000001    1    1    2    0    0 -0.62678017906E+03 -0.90759013833E+03  0.64057338181E+04  0.65000000000E+04  0.10000000000E+01 0.  0.
    9000001    1    1    2    0    0  0.62678017906E+03  0.90759013833E+03 -0.64057338181E+04  0.65000000000E+04  0.10000000000E+01 0.  0.
</event>
<event>
 4    1  0.2193160E-006  0.1300000E+05  0.7957747E-01  0.1322471E+00
    9000001   -1    0    0    0    0  0.00000000000E+00  0.00000000000E+00  0.64999999231E+04  0.65000000000E+04  0.10000000000E+01 0.  0.
    9000001   -1    0    0    0    0 -0.00000000000E+00 -0.00000000000E+00 -0.64999999231E+04  0.65000000000E+04  0.10000000000E+01 0.  0.
    9000001    1    1    2    0    0 -0.32838149541E+04 -0.36494733603E+04 -0.42600355092E+04  0.65000000000E+04  0.10000000000E+01 0.  0.
    9000001    1    1    2    0    0  0.32838149541E+04  0.36494733603E+04  0.42600355092E+04  0.65000000000E+04  0.10000000000E+01 0.  0.
</event>
<event>
 4    1  0.2193160E-006  0.1300000E+05  0.7957747E-01  0.1322471E+00
    9000001   -1    0    0    0    0  0.00000000000E+00  0.00000000000E+00  0.64999999231E+04  0.65000000000E+04  0.10000000000E+01 0.  0.
    9000001   -1    0    0    0    0 -0.00000000000E+00 -0.00000000000E+00 -0.64999999231E+04  0.65000000000E+04  0.10000000000E+01 0.  0.
    9000001    1    1    2    0    0 -0.35661652642E+04  0.53547952804E+04 -0.92662387917E+03  0.65000000000E+04  0.10000000000E+01 0.  0.
    9000001    1    1    2    0    0  0.35661652642E+04 -0.53547952804E+04  0.92662387917E+03  0.65000000000E+04  0.10000000000E+01 0.  0.
</event>
<event>
 4    1  0.2193160E-006  0.1300000E+05  0.7957747E-01  0.1322471E+00
    9000001   -1    0    0    0    0  0.00000000000E+00  0.00000000000E+00  0.64999999231E+04  0.65000000000E+04  0.10000000000E+01 0.  0.
    9000001   -1    0    0    0    0 -0.00000000000E+00 -0.00000000000E+00 -0.64999999231E+04  0.65000000000E+04  0.10000000000E+01 0.  0.
    9000001    1    1    2    0    0  0.12324407809E+04  0.47258752967E+04  0.42891947265E+04  0.65000000000E+04  0.10000000000E+01 0.  0.
    9000001    1    1    2    0    0 -0.12324407809E+04 -0.47258752967E+04 -0.42891947265E+04  0.65000000000E+04  0.10000000000E+01 0.  0.
</event>
<event>
 4    1  0.2193160E-006  0.1300000E+05  0.7957747E-01  0.1322471E+00
    9000001   -1    0    0    0    0  0.00000000000E+00  0.00000000000E+00  0.64999999231E+04  0.65000000000E+04  0.10000000000E+01 0.  0.
    9000001   -1    0    0    0    0 -0.00000000000E+00 -0.00000000000E+00 -0.64999999231E+04  0.65000000000E+04  0.10000000000E+01 0.  0.
    9000001    1    1    2    0    0  0.60114669129E+04  0.13845789056E+03 -0.24684193256E+04  0.65000000000E+04  0.10000000000E+01 0.  0.
    9000001    1    1    2    0    0 -0.60114669129E+04 -0.13845789056E+03  0.24684193256E+04  0.65000000000E+04  0.10000000000E+01 0.  0.
</event>
<event>
 4    1  0.2193160E-006  0.1300000E+05  0.7957747E-01  0.1322471E+00
    9000001   -1    0    0    0    0  0.00000000000E+00  0.00000000000E+00  0.64999999231E+04  0.65000000000E+04  0.10000000000E+01 0.  0.
    9000001   -1    0    0    0    0 -0.00000000000E+00 -0.00000000000E+00 -0.64999999231E+04  0.65000000000E+04  0.10000000000E+01 0.  0.
    9000001    1    1    2    0    0  0.20376758287E+04 -0.61421643213E+04 -0.60966684964E+03  0.65000000000E+04  0.10000000000E+01 0.  0.
    9000001    1    1    2    0    0 -0.20376758287E+04  0.61421643213E+04  0.60966684964E+03  0.65000000000E+04  0.10000000000E+01 0.  0.
</event>
<event>
 4    1  0.2193160E-006  0.1300000E+05  0.7957747E-01  0.1322471E+00
    9000001   -1    0    0    0    0  0.00000000000E+00  0.00000000000E+00  0.64999999231E+04  0.65000000000E+04  0.10000000000E+01 0.  0.
    9000001   -1    0    0    0    0 -0.00000000000E+00 -0.00000000000E+00 -0.64999999231E+04  0.65000000000E+04  0.10000000000E+01 0.  0.
    9000001    1    1    2    0    0 -0.56135036552E+03 -0.59122532163E+04 -0.26419967210E+04  0.65000000000E+04  0.10000000000E+01 0.  0.
    9000001    1    1    2    0    0  0.56135036552E+03  0.59122532163E+04  0.26419967210E+04  0.65000000000E+04  0.10000000000E+01 0.  0.
</event>
<event>
 4    1  0.2193160E-006  0.1300000E+05  0.7957747E-01  0.1322471E+00
    9000001   -1    0    0    0    0  0.00000000000E+00  0.00000000000E+00  0.64999999231E+04  0.65000000000E+04  0.10000000000E+01 0.  0.
    9000001   -1    0    0    0    0 -0.00000000000E+00 -0.00000000000E+00 -0.64999999231E+04  0.65000000000E+04  0.10000000000E+01 0.  0.
    9000001    1    1    2    0    0  0.54461308084E+04 -0.11995420503E+04  0.33392749343E+04  0.65000000000E+04  0.10000000000E+01 0.  0.
    9000001    1    1    2    0    0 -0.54461308084E+04  0.11995420503E+04 -0.33392749343E+04  0.65000000000E+04  0.10000000000E+01 0.  0.
</event>
<event>
 4    1  0.2193160E-006  0.1300000E+05  0.7957747E-01  0.1322471E+00
    9000001   -1    0    0    0    0  0.00000000000E+00  0.00000000000E+00  0.64999999231E+04  0.65000000000E+04  0.10000000000E+01 0.  0.
    9000001   -1    0    0    0    0 -0.00000000000E+00 -0.00000000000E+00 -0.64999999231E+04  0.65000000000E+04  0.10000000000E+01 0.  0.
    9000001    1    1    2    0    0  0.24542690527E+03  0.55482738090E+04 -0.33773395409E+04  0.65000000000E+04  0.10000000000E+01 0.  0.
    9000001    1    1    2    0    0 -0.24542690527E+03 -0.55482738090E+04  0.33773395409E+04  0.65000000000E+04  0.10000000000E+01 0.  0.
</event>
<event>
 4    1  0.2193160E-006  0.1300000E+05  0.7957747E-01  0.1322471E+00
    9000001   -1    0    0    0    0  0.00000000000E+00  0.00000000000E+00  0.64999999231E+04  0.65000000000E+04  0.10000000000E+01 0.  0.
    9000001   -1    0    0    0    0 -0.00000000000E+00 -0.00000000000E+00 -0.64999999231E+04  0.65000000000E+04  0.10000000000E+01 0.  0.
    9000001    1    1    2    0    0  0.56807147501E+04 -0.20508112940E+04 -0.24028424760E+04  0.65000000000E+04  0.10000000000E+01 0.  0.
    9000001    1    1    2    0    0 -0.56807147501E+04  0.20508112940E+04  0.24028424760E+04  0.65000000000E+04  0.10000000000E+01 0.  0.
</event>
<event>
 4    1  0.2193160E-006  0.1300000E+05  0.7957747E-01  0.1322471E+00
    9000001   -1    0    0    0    0  0.00000000000E+00  0.00000000000E+00  0.64999999231E+04  0.65000000000E+04  0.10000000000E+01 0.  0.
    9000001   -1    0    0    0    0 -0.00000000000E+00 -0.00000000000E+00 -0.64999999231E+04  0.65000000000E+04  0.10000000000E+01 0.  0.
    9000001    1    1    2    0    0  0.14412498600E+04 -0.24146598600E+04  0.58602231700E+04  0.65000000000E+04  0.10000000000E+01 0.  0.
    9000001    1    1    2    0    0 -0.14412498600E+04  0.24146598600E+04 -0.58602231700E+04  0.65000000000E+04  0.10000000000E+01 0.  0.
</event>
<event>
 4    1  0.2193160E-006  0.1300000E+05  0.7957747E-01  0.1322471E+00
    9000001   -1    0    0    0    0  0.00000000000E+00  0.00000000000E+00  0.64999999231E+04  0.65000000000E+04  0.10000000000E+01 0.  0.
    9000001   -1    0    0    0    0 -0.00000000000E+00 -0.00000000000E+00 -0.64999999231E+04  0.65000000000E+04  0.10000000000E+01 0.  0.
    9000001    1    1    2    0    0 -0.20147953729E+04  0.50450762091E+04  0.35690061151E+04  0.65000000000E+04  0.10000000000E+01 0.  0.
    9000001    1    1    2    0    0  0.20147953729E+04 -0.50450762091E+04 -0.35690061151E+04  0.65000000000E+04  0.10000000000E+01 0.  0.
</event>
<event>
 4    1  0.2193160E-006  0.1300000E+05  0.7957747E-01  0.1322471E+00
    9000001   -1    0    0    0    0  0.00000000000E+00  0.00000000000E+00  0.64999999231E+04  0.65000000000E+04  0.10000000000E+01 0.  0.
    9000001   -1    0    0    0    0 -0.00000000000E+00 -0.00000000000E+00 -0.64999999231E+04  0.65000000000E+04  0.10000000000E+01 0.  0.
    9000001    1    1    2    0    0 -0.22200122037E+04 -0.75338107149E+03 -0.60625045795E+04  0.65000000000E+04  0.10000000000E+01 0.  0.
    9000001    1    1    2    0    0  0.22200122037E+04  0.75338107149E+03  0.60625045795E+04  0.65000000000E+04  0.10000000000E+01 0.  0.
</event>
<event>
 4    1  0.2193160E-006  0.1300000E+05  0.7957747E-01  0.1322471E+00
    9000001   -1    0    0    0    0  0.00000000000E+00  0.00000000000E+00  0.64999999231E+04  0.65000000000E+04  0.10000000000E+01 0.  0.
    9000001   -1    0    0    0    0 -0.00000000000E+00 -0.00000000000E+00 -0.64999999231E+04  0.65000000000E+04  0.10000000000E+01 0.  0.
    9000001    1    1    2    0    0 -0.64359335687E+03  0.58606596607E+04  0.27365041444E+04  0.65000000000E+04  0.10000000000E+01 0.  0.
    9000001    1    1    2    0    0  0.64359335687E+03 -0.58606596607E+04 -0.27365041444E+04  0.65000000000E+04  0.10000000000E+01 0.  0.
</event>
<event>
 4    1  0.2193160E-006  0.1300000E+05  0.7957747E-01  0.1322471E+00
    9000001   -1    0    0    0    0  0.00000000000E+00  0.00000000000E+00  0.64999999231E+04  0.65000000000E+04  0.10000000000E+01 0.  0.
    9000001   -1    0    0    0    0 -0.00000000000E+00 -0.00000000000E+00 -0.64999999231E+04  0.65000000000E+04  0.10000000000E+01 0.  0.
    9000001    1    1    2    0    0 -0.47313855457E+04  0.12681792116E+04 -0.42726702780E+04  0.65000000000E+04  0.10000000000E+01 0.  0.
    9000001    1    1    2    0    0  0.47313855457E+04 -0.12681792116E+04  0.42726702780E+04  0.65000000000E+04  0.10000000000E+01 0.  0.
</event>
<event>
 4    1  0.2193160E-006  0.1300000E+05  0.7957747E-01  0.1322471E+00
    9000001   -1    0    0    0    0  0.00000000000E+00  0.00000000000E+00  0.64999999231E+04  0.65000000000E+04  0.10000000000E+01 0.  0.
    9000001   -1    0    0    0    0 -0.00000000000E+00 -0.00000000000E+00 -0.64999999231E+04  0.65000000000E+04  0.10000000000E+01 0.  0.
    9000001    1    1    2    0    0 -0.54623108570E+04 -0.11554381406E+04 -0.33283812589E+04  0.65000000000E+04  0.10000000000E+01 0.  0.
    9000001    1    1    2    0    0  0.54623108570E+04  0.11554381406E+04  0.33283812589E+04  0.65000000000E+04  0.10000000000E+01 0.  0.
</event>
<event>
 4    1  0.2193160E-006  0.1300000E+05  0.7957747E-01  0.1322471E+00
    9000001   -1    0    0    0    0  0.00000000000E+00  0.00000000000E+00  0.64999999231E+04  0.65000000000E+04  0.10000000000E+01 0.  0.
    9000001   -1    0    0    0    0 -0.00000000000E+00 -0.00000000000E+00 -0.64999999231E+04  0.65000000000E+04  0.10000000000E+01 0.  0.
    9000001    1    1    2    0    0  0.57541124976E+04  0.63603772462E+03  0.29556123524E+04  0.65000000000E+04  0.10000000000E+01 0.  0.
    9000001    1    1    2    0    0 -0.57541124976E+04 -0.63603772462E+03 -0.29556123524E+04  0.65000000000E+04  0.10000000000E+01 0.  0.
</event>
<event>
 4    1  0.2193160E-006  0.1300000E+05  0.7957747E-01  0.1322471E+00
    9000001   -1    0    0    0    0  0.00000000000E+00  0.00000000000E+00  0.64999999231E+04  0.65000000000E+04  0.10000000000E+01 0.  0.
    9000001   -1    0    0    0    0 -0.00000000000E+00 -0.00000000000E+00 -0.64999999231E+04  0.65000000000E+04  0.10000000000E+01 0.  0.
    9000001    1    1    2    0    0 -0.34992166415E+04  0.56141585974E+03 -0.54488800802E+04  0.65000000000E+04  0.10000000000E+01 0.  0.
    9000001    1    1    2    0    0  0.34992166415E+04 -0.56141585974E+03  0.54488800802E+04  0.65000000000E+04  0.10000000000E+01 0.  0.
</event>
<event>
 4    1  0.2193160E-006  0.1300000E+05  0.7957747E-01  0.1322471E+00
    9000001   -1    0    0    0    0  0.00000000000E+00  0.00000000000E+00  0.64999999231E+04  0.65000000000E+04  0.10000000000E+01 0.  0.
    9000001   -1    0    0    0    0 -0.00000000000E+00 -0.00000000000E+00 -0.64999999231E+04  0.65000000000E+04  0.10000000000E+01 0.  0.
    9000001    1    1    2    0    0  0.11438462504E+04  0.32013085877E+04 -0.55401478393E+04  0.65000000000E+04  0.10000000000E+01 0.  0.
    9000001    1    1    2    0    0 -0.11438462504E+04 -0.32013085877E+04  0.55401478393E+04  0.65000000000E+04  0.10000000000E+01 0.  0.
</event>
<event>
 4    1  0.2193160E-006  0.1300000E+05  0.7957747E-01  0.1322471E+00
    9000001   -1    0    0    0    0  0.00000000000E+00  0.00000000000E+00  0.64999999231E+04  0.65000000000E+04  0.10000000000E+01 0.  0.
    9000001   -1    0    0    0    0 -0.00000000000E+00 -0.00000000000E+00 -0.64999999231E+04  0.65000000000E+04  0.10000000000E+01 0.  0.
    9000001    1    1    2    0    0  0.46899507001E+04  0.23905288593E+04  0.38131002089E+04  0.65000000000E+04  0.10000000000E+01 0.  0.
    9000001    1    1    2    0    0 -0.46899507001E+04 -0.23905288593E+04 -0.38131002089E+04  0.65000000000E+04  0.10000000000E+01 0.  0.
</event>
<event>
 4    1  0.2193160E-006  0.1300000E+05  0.7957747E-01  0.1322471E+00
    9000001   -1    0    0    0    0  0.00000000000E+00  0.00000000000E+00  0.64999999231E+04  0.65000000000E+04  0.10000000000E+01 0.  0.
    9000001   -1    0    0    0    0 -0.00000000000E+00 -0.00000000000E+00 -0.64999999231E+04  0.65000000000E+04  0.10000000000E+01 0.  0.
    9000001    1    1    2    0    0 -0.44703368918E+04 -0.53946946954E+03 -0.46877563680E+04  0.65000000000E+04  0.10000000000E+01 0.  0.
    9000001    1    1    2    0    0  0.44703368918E+04  0.53946946954E+03  0.46877563680E+04  0.65000000000E+04  0.10000000000E+01 0.  0.
</event>
<event>
 4    1  0.2193160E-006  0.1300000E+05  0.7957747E-01  0.1322471E+00
    9000001   -1    0    0    0    0  0.00000000000E+00  0.00000000000E+00  0.64999999231E+04  0.65000000000E+04  0.10000000000E+01 0.  0.
    9000001   -1    0    0    0    0 -0.00000000000E+00 -0.00000000000E+00 -0.64999999231E+04  0.65000000000E+04  0.10000000000E+01 0.  0.
    9000001    1    1    2    0    0  0.55884989055E+04  0.47078624467E+03 -0.32858848572E+04  0.65000000000E+04  0.10000000000E+01 0.  0.
    9000001    1    1    2    0    0 -0.55884989055E+04 -0.47078624467E+03  0.32858848572E+04  0.65000000000E+04  0.10000000000E+01 0.  0.
</event>
<event>
 4    1  0.2193160E-006  0.1300000E+05  0.7957747E-01  0.1322471E+00
    9000001   -1    0    0    0    0  0.00000000000E+00  0.00000000000E+00  0.64999999231E+04  0.65000000000E+04  0.10000000000E+01 0.  0.
    9000001   -1    0    0    0    0 -0.00000000000E+00 -0.00000000000E+00 -0.64999999231E+04  0.65000000000E+04  0.10000000000E+01 0.  0.
    9000001    1    1    2    0    0 -0.36356123392E+04  0.98221184928E+03 -0.52978846536E+04  0.65000000000E+04  0.10000000000E+01 0.  0.
    9000001    1    1    2    0    0  0.36356123392E+04 -0.98221184928E+03  0.52978846536E+04  0.65000000000E+04  0.10000000000E+01 0.  0.
</event>
<event>
 4    1  0.2193160E-006  0.1300000E+05  0.7957747E-01  0.1322471E+00
    9000001   -1    0    0    0    0  0.00000000000E+00  0.00000000000E+00  0.64999999231E+04  0.65000000000E+04  0.10000000000E+01 0.  0.
    9000001   -1    0    0    0    0 -0.00000000000E+00 -0.00000000000E+00 -0.64999999231E+04  0.65000000000E+04  0.10000000000E+01 0.  0.
    9000001    1    1    2    0    0 -0.15190714101E+04  0.59340083782E+03  0.62920820478E+04  0.65000000000E+04  0.10000000000E+01 0.  0.
    9000001    1    1    2    0    0  0.15190714101E+04 -0.59340083782E+03 -0.62920820478E+04  0.65000000000E+04  0.10000000000E+01 0.  0.
</event>
<event>
 4    1  0.2193160E-006  0.1300000E+05  0.7957747E-01  0.1322471E+00
    9000001   -1    0    0    0    0  0.00000000000E+00  0.00000000000E+00  0.64999999231E+04  0.65000000000E+04  0.10000000000E+01 0.  0.
    9000001   -1    0    0    0    0 -0.00000000000E+00 -0.00000000000E+00 -0.64999999231E+04  0.65000000000E+04  0.10000000000E+01 0.  0.
    9000001    1    1    2    0    0 -0.19595659280E+04 -0.55070123364E+04 -0.28430468692E+04  0.65000000000E+04  0.10000000000E+01 0.  0.
    9000001    1    1    2    0    0  0.19595659280E+04  0.55070123364E+04  0.28430468692E+04  0.65000000000E+04  0.10000000000E+01 0.  0.
</event>
<event>
 4    1  0.2193160E-006  0.1300000E+05  0.7957747E-01  0.1322471E+00
    9000001   -1    0    0    0    0  0.00000000000E+00  0.00000000000E+00  0.64999999231E+04  0.65000000000E+04  0.10000000000E+01 0.  0.
    9000001   -1    0    0    0    0 -0.00000000000E+00 -0.00000000000E+00 -0.64999999231E+04  0.65000000000E+04  0.10000000000E+01 0.  0.
    9000001    1    1    2    0    0  0.35953456765E+04  0.44135306303E+04 -0.31375525241E+04  0.65000000000E+04  0.10000000000E+01 0.  0.
    9000001    1    1    2    0    0 -0.35953456765E+04 -0.44135306303E+04  0.31375525241E+04  0.65000000000E+04  0.10000000000E+01 0.  0.
</event>
<event>
 4    1  0.2193160E-006  0.1300000E+05  0.7957747E-01  0.1322471E+00
    9000001   -1    0    0    0    0  0.00000000000E+00  0.00000000000E+00  0.64999999231E+04  0.65000000000E+04  0.10000000000E+01 0.  0.
    9000001   -1    0    0    0    0 -0.00000000000E+00 -0.00000000000E+00 -0.64999999231E+04  0.65000000000E+04  0.10000000000E+01 0.  0.
    9000001    1    1    2    0    0 -0.29469485252E+04 -0.32763433893E+04  0.47781866210E+04  0.65000000000E+04  0.10000000000E+01 0.  0.
    9000001    1    1    2    0    0  0.29469485252E+04  0.32763433893E+04 -0.47781866210E+04  0.65000000000E+04  0.10000000000E+01 0.  0.
</event>
<event>
 4    1  0.2193160E-006  0.1300000E+05  0.7957747E-01  0.1322471E+00
    9000001   -1    0    0    0    0  0.00000000000E+00  0.00000000000E+00  0.64999999231E+04  0.65000000000E+04  0.10000000000E+01 0.  0.
    9000001   -1    0    0    0    0 -0.00000000000E+00 -0.00000000000E+00 -0.64999999231E+04  0.65000000000E+04  0.10000000000E+01 0.  0.
    9000001    1    1    2    0    0  0.32713936495E+03  0.19384815809E+04 -0.61955845565E+04  0.65000000000E+04  0.10000000000E+01 0.  0.
    9000001    1    1    2    0    0 -0.32713936495E+03 -0.19384815809E+04  0.61955845565E+04  0.65000000000E+04  0.10000000000E+01 0.  0.
</event>
<event>
 4    1  0.2193160E-006  0.1300000E+05  0.7957747E-01  0.1322471E+00
    9000001   -1    0    0    0    0  0.00000000000E+00  0.00000000000E+00  0.64999999231E+04  0.65000000000E+04  0.10000000000E+01 0.  0.
    9000001   -1    0    0    0    0 -0.00000000000E+00 -0.00000000000E+00 -0.64999999231E+04  0.65000000000E+04  0.10000000000E+01 0.  0.
    9000001    1    1    2    0    0  0.37879751540E+04  0.51962510138E+04  0.94879852160E+03  0.65000000000E+04  0.10000000000E+01 0.  0.
    9000001    1    1    2    0    0 -0.37879751540E+04 -0.51962510138E+04 -0.94879852160E+03  0.65000000000E+04  0.10000000000E+01 0.  0.
</event>
<event>
 4    1  0.2193160E-006  0.1300000E+05  0.7957747E-01  0.1322471E+00
    9000001   -1    0    0    0    0  0.00000000000E+00  0.00000000000E+00  0.64999999231E+04  0.65000000000E+04  0.10000000000E+01 0.  0.
    9000001   -1    0    0    0    0 -0.00000000000E+00 -0.00000000000E+00 -0.64999999231E+04  0.65000000000E+04  0.10000000000E+01 0.  0.
    9000001    1    1    2    0    0  0.82106811309E+03  0.20891423363E+04 -0.61001090525E+04  0.65000000000E+04  0.10000000000E+01 0.  0.
    9000001    1    1    2    0    0 -0.82106811309E+03 -0.20891423363E+04  0.61001090525E+04  0.65000000000E+04  0.10000000000E+01 0.  0.
</event>
<event>
 4    1  0.2193160E-006  0.1300000E+05  0.7957747E-01  0.1322471E+00
    9000001   -1    0    0    0    0  0.00000000000E+00  0.00000000000E+00  0.64999999231E+04  0.65000000000E+04  0.10000000000E+01 0.  0.
    9000001   -1    0    0    0    0 -0.00000000000E+00 -0.00000000000E+00 -0.64999999231E+04  0.65000000000E+04  0.10000000000E+01 0.  0.
    9000001    1    1    2    0    0  0.30346956087E+04 -0.40597798446E+04 -0.40692516727E+04  0.65000000000E+04  0.10000000000E+01 0.  0.
    9000001    1    1    2    0    0 -0.30346956087E+04  0.40597798446E+04  0.40692516727E+04  0.65000000000E+04  0.10000000000E+01 0.  0.
</event>
<event>
 4    1  0.2193160E-006  0.1300000E+05  0.7957747E-01  0.1322471E+00
    9000001   -1    0    0    0    0  0.00000000000E+00  0.00000000000E+00  0.64999999231E+04  0.65000000000E+04  0.10000000000E+01 0.  0.
    9000001   -1    0    0    0    0 -0.00000000000E+00 -0.00000000000E+00 -0.64999999231E+04  0.65000000000E+04  0.10000000000E+01 0.  0.
    9000001    1    1    2    0    0 -0.89729812891E+03 -0.41749714586E+04 -0.49004559367E+04  0.65000000000E+04  0.10000000000E+01 0.  0.
    9000001    1    1    2    0    0  0.89729812891E+03  0.41749714586E+04  0.49004559367E+04  0.65000000000E+04  0.10000000000E+01 0.  0.
</event>
<event>
 4    1  0.2193160E-006  0.1300000E+05  0.7957747E-01  0.1322471E+00
    9000001   -1    0    0    0    0  0.00000000000E+00  0.00000000000E+00  0.64999999231E+04  0.65000000000E+04  0.10000000000E+01 0.  0.
    9000001   -1    0    0    0    0 -0.00000000000E+00 -0.00000000000E+00 -0.64999999231E+04  0.65000000000E+04  0.10000000000E+01 0.  0.
    9000001    1    1    2    0    0  0.59626554573E+04 -0.24269571956E+04  0.89811896143E+03  0.65000000000E+04  0.10000000000E+01 0.  0.
    9000001    1    1    2    0    0 -0.59626554573E+04  0.24269571956E+04 -0.89811896143E+03  0.65000000000E+04  0.10000000000E+01 0.  0.
</event>
<event>
 4    1  0.2193160E-006  0.1300000E+05  0.7957747E-01  0.1322471E+00
    9000001   -1    0    0    0    0  0.00000000000E+00  0.00000000000E+00  0.64999999231E+04  0.65000000000E+04  0.10000000000E+01 0.  0.
    9000001   -1    0    0    0    0 -0.00000000000E+00 -0.00000000000E+00 -0.64999999231E+04  0.65000000000E+04  0.10000000000E+01 0.  0.
    9000001    1    1    2    0    0  0.44490575112E+04  0.22855323359E+04 -0.41511719073E+04  0.65000000000E+04  0.10000000000E+01 0.  0.
    9000001    1    1    2    0    0 -0.44490575112E+04 -0.22855323359E+04  0.41511719073E+04  0.65000000000E+04  0.10000000000E+01 0.  0.
</event>
<event>
 4    1  0.2193160E-006  0.1300000E+05  0.7957747E-01  0.1322471E+00
    9000001   -1    0    0    0    0  0.00000000000E+00  0.00000000000E+00  0.64999999231E+04  0.65000000000E+04  0.10000000000E+01 0.  0.
    9000001   -1    0    0    0    0 -0.00000000000E+00 -0.00000000000E+00 -0.64999999231E+04  0.65000000000E+04  0.10000000000E+01 0.  0.
    9000001    1    1    2    0    0  0.13414141428E+04  0.78037039411E+02 -0.63596004055E+04  0.65000000000E+04  0.10000000000E+01 0.  0.
    9000001    1    1    2    0    0 -0.13414141428E+04 -0.78037039411E+02  0.63596004055E+04  0.65000000000E+04  0.10000000000E+01 0.  0.
</event>
<event>
 4    1  0.2193160E-006  0.1300000E+05  0.7957747E-01  0.1322471E+00
    9000001   -1    0    0    0    0  0.00000000000E+00  0.00000000000E+00  0.64999999231E+04  0.65000000000E+04  0.10000000000E+01 0.  0.
    9000001   -1    0    0    0    0 -0.00000000000E+00 -0.00000000000E+00 -0.64999999231E+04  0.65000000000E+04  0.10000000000E+01 0.  0.
    9000001    1    1    2    0    0 -0.56362894809E+04  0.23362320988E+04  0.22414859955E+04  0.65000000000E+04  0.10000000000E+01 0.  0.
    9000001    1    1    2    0    0  0.56362894809E+04 -0.23362320988E+04 -0.22414859955E+04  0.65000000000E+04  0.10000000000E+01 0.  0.
</event>
<event>
 4    1  0.2193160E-006  0.1300000E+05  0.7957747E-01  0.1322471E+00
    9000001   -1    0    0    0    0  0.00000000000E+00  0.00000000000E+00  0.64999999231E+04  0.65000000000E+04  0.10000000000E+01 0.  0.
    9000001   -1    0    0    0    0 -0.00000000000E+00 -0.00000000000E+00 -0.64999999231E+04  0.65000000000E+04  0.10000000000E+01 0.  0.
    9000001    1    1    2    0    0 -0.15414062347E+04 -0.27138981580E+04  0.57016508669E+04  0.65000000000E+04  0.10000000000E+01 0.  0.
    9000001    1    1    2    0    0  0.15414062347E+04  0.27138981580E+04 -0.57016508669E+04  0.65000000000E+04  0.10000000000E+01 0.  0.
</event>
<event>
 4    1  0.2193160E-006  0.1300000E+05  0.7957747E-01  0.1322471E+00
    9000001   -1    0    0    0    0  0.00000000000E+00  0.00000000000E+00  0.64999999231E+04  0.65000000000E+04  0.10000000000E+01 0.  0.
    9000001   -1    0    0    0    0 -0.00000000000E+00 -0.00000000000E+00 -0.64999999231E+04  0.65000000000E+04  0.10000000000E+01 0.  0.
    9000001    1    1    2    0    0 -0.47647845694E+04 -0.51148089455E+03 -0.43914934022E+04  0.65000000000E+04  0.10000000000E+01 0.  0.
    9000001    1    1    2    0    0  0.47647845694E+04  0.51148089455E+03  0.43914934022E+04  0.65000000000E+04  0.10000000000E+01 0.  0.
</event>
<event>
 4    1  0.2193160E-006  0.1300000E+05  0.7957747E-01  0.1322471E+00
    9000001   -1    0    0    0    0  0.00000000000E+00  0.00000000000E+00  0.64999999231E+04  0.65000000000E+04  0.10000000000E+01 0.  0.
    9000001   -1    0    0    0    0 -0.00000000000E+00 -0.00000000000E+00 -0.64999999231E+04  0.65000000000E+04  0.10000000000E+01 0.  0.
    9000001    1    1    2    0    0 -0.45466979126E+04  0.15478768576E+04  0.43796819891E+04  0.65000000000E+04  0.10000000000E+01 0.  0.
    9000001    1    1    2    0    0  0.45466979126E+04 -0.15478768576E+04 -0.43796819891E+04  0.65000000000E+04  0.10000000000E+01 0.  0.
</event>
<event>
 4    1  0.2193160E-006  0.1300000E+05  0.7957747E-01  0.1322471E+00
    9000001   -1    0    0    0    0  0.00000000000E+00  0.00000000000E+00  0.64999999231E+04  0.65000000000E+04  0.10000000000E+01 0.  0.
    9000001   -1    0    0    0    0 -0.00000000000E+00 -0.00000000000E+00 -0.64999999231E+04  0.65000000000E+04  0.10000000000E+01 0.  0.
    9000001    1    1    2    0    0  0.31183099533E+04  0.56604270888E+04  0.69692697431E+03  0.65000000000E+04  0.10000000000E+01 0.  0.
    9000001    1    1    2    0    0 -0.31183099533E+04 -0.56604270888E+04 -0.69692697431E+03  0.65000000000E+04  0.10000000000E+01 0.  0.
</event>
<event>
 4    1  0.2193160E-006  0.1300000E+05  0.7957747E-01  0.1322471E+00
    9000001   -1    0    0    0    0  0.00000000000E+00  0.00000000000E+00  0.64999999231E+04  0.65000000000E+04  0.10000000000E+01 0.  0.
    9000001   -1    0    0    0    0 -0.00000000000E+00 -0.00000000000E+00 -0.64999999231E+04  0.65000000000E+04  0.10000000000E+01 0.  0.
    9000001    1    1    2    0    0 -0.29061945677E+04  0.13301597694E+04 -0.56599211234E+04  0.65000000000E+04  0.10000000000E+01 0.  0.
    9000001    1    1    2    0    0  0.29061945677E+04 -0.13301597694E+04  0.56599211234E+04  0.65000000000E+04  0.10000000000E+01 0.  0.
</event>
<event>
 4    1  0.2193160E-006  0.1300000E+05  0.7957747E-01  0.1322471E+00
    9000001   -1    0    0    0    0  0.00000000000E+00  0.00000000000E+00  0.64999999231E+04  0.65000000000E+04  0.10000000000E+01 0.  0.
    9000001   -1    0    0    0    0 -0.00000000000E+00 -0.00000000000E+00 -0.64999999231E+04  0.65000000000E+04  0.10000000000E+01 0.  0.
    9000001    1    1    2    0    0 -0.36637629772E+04  0.51991566513E+04 -0.13400037171E+04  0.65000000000E+04  0.10000000000E+01 0.  0.
    9000001    1    1    2    0    0  0.36637629772E+04 -0.51991566513E+04  0.13400037171E+04  0.65000000000E+04  0.10000000000E+01 0.  0.
</event>
<event>
 4    1  0.2193160E-006  0.1300000E+05  0.7957747E-01  0.1322471E+00
    9000001   -1    0    0    0    0  0.00000000000E+00  0.00000000000E+00  0.64999999231E+04  0.65000000000E+04  0.10000000000E+01 0.  0.
    9000001   -1    0    0    0    0 -0.00000000000E+00 -0.00000000000E+00 -0.64999999231E+04  0.65000000000E+04  0.10000000000E+01 0.  0.
    9000001    1    1    2    0    0 -0.57436528685E+04  0.23364804715E+04 -0.19496947793E+04  0.65000000000E+04  0.10000000000E+01 0.  0.
    9000001    1    1    2    0    0  0.57436528685E+04 -0.23364804715E+04  0.19496947793E+04  0.65000000000E+04  0.10000000000E+01 0.  0.
</event>
<event>
 4    1  0.2193160E-006  0.1300000E+05  0.7957747E-01  0.1322471E+00
    9000001   -1    0    0    0    0  0.00000000000E+00  0.00000000000E+00  0.64999999231E+04  0.65000000000E+04  0.10000000000E+01 0.  0.
    9000001   -1    0    0    0    0 -0.00000000000E+00 -0.00000000000E+00 -0.64999999231E+04  0.65000000000E+04  0.10000000000E+01 0.  0.
    9000001    1    1    2    0    0 -0.30816686180E+04  0.10642831854E+04  0.56232213926E+04  0.65000000000E+04  0.10000000000E+01 0.  0.
    9000001    1    1    2    0    0  0.30816686180E+04 -0.10642831854E+04 -0.56232213926E+04  0.65000000000E+04  0.10000000000E+01 0.  0.
</event>
<event>
 4    1  0.2193160E-006  0.1300000E+05  0.7957747E-01  0.1322471E+00
    9000001   -1    0    0    0    0  0.00000000000E+00  0.00000000000E+00  0.64999999231E+04  0.65000000000E+04  0.10000000000E+01 0.  0.
    9000001   -1    0    0    0    0 -0.00000000000E+00 -0.00000000000E+00 -0.64999999231E+04  0.65000000000E+04  0.10000000000E+01 0.  0.
    9000001    1    1    2    0    0  0.28586982860E+04 -0.88517921614E+03 -0.57701213909E+04  0.65000000000E+04  0.10000000000E+01 0.  0.
    9000001    1    1    2    0    0 -0.28586982860E+04  0.88517921614E+03  0.57701213909E+04  0.65000000000E+04  0.10000000000E+01 0.  0.
</event>
<event>
 4    1  0.2193160E-006  0.1300000E+05  0.7957747E-01  0.1322471E+00
    9000001   -1    0    0    0    0  0.00000000000E+00  0.00000000000E+00  0.64999999231E+04  0.65000000000E+04  0.10000000000E+01 0.  0.
    9000001   -1    0    0    0    0 -0.00000000000E+00 -0.00000000000E+00 -0.64999999231E+04  0.65000000000E+04  0.10000000000E+01 0.  0.
    9000001    1    1    2    0    0 -0.17724793731E+04 -0.41870363536E+04  0.46451095192E+04  0.65000000000E+04  0.10000000000E+01 0.  0.
    9000001    1    1    2    0    0  0.17724793731E+04  0.41870363536E+04 -0.46451095192E+04  0.65000000000E+04  0.10000000000E+01 0.  0.
</event>
<event>
 4    1  0.2193160E-006  0.1300000E+05  0.7957747E-01  0.1322471E+00
    9000001   -1    0    0    0    0  0.00000000000E+00  0.00000000000E+00  0.64999999231E+04  0.65000000000E+04  0.10000000000E+01 0.  0.
    9000001   -1    0    0    0    0 -0.00000000000E+00 -0.00000000000E+00 -0.64999999231E+04  0.65000000000E+04  0.10000000000E+01 0.  0.
    9000001    1    1    2    0    0 -0.56345928631E+04 -0.29027264924E+04  0.14406738622E+04  0.65000000000E+04  0.10000000000E+01 0.  0.
    9000001    1    1    2    0    0  0.56345928631E+04  0.29027264924E+04 -0.14406738622E+04  0.65000000000E+04  0.10000000000E+01 0.  0.
</event>
<event>
 4    1  0.2193160E-006  0.1300000E+05  0.7957747E-01  0.1322471E+00
    9000001   -1    0    0    0    0  0.00000000000E+00  0.00000000000E+00  0.64999999231E+04  0.65000000000E+04  0.10000000000E+01 0.  0.
    9000001   -1    0    0    0    0 -0.00000000000E+00 -0.00000000000E+00 -0.64999999231E+04  0.65000000000E+04  0.10000000000E+01 0.  0.
    9000001    1    1    2    0    0 -0.51528810522E+04  0.19196181325E+04  0.34659604855E+04  0.65000000000E+04  0.10000000000E+01 0.  0.
    9000001    1    1    2    0    0  0.51528810522E+04 -0.19196181325E+04 -0.34659604855E+04  0.65000000000E+04  0.10000000000E+01 0.  0.
</event>
<event>
 4    1  0.2193160E-006  0.1300000E+05  0.7957747E-01  0.1322471E+00
    9000001   -1    0    0    0    0  0.00000000000E+00  0.00000000000E+00  0.64999999231E+04  0.65000000000E+04  0.10000000000E+01 0.  0.
    9000001   -1    0    0    0    0 -0.00000000000E+00 -0.00000000000E+00 -0.64999999231E+04  0.65000000000E+04  0.10000000000E+01 0.  0.
    9000001    1    1    2    0    0 -0.85713760027E+03 -0.35242934098E+03 -0.64335921299E+04  0.65000000000E+04  0.10000000000E+01 0.  0.
    9000001    1    1    2    0    0  0.85713760027E+03  0.35242934098E+03  0.64335921299E+04  0.65000000000E+04  0.10000000000E+01 0.  0.
</event>
<event>
 4    1  0.2193160E-006  0.1300000E+05  0.7957747E-01  0.1322471E+00
    9000001   -1    0    0    0    0  0.00000000000E+00  0.00000000000E+00  0.64999999231E+04  0.65000000000E+04  0.10000000000E+01 0.  0.
    9000001   -1    0    0    0    0 -0.00000000000E+00 -0.00000000000E+00 -0.64999999231E+04  0.65000000000E+04  0.10000000000E+01 0.  0.
    9000001    1    1    2    0    0 -0.26135237118E+04 -0.58481741535E+04  0.11037897801E+04  0.65000000000E+04  0.10000000000E+01 0.  0.
    9000001    1    1    2    0    0  0.26135237118E+04  0.58481741535E+04 -0.11037897801E+04  0.65000000000E+04  0.10000000000E+01 0.  0.
</event>
<event>
 4    1  0.2193160E-006  0.1300000E+05  0.7957747E-01  0.1322471E+00
    9000001   -1    0    0    0    0  0.00000000000E+00  0.00000000000E+00  0.64999999231E+04  0.65000000000E+04  0.10000000000E+01 0.  0.
    9000001   -1    0    0    0    0 -0.00000000000E+00 -0.00000000000E+00 -0.64999999231E+04  0.65000000000E+04  0.10000000000E+01 0.  0.
    9000001    1    1    2    0    0 -0.59965825911E+04  0.24157021088E+04  0.67481816055E+03  0.65000000000E+04  0.10000000000E+01 0.  0.
    9000001    1    1    2    0    0  0.59965825911E+04 -0.24157021088E+04 -0.67481816055E+03  0.65000000000E+04  0.10000000000E+01 0.  0.
</event>
<event>
 4    1  0.2193160E-006  0.1300000E+05  0.7957747E-01  0.1322471E+00
    9000001   -1    0    0    0    0  0.00000000000E+00  0.00000000000E+00  0.64999999231E+04  0.65000000000E+04  0.10000000000E+01 0.  0.
    9000001   -1    0    0    0    0 -0.00000000000E+00 -0.00000000000E+00 -0.64999999231E+04  0.65000000000E+04  0.10000000000E+01 0.  0.
    9000001    1    1    2    0    0  0.17814780142E+04  0.62358957021E+04 -0.43582092275E+03  0.65000000000E+04  0.10000000000E+01 0.  0.
    9000001    1    1    2    0    0 -0.17814780142E+04 -0.62358957021E+04  0.43582092275E+03  0.65000000000E+04  0.10000000000E+01 0.  0.
</event>
<event>
 4    1  0.2193160E-006  0.1300000E+05  0.7957747E-01  0.1322471E+00
    9000001   -1    0    0    0    0  0.00000000000E+00  0.00000000000E+00  0.64999999231E+04  0.65000000000E+04  0.10000000000E+01 0.  0.
    9000001   -1    0    0    0    0 -0.00000000000E+00 -0.00000000000E+00 -0.64999999231E+04  0.65000000000E+04  0.10000000000E+01 0.  0.
    9000001    1    1    2    0    0 -0.44991037704E+04 -0.91165389027E+03 -0.46018421798E+04  0.65000000000E+04  0.10000000000E+01 0.  0.
    9000001    1    1    2    0    0  0.44991037704E+04  0.91165389027E+03  0.46018421798E+04  0.65000000000E+04  0.10000000000E+01 0.  0.
</event>
<event>
 4    1  0.2193160E-006  0.1300000E+05  0.7957747E-01  0.1322471E+00
    9000001   -1    0    0    0    0  0.00000000000E+00  0.00000000000E+00  0.64999999231E+04  0.65000000000E+04  0.10000000000E+01 0.  0.
    9000001   -1    0    0    0    0 -0.00000000000E+00 -0.00000000000E+00 -0.64999999231E+04  0.65000000000E+04  0.10000000000E+01 0.  0.
    9000001    1    1    2    0    0 -0.62816455575E+04 -0.23936646245E+03 -0.16533698277E+04  0.65000000000E+04  0.10000000000E+01 0.  0.
    9000001    1    1    2    0    0  0.62816455575E+04  0.23936646245E+03  0.16533698277E+04  0.65000000000E+04  0.10000000000E+01 0.  0.
</event>
<event>
 4    1  0.2193160E-006  0.1300000E+05  0.7957747E-01  0.1322471E+00
    9000001   -1    0    0    0    0  0.00000000000E+00  0.00000000000E+00  0.64999999231E+04  0.65000000000E+04  0.10000000000E+01 0.  0.
    9000001   -1    0    0    0    0 -0.00000000000E+00 -0.00000000000E+00 -0.64999999231E+04  0.65000000000E+04  0.10000000000E+01 0.  0.
    9000001    1    1    2    0    0 -0.63098683557E+04  0.13452617082E+04 -0.79109498190E+03  0.65000000000E+04  0.10000000000E+01 0.  0.
    9000001    1    1    2    0    0  0.63098683557E+04 -0.13452617082E+04  0.79109498190E+03  0.65000000000E+04  0.10000000000E+01 0.  0.
</event>
<event>
 4    1  0.2193160E-006  0.1300000E+05  0.7957747E-01  0.1322471E+00
    9000001   -1    0    0    0    0  0.00000000000E+00  0.00000000000E+00  0.64999999231E+04  0.65000000000E+04  0.10000000000E+01 0.  0.
    9000001   -1    0    0    0    0 -0.00000000000E+00 -0.00000000000E+00 -0.64999999231E+04  0.65000000000E+04  0.10000000000E+01 0.  0.
    9000001    1    1    2    0    0 -0.46810030918E+04 -0.39666160629E+04  0.21457320578E+04  0.65000000000E+04  0.10000000000E+01 0.  0.
    9000001    1    1    2    0    0  0.46810030918E+04  0.39666160629E+04 -0.21457320578E+04  0.65000000000E+04  0.10000000000E+01 0.  0.
</event>
<event>
 4    1  0.2193160E-006  0.1300000E+05  0.7957747E-01  0.1322471E+00
    9000001   -1    0    0    0    0  0.00000000000E+00  0.00000000000E+00  0.64999999231E+04  0.65000000000E+04  0.10000000000E+01 0.  0.
    9000001   -1    0    0    0    0 -0.00000000000E+00 -0.00000000000E+00 -0.64999999231E+04  0.65000000000E+04  0.10000000000E+01 0.  0.
    9000001    1    1    2    0    0  0.59718320777E+04 -0.19644807306E+04 -0.16516767524E+04  0.65000000000E+04  0.10000000000E+01 0.  0.
    9000001    1    1    2    0    0 -0.59718320777E+04  0.19644807306E+04  0.16516767524E+04  0.65000000000E+04  0.10000000000E+01 0.  0.
</event>
<event>
 4    1  0.2193160E-006  0.1300000E+05  0.7957747E-01  0.1322471E+00
    9000001   -1    0    0    0    0  0.00000000000E+00  0.00000000000E+00  0.64999999231E+04  0.65000000000E+04  0.10000000000E+01 0.  0.
    9000001   -1    0    0    0    0 -0.00000000000E+00 -0.00000000000E+00 -0.64999999231E+04  0.65000000000E+04  0.10000000000E+01 0.  0.
    9000001    1    1    2    0    0  0.59577691471E+04  0.74552428587E+03 -0.24898151195E+04  0.65000000000E+04  0.10000000000E+01 0.  0.
    9000001    1    1    2    0    0 -0.59577691471E+04 -0.74552428587E+03  0.24898151195E+04  0.65000000000E+04  0.10000000000E+01 0.  0.
</event>
<event>
 4    1  0.2193160E-006  0.1300000E+05  0.7957747E-01  0.1322471E+00
    9000001   -1    0    0    0    0  0.00000000000E+00  0.00000000000E+00  0.64999999231E+04  0.65000000000E+04  0.10000000000E+01 0.  0.
    9000001   -1    0    0    0    0 -0.00000000000E+00 -0.00000000000E+00 -0.64999999231E+04  0.65000000000E+04  0.10000000000E+01 0.  0.
    9000001    1    1    2    0    0 -0.35521627670E+04  0.21418973467E+04 -0.50044394724E+04  0.65000000000E+04  0.10000000000E+01 0.  0.
    9000001    1    1    2    0    0  0.35521627670E+04 -0.21418973467E+04  0.50044394724E+04  0.65000000000E+04  0.10000000000E+01 0.  0.
</event>
<event>
 4    1  0.2193160E-006  0.1300000E+05  0.7957747E-01  0.1322471E+00
    9000001   -1    0    0    0    0  0.00000000000E+00  0.00000000000E+00  0.64999999231E+04  0.65000000000E+04  0.10000000000E+01 0.  0.
    9000001   -1    0    0    0    0 -0.00000000000E+00 -0.00000000000E+00 -0.64999999231E+04  0.65000000000E+04  0.10000000000E+01 0.  0.
    9000001    1    1    2    0    0 -0.18656070689E+04 -0.60506060357E+04  0.14695835689E+04  0.65000000000E+04  0.10000000000E+01 0.  0.
    9000001    1    1    2    0    0  0.18656070689E+04  0.60506060357E+04 -0.14695835689E+04  0.65000000000E+04  0.10000000000E+01 0.  0.
</event>
<event>
 4    1  0.2193160E-006  0.1300000E+05  0.7957747E-01  0.1322471E+00
    9000001   -1    0    0    0    0  0.00000000000E+00  0.00000000000E+00  0.64999999231E+04  0.65000000000E+04  0.10000000000E+01 0.  0.
    9000001   -1    0    0    0    0 -0.00000000000E+00 -0.00000000000E+00 -0.64999999231E+04  0.65000000000E+04  0.10000000000E+01 0.  0.
    9000001    1    1    2    0    0 -0.17781411676E+04  0.54159259431E+04 -0.31234530838E+04  0.65000000000E+04  0.10000000000E+01 0.  0.
    9000001    1    1    2    0    0  0.17781411676E+04 -0.54159259431E+04  0.31234530838E+04  0.65000000000E+04  0.10000000000E+01 0.  0.
</event>
<event>
 4    1  0.2193160E-006  0.1300000E+05  0.7957747E-01  0.1322471E+00
    9000001   -1    0    0    0    0  0.00000000000E+00  0.00000000000E+00  0.64999999231E+04  0.65000000000E+04  0.10000000000E+01 0.  0.
    9000001   -1    0    0    0    0 -0.00000000000E+00 -0.00000000000E+00 -0.64999999231E+04  0.65000000000E+04  0.10000000000E+01 0.  0.
    9000001    1    1    2    0    0  0.70483442275E+03 -0.64686750934E+03 -0.64292122272E+04  0.65000000000E+04  0.10000000000E+01 0.  0.
    9000001    1    1    2    0    0 -0.70483442275E+03  0.64686750934E+03  0.64292122272E+04  0.65000000000E+04  0.10000000000E+01 0.  0.
</event>
<event>
 4    1  0.2193160E-006  0.1300000E+05  0.7957747E-01  0.1322471E+00
    9000001   -1    0    0    0    0  0.00000000000E+00  0.00000000000E+00  0.64999999231E+04  0.65000000000E+04  0.10000000000E+01 0.  0.
    9000001   -1    0    0    0    0 -0.00000000000E+00 -0.00000000000E+00 -0.64999999231E+04  0.65000000000E+04  0.10000000000E+01 0.  0.
    9000001    1    1    2    0    0 -0.15602093903E+04  0.62412355631E+04  0.92882953447E+03  0.65000000000E+04  0.10000000000E+01 0.  0.
    9000001    1    1    2    0    0  0.15602093903E+04 -0.62412355631E+04 -0.92882953447E+03  0.65000000000E+04  0.10000000000E+01 0.  0.
</event>
<event>
 4    1  0.2193160E-006  0.1300000E+05  0.7957747E-01  0.1322471E+00
    9000001   -1    0    0    0    0  0.00000000000E+00  0.00000000000E+00  0.64999999231E+04  0.65000000000E+04  0.10000000000E+01 0.  0.
    9000001   -1    0    0    0    0 -0.00000000000E+00 -0.00000000000E+00 -0.64999999231E+04  0.65000000000E+04  0.10000000000E+01 0.  0.
    9000001    1    1    2    0    0  0.23831073737E+04 -0.60381512048E+04  0.33395849078E+03  0.65000000000E+04  0.10000000000E+01 0.  0.
    9000001    1    1    2    0    0 -0.23831073737E+04  0.60381512048E+04 -0.33395849078E+03  0.65000000000E+04  0.10000000000E+01 0.  0.
</event>
<event>
 4    1  0.2193160E-006  0.1300000E+05  0.7957747E-01  0.1322471E+00
    9000001   -1    0    0    0    0  0.00000000000E+00  0.00000000000E+00  0.64999999231E+04  0.65000000000E+04  0.10000000000E+01 0.  0.
    9000001   -1    0    0    0    0 -0.00000000000E+00 -0.00000000000E+00 -0.64999999231E+04  0.65000000000E+04  0.10000000000E+01 0.  0.
    9000001    1    1    2    0    0 -0.25621097834E+04 -0.30686665606E+04  0.51253173558E+04  0.65000000000E+04  0.10000000000E+01 0.  0.
    9000001    1    1    2    0    0  0.25621097834E+04  0.30686665606E+04 -0.51253173558E+04  0.65000000000E+04  0.10000000000E+01 0.  0.
</event>
<event>
 4    1  0.2193160E-006  0.1300000E+05  0.7957747E-01  0.1322471E+00
    9000001   -1    0    0    0    0  0.00000000000E+00  0.00000000000E+00  0.64999999231E+04  0.65000000000E+04  0.10000000000E+01 0.  0.
    9000001   -1    0    0    0    0 -0.00000000000E+00 -0.00000000000E+00 -0.64999999231E+04  0.65000000000E+04  0.10000000000E+01 0.  0.
    9000001    1    1    2    0    0 -0.44037022066E+04 -0.46485993056E+04 -0.11171080394E+04  0.65000000000E+04  0.10000000000E+01 0.  0.
    9000001    1    1    2    0    0  0.44037022066E+04  0.46485993056E+04  0.11171080394E+04  0.65000000000E+04  0.10000000000E+01 0.  0.
</event>
<event>
 4    1  0.2193160E-006  0.1300000E+05  0.7957747E-01  0.1322471E+00
    9000001   -1    0    0    0    0  0.00000000000E+00  0.00000000000E+00  0.64999999231E+04  0.65000000000E+04  0.10000000000E+01 0.  0.
    9000001   -1    0    0    0    0 -0.00000000000E+00 -0.00000000000E+00 -0.64999999231E+04  0.65000000000E+04  0.10000000000E+01 0.  0.
    9000001    1    1    2    0    0 -0.16021538765E+03 -0.62466745982E+04  0.17898006854E+04  0.65000000000E+04  0.10000000000E+01 0.  0.
    9000001    1    1    2    0    0  0.16021538765E+03  0.62466745982E+04 -0.17898006854E+04  0.65000000000E+04  0.10000000000E+01 0.  0.
</event>
<event>
 4    1  0.2193160E-006  0.1300000E+05  0.7957747E-01  0.1322471E+00
    9000001   -1    0    0    0    0  0.00000000000E+00  0.00000000000E+00  0.64999999231E+04  0.65000000000E+04  0.10000000000E+01 0.  0.
    9000001   -1    0    0    0    0 -0.00000000000E+00 -0.00000000000E+00 -0.64999999231E+04  0.65000000000E+04  0.10000000000E+01 0.  0.
    9000001    1    1    2    0    0  0.35077421764E+04 -0.49648329448E+04  0.23013425763E+04  0.65000000000E+04  0.10000000000E+01 0.  0.
    9000001    1    1    2    0    0 -0.35077421764E+04  0.49648329448E+04 -0.23013425763E+04  0.65000000000E+04  0.10000000000E+01 0.  0.
</event>
<event>
 4    1  0.2193160E-006  0.1300000E+05  0.7957747E-01  0.1322471E+00
    9000001   -1    0    0    0    0  0.00000000000E+00  0.00000000000E+00  0.64999999231E+04  0.65000000000E+04  0.10000000000E+01 0.  0.
    9000001   -1    0    0    0    0 -0.00000000000E+00 -0.00000000000E+00 -0.64999999231E+04  0.65000000000E+04  0.10000000000E+01 0.  0.
    9000001    1    1    2    0    0 -0.21033362672E+04 -0.48776209931E+04  0.37463033773E+04  0.65000000000E+04  0.10000000000E+01 0.  0.
    9000001    1    1    2    0    0  0.21033362672E+04  0.48776209931E+04 -0.37463033773E+04  0.65000000000E+04  0.10000000000E+01 0.  0.
</event>
<event>
 4    1  0.2193160E-006  0.1300000E+05  0.7957747E-01  0.1322471E+00
    9000001   -1    0    0    0    0  0.00000000000E+00  0.00000000000E+00  0.64999999231E+04  0.65000000000E+04  0.10000000000E+01 0.  0.
    9000001   -1    0    0    0    0 -0.00000000000E+00 -0.00000000000E+00 -0.64999999231E+04  0.65000000000E+04  0.10000000000E+01 0.  0.
    9000001    1    1    2    0    0  0.63746280746E+04 -0.12106651372E+04 -0.38523478058E+03  0.65000000000E+04  0.10000000000E+01 0.  0.
    9000001    1    1    2    0    0 -0.63746280746E+04  0.12106651372E+04  0.38523478058E+03  0.65000000000E+04  0.10000000000E+01 0.  0.
</event>
<event>
 4    1  0.2193160E-006  0.1300000E+05  0.7957747E-01  0.1322471E+00
    9000001   -1    0    0    0    0  0.00000000000E+00  0.00000000000E+00  0.64999999231E+04  0.65000000000E+04  0.10000000000E+01 0.  0.
    9000001   -1    0    0    0    0 -0.00000000000E+00 -0.00000000000E+00 -0.64999999231E+04  0.65000000000E+04  0.10000000000E+01 0.  0.
    9000001    1    1    2    0    0  0.19446319800E+03  0.34411605086E+04 -0.55109524965E+04  0.65000000000E+04  0.10000000000E+01 0.  0.
    9000001    1    1    2    0    0 -0.19446319800E+03 -0.34411605086E+04  0.55109524965E+04  0.65000000000E+04  0.10000000000E+01 0.  0.
</event>
<event>
 4    1  0.2193160E-006  0.1300000E+05  0.7957747E-01  0.1322471E+00
    9000001   -1    0    0    0    0  0.00000000000E+00  0.00000000000E+00  0.64999999231E+04  0.65000000000E+04  0.10000000000E+01 0.  0.
    9000001   -1    0    0    0    0 -0.00000000000E+00 -0.00000000000E+00 -0.64999999231E+04  0.65000000000E+04  0.10000000000E+01 0.  0.
    9000001    1    1    2    0    0 -0.24792023213E+03  0.10101958854E+04 -0.64162324484E+04  0.65000000000E+04  0.10000000000E+01 0.  0.
    9000001    1    1    2    0    0  0.24792023213E+03 -0.10101958854E+04  0.64162324484E+04  0.65000000000E+04  0.10000000000E+01 0.  0.
</event>
<event>
 4    1  0.2193160E-006  0.1300000E+05  0.7957747E-01  0.1322471E+00
    9000001   -1    0    0    0    0  0.00000000000E+00  0.00000000000E+00  0.64999999231E+04  0.65000000000E+04  0.10000000000E+01 0.  0.
    9000001   -1    0    0    0    0 -0.00000000000E+00 -0.00000000000E+00 -0.64999999231E+04  0.65000000000E+04  0.10000000000E+01 0.  0.
    9000001    1    1    2    0    0 -0.10809314536E+04 -0.13366164066E+04 -0.62685758171E+04  0.65000000000E+04  0.10000000000E+01 0.  0.
    9000001    1    1    2    0    0  0.10809314536E+04  0.13366164066E+04  0.62685758171E+04  0.65000000000E+04  0.10000000000E+01 0.  0.
</event>
<event>
 4    1  0.2193160E-006  0.1300000E+05  0.7957747E-01  0.1322471E+00
    9000001   -1    0    0    0    0  0.00000000000E+00  0.00000000000E+00  0.64999999231E+04  0.65000000000E+04  0.10000000000E+01 0.  0.
    9000001   -1    0    0    0    0 -0.00000000000E+00 -0.00000000000E+00 -0.64999999231E+04  0.65000000000E+04  0.10000000000E+01 0.  0.
    9000001    1    1    2    0    0  0.41780855992E+04  0.27883751835E+04 -0.41253561740E+04  0.65000000000E+04  0.10000000000E+01 0.  0.
    9000001    1    1    2    0    0 -0.41780855992E+04 -0.27883751835E+04  0.41253561740E+04  0.65000000000E+04  0.10000000000E+01 0.  0.
</event>
<event>
 4    1  0.2193160E-006  0.1300000E+05  0.7957747E-01  0.1322471E+00
    9000001   -1    0    0    0    0  0.00000000000E+00  0.00000000000E+00  0.64999999231E+04  0.65000000000E+04  0.10000000000E+01 0.  0.
    9000001   -1    0    0    0    0 -0.00000000000E+00 -0.00000000000E+00 -0.64999999231E+04  0.65000000000E+04  0.10000000000E+01 0.  0.
    9000001    1    1    2    0    0 -0.32251730026E+04 -0.37400814296E+04  0.42261151195E+04  0.65000000000E+04  0.10000000000E+01 0.  0.
    9000001    1    1    2    0    0  0.32251730026E+04  0.37400814296E+04 -0.42261151195E+04  0.65000000000E+04  0.10000000000E+01 0.  0.
</event>
<event>
 4    1  0.2193160E-006  0.1300000E+05  0.7957747E-01  0.1322471E+00
    9000001   -1    0    0    0    0  0.00000000000E+00  0.00000000000E+00  0.64999999231E+04  0.65000000000E+04  0.10000000000E+01 0.  0.
    9000001   -1    0    0    0    0 -0.00000000000E+00 -0.00000000000E+00 -0.64999999231E+04  0.65000000000E+04  0.10000000000E+01 0.  0.
    9000001    1    1    2    0    0 -0.17649295573E+04  0.27498894025E+04  0.56189973244E+04  0.65000000000E+04  0.10000000000E+01 0.  0.
    9000001    1    1    2    0    0  0.17649295573E+04 -0.27498894025E+04 -0.56189973244E+04  0.65000000000E+04  0.10000000000E+01 0.  0.
</event>
<event>
 4    1  0.2193160E-006  0.1300000E+05  0.7957747E-01  0.1322471E+00
    9000001   -1    0    0    0    0  0.00000000000E+00  0.00000000000E+00  0.64999999231E+04  0.65000000000E+04  0.10000000000E+01 0.  0.
    9000001   -1    0    0    0    0 -0.00000000000E+00 -0.00000000000E+00 -0.64999999231E+04  0.65000000000E+04  0.10000000000E+01 0.  0.
    9000001    1    1    2    0    0 -0.17800029703E+04 -0.62295366546E+04 -0.52389072755E+03  0.65000000000E+04  0.10000000000E+01 0.  0.
    9000001    1    1    2    0    0  0.17800029703E+04  0.62295366546E+04  0.52389072755E+03  0.65000000000E+04  0.10000000000E+01 0.  0.
</event>
<event>
 4    1  0.2193160E-006  0.1300000E+05  0.7957747E-01  0.1322471E+00
    9000001   -1    0    0    0    0  0.00000000000E+00  0.00000000000E+00  0.64999999231E+04  0.65000000000E+04  0.10000000000E+01 0.  0.
    9000001   -1    0    0    0    0 -0.00000000000E+00 -0.00000000000E+00 -0.64999999231E+04  0.65000000000E+04  0.10000000000E+01 0.  0.
    9000001    1    1    2    0    0  0.51392909996E+04 -0.88673551919E+03 -0.38796117254E+04  0.65000000000E+04  0.10000000000E+01 0.  0.
    9000001    1    1    2    0    0 -0.51392909996E+04  0.88673551919E+03  0.38796117254E+04  0.65000000000E+04  0.10000000000E+01 0.  0.
</event>
<event>
 4    1  0.2193160E-006  0.1300000E+05  0.7957747E-01  0.1322471E+00
    9000001   -1    0    0    0    0  0.00000000000E+00  0.00000000000E+00  0.64999999231E+04  0.65000000000E+04  0.10000000000E+01 0.  0.
    9000001   -1    0    0    0    0 -0.00000000000E+00 -0.00000000000E+00 -0.64999999231E+04  0.65000000000E+04  0.10000000000E+01 0.  0.
    9000001    1    1    2    0    0 -0.37553465122E+03 -0.64242562661E+04 -0.91537104697E+03  0.65000000000E+04  0.10000000000E+01 0.  0.
    9000001    1    1    2    0    0  0.37553465122E+03  0.64242562661E+04  0.91537104697E+03  0.65000000000E+04  0.10000000000E+01 0.  0.
</event>
<event>
 4    1  0.2193160E-006  0.1300000E+05  0.7957747E-01  0.1322471E+00
    9000001   -1    0    0    0    0  0.00000000000E+00  0.00000000000E+00  0.64999999231E+04  0.65000000000E+04  0.10000000000E+01 0.  0.
    9000001   -1    0    0    0    0 -0.00000000000E+00 -0.00000000000E+00 -0.64999999231E+04  0.65000000000E+04  0.10000000000E+01 0.  0.
    9000001    1    1    2    0    0 -0.19435620826E+04  0.20456810999E+04 -0.58555746318E+04  0.65000000000E+04  0.10000000000E+01 0.  0.
    9000001    1    1    2    0    0  0.19435620826E+04 -0.20456810999E+04  0.58555746318E+04  0.65000000000E+04  0.10000000000E+01 0.  0.
</event>
<event>
 4    1  0.2193160E-006  0.1300000E+05  0.7957747E-01  0.1322471E+00
    9000001   -1    0    0    0    0  0.00000000000E+00  0.00000000000E+00  0.64999999231E+04  0.65000000000E+04  0.10000000000E+01 0.  0.
    9000001   -1    0    0    0    0 -0.00000000000E+00 -0.00000000000E+00 -0.64999999231E+04  0.65000000000E+04  0.10000000000E+01 0.  0.
    9000001    1    1    2    0    0 -0.29327563375E+04  0.12160796697E+04  0.56718682550E+04  0.65000000000E+04  0.10000000000E+01 0.  0.
    9000001    1    1    2    0    0  0.29327563375E+04 -0.12160796697E+04 -0.56718682550E+04  0.65000000000E+04  0.10000000000E+01 0.  0.
</event>
<event>
 4    1  0.2193160E-006  0.1300000E+05  0.7957747E-01  0.1322471E+00
    9000001   -1    0    0    0    0  0.00000000000E+00  0.00000000000E+00  0.64999999231E+04  0.65000000000E+04  0.10000000000E+01 0.  0.
    9000001   -1    0    0    0    0 -0.00000000000E+00 -0.00000000000E+00 -0.64999999231E+04  0.65000000000E+04  0.10000000000E+01 0.  0.
    9000001    1    1    2    0    0 -0.31869857856E+04  0.54021971127E+04 -0.17056925155E+04  0.65000000000E+04  0.10000000000E+01 0.  0.
    9000001    1    1    2    0    0  0.31869857856E+04 -0.54021971127E+04  0.17056925155E+04  0.65000000000E+04  0.10000000000E+01 0.  0.
</event>
<event>
 4    1  0.2193160E-006  0.1300000E+05  0.7957747E-01  0.1322471E+00
    9000001   -1    0    0    0    0  0.00000000000E+00  0.00000000000E+00  0.64999999231E+04  0.65000000000E+04  0.10000000000E+01 0.  0.
    9000001   -1    0    0    0    0 -0.00000000000E+00 -0.00000000000E+00 -0.64999999231E+04  0.65000000000E+04  0.10000000000E+01 0.  0.
    9000001    1    1    2    0    0  0.22290390841E+04 -0.24399699002E+04  0.55971359326E+04  0.65000000000E+04  0.10000000000E+01 0.  0.
    9000001    1    1    2    0    0 -0.22290390841E+04  0.24399699002E+04 -0.55971359326E+04  0.65000000000E+04  0.10000000000E+01 0.  0.
</event>
<event>
 4    1  0.2193160E-006  0.1300000E+05  0.7957747E-01  0.1322471E+00
    9000001   -1    0    0    0    0  0.00000000000E+00  0.00000000000E+00  0.64999999231E+04  0.65000000000E+04  0.10000000000E+01 0.  0.
    9000001   -1    0    0    0    0 -0.00000000000E+00 -0.00000000000E+00 -0.64999999231E+04  0.65000000000E+04  0.10000000000E+01 0.  0.
    9000001    1    1    2    0    0  0.10597316046E+04 -0.48968166142E+04 -0.41410330805E+04  0.65000000000E+04  0.10000000000E+01 0.  0.
    9000001    1    1    2    0    0 -0.10597316046E+04  0.48968166142E+04  0.41410330805E+04  0.65000000000E+04  0.10000000000E+01 0.  0.
</event>
<event>
 4    1  0.2193160E-006  0.1300000E+05  0.7957747E-01  0.1322471E+00
    9000001   -1    0    0    0    0  0.00000000000E+00  0.00000000000E+00  0.64999999231E+04  0.65000000000E+04  0.10000000000E+01 0.  0.
    9000001   -1    0    0    0    0 -0.00000000000E+00 -0.00000000000E+00 -0.64999999231E+04  0.65000000000E+04  0.10000000000E+01 0.  0.
    9000001    1    1    2    0    0 -0.10907907803E+04 -0.62345324864E+04 -0.14801280856E+04  0.65000000000E+04  0.10000000000E+01 0.  0.
    9000001    1    1    2    0    0  0.10907907803E+04  0.62345324864E+04  0.14801280856E+04  0.65000000000E+04  0.10000000000E+01 0.  0.
</event>
<event>
 4    1  0.2193160E-006  0.1300000E+05  0.7957747E-01  0.1322471E+00
    9000001   -1    0    0    0    0  0.00000000000E+00  0.00000000000E+00  0.64999999231E+04  0.65000000000E+04  0.10000000000E+01 0.  0.
    9000001   -1    0    0    0    0 -0.00000000000E+00 -0.00000000000E+00 -0.64999999231E+04  0.65000000000E+04  0.10000000000E+01 0.  0.
    9000001    1    1    2    0    0  0.76401812635E+03 -0.64232667544E+04  0.63868576345E+03  0.65000000000E+04  0.10000000000E+01 0.  0.
    9000001    1    1    2    0    0 -0.76401812635E+03  0.64232667544E+04 -0.63868576345E+03  0.65000000000E+04  0.10000000000E+01 0.  0.
</event>
<event>
 4    1  0.2193160E-006  0.1300000E+05  0.7957747E-01  0.1322471E+00
    9000001   -1    0    0    0    0  0.00000000000E+00  0.00000000000E+00  0.64999999231E+04  0.65000000000E+04  0.10000000000E+01 0.  0.
    9000001   -1    0    0    0    0 -0.00000000000E+00 -0.00000000000E+00 -0.64999999231E+04  0.65000000000E+04  0.10000000000E+01 0.  0.
    9000001    1    1    2    0    0  0.30797648308E+04  0.57211967222E+04  0.18153691810E+03  0.65000000000E+04  0.10000000000E+01 0.  0.
    9000001    1    1    2    0    0 -0.30797648308E+04 -0.57211967222E+04 -0.18153691810E+03  0.65000000000E+04  0.10000000000E+01 0.  0.
</event>
<event>
 4    1  0.2193160E-006  0.1300000E+05  0.7957747E-01  0.1322471E+00
    9000001   -1    0    0    0    0  0.00000000000E+00  0.00000000000E+00  0.64999999231E+04  0.65000000000E+04  0.10000000000E+01 0.  0.
    9000001   -1    0    0    0    0 -0.00000000000E+00 -0.00000000000E+00 -0.64999999231E+04  0.65000000000E+04  0.10000000000E+01 0.  0.
    9000001    1    1    2    0    0  0.47073473547E+04  0.25427153630E+04 -0.36912705759E+04  0.65000000000E+04  0.10000000000E+01 0.  0.
    9000001    1    1    2    0    0 -0.47073473547E+04 -0.25427153630E+04  0.36912705759E+04  0.65000000000E+04  0.10000000000E+01 0.  0.
</event>
<event>
 4    1  0.2193160E-006  0.1300000E+05  0.7957747E-01  0.1322471E+00
    9000001   -1    0    0    0    0  0.00000000000E+00  0.00000000000E+00  0.64999999231E+04  0.65000000000E+04  0.10000000000E+01 0.  0.
    9000001   -1    0    0    0    0 -0.00000000000E+00 -0.00000000000E+00 -0.64999999231E+04  0.65000000000E+04  0.10000000000E+01 0.  0.
    9000001    1    1    2    0    0 -0.61795240383E+04 -0.16022595627E+04  0.12232113285E+04  0.65000000000E+04  0.10000000000E+01 0.  0.
    9000001    1    1    2    0    0  0.61795240383E+04  0.16022595627E+04 -0.12232113285E+04  0.65000000000E+04  0.10000000000E+01 0.  0.
</event>
<event>
 4    1  0.2193160E-006  0.1300000E+05  0.7957747E-01  0.1322471E+00
    9000001   -1    0    0    0    0  0.00000000000E+00  0.00000000000E+00  0.64999999231E+04  0.65000000000E+04  0.10000000000E+01 0.  0.
    9000001   -1    0    0    0    0 -0.00000000000E+00 -0.00000000000E+00 -0.64999999231E+04  0.65000000000E+04  0.10000000000E+01 0.  0.
    9000001    1    1    2    0    0  0.53450126597E+04 -0.19750299060E+04  0.31273144291E+04  0.65000000000E+04  0.10000000000E+01 0.  0.
    9000001    1    1    2    0    0 -0.53450126597E+04  0.19750299060E+04 -0.31273144291E+04  0.65000000000E+04  0.10000000000E+01 0.  0.
</event>
<event>
 4    1  0.2193160E-006  0.1300000E+05  0.7957747E-01  0.1322471E+00
    9000001   -1    0    0    0    0  0.00000000000E+00  0.00000000000E+00  0.64999999231E+04  0.65000000000E+04  0.10000000000E+01 0.  0.
    9000001   -1    0    0    0    0 -0.00000000000E+00 -0.00000000000E+00 -0.64999999231E+04  0.65000000000E+04  0.10000000000E+01 0.  0.
    9000001    1    1    2    0    0 -0.20792555611E+04 -0.48288155351E+04 -0.38222030086E+04  0.65000000000E+04  0.10000000000E+01 0.  0.
    9000001    1    1    2    0    0  0.20792555611E+04  0.48288155351E+04  0.38222030086E+04  0.65000000000E+04  0.10000000000E+01 0.  0.
</event>
<event>
 4    1  0.2193160E-006  0.1300000E+05  0.7957747E-01  0.1322471E+00
    9000001   -1    0    0    0    0  0.00000000000E+00  0.00000000000E+00  0.64999999231E+04  0.65000000000E+04  0.10000000000E+01 0.  0.
    9000001   -1    0    0    0    0 -0.00000000000E+00 -0.00000000000E+00 -0.64999999231E+04  0.65000000000E+04  0.10000000000E+01 0.  0.
    9000001    1    1    2    0    0 -0.33629642371E+04  0.51823499645E+04  0.20208214630E+04  0.65000000000E+04  0.10000000000E+01 0.  0.
    9000001    1    1    2    0    0  0.33629642371E+04 -0.51823499645E+04 -0.20208214630E+04  0.65000000000E+04  0.10000000000E+01 0.  0.
</event>
<event>
 4    1  0.2193160E-006  0.1300000E+05  0.7957747E-01  0.1322471E+00
    9000001   -1    0    0    0    0  0.00000000000E+00  0.00000000000E+00  0.64999999231E+04  0.65000000000E+04  0.10000000000E+01 0.  0.
    9000001   -1    0    0    0    0 -0.00000000000E+00 -0.00000000000E+00 -0.64999999231E+04  0.65000000000E+04  0.10000000000E+01 0.  0.
    9000001    1    1    2    0    0 -0.26363942965E+04  0.48733705980E+04  0.33984824742E+04  0.65000000000E+04  0.10000000000E+01 0.  0.
    9000001    1    1    2    0    0  0.26363942965E+04 -0.48733705980E+04 -0.33984824742E+04  0.65000000000E+04  0.10000000000E+01 0.  0.
</event>
<event>
 4    1  0.2193160E-006  0.1300000E+05  0.7957747E-01  0.1322471E+00
    9000001   -1    0    0    0    0  0.00000000000E+00  0.00000000000E+00  0.64999999231E+04  0.65000000000E+04  0.10000000000E+01 0.  0.
    9000001   -1    0    0    0    0 -0.00000000000E+00 -0.00000000000E+00 -0.64999999231E+04  0.65000000000E+04  0.10000000000E+01 0.  0.
    9000001    1    1    2    0    0 -0.10775728321E+04 -0.59349656712E+04 -0.24217799803E+04  0.65000000000E+04  0.10000000000E+01 0.  0.
    9000001    1    1    2    0    0  0.10775728321E+04  0.59349656712E+04  0.24217799803E+04  0.65000000000E+04  0.10000000000E+01 0.  0.
</event>
<event>
 4    1  0.2193160E-006  0.1300000E+05  0.7957747E-01  0.1322471E+00
    9000001   -1    0    0    0    0  0.00000000000E+00  0.00000000000E+00  0.64999999231E+04  0.65000000000E+04  0.10000000000E+01 0.  0.
    9000001   -1    0    0    0    0 -0.00000000000E+00 -0.00000000000E+00 -0.64999999231E+04  0.65000000000E+04  0.10000000000E+01 0.  0.
    9000001    1    1    2    0    0 -0.17639720810E+04  0.61832548482E+04  0.95171475777E+03  0.65000000000E+04  0.10000000000E+01 0.  0.
    9000001    1    1    2    0    0  0.17639720810E+04 -0.61832548482E+04 -0.95171475777E+03  0.65000000000E+04  0.10000000000E+01 0.  0.
</event>
<event>
 4    1  0.2193160E-006  0.1300000E+05  0.7957747E-01  0.1322471E+00
    9000001   -1    0    0    0    0  0.00000000000E+00  0.00000000000E+00  0.64999999231E+04  0.65000000000E+04  0.10000000000E+01 0.  0.
    9000001   -1    0    0    0    0 -0.00000000000E+00 -0.00000000000E+00 -0.64999999231E+04  0.65000000000E+04  0.10000000000E+01 0.  0.
    9000001    1    1    2    0    0  0.33244594403E+03  0.22629473307E+04  0.60842869815E+04  0.65000000000E+04  0.10000000000E+01 0.  0.
    9000001    1    1    2    0    0 -0.33244594403E+03 -0.22629473307E+04 -0.60842869815E+04  0.65000000000E+04  0.10000000000E+01 0.  0.
</event>
<event>
 4    1  0.2193160E-006  0.1300000E+05  0.7957747E-01  0.1322471E+00
    9000001   -1    0    0    0    0  0.00000000000E+00  0.00000000000E+00  0.64999999231E+04  0.65000000000E+04  0.10000000000E+01 0.  0.
    9000001   -1    0    0    0    0 -0.00000000000E+00 -0.00000000000E+00 -0.64999999231E+04  0.65000000000E+04  0.10000000000E+01 0.  0.
    9000001    1    1    2    0    0  0.50897962672E+03  0.43368951889E+04 -0.48147979044E+04  0.65000000000E+04  0.10000000000E+01 0.  0.
    9000001    1    1    2    0    0 -0.50897962672E+03 -0.43368951889E+04  0.48147979044E+04  0.65000000000E+04  0.10000000000E+01 0.  0.
</event>
<event>
 4    1  0.2193160E-006  0.1300000E+05  0.7957747E-01  0.1322471E+00
    9000001   -1    0    0    0    0  0.00000000000E+00  0.00000000000E+00  0.64999999231E+04  0.65000000000E+04  0.10000000000E+01 0.  0.
    9000001   -1    0    0    0    0 -0.00000000000E+00 -0.00000000000E+00 -0.64999999231E+04  0.65000000000E+04  0.10000000000E+01 0.  0.
    9000001    1    1    2    0    0 -0.23772933836E+04  0.18190203483E+04  0.57697175096E+04  0.65000000000E+04  0.10000000000E+01 0.  0.
    9000001    1    1    2    0    0  0.23772933836E+04 -0.18190203483E+04 -0.57697175096E+04  0.65000000000E+04  0.10000000000E+01 0.  0.
</event>
<event>
 4    1  0.2193160E-006  0.1300000E+05  0.7957747E-01  0.1322471E+00
    9000001   -1    0    0    0    0  0.00000000000E+00  0.00000000000E+00  0.64999999231E+04  0.65000000000E+04  0.10000000000E+01 0.  0.
    9000001   -1    0    0    0    0 -0.00000000000E+00 -0.00000000000E+00 -0.64999999231E+04  0.65000000000E+04  0.10000000000E+01 0.  0.
    9000001    1    1    2    0    0 -0.19385431918E+03  0.54576260541E+04  0.35251577775E+04  0.65000000000E+04  0.10000000000E+01 0.  0.
    9000001    1    1    2    0    0  0.19385431918E+03 -0.54576260541E+04 -0.35251577775E+04  0.65000000000E+04  0.10000000000E+01 0.  0.
</event>
<event>
 4    1  0.2193160E-006  0.1300000E+05  0.7957747E-01  0.1322471E+00
    9000001   -1    0    0    0    0  0.00000000000E+00  0.00000000000E+00  0.64999999231E+04  0.65000000000E+04  0.10000000000E+01 0.  0.
    9000001   -1    0    0    0    0 -0.00000000000E+00 -0.00000000000E+00 -0.64999999231E+04  0.65000000000E+04  0.10000000000E+01 0.  0.
    9000001    1    1    2    0    0 -0.69114261608E+03 -0.62107645833E+04 -0.17884977424E+04  0.65000000000E+04  0.10000000000E+01 0.  0.
    9000001    1    1    2    0    0  0.69114261608E+03  0.62107645833E+04  0.17884977424E+04  0.65000000000E+04  0.10000000000E+01 0.  0.
</event>
<event>
 4    1  0.2193160E-006  0.1300000E+05  0.7957747E-01  0.1322471E+00
    9000001   -1    0    0    0    0  0.00000000000E+00  0.00000000000E+00  0.64999999231E+04  0.65000000000E+04  0.10000000000E+01 0.  0.
    9000001   -1    0    0    0    0 -0.00000000000E+00 -0.00000000000E+00 -0.64999999231E+04  0.65000000000E+04  0.10000000000E+01 0.  0.
    9000001    1    1    2    0    0 -0.76146399554E+03 -0.59177106514E+04 -0.25789285041E+04  0.65000000000E+04  0.10000000000E+01 0.  0.
    9000001    1    1    2    0    0  0.76146399554E+03  0.59177106514E+04  0.25789285041E+04  0.65000000000E+04  0.10000000000E+01 0.  0.
</event>
<event>
 4    1  0.2193160E-006  0.1300000E+05  0.7957747E-01  0.1322471E+00
    9000001   -1    0    0    0    0  0.00000000000E+00  0.00000000000E+00  0.64999999231E+04  0.65000000000E+04  0.10000000000E+01 0.  0.
    9000001   -1    0    0    0    0 -0.00000000000E+00 -0.00000000000E+00 -0.64999999231E+04  0.65000000000E+04  0.10000000000E+01 0.  0.
    9000001    1    1    2    0    0 -0.30139147996E+04 -0.36136022167E+04  0.44842162749E+04  0.65000000000E+04  0.10000000000E+01 0.  0.
    9000001    1    1    2    0    0  0.30139147996E+04  0.36136022167E+04 -0.44842162749E+04  0.65000000000E+04  0.10000000000E+01 0.  0.
</event>
<event>
 4    1  0.2193160E-006  0.1300000E+05  0.7957747E-01  0.1322471E+00
    9000001   -1    0    0    0    0  0.00000000000E+00  0.00000000000E+00  0.64999999231E+04  0.65000000000E+04  0.10000000000E+01 0.  0.
    9000001   -1    0    0    0    0 -0.00000000000E+00 -0.00000000000E+00 -0.64999999231E+04  0.65000000000E+04  0.10000000000E+01 0.  0.
    9000001    1    1    2    0    0  0.33112095488E+04  0.50608099368E+04 -0.23820354968E+04  0.65000000000E+04  0.10000000000E+01 0.  0.
    9000001    1    1    2    0    0 -0.33112095488E+04 -0.50608099368E+04  0.23820354968E+04  0.65000000000E+04  0.10000000000E+01 0.  0.
</event>
<event>
 4    1  0.2193160E-006  0.1300000E+05  0.7957747E-01  0.1322471E+00
    9000001   -1    0    0    0    0  0.00000000000E+00  0.00000000000E+00  0.64999999231E+04  0.65000000000E+04  0.10000000000E+01 0.  0.
    9000001   -1    0    0    0    0 -0.00000000000E+00 -0.00000000000E+00 -0.64999999231E+04  0.65000000000E+04  0.10000000000E+01 0.  0.
    9000001    1    1    2    0    0  0.34321320047E+04 -0.47227272147E+04  0.28576767762E+04  0.65000000000E+04  0.10000000000E+01 0.  0.
    9000001    1    1    2    0    0 -0.34321320047E+04  0.47227272147E+04 -0.28576767762E+04  0.65000000000E+04  0.10000000000E+01 0.  0.
</event>
<event>
 4    1  0.2193160E-006  0.1300000E+05  0.7957747E-01  0.1322471E+00
    9000001   -1    0    0    0    0  0.00000000000E+00  0.00000000000E+00  0.64999999231E+04  0.65000000000E+04  0.10000000000E+01 0.  0.
    9000001   -1    0    0    0    0 -0.00000000000E+00 -0.00000000000E+00 -0.64999999231E+04  0.65000000000E+04  0.10000000000E+01 0.  0.
    9000001    1    1    2    0    0  0.59716295000E+03 -0.58626731074E+04  0.27427102374E+04  0.65000000000E+04  0.10000000000E+01 0.  0.
    9000001    1    1    2    0    0 -0.59716295000E+03  0.58626731074E+04 -0.27427102374E+04  0.65000000000E+04  0.10000000000E+01 0.  0.
</event>
<event>
 4    1  0.2193160E-006  0.1300000E+05  0.7957747E-01  0.1322471E+00
    9000001   -1    0    0    0    0  0.00000000000E+00  0.00000000000E+00  0.64999999231E+04  0.65000000000E+04  0.10000000000E+01 0.  0.
    9000001   -1    0    0    0    0 -0.00000000000E+00 -0.00000000000E+00 -0.64999999231E+04  0.65000000000E+04  0.10000000000E+01 0.  0.
    9000001    1    1    2    0    0  0.54480207076E+04 -0.34808182938E+04 -0.67303296733E+03  0.65000000000E+04  0.10000000000E+01 0.  0.
    9000001    1    1    2    0    0 -0.54480207076E+04  0.34808182938E+04  0.67303296733E+03  0.65000000000E+04  0.10000000000E+01 0.  0.
</event>
<event>
 4    1  0.2193160E-006  0.1300000E+05  0.7957747E-01  0.1322471E+00
    9000001   -1    0    0    0    0  0.00000000000E+00  0.00000000000E+00  0.64999999231E+04  0.65000000000E+04  0.10000000000E+01 0.  0.
    9000001   -1    0    0    0    0 -0.00000000000E+00 -0.00000000000E+00 -0.64999999231E+04  0.65000000000E+04  0.10000000000E+01 0.  0.
    9000001    1    1    2    0    0  0.39064466641E+04 -0.30659201685E+04  0.41940203840E+04  0.65000000000E+04  0.10000000000E+01 0.  0.
    9000001    1    1    2    0    0 -0.39064466641E+04  0.30659201685E+04 -0.41940203840E+04  0.65000000000E+04  0.10000000000E+01 0.  0.
</event>
<event>
 4    1  0.2193160E-006  0.1300000E+05  0.7957747E-01  0.1322471E+00
    9000001   -1    0    0    0    0  0.00000000000E+00  0.00000000000E+00  0.64999999231E+04  0.65000000000E+04  0.10000000000E+01 0.  0.
    9000001   -1    0    0    0    0 -0.00000000000E+00 -0.00000000000E+00 -0.64999999231E+04  0.65000000000E+04  0.10000000000E+01 0.  0.
    9000001    1    1    2    0    0 -0.27260001596E+04  0.14114541051E+04  0.57294606587E+04  0.65000000000E+04  0.10000000000E+01 0.  0.
    9000001    1    1    2    0    0  0.27260001596E+04 -0.14114541051E+04 -0.57294606587E+04  0.65000000000E+04  0.10000000000E+01 0.  0.
</event>
<event>
 4    1  0.2193160E-006  0.1300000E+05  0.7957747E-01  0.1322471E+00
    9000001   -1    0    0    0    0  0.00000000000E+00  0.00000000000E+00  0.64999999231E+04  0.65000000000E+04  0.10000000000E+01 0.  0.
    9000001   -1    0    0    0    0 -0.00000000000E+00 -0.00000000000E+00 -0.64999999231E+04  0.65000000000E+04  0.10000000000E+01 0.  0.
    9000001    1    1    2    0    0 -0.40758284075E+04 -0.44413472411E+04  0.24314720800E+04  0.65000000000E+04  0.10000000000E+01 0.  0.
    9000001    1    1    2    0    0  0.40758284075E+04  0.44413472411E+04 -0.24314720800E+04  0.65000000000E+04  0.10000000000E+01 0.  0.
</event>
<event>
 4    1  0.2193160E-006  0.1300000E+05  0.7957747E-01  0.1322471E+00
    9000001   -1    0    0    0    0  0.00000000000E+00  0.00000000000E+00  0.64999999231E+04  0.65000000000E+04  0.10000000000E+01 0.  0.
    9000001   -1    0    0    0    0 -0.00000000000E+00 -0.00000000000E+00 -0.64999999231E+04  0.65000000000E+04  0.10000000000E+01 0.  0.
    9000001    1    1    2    0    0  0.54918807511E+04 -0.86885915618E+03 -0.33666494595E+04  0.65000000000E+04  0.10000000000E+01 0.  0.
    9000001    1    1    2    0    0 -0.54918807511E+04  0.86885915618E+03  0.33666494595E+04  0.65000000000E+04  0.10000000000E+01 0.  0.
</event>
<event>
 4    1  0.2193160E-006  0.1300000E+05  0.7957747E-01  0.1322471E+00
    9000001   -1    0    0    0    0  0.00000000000E+00  0.00000000000E+00  0.64999999231E+04  0.65000000000E+04  0.10000000000E+01 0.  0.
    9000001   -1    0    0    0    0 -0.00000000000E+00 -0.00000000000E+00 -0.64999999231E+04  0.65000000000E+04  0.10000000000E+01 0.  0.
    9000001    1    1    2    0    0 -0.62111931232E+04  0.93938002956E+03 -0.16699233952E+04  0.65000000000E+04  0.10000000000E+01 0.  0.
    9000001    1    1    2    0    0  0.62111931232E+04 -0.93938002956E+03  0.16699233952E+04  0.65000000000E+04  0.10000000000E+01 0.  0.
</event>
<event>
 4    1  0.2193160E-006  0.1300000E+05  0.7957747E-01  0.1322471E+00
    9000001   -1    0    0    0    0  0.00000000000E+00  0.00000000000E+00  0.64999999231E+04  0.65000000000E+04  0.10000000000E+01 0.  0.
    9000001   -1    0    0    0    0 -0.00000000000E+00 -0.00000000000E+00 -0.64999999231E+04  0.65000000000E+04  0.10000000000E+01 0.  0.
    9000001    1    1    2    0    0 -0.33830958008E+03 -0.42897202541E+04  0.48717395014E+04  0.65000000000E+04  0.10000000000E+01 0.  0.
    9000001    1    1    2    0    0  0.33830958008E+03  0.42897202541E+04 -0.48717395014E+04  0.65000000000E+04  0.10000000000E+01 0.  0.
</event>
<event>
 4    1  0.2193160E-006  0.1300000E+05  0.7957747E-01  0.1322471E+00
    9000001   -1    0    0    0    0  0.00000000000E+00  0.00000000000E+00  0.64999999231E+04  0.65000000000E+04  0.10000000000E+01 0.  0.
    9000001   -1    0    0    0    0 -0.00000000000E+00 -0.00000000000E+00 -0.64999999231E+04  0.65000000000E+04  0.10000000000E+01 0.  0.
    9000001    1    1    2    0    0 -0.34112404696E+04 -0.53296131125E+04 -0.14861566302E+04  0.65000000000E+04  0.10000000000E+01 0.  0.
    9000001    1    1    2    0    0  0.34112404696E+04  0.53296131125E+04  0.14861566302E+04  0.65000000000E+04  0.10000000000E+01 0.  0.
</event>
<event>
 4    1  0.2193160E-006  0.1300000E+05  0.7957747E-01  0.1322471E+00
    9000001   -1    0    0    0    0  0.00000000000E+00  0.00000000000E+00  0.64999999231E+04  0.65000000000E+04  0.10000000000E+01 0.  0.
    9000001   -1    0    0    0    0 -0.00000000000E+00 -0.00000000000E+00 -0.64999999231E+04  0.65000000000E+04  0.10000000000E+01 0.  0.
    9000001    1    1    2    0    0 -0.16116639926E+04  0.28761030909E+04 -0.56018362334E+04  0.65000000000E+04  0.10000000000E+01 0.  0.
    9000001    1    1    2    0    0  0.16116639926E+04 -0.28761030909E+04  0.56018362334E+04  0.65000000000E+04  0.10000000000E+01 0.  0.
</event>
<event>
 4    1  0.2193160E-006  0.1300000E+05  0.7957747E-01  0.1322471E+00
    9000001   -1    0    0    0    0  0.00000000000E+00  0.00000000000E+00  0.64999999231E+04  0.65000000000E+04  0.10000000000E+01 0.  0.
    9000001   -1    0    0    0    0 -0.00000000000E+00 -0.00000000000E+00 -0.64999999231E+04  0.65000000000E+04  0.10000000000E+01 0.  0.
    9000001    1    1    2    0    0  0.54424482447E+03 -0.59536322191E+04  0.25510899574E+04  0.65000000000E+04  0.10000000000E+01 0.  0.
    9000001    1    1    2    0    0 -0.54424482447E+03  0.59536322191E+04 -0.25510899574E+04  0.65000000000E+04  0.10000000000E+01 0.  0.
</event>
<event>
 4    1  0.2193160E-006  0.1300000E+05  0.7957747E-01  0.1322471E+00
    9000001   -1    0    0    0    0  0.00000000000E+00  0.00000000000E+00  0.64999999231E+04  0.65000000000E+04  0.10000000000E+01 0.  0.
    9000001   -1    0    0    0    0 -0.00000000000E+00 -0.00000000000E+00 -0.64999999231E+04  0.65000000000E+04  0.10000000000E+01 0.  0.
    9000001    1    1    2    0    0 -0.62250370574E+04 -0.14810440458E+04  0.11425502914E+04  0.65000000000E+04  0.10000000000E+01 0.  0.
    9000001    1    1    2    0    0  0.62250370574E+04  0.14810440458E+04 -0.11425502914E+04  0.65000000000E+04  0.10000000000E+01 0.  0.
</event>
<event>
 4    1  0.2193160E-006  0.1300000E+05  0.7957747E-01  0.1322471E+00
    9000001   -1    0    0    0    0  0.00000000000E+00  0.00000000000E+00  0.64999999231E+04  0.65000000000E+04  0.10000000000E+01 0.  0.
    9000001   -1    0    0    0    0 -0.00000000000E+00 -0.00000000000E+00 -0.64999999231E+04  0.65000000000E+04  0.10000000000E+01 0.  0.
    9000001    1    1    2    0    0  0.63336011721E+04 -0.11695436432E+04  0.87616371714E+03  0.65000000000E+04  0.10000000000E+01 0.  0.
    9000001    1    1    2    0    0 -0.63336011721E+04  0.11695436432E+04 -0.87616371714E+03  0.65000000000E+04  0.10000000000E+01 0.  0.
</event>
<event>
 4    1  0.2193160E-006  0.1300000E+05  0.7957747E-01  0.1322471E+00
    9000001   -1    0    0    0    0  0.00000000000E+00  0.00000000000E+00  0.64999999231E+04  0.65000000000E+04  0.10000000000E+01 0.  0.
    9000001   -1    0    0    0    0 -0.00000000000E+00 -0.00000000000E+00 -0.64999999231E+04  0.65000000000E+04  0.10000000000E+01 0.  0.
    9000001    1    1    2    0    0  0.21582123014E+04 -0.59203757003E+04 -0.15941362016E+04  0.65000000000E+04  0.10000000000E+01 0.  0.
    9000001    1    1    2    0    0 -0.21582123014E+04  0.59203757003E+04  0.15941362016E+04  0.65000000000E+04  0.10000000000E+01 0.  0.
</event>
<event>
 4    1  0.2193160E-006  0.1300000E+05  0.7957747E-01  0.1322471E+00
    9000001   -1    0    0    0    0  0.00000000000E+00  0.00000000000E+00  0.64999999231E+04  0.65000000000E+04  0.10000000000E+01 0.  0.
    9000001   -1    0    0    0    0 -0.00000000000E+00 -0.00000000000E+00 -0.64999999231E+04  0.65000000000E+04  0.10000000000E+01 0.  0.
    9000001    1    1    2    0    0  0.56959238607E+03  0.78735202799E+03  0.64269464209E+04  0.65000000000E+04  0.10000000000E+01 0.  0.
    9000001    1    1    2    0    0 -0.56959238607E+03 -0.78735202799E+03 -0.64269464209E+04  0.65000000000E+04  0.10000000000E+01 0.  0.
</event>
<event>
 4    1  0.2193160E-006  0.1300000E+05  0.7957747E-01  0.1322471E+00
    9000001   -1    0    0    0    0  0.00000000000E+00  0.00000000000E+00  0.64999999231E+04  0.65000000000E+04  0.10000000000E+01 0.  0.
    9000001   -1    0    0    0    0 -0.00000000000E+00 -0.00000000000E+00 -0.64999999231E+04  0.65000000000E+04  0.10000000000E+01 0.  0.
    9000001    1    1    2    0    0 -0.37181539644E+04  0.30267744844E+03  0.53229424625E+04  0.65000000000E+04  0.10000000000E+01 0.  0.
    9000001    1    1    2    0    0  0.37181539644E+04 -0.30267744844E+03 -0.53229424625E+04  0.65000000000E+04  0.10000000000E+01 0.  0.
</event>
<event>
 4    1  0.2193160E-006  0.1300000E+05  0.7957747E-01  0.1322471E+00
    9000001   -1    0    0    0    0  0.00000000000E+00  0.00000000000E+00  0.64999999231E+04  0.65000000000E+04  0.10000000000E+01 0.  0.
    9000001   -1    0    0    0    0 -0.00000000000E+00 -0.00000000000E+00 -0.64999999231E+04  0.65000000000E+04  0.10000000000E+01 0.  0.
    9000001    1    1    2    0    0 -0.33397380477E+04 -0.55699925348E+04  0.26708038997E+03  0.65000000000E+04  0.10000000000E+01 0.  0.
    9000001    1    1    2    0    0  0.33397380477E+04  0.55699925348E+04 -0.26708038997E+03  0.65000000000E+04  0.10000000000E+01 0.  0.
</event>
<event>
 4    1  0.2193160E-006  0.1300000E+05  0.7957747E-01  0.1322471E+00
    9000001   -1    0    0    0    0  0.00000000000E+00  0.00000000000E+00  0.64999999231E+04  0.65000000000E+04  0.10000000000E+01 0.  0.
    9000001   -1    0    0    0    0 -0.00000000000E+00 -0.00000000000E+00 -0.64999999231E+04  0.65000000000E+04  0.10000000000E+01 0.  0.
    9000001    1    1    2    0    0 -0.16136957281E+04  0.40582861372E+04 -0.48141768482E+04  0.65000000000E+04  0.10000000000E+01 0.  0.
    9000001    1    1    2    0    0  0.16136957281E+04 -0.40582861372E+04  0.48141768482E+04  0.65000000000E+04  0.10000000000E+01 0.  0.
</event>
<event>
 4    1  0.2193160E-006  0.1300000E+05  0.7957747E-01  0.1322471E+00
    9000001   -1    0    0    0    0  0.00000000000E+00  0.00000000000E+00  0.64999999231E+04  0.65000000000E+04  0.10000000000E+01 0.  0.
    9000001   -1    0    0    0    0 -0.00000000000E+00 -0.00000000000E+00 -0.64999999231E+04  0.65000000000E+04  0.10000000000E+01 0.  0.
    9000001    1    1    2    0    0 -0.18917868120E+04 -0.22296638937E+03  0.62146140385E+04  0.65000000000E+04  0.10000000000E+01 0.  0.
    9000001    1    1    2    0    0  0.18917868120E+04  0.22296638937E+03 -0.62146140385E+04  0.65000000000E+04  0.10000000000E+01 0.  0.
</event>
<event>
 4    1  0.2193160E-006  0.1300000E+05  0.7957747E-01  0.1322471E+00
    9000001   -1    0    0    0    0  0.00000000000E+00  0.00000000000E+00  0.64999999231E+04  0.65000000000E+04  0.10000000000E+01 0.  0.
    9000001   -1    0    0    0    0 -0.00000000000E+00 -0.00000000000E+00 -0.64999999231E+04  0.65000000000E+04  0.10000000000E+01 0.  0.
    9000001    1    1    2    0    0  0.53237871815E+04 -0.27936426379E+02 -0.37291431459E+04  0.65000000000E+04  0.10000000000E+01 0.  0.
    9000001    1    1    2    0    0 -0.53237871815E+04  0.27936426379E+02  0.37291431459E+04  0.65000000000E+04  0.10000000000E+01 0.  0.
</event>
<event>
 4    1  0.2193160E-006  0.1300000E+05  0.7957747E-01  0.1322471E+00
    9000001   -1    0    0    0    0  0.00000000000E+00  0.00000000000E+00  0.64999999231E+04  0.65000000000E+04  0.10000000000E+01 0.  0.
    9000001   -1    0    0    0    0 -0.00000000000E+00 -0.00000000000E+00 -0.64999999231E+04  0.65000000000E+04  0.10000000000E+01 0.  0.
    9000001    1    1    2    0    0 -0.64624672239E+04 -0.65248112206E+03 -0.24654566476E+03  0.65000000000E+04  0.10000000000E+01 0.  0.
    9000001    1    1    2    0    0  0.64624672239E+04  0.65248112206E+03  0.24654566476E+03  0.65000000000E+04  0.10000000000E+01 0.  0.
</event>
<event>
 4    1  0.2193160E-006  0.1300000E+05  0.7957747E-01  0.1322471E+00
    9000001   -1    0    0    0    0  0.00000000000E+00  0.00000000000E+00  0.64999999231E+04  0.65000000000E+04  0.10000000000E+01 0.  0.
    9000001   -1    0    0    0    0 -0.00000000000E+00 -0.00000000000E+00 -0.64999999231E+04  0.65000000000E+04  0.10000000000E+01 0.  0.
    9000001    1    1    2    0    0 -0.52628987652E+04 -0.73300625211E+03  0.37436075411E+04  0.65000000000E+04  0.10000000000E+01 0.  0.
    9000001    1    1    2    0    0  0.52628987652E+04  0.73300625211E+03 -0.37436075411E+04  0.65000000000E+04  0.10000000000E+01 0.  0.
</event>
<event>
 4    1  0.2193160E-006  0.1300000E+05  0.7957747E-01  0.1322471E+00
    9000001   -1    0    0    0    0  0.00000000000E+00  0.00000000000E+00  0.64999999231E+04  0.65000000000E+04  0.10000000000E+01 0.  0.
    9000001   -1    0    0    0    0 -0.00000000000E+00 -0.00000000000E+00 -0.64999999231E+04  0.65000000000E+04  0.10000000000E+01 0.  0.
    9000001    1    1    2    0    0 -0.28708031156E+04 -0.57850252068E+04 -0.73618735977E+03  0.65000000000E+04  0.10000000000E+01 0.  0.
    9000001    1    1    2    0    0  0.28708031156E+04  0.57850252068E+04  0.73618735977E+03  0.65000000000E+04  0.10000000000E+01 0.  0.
</event>
<event>
 4    1  0.2193160E-006  0.1300000E+05  0.7957747E-01  0.1322471E+00
    9000001   -1    0    0    0    0  0.00000000000E+00  0.00000000000E+00  0.64999999231E+04  0.65000000000E+04  0.10000000000E+01 0.  0.
    9000001   -1    0    0    0    0 -0.00000000000E+00 -0.00000000000E+00 -0.64999999231E+04  0.65000000000E+04  0.10000000000E+01 0.  0.
    9000001    1    1    2    0    0 -0.21318558767E+04  0.24558038033E+04  0.56279851813E+04  0.65000000000E+04  0.10000000000E+01 0.  0.
    9000001    1    1    2    0    0  0.21318558767E+04 -0.24558038033E+04 -0.56279851813E+04  0.65000000000E+04  0.10000000000E+01 0.  0.
</event>
<event>
 4    1  0.2193160E-006  0.1300000E+05  0.7957747E-01  0.1322471E+00
    9000001   -1    0    0    0    0  0.00000000000E+00  0.00000000000E+00  0.64999999231E+04  0.65000000000E+04  0.10000000000E+01 0.  0.
    9000001   -1    0    0    0    0 -0.00000000000E+00 -0.00000000000E+00 -0.64999999231E+04  0.65000000000E+04  0.10000000000E+01 0.  0.
    9000001    1    1    2    0    0 -0.88433985020E+03 -0.29124986468E+04  0.57432824815E+04  0.65000000000E+04  0.10000000000E+01 0.  0.
    9000001    1    1    2    0    0  0.88433985020E+03  0.29124986468E+04 -0.57432824815E+04  0.65000000000E+04  0.10000000000E+01 0.  0.
</event>
<event>
 4    1  0.2193160E-006  0.1300000E+05  0.7957747E-01  0.1322471E+00
    9000001   -1    0    0    0    0  0.00000000000E+00  0.00000000000E+00  0.64999999231E+04  0.65000000000E+04  0.10000000000E+01 0.  0.
    9000001   -1    0    0    0    0 -0.00000000000E+00 -0.00000000000E+00 -0.64999999231E+04  0.65000000000E+04  0.10000000000E+01 0.  0.
    9000001    1    1    2    0    0  0.26190686949E+04  0.77826793355E+03 -0.58978620868E+04  0.65000000000E+04  0.10000000000E+01 0.  0.
    9000001    1    1    2    0    0 -0.26190686949E+04 -0.77826793355E+03  0.58978620868E+04  0.65000000000E+04  0.10000000000E+01 0.  0.
</event>
<event>
 4    1  0.2193160E-006  0.1300000E+05  0.7957747E-01  0.1322471E+00
    9000001   -1    0    0    0    0  0.00000000000E+00  0.00000000000E+00  0.64999999231E+04  0.65000000000E+04  0.10000000000E+01 0.  0.
    9000001   -1    0    0    0    0 -0.00000000000E+00 -0.00000000000E+00 -0.64999999231E+04  0.65000000000E+04  0.10000000000E+01 0.  0.
    9000001    1    1    2    0    0  0.42963561223E+04 -0.46456422074E+04  0.14863820341E+04  0.65000000000E+04  0.10000000000E+01 0.  0.
    9000001    1    1    2    0    0 -0.42963561223E+04  0.46456422074E+04 -0.14863820341E+04  0.65000000000E+04  0.10000000000E+01 0.  0.
</event>
<event>
 4    1  0.2193160E-006  0.1300000E+05  0.7957747E-01  0.1322471E+00
    9000001   -1    0    0    0    0  0.00000000000E+00  0.00000000000E+00  0.64999999231E+04  0.65000000000E+04  0.10000000000E+01 0.  0.
    9000001   -1    0    0    0    0 -0.00000000000E+00 -0.00000000000E+00 -0.64999999231E+04  0.65000000000E+04  0.10000000000E+01 0.  0.
    9000001    1    1    2    0    0  0.40148199297E+04  0.49634297264E+04  0.12229412427E+04  0.65000000000E+04  0.10000000000E+01 0.  0.
    9000001    1    1    2    0    0 -0.40148199297E+04 -0.49634297264E+04 -0.12229412427E+04  0.65000000000E+04  0.10000000000E+01 0.  0.
</event>
<event>
 4    1  0.2193160E-006  0.1300000E+05  0.7957747E-01  0.1322471E+00
    9000001   -1    0    0    0    0  0.00000000000E+00  0.00000000000E+00  0.64999999231E+04  0.65000000000E+04  0.10000000000E+01 0.  0.
    9000001   -1    0    0    0    0 -0.00000000000E+00 -0.00000000000E+00 -0.64999999231E+04  0.65000000000E+04  0.10000000000E+01 0.  0.
    9000001    1    1    2    0    0 -0.33905737935E+04  0.45806889879E+04  0.31259073478E+04  0.65000000000E+04  0.10000000000E+01 0.  0.
    9000001    1    1    2    0    0  0.33905737935E+04 -0.45806889879E+04 -0.31259073478E+04  0.65000000000E+04  0.10000000000E+01 0.  0.
</event>
<event>
 4    1  0.2193160E-006  0.1300000E+05  0.7957747E-01  0.1322471E+00
    9000001   -1    0    0    0    0  0.00000000000E+00  0.00000000000E+00  0.64999999231E+04  0.65000000000E+04  0.10000000000E+01 0.  0.
    9000001   -1    0    0    0    0 -0.00000000000E+00 -0.00000000000E+00 -0.64999999231E+04  0.65000000000E+04  0.10000000000E+01 0.  0.
    9000001    1    1    2    0    0 -0.44737553094E+04  0.31261397376E+04 -0.35302638389E+04  0.65000000000E+04  0.10000000000E+01 0.  0.
    9000001    1    1    2    0    0  0.44737553094E+04 -0.31261397376E+04  0.35302638389E+04  0.65000000000E+04  0.10000000000E+01 0.  0.
</event>
<event>
 4    1  0.2193160E-006  0.1300000E+05  0.7957747E-01  0.1322471E+00
    9000001   -1    0    0    0    0  0.00000000000E+00  0.00000000000E+00  0.64999999231E+04  0.65000000000E+04  0.10000000000E+01 0.  0.
    9000001   -1    0    0    0    0 -0.00000000000E+00 -0.00000000000E+00 -0.64999999231E+04  0.65000000000E+04  0.10000000000E+01 0.  0.
    9000001    1    1    2    0    0  0.56941080852E+04  0.31321408450E+04 -0.12971445938E+03  0.65000000000E+04  0.10000000000E+01 0.  0.
    9000001    1    1    2    0    0 -0.56941080852E+04 -0.31321408450E+04  0.12971445938E+03  0.65000000000E+04  0.10000000000E+01 0.  0.
</event>
<event>
 4    1  0.2193160E-006  0.1300000E+05  0.7957747E-01  0.1322471E+00
    9000001   -1    0    0    0    0  0.00000000000E+00  0.00000000000E+00  0.64999999231E+04  0.65000000000E+04  0.10000000000E+01 0.  0.
    9000001   -1    0    0    0    0 -0.00000000000E+00 -0.00000000000E+00 -0.64999999231E+04  0.65000000000E+04  0.10000000000E+01 0.  0.
    9000001    1    1    2    0    0  0.41104785444E+04  0.22077753521E+04  0.45254494949E+04  0.65000000000E+04  0.10000000000E+01 0.  0.
    9000001    1    1    2    0    0 -0.41104785444E+04 -0.22077753521E+04 -0.45254494949E+04  0.65000000000E+04  0.10000000000E+01 0.  0.
</event>
<event>
 4    1  0.2193160E-006  0.1300000E+05  0.7957747E-01  0.1322471E+00
    9000001   -1    0    0    0    0  0.00000000000E+00  0.00000000000E+00  0.64999999231E+04  0.65000000000E+04  0.10000000000E+01 0.  0.
    9000001   -1    0    0    0    0 -0.00000000000E+00 -0.00000000000E+00 -0.64999999231E+04  0.65000000000E+04  0.10000000000E+01 0.  0.
    9000001    1    1    2    0    0 -0.95245078450E+03  0.61878018240E+04 -0.17475540307E+04  0.65000000000E+04  0.10000000000E+01 0.  0.
    9000001    1    1    2    0    0  0.95245078450E+03 -0.61878018240E+04  0.17475540307E+04  0.65000000000E+04  0.10000000000E+01 0.  0.
</event>
<event>
 4    1  0.2193160E-006  0.1300000E+05  0.7957747E-01  0.1322471E+00
    9000001   -1    0    0    0    0  0.00000000000E+00  0.00000000000E+00  0.64999999231E+04  0.65000000000E+04  0.10000000000E+01 0.  0.
    9000001   -1    0    0    0    0 -0.00000000000E+00 -0.00000000000E+00 -0.64999999231E+04  0.65000000000E+04  0.10000000000E+01 0.  0.
    9000001    1    1    2    0    0 -0.49933166074E+04  0.23490349020E+04 -0.34349415261E+04  0.65000000000E+04  0.10000000000E+01 0.  0.
    9000001    1    1    2    0    0  0.49933166074E+04 -0.23490349020E+04  0.34349415261E+04  0.65000000000E+04  0.10000000000E+01 0.  0.
</event>
<event>
 4    1  0.2193160E-006  0.1300000E+05  0.7957747E-01  0.1322471E+00
    9000001   -1    0    0    0    0  0.00000000000E+00  0.00000000000E+00  0.64999999231E+04  0.65000000000E+04  0.10000000000E+01 0.  0.
    9000001   -1    0    0    0    0 -0.00000000000E+00 -0.00000000000E+00 -0.64999999231E+04  0.65000000000E+04  0.10000000000E+01 0.  0.
    9000001    1    1    2    0    0  0.23317468758E+04 -0.19359179228E+04  0.57502328043E+04  0.65000000000E+04  0.10000000000E+01 0.  0.
    9000001    1    1    2    0    0 -0.23317468758E+04  0.19359179228E+04 -0.57502328043E+04  0.65000000000E+04  0.10000000000E+01 0.  0.
</event>
<event>
 4    1  0.2193160E-006  0.1300000E+05  0.7957747E-01  0.1322471E+00
    9000001   -1    0    0    0    0  0.00000000000E+00  0.00000000000E+00  0.64999999231E+04  0.65000000000E+04  0.10000000000E+01 0.  0.
    9000001   -1    0    0    0    0 -0.00000000000E+00 -0.00000000000E+00 -0.64999999231E+04  0.65000000000E+04  0.10000000000E+01 0.  0.
    9000001    1    1    2    0    0 -0.37220813681E+04  0.52968502026E+04  0.58265531862E+03  0.65000000000E+04  0.10000000000E+01 0.  0.
    9000001    1    1    2    0    0  0.37220813681E+04 -0.52968502026E+04 -0.58265531862E+03  0.65000000000E+04  0.10000000000E+01 0.  0.
</event>
<event>
 4    1  0.2193160E-006  0.1300000E+05  0.7957747E-01  0.1322471E+00
    9000001   -1    0    0    0    0  0.00000000000E+00  0.00000000000E+00  0.64999999231E+04  0.65000000000E+04  0.10000000000E+01 0.  0.
    9000001   -1    0    0    0    0 -0.00000000000E+00 -0.00000000000E+00 -0.64999999231E+04  0.65000000000E+04  0.10000000000E+01 0.  0.
    9000001    1    1    2    0    0 -0.15156843143E+04 -0.62531666872E+04  0.92228327639E+03  0.65000000000E+04  0.10000000000E+01 0.  0.
    9000001    1    1    2    0    0  0.15156843143E+04  0.62531666872E+04 -0.92228327639E+03  0.65000000000E+04  0.10000000000E+01 0.  0.
</event>
<event>
 4    1  0.2193160E-006  0.1300000E+05  0.7957747E-01  0.1322471E+00
    9000001   -1    0    0    0    0  0.00000000000E+00  0.00000000000E+00  0.64999999231E+04  0.65000000000E+04  0.10000000000E+01 0.  0.
    9000001   -1    0    0    0    0 -0.00000000000E+00 -0.00000000000E+00 -0.64999999231E+04  0.65000000000E+04  0.10000000000E+01 0.  0.
    9000001    1    1    2    0    0 -0.92856113952E+03 -0.37574870660E+04 -0.52219789504E+04  0.65000000000E+04  0.10000000000E+01 0.  0.
    9000001    1    1    2    0    0  0.92856113952E+03  0.37574870660E+04  0.52219789504E+04  0.65000000000E+04  0.10000000000E+01 0.  0.
</event>
<event>
 4    1  0.2193160E-006  0.1300000E+05  0.7957747E-01  0.1322471E+00
    9000001   -1    0    0    0    0  0.00000000000E+00  0.00000000000E+00  0.64999999231E+04  0.65000000000E+04  0.10000000000E+01 0.  0.
    9000001   -1    0    0    0    0 -0.00000000000E+00 -0.00000000000E+00 -0.64999999231E+04  0.65000000000E+04  0.10000000000E+01 0.  0.
    9000001    1    1    2    0    0  0.43047749355E+04 -0.22339189762E+04 -0.43276457528E+04  0.65000000000E+04  0.10000000000E+01 0.  0.
    9000001    1    1    2    0    0 -0.43047749355E+04  0.22339189762E+04  0.43276457528E+04  0.65000000000E+04  0.10000000000E+01 0.  0.
</event>
<event>
 4    1  0.2193160E-006  0.1300000E+05  0.7957747E-01  0.1322471E+00
    9000001   -1    0    0    0    0  0.00000000000E+00  0.00000000000E+00  0.64999999231E+04  0.65000000000E+04  0.10000000000E+01 0.  0.
    9000001   -1    0    0    0    0 -0.00000000000E+00 -0.00000000000E+00 -0.64999999231E+04  0.65000000000E+04  0.10000000000E+01 0.  0.
    9000001    1    1    2    0    0 -0.52423565372E+04  0.38419828306E+04  0.82854484087E+02  0.65000000000E+04  0.10000000000E+01 0.  0.
    9000001    1    1    2    0    0  0.52423565372E+04 -0.38419828306E+04 -0.82854484087E+02  0.65000000000E+04  0.10000000000E+01 0.  0.
</event>
<event>
 4    1  0.2193160E-006  0.1300000E+05  0.7957747E-01  0.1322471E+00
    9000001   -1    0    0    0    0  0.00000000000E+00  0.00000000000E+00  0.64999999231E+04  0.65000000000E+04  0.10000000000E+01 0.  0.
    9000001   -1    0    0    0    0 -0.00000000000E+00 -0.00000000000E+00 -0.64999999231E+04  0.65000000000E+04  0.10000000000E+01 0.  0.
    9000001    1    1    2    0    0  0.22741896499E+04  0.55304597496E+04 -0.25479551397E+04  0.65000000000E+04  0.10000000000E+01 0.  0.
    9000001    1    1    2    0    0 -0.22741896499E+04 -0.55304597496E+04  0.25479551397E+04  0.65000000000E+04  0.10000000000E+01 0.  0.
</event>
<event>
 4    1  0.2193160E-006  0.1300000E+05  0.7957747E-01  0.1322471E+00
    9000001   -1    0    0    0    0  0.00000000000E+00  0.00000000000E+00  0.64999999231E+04  0.65000000000E+04  0.10000000000E+01 0.  0.
    9000001   -1    0    0    0    0 -0.00000000000E+00 -0.00000000000E+00 -0.64999999231E+04  0.65000000000E+04  0.10000000000E+01 0.  0.
    9000001    1    1    2    0    0  0.29105028800E+04 -0.13590874170E+04  0.56508276720E+04  0.65000000000E+04  0.10000000000E+01 0.  0.
    9000001    1    1    2    0    0 -0.29105028800E+04  0.13590874170E+04 -0.56508276720E+04  0.65000000000E+04  0.10000000000E+01 0.  0.
</event>
<event>
 4    1  0.2193160E-006  0.1300000E+05  0.7957747E-01  0.1322471E+00
    9000001   -1    0    0    0    0  0.00000000000E+00  0.00000000000E+00  0.64999999231E+04  0.65000000000E+04  0.10000000000E+01 0.  0.
    9000001   -1    0    0    0    0 -0.00000000000E+00 -0.00000000000E+00 -0.64999999231E+04  0.65000000000E+04  0.10000000000E+01 0.  0.
    9000001    1    1    2    0    0 -0.21176907817E+04  0.13010246639E+04  0.60060569076E+04  0.65000000000E+04  0.10000000000E+01 0.  0.
    9000001    1    1    2    0    0  0.21176907817E+04 -0.13010246639E+04 -0.60060569076E+04  0.65000000000E+04  0.10000000000E+01 0.  0.
</event>
<event>
 4    1  0.2193160E-006  0.1300000E+05  0.7957747E-01  0.1322471E+00
    9000001   -1    0    0    0    0  0.00000000000E+00  0.00000000000E+00  0.64999999231E+04  0.65000000000E+04  0.10000000000E+01 0.  0.
    9000001   -1    0    0    0    0 -0.00000000000E+00 -0.00000000000E+00 -0.64999999231E+04  0.65000000000E+04  0.10000000000E+01 0.  0.
    9000001    1    1    2    0    0  0.35235287640E+04  0.21049691921E+04 -0.50402230853E+04  0.65000000000E+04  0.10000000000E+01 0.  0.
    9000001    1    1    2    0    0 -0.35235287640E+04 -0.21049691921E+04  0.50402230853E+04  0.65000000000E+04  0.10000000000E+01 0.  0.
</event>
<event>
 4    1  0.2193160E-006  0.1300000E+05  0.7957747E-01  0.1322471E+00
    9000001   -1    0    0    0    0  0.00000000000E+00  0.00000000000E+00  0.64999999231E+04  0.65000000000E+04  0.10000000000E+01 0.  0.
    9000001   -1    0    0    0    0 -0.00000000000E+00 -0.00000000000E+00 -0.64999999231E+04  0.65000000000E+04  0.10000000000E+01 0.  0.
    9000001    1    1    2    0    0  0.50331854902E+04 -0.37798368371E+04 -0.16216893371E+04  0.65000000000E+04  0.10000000000E+01 0.  0.
    9000001    1    1    2    0    0 -0.50331854902E+04  0.37798368371E+04  0.16216893371E+04  0.65000000000E+04  0.10000000000E+01 0.  0.
</event>
<event>
 4    1  0.2193160E-006  0.1300000E+05  0.7957747E-01  0.1322471E+00
    9000001   -1    0    0    0    0  0.00000000000E+00  0.00000000000E+00  0.64999999231E+04  0.65000000000E+04  0.10000000000E+01 0.  0.
    9000001   -1    0    0    0    0 -0.00000000000E+00 -0.00000000000E+00 -0.64999999231E+04  0.65000000000E+04  0.10000000000E+01 0.  0.
    9000001    1    1    2    0    0 -0.22803918820E+04  0.49247826168E+04  0.35771955554E+04  0.65000000000E+04  0.10000000000E+01 0.  0.
    9000001    1    1    2    0    0  0.22803918820E+04 -0.49247826168E+04 -0.35771955554E+04  0.65000000000E+04  0.10000000000E+01 0.  0.
</event>
<event>
 4    1  0.2193160E-006  0.1300000E+05  0.7957747E-01  0.1322471E+00
    9000001   -1    0    0    0    0  0.00000000000E+00  0.00000000000E+00  0.64999999231E+04  0.65000000000E+04  0.10000000000E+01 0.  0.
    9000001   -1    0    0    0    0 -0.00000000000E+00 -0.00000000000E+00 -0.64999999231E+04  0.65000000000E+04  0.10000000000E+01 0.  0.
    9000001    1    1    2    0    0 -0.40838823971E+04 -0.49874389277E+03 -0.50322120480E+04  0.65000000000E+04  0.10000000000E+01 0.  0.
    9000001    1    1    2    0    0  0.40838823971E+04  0.49874389277E+03  0.50322120480E+04  0.65000000000E+04  0.10000000000E+01 0.  0.
</event>
<event>
 4    1  0.2193160E-006  0.1300000E+05  0.7957747E-01  0.1322471E+00
    9000001   -1    0    0    0    0  0.00000000000E+00  0.00000000000E+00  0.64999999231E+04  0.65000000000E+04  0.10000000000E+01 0.  0.
    9000001   -1    0    0    0    0 -0.00000000000E+00 -0.00000000000E+00 -0.64999999231E+04  0.65000000000E+04  0.10000000000E+01 0.  0.
    9000001    1    1    2    0    0 -0.53537490643E+04  0.62587137461E+03 -0.36325824118E+04  0.65000000000E+04  0.10000000000E+01 0.  0.
    9000001    1    1    2    0    0  0.53537490643E+04 -0.62587137461E+03  0.36325824118E+04  0.65000000000E+04  0.10000000000E+01 0.  0.
</event>
<event>
 4    1  0.2193160E-006  0.1300000E+05  0.7957747E-01  0.1322471E+00
    9000001   -1    0    0    0    0  0.00000000000E+00  0.00000000000E+00  0.64999999231E+04  0.65000000000E+04  0.10000000000E+01 0.  0.
    9000001   -1    0    0    0    0 -0.00000000000E+00 -0.00000000000E+00 -0.64999999231E+04  0.65000000000E+04  0.10000000000E+01 0.  0.
    9000001    1    1    2    0    0  0.22187096757E+04 -0.60205349122E+04 -0.10394641630E+04  0.65000000000E+04  0.10000000000E+01 0.  0.
    9000001    1    1    2    0    0 -0.22187096757E+04  0.60205349122E+04  0.10394641630E+04  0.65000000000E+04  0.10000000000E+01 0.  0.
</event>
<event>
 4    1  0.2193160E-006  0.1300000E+05  0.7957747E-01  0.1322471E+00
    9000001   -1    0    0    0    0  0.00000000000E+00  0.00000000000E+00  0.64999999231E+04  0.65000000000E+04  0.10000000000E+01 0.  0.
    9000001   -1    0    0    0    0 -0.00000000000E+00 -0.00000000000E+00 -0.64999999231E+04  0.65000000000E+04  0.10000000000E+01 0.  0.
    9000001    1    1    2    0    0  0.16218350288E+03 -0.63268129964E+04  0.14815980628E+04  0.65000000000E+04  0.10000000000E+01 0.  0.
    9000001    1    1    2    0    0 -0.16218350288E+03  0.63268129964E+04 -0.14815980628E+04  0.65000000000E+04  0.10000000000E+01 0.  0.
</event>
<event>
 4    1  0.2193160E-006  0.1300000E+05  0.7957747E-01  0.1322471E+00
    9000001   -1    0    0    0    0  0.00000000000E+00  0.00000000000E+00  0.64999999231E+04  0.65000000000E+04  0.10000000000E+01 0.  0.
    9000001   -1    0    0    0    0 -0.00000000000E+00 -0.00000000000E+00 -0.64999999231E+04  0.65000000000E+04  0.10000000000E+01 0.  0.
    9000001    1    1    2    0    0  0.55989336877E+04  0.28264191026E+04 -0.17068379001E+04  0.65000000000E+04  0.10000000000E+01 0.  0.
    9000001    1    1    2    0    0 -0.55989336877E+04 -0.28264191026E+04  0.17068379001E+04  0.65000000000E+04  0.10000000000E+01 0.  0.
</event>
<event>
 4    1  0.2193160E-006  0.1300000E+05  0.7957747E-01  0.1322471E+00
    9000001   -1    0    0    0    0  0.00000000000E+00  0.00000000000E+00  0.64999999231E+04  0.65000000000E+04  0.10000000000E+01 0.  0.
    9000001   -1    0    0    0    0 -0.00000000000E+00 -0.00000000000E+00 -0.64999999231E+04  0.65000000000E+04  0.10000000000E+01 0.  0.
    9000001    1    1    2    0    0 -0.42308758300E+03 -0.11446791778E+04 -0.63844111300E+04  0.65000000000E+04  0.10000000000E+01 0.  0.
    9000001    1    1    2    0    0  0.42308758300E+03  0.11446791778E+04  0.63844111300E+04  0.65000000000E+04  0.10000000000E+01 0.  0.
</event>
<event>
 4    1  0.2193160E-006  0.1300000E+05  0.7957747E-01  0.1322471E+00
    9000001   -1    0    0    0    0  0.00000000000E+00  0.00000000000E+00  0.64999999231E+04  0.65000000000E+04  0.10000000000E+01 0.  0.
    9000001   -1    0    0    0    0 -0.00000000000E+00 -0.00000000000E+00 -0.64999999231E+04  0.65000000000E+04  0.10000000000E+01 0.  0.
    9000001    1    1    2    0    0  0.60807881902E+04  0.19681793423E+04 -0.11833359891E+04  0.65000000000E+04  0.10000000000E+01 0.  0.
    9000001    1    1    2    0    0 -0.60807881902E+04 -0.19681793423E+04  0.11833359891E+04  0.65000000000E+04  0.10000000000E+01 0.  0.
</event>
<event>
 4    1  0.2193160E-006  0.1300000E+05  0.7957747E-01  0.1322471E+00
    9000001   -1    0    0    0    0  0.00000000000E+00  0.00000000000E+00  0.64999999231E+04  0.65000000000E+04  0.10000000000E+01 0.  0.
    9000001   -1    0    0    0    0 -0.00000000000E+00 -0.00000000000E+00 -0.64999999231E+04  0.65000000000E+04  0.10000000000E+01 0.  0.
    9000001    1    1    2    0    0  0.44170238059E+04 -0.43967542897E+04 -0.18461991806E+04  0.65000000000E+04  0.10000000000E+01 0.  0.
    9000001    1    1    2    0    0 -0.44170238059E+04  0.43967542897E+04  0.18461991806E+04  0.65000000000E+04  0.10000000000E+01 0.  0.
</event>
<event>
 4    1  0.2193160E-006  0.1300000E+05  0.7957747E-01  0.1322471E+00
    9000001   -1    0    0    0    0  0.00000000000E+00  0.00000000000E+00  0.64999999231E+04  0.65000000000E+04  0.10000000000E+01 0.  0.
    9000001   -1    0    0    0    0 -0.00000000000E+00 -0.00000000000E+00 -0.64999999231E+04  0.65000000000E+04  0.10000000000E+01 0.  0.
    9000001    1    1    2    0    0  0.32459363706E+04 -0.38052793947E+04 -0.41513545749E+04  0.65000000000E+04  0.10000000000E+01 0.  0.
    9000001    1    1    2    0    0 -0.32459363706E+04  0.38052793947E+04  0.41513545749E+04  0.65000000000E+04  0.10000000000E+01 0.  0.
</event>
<event>
 4    1  0.2193160E-006  0.1300000E+05  0.7957747E-01  0.1322471E+00
    9000001   -1    0    0    0    0  0.00000000000E+00  0.00000000000E+00  0.64999999231E+04  0.65000000000E+04  0.10000000000E+01 0.  0.
    9000001   -1    0    0    0    0 -0.00000000000E+00 -0.00000000000E+00 -0.64999999231E+04  0.65000000000E+04  0.10000000000E+01 0.  0.
    9000001    1    1    2    0    0 -0.16392079926E+04  0.79401019521E+03  0.62395948560E+04  0.65000000000E+04  0.10000000000E+01 0.  0.
    9000001    1    1    2    0    0  0.16392079926E+04 -0.79401019521E+03 -0.62395948560E+04  0.65000000000E+04  0.10000000000E+01 0.  0.
</event>
<event>
 4    1  0.2193160E-006  0.1300000E+05  0.7957747E-01  0.1322471E+00
    9000001   -1    0    0    0    0  0.00000000000E+00  0.00000000000E+00  0.64999999231E+04  0.65000000000E+04  0.10000000000E+01 0.  0.
    9000001   -1    0    0    0    0 -0.00000000000E+00 -0.00000000000E+00 -0.64999999231E+04  0.65000000000E+04  0.10000000000E+01 0.  0.
    9000001    1    1    2    0    0  0.27560042481E+04  0.46338805986E+04  0.36306459731E+04  0.65000000000E+04  0.10000000000E+01 0.  0.
    9000001    1    1    2    0    0 -0.27560042481E+04 -0.46338805986E+04 -0.36306459731E+04  0.65000000000E+04  0.10000000000E+01 0.  0.
</event>
<event>
 4    1  0.2193160E-006  0.1300000E+05  0.7957747E-01  0.1322471E+00
    9000001   -1    0    0    0    0  0.00000000000E+00  0.00000000000E+00  0.64999999231E+04  0.65000000000E+04  0.10000000000E+01 0.  0.
    9000001   -1    0    0    0    0 -0.00000000000E+00 -0.00000000000E+00 -0.64999999231E+04  0.65000000000E+04  0.10000000000E+01 0.  0.
    9000001    1    1    2    0    0  0.59318959996E+04 -0.56178315380E+03 -0.25975004404E+04  0.65000000000E+04  0.10000000000E+01 0.  0.
    9000001    1    1    2    0    0 -0.59318959996E+04  0.56178315380E+03  0.25975004404E+04  0.65000000000E+04  0.10000000000E+01 0.  0.
</event>
<event>
 4    1  0.2193160E-006  0.1300000E+05  0.7957747E-01  0.1322471E+00
    9000001   -1    0    0    0    0  0.00000000000E+00  0.00000000000E+00  0.64999999231E+04  0.65000000000E+04  0.10000000000E+01 0.  0.
    9000001   -1    0    0    0    0 -0.00000000000E+00 -0.00000000000E+00 -0.64999999231E+04  0.65000000000E+04  0.10000000000E+01 0.  0.
    9000001    1    1    2    0    0 -0.58544978657E+04  0.17048173706E+04 -0.22513221612E+04  0.65000000000E+04  0.10000000000E+01 0.  0.
    9000001    1    1    2    0    0  0.58544978657E+04 -0.17048173706E+04  0.22513221612E+04  0.65000000000E+04  0.10000000000E+01 0.  0.
</event>
<event>
 4    1  0.2193160E-006  0.1300000E+05  0.7957747E-01  0.1322471E+00
    9000001   -1    0    0    0    0  0.00000000000E+00  0.00000000000E+00  0.64999999231E+04  0.65000000000E+04  0.10000000000E+01 0.  0.
    9000001   -1    0    0    0    0 -0.00000000000E+00 -0.00000000000E+00 -0.64999999231E+04  0.65000000000E+04  0.10000000000E+01 0.  0.
    9000001    1    1    2    0    0  0.20164162882E+04  0.77647059658E+03 -0.61303472793E+04  0.65000000000E+04  0.10000000000E+01 0.  0.
    9000001    1    1    2    0    0 -0.20164162882E+04 -0.77647059658E+03  0.61303472793E+04  0.65000000000E+04  0.10000000000E+01 0.  0.
</event>
<event>
 4    1  0.2193160E-006  0.1300000E+05  0.7957747E-01  0.1322471E+00
    9000001   -1    0    0    0    0  0.00000000000E+00  0.00000000000E+00  0.64999999231E+04  0.65000000000E+04  0.10000000000E+01 0.  0.
    9000001   -1    0    0    0    0 -0.00000000000E+00 -0.00000000000E+00 -0.64999999231E+04  0.65000000000E+04  0.10000000000E+01 0.  0.
    9000001    1    1    2    0    0  0.60332341606E+04 -0.19905253651E+04  0.13740063078E+04  0.65000000000E+04  0.10000000000E+01 0.  0.
    9000001    1    1    2    0    0 -0.60332341606E+04  0.19905253651E+04 -0.13740063078E+04  0.65000000000E+04  0.10000000000E+01 0.  0.
</event>
<event>
 4    1  0.2193160E-006  0.1300000E+05  0.7957747E-01  0.1322471E+00
    9000001   -1    0    0    0    0  0.00000000000E+00  0.00000000000E+00  0.64999999231E+04  0.65000000000E+04  0.10000000000E+01 0.  0.
    9000001   -1    0    0    0    0 -0.00000000000E+00 -0.00000000000E+00 -0.64999999231E+04  0.65000000000E+04  0.10000000000E+01 0.  0.
    9000001    1    1    2    0    0 -0.31338280485E+04  0.41262179265E+04  0.39247224597E+04  0.65000000000E+04  0.10000000000E+01 0.  0.
    9000001    1    1    2    0    0  0.31338280485E+04 -0.41262179265E+04 -0.39247224597E+04  0.65000000000E+04  0.10000000000E+01 0.  0.
</event>
<event>
 4    1  0.2193160E-006  0.1300000E+05  0.7957747E-01  0.1322471E+00
    9000001   -1    0    0    0    0  0.00000000000E+00  0.00000000000E+00  0.64999999231E+04  0.65000000000E+04  0.10000000000E+01 0.  0.
    9000001   -1    0    0    0    0 -0.00000000000E+00 -0.00000000000E+00 -0.64999999231E+04  0.65000000000E+04  0.10000000000E+01 0.  0.
    9000001    1    1    2    0    0  0.24491252311E+04  0.37637472628E+04 -0.46995735066E+04  0.65000000000E+04  0.10000000000E+01 0.  0.
    9000001    1    1    2    0    0 -0.24491252311E+04 -0.37637472628E+04  0.46995735066E+04  0.65000000000E+04  0.10000000000E+01 0.  0.
</event>
<event>
 4    1  0.2193160E-006  0.1300000E+05  0.7957747E-01  0.1322471E+00
    9000001   -1    0    0    0    0  0.00000000000E+00  0.00000000000E+00  0.64999999231E+04  0.65000000000E+04  0.10000000000E+01 0.  0.
    9000001   -1    0    0    0    0 -0.00000000000E+00 -0.00000000000E+00 -0.64999999231E+04  0.65000000000E+04  0.10000000000E+01 0.  0.
    9000001    1    1    2    0    0 -0.15995271040E+04 -0.21206506424E+04 -0.59324828610E+04  0.65000000000E+04  0.10000000000E+01 0.  0.
    9000001    1    1    2    0    0  0.15995271040E+04  0.21206506424E+04  0.59324828610E+04  0.65000000000E+04  0.10000000000E+01 0.  0.
</event>
<event>
 4    1  0.2193160E-006  0.1300000E+05  0.7957747E-01  0.1322471E+00
    9000001   -1    0    0    0    0  0.00000000000E+00  0.00000000000E+00  0.64999999231E+04  0.65000000000E+04  0.10000000000E+01 0.  0.
    9000001   -1    0    0    0    0 -0.00000000000E+00 -0.00000000000E+00 -0.64999999231E+04  0.65000000000E+04  0.10000000000E+01 0.  0.
    9000001    1    1    2    0    0  0.60165509265E+04 -0.77161281667E+02 -0.24586907259E+04  0.65000000000E+04  0.10000000000E+01 0.  0.
    9000001    1    1    2    0    0 -0.60165509265E+04  0.77161281667E+02  0.24586907259E+04  0.65000000000E+04  0.10000000000E+01 0.  0.
</event>
<event>
 4    1  0.2193160E-006  0.1300000E+05  0.7957747E-01  0.1322471E+00
    9000001   -1    0    0    0    0  0.00000000000E+00  0.00000000000E+00  0.64999999231E+04  0.65000000000E+04  0.10000000000E+01 0.  0.
    9000001   -1    0    0    0    0 -0.00000000000E+00 -0.00000000000E+00 -0.64999999231E+04  0.65000000000E+04  0.10000000000E+01 0.  0.
    9000001    1    1    2    0    0  0.14109701855E+04  0.37278838202E+04 -0.51343981496E+04  0.65000000000E+04  0.10000000000E+01 0.  0.
    9000001    1    1    2    0    0 -0.14109701855E+04 -0.37278838202E+04  0.51343981496E+04  0.65000000000E+04  0.10000000000E+01 0.  0.
</event>
<event>
 4    1  0.2193160E-006  0.1300000E+05  0.7957747E-01  0.1322471E+00
    9000001   -1    0    0    0    0  0.00000000000E+00  0.00000000000E+00  0.64999999231E+04  0.65000000000E+04  0.10000000000E+01 0.  0.
    9000001   -1    0    0    0    0 -0.00000000000E+00 -0.00000000000E+00 -0.64999999231E+04  0.65000000000E+04  0.10000000000E+01 0.  0.
    9000001    1    1    2    0    0  0.37113516442E+04 -0.24907701071E+04 -0.47193148069E+04  0.65000000000E+04  0.10000000000E+01 0.  0.
    9000001    1    1    2    0    0 -0.37113516442E+04  0.24907701071E+04  0.47193148069E+04  0.65000000000E+04  0.10000000000E+01 0.  0.
</event>
<event>
 4    1  0.2193160E-006  0.1300000E+05  0.7957747E-01  0.1322471E+00
    9000001   -1    0    0    0    0  0.00000000000E+00  0.00000000000E+00  0.64999999231E+04  0.65000000000E+04  0.10000000000E+01 0.  0.
    9000001   -1    0    0    0    0 -0.00000000000E+00 -0.00000000000E+00 -0.64999999231E+04  0.65000000000E+04  0.10000000000E+01 0.  0.
    9000001    1    1    2    0    0  0.53225850825E+04 -0.26479548253E+04  0.26283877725E+04  0.65000000000E+04  0.10000000000E+01 0.  0.
    9000001    1    1    2    0    0 -0.53225850825E+04  0.26479548253E+04 -0.26283877725E+04  0.65000000000E+04  0.10000000000E+01 0.  0.
</event>
<event>
 4    1  0.2193160E-006  0.1300000E+05  0.7957747E-01  0.1322471E+00
    9000001   -1    0    0    0    0  0.00000000000E+00  0.00000000000E+00  0.64999999231E+04  0.65000000000E+04  0.10000000000E+01 0.  0.
    9000001   -1    0    0    0    0 -0.00000000000E+00 -0.00000000000E+00 -0.64999999231E+04  0.65000000000E+04  0.10000000000E+01 0.  0.
    9000001    1    1    2    0    0 -0.37611244763E+04 -0.22775579144E+04  0.47871360562E+04  0.65000000000E+04  0.10000000000E+01 0.  0.
    9000001    1    1    2    0    0  0.37611244763E+04  0.22775579144E+04 -0.47871360562E+04  0.65000000000E+04  0.10000000000E+01 0.  0.
</event>
<event>
 4    1  0.2193160E-006  0.1300000E+05  0.7957747E-01  0.1322471E+00
    9000001   -1    0    0    0    0  0.00000000000E+00  0.00000000000E+00  0.64999999231E+04  0.65000000000E+04  0.10000000000E+01 0.  0.
    9000001   -1    0    0    0    0 -0.00000000000E+00 -0.00000000000E+00 -0.64999999231E+04  0.65000000000E+04  0.10000000000E+01 0.  0.
    9000001    1    1    2    0    0  0.37965058453E+04  0.40735584183E+04 -0.33530082283E+04  0.65000000000E+04  0.10000000000E+01 0.  0.
    9000001    1    1    2    0    0 -0.37965058453E+04 -0.40735584183E+04  0.33530082283E+04  0.65000000000E+04  0.10000000000E+01 0.  0.
</event>
<event>
 4    1  0.2193160E-006  0.1300000E+05  0.7957747E-01  0.1322471E+00
    9000001   -1    0    0    0    0  0.00000000000E+00  0.00000000000E+00  0.64999999231E+04  0.65000000000E+04  0.10000000000E+01 0.  0.
    9000001   -1    0    0    0    0 -0.00000000000E+00 -0.00000000000E+00 -0.64999999231E+04  0.65000000000E+04  0.10000000000E+01 0.  0.
    9000001    1    1    2    0    0 -0.22193065827E+04  0.35951732862E+04 -0.49395755217E+04  0.65000000000E+04  0.10000000000E+01 0.  0.
    9000001    1    1    2    0    0  0.22193065827E+04 -0.35951732862E+04  0.49395755217E+04  0.65000000000E+04  0.10000000000E+01 0.  0.
</event>
<event>
 4    1  0.2193160E-006  0.1300000E+05  0.7957747E-01  0.1322471E+00
    9000001   -1    0    0    0    0  0.00000000000E+00  0.00000000000E+00  0.64999999231E+04  0.65000000000E+04  0.10000000000E+01 0.  0.
    9000001   -1    0    0    0    0 -0.00000000000E+00 -0.00000000000E+00 -0.64999999231E+04  0.65000000000E+04  0.10000000000E+01 0.  0.
    9000001    1    1    2    0    0 -0.99410730440E+03  0.59115511744E+04  0.25130285275E+04  0.65000000000E+04  0.10000000000E+01 0.  0.
    9000001    1    1    2    0    0  0.99410730440E+03 -0.59115511744E+04 -0.25130285275E+04  0.65000000000E+04  0.10000000000E+01 0.  0.
</event>
<event>
 4    1  0.2193160E-006  0.1300000E+05  0.7957747E-01  0.1322471E+00
    9000001   -1    0    0    0    0  0.00000000000E+00  0.00000000000E+00  0.64999999231E+04  0.65000000000E+04  0.10000000000E+01 0.  0.
    9000001   -1    0    0    0    0 -0.00000000000E+00 -0.00000000000E+00 -0.64999999231E+04  0.65000000000E+04  0.10000000000E+01 0.  0.
    9000001    1    1    2    0    0  0.19835281126E+04 -0.34245692001E+04  0.51563495828E+04  0.65000000000E+04  0.10000000000E+01 0.  0.
    9000001    1    1    2    0    0 -0.19835281126E+04  0.34245692001E+04 -0.51563495828E+04  0.65000000000E+04  0.10000000000E+01 0.  0.
</event>
<event>
 4    1  0.2193160E-006  0.1300000E+05  0.7957747E-01  0.1322471E+00
    9000001   -1    0    0    0    0  0.00000000000E+00  0.00000000000E+00  0.64999999231E+04  0.65000000000E+04  0.10000000000E+01 0.  0.
    9000001   -1    0    0    0    0 -0.00000000000E+00 -0.00000000000E+00 -0.64999999231E+04  0.65000000000E+04  0.10000000000E+01 0.  0.
    9000001    1    1    2    0    0  0.20827869567E+04 -0.56028140853E+03 -0.61317275083E+04  0.65000000000E+04  0.10000000000E+01 0.  0.
    9000001    1    1    2    0    0 -0.20827869567E+04  0.56028140853E+03  0.61317275083E+04  0.65000000000E+04  0.10000000000E+01 0.  0.
</event>
<event>
 4    1  0.2193160E-006  0.1300000E+05  0.7957747E-01  0.1322471E+00
    9000001   -1    0    0    0    0  0.00000000000E+00  0.00000000000E+00  0.64999999231E+04  0.65000000000E+04  0.10000000000E+01 0.  0.
    9000001   -1    0    0    0    0 -0.00000000000E+00 -0.00000000000E+00 -0.64999999231E+04  0.65000000000E+04  0.10000000000E+01 0.  0.
    9000001    1    1    2    0    0  0.45011893163E+04 -0.46079442622E+04 -0.86956507256E+03  0.65000000000E+04  0.10000000000E+01 0.  0.
    9000001    1    1    2    0    0 -0.45011893163E+04  0.46079442622E+04  0.86956507256E+03  0.65000000000E+04  0.10000000000E+01 0.  0.
</event>
<event>
 4    1  0.2193160E-006  0.1300000E+05  0.7957747E-01  0.1322471E+00
    9000001   -1    0    0    0    0  0.00000000000E+00  0.00000000000E+00  0.64999999231E+04  0.65000000000E+04  0.10000000000E+01 0.  0.
    9000001   -1    0    0    0    0 -0.00000000000E+00 -0.00000000000E+00 -0.64999999231E+04  0.65000000000E+04  0.10000000000E+01 0.  0.
    9000001    1    1    2    0    0  0.25738641279E+04  0.45161227755E+04  0.39025450064E+04  0.65000000000E+04  0.10000000000E+01 0.  0.
    9000001    1    1    2    0    0 -0.25738641279E+04 -0.45161227755E+04 -0.39025450064E+04  0.65000000000E+04  0.10000000000E+01 0.  0.
</event>
<event>
 4    1  0.2193160E-006  0.1300000E+05  0.7957747E-01  0.1322471E+00
    9000001   -1    0    0    0    0  0.00000000000E+00  0.00000000000E+00  0.64999999231E+04  0.65000000000E+04  0.10000000000E+01 0.  0.
    9000001   -1    0    0    0    0 -0.00000000000E+00 -0.00000000000E+00 -0.64999999231E+04  0.65000000000E+04  0.10000000000E+01 0.  0.
    9000001    1    1    2    0    0  0.18172549381E+04  0.34344221824E+04 -0.52107895528E+04  0.65000000000E+04  0.10000000000E+01 0.  0.
    9000001    1    1    2    0    0 -0.18172549381E+04 -0.34344221824E+04  0.52107895528E+04  0.65000000000E+04  0.10000000000E+01 0.  0.
</event>
<event>
 4    1  0.2193160E-006  0.1300000E+05  0.7957747E-01  0.1322471E+00
    9000001   -1    0    0    0    0  0.00000000000E+00  0.00000000000E+00  0.64999999231E+04  0.65000000000E+04  0.10000000000E+01 0.  0.
    9000001   -1    0    0    0    0 -0.00000000000E+00 -0.00000000000E+00 -0.64999999231E+04  0.65000000000E+04  0.10000000000E+01 0.  0.
    9000001    1    1    2    0    0  0.29560095282E+04  0.52547168334E+04  0.24289828467E+04  0.65000000000E+04  0.10000000000E+01 0.  0.
    9000001    1    1    2    0    0 -0.29560095282E+04 -0.52547168334E+04 -0.24289828467E+04  0.65000000000E+04  0.10000000000E+01 0.  0.
</event>
<event>
 4    1  0.2193160E-006  0.1300000E+05  0.7957747E-01  0.1322471E+00
    9000001   -1    0    0    0    0  0.00000000000E+00  0.00000000000E+00  0.64999999231E+04  0.65000000000E+04  0.10000000000E+01 0.  0.
    9000001   -1    0    0    0    0 -0.00000000000E+00 -0.00000000000E+00 -0.64999999231E+04  0.65000000000E+04  0.10000000000E+01 0.  0.
    9000001    1    1    2    0    0 -0.55878494979E+04 -0.22534007047E+04 -0.24388772527E+04  0.65000000000E+04  0.10000000000E+01 0.  0.
    9000001    1    1    2    0    0  0.55878494979E+04  0.22534007047E+04  0.24388772527E+04  0.65000000000E+04  0.10000000000E+01 0.  0.
</event>
<event>
 4    1  0.2193160E-006  0.1300000E+05  0.7957747E-01  0.1322471E+00
    9000001   -1    0    0    0    0  0.00000000000E+00  0.00000000000E+00  0.64999999231E+04  0.65000000000E+04  0.10000000000E+01 0.  0.
    9000001   -1    0    0    0    0 -0.00000000000E+00 -0.00000000000E+00 -0.64999999231E+04  0.65000000000E+04  0.10000000000E+01 0.  0.
    9000001    1    1    2    0    0 -0.97928723117E+03 -0.51059202685E+04  0.39013553710E+04  0.65000000000E+04  0.10000000000E+01 0.  0.
    9000001    1    1    2    0    0  0.97928723117E+03  0.51059202685E+04 -0.39013553710E+04  0.65000000000E+04  0.10000000000E+01 0.  0.
</event>
<event>
 4    1  0.2193160E-006  0.1300000E+05  0.7957747E-01  0.1322471E+00
    9000001   -1    0    0    0    0  0.00000000000E+00  0.00000000000E+00  0.64999999231E+04  0.65000000000E+04  0.10000000000E+01 0.  0.
    9000001   -1    0    0    0    0 -0.00000000000E+00 -0.00000000000E+00 -0.64999999231E+04  0.65000000000E+04  0.10000000000E+01 0.  0.
    9000001    1    1    2    0    0  0.44555544086E+04 -0.40994791839E+04 -0.23648053478E+04  0.65000000000E+04  0.10000000000E+01 0.  0.
    9000001    1    1    2    0    0 -0.44555544086E+04  0.40994791839E+04  0.23648053478E+04  0.65000000000E+04  0.10000000000E+01 0.  0.
</event>
<event>
 4    1  0.2193160E-006  0.1300000E+05  0.7957747E-01  0.1322471E+00
    9000001   -1    0    0    0    0  0.00000000000E+00  0.00000000000E+00  0.64999999231E+04  0.65000000000E+04  0.10000000000E+01 0.  0.
    9000001   -1    0    0    0    0 -0.00000000000E+00 -0.00000000000E+00 -0.64999999231E+04  0.65000000000E+04  0.10000000000E+01 0.  0.
    9000001    1    1    2    0    0  0.61426557495E+03 -0.45819604380E+04 -0.45692795218E+04  0.65000000000E+04  0.10000000000E+01 0.  0.
    9000001    1    1    2    0    0 -0.61426557495E+03  0.45819604380E+04  0.45692795218E+04  0.65000000000E+04  0.10000000000E+01 0.  0.
</event>
<event>
 4    1  0.2193160E-006  0.1300000E+05  0.7957747E-01  0.1322471E+00
    9000001   -1    0    0    0    0  0.00000000000E+00  0.00000000000E+00  0.64999999231E+04  0.65000000000E+04  0.10000000000E+01 0.  0.
    9000001   -1    0    0    0    0 -0.00000000000E+00 -0.00000000000E+00 -0.64999999231E+04  0.65000000000E+04  0.10000000000E+01 0.  0.
    9000001    1    1    2    0    0  0.40414080296E+04 -0.67085215535E+03  0.50464816975E+04  0.65000000000E+04  0.10000000000E+01 0.  0.
    9000001    1    1    2    0    0 -0.40414080296E+04  0.67085215535E+03 -0.50464816975E+04  0.65000000000E+04  0.10000000000E+01 0.  0.
</event>
<event>
 4    1  0.2193160E-006  0.1300000E+05  0.7957747E-01  0.1322471E+00
    9000001   -1    0    0    0    0  0.00000000000E+00  0.00000000000E+00  0.64999999231E+04  0.65000000000E+04  0.10000000000E+01 0.  0.
    9000001   -1    0    0    0    0 -0.00000000000E+00 -0.00000000000E+00 -0.64999999231E+04  0.65000000000E+04  0.10000000000E+01 0.  0.
    9000001    1    1    2    0    0 -0.59065106169E+04 -0.27101003047E+04  0.13596937462E+03  0.65000000000E+04  0.10000000000E+01 0.  0.
    9000001    1    1    2    0    0  0.59065106169E+04  0.27101003047E+04 -0.13596937462E+03  0.65000000000E+04  0.10000000000E+01 0.  0.
</event>
<event>
 4    1  0.2193160E-006  0.1300000E+05  0.7957747E-01  0.1322471E+00
    9000001   -1    0    0    0    0  0.00000000000E+00  0.00000000000E+00  0.64999999231E+04  0.65000000000E+04  0.10000000000E+01 0.  0.
    9000001   -1    0    0    0    0 -0.00000000000E+00 -0.00000000000E+00 -0.64999999231E+04  0.65000000000E+04  0.10000000000E+01 0.  0.
    9000001    1    1    2    0    0 -0.52116794801E+04 -0.35826084138E+04  0.15011039106E+04  0.65000000000E+04  0.10000000000E+01 0.  0.
    9000001    1    1    2    0    0  0.52116794801E+04  0.35826084138E+04 -0.15011039106E+04  0.65000000000E+04  0.10000000000E+01 0.  0.
</event>
<event>
 4    1  0.2193160E-006  0.1300000E+05  0.7957747E-01  0.1322471E+00
    9000001   -1    0    0    0    0  0.00000000000E+00  0.00000000000E+00  0.64999999231E+04  0.65000000000E+04  0.10000000000E+01 0.  0.
    9000001   -1    0    0    0    0 -0.00000000000E+00 -0.00000000000E+00 -0.64999999231E+04  0.65000000000E+04  0.10000000000E+01 0.  0.
    9000001    1    1    2    0    0 -0.17671291920E+04 -0.44735145549E+03  0.62391610088E+04  0.65000000000E+04  0.10000000000E+01 0.  0.
    9000001    1    1    2    0    0  0.17671291920E+04  0.44735145549E+03 -0.62391610088E+04  0.65000000000E+04  0.10000000000E+01 0.  0.
</event>
<event>
 4    1  0.2193160E-006  0.1300000E+05  0.7957747E-01  0.1322471E+00
    9000001   -1    0    0    0    0  0.00000000000E+00  0.00000000000E+00  0.64999999231E+04  0.65000000000E+04  0.10000000000E+01 0.  0.
    9000001   -1    0    0    0    0 -0.00000000000E+00 -0.00000000000E+00 -0.64999999231E+04  0.65000000000E+04  0.10000000000E+01 0.  0.
    9000001    1    1    2    0    0  0.51288799188E+04 -0.35545668002E+04 -0.18192428758E+04  0.65000000000E+04  0.10000000000E+01 0.  0.
    9000001    1    1    2    0    0 -0.51288799188E+04  0.35545668002E+04  0.18192428758E+04  0.65000000000E+04  0.10000000000E+01 0.  0.
</event>
<event>
 4    1  0.2193160E-006  0.1300000E+05  0.7957747E-01  0.1322471E+00
    9000001   -1    0    0    0    0  0.00000000000E+00  0.00000000000E+00  0.64999999231E+04  0.65000000000E+04  0.10000000000E+01 0.  0.
    9000001   -1    0    0    0    0 -0.00000000000E+00 -0.00000000000E+00 -0.64999999231E+04  0.65000000000E+04  0.10000000000E+01 0.  0.
    9000001    1    1    2    0    0  0.58568010333E+03 -0.63978479865E+04 -0.98717726759E+03  0.65000000000E+04  0.10000000000E+01 0.  0.
    9000001    1    1    2    0    0 -0.58568010333E+03  0.63978479865E+04  0.98717726759E+03  0.65000000000E+04  0.10000000000E+01 0.  0.
</event>
<event>
 4    1  0.2193160E-006  0.1300000E+05  0.7957747E-01  0.1322471E+00
    9000001   -1    0    0    0    0  0.00000000000E+00  0.00000000000E+00  0.64999999231E+04  0.65000000000E+04  0.10000000000E+01 0.  0.
    9000001   -1    0    0    0    0 -0.00000000000E+00 -0.00000000000E+00 -0.64999999231E+04  0.65000000000E+04  0.10000000000E+01 0.  0.
    9000001    1    1    2    0    0  0.53178335628E+04  0.21664060434E+04  0.30458709844E+04  0.65000000000E+04  0.10000000000E+01 0.  0.
    9000001    1    1    2    0    0 -0.53178335628E+04 -0.21664060434E+04 -0.30458709844E+04  0.65000000000E+04  0.10000000000E+01 0.  0.
</event>
<event>
 4    1  0.2193160E-006  0.1300000E+05  0.7957747E-01  0.1322471E+00
    9000001   -1    0    0    0    0  0.00000000000E+00  0.00000000000E+00  0.64999999231E+04  0.65000000000E+04  0.10000000000E+01 0.  0.
    9000001   -1    0    0    0    0 -0.00000000000E+00 -0.00000000000E+00 -0.64999999231E+04  0.65000000000E+04  0.10000000000E+01 0.  0.
    9000001    1    1    2    0    0  0.52368790765E+04  0.35844172076E+04 -0.14060760366E+04  0.65000000000E+04  0.10000000000E+01 0.  0.
    9000001    1    1    2    0    0 -0.52368790765E+04 -0.35844172076E+04  0.14060760366E+04  0.65000000000E+04  0.10000000000E+01 0.  0.
</event>
<event>
 4    1  0.2193160E-006  0.1300000E+05  0.7957747E-01  0.1322471E+00
    9000001   -1    0    0    0    0  0.00000000000E+00  0.00000000000E+00  0.64999999231E+04  0.65000000000E+04  0.10000000000E+01 0.  0.
    9000001   -1    0    0    0    0 -0.00000000000E+00 -0.00000000000E+00 -0.64999999231E+04  0.65000000000E+04  0.10000000000E+01 0.  0.
    9000001    1    1    2    0    0  0.24425156671E+04 -0.53560900308E+04  0.27561596104E+04  0.65000000000E+04  0.10000000000E+01 0.  0.
    9000001    1    1    2    0    0 -0.24425156671E+04  0.53560900308E+04 -0.27561596104E+04  0.65000000000E+04  0.10000000000E+01 0.  0.
</event>
<event>
 4    1  0.2193160E-006  0.1300000E+05  0.7957747E-01  0.1322471E+00
    9000001   -1    0    0    0    0  0.00000000000E+00  0.00000000000E+00  0.64999999231E+04  0.65000000000E+04  0.10000000000E+01 0.  0.
    9000001   -1    0    0    0    0 -0.00000000000E+00 -0.00000000000E+00 -0.64999999231E+04  0.65000000000E+04  0.10000000000E+01 0.  0.
    9000001    1    1    2    0    0  0.45049081238E+04  0.46790841268E+04  0.24894483480E+03  0.65000000000E+04  0.10000000000E+01 0.  0.
    9000001    1    1    2    0    0 -0.45049081238E+04 -0.46790841268E+04 -0.24894483480E+03  0.65000000000E+04  0.10000000000E+01 0.  0.
</event>
<event>
 4    1  0.2193160E-006  0.1300000E+05  0.7957747E-01  0.1322471E+00
    9000001   -1    0    0    0    0  0.00000000000E+00  0.00000000000E+00  0.64999999231E+04  0.65000000000E+04  0.10000000000E+01 0.  0.
    9000001   -1    0    0    0    0 -0.00000000000E+00 -0.00000000000E+00 -0.64999999231E+04  0.65000000000E+04  0.10000000000E+01 0.  0.
    9000001    1    1    2    0    0  0.57791460685E+04  0.80256849802E+03  0.28648479061E+04  0.65000000000E+04  0.10000000000E+01 0.  0.
    9000001    1    1    2    0    0 -0.57791460685E+04 -0.80256849802E+03 -0.28648479061E+04  0.65000000000E+04  0.10000000000E+01 0.  0.
</event>
<event>
 4    1  0.2193160E-006  0.1300000E+05  0.7957747E-01  0.1322471E+00
    9000001   -1    0    0    0    0  0.00000000000E+00  0.00000000000E+00  0.64999999231E+04  0.65000000000E+04  0.10000000000E+01 0.  0.
    9000001   -1    0    0    0    0 -0.00000000000E+00 -0.00000000000E+00 -0.64999999231E+04  0.65000000000E+04  0.10000000000E+01 0.  0.
    9000001    1    1    2    0    0  0.32895983515E+04  0.34938808066E+04 -0.43842147068E+04  0.65000000000E+04  0.10000000000E+01 0.  0.
    9000001    1    1    2    0    0 -0.32895983515E+04 -0.34938808066E+04  0.43842147068E+04  0.65000000000E+04  0.10000000000E+01 0.  0.
</event>
<event>
 4    1  0.2193160E-006  0.1300000E+05  0.7957747E-01  0.1322471E+00
    9000001   -1    0    0    0    0  0.00000000000E+00  0.00000000000E+00  0.64999999231E+04  0.65000000000E+04  0.10000000000E+01 0.  0.
    9000001   -1    0    0    0    0 -0.00000000000E+00 -0.00000000000E+00 -0.64999999231E+04  0.65000000000E+04  0.10000000000E+01 0.  0.
    9000001    1    1    2    0    0 -0.11477431614E+03 -0.63681494945E+04 -0.12974967713E+04  0.65000000000E+04  0.10000000000E+01 0.  0.
    9000001    1    1    2    0    0  0.11477431614E+03  0.63681494945E+04  0.12974967713E+04  0.65000000000E+04  0.10000000000E+01 0.  0.
</event>
<event>
 4    1  0.2193160E-006  0.1300000E+05  0.7957747E-01  0.1322471E+00
    9000001   -1    0    0    0    0  0.00000000000E+00  0.00000000000E+00  0.64999999231E+04  0.65000000000E+04  0.10000000000E+01 0.  0.
    9000001   -1    0    0    0    0 -0.00000000000E+00 -0.00000000000E+00 -0.64999999231E+04  0.65000000000E+04  0.10000000000E+01 0.  0.
    9000001    1    1    2    0    0  0.50610409871E+04 -0.37850961272E+04  0.15195099326E+04  0.65000000000E+04  0.10000000000E+01 0.  0.
    9000001    1    1    2    0    0 -0.50610409871E+04  0.37850961272E+04 -0.15195099326E+04  0.65000000000E+04  0.10000000000E+01 0.  0.
</event>
<event>
 4    1  0.2193160E-006  0.1300000E+05  0.7957747E-01  0.1322471E+00
    9000001   -1    0    0    0    0  0.00000000000E+00  0.00000000000E+00  0.64999999231E+04  0.65000000000E+04  0.10000000000E+01 0.  0.
    9000001   -1    0    0    0    0 -0.00000000000E+00 -0.00000000000E+00 -0.64999999231E+04  0.65000000000E+04  0.10000000000E+01 0.  0.
    9000001    1    1    2    0    0 -0.40818329493E+04 -0.44718562451E+04  0.23645592606E+04  0.65000000000E+04  0.10000000000E+01 0.  0.
    9000001    1    1    2    0    0  0.40818329493E+04  0.44718562451E+04 -0.23645592606E+04  0.65000000000E+04  0.10000000000E+01 0.  0.
</event>
<event>
 4    1  0.2193160E-006  0.1300000E+05  0.7957747E-01  0.1322471E+00
    9000001   -1    0    0    0    0  0.00000000000E+00  0.00000000000E+00  0.64999999231E+04  0.65000000000E+04  0.10000000000E+01 0.  0.
    9000001   -1    0    0    0    0 -0.00000000000E+00 -0.00000000000E+00 -0.64999999231E+04  0.65000000000E+04  0.10000000000E+01 0.  0.
    9000001    1    1    2    0    0 -0.12633873974E+02  0.55129971812E+04 -0.34433561340E+04  0.65000000000E+04  0.10000000000E+01 0.  0.
    9000001    1    1    2    0    0  0.12633873974E+02 -0.55129971812E+04  0.34433561340E+04  0.65000000000E+04  0.10000000000E+01 0.  0.
</event>
<event>
 4    1  0.2193160E-006  0.1300000E+05  0.7957747E-01  0.1322471E+00
    9000001   -1    0    0    0    0  0.00000000000E+00  0.00000000000E+00  0.64999999231E+04  0.65000000000E+04  0.10000000000E+01 0.  0.
    9000001   -1    0    0    0    0 -0.00000000000E+00 -0.00000000000E+00 -0.64999999231E+04  0.65000000000E+04  0.10000000000E+01 0.  0.
    9000001    1    1    2    0    0 -0.16862487494E+04 -0.52851539469E+04  0.33872868069E+04  0.65000000000E+04  0.10000000000E+01 0.  0.
    9000001    1    1    2    0    0  0.16862487494E+04  0.52851539469E+04 -0.33872868069E+04  0.65000000000E+04  0.10000000000E+01 0.  0.
</event>
<event>
 4    1  0.2193160E-006  0.1300000E+05  0.7957747E-01  0.1322471E+00
    9000001   -1    0    0    0    0  0.00000000000E+00  0.00000000000E+00  0.64999999231E+04  0.65000000000E+04  0.10000000000E+01 0.  0.
    9000001   -1    0    0    0    0 -0.00000000000E+00 -0.00000000000E+00 -0.64999999231E+04  0.65000000000E+04  0.10000000000E+01 0.  0.
    9000001    1    1    2    0    0  0.60307822919E+04 -0.57527364793E+03  0.23555730041E+04  0.65000000000E+04  0.10000000000E+01 0.  0.
    9000001    1    1    2    0    0 -0.60307822919E+04  0.57527364793E+03 -0.23555730041E+04  0.65000000000E+04  0.10000000000E+01 0.  0.
</event>
<event>
 4    1  0.2193160E-006  0.1300000E+05  0.7957747E-01  0.1322471E+00
    9000001   -1    0    0    0    0  0.00000000000E+00  0.00000000000E+00  0.64999999231E+04  0.65000000000E+04  0.10000000000E+01 0.  0.
    9000001   -1    0    0    0    0 -0.00000000000E+00 -0.00000000000E+00 -0.64999999231E+04  0.65000000000E+04  0.10000000000E+01 0.  0.
    9000001    1    1    2    0    0  0.32601976579E+04 -0.42394116299E+04 -0.36943875357E+04  0.65000000000E+04  0.10000000000E+01 0.  0.
    9000001    1    1    2    0    0 -0.32601976579E+04  0.42394116299E+04  0.36943875357E+04  0.65000000000E+04  0.10000000000E+01 0.  0.
</event>
<event>
 4    1  0.2193160E-006  0.1300000E+05  0.7957747E-01  0.1322471E+00
    9000001   -1    0    0    0    0  0.00000000000E+00  0.00000000000E+00  0.64999999231E+04  0.65000000000E+04  0.10000000000E+01 0.  0.
    9000001   -1    0    0    0    0 -0.00000000000E+00 -0.00000000000E+00 -0.64999999231E+04  0.65000000000E+04  0.10000000000E+01 0.  0.
    9000001    1    1    2    0    0  0.58317079486E+03  0.46892509574E+04  0.44632764066E+04  0.65000000000E+04  0.10000000000E+01 0.  0.
    9000001    1    1    2    0    0 -0.58317079486E+03 -0.46892509574E+04 -0.44632764066E+04  0.65000000000E+04  0.10000000000E+01 0.  0.
</event>
<event>
 4    1  0.2193160E-006  0.1300000E+05  0.7957747E-01  0.1322471E+00
    9000001   -1    0    0    0    0  0.00000000000E+00  0.00000000000E+00  0.64999999231E+04  0.65000000000E+04  0.10000000000E+01 0.  0.
    9000001   -1    0    0    0    0 -0.00000000000E+00 -0.00000000000E+00 -0.64999999231E+04  0.65000000000E+04  0.10000000000E+01 0.  0.
    9000001    1    1    2    0    0  0.62548024417E+04 -0.15111706383E+04  0.91859061457E+03  0.65000000000E+04  0.10000000000E+01 0.  0.
    9000001    1    1    2    0    0 -0.62548024417E+04  0.15111706383E+04 -0.91859061457E+03  0.65000000000E+04  0.10000000000E+01 0.  0.
</event>
<event>
 4    1  0.2193160E-006  0.1300000E+05  0.7957747E-01  0.1322471E+00
    9000001   -1    0    0    0    0  0.00000000000E+00  0.00000000000E+00  0.64999999231E+04  0.65000000000E+04  0.10000000000E+01 0.  0.
    9000001   -1    0    0    0    0 -0.00000000000E+00 -0.00000000000E+00 -0.64999999231E+04  0.65000000000E+04  0.10000000000E+01 0.  0.
    9000001    1    1    2    0    0  0.52144520348E+04 -0.16230531239E+04  0.35249379475E+04  0.65000000000E+04  0.10000000000E+01 0.  0.
    9000001    1    1    2    0    0 -0.52144520348E+04  0.16230531239E+04 -0.35249379475E+04  0.65000000000E+04  0.10000000000E+01 0.  0.
</event>
<event>
 4    1  0.2193160E-006  0.1300000E+05  0.7957747E-01  0.1322471E+00
    9000001   -1    0    0    0    0  0.00000000000E+00  0.00000000000E+00  0.64999999231E+04  0.65000000000E+04  0.10000000000E+01 0.  0.
    9000001   -1    0    0    0    0 -0.00000000000E+00 -0.00000000000E+00 -0.64999999231E+04  0.65000000000E+04  0.10000000000E+01 0.  0.
    9000001    1    1    2    0    0  0.99585538123E+03  0.54807787186E+04 -0.33495276827E+04  0.65000000000E+04  0.10000000000E+01 0.  0.
    9000001    1    1    2    0    0 -0.99585538123E+03 -0.54807787186E+04  0.33495276827E+04  0.65000000000E+04  0.10000000000E+01 0.  0.
</event>
<event>
 4    1  0.2193160E-006  0.1300000E+05  0.7957747E-01  0.1322471E+00
    9000001   -1    0    0    0    0  0.00000000000E+00  0.00000000000E+00  0.64999999231E+04  0.65000000000E+04  0.10000000000E+01 0.  0.
    9000001   -1    0    0    0    0 -0.00000000000E+00 -0.00000000000E+00 -0.64999999231E+04  0.65000000000E+04  0.10000000000E+01 0.  0.
    9000001    1    1    2    0    0  0.38174200681E+04 -0.37362991974E+03 -0.52476379169E+04  0.65000000000E+04  0.10000000000E+01 0.  0.
    9000001    1    1    2    0    0 -0.38174200681E+04  0.37362991974E+03  0.52476379169E+04  0.65000000000E+04  0.10000000000E+01 0.  0.
</event>
<event>
 4    1  0.2193160E-006  0.1300000E+05  0.7957747E-01  0.1322471E+00
    9000001   -1    0    0    0    0  0.00000000000E+00  0.00000000000E+00  0.64999999231E+04  0.65000000000E+04  0.10000000000E+01 0.  0.
    9000001   -1    0    0    0    0 -0.00000000000E+00 -0.00000000000E+00 -0.64999999231E+04  0.65000000000E+04  0.10000000000E+01 0.  0.
    9000001    1    1    2    0    0 -0.28786101762E+04  0.35548247232E+04 -0.46180974048E+04  0.65000000000E+04  0.10000000000E+01 0.  0.
    9000001    1    1    2    0    0  0.28786101762E+04 -0.35548247232E+04  0.46180974048E+04  0.65000000000E+04  0.10000000000E+01 0.  0.
</event>
<event>
 4    1  0.2193160E-006  0.1300000E+05  0.7957747E-01  0.1322471E+00
    9000001   -1    0    0    0    0  0.00000000000E+00  0.00000000000E+00  0.64999999231E+04  0.65000000000E+04  0.10000000000E+01 0.  0.
    9000001   -1    0    0    0    0 -0.00000000000E+00 -0.00000000000E+00 -0.64999999231E+04  0.65000000000E+04  0.10000000000E+01 0.  0.
    9000001    1    1    2    0    0 -0.45240453396E+04  0.40184853523E+04  0.23737708899E+04  0.65000000000E+04  0.10000000000E+01 0.  0.
    9000001    1    1    2    0    0  0.45240453396E+04 -0.40184853523E+04 -0.23737708899E+04  0.65000000000E+04  0.10000000000E+01 0.  0.
</event>
<event>
 4    1  0.2193160E-006  0.1300000E+05  0.7957747E-01  0.1322471E+00
    9000001   -1    0    0    0    0  0.00000000000E+00  0.00000000000E+00  0.64999999231E+04  0.65000000000E+04  0.10000000000E+01 0.  0.
    9000001   -1    0    0    0    0 -0.00000000000E+00 -0.00000000000E+00 -0.64999999231E+04  0.65000000000E+04  0.10000000000E+01 0.  0.
    9000001    1    1    2    0    0  0.25268935320E+04 -0.59305079597E+04  0.83299664953E+03  0.65000000000E+04  0.10000000000E+01 0.  0.
    9000001    1    1    2    0    0 -0.25268935320E+04  0.59305079597E+04 -0.83299664953E+03  0.65000000000E+04  0.10000000000E+01 0.  0.
</event>
<event>
 4    1  0.2193160E-006  0.1300000E+05  0.7957747E-01  0.1322471E+00
    9000001   -1    0    0    0    0  0.00000000000E+00  0.00000000000E+00  0.64999999231E+04  0.65000000000E+04  0.10000000000E+01 0.  0.
    9000001   -1    0    0    0    0 -0.00000000000E+00 -0.00000000000E+00 -0.64999999231E+04  0.65000000000E+04  0.10000000000E+01 0.  0.
    9000001    1    1    2    0    0 -0.17292048155E+04 -0.19715870805E+04  0.59474947743E+04  0.65000000000E+04  0.10000000000E+01 0.  0.
    9000001    1    1    2    0    0  0.17292048155E+04  0.19715870805E+04 -0.59474947743E+04  0.65000000000E+04  0.10000000000E+01 0.  0.
</event>
<event>
 4    1  0.2193160E-006  0.1300000E+05  0.7957747E-01  0.1322471E+00
    9000001   -1    0    0    0    0  0.00000000000E+00  0.00000000000E+00  0.64999999231E+04  0.65000000000E+04  0.10000000000E+01 0.  0.
    9000001   -1    0    0    0    0 -0.00000000000E+00 -0.00000000000E+00 -0.64999999231E+04  0.65000000000E+04  0.10000000000E+01 0.  0.
    9000001    1    1    2    0    0 -0.25277740135E+04  0.23621061859E+04 -0.55028003692E+04  0.65000000000E+04  0.10000000000E+01 0.  0.
    9000001    1    1    2    0    0  0.25277740135E+04 -0.23621061859E+04  0.55028003692E+04  0.65000000000E+04  0.10000000000E+01 0.  0.
</event>
<event>
 4    1  0.2193160E-006  0.1300000E+05  0.7957747E-01  0.1322471E+00
    9000001   -1    0    0    0    0  0.00000000000E+00  0.00000000000E+00  0.64999999231E+04  0.65000000000E+04  0.10000000000E+01 0.  0.
    9000001   -1    0    0    0    0 -0.00000000000E+00 -0.00000000000E+00 -0.64999999231E+04  0.65000000000E+04  0.10000000000E+01 0.  0.
    9000001    1    1    2    0    0 -0.30305009276E+04  0.56173120944E+04  0.12295804009E+04  0.65000000000E+04  0.10000000000E+01 0.  0.
    9000001    1    1    2    0    0  0.30305009276E+04 -0.56173120944E+04 -0.12295804009E+04  0.65000000000E+04  0.10000000000E+01 0.  0.
</event>
<event>
 4    1  0.2193160E-006  0.1300000E+05  0.7957747E-01  0.1322471E+00
    9000001   -1    0    0    0    0  0.00000000000E+00  0.00000000000E+00  0.64999999231E+04  0.65000000000E+04  0.10000000000E+01 0.  0.
    9000001   -1    0    0    0    0 -0.00000000000E+00 -0.00000000000E+00 -0.64999999231E+04  0.65000000000E+04  0.10000000000E+01 0.  0.
    9000001    1    1    2    0    0 -0.38170579804E+04 -0.46335734569E+04  0.24920000790E+04  0.65000000000E+04  0.10000000000E+01 0.  0.
    9000001    1    1    2    0    0  0.38170579804E+04  0.46335734569E+04 -0.24920000790E+04  0.65000000000E+04  0.10000000000E+01 0.  0.
</event>
<event>
 4    1  0.2193160E-006  0.1300000E+05  0.7957747E-01  0.1322471E+00
    9000001   -1    0    0    0    0  0.00000000000E+00  0.00000000000E+00  0.64999999231E+04  0.65000000000E+04  0.10000000000E+01 0.  0.
    9000001   -1    0    0    0    0 -0.00000000000E+00 -0.00000000000E+00 -0.64999999231E+04  0.65000000000E+04  0.10000000000E+01 0.  0.
    9000001    1    1    2    0    0  0.17590372783E+04  0.38357497295E+04 -0.49439671182E+04  0.65000000000E+04  0.10000000000E+01 0.  0.
    9000001    1    1    2    0    0 -0.17590372783E+04 -0.38357497295E+04  0.49439671182E+04  0.65000000000E+04  0.10000000000E+01 0.  0.
</event>
<event>
 4    1  0.2193160E-006  0.1300000E+05  0.7957747E-01  0.1322471E+00
    9000001   -1    0    0    0    0  0.00000000000E+00  0.00000000000E+00  0.64999999231E+04  0.65000000000E+04  0.10000000000E+01 0.  0.
    9000001   -1    0    0    0    0 -0.00000000000E+00 -0.00000000000E+00 -0.64999999231E+04  0.65000000000E+04  0.10000000000E+01 0.  0.
    9000001    1    1    2    0    0 -0.52064466158E+04 -0.34022249204E+04 -0.18888563280E+04  0.65000000000E+04  0.10000000000E+01 0.  0.
    9000001    1    1    2    0    0  0.52064466158E+04  0.34022249204E+04  0.18888563280E+04  0.65000000000E+04  0.10000000000E+01 0.  0.
</event>
<event>
 4    1  0.2193160E-006  0.1300000E+05  0.7957747E-01  0.1322471E+00
    9000001   -1    0    0    0    0  0.00000000000E+00  0.00000000000E+00  0.64999999231E+04  0.65000000000E+04  0.10000000000E+01 0.  0.
    9000001   -1    0    0    0    0 -0.00000000000E+00 -0.00000000000E+00 -0.64999999231E+04  0.65000000000E+04  0.10000000000E+01 0.  0.
    9000001    1    1    2    0    0  0.58224359580E+04  0.22987102322E+04  0.17507626292E+04  0.65000000000E+04  0.10000000000E+01 0.  0.
    9000001    1    1    2    0    0 -0.58224359580E+04 -0.22987102322E+04 -0.17507626292E+04  0.65000000000E+04  0.10000000000E+01 0.  0.
</event>
<event>
 4    1  0.2193160E-006  0.1300000E+05  0.7957747E-01  0.1322471E+00
    9000001   -1    0    0    0    0  0.00000000000E+00  0.00000000000E+00  0.64999999231E+04  0.65000000000E+04  0.10000000000E+01 0.  0.
    9000001   -1    0    0    0    0 -0.00000000000E+00 -0.00000000000E+00 -0.64999999231E+04  0.65000000000E+04  0.10000000000E+01 0.  0.
    9000001    1    1    2    0    0  0.30282736458E+04 -0.29775148878E+04 -0.49207685191E+04  0.65000000000E+04  0.10000000000E+01 0.  0.
    9000001    1    1    2    0    0 -0.30282736458E+04  0.29775148878E+04  0.49207685191E+04  0.65000000000E+04  0.10000000000E+01 0.  0.
</event>
<event>
 4    1  0.2193160E-006  0.1300000E+05  0.7957747E-01  0.1322471E+00
    9000001   -1    0    0    0    0  0.00000000000E+00  0.00000000000E+00  0.64999999231E+04  0.65000000000E+04  0.10000000000E+01 0.  0.
    9000001   -1    0    0    0    0 -0.00000000000E+00 -0.00000000000E+00 -0.64999999231E+04  0.65000000000E+04  0.10000000000E+01 0.  0.
    9000001    1    1    2    0    0 -0.57160164376E+04  0.30932106502E+04 -0.95932054786E+02  0.65000000000E+04  0.10000000000E+01 0.  0.
    9000001    1    1    2    0    0  0.57160164376E+04 -0.30932106502E+04  0.95932054786E+02  0.65000000000E+04  0.10000000000E+01 0.  0.
</event>
<event>
 4    1  0.2193160E-006  0.1300000E+05  0.7957747E-01  0.1322471E+00
    9000001   -1    0    0    0    0  0.00000000000E+00  0.00000000000E+00  0.64999999231E+04  0.65000000000E+04  0.10000000000E+01 0.  0.
    9000001   -1    0    0    0    0 -0.00000000000E+00 -0.00000000000E+00 -0.64999999231E+04  0.65000000000E+04  0.10000000000E+01 0.  0.
    9000001    1    1    2    0    0  0.60251696660E+04  0.13608912940E+04  0.20236858407E+04  0.65000000000E+04  0.10000000000E+01 0.  0.
    9000001    1    1    2    0    0 -0.60251696660E+04 -0.13608912940E+04 -0.20236858407E+04  0.65000000000E+04  0.10000000000E+01 0.  0.
</event>
<event>
 4    1  0.2193160E-006  0.1300000E+05  0.7957747E-01  0.1322471E+00
    9000001   -1    0    0    0    0  0.00000000000E+00  0.00000000000E+00  0.64999999231E+04  0.65000000000E+04  0.10000000000E+01 0.  0.
    9000001   -1    0    0    0    0 -0.00000000000E+00 -0.00000000000E+00 -0.64999999231E+04  0.65000000000E+04  0.10000000000E+01 0.  0.
    9000001    1    1    2    0    0 -0.95559825243E+03  0.39127054631E+04  0.51017219582E+04  0.65000000000E+04  0.10000000000E+01 0.  0.
    9000001    1    1    2    0    0  0.95559825243E+03 -0.39127054631E+04 -0.51017219582E+04  0.65000000000E+04  0.10000000000E+01 0.  0.
</event>
<event>
 4    1  0.2193160E-006  0.1300000E+05  0.7957747E-01  0.1322471E+00
    9000001   -1    0    0    0    0  0.00000000000E+00  0.00000000000E+00  0.64999999231E+04  0.65000000000E+04  0.10000000000E+01 0.  0.
    9000001   -1    0    0    0    0 -0.00000000000E+00 -0.00000000000E+00 -0.64999999231E+04  0.65000000000E+04  0.10000000000E+01 0.  0.
    9000001    1    1    2    0    0  0.36235785439E+04 -0.33149840396E+04  0.42579993369E+04  0.65000000000E+04  0.10000000000E+01 0.  0.
    9000001    1    1    2    0    0 -0.36235785439E+04  0.33149840396E+04 -0.42579993369E+04  0.65000000000E+04  0.10000000000E+01 0.  0.
</event>
<event>
 4    1  0.2193160E-006  0.1300000E+05  0.7957747E-01  0.1322471E+00
    9000001   -1    0    0    0    0  0.00000000000E+00  0.00000000000E+00  0.64999999231E+04  0.65000000000E+04  0.10000000000E+01 0.  0.
    9000001   -1    0    0    0    0 -0.00000000000E+00 -0.00000000000E+00 -0.64999999231E+04  0.65000000000E+04  0.10000000000E+01 0.  0.
    9000001    1    1    2    0    0 -0.50669369916E+04 -0.13034262957E+04 -0.38571010377E+04  0.65000000000E+04  0.10000000000E+01 0.  0.
    9000001    1    1    2    0    0  0.50669369916E+04  0.13034262957E+04  0.38571010377E+04  0.65000000000E+04  0.10000000000E+01 0.  0.
</event>
<event>
 4    1  0.2193160E-006  0.1300000E+05  0.7957747E-01  0.1322471E+00
    9000001   -1    0    0    0    0  0.00000000000E+00  0.00000000000E+00  0.64999999231E+04  0.65000000000E+04  0.10000000000E+01 0.  0.
    9000001   -1    0    0    0    0 -0.00000000000E+00 -0.00000000000E+00 -0.64999999231E+04  0.65000000000E+04  0.10000000000E+01 0.  0.
    9000001    1    1    2    0    0 -0.45921558993E+04  0.25610988498E+04 -0.38213709422E+04  0.65000000000E+04  0.10000000000E+01 0.  0.
    9000001    1    1    2    0    0  0.45921558993E+04 -0.25610988498E+04  0.38213709422E+04  0.65000000000E+04  0.10000000000E+01 0.  0.
</event>
<event>
 4    1  0.2193160E-006  0.1300000E+05  0.7957747E-01  0.1322471E+00
    9000001   -1    0    0    0    0  0.00000000000E+00  0.00000000000E+00  0.64999999231E+04  0.65000000000E+04  0.10000000000E+01 0.  0.
    9000001   -1    0    0    0    0 -0.00000000000E+00 -0.00000000000E+00 -0.64999999231E+04  0.65000000000E+04  0.10000000000E+01 0.  0.
    9000001    1    1    2    0    0 -0.11431059000E+04  0.56538192421E+03  0.63736685811E+04  0.65000000000E+04  0.10000000000E+01 0.  0.
    9000001    1    1    2    0    0  0.11431059000E+04 -0.56538192421E+03 -0.63736685811E+04  0.65000000000E+04  0.10000000000E+01 0.  0.
</event>
<event>
 4    1  0.2193160E-006  0.1300000E+05  0.7957747E-01  0.1322471E+00
    9000001   -1    0    0    0    0  0.00000000000E+00  0.00000000000E+00  0.64999999231E+04  0.65000000000E+04  0.10000000000E+01 0.  0.
    9000001   -1    0    0    0    0 -0.00000000000E+00 -0.00000000000E+00 -0.64999999231E+04  0.65000000000E+04  0.10000000000E+01 0.  0.
    9000001    1    1    2    0    0  0.33237961901E+04 -0.23885924543E+04  0.50494558097E+04  0.65000000000E+04  0.10000000000E+01 0.  0.
    9000001    1    1    2    0    0 -0.33237961901E+04  0.23885924543E+04 -0.50494558097E+04  0.65000000000E+04  0.10000000000E+01 0.  0.
</event>
<event>
 4    1  0.2193160E-006  0.1300000E+05  0.7957747E-01  0.1322471E+00
    9000001   -1    0    0    0    0  0.00000000000E+00  0.00000000000E+00  0.64999999231E+04  0.65000000000E+04  0.10000000000E+01 0.  0.
    9000001   -1    0    0    0    0 -0.00000000000E+00 -0.00000000000E+00 -0.64999999231E+04  0.65000000000E+04  0.10000000000E+01 0.  0.
    9000001    1    1    2    0    0  0.57141080294E+04  0.21639896040E+04 -0.22172319279E+04  0.65000000000E+04  0.10000000000E+01 0.  0.
    9000001    1    1    2    0    0 -0.57141080294E+04 -0.21639896040E+04  0.22172319279E+04  0.65000000000E+04  0.10000000000E+01 0.  0.
</event>
<event>
 4    1  0.2193160E-006  0.1300000E+05  0.7957747E-01  0.1322471E+00
    9000001   -1    0    0    0    0  0.00000000000E+00  0.00000000000E+00  0.64999999231E+04  0.65000000000E+04  0.10000000000E+01 0.  0.
    9000001   -1    0    0    0    0 -0.00000000000E+00 -0.00000000000E+00 -0.64999999231E+04  0.65000000000E+04  0.10000000000E+01 0.  0.
    9000001    1    1    2    0    0 -0.29850099817E+04  0.27706751909E+04 -0.50658734089E+04  0.65000000000E+04  0.10000000000E+01 0.  0.
    9000001    1    1    2    0    0  0.29850099817E+04 -0.27706751909E+04  0.50658734089E+04  0.65000000000E+04  0.10000000000E+01 0.  0.
</event>
<event>
 4    1  0.2193160E-006  0.1300000E+05  0.7957747E-01  0.1322471E+00
    9000001   -1    0    0    0    0  0.00000000000E+00  0.00000000000E+00  0.64999999231E+04  0.65000000000E+04  0.10000000000E+01 0.  0.
    9000001   -1    0    0    0    0 -0.00000000000E+00 -0.00000000000E+00 -0.64999999231E+04  0.65000000000E+04  0.10000000000E+01 0.  0.
    9000001    1    1    2    0    0  0.39462962023E+04 -0.35601663035E+04  0.37419194507E+04  0.65000000000E+04  0.10000000000E+01 0.  0.
    9000001    1    1    2    0    0 -0.39462962023E+04  0.35601663035E+04 -0.37419194507E+04  0.65000000000E+04  0.10000000000E+01 0.  0.
</event>
<event>
 4    1  0.2193160E-006  0.1300000E+05  0.7957747E-01  0.1322471E+00
    9000001   -1    0    0    0    0  0.00000000000E+00  0.00000000000E+00  0.64999999231E+04  0.65000000000E+04  0.10000000000E+01 0.  0.
    9000001   -1    0    0    0    0 -0.00000000000E+00 -0.00000000000E+00 -0.64999999231E+04  0.65000000000E+04  0.10000000000E+01 0.  0.
    9000001    1    1    2    0    0 -0.27390246087E+04 -0.14661727896E+04  0.57094728780E+04  0.65000000000E+04  0.10000000000E+01 0.  0.
    9000001    1    1    2    0    0  0.27390246087E+04  0.14661727896E+04 -0.57094728780E+04  0.65000000000E+04  0.10000000000E+01 0.  0.
</event>
<event>
 4    1  0.2193160E-006  0.1300000E+05  0.7957747E-01  0.1322471E+00
    9000001   -1    0    0    0    0  0.00000000000E+00  0.00000000000E+00  0.64999999231E+04  0.65000000000E+04  0.10000000000E+01 0.  0.
    9000001   -1    0    0    0    0 -0.00000000000E+00 -0.00000000000E+00 -0.64999999231E+04  0.65000000000E+04  0.10000000000E+01 0.  0.
    9000001    1    1    2    0    0 -0.19762481060E+04 -0.60000147258E+04  0.15310995114E+04  0.65000000000E+04  0.10000000000E+01 0.  0.
    9000001    1    1    2    0    0  0.19762481060E+04  0.60000147258E+04 -0.15310995114E+04  0.65000000000E+04  0.10000000000E+01 0.  0.
</event>
<event>
 4    1  0.2193160E-006  0.1300000E+05  0.7957747E-01  0.1322471E+00
    9000001   -1    0    0    0    0  0.00000000000E+00  0.00000000000E+00  0.64999999231E+04  0.65000000000E+04  0.10000000000E+01 0.  0.
    9000001   -1    0    0    0    0 -0.00000000000E+00 -0.00000000000E+00 -0.64999999231E+04  0.65000000000E+04  0.10000000000E+01 0.  0.
    9000001    1    1    2    0    0  0.31291838265E+04  0.29729707771E+04  0.48600053846E+04  0.65000000000E+04  0.10000000000E+01 0.  0.
    9000001    1    1    2    0    0 -0.31291838265E+04 -0.29729707771E+04 -0.48600053846E+04  0.65000000000E+04  0.10000000000E+01 0.  0.
</event>
<event>
 4    1  0.2193160E-006  0.1300000E+05  0.7957747E-01  0.1322471E+00
    9000001   -1    0    0    0    0  0.00000000000E+00  0.00000000000E+00  0.64999999231E+04  0.65000000000E+04  0.10000000000E+01 0.  0.
    9000001   -1    0    0    0    0 -0.00000000000E+00 -0.00000000000E+00 -0.64999999231E+04  0.65000000000E+04  0.10000000000E+01 0.  0.
    9000001    1    1    2    0    0 -0.52156928896E+04 -0.24125488063E+04  0.30374586316E+04  0.65000000000E+04  0.10000000000E+01 0.  0.
    9000001    1    1    2    0    0  0.52156928896E+04  0.24125488063E+04 -0.30374586316E+04  0.65000000000E+04  0.10000000000E+01 0.  0.
</event>
<event>
 4    1  0.2193160E-006  0.1300000E+05  0.7957747E-01  0.1322471E+00
    9000001   -1    0    0    0    0  0.00000000000E+00  0.00000000000E+00  0.64999999231E+04  0.65000000000E+04  0.10000000000E+01 0.  0.
    9000001   -1    0    0    0    0 -0.00000000000E+00 -0.00000000000E+00 -0.64999999231E+04  0.65000000000E+04  0.10000000000E+01 0.  0.
    9000001    1    1    2    0    0  0.22314850897E+04  0.51660116312E+04 -0.32531211353E+04  0.65000000000E+04  0.10000000000E+01 0.  0.
    9000001    1    1    2    0    0 -0.22314850897E+04 -0.51660116312E+04  0.32531211353E+04  0.65000000000E+04  0.10000000000E+01 0.  0.
</event>
<event>
 4    1  0.2193160E-006  0.1300000E+05  0.7957747E-01  0.1322471E+00
    9000001   -1    0    0    0    0  0.00000000000E+00  0.00000000000E+00  0.64999999231E+04  0.65000000000E+04  0.10000000000E+01 0.  0.
    9000001   -1    0    0    0    0 -0.00000000000E+00 -0.00000000000E+00 -0.64999999231E+04  0.65000000000E+04  0.10000000000E+01 0.  0.
    9000001    1    1    2    0    0  0.17791800287E+04 -0.55341265631E+04 -0.29082573148E+04  0.65000000000E+04  0.10000000000E+01 0.  0.
    9000001    1    1    2    0    0 -0.17791800287E+04  0.55341265631E+04  0.29082573148E+04  0.65000000000E+04  0.10000000000E+01 0.  0.
</event>
<event>
 4    1  0.2193160E-006  0.1300000E+05  0.7957747E-01  0.1322471E+00
    9000001   -1    0    0    0    0  0.00000000000E+00  0.00000000000E+00  0.64999999231E+04  0.65000000000E+04  0.10000000000E+01 0.  0.
    9000001   -1    0    0    0    0 -0.00000000000E+00 -0.00000000000E+00 -0.64999999231E+04  0.65000000000E+04  0.10000000000E+01 0.  0.
    9000001    1    1    2    0    0  0.59584295739E+04 -0.18158478797E+04  0.18573670855E+04  0.65000000000E+04  0.10000000000E+01 0.  0.
    9000001    1    1    2    0    0 -0.59584295739E+04  0.18158478797E+04 -0.18573670855E+04  0.65000000000E+04  0.10000000000E+01 0.  0.
</event>
<event>
 4    1  0.2193160E-006  0.1300000E+05  0.7957747E-01  0.1322471E+00
    9000001   -1    0    0    0    0  0.00000000000E+00  0.00000000000E+00  0.64999999231E+04  0.65000000000E+04  0.10000000000E+01 0.  0.
    9000001   -1    0    0    0    0 -0.00000000000E+00 -0.00000000000E+00 -0.64999999231E+04  0.65000000000E+04  0.10000000000E+01 0.  0.
    9000001    1    1    2    0    0  0.62118684029E+04  0.14667057705E+03 -0.19081870158E+04  0.65000000000E+04  0.10000000000E+01 0.  0.
    9000001    1    1    2    0    0 -0.62118684029E+04 -0.14667057705E+03  0.19081870158E+04  0.65000000000E+04  0.10000000000E+01 0.  0.
</event>
<event>
 4    1  0.2193160E-006  0.1300000E+05  0.7957747E-01  0.1322471E+00
    9000001   -1    0    0    0    0  0.00000000000E+00  0.00000000000E+00  0.64999999231E+04  0.65000000000E+04  0.10000000000E+01 0.  0.
    9000001   -1    0    0    0    0 -0.00000000000E+00 -0.00000000000E+00 -0.64999999231E+04  0.65000000000E+04  0.10000000000E+01 0.  0.
    9000001    1    1    2    0    0  0.43797819755E+04 -0.44796157200E+04 -0.17322101051E+04  0.65000000000E+04  0.10000000000E+01 0.  0.
    9000001    1    1    2    0    0 -0.43797819755E+04  0.44796157200E+04  0.17322101051E+04  0.65000000000E+04  0.10000000000E+01 0.  0.
</event>
<event>
 4    1  0.2193160E-006  0.1300000E+05  0.7957747E-01  0.1322471E+00
    9000001   -1    0    0    0    0  0.00000000000E+00  0.00000000000E+00  0.64999999231E+04  0.65000000000E+04  0.10000000000E+01 0.  0.
    9000001   -1    0    0    0    0 -0.00000000000E+00 -0.00000000000E+00 -0.64999999231E+04  0.65000000000E+04  0.10000000000E+01 0.  0.
    9000001    1    1    2    0    0 -0.51810902898E+03 -0.37648389747E+04  0.52732864068E+04  0.65000000000E+04  0.10000000000E+01 0.  0.
    9000001    1    1    2    0    0  0.51810902898E+03  0.37648389747E+04 -0.52732864068E+04  0.65000000000E+04  0.10000000000E+01 0.  0.
</event>
<event>
 4    1  0.2193160E-006  0.1300000E+05  0.7957747E-01  0.1322471E+00
    9000001   -1    0    0    0    0  0.00000000000E+00  0.00000000000E+00  0.64999999231E+04  0.65000000000E+04  0.10000000000E+01 0.  0.
    9000001   -1    0    0    0    0 -0.00000000000E+00 -0.00000000000E+00 -0.64999999231E+04  0.65000000000E+04  0.10000000000E+01 0.  0.
    9000001    1    1    2    0    0  0.95448581324E+03  0.17927909919E+04  0.61745328805E+04  0.65000000000E+04  0.10000000000E+01 0.  0.
    9000001    1    1    2    0    0 -0.95448581324E+03 -0.17927909919E+04 -0.61745328805E+04  0.65000000000E+04  0.10000000000E+01 0.  0.
</event>
<event>
 4    1  0.2193160E-006  0.1300000E+05  0.7957747E-01  0.1322471E+00
    9000001   -1    0    0    0    0  0.00000000000E+00  0.00000000000E+00  0.64999999231E+04  0.65000000000E+04  0.10000000000E+01 0.  0.
    9000001   -1    0    0    0    0 -0.00000000000E+00 -0.00000000000E+00 -0.64999999231E+04  0.65000000000E+04  0.10000000000E+01 0.  0.
    9000001    1    1    2    0    0 -0.36778134571E+04 -0.52916968369E+04  0.84948911763E+03  0.65000000000E+04  0.10000000000E+01 0.  0.
    9000001    1    1    2    0    0  0.36778134571E+04  0.52916968369E+04 -0.84948911763E+03  0.65000000000E+04  0.10000000000E+01 0.  0.
</event>
<event>
 4    1  0.2193160E-006  0.1300000E+05  0.7957747E-01  0.1322471E+00
    9000001   -1    0    0    0    0  0.00000000000E+00  0.00000000000E+00  0.64999999231E+04  0.65000000000E+04  0.10000000000E+01 0.  0.
    9000001   -1    0    0    0    0 -0.00000000000E+00 -0.00000000000E+00 -0.64999999231E+04  0.65000000000E+04  0.10000000000E+01 0.  0.
    9000001    1    1    2    0    0  0.41239721138E+04 -0.39472052872E+03  0.50086973066E+04  0.65000000000E+04  0.10000000000E+01 0.  0.
    9000001    1    1    2    0    0 -0.41239721138E+04  0.39472052872E+03 -0.50086973066E+04  0.65000000000E+04  0.10000000000E+01 0.  0.
</event>
<event>
 4    1  0.2193160E-006  0.1300000E+05  0.7957747E-01  0.1322471E+00
    9000001   -1    0    0    0    0  0.00000000000E+00  0.00000000000E+00  0.64999999231E+04  0.65000000000E+04  0.10000000000E+01 0.  0.
    9000001   -1    0    0    0    0 -0.00000000000E+00 -0.00000000000E+00 -0.64999999231E+04  0.65000000000E+04  0.10000000000E+01 0.  0.
    9000001    1    1    2    0    0  0.59024400705E+04 -0.17515977213E+04 -0.20840119091E+04  0.65000000000E+04  0.10000000000E+01 0.  0.
    9000001    1    1    2    0    0 -0.59024400705E+04  0.17515977213E+04  0.20840119091E+04  0.65000000000E+04  0.10000000000E+01 0.  0.
</event>
<event>
 4    1  0.2193160E-006  0.1300000E+05  0.7957747E-01  0.1322471E+00
    9000001   -1    0    0    0    0  0.00000000000E+00  0.00000000000E+00  0.64999999231E+04  0.65000000000E+04  0.10000000000E+01 0.  0.
    9000001   -1    0    0    0    0 -0.00000000000E+00 -0.00000000000E+00 -0.64999999231E+04  0.65000000000E+04  0.10000000000E+01 0.  0.
    9000001    1    1    2    0    0  0.18218272416E+04 -0.61535736226E+04  0.10317345461E+04  0.65000000000E+04  0.10000000000E+01 0.  0.
    9000001    1    1    2    0    0 -0.18218272416E+04  0.61535736226E+04 -0.10317345461E+04  0.65000000000E+04  0.10000000000E+01 0.  0.
</event>
<event>
 4    1  0.2193160E-006  0.1300000E+05  0.7957747E-01  0.1322471E+00
    9000001   -1    0    0    0    0  0.00000000000E+00  0.00000000000E+00  0.64999999231E+04  0.65000000000E+04  0.10000000000E+01 0.  0.
    9000001   -1    0    0    0    0 -0.00000000000E+00 -0.00000000000E+00 -0.64999999231E+04  0.65000000000E+04  0.10000000000E+01 0.  0.
    9000001    1    1    2    0    0 -0.58594036883E+04 -0.28132481116E+04  0.54977086100E+02  0.65000000000E+04  0.10000000000E+01 0.  0.
    9000001    1    1    2    0    0  0.58594036883E+04  0.28132481116E+04 -0.54977086100E+02  0.65000000000E+04  0.10000000000E+01 0.  0.
</event>
<event>
 4    1  0.2193160E-006  0.1300000E+05  0.7957747E-01  0.1322471E+00
    9000001   -1    0    0    0    0  0.00000000000E+00  0.00000000000E+00  0.64999999231E+04  0.65000000000E+04  0.10000000000E+01 0.  0.
    9000001   -1    0    0    0    0 -0.00000000000E+00 -0.00000000000E+00 -0.64999999231E+04  0.65000000000E+04  0.10000000000E+01 0.  0.
    9000001    1    1    2    0    0 -0.35325886246E+04  0.28442246983E+04  0.46563078157E+04  0.65000000000E+04  0.10000000000E+01 0.  0.
    9000001    1    1    2    0    0  0.35325886246E+04 -0.28442246983E+04 -0.46563078157E+04  0.65000000000E+04  0.10000000000E+01 0.  0.
</event>
<event>
 4    1  0.2193160E-006  0.1300000E+05  0.7957747E-01  0.1322471E+00
    9000001   -1    0    0    0    0  0.00000000000E+00  0.00000000000E+00  0.64999999231E+04  0.65000000000E+04  0.10000000000E+01 0.  0.
    9000001   -1    0    0    0    0 -0.00000000000E+00 -0.00000000000E+00 -0.64999999231E+04  0.65000000000E+04  0.10000000000E+01 0.  0.
    9000001    1    1    2    0    0 -0.58437191178E+04  0.17870400436E+04  0.22152728397E+04  0.65000000000E+04  0.10000000000E+01 0.  0.
    9000001    1    1    2    0    0  0.58437191178E+04 -0.17870400436E+04 -0.22152728397E+04  0.65000000000E+04  0.10000000000E+01 0.  0.
</event>
<event>
 4    1  0.2193160E-006  0.1300000E+05  0.7957747E-01  0.1322471E+00
    9000001   -1    0    0    0    0  0.00000000000E+00  0.00000000000E+00  0.64999999231E+04  0.65000000000E+04  0.10000000000E+01 0.  0.
    9000001   -1    0    0    0    0 -0.00000000000E+00 -0.00000000000E+00 -0.64999999231E+04  0.65000000000E+04  0.10000000000E+01 0.  0.
    9000001    1    1    2    0    0  0.28927878703E+04 -0.21081191733E+04  0.54256438225E+04  0.65000000000E+04  0.10000000000E+01 0.  0.
    9000001    1    1    2    0    0 -0.28927878703E+04  0.21081191733E+04 -0.54256438225E+04  0.65000000000E+04  0.10000000000E+01 0.  0.
</event>
<event>
 4    1  0.2193160E-006  0.1300000E+05  0.7957747E-01  0.1322471E+00
    9000001   -1    0    0    0    0  0.00000000000E+00  0.00000000000E+00  0.64999999231E+04  0.65000000000E+04  0.10000000000E+01 0.  0.
    9000001   -1    0    0    0    0 -0.00000000000E+00 -0.00000000000E+00 -0.64999999231E+04  0.65000000000E+04  0.10000000000E+01 0.  0.
    9000001    1    1    2    0    0  0.22975737697E+03 -0.60087341911E+04  0.24682633508E+04  0.65000000000E+04  0.10000000000E+01 0.  0.
    9000001    1    1    2    0    0 -0.22975737697E+03  0.60087341911E+04 -0.24682633508E+04  0.65000000000E+04  0.10000000000E+01 0.  0.
</event>
<event>
 4    1  0.2193160E-006  0.1300000E+05  0.7957747E-01  0.1322471E+00
    9000001   -1    0    0    0    0  0.00000000000E+00  0.00000000000E+00  0.64999999231E+04  0.65000000000E+04  0.10000000000E+01 0.  0.
    9000001   -1    0    0    0    0 -0.00000000000E+00 -0.00000000000E+00 -0.64999999231E+04  0.65000000000E+04  0.10000000000E+01 0.  0.
    9000001    1    1    2    0    0 -0.52614050927E+04 -0.37403086347E+04  0.76007023848E+03  0.65000000000E+04  0.10000000000E+01 0.  0.
    9000001    1    1    2    0    0  0.52614050927E+04  0.37403086347E+04 -0.76007023848E+03  0.65000000000E+04  0.10000000000E+01 0.  0.
</event>
<event>
 4    1  0.2193160E-006  0.1300000E+05  0.7957747E-01  0.1322471E+00
    9000001   -1    0    0    0    0  0.00000000000E+00  0.00000000000E+00  0.64999999231E+04  0.65000000000E+04  0.10000000000E+01 0.  0.
    9000001   -1    0    0    0    0 -0.00000000000E+00 -0.00000000000E+00 -0.64999999231E+04  0.65000000000E+04  0.10000000000E+01 0.  0.
    9000001    1    1    2    0    0  0.56316699910E+04  0.31615145388E+04 -0.73424650689E+03  0.65000000000E+04  0.10000000000E+01 0.  0.
    9000001    1    1    2    0    0 -0.56316699910E+04 -0.31615145388E+04  0.73424650689E+03  0.65000000000E+04  0.10000000000E+01 0.  0.
</event>
<event>
 4    1  0.2193160E-006  0.1300000E+05  0.7957747E-01  0.1322471E+00
    9000001   -1    0    0    0    0  0.00000000000E+00  0.00000000000E+00  0.64999999231E+04  0.65000000000E+04  0.10000000000E+01 0.  0.
    9000001   -1    0    0    0    0 -0.00000000000E+00 -0.00000000000E+00 -0.64999999231E+04  0.65000000000E+04  0.10000000000E+01 0.  0.
    9000001    1    1    2    0    0  0.26333929259E+04 -0.19055772285E+04 -0.56288556674E+04  0.65000000000E+04  0.10000000000E+01 0.  0.
    9000001    1    1    2    0    0 -0.26333929259E+04  0.19055772285E+04  0.56288556674E+04  0.65000000000E+04  0.10000000000E+01 0.  0.
</event>
<event>
 4    1  0.2193160E-006  0.1300000E+05  0.7957747E-01  0.1322471E+00
    9000001   -1    0    0    0    0  0.00000000000E+00  0.00000000000E+00  0.64999999231E+04  0.65000000000E+04  0.10000000000E+01 0.  0.
    9000001   -1    0    0    0    0 -0.00000000000E+00 -0.00000000000E+00 -0.64999999231E+04  0.65000000000E+04  0.10000000000E+01 0.  0.
    9000001    1    1    2    0    0  0.36174739615E+04 -0.36085891571E+04  0.40177064892E+04  0.65000000000E+04  0.10000000000E+01 0.  0.
    9000001    1    1    2    0    0 -0.36174739615E+04  0.36085891571E+04 -0.40177064892E+04  0.65000000000E+04  0.10000000000E+01 0.  0.
</event>
<event>
 4    1  0.2193160E-006  0.1300000E+05  0.7957747E-01  0.1322471E+00
    9000001   -1    0    0    0    0  0.00000000000E+00  0.00000000000E+00  0.64999999231E+04  0.65000000000E+04  0.10000000000E+01 0.  0.
    9000001   -1    0    0    0    0 -0.00000000000E+00 -0.00000000000E+00 -0.64999999231E+04  0.65000000000E+04  0.10000000000E+01 0.  0.
    9000001    1    1    2    0    0  0.48651169974E+04  0.18494456092E+04  0.38936084215E+04  0.65000000000E+04  0.10000000000E+01 0.  0.
    9000001    1    1    2    0    0 -0.48651169974E+04 -0.18494456092E+04 -0.38936084215E+04  0.65000000000E+04  0.10000000000E+01 0.  0.
</event>
<event>
 4    1  0.2193160E-006  0.1300000E+05  0.7957747E-01  0.1322471E+00
    9000001   -1    0    0    0    0  0.00000000000E+00  0.00000000000E+00  0.64999999231E+04  0.65000000000E+04  0.10000000000E+01 0.  0.
    9000001   -1    0    0    0    0 -0.00000000000E+00 -0.00000000000E+00 -0.64999999231E+04  0.65000000000E+04  0.10000000000E+01 0.  0.
    9000001    1    1    2    0    0 -0.62007854615E+04  0.19218760252E+04 -0.32657495924E+03  0.65000000000E+04  0.10000000000E+01 0.  0.
    9000001    1    1    2    0    0  0.62007854615E+04 -0.19218760252E+04  0.32657495924E+03  0.65000000000E+04  0.10000000000E+01 0.  0.
</event>
<event>
 4    1  0.2193160E-006  0.1300000E+05  0.7957747E-01  0.1322471E+00
    9000001   -1    0    0    0    0  0.00000000000E+00  0.00000000000E+00  0.64999999231E+04  0.65000000000E+04  0.10000000000E+01 0.  0.
    9000001   -1    0    0    0    0 -0.00000000000E+00 -0.00000000000E+00 -0.64999999231E+04  0.65000000000E+04  0.10000000000E+01 0.  0.
    9000001    1    1    2    0    0 -0.61708810114E+04  0.69947571343E+03  0.19185828807E+04  0.65000000000E+04  0.10000000000E+01 0.  0.
    9000001    1    1    2    0    0  0.61708810114E+04 -0.69947571343E+03 -0.19185828807E+04  0.65000000000E+04  0.10000000000E+01 0.  0.
</event>
<event>
 4    1  0.2193160E-006  0.1300000E+05  0.7957747E-01  0.1322471E+00
    9000001   -1    0    0    0    0  0.00000000000E+00  0.00000000000E+00  0.64999999231E+04  0.65000000000E+04  0.10000000000E+01 0.  0.
    9000001   -1    0    0    0    0 -0.00000000000E+00 -0.00000000000E+00 -0.64999999231E+04  0.65000000000E+04  0.10000000000E+01 0.  0.
    9000001    1    1    2    0    0  0.42830336939E+04  0.43465854803E+04  0.22389318971E+04  0.65000000000E+04  0.10000000000E+01 0.  0.
    9000001    1    1    2    0    0 -0.42830336939E+04 -0.43465854803E+04 -0.22389318971E+04  0.65000000000E+04  0.10000000000E+01 0.  0.
</event>
<event>
 4    1  0.2193160E-006  0.1300000E+05  0.7957747E-01  0.1322471E+00
    9000001   -1    0    0    0    0  0.00000000000E+00  0.00000000000E+00  0.64999999231E+04  0.65000000000E+04  0.10000000000E+01 0.  0.
    9000001   -1    0    0    0    0 -0.00000000000E+00 -0.00000000000E+00 -0.64999999231E+04  0.65000000000E+04  0.10000000000E+01 0.  0.
    9000001    1    1    2    0    0  0.77463680666E+03  0.41669074857E+04 -0.49281658680E+04  0.65000000000E+04  0.10000000000E+01 0.  0.
    9000001    1    1    2    0    0 -0.77463680666E+03 -0.41669074857E+04  0.49281658680E+04  0.65000000000E+04  0.10000000000E+01 0.  0.
</event>
<event>
 4    1  0.2193160E-006  0.1300000E+05  0.7957747E-01  0.1322471E+00
    9000001   -1    0    0    0    0  0.00000000000E+00  0.00000000000E+00  0.64999999231E+04  0.65000000000E+04  0.10000000000E+01 0.  0.
    9000001   -1    0    0    0    0 -0.00000000000E+00 -0.00000000000E+00 -0.64999999231E+04  0.65000000000E+04  0.10000000000E+01 0.  0.
    9000001    1    1    2    0    0  0.45871764745E+04 -0.31130763221E+04  0.33936067545E+04  0.65000000000E+04  0.10000000000E+01 0.  0.
    9000001    1    1    2    0    0 -0.45871764745E+04  0.31130763221E+04 -0.33936067545E+04  0.65000000000E+04  0.10000000000E+01 0.  0.
</event>
<event>
 4    1  0.2193160E-006  0.1300000E+05  0.7957747E-01  0.1322471E+00
    9000001   -1    0    0    0    0  0.00000000000E+00  0.00000000000E+00  0.64999999231E+04  0.65000000000E+04  0.10000000000E+01 0.  0.
    9000001   -1    0    0    0    0 -0.00000000000E+00 -0.00000000000E+00 -0.64999999231E+04  0.65000000000E+04  0.10000000000E+01 0.  0.
    9000001    1    1    2    0    0  0.18348005141E+04  0.36471976450E+04 -0.50578113262E+04  0.65000000000E+04  0.10000000000E+01 0.  0.
    9000001    1    1    2    0    0 -0.18348005141E+04 -0.36471976450E+04  0.50578113262E+04  0.65000000000E+04  0.10000000000E+01 0.  0.
</event>
<event>
 4    1  0.2193160E-006  0.1300000E+05  0.7957747E-01  0.1322471E+00
    9000001   -1    0    0    0    0  0.00000000000E+00  0.00000000000E+00  0.64999999231E+04  0.65000000000E+04  0.10000000000E+01 0.  0.
    9000001   -1    0    0    0    0 -0.00000000000E+00 -0.00000000000E+00 -0.64999999231E+04  0.65000000000E+04  0.10000000000E+01 0.  0.
    9000001    1    1    2    0    0 -0.50315301386E+04 -0.39779775553E+04 -0.10532796562E+04  0.65000000000E+04  0.10000000000E+01 0.  0.
    9000001    1    1    2    0    0  0.50315301386E+04  0.39779775553E+04  0.10532796562E+04  0.65000000000E+04  0.10000000000E+01 0.  0.
</event>
<event>
 4    1  0.2193160E-006  0.1300000E+05  0.7957747E-01  0.1322471E+00
    9000001   -1    0    0    0    0  0.00000000000E+00  0.00000000000E+00  0.64999999231E+04  0.65000000000E+04  0.10000000000E+01 0.  0.
    9000001   -1    0    0    0    0 -0.00000000000E+00 -0.00000000000E+00 -0.64999999231E+04  0.65000000000E+04  0.10000000000E+01 0.  0.
    9000001    1    1    2    0    0  0.87218674097E+02 -0.20239107012E+04  0.61762591734E+04  0.65000000000E+04  0.10000000000E+01 0.  0.
    9000001    1    1    2    0    0 -0.87218674097E+02  0.20239107012E+04 -0.61762591734E+04  0.65000000000E+04  0.10000000000E+01 0.  0.
</event>
<event>
 4    1  0.2193160E-006  0.1300000E+05  0.7957747E-01  0.1322471E+00
    9000001   -1    0    0    0    0  0.00000000000E+00  0.00000000000E+00  0.64999999231E+04  0.65000000000E+04  0.10000000000E+01 0.  0.
    9000001   -1    0    0    0    0 -0.00000000000E+00 -0.00000000000E+00 -0.64999999231E+04  0.65000000000E+04  0.10000000000E+01 0.  0.
    9000001    1    1    2    0    0 -0.18343985329E+04 -0.46228910363E+04 -0.41849563306E+04  0.65000000000E+04  0.10000000000E+01 0.  0.
    9000001    1    1    2    0    0  0.18343985329E+04  0.46228910363E+04  0.41849563306E+04  0.65000000000E+04  0.10000000000E+01 0.  0.
</event>
<event>
 4    1  0.2193160E-006  0.1300000E+05  0.7957747E-01  0.1322471E+00
    9000001   -1    0    0    0    0  0.00000000000E+00  0.00000000000E+00  0.64999999231E+04  0.65000000000E+04  0.10000000000E+01 0.  0.
    9000001   -1    0    0    0    0 -0.00000000000E+00 -0.00000000000E+00 -0.64999999231E+04  0.65000000000E+04  0.10000000000E+01 0.  0.
    9000001    1    1    2    0    0 -0.35340977548E+04  0.51825771250E+04 -0.17032458436E+04  0.65000000000E+04  0.10000000000E+01 0.  0.
    9000001    1    1    2    0    0  0.35340977548E+04 -0.51825771250E+04  0.17032458436E+04  0.65000000000E+04  0.10000000000E+01 0.  0.
</event>
<event>
 4    1  0.2193160E-006  0.1300000E+05  0.7957747E-01  0.1322471E+00
    9000001   -1    0    0    0    0  0.00000000000E+00  0.00000000000E+00  0.64999999231E+04  0.65000000000E+04  0.10000000000E+01 0.  0.
    9000001   -1    0    0    0    0 -0.00000000000E+00 -0.00000000000E+00 -0.64999999231E+04  0.65000000000E+04  0.10000000000E+01 0.  0.
    9000001    1    1    2    0    0  0.64677567533E+04  0.39188230017E+03  0.51434409040E+03  0.65000000000E+04  0.10000000000E+01 0.  0.
    9000001    1    1    2    0    0 -0.64677567533E+04 -0.39188230017E+03 -0.51434409040E+03  0.65000000000E+04  0.10000000000E+01 0.  0.
</event>
<event>
 4    1  0.2193160E-006  0.1300000E+05  0.7957747E-01  0.1322471E+00
    9000001   -1    0    0    0    0  0.00000000000E+00  0.00000000000E+00  0.64999999231E+04  0.65000000000E+04  0.10000000000E+01 0.  0.
    9000001   -1    0    0    0    0 -0.00000000000E+00 -0.00000000000E+00 -0.64999999231E+04  0.65000000000E+04  0.10000000000E+01 0.  0.
    9000001    1    1    2    0    0 -0.43159381396E+04  0.36872095058E+04  0.31665696006E+04  0.65000000000E+04  0.10000000000E+01 0.  0.
    9000001    1    1    2    0    0  0.43159381396E+04 -0.36872095058E+04 -0.31665696006E+04  0.65000000000E+04  0.10000000000E+01 0.  0.
</event>
<event>
 4    1  0.2193160E-006  0.1300000E+05  0.7957747E-01  0.1322471E+00
    9000001   -1    0    0    0    0  0.00000000000E+00  0.00000000000E+00  0.64999999231E+04  0.65000000000E+04  0.10000000000E+01 0.  0.
    9000001   -1    0    0    0    0 -0.00000000000E+00 -0.00000000000E+00 -0.64999999231E+04  0.65000000000E+04  0.10000000000E+01 0.  0.
    9000001    1    1    2    0    0  0.64058796810E+04  0.10985407496E+04  0.88953545969E+02  0.65000000000E+04  0.10000000000E+01 0.  0.
    9000001    1    1    2    0    0 -0.64058796810E+04 -0.10985407496E+04 -0.88953545969E+02  0.65000000000E+04  0.10000000000E+01 0.  0.
</event>
<event>
 4    1  0.2193160E-006  0.1300000E+05  0.7957747E-01  0.1322471E+00
    9000001   -1    0    0    0    0  0.00000000000E+00  0.00000000000E+00  0.64999999231E+04  0.65000000000E+04  0.10000000000E+01 0.  0.
    9000001   -1    0    0    0    0 -0.00000000000E+00 -0.00000000000E+00 -0.64999999231E+04  0.65000000000E+04  0.10000000000E+01 0.  0.
    9000001    1    1    2    0    0  0.33596119699E+04 -0.42020488120E+04 -0.36477105414E+04  0.65000000000E+04  0.10000000000E+01 0.  0.
    9000001    1    1    2    0    0 -0.33596119699E+04  0.42020488120E+04  0.36477105414E+04  0.65000000000E+04  0.10000000000E+01 0.  0.
</event>
<event>
 4    1  0.2193160E-006  0.1300000E+05  0.7957747E-01  0.1322471E+00
    9000001   -1    0    0    0    0  0.00000000000E+00  0.00000000000E+00  0.64999999231E+04  0.65000000000E+04  0.10000000000E+01 0.  0.
    9000001   -1    0    0    0    0 -0.00000000000E+00 -0.00000000000E+00 -0.64999999231E+04  0.65000000000E+04  0.10000000000E+01 0.  0.
    9000001    1    1    2    0    0 -0.18980053838E+04  0.50946301783E+04  0.35626279499E+04  0.65000000000E+04  0.10000000000E+01 0.  0.
    9000001    1    1    2    0    0  0.18980053838E+04 -0.50946301783E+04 -0.35626279499E+04  0.65000000000E+04  0.10000000000E+01 0.  0.
</event>
<event>
 4    1  0.2193160E-006  0.1300000E+05  0.7957747E-01  0.1322471E+00
    9000001   -1    0    0    0    0  0.00000000000E+00  0.00000000000E+00  0.64999999231E+04  0.65000000000E+04  0.10000000000E+01 0.  0.
    9000001   -1    0    0    0    0 -0.00000000000E+00 -0.00000000000E+00 -0.64999999231E+04  0.65000000000E+04  0.10000000000E+01 0.  0.
    9000001    1    1    2    0    0 -0.13716008429E+04 -0.50973647595E+04  0.37928330621E+04  0.65000000000E+04  0.10000000000E+01 0.  0.
    9000001    1    1    2    0    0  0.13716008429E+04  0.50973647595E+04 -0.37928330621E+04  0.65000000000E+04  0.10000000000E+01 0.  0.
</event>
<event>
 4    1  0.2193160E-006  0.1300000E+05  0.7957747E-01  0.1322471E+00
    9000001   -1    0    0    0    0  0.00000000000E+00  0.00000000000E+00  0.64999999231E+04  0.65000000000E+04  0.10000000000E+01 0.  0.
    9000001   -1    0    0    0    0 -0.00000000000E+00 -0.00000000000E+00 -0.64999999231E+04  0.65000000000E+04  0.10000000000E+01 0.  0.
    9000001    1    1    2    0    0 -0.26678719782E+04 -0.30520270062E+04 -0.50811011859E+04  0.65000000000E+04  0.10000000000E+01 0.  0.
    9000001    1    1    2    0    0  0.26678719782E+04  0.30520270062E+04  0.50811011859E+04  0.65000000000E+04  0.10000000000E+01 0.  0.
</event>
<event>
 4    1  0.2193160E-006  0.1300000E+05  0.7957747E-01  0.1322471E+00
    9000001   -1    0    0    0    0  0.00000000000E+00  0.00000000000E+00  0.64999999231E+04  0.65000000000E+04  0.10000000000E+01 0.  0.
    9000001   -1    0    0    0    0 -0.00000000000E+00 -0.00000000000E+00 -0.64999999231E+04  0.65000000000E+04  0.10000000000E+01 0.  0.
    9000001    1    1    2    0    0 -0.41948654247E+04 -0.35605145173E+04 -0.34606125817E+04  0.65000000000E+04  0.10000000000E+01 0.  0.
    9000001    1    1    2    0    0  0.41948654247E+04  0.35605145173E+04  0.34606125817E+04  0.65000000000E+04  0.10000000000E+01 0.  0.
</event>
<event>
 4    1  0.2193160E-006  0.1300000E+05  0.7957747E-01  0.1322471E+00
    9000001   -1    0    0    0    0  0.00000000000E+00  0.00000000000E+00  0.64999999231E+04  0.65000000000E+04  0.10000000000E+01 0.  0.
    9000001   -1    0    0    0    0 -0.00000000000E+00 -0.00000000000E+00 -0.64999999231E+04  0.65000000000E+04  0.10000000000E+01 0.  0.
    9000001    1    1    2    0    0  0.64373425015E+03  0.25515485697E+04  0.59435010820E+04  0.65000000000E+04  0.10000000000E+01 0.  0.
    9000001    1    1    2    0    0 -0.64373425015E+03 -0.25515485697E+04 -0.59435010820E+04  0.65000000000E+04  0.10000000000E+01 0.  0.
</event>
<event>
 4    1  0.2193160E-006  0.1300000E+05  0.7957747E-01  0.1322471E+00
    9000001   -1    0    0    0    0  0.00000000000E+00  0.00000000000E+00  0.64999999231E+04  0.65000000000E+04  0.10000000000E+01 0.  0.
    9000001   -1    0    0    0    0 -0.00000000000E+00 -0.00000000000E+00 -0.64999999231E+04  0.65000000000E+04  0.10000000000E+01 0.  0.
    9000001    1    1    2    0    0  0.10906861186E+04  0.50167722076E+04 -0.39865272365E+04  0.65000000000E+04  0.10000000000E+01 0.  0.
    9000001    1    1    2    0    0 -0.10906861186E+04 -0.50167722076E+04  0.39865272365E+04  0.65000000000E+04  0.10000000000E+01 0.  0.
</event>
<event>
 4    1  0.2193160E-006  0.1300000E+05  0.7957747E-01  0.1322471E+00
    9000001   -1    0    0    0    0  0.00000000000E+00  0.00000000000E+00  0.64999999231E+04  0.65000000000E+04  0.10000000000E+01 0.  0.
    9000001   -1    0    0    0    0 -0.00000000000E+00 -0.00000000000E+00 -0.64999999231E+04  0.65000000000E+04  0.10000000000E+01 0.  0.
    9000001    1    1    2    0    0 -0.20800263174E+04  0.53766033764E+02  0.61579703420E+04  0.65000000000E+04  0.10000000000E+01 0.  0.
    9000001    1    1    2    0    0  0.20800263174E+04 -0.53766033764E+02 -0.61579703420E+04  0.65000000000E+04  0.10000000000E+01 0.  0.
</event>
<event>
 4    1  0.2193160E-006  0.1300000E+05  0.7957747E-01  0.1322471E+00
    9000001   -1    0    0    0    0  0.00000000000E+00  0.00000000000E+00  0.64999999231E+04  0.65000000000E+04  0.10000000000E+01 0.  0.
    9000001   -1    0    0    0    0 -0.00000000000E+00 -0.00000000000E+00 -0.64999999231E+04  0.65000000000E+04  0.10000000000E+01 0.  0.
    9000001    1    1    2    0    0 -0.35795855022E+04  0.44228421993E+04  0.31424566047E+04  0.65000000000E+04  0.10000000000E+01 0.  0.
    9000001    1    1    2    0    0  0.35795855022E+04 -0.44228421993E+04 -0.31424566047E+04  0.65000000000E+04  0.10000000000E+01 0.  0.
</event>
<event>
 4    1  0.2193160E-006  0.1300000E+05  0.7957747E-01  0.1322471E+00
    9000001   -1    0    0    0    0  0.00000000000E+00  0.00000000000E+00  0.64999999231E+04  0.65000000000E+04  0.10000000000E+01 0.  0.
    9000001   -1    0    0    0    0 -0.00000000000E+00 -0.00000000000E+00 -0.64999999231E+04  0.65000000000E+04  0.10000000000E+01 0.  0.
    9000001    1    1    2    0    0 -0.11371847386E+04  0.41528120380E+04 -0.48693903157E+04  0.65000000000E+04  0.10000000000E+01 0.  0.
    9000001    1    1    2    0    0  0.11371847386E+04 -0.41528120380E+04  0.48693903157E+04  0.65000000000E+04  0.10000000000E+01 0.  0.
</event>
<event>
 4    1  0.2193160E-006  0.1300000E+05  0.7957747E-01  0.1322471E+00
    9000001   -1    0    0    0    0  0.00000000000E+00  0.00000000000E+00  0.64999999231E+04  0.65000000000E+04  0.10000000000E+01 0.  0.
    9000001   -1    0    0    0    0 -0.00000000000E+00 -0.00000000000E+00 -0.64999999231E+04  0.65000000000E+04  0.10000000000E+01 0.  0.
    9000001    1    1    2    0    0 -0.48776032446E+04 -0.42147108736E+04  0.83378524815E+03  0.65000000000E+04  0.10000000000E+01 0.  0.
    9000001    1    1    2    0    0  0.48776032446E+04  0.42147108736E+04 -0.83378524815E+03  0.65000000000E+04  0.10000000000E+01 0.  0.
</event>
<event>
 4    1  0.2193160E-006  0.1300000E+05  0.7957747E-01  0.1322471E+00
    9000001   -1    0    0    0    0  0.00000000000E+00  0.00000000000E+00  0.64999999231E+04  0.65000000000E+04  0.10000000000E+01 0.  0.
    9000001   -1    0    0    0    0 -0.00000000000E+00 -0.00000000000E+00 -0.64999999231E+04  0.65000000000E+04  0.10000000000E+01 0.  0.
    9000001    1    1    2    0    0  0.14954506887E+04 -0.57973012266E+04  0.25307952754E+04  0.65000000000E+04  0.10000000000E+01 0.  0.
    9000001    1    1    2    0    0 -0.14954506887E+04  0.57973012266E+04 -0.25307952754E+04  0.65000000000E+04  0.10000000000E+01 0.  0.
</event>
<event>
 4    1  0.2193160E-006  0.1300000E+05  0.7957747E-01  0.1322471E+00
    9000001   -1    0    0    0    0  0.00000000000E+00  0.00000000000E+00  0.64999999231E+04  0.65000000000E+04  0.10000000000E+01 0.  0.
    9000001   -1    0    0    0    0 -0.00000000000E+00 -0.00000000000E+00 -0.64999999231E+04  0.65000000000E+04  0.10000000000E+01 0.  0.
    9000001    1    1    2    0    0 -0.22518777409E+04  0.21916842629E+04 -0.56899530518E+04  0.65000000000E+04  0.10000000000E+01 0.  0.
    9000001    1    1    2    0    0  0.22518777409E+04 -0.21916842629E+04  0.56899530518E+04  0.65000000000E+04  0.10000000000E+01 0.  0.
</event>
<event>
 4    1  0.2193160E-006  0.1300000E+05  0.7957747E-01  0.1322471E+00
    9000001   -1    0    0    0    0  0.00000000000E+00  0.00000000000E+00  0.64999999231E+04  0.65000000000E+04  0.10000000000E+01 0.  0.
    9000001   -1    0    0    0    0 -0.00000000000E+00 -0.00000000000E+00 -0.64999999231E+04  0.65000000000E+04  0.10000000000E+01 0.  0.
    9000001    1    1    2    0    0 -0.59479307607E+04  0.83245086651E+03 -0.24857884505E+04  0.65000000000E+04  0.10000000000E+01 0.  0.
    9000001    1    1    2    0    0  0.59479307607E+04 -0.83245086651E+03  0.24857884505E+04  0.65000000000E+04  0.10000000000E+01 0.  0.
</event>
<event>
 4    1  0.2193160E-006  0.1300000E+05  0.7957747E-01  0.1322471E+00
    9000001   -1    0    0    0    0  0.00000000000E+00  0.00000000000E+00  0.64999999231E+04  0.65000000000E+04  0.10000000000E+01 0.  0.
    9000001   -1    0    0    0    0 -0.00000000000E+00 -0.00000000000E+00 -0.64999999231E+04  0.65000000000E+04  0.10000000000E+01 0.  0.
    9000001    1    1    2    0    0  0.57144401295E+04  0.25195756593E+04 -0.18019188392E+04  0.65000000000E+04  0.10000000000E+01 0.  0.
    9000001    1    1    2    0    0 -0.57144401295E+04 -0.25195756593E+04  0.18019188392E+04  0.65000000000E+04  0.10000000000E+01 0.  0.
</event>
<event>
 4    1  0.2193160E-006  0.1300000E+05  0.7957747E-01  0.1322471E+00
    9000001   -1    0    0    0    0  0.00000000000E+00  0.00000000000E+00  0.64999999231E+04  0.65000000000E+04  0.10000000000E+01 0.  0.
    9000001   -1    0    0    0    0 -0.00000000000E+00 -0.00000000000E+00 -0.64999999231E+04  0.65000000000E+04  0.10000000000E+01 0.  0.
    9000001    1    1    2    0    0  0.36277475705E+04 -0.35966717663E+04  0.40191291060E+04  0.65000000000E+04  0.10000000000E+01 0.  0.
    9000001    1    1    2    0    0 -0.36277475705E+04  0.35966717663E+04 -0.40191291060E+04  0.65000000000E+04  0.10000000000E+01 0.  0.
</event>
<event>
 4    1  0.2193160E-006  0.1300000E+05  0.7957747E-01  0.1322471E+00
    9000001   -1    0    0    0    0  0.00000000000E+00  0.00000000000E+00  0.64999999231E+04  0.65000000000E+04  0.10000000000E+01 0.  0.
    9000001   -1    0    0    0    0 -0.00000000000E+00 -0.00000000000E+00 -0.64999999231E+04  0.65000000000E+04  0.10000000000E+01 0.  0.
    9000001    1    1    2    0    0 -0.24737713802E+04 -0.10701780043E+04  0.59148265568E+04  0.65000000000E+04  0.10000000000E+01 0.  0.
    9000001    1    1    2    0    0  0.24737713802E+04  0.10701780043E+04 -0.59148265568E+04  0.65000000000E+04  0.10000000000E+01 0.  0.
</event>
<event>
 4    1  0.2193160E-006  0.1300000E+05  0.7957747E-01  0.1322471E+00
    9000001   -1    0    0    0    0  0.00000000000E+00  0.00000000000E+00  0.64999999231E+04  0.65000000000E+04  0.10000000000E+01 0.  0.
    9000001   -1    0    0    0    0 -0.00000000000E+00 -0.00000000000E+00 -0.64999999231E+04  0.65000000000E+04  0.10000000000E+01 0.  0.
    9000001    1    1    2    0    0 -0.13679552980E+04 -0.37937121916E+04 -0.50976901740E+04  0.65000000000E+04  0.10000000000E+01 0.  0.
    9000001    1    1    2    0    0  0.13679552980E+04  0.37937121916E+04  0.50976901740E+04  0.65000000000E+04  0.10000000000E+01 0.  0.
</event>
<event>
 4    1  0.2193160E-006  0.1300000E+05  0.7957747E-01  0.1322471E+00
    9000001   -1    0    0    0    0  0.00000000000E+00  0.00000000000E+00  0.64999999231E+04  0.65000000000E+04  0.10000000000E+01 0.  0.
    9000001   -1    0    0    0    0 -0.00000000000E+00 -0.00000000000E+00 -0.64999999231E+04  0.65000000000E+04  0.10000000000E+01 0.  0.
    9000001    1    1    2    0    0  0.77043437774E+03  0.33936484893E+04 -0.54899526228E+04  0.65000000000E+04  0.10000000000E+01 0.  0.
    9000001    1    1    2    0    0 -0.77043437774E+03 -0.33936484893E+04  0.54899526228E+04  0.65000000000E+04  0.10000000000E+01 0.  0.
</event>
<event>
 4    1  0.2193160E-006  0.1300000E+05  0.7957747E-01  0.1322471E+00
    9000001   -1    0    0    0    0  0.00000000000E+00  0.00000000000E+00  0.64999999231E+04  0.65000000000E+04  0.10000000000E+01 0.  0.
    9000001   -1    0    0    0    0 -0.00000000000E+00 -0.00000000000E+00 -0.64999999231E+04  0.65000000000E+04  0.10000000000E+01 0.  0.
    9000001    1    1    2    0    0  0.53919420859E+04  0.32819015927E+04  0.15511548852E+04  0.65000000000E+04  0.10000000000E+01 0.  0.
    9000001    1    1    2    0    0 -0.53919420859E+04 -0.32819015927E+04 -0.15511548852E+04  0.65000000000E+04  0.10000000000E+01 0.  0.
</event>
<event>
 4    1  0.2193160E-006  0.1300000E+05  0.7957747E-01  0.1322471E+00
    9000001   -1    0    0    0    0  0.00000000000E+00  0.00000000000E+00  0.64999999231E+04  0.65000000000E+04  0.10000000000E+01 0.  0.
    9000001   -1    0    0    0    0 -0.00000000000E+00 -0.00000000000E+00 -0.64999999231E+04  0.65000000000E+04  0.10000000000E+01 0.  0.
    9000001    1    1    2    0    0  0.52970306066E+04  0.33909056421E+04 -0.16411047131E+04  0.65000000000E+04  0.10000000000E+01 0.  0.
    9000001    1    1    2    0    0 -0.52970306066E+04 -0.33909056421E+04  0.16411047131E+04  0.65000000000E+04  0.10000000000E+01 0.  0.
</event>
<event>
 4    1  0.2193160E-006  0.1300000E+05  0.7957747E-01  0.1322471E+00
    9000001   -1    0    0    0    0  0.00000000000E+00  0.00000000000E+00  0.64999999231E+04  0.65000000000E+04  0.10000000000E+01 0.  0.
    9000001   -1    0    0    0    0 -0.00000000000E+00 -0.00000000000E+00 -0.64999999231E+04  0.65000000000E+04  0.10000000000E+01 0.  0.
    9000001    1    1    2    0    0  0.26749154599E+04  0.40179663867E+04  0.43532484880E+04  0.65000000000E+04  0.10000000000E+01 0.  0.
    9000001    1    1    2    0    0 -0.26749154599E+04 -0.40179663867E+04 -0.43532484880E+04  0.65000000000E+04  0.10000000000E+01 0.  0.
</event>
<event>
 4    1  0.2193160E-006  0.1300000E+05  0.7957747E-01  0.1322471E+00
    9000001   -1    0    0    0    0  0.00000000000E+00  0.00000000000E+00  0.64999999231E+04  0.65000000000E+04  0.10000000000E+01 0.  0.
    9000001   -1    0    0    0    0 -0.00000000000E+00 -0.00000000000E+00 -0.64999999231E+04  0.65000000000E+04  0.10000000000E+01 0.  0.
    9000001    1    1    2    0    0 -0.49171785930E+04 -0.23068065066E+04 -0.35707138537E+04  0.65000000000E+04  0.10000000000E+01 0.  0.
    9000001    1    1    2    0    0  0.49171785930E+04  0.23068065066E+04  0.35707138537E+04  0.65000000000E+04  0.10000000000E+01 0.  0.
</event>
<event>
 4    1  0.2193160E-006  0.1300000E+05  0.7957747E-01  0.1322471E+00
    9000001   -1    0    0    0    0  0.00000000000E+00  0.00000000000E+00  0.64999999231E+04  0.65000000000E+04  0.10000000000E+01 0.  0.
    9000001   -1    0    0    0    0 -0.00000000000E+00 -0.00000000000E+00 -0.64999999231E+04  0.65000000000E+04  0.10000000000E+01 0.  0.
    9000001    1    1    2    0    0  0.36003526400E+04  0.24495461130E+04  0.48256796110E+04  0.65000000000E+04  0.10000000000E+01 0.  0.
    9000001    1    1    2    0    0 -0.36003526400E+04 -0.24495461130E+04 -0.48256796110E+04  0.65000000000E+04  0.10000000000E+01 0.  0.
</event>
<event>
 4    1  0.2193160E-006  0.1300000E+05  0.7957747E-01  0.1322471E+00
    9000001   -1    0    0    0    0  0.00000000000E+00  0.00000000000E+00  0.64999999231E+04  0.65000000000E+04  0.10000000000E+01 0.  0.
    9000001   -1    0    0    0    0 -0.00000000000E+00 -0.00000000000E+00 -0.64999999231E+04  0.65000000000E+04  0.10000000000E+01 0.  0.
    9000001    1    1    2    0    0 -0.33207897735E+04  0.24623534648E+04  0.50158917148E+04  0.65000000000E+04  0.10000000000E+01 0.  0.
    9000001    1    1    2    0    0  0.33207897735E+04 -0.24623534648E+04 -0.50158917148E+04  0.65000000000E+04  0.10000000000E+01 0.  0.
</event>
<event>
 4    1  0.2193160E-006  0.1300000E+05  0.7957747E-01  0.1322471E+00
    9000001   -1    0    0    0    0  0.00000000000E+00  0.00000000000E+00  0.64999999231E+04  0.65000000000E+04  0.10000000000E+01 0.  0.
    9000001   -1    0    0    0    0 -0.00000000000E+00 -0.00000000000E+00 -0.64999999231E+04  0.65000000000E+04  0.10000000000E+01 0.  0.
    9000001    1    1    2    0    0 -0.41927407334E+04 -0.75628295319E+03 -0.49090691823E+04  0.65000000000E+04  0.10000000000E+01 0.  0.
    9000001    1    1    2    0    0  0.41927407334E+04  0.75628295319E+03  0.49090691823E+04  0.65000000000E+04  0.10000000000E+01 0.  0.
</event>
<event>
 4    1  0.2193160E-006  0.1300000E+05  0.7957747E-01  0.1322471E+00
    9000001   -1    0    0    0    0  0.00000000000E+00  0.00000000000E+00  0.64999999231E+04  0.65000000000E+04  0.10000000000E+01 0.  0.
    9000001   -1    0    0    0    0 -0.00000000000E+00 -0.00000000000E+00 -0.64999999231E+04  0.65000000000E+04  0.10000000000E+01 0.  0.
    9000001    1    1    2    0    0 -0.64659945005E+04 -0.61390852121E+03  0.25304238203E+03  0.65000000000E+04  0.10000000000E+01 0.  0.
    9000001    1    1    2    0    0  0.64659945005E+04  0.61390852121E+03 -0.25304238203E+03  0.65000000000E+04  0.10000000000E+01 0.  0.
</event>
<event>
 4    1  0.2193160E-006  0.1300000E+05  0.7957747E-01  0.1322471E+00
    9000001   -1    0    0    0    0  0.00000000000E+00  0.00000000000E+00  0.64999999231E+04  0.65000000000E+04  0.10000000000E+01 0.  0.
    9000001   -1    0    0    0    0 -0.00000000000E+00 -0.00000000000E+00 -0.64999999231E+04  0.65000000000E+04  0.10000000000E+01 0.  0.
    9000001    1    1    2    0    0  0.63295828451E+04  0.49078692413E+03 -0.13948147555E+04  0.65000000000E+04  0.10000000000E+01 0.  0.
    9000001    1    1    2    0    0 -0.63295828451E+04 -0.49078692413E+03  0.13948147555E+04  0.65000000000E+04  0.10000000000E+01 0.  0.
</event>
<event>
 4    1  0.2193160E-006  0.1300000E+05  0.7957747E-01  0.1322471E+00
    9000001   -1    0    0    0    0  0.00000000000E+00  0.00000000000E+00  0.64999999231E+04  0.65000000000E+04  0.10000000000E+01 0.  0.
    9000001   -1    0    0    0    0 -0.00000000000E+00 -0.00000000000E+00 -0.64999999231E+04  0.65000000000E+04  0.10000000000E+01 0.  0.
    9000001    1    1    2    0    0 -0.75734952805E+03  0.55942628735E+04  0.32219006183E+04  0.65000000000E+04  0.10000000000E+01 0.  0.
    9000001    1    1    2    0    0  0.75734952805E+03 -0.55942628735E+04 -0.32219006183E+04  0.65000000000E+04  0.10000000000E+01 0.  0.
</event>
<event>
 4    1  0.2193160E-006  0.1300000E+05  0.7957747E-01  0.1322471E+00
    9000001   -1    0    0    0    0  0.00000000000E+00  0.00000000000E+00  0.64999999231E+04  0.65000000000E+04  0.10000000000E+01 0.  0.
    9000001   -1    0    0    0    0 -0.00000000000E+00 -0.00000000000E+00 -0.64999999231E+04  0.65000000000E+04  0.10000000000E+01 0.  0.
    9000001    1    1    2    0    0  0.10612759204E+04 -0.62293506824E+04  0.15227877386E+04  0.65000000000E+04  0.10000000000E+01 0.  0.
    9000001    1    1    2    0    0 -0.10612759204E+04  0.62293506824E+04 -0.15227877386E+04  0.65000000000E+04  0.10000000000E+01 0.  0.
</event>
<event>
 4    1  0.2193160E-006  0.1300000E+05  0.7957747E-01  0.1322471E+00
    9000001   -1    0    0    0    0  0.00000000000E+00  0.00000000000E+00  0.64999999231E+04  0.65000000000E+04  0.10000000000E+01 0.  0.
    9000001   -1    0    0    0    0 -0.00000000000E+00 -0.00000000000E+00 -0.64999999231E+04  0.65000000000E+04  0.10000000000E+01 0.  0.
    9000001    1    1    2    0    0  0.37063407672E+03 -0.41848305093E+03 -0.64759170252E+04  0.65000000000E+04  0.10000000000E+01 0.  0.
    9000001    1    1    2    0    0 -0.37063407672E+03  0.41848305093E+03  0.64759170252E+04  0.65000000000E+04  0.10000000000E+01 0.  0.
</event>
<event>
 4    1  0.2193160E-006  0.1300000E+05  0.7957747E-01  0.1322471E+00
    9000001   -1    0    0    0    0  0.00000000000E+00  0.00000000000E+00  0.64999999231E+04  0.65000000000E+04  0.10000000000E+01 0.  0.
    9000001   -1    0    0    0    0 -0.00000000000E+00 -0.00000000000E+00 -0.64999999231E+04  0.65000000000E+04  0.10000000000E+01 0.  0.
    9000001    1    1    2    0    0 -0.24171100957E+04  0.58697854719E+04 -0.13975679944E+04  0.65000000000E+04  0.10000000000E+01 0.  0.
    9000001    1    1    2    0    0  0.24171100957E+04 -0.58697854719E+04  0.13975679944E+04  0.65000000000E+04  0.10000000000E+01 0.  0.
</event>
<event>
 4    1  0.2193160E-006  0.1300000E+05  0.7957747E-01  0.1322471E+00
    9000001   -1    0    0    0    0  0.00000000000E+00  0.00000000000E+00  0.64999999231E+04  0.65000000000E+04  0.10000000000E+01 0.  0.
    9000001   -1    0    0    0    0 -0.00000000000E+00 -0.00000000000E+00 -0.64999999231E+04  0.65000000000E+04  0.10000000000E+01 0.  0.
    9000001    1    1    2    0    0 -0.38542596528E+04 -0.52215296262E+04 -0.36098461510E+03  0.65000000000E+04  0.10000000000E+01 0.  0.
    9000001    1    1    2    0    0  0.38542596528E+04  0.52215296262E+04  0.36098461510E+03  0.65000000000E+04  0.10000000000E+01 0.  0.
</event>
<event>
 4    1  0.2193160E-006  0.1300000E+05  0.7957747E-01  0.1322471E+00
    9000001   -1    0    0    0    0  0.00000000000E+00  0.00000000000E+00  0.64999999231E+04  0.65000000000E+04  0.10000000000E+01 0.  0.
    9000001   -1    0    0    0    0 -0.00000000000E+00 -0.00000000000E+00 -0.64999999231E+04  0.65000000000E+04  0.10000000000E+01 0.  0.
    9000001    1    1    2    0    0 -0.10883690250E+03 -0.63083185513E+04 -0.15630964731E+04  0.65000000000E+04  0.10000000000E+01 0.  0.
    9000001    1    1    2    0    0  0.10883690250E+03  0.63083185513E+04  0.15630964731E+04  0.65000000000E+04  0.10000000000E+01 0.  0.
</event>
<event>
 4    1  0.2193160E-006  0.1300000E+05  0.7957747E-01  0.1322471E+00
    9000001   -1    0    0    0    0  0.00000000000E+00  0.00000000000E+00  0.64999999231E+04  0.65000000000E+04  0.10000000000E+01 0.  0.
    9000001   -1    0    0    0    0 -0.00000000000E+00 -0.00000000000E+00 -0.64999999231E+04  0.65000000000E+04  0.10000000000E+01 0.  0.
    9000001    1    1    2    0    0 -0.11624436296E+04 -0.49536736148E+04 -0.40447300931E+04  0.65000000000E+04  0.10000000000E+01 0.  0.
    9000001    1    1    2    0    0  0.11624436296E+04  0.49536736148E+04  0.40447300931E+04  0.65000000000E+04  0.10000000000E+01 0.  0.
</event>
<event>
 4    1  0.2193160E-006  0.1300000E+05  0.7957747E-01  0.1322471E+00
    9000001   -1    0    0    0    0  0.00000000000E+00  0.00000000000E+00  0.64999999231E+04  0.65000000000E+04  0.10000000000E+01 0.  0.
    9000001   -1    0    0    0    0 -0.00000000000E+00 -0.00000000000E+00 -0.64999999231E+04  0.65000000000E+04  0.10000000000E+01 0.  0.
    9000001    1    1    2    0    0  0.31103308273E+04 -0.50310386086E+04  0.26952720944E+04  0.65000000000E+04  0.10000000000E+01 0.  0.
    9000001    1    1    2    0    0 -0.31103308273E+04  0.50310386086E+04 -0.26952720944E+04  0.65000000000E+04  0.10000000000E+01 0.  0.
</event>
<event>
 4    1  0.2193160E-006  0.1300000E+05  0.7957747E-01  0.1322471E+00
    9000001   -1    0    0    0    0  0.00000000000E+00  0.00000000000E+00  0.64999999231E+04  0.65000000000E+04  0.10000000000E+01 0.  0.
    9000001   -1    0    0    0    0 -0.00000000000E+00 -0.00000000000E+00 -0.64999999231E+04  0.65000000000E+04  0.10000000000E+01 0.  0.
    9000001    1    1    2    0    0  0.59666892873E+04 -0.22350284396E+04  0.12857938494E+04  0.65000000000E+04  0.10000000000E+01 0.  0.
    9000001    1    1    2    0    0 -0.59666892873E+04  0.22350284396E+04 -0.12857938494E+04  0.65000000000E+04  0.10000000000E+01 0.  0.
</event>
<event>
 4    1  0.2193160E-006  0.1300000E+05  0.7957747E-01  0.1322471E+00
    9000001   -1    0    0    0    0  0.00000000000E+00  0.00000000000E+00  0.64999999231E+04  0.65000000000E+04  0.10000000000E+01 0.  0.
    9000001   -1    0    0    0    0 -0.00000000000E+00 -0.00000000000E+00 -0.64999999231E+04  0.65000000000E+04  0.10000000000E+01 0.  0.
    9000001    1    1    2    0    0  0.18591884217E+04 -0.31074857300E+04  0.53978653050E+04  0.65000000000E+04  0.10000000000E+01 0.  0.
    9000001    1    1    2    0    0 -0.18591884217E+04  0.31074857300E+04 -0.53978653050E+04  0.65000000000E+04  0.10000000000E+01 0.  0.
</event>
<event>
 4    1  0.2193160E-006  0.1300000E+05  0.7957747E-01  0.1322471E+00
    9000001   -1    0    0    0    0  0.00000000000E+00  0.00000000000E+00  0.64999999231E+04  0.65000000000E+04  0.10000000000E+01 0.  0.
    9000001   -1    0    0    0    0 -0.00000000000E+00 -0.00000000000E+00 -0.64999999231E+04  0.65000000000E+04  0.10000000000E+01 0.  0.
    9000001    1    1    2    0    0 -0.32692366152E+04  0.48439354712E+04 -0.28457652934E+04  0.65000000000E+04  0.10000000000E+01 0.  0.
    9000001    1    1    2    0    0  0.32692366152E+04 -0.48439354712E+04  0.28457652934E+04  0.65000000000E+04  0.10000000000E+01 0.  0.
</event>
<event>
 4    1  0.2193160E-006  0.1300000E+05  0.7957747E-01  0.1322471E+00
    9000001   -1    0    0    0    0  0.00000000000E+00  0.00000000000E+00  0.64999999231E+04  0.65000000000E+04  0.10000000000E+01 0.  0.
    9000001   -1    0    0    0    0 -0.00000000000E+00 -0.00000000000E+00 -0.64999999231E+04  0.65000000000E+04  0.10000000000E+01 0.  0.
    9000001    1    1    2    0    0  0.48526959607E+04 -0.33243242983E+04 -0.27659010959E+04  0.65000000000E+04  0.10000000000E+01 0.  0.
    9000001    1    1    2    0    0 -0.48526959607E+04  0.33243242983E+04  0.27659010959E+04  0.65000000000E+04  0.10000000000E+01 0.  0.
</event>
<event>
 4    1  0.2193160E-006  0.1300000E+05  0.7957747E-01  0.1322471E+00
    9000001   -1    0    0    0    0  0.00000000000E+00  0.00000000000E+00  0.64999999231E+04  0.65000000000E+04  0.10000000000E+01 0.  0.
    9000001   -1    0    0    0    0 -0.00000000000E+00 -0.00000000000E+00 -0.64999999231E+04  0.65000000000E+04  0.10000000000E+01 0.  0.
    9000001    1    1    2    0    0  0.17606237585E+04  0.46903470569E+04 -0.41413581669E+04  0.65000000000E+04  0.10000000000E+01 0.  0.
    9000001    1    1    2    0    0 -0.17606237585E+04 -0.46903470569E+04  0.41413581669E+04  0.65000000000E+04  0.10000000000E+01 0.  0.
</event>
<event>
 4    1  0.2193160E-006  0.1300000E+05  0.7957747E-01  0.1322471E+00
    9000001   -1    0    0    0    0  0.00000000000E+00  0.00000000000E+00  0.64999999231E+04  0.65000000000E+04  0.10000000000E+01 0.  0.
    9000001   -1    0    0    0    0 -0.00000000000E+00 -0.00000000000E+00 -0.64999999231E+04  0.65000000000E+04  0.10000000000E+01 0.  0.
    9000001    1    1    2    0    0  0.30606361667E+04 -0.49359403526E+03  0.57130438633E+04  0.65000000000E+04  0.10000000000E+01 0.  0.
    9000001    1    1    2    0    0 -0.30606361667E+04  0.49359403526E+03 -0.57130438633E+04  0.65000000000E+04  0.10000000000E+01 0.  0.
</event>
<event>
 4    1  0.2193160E-006  0.1300000E+05  0.7957747E-01  0.1322471E+00
    9000001   -1    0    0    0    0  0.00000000000E+00  0.00000000000E+00  0.64999999231E+04  0.65000000000E+04  0.10000000000E+01 0.  0.
    9000001   -1    0    0    0    0 -0.00000000000E+00 -0.00000000000E+00 -0.64999999231E+04  0.65000000000E+04  0.10000000000E+01 0.  0.
    9000001    1    1    2    0    0 -0.59088599618E+04  0.24074342865E+04  0.12408195307E+04  0.65000000000E+04  0.10000000000E+01 0.  0.
    9000001    1    1    2    0    0  0.59088599618E+04 -0.24074342865E+04 -0.12408195307E+04  0.65000000000E+04  0.10000000000E+01 0.  0.
</event>
<event>
 4    1  0.2193160E-006  0.1300000E+05  0.7957747E-01  0.1322471E+00
    9000001   -1    0    0    0    0  0.00000000000E+00  0.00000000000E+00  0.64999999231E+04  0.65000000000E+04  0.10000000000E+01 0.  0.
    9000001   -1    0    0    0    0 -0.00000000000E+00 -0.00000000000E+00 -0.64999999231E+04  0.65000000000E+04  0.10000000000E+01 0.  0.
    9000001    1    1    2    0    0  0.42084820057E+04  0.28891469830E+04 -0.40238672839E+04  0.65000000000E+04  0.10000000000E+01 0.  0.
    9000001    1    1    2    0    0 -0.42084820057E+04 -0.28891469830E+04  0.40238672839E+04  0.65000000000E+04  0.10000000000E+01 0.  0.
</event>
<event>
 4    1  0.2193160E-006  0.1300000E+05  0.7957747E-01  0.1322471E+00
    9000001   -1    0    0    0    0  0.00000000000E+00  0.00000000000E+00  0.64999999231E+04  0.65000000000E+04  0.10000000000E+01 0.  0.
    9000001   -1    0    0    0    0 -0.00000000000E+00 -0.00000000000E+00 -0.64999999231E+04  0.65000000000E+04  0.10000000000E+01 0.  0.
    9000001    1    1    2    0    0 -0.38775672743E+04  0.39565140761E+04 -0.34000687344E+04  0.65000000000E+04  0.10000000000E+01 0.  0.
    9000001    1    1    2    0    0  0.38775672743E+04 -0.39565140761E+04  0.34000687344E+04  0.65000000000E+04  0.10000000000E+01 0.  0.
</event>
<event>
 4    1  0.2193160E-006  0.1300000E+05  0.7957747E-01  0.1322471E+00
    9000001   -1    0    0    0    0  0.00000000000E+00  0.00000000000E+00  0.64999999231E+04  0.65000000000E+04  0.10000000000E+01 0.  0.
    9000001   -1    0    0    0    0 -0.00000000000E+00 -0.00000000000E+00 -0.64999999231E+04  0.65000000000E+04  0.10000000000E+01 0.  0.
    9000001    1    1    2    0    0  0.64818912391E+04 -0.28653619075E+03  0.39112910449E+03  0.65000000000E+04  0.10000000000E+01 0.  0.
    9000001    1    1    2    0    0 -0.64818912391E+04  0.28653619075E+03 -0.39112910449E+03  0.65000000000E+04  0.10000000000E+01 0.  0.
</event>
<event>
 4    1  0.2193160E-006  0.1300000E+05  0.7957747E-01  0.1322471E+00
    9000001   -1    0    0    0    0  0.00000000000E+00  0.00000000000E+00  0.64999999231E+04  0.65000000000E+04  0.10000000000E+01 0.  0.
    9000001   -1    0    0    0    0 -0.00000000000E+00 -0.00000000000E+00 -0.64999999231E+04  0.65000000000E+04  0.10000000000E+01 0.  0.
    9000001    1    1    2    0    0 -0.30665310549E+04  0.53931826925E+04 -0.19390633652E+04  0.65000000000E+04  0.10000000000E+01 0.  0.
    9000001    1    1    2    0    0  0.30665310549E+04 -0.53931826925E+04  0.19390633652E+04  0.65000000000E+04  0.10000000000E+01 0.  0.
</event>
<event>
 4    1  0.2193160E-006  0.1300000E+05  0.7957747E-01  0.1322471E+00
    9000001   -1    0    0    0    0  0.00000000000E+00  0.00000000000E+00  0.64999999231E+04  0.65000000000E+04  0.10000000000E+01 0.  0.
    9000001   -1    0    0    0    0 -0.00000000000E+00 -0.00000000000E+00 -0.64999999231E+04  0.65000000000E+04  0.10000000000E+01 0.  0.
    9000001    1    1    2    0    0  0.33678572940E+04 -0.52129353281E+04  0.19320562912E+04  0.65000000000E+04  0.10000000000E+01 0.  0.
    9000001    1    1    2    0    0 -0.33678572940E+04  0.52129353281E+04 -0.19320562912E+04  0.65000000000E+04  0.10000000000E+01 0.  0.
</event>
<event>
 4    1  0.2193160E-006  0.1300000E+05  0.7957747E-01  0.1322471E+00
    9000001   -1    0    0    0    0  0.00000000000E+00  0.00000000000E+00  0.64999999231E+04  0.65000000000E+04  0.10000000000E+01 0.  0.
    9000001   -1    0    0    0    0 -0.00000000000E+00 -0.00000000000E+00 -0.64999999231E+04  0.65000000000E+04  0.10000000000E+01 0.  0.
    9000001    1    1    2    0    0 -0.23359794497E+04  0.30803395943E+04 -0.52253906068E+04  0.65000000000E+04  0.10000000000E+01 0.  0.
    9000001    1    1    2    0    0  0.23359794497E+04 -0.30803395943E+04  0.52253906068E+04  0.65000000000E+04  0.10000000000E+01 0.  0.
</event>
<event>
 4    1  0.2193160E-006  0.1300000E+05  0.7957747E-01  0.1322471E+00
    9000001   -1    0    0    0    0  0.00000000000E+00  0.00000000000E+00  0.64999999231E+04  0.65000000000E+04  0.10000000000E+01 0.  0.
    9000001   -1    0    0    0    0 -0.00000000000E+00 -0.00000000000E+00 -0.64999999231E+04  0.65000000000E+04  0.10000000000E+01 0.  0.
    9000001    1    1    2    0    0  0.24934661084E+04  0.59677494441E+04 -0.64698712437E+03  0.65000000000E+04  0.10000000000E+01 0.  0.
    9000001    1    1    2    0    0 -0.24934661084E+04 -0.59677494441E+04  0.64698712437E+03  0.65000000000E+04  0.10000000000E+01 0.  0.
</event>
<event>
 4    1  0.2193160E-006  0.1300000E+05  0.7957747E-01  0.1322471E+00
    9000001   -1    0    0    0    0  0.00000000000E+00  0.00000000000E+00  0.64999999231E+04  0.65000000000E+04  0.10000000000E+01 0.  0.
    9000001   -1    0    0    0    0 -0.00000000000E+00 -0.00000000000E+00 -0.64999999231E+04  0.65000000000E+04  0.10000000000E+01 0.  0.
    9000001    1    1    2    0    0 -0.42306700419E+04  0.47764172807E+04  0.12398661046E+04  0.65000000000E+04  0.10000000000E+01 0.  0.
    9000001    1    1    2    0    0  0.42306700419E+04 -0.47764172807E+04 -0.12398661046E+04  0.65000000000E+04  0.10000000000E+01 0.  0.
</event>
<event>
 4    1  0.2193160E-006  0.1300000E+05  0.7957747E-01  0.1322471E+00
    9000001   -1    0    0    0    0  0.00000000000E+00  0.00000000000E+00  0.64999999231E+04  0.65000000000E+04  0.10000000000E+01 0.  0.
    9000001   -1    0    0    0    0 -0.00000000000E+00 -0.00000000000E+00 -0.64999999231E+04  0.65000000000E+04  0.10000000000E+01 0.  0.
    9000001    1    1    2    0    0 -0.54553431110E+04  0.30449481092E+04  0.17937451194E+04  0.65000000000E+04  0.10000000000E+01 0.  0.
    9000001    1    1    2    0    0  0.54553431110E+04 -0.30449481092E+04 -0.17937451194E+04  0.65000000000E+04  0.10000000000E+01 0.  0.
</event>
<event>
 4    1  0.2193160E-006  0.1300000E+05  0.7957747E-01  0.1322471E+00
    9000001   -1    0    0    0    0  0.00000000000E+00  0.00000000000E+00  0.64999999231E+04  0.65000000000E+04  0.10000000000E+01 0.  0.
    9000001   -1    0    0    0    0 -0.00000000000E+00 -0.00000000000E+00 -0.64999999231E+04  0.65000000000E+04  0.10000000000E+01 0.  0.
    9000001    1    1    2    0    0  0.39286322858E+04 -0.21022721515E+04  0.47324728382E+04  0.65000000000E+04  0.10000000000E+01 0.  0.
    9000001    1    1    2    0    0 -0.39286322858E+04  0.21022721515E+04 -0.47324728382E+04  0.65000000000E+04  0.10000000000E+01 0.  0.
</event>
<event>
 4    1  0.2193160E-006  0.1300000E+05  0.7957747E-01  0.1322471E+00
    9000001   -1    0    0    0    0  0.00000000000E+00  0.00000000000E+00  0.64999999231E+04  0.65000000000E+04  0.10000000000E+01 0.  0.
    9000001   -1    0    0    0    0 -0.00000000000E+00 -0.00000000000E+00 -0.64999999231E+04  0.65000000000E+04  0.10000000000E+01 0.  0.
    9000001    1    1    2    0    0  0.10438914880E+04  0.40184223766E+04  0.50012569584E+04  0.65000000000E+04  0.10000000000E+01 0.  0.
    9000001    1    1    2    0    0 -0.10438914880E+04 -0.40184223766E+04 -0.50012569584E+04  0.65000000000E+04  0.10000000000E+01 0.  0.
</event>
<event>
 4    1  0.2193160E-006  0.1300000E+05  0.7957747E-01  0.1322471E+00
    9000001   -1    0    0    0    0  0.00000000000E+00  0.00000000000E+00  0.64999999231E+04  0.65000000000E+04  0.10000000000E+01 0.  0.
    9000001   -1    0    0    0    0 -0.00000000000E+00 -0.00000000000E+00 -0.64999999231E+04  0.65000000000E+04  0.10000000000E+01 0.  0.
    9000001    1    1    2    0    0 -0.71457462937E+03 -0.64570615018E+04  0.21386645591E+03  0.65000000000E+04  0.10000000000E+01 0.  0.
    9000001    1    1    2    0    0  0.71457462937E+03  0.64570615018E+04 -0.21386645591E+03  0.65000000000E+04  0.10000000000E+01 0.  0.
</event>
<event>
 4    1  0.2193160E-006  0.1300000E+05  0.7957747E-01  0.1322471E+00
    9000001   -1    0    0    0    0  0.00000000000E+00  0.00000000000E+00  0.64999999231E+04  0.65000000000E+04  0.10000000000E+01 0.  0.
    9000001   -1    0    0    0    0 -0.00000000000E+00 -0.00000000000E+00 -0.64999999231E+04  0.65000000000E+04  0.10000000000E+01 0.  0.
    9000001    1    1    2    0    0 -0.64926045397E+03  0.27463502308E+04  0.58554265662E+04  0.65000000000E+04  0.10000000000E+01 0.  0.
    9000001    1    1    2    0    0  0.64926045397E+03 -0.27463502308E+04 -0.58554265662E+04  0.65000000000E+04  0.10000000000E+01 0.  0.
</event>
<event>
 4    1  0.2193160E-006  0.1300000E+05  0.7957747E-01  0.1322471E+00
    9000001   -1    0    0    0    0  0.00000000000E+00  0.00000000000E+00  0.64999999231E+04  0.65000000000E+04  0.10000000000E+01 0.  0.
    9000001   -1    0    0    0    0 -0.00000000000E+00 -0.00000000000E+00 -0.64999999231E+04  0.65000000000E+04  0.10000000000E+01 0.  0.
    9000001    1    1    2    0    0  0.12937973102E+03  0.62909138873E+04  0.16302338321E+04  0.65000000000E+04  0.10000000000E+01 0.  0.
    9000001    1    1    2    0    0 -0.12937973102E+03 -0.62909138873E+04 -0.16302338321E+04  0.65000000000E+04  0.10000000000E+01 0.  0.
</event>
<event>
 4    1  0.2193160E-006  0.1300000E+05  0.7957747E-01  0.1322471E+00
    9000001   -1    0    0    0    0  0.00000000000E+00  0.00000000000E+00  0.64999999231E+04  0.65000000000E+04  0.10000000000E+01 0.  0.
    9000001   -1    0    0    0    0 -0.00000000000E+00 -0.00000000000E+00 -0.64999999231E+04  0.65000000000E+04  0.10000000000E+01 0.  0.
    9000001    1    1    2    0    0  0.36938816203E+04 -0.35747335769E+04  0.39782555762E+04  0.65000000000E+04  0.10000000000E+01 0.  0.
    9000001    1    1    2    0    0 -0.36938816203E+04  0.35747335769E+04 -0.39782555762E+04  0.65000000000E+04  0.10000000000E+01 0.  0.
</event>
<event>
 4    1  0.2193160E-006  0.1300000E+05  0.7957747E-01  0.1322471E+00
    9000001   -1    0    0    0    0  0.00000000000E+00  0.00000000000E+00  0.64999999231E+04  0.65000000000E+04  0.10000000000E+01 0.  0.
    9000001   -1    0    0    0    0 -0.00000000000E+00 -0.00000000000E+00 -0.64999999231E+04  0.65000000000E+04  0.10000000000E+01 0.  0.
    9000001    1    1    2    0    0 -0.18251656346E+04 -0.56861583078E+04  0.25663930145E+04  0.65000000000E+04  0.10000000000E+01 0.  0.
    9000001    1    1    2    0    0  0.18251656346E+04  0.56861583078E+04 -0.25663930145E+04  0.65000000000E+04  0.10000000000E+01 0.  0.
</event>
<event>
 4    1  0.2193160E-006  0.1300000E+05  0.7957747E-01  0.1322471E+00
    9000001   -1    0    0    0    0  0.00000000000E+00  0.00000000000E+00  0.64999999231E+04  0.65000000000E+04  0.10000000000E+01 0.  0.
    9000001   -1    0    0    0    0 -0.00000000000E+00 -0.00000000000E+00 -0.64999999231E+04  0.65000000000E+04  0.10000000000E+01 0.  0.
    9000001    1    1    2    0    0 -0.17482508637E+03  0.64686799515E+04 -0.61287427279E+03  0.65000000000E+04  0.10000000000E+01 0.  0.
    9000001    1    1    2    0    0  0.17482508637E+03 -0.64686799515E+04  0.61287427279E+03  0.65000000000E+04  0.10000000000E+01 0.  0.
</event>
<event>
 4    1  0.2193160E-006  0.1300000E+05  0.7957747E-01  0.1322471E+00
    9000001   -1    0    0    0    0  0.00000000000E+00  0.00000000000E+00  0.64999999231E+04  0.65000000000E+04  0.10000000000E+01 0.  0.
    9000001   -1    0    0    0    0 -0.00000000000E+00 -0.00000000000E+00 -0.64999999231E+04  0.65000000000E+04  0.10000000000E+01 0.  0.
    9000001    1    1    2    0    0 -0.52375778985E+04 -0.27218882473E+03  0.38397512942E+04  0.65000000000E+04  0.10000000000E+01 0.  0.
    9000001    1    1    2    0    0  0.52375778985E+04  0.27218882473E+03 -0.38397512942E+04  0.65000000000E+04  0.10000000000E+01 0.  0.
</event>
<event>
 4    1  0.2193160E-006  0.1300000E+05  0.7957747E-01  0.1322471E+00
    9000001   -1    0    0    0    0  0.00000000000E+00  0.00000000000E+00  0.64999999231E+04  0.65000000000E+04  0.10000000000E+01 0.  0.
    9000001   -1    0    0    0    0 -0.00000000000E+00 -0.00000000000E+00 -0.64999999231E+04  0.65000000000E+04  0.10000000000E+01 0.  0.
    9000001    1    1    2    0    0  0.15260812729E+04  0.26185759298E+04 -0.57501421764E+04  0.65000000000E+04  0.10000000000E+01 0.  0.
    9000001    1    1    2    0    0 -0.15260812729E+04 -0.26185759298E+04  0.57501421764E+04  0.65000000000E+04  0.10000000000E+01 0.  0.
</event>
<event>
 4    1  0.2193160E-006  0.1300000E+05  0.7957747E-01  0.1322471E+00
    9000001   -1    0    0    0    0  0.00000000000E+00  0.00000000000E+00  0.64999999231E+04  0.65000000000E+04  0.10000000000E+01 0.  0.
    9000001   -1    0    0    0    0 -0.00000000000E+00 -0.00000000000E+00 -0.64999999231E+04  0.65000000000E+04  0.10000000000E+01 0.  0.
    9000001    1    1    2    0    0  0.11701553160E+04  0.58890007382E+04 -0.24900614132E+04  0.65000000000E+04  0.10000000000E+01 0.  0.
    9000001    1    1    2    0    0 -0.11701553160E+04 -0.58890007382E+04  0.24900614132E+04  0.65000000000E+04  0.10000000000E+01 0.  0.
</event>
<event>
 4    1  0.2193160E-006  0.1300000E+05  0.7957747E-01  0.1322471E+00
    9000001   -1    0    0    0    0  0.00000000000E+00  0.00000000000E+00  0.64999999231E+04  0.65000000000E+04  0.10000000000E+01 0.  0.
    9000001   -1    0    0    0    0 -0.00000000000E+00 -0.00000000000E+00 -0.64999999231E+04  0.65000000000E+04  0.10000000000E+01 0.  0.
    9000001    1    1    2    0    0 -0.14764396299E+04  0.49304588188E+04 -0.39699749188E+04  0.65000000000E+04  0.10000000000E+01 0.  0.
    9000001    1    1    2    0    0  0.14764396299E+04 -0.49304588188E+04  0.39699749188E+04  0.65000000000E+04  0.10000000000E+01 0.  0.
</event>
<event>
 4    1  0.2193160E-006  0.1300000E+05  0.7957747E-01  0.1322471E+00
    9000001   -1    0    0    0    0  0.00000000000E+00  0.00000000000E+00  0.64999999231E+04  0.65000000000E+04  0.10000000000E+01 0.  0.
    9000001   -1    0    0    0    0 -0.00000000000E+00 -0.00000000000E+00 -0.64999999231E+04  0.65000000000E+04  0.10000000000E+01 0.  0.
    9000001    1    1    2    0    0  0.16690869008E+04 -0.56786693325E+04 -0.26864218822E+04  0.65000000000E+04  0.10000000000E+01 0.  0.
    9000001    1    1    2    0    0 -0.16690869008E+04  0.56786693325E+04  0.26864218822E+04  0.65000000000E+04  0.10000000000E+01 0.  0.
</event>
<event>
 4    1  0.2193160E-006  0.1300000E+05  0.7957747E-01  0.1322471E+00
    9000001   -1    0    0    0    0  0.00000000000E+00  0.00000000000E+00  0.64999999231E+04  0.65000000000E+04  0.10000000000E+01 0.  0.
    9000001   -1    0    0    0    0 -0.00000000000E+00 -0.00000000000E+00 -0.64999999231E+04  0.65000000000E+04  0.10000000000E+01 0.  0.
    9000001    1    1    2    0    0  0.51965986195E+04  0.26448980251E+04  0.28722597766E+04  0.65000000000E+04  0.10000000000E+01 0.  0.
    9000001    1    1    2    0    0 -0.51965986195E+04 -0.26448980251E+04 -0.28722597766E+04  0.65000000000E+04  0.10000000000E+01 0.  0.
</event>
<event>
 4    1  0.2193160E-006  0.1300000E+05  0.7957747E-01  0.1322471E+00
    9000001   -1    0    0    0    0  0.00000000000E+00  0.00000000000E+00  0.64999999231E+04  0.65000000000E+04  0.10000000000E+01 0.  0.
    9000001   -1    0    0    0    0 -0.00000000000E+00 -0.00000000000E+00 -0.64999999231E+04  0.65000000000E+04  0.10000000000E+01 0.  0.
    9000001    1    1    2    0    0 -0.43613645499E+04 -0.31988485897E+04 -0.36049779421E+04  0.65000000000E+04  0.10000000000E+01 0.  0.
    9000001    1    1    2    0    0  0.43613645499E+04  0.31988485897E+04  0.36049779421E+04  0.65000000000E+04  0.10000000000E+01 0.  0.
</event>
<event>
 4    1  0.2193160E-006  0.1300000E+05  0.7957747E-01  0.1322471E+00
    9000001   -1    0    0    0    0  0.00000000000E+00  0.00000000000E+00  0.64999999231E+04  0.65000000000E+04  0.10000000000E+01 0.  0.
    9000001   -1    0    0    0    0 -0.00000000000E+00 -0.00000000000E+00 -0.64999999231E+04  0.65000000000E+04  0.10000000000E+01 0.  0.
    9000001    1    1    2    0    0  0.54440066848E+04  0.35452164976E+04  0.21030977499E+03  0.65000000000E+04  0.10000000000E+01 0.  0.
    9000001    1    1    2    0    0 -0.54440066848E+04 -0.35452164976E+04 -0.21030977499E+03  0.65000000000E+04  0.10000000000E+01 0.  0.
</event>
<event>
 4    1  0.2193160E-006  0.1300000E+05  0.7957747E-01  0.1322471E+00
    9000001   -1    0    0    0    0  0.00000000000E+00  0.00000000000E+00  0.64999999231E+04  0.65000000000E+04  0.10000000000E+01 0.  0.
    9000001   -1    0    0    0    0 -0.00000000000E+00 -0.00000000000E+00 -0.64999999231E+04  0.65000000000E+04  0.10000000000E+01 0.  0.
    9000001    1    1    2    0    0 -0.17372583034E+04 -0.12680695414E+03  0.62622561895E+04  0.65000000000E+04  0.10000000000E+01 0.  0.
    9000001    1    1    2    0    0  0.17372583034E+04  0.12680695414E+03 -0.62622561895E+04  0.65000000000E+04  0.10000000000E+01 0.  0.
</event>
<event>
 4    1  0.2193160E-006  0.1300000E+05  0.7957747E-01  0.1322471E+00
    9000001   -1    0    0    0    0  0.00000000000E+00  0.00000000000E+00  0.64999999231E+04  0.65000000000E+04  0.10000000000E+01 0.  0.
    9000001   -1    0    0    0    0 -0.00000000000E+00 -0.00000000000E+00 -0.64999999231E+04  0.65000000000E+04  0.10000000000E+01 0.  0.
    9000001    1    1    2    0    0 -0.52619129507E+04 -0.29843977810E+04 -0.23781591586E+04  0.65000000000E+04  0.10000000000E+01 0.  0.
    9000001    1    1    2    0    0  0.52619129507E+04  0.29843977810E+04  0.23781591586E+04  0.65000000000E+04  0.10000000000E+01 0.  0.
</event>
<event>
 4    1  0.2193160E-006  0.1300000E+05  0.7957747E-01  0.1322471E+00
    9000001   -1    0    0    0    0  0.00000000000E+00  0.00000000000E+00  0.64999999231E+04  0.65000000000E+04  0.10000000000E+01 0.  0.
    9000001   -1    0    0    0    0 -0.00000000000E+00 -0.00000000000E+00 -0.64999999231E+04  0.65000000000E+04  0.10000000000E+01 0.  0.
    9000001    1    1    2    0    0  0.63940258476E+04 -0.11469564470E+04 -0.22566206847E+03  0.65000000000E+04  0.10000000000E+01 0.  0.
    9000001    1    1    2    0    0 -0.63940258476E+04  0.11469564470E+04  0.22566206847E+03  0.65000000000E+04  0.10000000000E+01 0.  0.
</event>
<event>
 4    1  0.2193160E-006  0.1300000E+05  0.7957747E-01  0.1322471E+00
    9000001   -1    0    0    0    0  0.00000000000E+00  0.00000000000E+00  0.64999999231E+04  0.65000000000E+04  0.10000000000E+01 0.  0.
    9000001   -1    0    0    0    0 -0.00000000000E+00 -0.00000000000E+00 -0.64999999231E+04  0.65000000000E+04  0.10000000000E+01 0.  0.
    9000001    1    1    2    0    0 -0.38242174000E+04  0.50443655548E+04  0.14763930462E+04  0.65000000000E+04  0.10000000000E+01 0.  0.
    9000001    1    1    2    0    0  0.38242174000E+04 -0.50443655548E+04 -0.14763930462E+04  0.65000000000E+04  0.10000000000E+01 0.  0.
</event>
<event>
 4    1  0.2193160E-006  0.1300000E+05  0.7957747E-01  0.1322471E+00
    9000001   -1    0    0    0    0  0.00000000000E+00  0.00000000000E+00  0.64999999231E+04  0.65000000000E+04  0.10000000000E+01 0.  0.
    9000001   -1    0    0    0    0 -0.00000000000E+00 -0.00000000000E+00 -0.64999999231E+04  0.65000000000E+04  0.10000000000E+01 0.  0.
    9000001    1    1    2    0    0  0.20466193217E+04 -0.33463290413E+04 -0.51829943372E+04  0.65000000000E+04  0.10000000000E+01 0.  0.
    9000001    1    1    2    0    0 -0.20466193217E+04  0.33463290413E+04  0.51829943372E+04  0.65000000000E+04  0.10000000000E+01 0.  0.
</event>
<event>
 4    1  0.2193160E-006  0.1300000E+05  0.7957747E-01  0.1322471E+00
    9000001   -1    0    0    0    0  0.00000000000E+00  0.00000000000E+00  0.64999999231E+04  0.65000000000E+04  0.10000000000E+01 0.  0.
    9000001   -1    0    0    0    0 -0.00000000000E+00 -0.00000000000E+00 -0.64999999231E+04  0.65000000000E+04  0.10000000000E+01 0.  0.
    9000001    1    1    2    0    0  0.12159830000E+04  0.31135761370E+04 -0.55746773882E+04  0.65000000000E+04  0.10000000000E+01 0.  0.
    9000001    1    1    2    0    0 -0.12159830000E+04 -0.31135761370E+04  0.55746773882E+04  0.65000000000E+04  0.10000000000E+01 0.  0.
</event>
<event>
 4    1  0.2193160E-006  0.1300000E+05  0.7957747E-01  0.1322471E+00
    9000001   -1    0    0    0    0  0.00000000000E+00  0.00000000000E+00  0.64999999231E+04  0.65000000000E+04  0.10000000000E+01 0.  0.
    9000001   -1    0    0    0    0 -0.00000000000E+00 -0.00000000000E+00 -0.64999999231E+04  0.65000000000E+04  0.10000000000E+01 0.  0.
    9000001    1    1    2    0    0  0.26507379961E+04  0.30545877345E+04 -0.50885244274E+04  0.65000000000E+04  0.10000000000E+01 0.  0.
    9000001    1    1    2    0    0 -0.26507379961E+04 -0.30545877345E+04  0.50885244274E+04  0.65000000000E+04  0.10000000000E+01 0.  0.
</event>
<event>
 4    1  0.2193160E-006  0.1300000E+05  0.7957747E-01  0.1322471E+00
    9000001   -1    0    0    0    0  0.00000000000E+00  0.00000000000E+00  0.64999999231E+04  0.65000000000E+04  0.10000000000E+01 0.  0.
    9000001   -1    0    0    0    0 -0.00000000000E+00 -0.00000000000E+00 -0.64999999231E+04  0.65000000000E+04  0.10000000000E+01 0.  0.
    9000001    1    1    2    0    0  0.61694024476E+04  0.19976522448E+04 -0.44481226169E+03  0.65000000000E+04  0.10000000000E+01 0.  0.
    9000001    1    1    2    0    0 -0.61694024476E+04 -0.19976522448E+04  0.44481226169E+03  0.65000000000E+04  0.10000000000E+01 0.  0.
</event>
<event>
 4    1  0.2193160E-006  0.1300000E+05  0.7957747E-01  0.1322471E+00
    9000001   -1    0    0    0    0  0.00000000000E+00  0.00000000000E+00  0.64999999231E+04  0.65000000000E+04  0.10000000000E+01 0.  0.
    9000001   -1    0    0    0    0 -0.00000000000E+00 -0.00000000000E+00 -0.64999999231E+04  0.65000000000E+04  0.10000000000E+01 0.  0.
    9000001    1    1    2    0    0 -0.13704592097E+04  0.52768653433E+04 -0.35392842077E+04  0.65000000000E+04  0.10000000000E+01 0.  0.
    9000001    1    1    2    0    0  0.13704592097E+04 -0.52768653433E+04  0.35392842077E+04  0.65000000000E+04  0.10000000000E+01 0.  0.
</event>
<event>
 4    1  0.2193160E-006  0.1300000E+05  0.7957747E-01  0.1322471E+00
    9000001   -1    0    0    0    0  0.00000000000E+00  0.00000000000E+00  0.64999999231E+04  0.65000000000E+04  0.10000000000E+01 0.  0.
    9000001   -1    0    0    0    0 -0.00000000000E+00 -0.00000000000E+00 -0.64999999231E+04  0.65000000000E+04  0.10000000000E+01 0.  0.
    9000001    1    1    2    0    0  0.63941182178E+04  0.36292448787E+03  0.11106471233E+04  0.65000000000E+04  0.10000000000E+01 0.  0.
    9000001    1    1    2    0    0 -0.63941182178E+04 -0.36292448787E+03 -0.11106471233E+04  0.65000000000E+04  0.10000000000E+01 0.  0.
</event>
<event>
 4    1  0.2193160E-006  0.1300000E+05  0.7957747E-01  0.1322471E+00
    9000001   -1    0    0    0    0  0.00000000000E+00  0.00000000000E+00  0.64999999231E+04  0.65000000000E+04  0.10000000000E+01 0.  0.
    9000001   -1    0    0    0    0 -0.00000000000E+00 -0.00000000000E+00 -0.64999999231E+04  0.65000000000E+04  0.10000000000E+01 0.  0.
    9000001    1    1    2    0    0 -0.18418061228E+04 -0.62105252105E+04 -0.53584122242E+03  0.65000000000E+04  0.10000000000E+01 0.  0.
    9000001    1    1    2    0    0  0.18418061228E+04  0.62105252105E+04  0.53584122242E+03  0.65000000000E+04  0.10000000000E+01 0.  0.
</event>
<event>
 4    1  0.2193160E-006  0.1300000E+05  0.7957747E-01  0.1322471E+00
    9000001   -1    0    0    0    0  0.00000000000E+00  0.00000000000E+00  0.64999999231E+04  0.65000000000E+04  0.10000000000E+01 0.  0.
    9000001   -1    0    0    0    0 -0.00000000000E+00 -0.00000000000E+00 -0.64999999231E+04  0.65000000000E+04  0.10000000000E+01 0.  0.
    9000001    1    1    2    0    0  0.47776140268E+04 -0.26109090028E+04  0.35507122369E+04  0.65000000000E+04  0.10000000000E+01 0.  0.
    9000001    1    1    2    0    0 -0.47776140268E+04  0.26109090028E+04 -0.35507122369E+04  0.65000000000E+04  0.10000000000E+01 0.  0.
</event>
<event>
 4    1  0.2193160E-006  0.1300000E+05  0.7957747E-01  0.1322471E+00
    9000001   -1    0    0    0    0  0.00000000000E+00  0.00000000000E+00  0.64999999231E+04  0.65000000000E+04  0.10000000000E+01 0.  0.
    9000001   -1    0    0    0    0 -0.00000000000E+00 -0.00000000000E+00 -0.64999999231E+04  0.65000000000E+04  0.10000000000E+01 0.  0.
    9000001    1    1    2    0    0 -0.57730248175E+04 -0.37747953128E+03 -0.29630546165E+04  0.65000000000E+04  0.10000000000E+01 0.  0.
    9000001    1    1    2    0    0  0.57730248175E+04  0.37747953128E+03  0.29630546165E+04  0.65000000000E+04  0.10000000000E+01 0.  0.
</event>
<event>
 4    1  0.2193160E-006  0.1300000E+05  0.7957747E-01  0.1322471E+00
    9000001   -1    0    0    0    0  0.00000000000E+00  0.00000000000E+00  0.64999999231E+04  0.65000000000E+04  0.10000000000E+01 0.  0.
    9000001   -1    0    0    0    0 -0.00000000000E+00 -0.00000000000E+00 -0.64999999231E+04  0.65000000000E+04  0.10000000000E+01 0.  0.
    9000001    1    1    2    0    0 -0.29365795165E+04  0.36344942731E+04 -0.45185120473E+04  0.65000000000E+04  0.10000000000E+01 0.  0.
    9000001    1    1    2    0    0  0.29365795165E+04 -0.36344942731E+04  0.45185120473E+04  0.65000000000E+04  0.10000000000E+01 0.  0.
</event>
<event>
 4    1  0.2193160E-006  0.1300000E+05  0.7957747E-01  0.1322471E+00
    9000001   -1    0    0    0    0  0.00000000000E+00  0.00000000000E+00  0.64999999231E+04  0.65000000000E+04  0.10000000000E+01 0.  0.
    9000001   -1    0    0    0    0 -0.00000000000E+00 -0.00000000000E+00 -0.64999999231E+04  0.65000000000E+04  0.10000000000E+01 0.  0.
    9000001    1    1    2    0    0 -0.42086110429E+04  0.17335096625E+04 -0.46403164051E+04  0.65000000000E+04  0.10000000000E+01 0.  0.
    9000001    1    1    2    0    0  0.42086110429E+04 -0.17335096625E+04  0.46403164051E+04  0.65000000000E+04  0.10000000000E+01 0.  0.
</event>
<event>
 4    1  0.2193160E-006  0.1300000E+05  0.7957747E-01  0.1322471E+00
    9000001   -1    0    0    0    0  0.00000000000E+00  0.00000000000E+00  0.64999999231E+04  0.65000000000E+04  0.10000000000E+01 0.  0.
    9000001   -1    0    0    0    0 -0.00000000000E+00 -0.00000000000E+00 -0.64999999231E+04  0.65000000000E+04  0.10000000000E+01 0.  0.
    9000001    1    1    2    0    0  0.37377430129E+04 -0.23734054883E+04 -0.47588047404E+04  0.65000000000E+04  0.10000000000E+01 0.  0.
    9000001    1    1    2    0    0 -0.37377430129E+04  0.23734054883E+04  0.47588047404E+04  0.65000000000E+04  0.10000000000E+01 0.  0.
</event>
<event>
 4    1  0.2193160E-006  0.1300000E+05  0.7957747E-01  0.1322471E+00
    9000001   -1    0    0    0    0  0.00000000000E+00  0.00000000000E+00  0.64999999231E+04  0.65000000000E+04  0.10000000000E+01 0.  0.
    9000001   -1    0    0    0    0 -0.00000000000E+00 -0.00000000000E+00 -0.64999999231E+04  0.65000000000E+04  0.10000000000E+01 0.  0.
    9000001    1    1    2    0    0  0.16100919820E+04  0.52984139319E+03  0.62750992747E+04  0.65000000000E+04  0.10000000000E+01 0.  0.
    9000001    1    1    2    0    0 -0.16100919820E+04 -0.52984139319E+03 -0.62750992747E+04  0.65000000000E+04  0.10000000000E+01 0.  0.
</event>
<event>
 4    1  0.2193160E-006  0.1300000E+05  0.7957747E-01  0.1322471E+00
    9000001   -1    0    0    0    0  0.00000000000E+00  0.00000000000E+00  0.64999999231E+04  0.65000000000E+04  0.10000000000E+01 0.  0.
    9000001   -1    0    0    0    0 -0.00000000000E+00 -0.00000000000E+00 -0.64999999231E+04  0.65000000000E+04  0.10000000000E+01 0.  0.
    9000001    1    1    2    0    0  0.36185555545E+04 -0.45030976156E+04 -0.29796252388E+04  0.65000000000E+04  0.10000000000E+01 0.  0.
    9000001    1    1    2    0    0 -0.36185555545E+04  0.45030976156E+04  0.29796252388E+04  0.65000000000E+04  0.10000000000E+01 0.  0.
</event>
<event>
 4    1  0.2193160E-006  0.1300000E+05  0.7957747E-01  0.1322471E+00
    9000001   -1    0    0    0    0  0.00000000000E+00  0.00000000000E+00  0.64999999231E+04  0.65000000000E+04  0.10000000000E+01 0.  0.
    9000001   -1    0    0    0    0 -0.00000000000E+00 -0.00000000000E+00 -0.64999999231E+04  0.65000000000E+04  0.10000000000E+01 0.  0.
    9000001    1    1    2    0    0 -0.70678013569E+03 -0.54837022090E+04 -0.34175240925E+04  0.65000000000E+04  0.10000000000E+01 0.  0.
    9000001    1    1    2    0    0  0.70678013569E+03  0.54837022090E+04  0.34175240925E+04  0.65000000000E+04  0.10000000000E+01 0.  0.
</event>
<event>
 4    1  0.2193160E-006  0.1300000E+05  0.7957747E-01  0.1322471E+00
    9000001   -1    0    0    0    0  0.00000000000E+00  0.00000000000E+00  0.64999999231E+04  0.65000000000E+04  0.10000000000E+01 0.  0.
    9000001   -1    0    0    0    0 -0.00000000000E+00 -0.00000000000E+00 -0.64999999231E+04  0.65000000000E+04  0.10000000000E+01 0.  0.
    9000001    1    1    2    0    0 -0.64165218695E+04  0.99568065516E+03 -0.29473060721E+03  0.65000000000E+04  0.10000000000E+01 0.  0.
    9000001    1    1    2    0    0  0.64165218695E+04 -0.99568065516E+03  0.29473060721E+03  0.65000000000E+04  0.10000000000E+01 0.  0.
</event>
<event>
 4    1  0.2193160E-006  0.1300000E+05  0.7957747E-01  0.1322471E+00
    9000001   -1    0    0    0    0  0.00000000000E+00  0.00000000000E+00  0.64999999231E+04  0.65000000000E+04  0.10000000000E+01 0.  0.
    9000001   -1    0    0    0    0 -0.00000000000E+00 -0.00000000000E+00 -0.64999999231E+04  0.65000000000E+04  0.10000000000E+01 0.  0.
    9000001    1    1    2    0    0  0.63582928130E+04 -0.39225267174E+03  0.12916072725E+04  0.65000000000E+04  0.10000000000E+01 0.  0.
    9000001    1    1    2    0    0 -0.63582928130E+04  0.39225267174E+03 -0.12916072725E+04  0.65000000000E+04  0.10000000000E+01 0.  0.
</event>
<event>
 4    1  0.2193160E-006  0.1300000E+05  0.7957747E-01  0.1322471E+00
    9000001   -1    0    0    0    0  0.00000000000E+00  0.00000000000E+00  0.64999999231E+04  0.65000000000E+04  0.10000000000E+01 0.  0.
    9000001   -1    0    0    0    0 -0.00000000000E+00 -0.00000000000E+00 -0.64999999231E+04  0.65000000000E+04  0.10000000000E+01 0.  0.
    9000001    1    1    2    0    0 -0.38523333184E+04 -0.50678519293E+04  0.13139268726E+04  0.65000000000E+04  0.10000000000E+01 0.  0.
    9000001    1    1    2    0    0  0.38523333184E+04  0.50678519293E+04 -0.13139268726E+04  0.65000000000E+04  0.10000000000E+01 0.  0.
</event>
<event>
 4    1  0.2193160E-006  0.1300000E+05  0.7957747E-01  0.1322471E+00
    9000001   -1    0    0    0    0  0.00000000000E+00  0.00000000000E+00  0.64999999231E+04  0.65000000000E+04  0.10000000000E+01 0.  0.
    9000001   -1    0    0    0    0 -0.00000000000E+00 -0.00000000000E+00 -0.64999999231E+04  0.65000000000E+04  0.10000000000E+01 0.  0.
    9000001    1    1    2    0    0 -0.35900247229E+03 -0.47120850217E+04  0.44628881874E+04  0.65000000000E+04  0.10000000000E+01 0.  0.
    9000001    1    1    2    0    0  0.35900247229E+03  0.47120850217E+04 -0.44628881874E+04  0.65000000000E+04  0.10000000000E+01 0.  0.
</event>
<event>
 4    1  0.2193160E-006  0.1300000E+05  0.7957747E-01  0.1322471E+00
    9000001   -1    0    0    0    0  0.00000000000E+00  0.00000000000E+00  0.64999999231E+04  0.65000000000E+04  0.10000000000E+01 0.  0.
    9000001   -1    0    0    0    0 -0.00000000000E+00 -0.00000000000E+00 -0.64999999231E+04  0.65000000000E+04  0.10000000000E+01 0.  0.
    9000001    1    1    2    0    0  0.21650022006E+04  0.44737279861E+04  0.41890956516E+04  0.65000000000E+04  0.10000000000E+01 0.  0.
    9000001    1    1    2    0    0 -0.21650022006E+04 -0.44737279861E+04 -0.41890956516E+04  0.65000000000E+04  0.10000000000E+01 0.  0.
</event>
<event>
 4    1  0.2193160E-006  0.1300000E+05  0.7957747E-01  0.1322471E+00
    9000001   -1    0    0    0    0  0.00000000000E+00  0.00000000000E+00  0.64999999231E+04  0.65000000000E+04  0.10000000000E+01 0.  0.
    9000001   -1    0    0    0    0 -0.00000000000E+00 -0.00000000000E+00 -0.64999999231E+04  0.65000000000E+04  0.10000000000E+01 0.  0.
    9000001    1    1    2    0    0 -0.58734889856E+04  0.39839913576E+03 -0.27556132284E+04  0.65000000000E+04  0.10000000000E+01 0.  0.
    9000001    1    1    2    0    0  0.58734889856E+04 -0.39839913576E+03  0.27556132284E+04  0.65000000000E+04  0.10000000000E+01 0.  0.
</event>
<event>
 4    1  0.2193160E-006  0.1300000E+05  0.7957747E-01  0.1322471E+00
    9000001   -1    0    0    0    0  0.00000000000E+00  0.00000000000E+00  0.64999999231E+04  0.65000000000E+04  0.10000000000E+01 0.  0.
    9000001   -1    0    0    0    0 -0.00000000000E+00 -0.00000000000E+00 -0.64999999231E+04  0.65000000000E+04  0.10000000000E+01 0.  0.
    9000001    1    1    2    0    0 -0.60491322925E+03  0.52332894875E+04 -0.38074611127E+04  0.65000000000E+04  0.10000000000E+01 0.  0.
    9000001    1    1    2    0    0  0.60491322925E+03 -0.52332894875E+04  0.38074611127E+04  0.65000000000E+04  0.10000000000E+01 0.  0.
</event>
<event>
 4    1  0.2193160E-006  0.1300000E+05  0.7957747E-01  0.1322471E+00
    9000001   -1    0    0    0    0  0.00000000000E+00  0.00000000000E+00  0.64999999231E+04  0.65000000000E+04  0.10000000000E+01 0.  0.
    9000001   -1    0    0    0    0 -0.00000000000E+00 -0.00000000000E+00 -0.64999999231E+04  0.65000000000E+04  0.10000000000E+01 0.  0.
    9000001    1    1    2    0    0 -0.16136816326E+04 -0.46426529917E+04  0.42534461072E+04  0.65000000000E+04  0.10000000000E+01 0.  0.
    9000001    1    1    2    0    0  0.16136816326E+04  0.46426529917E+04 -0.42534461072E+04  0.65000000000E+04  0.10000000000E+01 0.  0.
</event>
<event>
 4    1  0.2193160E-006  0.1300000E+05  0.7957747E-01  0.1322471E+00
    9000001   -1    0    0    0    0  0.00000000000E+00  0.00000000000E+00  0.64999999231E+04  0.65000000000E+04  0.10000000000E+01 0.  0.
    9000001   -1    0    0    0    0 -0.00000000000E+00 -0.00000000000E+00 -0.64999999231E+04  0.65000000000E+04  0.10000000000E+01 0.  0.
    9000001    1    1    2    0    0  0.56587082528E+04 -0.46634593094E+03  0.31641019868E+04  0.65000000000E+04  0.10000000000E+01 0.  0.
    9000001    1    1    2    0    0 -0.56587082528E+04  0.46634593094E+03 -0.31641019868E+04  0.65000000000E+04  0.10000000000E+01 0.  0.
</event>
<event>
 4    1  0.2193160E-006  0.1300000E+05  0.7957747E-01  0.1322471E+00
    9000001   -1    0    0    0    0  0.00000000000E+00  0.00000000000E+00  0.64999999231E+04  0.65000000000E+04  0.10000000000E+01 0.  0.
    9000001   -1    0    0    0    0 -0.00000000000E+00 -0.00000000000E+00 -0.64999999231E+04  0.65000000000E+04  0.10000000000E+01 0.  0.
    9000001    1    1    2    0    0 -0.83247837806E+03 -0.59750923629E+04 -0.24197623860E+04  0.65000000000E+04  0.10000000000E+01 0.  0.
    9000001    1    1    2    0    0  0.83247837806E+03  0.59750923629E+04  0.24197623860E+04  0.65000000000E+04  0.10000000000E+01 0.  0.
</event>
<event>
 4    1  0.2193160E-006  0.1300000E+05  0.7957747E-01  0.1322471E+00
    9000001   -1    0    0    0    0  0.00000000000E+00  0.00000000000E+00  0.64999999231E+04  0.65000000000E+04  0.10000000000E+01 0.  0.
    9000001   -1    0    0    0    0 -0.00000000000E+00 -0.00000000000E+00 -0.64999999231E+04  0.65000000000E+04  0.10000000000E+01 0.  0.
    9000001    1    1    2    0    0 -0.22367065907E+04  0.58482859699E+04 -0.17449051096E+04  0.65000000000E+04  0.10000000000E+01 0.  0.
    9000001    1    1    2    0    0  0.22367065907E+04 -0.58482859699E+04  0.17449051096E+04  0.65000000000E+04  0.10000000000E+01 0.  0.
</event>
<event>
 4    1  0.2193160E-006  0.1300000E+05  0.7957747E-01  0.1322471E+00
    9000001   -1    0    0    0    0  0.00000000000E+00  0.00000000000E+00  0.64999999231E+04  0.65000000000E+04  0.10000000000E+01 0.  0.
    9000001   -1    0    0    0    0 -0.00000000000E+00 -0.00000000000E+00 -0.64999999231E+04  0.65000000000E+04  0.10000000000E+01 0.  0.
    9000001    1    1    2    0    0 -0.42961316549E+04  0.47575312497E+04  0.10766374561E+04  0.65000000000E+04  0.10000000000E+01 0.  0.
    9000001    1    1    2    0    0  0.42961316549E+04 -0.47575312497E+04 -0.10766374561E+04  0.65000000000E+04  0.10000000000E+01 0.  0.
</event>
<event>
 4    1  0.2193160E-006  0.1300000E+05  0.7957747E-01  0.1322471E+00
    9000001   -1    0    0    0    0  0.00000000000E+00  0.00000000000E+00  0.64999999231E+04  0.65000000000E+04  0.10000000000E+01 0.  0.
    9000001   -1    0    0    0    0 -0.00000000000E+00 -0.00000000000E+00 -0.64999999231E+04  0.65000000000E+04  0.10000000000E+01 0.  0.
    9000001    1    1    2    0    0  0.71901809746E+03  0.46654018323E+04 -0.44684491402E+04  0.65000000000E+04  0.10000000000E+01 0.  0.
    9000001    1    1    2    0    0 -0.71901809746E+03 -0.46654018323E+04  0.44684491402E+04  0.65000000000E+04  0.10000000000E+01 0.  0.
</event>
<event>
 4    1  0.2193160E-006  0.1300000E+05  0.7957747E-01  0.1322471E+00
    9000001   -1    0    0    0    0  0.00000000000E+00  0.00000000000E+00  0.64999999231E+04  0.65000000000E+04  0.10000000000E+01 0.  0.
    9000001   -1    0    0    0    0 -0.00000000000E+00 -0.00000000000E+00 -0.64999999231E+04  0.65000000000E+04  0.10000000000E+01 0.  0.
    9000001    1    1    2    0    0  0.40543662010E+04 -0.18408353130E+04  0.47353393816E+04  0.65000000000E+04  0.10000000000E+01 0.  0.
    9000001    1    1    2    0    0 -0.40543662010E+04  0.18408353130E+04 -0.47353393816E+04  0.65000000000E+04  0.10000000000E+01 0.  0.
</event>
<event>
 4    1  0.2193160E-006  0.1300000E+05  0.7957747E-01  0.1322471E+00
    9000001   -1    0    0    0    0  0.00000000000E+00  0.00000000000E+00  0.64999999231E+04  0.65000000000E+04  0.10000000000E+01 0.  0.
    9000001   -1    0    0    0    0 -0.00000000000E+00 -0.00000000000E+00 -0.64999999231E+04  0.65000000000E+04  0.10000000000E+01 0.  0.
    9000001    1    1    2    0    0  0.59711050942E+04 -0.16651755070E+04  0.19552732506E+04  0.65000000000E+04  0.10000000000E+01 0.  0.
    9000001    1    1    2    0    0 -0.59711050942E+04  0.16651755070E+04 -0.19552732506E+04  0.65000000000E+04  0.10000000000E+01 0.  0.
</event>
<event>
 4    1  0.2193160E-006  0.1300000E+05  0.7957747E-01  0.1322471E+00
    9000001   -1    0    0    0    0  0.00000000000E+00  0.00000000000E+00  0.64999999231E+04  0.65000000000E+04  0.10000000000E+01 0.  0.
    9000001   -1    0    0    0    0 -0.00000000000E+00 -0.00000000000E+00 -0.64999999231E+04  0.65000000000E+04  0.10000000000E+01 0.  0.
    9000001    1    1    2    0    0 -0.18632628734E+03 -0.59445814077E+04  0.26224479788E+04  0.65000000000E+04  0.10000000000E+01 0.  0.
    9000001    1    1    2    0    0  0.18632628734E+03  0.59445814077E+04 -0.26224479788E+04  0.65000000000E+04  0.10000000000E+01 0.  0.
</event>
<event>
 4    1  0.2193160E-006  0.1300000E+05  0.7957747E-01  0.1322471E+00
    9000001   -1    0    0    0    0  0.00000000000E+00  0.00000000000E+00  0.64999999231E+04  0.65000000000E+04  0.10000000000E+01 0.  0.
    9000001   -1    0    0    0    0 -0.00000000000E+00 -0.00000000000E+00 -0.64999999231E+04  0.65000000000E+04  0.10000000000E+01 0.  0.
    9000001    1    1    2    0    0  0.27822825509E+04 -0.32973546777E+04  0.48617234533E+04  0.65000000000E+04  0.10000000000E+01 0.  0.
    9000001    1    1    2    0    0 -0.27822825509E+04  0.32973546777E+04 -0.48617234533E+04  0.65000000000E+04  0.10000000000E+01 0.  0.
</event>
<event>
 4    1  0.2193160E-006  0.1300000E+05  0.7957747E-01  0.1322471E+00
    9000001   -1    0    0    0    0  0.00000000000E+00  0.00000000000E+00  0.64999999231E+04  0.65000000000E+04  0.10000000000E+01 0.  0.
    9000001   -1    0    0    0    0 -0.00000000000E+00 -0.00000000000E+00 -0.64999999231E+04  0.65000000000E+04  0.10000000000E+01 0.  0.
    9000001    1    1    2    0    0 -0.12740805404E+04 -0.39946874528E+04 -0.49668088277E+04  0.65000000000E+04  0.10000000000E+01 0.  0.
    9000001    1    1    2    0    0  0.12740805404E+04  0.39946874528E+04  0.49668088277E+04  0.65000000000E+04  0.10000000000E+01 0.  0.
</event>
<event>
 4    1  0.2193160E-006  0.1300000E+05  0.7957747E-01  0.1322471E+00
    9000001   -1    0    0    0    0  0.00000000000E+00  0.00000000000E+00  0.64999999231E+04  0.65000000000E+04  0.10000000000E+01 0.  0.
    9000001   -1    0    0    0    0 -0.00000000000E+00 -0.00000000000E+00 -0.64999999231E+04  0.65000000000E+04  0.10000000000E+01 0.  0.
    9000001    1    1    2    0    0  0.37670733034E+04  0.52129450976E+04  0.94040477261E+03  0.65000000000E+04  0.10000000000E+01 0.  0.
    9000001    1    1    2    0    0 -0.37670733034E+04 -0.52129450976E+04 -0.94040477261E+03  0.65000000000E+04  0.10000000000E+01 0.  0.
</event>
<event>
 4    1  0.2193160E-006  0.1300000E+05  0.7957747E-01  0.1322471E+00
    9000001   -1    0    0    0    0  0.00000000000E+00  0.00000000000E+00  0.64999999231E+04  0.65000000000E+04  0.10000000000E+01 0.  0.
    9000001   -1    0    0    0    0 -0.00000000000E+00 -0.00000000000E+00 -0.64999999231E+04  0.65000000000E+04  0.10000000000E+01 0.  0.
    9000001    1    1    2    0    0 -0.22636188751E+04 -0.31540446865E+04 -0.52132552886E+04  0.65000000000E+04  0.10000000000E+01 0.  0.
    9000001    1    1    2    0    0  0.22636188751E+04  0.31540446865E+04  0.52132552886E+04  0.65000000000E+04  0.10000000000E+01 0.  0.
</event>
<event>
 4    1  0.2193160E-006  0.1300000E+05  0.7957747E-01  0.1322471E+00
    9000001   -1    0    0    0    0  0.00000000000E+00  0.00000000000E+00  0.64999999231E+04  0.65000000000E+04  0.10000000000E+01 0.  0.
    9000001   -1    0    0    0    0 -0.00000000000E+00 -0.00000000000E+00 -0.64999999231E+04  0.65000000000E+04  0.10000000000E+01 0.  0.
    9000001    1    1    2    0    0 -0.74597776045E+03 -0.92338285097E+03  0.63906869968E+04  0.65000000000E+04  0.10000000000E+01 0.  0.
    9000001    1    1    2    0    0  0.74597776045E+03  0.92338285097E+03 -0.63906869968E+04  0.65000000000E+04  0.10000000000E+01 0.  0.
</event>
<event>
 4    1  0.2193160E-006  0.1300000E+05  0.7957747E-01  0.1322471E+00
    9000001   -1    0    0    0    0  0.00000000000E+00  0.00000000000E+00  0.64999999231E+04  0.65000000000E+04  0.10000000000E+01 0.  0.
    9000001   -1    0    0    0    0 -0.00000000000E+00 -0.00000000000E+00 -0.64999999231E+04  0.65000000000E+04  0.10000000000E+01 0.  0.
    9000001    1    1    2    0    0  0.16552743442E+04  0.58734882903E+04 -0.22387945751E+04  0.65000000000E+04  0.10000000000E+01 0.  0.
    9000001    1    1    2    0    0 -0.16552743442E+04 -0.58734882903E+04  0.22387945751E+04  0.65000000000E+04  0.10000000000E+01 0.  0.
</event>
<event>
 4    1  0.2193160E-006  0.1300000E+05  0.7957747E-01  0.1322471E+00
    9000001   -1    0    0    0    0  0.00000000000E+00  0.00000000000E+00  0.64999999231E+04  0.65000000000E+04  0.10000000000E+01 0.  0.
    9000001   -1    0    0    0    0 -0.00000000000E+00 -0.00000000000E+00 -0.64999999231E+04  0.65000000000E+04  0.10000000000E+01 0.  0.
    9000001    1    1    2    0    0  0.52356611179E+04 -0.10034028196E+04  0.37190098736E+04  0.65000000000E+04  0.10000000000E+01 0.  0.
    9000001    1    1    2    0    0 -0.52356611179E+04  0.10034028196E+04 -0.37190098736E+04  0.65000000000E+04  0.10000000000E+01 0.  0.
</event>
<event>
 4    1  0.2193160E-006  0.1300000E+05  0.7957747E-01  0.1322471E+00
    9000001   -1    0    0    0    0  0.00000000000E+00  0.00000000000E+00  0.64999999231E+04  0.65000000000E+04  0.10000000000E+01 0.  0.
    9000001   -1    0    0    0    0 -0.00000000000E+00 -0.00000000000E+00 -0.64999999231E+04  0.65000000000E+04  0.10000000000E+01 0.  0.
    9000001    1    1    2    0    0 -0.21406323609E+04 -0.57980938923E+04 -0.20124113177E+04  0.65000000000E+04  0.10000000000E+01 0.  0.
    9000001    1    1    2    0    0  0.21406323609E+04  0.57980938923E+04  0.20124113177E+04  0.65000000000E+04  0.10000000000E+01 0.  0.
</event>
<event>
 4    1  0.2193160E-006  0.1300000E+05  0.7957747E-01  0.1322471E+00
    9000001   -1    0    0    0    0  0.00000000000E+00  0.00000000000E+00  0.64999999231E+04  0.65000000000E+04  0.10000000000E+01 0.  0.
    9000001   -1    0    0    0    0 -0.00000000000E+00 -0.00000000000E+00 -0.64999999231E+04  0.65000000000E+04  0.10000000000E+01 0.  0.
    9000001    1    1    2    0    0  0.40626178330E+04  0.41328857472E+04  0.29435337171E+04  0.65000000000E+04  0.10000000000E+01 0.  0.
    9000001    1    1    2    0    0 -0.40626178330E+04 -0.41328857472E+04 -0.29435337171E+04  0.65000000000E+04  0.10000000000E+01 0.  0.
</event>
<event>
 4    1  0.2193160E-006  0.1300000E+05  0.7957747E-01  0.1322471E+00
    9000001   -1    0    0    0    0  0.00000000000E+00  0.00000000000E+00  0.64999999231E+04  0.65000000000E+04  0.10000000000E+01 0.  0.
    9000001   -1    0    0    0    0 -0.00000000000E+00 -0.00000000000E+00 -0.64999999231E+04  0.65000000000E+04  0.10000000000E+01 0.  0.
    9000001    1    1    2    0    0 -0.41118067048E+04 -0.38595833877E+02 -0.50340396287E+04  0.65000000000E+04  0.10000000000E+01 0.  0.
    9000001    1    1    2    0    0  0.41118067048E+04  0.38595833877E+02  0.50340396287E+04  0.65000000000E+04  0.10000000000E+01 0.  0.
</event>
<event>
 4    1  0.2193160E-006  0.1300000E+05  0.7957747E-01  0.1322471E+00
    9000001   -1    0    0    0    0  0.00000000000E+00  0.00000000000E+00  0.64999999231E+04  0.65000000000E+04  0.10000000000E+01 0.  0.
    9000001   -1    0    0    0    0 -0.00000000000E+00 -0.00000000000E+00 -0.64999999231E+04  0.65000000000E+04  0.10000000000E+01 0.  0.
    9000001    1    1    2    0    0 -0.21123083520E+04  0.96407935814E+03 -0.60711369131E+04  0.65000000000E+04  0.10000000000E+01 0.  0.
    9000001    1    1    2    0    0  0.21123083520E+04 -0.96407935814E+03  0.60711369131E+04  0.65000000000E+04  0.10000000000E+01 0.  0.
</event>
<event>
 4    1  0.2193160E-006  0.1300000E+05  0.7957747E-01  0.1322471E+00
    9000001   -1    0    0    0    0  0.00000000000E+00  0.00000000000E+00  0.64999999231E+04  0.65000000000E+04  0.10000000000E+01 0.  0.
    9000001   -1    0    0    0    0 -0.00000000000E+00 -0.00000000000E+00 -0.64999999231E+04  0.65000000000E+04  0.10000000000E+01 0.  0.
    9000001    1    1    2    0    0  0.20051745816E+04  0.52476926155E+04 -0.32697088724E+04  0.65000000000E+04  0.10000000000E+01 0.  0.
    9000001    1    1    2    0    0 -0.20051745816E+04 -0.52476926155E+04  0.32697088724E+04  0.65000000000E+04  0.10000000000E+01 0.  0.
</event>
<event>
 4    1  0.2193160E-006  0.1300000E+05  0.7957747E-01  0.1322471E+00
    9000001   -1    0    0    0    0  0.00000000000E+00  0.00000000000E+00  0.64999999231E+04  0.65000000000E+04  0.10000000000E+01 0.  0.
    9000001   -1    0    0    0    0 -0.00000000000E+00 -0.00000000000E+00 -0.64999999231E+04  0.65000000000E+04  0.10000000000E+01 0.  0.
    9000001    1    1    2    0    0 -0.51375817702E+03 -0.40916718337E+04  0.50243679345E+04  0.65000000000E+04  0.10000000000E+01 0.  0.
    9000001    1    1    2    0    0  0.51375817702E+03  0.40916718337E+04 -0.50243679345E+04  0.65000000000E+04  0.10000000000E+01 0.  0.
</event>
<event>
 4    1  0.2193160E-006  0.1300000E+05  0.7957747E-01  0.1322471E+00
    9000001   -1    0    0    0    0  0.00000000000E+00  0.00000000000E+00  0.64999999231E+04  0.65000000000E+04  0.10000000000E+01 0.  0.
    9000001   -1    0    0    0    0 -0.00000000000E+00 -0.00000000000E+00 -0.64999999231E+04  0.65000000000E+04  0.10000000000E+01 0.  0.
    9000001    1    1    2    0    0 -0.60068213009E+04 -0.44631387272E+03  0.24431333950E+04  0.65000000000E+04  0.10000000000E+01 0.  0.
    9000001    1    1    2    0    0  0.60068213009E+04  0.44631387272E+03 -0.24431333950E+04  0.65000000000E+04  0.10000000000E+01 0.  0.
</event>
<event>
 4    1  0.2193160E-006  0.1300000E+05  0.7957747E-01  0.1322471E+00
    9000001   -1    0    0    0    0  0.00000000000E+00  0.00000000000E+00  0.64999999231E+04  0.65000000000E+04  0.10000000000E+01 0.  0.
    9000001   -1    0    0    0    0 -0.00000000000E+00 -0.00000000000E+00 -0.64999999231E+04  0.65000000000E+04  0.10000000000E+01 0.  0.
    9000001    1    1    2    0    0  0.22563443937E+03 -0.58513988607E+04  0.28213860906E+04  0.65000000000E+04  0.10000000000E+01 0.  0.
    9000001    1    1    2    0    0 -0.22563443937E+03  0.58513988607E+04 -0.28213860906E+04  0.65000000000E+04  0.10000000000E+01 0.  0.
</event>
<event>
 4    1  0.2193160E-006  0.1300000E+05  0.7957747E-01  0.1322471E+00
    9000001   -1    0    0    0    0  0.00000000000E+00  0.00000000000E+00  0.64999999231E+04  0.65000000000E+04  0.10000000000E+01 0.  0.
    9000001   -1    0    0    0    0 -0.00000000000E+00 -0.00000000000E+00 -0.64999999231E+04  0.65000000000E+04  0.10000000000E+01 0.  0.
    9000001    1    1    2    0    0 -0.91473579794E+03 -0.35924427428E+04  0.53392520599E+04  0.65000000000E+04  0.10000000000E+01 0.  0.
    9000001    1    1    2    0    0  0.91473579794E+03  0.35924427428E+04 -0.53392520599E+04  0.65000000000E+04  0.10000000000E+01 0.  0.
</event>
<event>
 4    1  0.2193160E-006  0.1300000E+05  0.7957747E-01  0.1322471E+00
    9000001   -1    0    0    0    0  0.00000000000E+00  0.00000000000E+00  0.64999999231E+04  0.65000000000E+04  0.10000000000E+01 0.  0.
    9000001   -1    0    0    0    0 -0.00000000000E+00 -0.00000000000E+00 -0.64999999231E+04  0.65000000000E+04  0.10000000000E+01 0.  0.
    9000001    1    1    2    0    0  0.15178204612E+04 -0.45666635686E+04 -0.43694168832E+04  0.65000000000E+04  0.10000000000E+01 0.  0.
    9000001    1    1    2    0    0 -0.15178204612E+04  0.45666635686E+04  0.43694168832E+04  0.65000000000E+04  0.10000000000E+01 0.  0.
</event>
<event>
 4    1  0.2193160E-006  0.1300000E+05  0.7957747E-01  0.1322471E+00
    9000001   -1    0    0    0    0  0.00000000000E+00  0.00000000000E+00  0.64999999231E+04  0.65000000000E+04  0.10000000000E+01 0.  0.
    9000001   -1    0    0    0    0 -0.00000000000E+00 -0.00000000000E+00 -0.64999999231E+04  0.65000000000E+04  0.10000000000E+01 0.  0.
    9000001    1    1    2    0    0 -0.36788509461E+04  0.31747761053E+04 -0.43170419731E+04  0.65000000000E+04  0.10000000000E+01 0.  0.
    9000001    1    1    2    0    0  0.36788509461E+04 -0.31747761053E+04  0.43170419731E+04  0.65000000000E+04  0.10000000000E+01 0.  0.
</event>
<event>
 4    1  0.2193160E-006  0.1300000E+05  0.7957747E-01  0.1322471E+00
    9000001   -1    0    0    0    0  0.00000000000E+00  0.00000000000E+00  0.64999999231E+04  0.65000000000E+04  0.10000000000E+01 0.  0.
    9000001   -1    0    0    0    0 -0.00000000000E+00 -0.00000000000E+00 -0.64999999231E+04  0.65000000000E+04  0.10000000000E+01 0.  0.
    9000001    1    1    2    0    0 -0.46245637747E+04  0.21071031706E+04 -0.40525948628E+04  0.65000000000E+04  0.10000000000E+01 0.  0.
    9000001    1    1    2    0    0  0.46245637747E+04 -0.21071031706E+04  0.40525948628E+04  0.65000000000E+04  0.10000000000E+01 0.  0.
</event>
<event>
 4    1  0.2193160E-006  0.1300000E+05  0.7957747E-01  0.1322471E+00
    9000001   -1    0    0    0    0  0.00000000000E+00  0.00000000000E+00  0.64999999231E+04  0.65000000000E+04  0.10000000000E+01 0.  0.
    9000001   -1    0    0    0    0 -0.00000000000E+00 -0.00000000000E+00 -0.64999999231E+04  0.65000000000E+04  0.10000000000E+01 0.  0.
    9000001    1    1    2    0    0  0.41588380234E+04  0.24291074690E+04  0.43650317523E+04  0.65000000000E+04  0.10000000000E+01 0.  0.
    9000001    1    1    2    0    0 -0.41588380234E+04 -0.24291074690E+04 -0.43650317523E+04  0.65000000000E+04  0.10000000000E+01 0.  0.
</event>
<event>
 4    1  0.2193160E-006  0.1300000E+05  0.7957747E-01  0.1322471E+00
    9000001   -1    0    0    0    0  0.00000000000E+00  0.00000000000E+00  0.64999999231E+04  0.65000000000E+04  0.10000000000E+01 0.  0.
    9000001   -1    0    0    0    0 -0.00000000000E+00 -0.00000000000E+00 -0.64999999231E+04  0.65000000000E+04  0.10000000000E+01 0.  0.
    9000001    1    1    2    0    0  0.36014706658E+04  0.53454694773E+04 -0.83985957830E+03  0.65000000000E+04  0.10000000000E+01 0.  0.
    9000001    1    1    2    0    0 -0.36014706658E+04 -0.53454694773E+04  0.83985957830E+03  0.65000000000E+04  0.10000000000E+01 0.  0.
</event>
<event>
 4    1  0.2193160E-006  0.1300000E+05  0.7957747E-01  0.1322471E+00
    9000001   -1    0    0    0    0  0.00000000000E+00  0.00000000000E+00  0.64999999231E+04  0.65000000000E+04  0.10000000000E+01 0.  0.
    9000001   -1    0    0    0    0 -0.00000000000E+00 -0.00000000000E+00 -0.64999999231E+04  0.65000000000E+04  0.10000000000E+01 0.  0.
    9000001    1    1    2    0    0  0.29121954241E+03 -0.28465222246E+04 -0.58363088851E+04  0.65000000000E+04  0.10000000000E+01 0.  0.
    9000001    1    1    2    0    0 -0.29121954241E+03  0.28465222246E+04  0.58363088851E+04  0.65000000000E+04  0.10000000000E+01 0.  0.
</event>
<event>
 4    1  0.2193160E-006  0.1300000E+05  0.7957747E-01  0.1322471E+00
    9000001   -1    0    0    0    0  0.00000000000E+00  0.00000000000E+00  0.64999999231E+04  0.65000000000E+04  0.10000000000E+01 0.  0.
    9000001   -1    0    0    0    0 -0.00000000000E+00 -0.00000000000E+00 -0.64999999231E+04  0.65000000000E+04  0.10000000000E+01 0.  0.
    9000001    1    1    2    0    0 -0.25277838272E+04 -0.21751789918E+04 -0.55793282998E+04  0.65000000000E+04  0.10000000000E+01 0.  0.
    9000001    1    1    2    0    0  0.25277838272E+04  0.21751789918E+04  0.55793282998E+04  0.65000000000E+04  0.10000000000E+01 0.  0.
</event>
<event>
 4    1  0.2193160E-006  0.1300000E+05  0.7957747E-01  0.1322471E+00
    9000001   -1    0    0    0    0  0.00000000000E+00  0.00000000000E+00  0.64999999231E+04  0.65000000000E+04  0.10000000000E+01 0.  0.
    9000001   -1    0    0    0    0 -0.00000000000E+00 -0.00000000000E+00 -0.64999999231E+04  0.65000000000E+04  0.10000000000E+01 0.  0.
    9000001    1    1    2    0    0  0.54659549160E+04  0.35080856974E+04  0.25820649897E+03  0.65000000000E+04  0.10000000000E+01 0.  0.
    9000001    1    1    2    0    0 -0.54659549160E+04 -0.35080856974E+04 -0.25820649897E+03  0.65000000000E+04  0.10000000000E+01 0.  0.
</event>
<event>
 4    1  0.2193160E-006  0.1300000E+05  0.7957747E-01  0.1322471E+00
    9000001   -1    0    0    0    0  0.00000000000E+00  0.00000000000E+00  0.64999999231E+04  0.65000000000E+04  0.10000000000E+01 0.  0.
    9000001   -1    0    0    0    0 -0.00000000000E+00 -0.00000000000E+00 -0.64999999231E+04  0.65000000000E+04  0.10000000000E+01 0.  0.
    9000001    1    1    2    0    0 -0.95232754520E+03 -0.43693031072E+04  0.47172302895E+04  0.65000000000E+04  0.10000000000E+01 0.  0.
    9000001    1    1    2    0    0  0.95232754520E+03  0.43693031072E+04 -0.47172302895E+04  0.65000000000E+04  0.10000000000E+01 0.  0.
</event>
<event>
 4    1  0.2193160E-006  0.1300000E+05  0.7957747E-01  0.1322471E+00
    9000001   -1    0    0    0    0  0.00000000000E+00  0.00000000000E+00  0.64999999231E+04  0.65000000000E+04  0.10000000000E+01 0.  0.
    9000001   -1    0    0    0    0 -0.00000000000E+00 -0.00000000000E+00 -0.64999999231E+04  0.65000000000E+04  0.10000000000E+01 0.  0.
    9000001    1    1    2    0    0 -0.28970788659E+04  0.57574909764E+04  0.84156443679E+03  0.65000000000E+04  0.10000000000E+01 0.  0.
    9000001    1    1    2    0    0  0.28970788659E+04 -0.57574909764E+04 -0.84156443679E+03  0.65000000000E+04  0.10000000000E+01 0.  0.
</event>
<event>
 4    1  0.2193160E-006  0.1300000E+05  0.7957747E-01  0.1322471E+00
    9000001   -1    0    0    0    0  0.00000000000E+00  0.00000000000E+00  0.64999999231E+04  0.65000000000E+04  0.10000000000E+01 0.  0.
    9000001   -1    0    0    0    0 -0.00000000000E+00 -0.00000000000E+00 -0.64999999231E+04  0.65000000000E+04  0.10000000000E+01 0.  0.
    9000001    1    1    2    0    0 -0.46291462330E+04  0.18366954770E+04 -0.41770269185E+04  0.65000000000E+04  0.10000000000E+01 0.  0.
    9000001    1    1    2    0    0  0.46291462330E+04 -0.18366954770E+04  0.41770269185E+04  0.65000000000E+04  0.10000000000E+01 0.  0.
</event>
<event>
 4    1  0.2193160E-006  0.1300000E+05  0.7957747E-01  0.1322471E+00
    9000001   -1    0    0    0    0  0.00000000000E+00  0.00000000000E+00  0.64999999231E+04  0.65000000000E+04  0.10000000000E+01 0.  0.
    9000001   -1    0    0    0    0 -0.00000000000E+00 -0.00000000000E+00 -0.64999999231E+04  0.65000000000E+04  0.10000000000E+01 0.  0.
    9000001    1    1    2    0    0  0.26596630557E+04 -0.51422441833E+04 -0.29552523056E+04  0.65000000000E+04  0.10000000000E+01 0.  0.
    9000001    1    1    2    0    0 -0.26596630557E+04  0.51422441833E+04  0.29552523056E+04  0.65000000000E+04  0.10000000000E+01 0.  0.
</event>
<event>
 4    1  0.2193160E-006  0.1300000E+05  0.7957747E-01  0.1322471E+00
    9000001   -1    0    0    0    0  0.00000000000E+00  0.00000000000E+00  0.64999999231E+04  0.65000000000E+04  0.10000000000E+01 0.  0.
    9000001   -1    0    0    0    0 -0.00000000000E+00 -0.00000000000E+00 -0.64999999231E+04  0.65000000000E+04  0.10000000000E+01 0.  0.
    9000001    1    1    2    0    0  0.46011946798E+04  0.45293831246E+04  0.75079626341E+03  0.65000000000E+04  0.10000000000E+01 0.  0.
    9000001    1    1    2    0    0 -0.46011946798E+04 -0.45293831246E+04 -0.75079626341E+03  0.65000000000E+04  0.10000000000E+01 0.  0.
</event>
<event>
 4    1  0.2193160E-006  0.1300000E+05  0.7957747E-01  0.1322471E+00
    9000001   -1    0    0    0    0  0.00000000000E+00  0.00000000000E+00  0.64999999231E+04  0.65000000000E+04  0.10000000000E+01 0.  0.
    9000001   -1    0    0    0    0 -0.00000000000E+00 -0.00000000000E+00 -0.64999999231E+04  0.65000000000E+04  0.10000000000E+01 0.  0.
    9000001    1    1    2    0    0 -0.35223774110E+04  0.11109024206E+04  0.53487150033E+04  0.65000000000E+04  0.10000000000E+01 0.  0.
    9000001    1    1    2    0    0  0.35223774110E+04 -0.11109024206E+04 -0.53487150033E+04  0.65000000000E+04  0.10000000000E+01 0.  0.
</event>
<event>
 4    1  0.2193160E-006  0.1300000E+05  0.7957747E-01  0.1322471E+00
    9000001   -1    0    0    0    0  0.00000000000E+00  0.00000000000E+00  0.64999999231E+04  0.65000000000E+04  0.10000000000E+01 0.  0.
    9000001   -1    0    0    0    0 -0.00000000000E+00 -0.00000000000E+00 -0.64999999231E+04  0.65000000000E+04  0.10000000000E+01 0.  0.
    9000001    1    1    2    0    0 -0.57249541522E+04  0.15929777784E+04  0.26338794113E+04  0.65000000000E+04  0.10000000000E+01 0.  0.
    9000001    1    1    2    0    0  0.57249541522E+04 -0.15929777784E+04 -0.26338794113E+04  0.65000000000E+04  0.10000000000E+01 0.  0.
</event>
<event>
 4    1  0.2193160E-006  0.1300000E+05  0.7957747E-01  0.1322471E+00
    9000001   -1    0    0    0    0  0.00000000000E+00  0.00000000000E+00  0.64999999231E+04  0.65000000000E+04  0.10000000000E+01 0.  0.
    9000001   -1    0    0    0    0 -0.00000000000E+00 -0.00000000000E+00 -0.64999999231E+04  0.65000000000E+04  0.10000000000E+01 0.  0.
    9000001    1    1    2    0    0 -0.58755598635E+04  0.46864869421E+03 -0.27401028614E+04  0.65000000000E+04  0.10000000000E+01 0.  0.
    9000001    1    1    2    0    0  0.58755598635E+04 -0.46864869421E+03  0.27401028614E+04  0.65000000000E+04  0.10000000000E+01 0.  0.
</event>
<event>
 4    1  0.2193160E-006  0.1300000E+05  0.7957747E-01  0.1322471E+00
    9000001   -1    0    0    0    0  0.00000000000E+00  0.00000000000E+00  0.64999999231E+04  0.65000000000E+04  0.10000000000E+01 0.  0.
    9000001   -1    0    0    0    0 -0.00000000000E+00 -0.00000000000E+00 -0.64999999231E+04  0.65000000000E+04  0.10000000000E+01 0.  0.
    9000001    1    1    2    0    0  0.64353448732E+04  0.54695948414E+03  0.73291929036E+03  0.65000000000E+04  0.10000000000E+01 0.  0.
    9000001    1    1    2    0    0 -0.64353448732E+04 -0.54695948414E+03 -0.73291929036E+03  0.65000000000E+04  0.10000000000E+01 0.  0.
</event>
<event>
 4    1  0.2193160E-006  0.1300000E+05  0.7957747E-01  0.1322471E+00
    9000001   -1    0    0    0    0  0.00000000000E+00  0.00000000000E+00  0.64999999231E+04  0.65000000000E+04  0.10000000000E+01 0.  0.
    9000001   -1    0    0    0    0 -0.00000000000E+00 -0.00000000000E+00 -0.64999999231E+04  0.65000000000E+04  0.10000000000E+01 0.  0.
    9000001    1    1    2    0    0  0.30167936420E+04  0.12248838574E+04  0.56257101469E+04  0.65000000000E+04  0.10000000000E+01 0.  0.
    9000001    1    1    2    0    0 -0.30167936420E+04 -0.12248838574E+04 -0.56257101469E+04  0.65000000000E+04  0.10000000000E+01 0.  0.
</event>
<event>
 4    1  0.2193160E-006  0.1300000E+05  0.7957747E-01  0.1322471E+00
    9000001   -1    0    0    0    0  0.00000000000E+00  0.00000000000E+00  0.64999999231E+04  0.65000000000E+04  0.10000000000E+01 0.  0.
    9000001   -1    0    0    0    0 -0.00000000000E+00 -0.00000000000E+00 -0.64999999231E+04  0.65000000000E+04  0.10000000000E+01 0.  0.
    9000001    1    1    2    0    0  0.38405979451E+04 -0.52433923939E+04 -0.81502314468E+02  0.65000000000E+04  0.10000000000E+01 0.  0.
    9000001    1    1    2    0    0 -0.38405979451E+04  0.52433923939E+04  0.81502314468E+02  0.65000000000E+04  0.10000000000E+01 0.  0.
</event>
<event>
 4    1  0.2193160E-006  0.1300000E+05  0.7957747E-01  0.1322471E+00
    9000001   -1    0    0    0    0  0.00000000000E+00  0.00000000000E+00  0.64999999231E+04  0.65000000000E+04  0.10000000000E+01 0.  0.
    9000001   -1    0    0    0    0 -0.00000000000E+00 -0.00000000000E+00 -0.64999999231E+04  0.65000000000E+04  0.10000000000E+01 0.  0.
    9000001    1    1    2    0    0  0.16667419750E+04 -0.34570726287E+04 -0.52460098197E+04  0.65000000000E+04  0.10000000000E+01 0.  0.
    9000001    1    1    2    0    0 -0.16667419750E+04  0.34570726287E+04  0.52460098197E+04  0.65000000000E+04  0.10000000000E+01 0.  0.
</event>
<event>
 4    1  0.2193160E-006  0.1300000E+05  0.7957747E-01  0.1322471E+00
    9000001   -1    0    0    0    0  0.00000000000E+00  0.00000000000E+00  0.64999999231E+04  0.65000000000E+04  0.10000000000E+01 0.  0.
    9000001   -1    0    0    0    0 -0.00000000000E+00 -0.00000000000E+00 -0.64999999231E+04  0.65000000000E+04  0.10000000000E+01 0.  0.
    9000001    1    1    2    0    0 -0.51540321480E+04 -0.20884981711E+04 -0.33651340251E+04  0.65000000000E+04  0.10000000000E+01 0.  0.
    9000001    1    1    2    0    0  0.51540321480E+04  0.20884981711E+04  0.33651340251E+04  0.65000000000E+04  0.10000000000E+01 0.  0.
</event>
<event>
 4    1  0.2193160E-006  0.1300000E+05  0.7957747E-01  0.1322471E+00
    9000001   -1    0    0    0    0  0.00000000000E+00  0.00000000000E+00  0.64999999231E+04  0.65000000000E+04  0.10000000000E+01 0.  0.
    9000001   -1    0    0    0    0 -0.00000000000E+00 -0.00000000000E+00 -0.64999999231E+04  0.65000000000E+04  0.10000000000E+01 0.  0.
    9000001    1    1    2    0    0  0.39552392529E+04  0.50507819869E+04 -0.10467486676E+04  0.65000000000E+04  0.10000000000E+01 0.  0.
    9000001    1    1    2    0    0 -0.39552392529E+04 -0.50507819869E+04  0.10467486676E+04  0.65000000000E+04  0.10000000000E+01 0.  0.
</event>
<event>
 4    1  0.2193160E-006  0.1300000E+05  0.7957747E-01  0.1322471E+00
    9000001   -1    0    0    0    0  0.00000000000E+00  0.00000000000E+00  0.64999999231E+04  0.65000000000E+04  0.10000000000E+01 0.  0.
    9000001   -1    0    0    0    0 -0.00000000000E+00 -0.00000000000E+00 -0.64999999231E+04  0.65000000000E+04  0.10000000000E+01 0.  0.
    9000001    1    1    2    0    0 -0.58408907803E+04  0.22879205408E+04 -0.17027664229E+04  0.65000000000E+04  0.10000000000E+01 0.  0.
    9000001    1    1    2    0    0  0.58408907803E+04 -0.22879205408E+04  0.17027664229E+04  0.65000000000E+04  0.10000000000E+01 0.  0.
</event>
<event>
 4    1  0.2193160E-006  0.1300000E+05  0.7957747E-01  0.1322471E+00
    9000001   -1    0    0    0    0  0.00000000000E+00  0.00000000000E+00  0.64999999231E+04  0.65000000000E+04  0.10000000000E+01 0.  0.
    9000001   -1    0    0    0    0 -0.00000000000E+00 -0.00000000000E+00 -0.64999999231E+04  0.65000000000E+04  0.10000000000E+01 0.  0.
    9000001    1    1    2    0    0  0.19721854646E+04 -0.50332843070E+04  0.36092288065E+04  0.65000000000E+04  0.10000000000E+01 0.  0.
    9000001    1    1    2    0    0 -0.19721854646E+04  0.50332843070E+04 -0.36092288065E+04  0.65000000000E+04  0.10000000000E+01 0.  0.
</event>
<event>
 4    1  0.2193160E-006  0.1300000E+05  0.7957747E-01  0.1322471E+00
    9000001   -1    0    0    0    0  0.00000000000E+00  0.00000000000E+00  0.64999999231E+04  0.65000000000E+04  0.10000000000E+01 0.  0.
    9000001   -1    0    0    0    0 -0.00000000000E+00 -0.00000000000E+00 -0.64999999231E+04  0.65000000000E+04  0.10000000000E+01 0.  0.
    9000001    1    1    2    0    0  0.50847257495E+04  0.26160411760E+04 -0.30906134696E+04  0.65000000000E+04  0.10000000000E+01 0.  0.
    9000001    1    1    2    0    0 -0.50847257495E+04 -0.26160411760E+04  0.30906134696E+04  0.65000000000E+04  0.10000000000E+01 0.  0.
</event>
<event>
 4    1  0.2193160E-006  0.1300000E+05  0.7957747E-01  0.1322471E+00
    9000001   -1    0    0    0    0  0.00000000000E+00  0.00000000000E+00  0.64999999231E+04  0.65000000000E+04  0.10000000000E+01 0.  0.
    9000001   -1    0    0    0    0 -0.00000000000E+00 -0.00000000000E+00 -0.64999999231E+04  0.65000000000E+04  0.10000000000E+01 0.  0.
    9000001    1    1    2    0    0  0.60865596803E+04 -0.22400372312E+04 -0.43130437196E+03  0.65000000000E+04  0.10000000000E+01 0.  0.
    9000001    1    1    2    0    0 -0.60865596803E+04  0.22400372312E+04  0.43130437196E+03  0.65000000000E+04  0.10000000000E+01 0.  0.
</event>
<event>
 4    1  0.2193160E-006  0.1300000E+05  0.7957747E-01  0.1322471E+00
    9000001   -1    0    0    0    0  0.00000000000E+00  0.00000000000E+00  0.64999999231E+04  0.65000000000E+04  0.10000000000E+01 0.  0.
    9000001   -1    0    0    0    0 -0.00000000000E+00 -0.00000000000E+00 -0.64999999231E+04  0.65000000000E+04  0.10000000000E+01 0.  0.
    9000001    1    1    2    0    0 -0.22040213603E+04  0.59442182599E+04  0.14347676196E+04  0.65000000000E+04  0.10000000000E+01 0.  0.
    9000001    1    1    2    0    0  0.22040213603E+04 -0.59442182599E+04 -0.14347676196E+04  0.65000000000E+04  0.10000000000E+01 0.  0.
</event>
<event>
 4    1  0.2193160E-006  0.1300000E+05  0.7957747E-01  0.1322471E+00
    9000001   -1    0    0    0    0  0.00000000000E+00  0.00000000000E+00  0.64999999231E+04  0.65000000000E+04  0.10000000000E+01 0.  0.
    9000001   -1    0    0    0    0 -0.00000000000E+00 -0.00000000000E+00 -0.64999999231E+04  0.65000000000E+04  0.10000000000E+01 0.  0.
    9000001    1    1    2    0    0  0.50494717706E+04 -0.39726680308E+04 -0.98526268288E+03  0.65000000000E+04  0.10000000000E+01 0.  0.
    9000001    1    1    2    0    0 -0.50494717706E+04  0.39726680308E+04  0.98526268288E+03  0.65000000000E+04  0.10000000000E+01 0.  0.
</event>
<event>
 4    1  0.2193160E-006  0.1300000E+05  0.7957747E-01  0.1322471E+00
    9000001   -1    0    0    0    0  0.00000000000E+00  0.00000000000E+00  0.64999999231E+04  0.65000000000E+04  0.10000000000E+01 0.  0.
    9000001   -1    0    0    0    0 -0.00000000000E+00 -0.00000000000E+00 -0.64999999231E+04  0.65000000000E+04  0.10000000000E+01 0.  0.
    9000001    1    1    2    0    0 -0.59187373428E+03 -0.15576745655E+04  0.62827807881E+04  0.65000000000E+04  0.10000000000E+01 0.  0.
    9000001    1    1    2    0    0  0.59187373428E+03  0.15576745655E+04 -0.62827807881E+04  0.65000000000E+04  0.10000000000E+01 0.  0.
</event>
<event>
 4    1  0.2193160E-006  0.1300000E+05  0.7957747E-01  0.1322471E+00
    9000001   -1    0    0    0    0  0.00000000000E+00  0.00000000000E+00  0.64999999231E+04  0.65000000000E+04  0.10000000000E+01 0.  0.
    9000001   -1    0    0    0    0 -0.00000000000E+00 -0.00000000000E+00 -0.64999999231E+04  0.65000000000E+04  0.10000000000E+01 0.  0.
    9000001    1    1    2    0    0 -0.27463640777E+04 -0.41464476627E+04 -0.41850274949E+04  0.65000000000E+04  0.10000000000E+01 0.  0.
    9000001    1    1    2    0    0  0.27463640777E+04  0.41464476627E+04  0.41850274949E+04  0.65000000000E+04  0.10000000000E+01 0.  0.
</event>
<event>
 4    1  0.2193160E-006  0.1300000E+05  0.7957747E-01  0.1322471E+00
    9000001   -1    0    0    0    0  0.00000000000E+00  0.00000000000E+00  0.64999999231E+04  0.65000000000E+04  0.10000000000E+01 0.  0.
    9000001   -1    0    0    0    0 -0.00000000000E+00 -0.00000000000E+00 -0.64999999231E+04  0.65000000000E+04  0.10000000000E+01 0.  0.
    9000001    1    1    2    0    0  0.49866602602E+04 -0.37511110550E+04  0.18199956875E+04  0.65000000000E+04  0.10000000000E+01 0.  0.
    9000001    1    1    2    0    0 -0.49866602602E+04  0.37511110550E+04 -0.18199956875E+04  0.65000000000E+04  0.10000000000E+01 0.  0.
</event>
<event>
 4    1  0.2193160E-006  0.1300000E+05  0.7957747E-01  0.1322471E+00
    9000001   -1    0    0    0    0  0.00000000000E+00  0.00000000000E+00  0.64999999231E+04  0.65000000000E+04  0.10000000000E+01 0.  0.
    9000001   -1    0    0    0    0 -0.00000000000E+00 -0.00000000000E+00 -0.64999999231E+04  0.65000000000E+04  0.10000000000E+01 0.  0.
    9000001    1    1    2    0    0  0.52136967092E+04  0.49262816765E+03 -0.38502835107E+04  0.65000000000E+04  0.10000000000E+01 0.  0.
    9000001    1    1    2    0    0 -0.52136967092E+04 -0.49262816765E+03  0.38502835107E+04  0.65000000000E+04  0.10000000000E+01 0.  0.
</event>
<event>
 4    1  0.2193160E-006  0.1300000E+05  0.7957747E-01  0.1322471E+00
    9000001   -1    0    0    0    0  0.00000000000E+00  0.00000000000E+00  0.64999999231E+04  0.65000000000E+04  0.10000000000E+01 0.  0.
    9000001   -1    0    0    0    0 -0.00000000000E+00 -0.00000000000E+00 -0.64999999231E+04  0.65000000000E+04  0.10000000000E+01 0.  0.
    9000001    1    1    2    0    0 -0.27247579844E+04  0.55235777317E+04 -0.20774460207E+04  0.65000000000E+04  0.10000000000E+01 0.  0.
    9000001    1    1    2    0    0  0.27247579844E+04 -0.55235777317E+04  0.20774460207E+04  0.65000000000E+04  0.10000000000E+01 0.  0.
</event>
<event>
 4    1  0.2193160E-006  0.1300000E+05  0.7957747E-01  0.1322471E+00
    9000001   -1    0    0    0    0  0.00000000000E+00  0.00000000000E+00  0.64999999231E+04  0.65000000000E+04  0.10000000000E+01 0.  0.
    9000001   -1    0    0    0    0 -0.00000000000E+00 -0.00000000000E+00 -0.64999999231E+04  0.65000000000E+04  0.10000000000E+01 0.  0.
    9000001    1    1    2    0    0 -0.40142784285E+04  0.49200939325E+04 -0.13886120385E+04  0.65000000000E+04  0.10000000000E+01 0.  0.
    9000001    1    1    2    0    0  0.40142784285E+04 -0.49200939325E+04  0.13886120385E+04  0.65000000000E+04  0.10000000000E+01 0.  0.
</event>
<event>
 4    1  0.2193160E-006  0.1300000E+05  0.7957747E-01  0.1322471E+00
    9000001   -1    0    0    0    0  0.00000000000E+00  0.00000000000E+00  0.64999999231E+04  0.65000000000E+04  0.10000000000E+01 0.  0.
    9000001   -1    0    0    0    0 -0.00000000000E+00 -0.00000000000E+00 -0.64999999231E+04  0.65000000000E+04  0.10000000000E+01 0.  0.
    9000001    1    1    2    0    0 -0.15993045203E+04  0.53882456827E+04 -0.32648173784E+04  0.65000000000E+04  0.10000000000E+01 0.  0.
    9000001    1    1    2    0    0  0.15993045203E+04 -0.53882456827E+04  0.32648173784E+04  0.65000000000E+04  0.10000000000E+01 0.  0.
</event>
<event>
 4    1  0.2193160E-006  0.1300000E+05  0.7957747E-01  0.1322471E+00
    9000001   -1    0    0    0    0  0.00000000000E+00  0.00000000000E+00  0.64999999231E+04  0.65000000000E+04  0.10000000000E+01 0.  0.
    9000001   -1    0    0    0    0 -0.00000000000E+00 -0.00000000000E+00 -0.64999999231E+04  0.65000000000E+04  0.10000000000E+01 0.  0.
    9000001    1    1    2    0    0  0.16205578638E+03 -0.15369336245E+04 -0.63136021379E+04  0.65000000000E+04  0.10000000000E+01 0.  0.
    9000001    1    1    2    0    0 -0.16205578638E+03  0.15369336245E+04  0.63136021379E+04  0.65000000000E+04  0.10000000000E+01 0.  0.
</event>
<event>
 4    1  0.2193160E-006  0.1300000E+05  0.7957747E-01  0.1322471E+00
    9000001   -1    0    0    0    0  0.00000000000E+00  0.00000000000E+00  0.64999999231E+04  0.65000000000E+04  0.10000000000E+01 0.  0.
    9000001   -1    0    0    0    0 -0.00000000000E+00 -0.00000000000E+00 -0.64999999231E+04  0.65000000000E+04  0.10000000000E+01 0.  0.
    9000001    1    1    2    0    0  0.65055736485E+03  0.41949298749E+04 -0.49223304907E+04  0.65000000000E+04  0.10000000000E+01 0.  0.
    9000001    1    1    2    0    0 -0.65055736485E+03 -0.41949298749E+04  0.49223304907E+04  0.65000000000E+04  0.10000000000E+01 0.  0.
</event>
<event>
 4    1  0.2193160E-006  0.1300000E+05  0.7957747E-01  0.1322471E+00
    9000001   -1    0    0    0    0  0.00000000000E+00  0.00000000000E+00  0.64999999231E+04  0.65000000000E+04  0.10000000000E+01 0.  0.
    9000001   -1    0    0    0    0 -0.00000000000E+00 -0.00000000000E+00 -0.64999999231E+04  0.65000000000E+04  0.10000000000E+01 0.  0.
    9000001    1    1    2    0    0 -0.62264996993E+04 -0.14366152992E+04  0.11903096137E+04  0.65000000000E+04  0.10000000000E+01 0.  0.
    9000001    1    1    2    0    0  0.62264996993E+04  0.14366152992E+04 -0.11903096137E+04  0.65000000000E+04  0.10000000000E+01 0.  0.
</event>
<event>
 4    1  0.2193160E-006  0.1300000E+05  0.7957747E-01  0.1322471E+00
    9000001   -1    0    0    0    0  0.00000000000E+00  0.00000000000E+00  0.64999999231E+04  0.65000000000E+04  0.10000000000E+01 0.  0.
    9000001   -1    0    0    0    0 -0.00000000000E+00 -0.00000000000E+00 -0.64999999231E+04  0.65000000000E+04  0.10000000000E+01 0.  0.
    9000001    1    1    2    0    0  0.52786173246E+04 -0.29492983707E+04  0.23849187117E+04  0.65000000000E+04  0.10000000000E+01 0.  0.
    9000001    1    1    2    0    0 -0.52786173246E+04  0.29492983707E+04 -0.23849187117E+04  0.65000000000E+04  0.10000000000E+01 0.  0.
</event>
<event>
 4    1  0.2193160E-006  0.1300000E+05  0.7957747E-01  0.1322471E+00
    9000001   -1    0    0    0    0  0.00000000000E+00  0.00000000000E+00  0.64999999231E+04  0.65000000000E+04  0.10000000000E+01 0.  0.
    9000001   -1    0    0    0    0 -0.00000000000E+00 -0.00000000000E+00 -0.64999999231E+04  0.65000000000E+04  0.10000000000E+01 0.  0.
    9000001    1    1    2    0    0  0.60167955114E+04 -0.70940099777E+03 -0.23547655931E+04  0.65000000000E+04  0.10000000000E+01 0.  0.
    9000001    1    1    2    0    0 -0.60167955114E+04  0.70940099777E+03  0.23547655931E+04  0.65000000000E+04  0.10000000000E+01 0.  0.
</event>
<event>
 4    1  0.2193160E-006  0.1300000E+05  0.7957747E-01  0.1322471E+00
    9000001   -1    0    0    0    0  0.00000000000E+00  0.00000000000E+00  0.64999999231E+04  0.65000000000E+04  0.10000000000E+01 0.  0.
    9000001   -1    0    0    0    0 -0.00000000000E+00 -0.00000000000E+00 -0.64999999231E+04  0.65000000000E+04  0.10000000000E+01 0.  0.
    9000001    1    1    2    0    0 -0.13218077974E+04 -0.62305450293E+04  0.12973556892E+04  0.65000000000E+04  0.10000000000E+01 0.  0.
    9000001    1    1    2    0    0  0.13218077974E+04  0.62305450293E+04 -0.12973556892E+04  0.65000000000E+04  0.10000000000E+01 0.  0.
</event>
<event>
 4    1  0.2193160E-006  0.1300000E+05  0.7957747E-01  0.1322471E+00
    9000001   -1    0    0    0    0  0.00000000000E+00  0.00000000000E+00  0.64999999231E+04  0.65000000000E+04  0.10000000000E+01 0.  0.
    9000001   -1    0    0    0    0 -0.00000000000E+00 -0.00000000000E+00 -0.64999999231E+04  0.65000000000E+04  0.10000000000E+01 0.  0.
    9000001    1    1    2    0    0  0.28359059944E+04 -0.11297809244E+04  0.57385739739E+04  0.65000000000E+04  0.10000000000E+01 0.  0.
    9000001    1    1    2    0    0 -0.28359059944E+04  0.11297809244E+04 -0.57385739739E+04  0.65000000000E+04  0.10000000000E+01 0.  0.
</event>
<event>
 4    1  0.2193160E-006  0.1300000E+05  0.7957747E-01  0.1322471E+00
    9000001   -1    0    0    0    0  0.00000000000E+00  0.00000000000E+00  0.64999999231E+04  0.65000000000E+04  0.10000000000E+01 0.  0.
    9000001   -1    0    0    0    0 -0.00000000000E+00 -0.00000000000E+00 -0.64999999231E+04  0.65000000000E+04  0.10000000000E+01 0.  0.
    9000001    1    1    2    0    0  0.54980118630E+04  0.17816500272E+04 -0.29744894914E+04  0.65000000000E+04  0.10000000000E+01 0.  0.
    9000001    1    1    2    0    0 -0.54980118630E+04 -0.17816500272E+04  0.29744894914E+04  0.65000000000E+04  0.10000000000E+01 0.  0.
</event>
<event>
 4    1  0.2193160E-006  0.1300000E+05  0.7957747E-01  0.1322471E+00
    9000001   -1    0    0    0    0  0.00000000000E+00  0.00000000000E+00  0.64999999231E+04  0.65000000000E+04  0.10000000000E+01 0.  0.
    9000001   -1    0    0    0    0 -0.00000000000E+00 -0.00000000000E+00 -0.64999999231E+04  0.65000000000E+04  0.10000000000E+01 0.  0.
    9000001    1    1    2    0    0 -0.14345536043E+04  0.39399133322E+04  0.49668035889E+04  0.65000000000E+04  0.10000000000E+01 0.  0.
    9000001    1    1    2    0    0  0.14345536043E+04 -0.39399133322E+04 -0.49668035889E+04  0.65000000000E+04  0.10000000000E+01 0.  0.
</event>
<event>
 4    1  0.2193160E-006  0.1300000E+05  0.7957747E-01  0.1322471E+00
    9000001   -1    0    0    0    0  0.00000000000E+00  0.00000000000E+00  0.64999999231E+04  0.65000000000E+04  0.10000000000E+01 0.  0.
    9000001   -1    0    0    0    0 -0.00000000000E+00 -0.00000000000E+00 -0.64999999231E+04  0.65000000000E+04  0.10000000000E+01 0.  0.
    9000001    1    1    2    0    0 -0.11028812581E+04  0.60685203338E+04  0.20510272766E+04  0.65000000000E+04  0.10000000000E+01 0.  0.
    9000001    1    1    2    0    0  0.11028812581E+04 -0.60685203338E+04 -0.20510272766E+04  0.65000000000E+04  0.10000000000E+01 0.  0.
</event>
<event>
 4    1  0.2193160E-006  0.1300000E+05  0.7957747E-01  0.1322471E+00
    9000001   -1    0    0    0    0  0.00000000000E+00  0.00000000000E+00  0.64999999231E+04  0.65000000000E+04  0.10000000000E+01 0.  0.
    9000001   -1    0    0    0    0 -0.00000000000E+00 -0.00000000000E+00 -0.64999999231E+04  0.65000000000E+04  0.10000000000E+01 0.  0.
    9000001    1    1    2    0    0  0.25677739847E+04  0.64343072485E+03 -0.59365421472E+04  0.65000000000E+04  0.10000000000E+01 0.  0.
    9000001    1    1    2    0    0 -0.25677739847E+04 -0.64343072485E+03  0.59365421472E+04  0.65000000000E+04  0.10000000000E+01 0.  0.
</event>
<event>
 4    1  0.2193160E-006  0.1300000E+05  0.7957747E-01  0.1322471E+00
    9000001   -1    0    0    0    0  0.00000000000E+00  0.00000000000E+00  0.64999999231E+04  0.65000000000E+04  0.10000000000E+01 0.  0.
    9000001   -1    0    0    0    0 -0.00000000000E+00 -0.00000000000E+00 -0.64999999231E+04  0.65000000000E+04  0.10000000000E+01 0.  0.
    9000001    1    1    2    0    0 -0.98044340418E+03 -0.58389540565E+04  0.26824140728E+04  0.65000000000E+04  0.10000000000E+01 0.  0.
    9000001    1    1    2    0    0  0.98044340418E+03  0.58389540565E+04 -0.26824140728E+04  0.65000000000E+04  0.10000000000E+01 0.  0.
</event>
<event>
 4    1  0.2193160E-006  0.1300000E+05  0.7957747E-01  0.1322471E+00
    9000001   -1    0    0    0    0  0.00000000000E+00  0.00000000000E+00  0.64999999231E+04  0.65000000000E+04  0.10000000000E+01 0.  0.
    9000001   -1    0    0    0    0 -0.00000000000E+00 -0.00000000000E+00 -0.64999999231E+04  0.65000000000E+04  0.10000000000E+01 0.  0.
    9000001    1    1    2    0    0  0.23158717618E+04  0.59199650575E+04  0.13567426806E+04  0.65000000000E+04  0.10000000000E+01 0.  0.
    9000001    1    1    2    0    0 -0.23158717618E+04 -0.59199650575E+04 -0.13567426806E+04  0.65000000000E+04  0.10000000000E+01 0.  0.
</event>
<event>
 4    1  0.2193160E-006  0.1300000E+05  0.7957747E-01  0.1322471E+00
    9000001   -1    0    0    0    0  0.00000000000E+00  0.00000000000E+00  0.64999999231E+04  0.65000000000E+04  0.10000000000E+01 0.  0.
    9000001   -1    0    0    0    0 -0.00000000000E+00 -0.00000000000E+00 -0.64999999231E+04  0.65000000000E+04  0.10000000000E+01 0.  0.
    9000001    1    1    2    0    0 -0.44205906344E+04  0.16081554622E+04 -0.44857790241E+04  0.65000000000E+04  0.10000000000E+01 0.  0.
    9000001    1    1    2    0    0  0.44205906344E+04 -0.16081554622E+04  0.44857790241E+04  0.65000000000E+04  0.10000000000E+01 0.  0.
</event>
<event>
 4    1  0.2193160E-006  0.1300000E+05  0.7957747E-01  0.1322471E+00
    9000001   -1    0    0    0    0  0.00000000000E+00  0.00000000000E+00  0.64999999231E+04  0.65000000000E+04  0.10000000000E+01 0.  0.
    9000001   -1    0    0    0    0 -0.00000000000E+00 -0.00000000000E+00 -0.64999999231E+04  0.65000000000E+04  0.10000000000E+01 0.  0.
    9000001    1    1    2    0    0 -0.63521489573E+04 -0.23589515791E+03  0.13581443586E+04  0.65000000000E+04  0.10000000000E+01 0.  0.
    9000001    1    1    2    0    0  0.63521489573E+04  0.23589515791E+03 -0.13581443586E+04  0.65000000000E+04  0.10000000000E+01 0.  0.
</event>
<event>
 4    1  0.2193160E-006  0.1300000E+05  0.7957747E-01  0.1322471E+00
    9000001   -1    0    0    0    0  0.00000000000E+00  0.00000000000E+00  0.64999999231E+04  0.65000000000E+04  0.10000000000E+01 0.  0.
    9000001   -1    0    0    0    0 -0.00000000000E+00 -0.00000000000E+00 -0.64999999231E+04  0.65000000000E+04  0.10000000000E+01 0.  0.
    9000001    1    1    2    0    0 -0.53913660274E+04  0.43541677303E+03 -0.36046613700E+04  0.65000000000E+04  0.10000000000E+01 0.  0.
    9000001    1    1    2    0    0  0.53913660274E+04 -0.43541677303E+03  0.36046613700E+04  0.65000000000E+04  0.10000000000E+01 0.  0.
</event>
<event>
 4    1  0.2193160E-006  0.1300000E+05  0.7957747E-01  0.1322471E+00
    9000001   -1    0    0    0    0  0.00000000000E+00  0.00000000000E+00  0.64999999231E+04  0.65000000000E+04  0.10000000000E+01 0.  0.
    9000001   -1    0    0    0    0 -0.00000000000E+00 -0.00000000000E+00 -0.64999999231E+04  0.65000000000E+04  0.10000000000E+01 0.  0.
    9000001    1    1    2    0    0 -0.37099956110E+04 -0.47859016921E+04  0.23624302234E+04  0.65000000000E+04  0.10000000000E+01 0.  0.
    9000001    1    1    2    0    0  0.37099956110E+04  0.47859016921E+04 -0.23624302234E+04  0.65000000000E+04  0.10000000000E+01 0.  0.
</event>
<event>
 4    1  0.2193160E-006  0.1300000E+05  0.7957747E-01  0.1322471E+00
    9000001   -1    0    0    0    0  0.00000000000E+00  0.00000000000E+00  0.64999999231E+04  0.65000000000E+04  0.10000000000E+01 0.  0.
    9000001   -1    0    0    0    0 -0.00000000000E+00 -0.00000000000E+00 -0.64999999231E+04  0.65000000000E+04  0.10000000000E+01 0.  0.
    9000001    1    1    2    0    0  0.46982657901E+04 -0.33883603950E+04 -0.29487813413E+04  0.65000000000E+04  0.10000000000E+01 0.  0.
    9000001    1    1    2    0    0 -0.46982657901E+04  0.33883603950E+04  0.29487813413E+04  0.65000000000E+04  0.10000000000E+01 0.  0.
</event>
<event>
 4    1  0.2193160E-006  0.1300000E+05  0.7957747E-01  0.1322471E+00
    9000001   -1    0    0    0    0  0.00000000000E+00  0.00000000000E+00  0.64999999231E+04  0.65000000000E+04  0.10000000000E+01 0.  0.
    9000001   -1    0    0    0    0 -0.00000000000E+00 -0.00000000000E+00 -0.64999999231E+04  0.65000000000E+04  0.10000000000E+01 0.  0.
    9000001    1    1    2    0    0  0.13002462703E+04  0.32818816796E+04 -0.54578943996E+04  0.65000000000E+04  0.10000000000E+01 0.  0.
    9000001    1    1    2    0    0 -0.13002462703E+04 -0.32818816796E+04  0.54578943996E+04  0.65000000000E+04  0.10000000000E+01 0.  0.
</event>
<event>
 4    1  0.2193160E-006  0.1300000E+05  0.7957747E-01  0.1322471E+00
    9000001   -1    0    0    0    0  0.00000000000E+00  0.00000000000E+00  0.64999999231E+04  0.65000000000E+04  0.10000000000E+01 0.  0.
    9000001   -1    0    0    0    0 -0.00000000000E+00 -0.00000000000E+00 -0.64999999231E+04  0.65000000000E+04  0.10000000000E+01 0.  0.
    9000001    1    1    2    0    0  0.58471478780E+03 -0.62746847690E+04  0.15926200636E+04  0.65000000000E+04  0.10000000000E+01 0.  0.
    9000001    1    1    2    0    0 -0.58471478780E+03  0.62746847690E+04 -0.15926200636E+04  0.65000000000E+04  0.10000000000E+01 0.  0.
</event>
<event>
 4    1  0.2193160E-006  0.1300000E+05  0.7957747E-01  0.1322471E+00
    9000001   -1    0    0    0    0  0.00000000000E+00  0.00000000000E+00  0.64999999231E+04  0.65000000000E+04  0.10000000000E+01 0.  0.
    9000001   -1    0    0    0    0 -0.00000000000E+00 -0.00000000000E+00 -0.64999999231E+04  0.65000000000E+04  0.10000000000E+01 0.  0.
    9000001    1    1    2    0    0  0.48480089657E+04  0.13175365362E+04  0.41244279051E+04  0.65000000000E+04  0.10000000000E+01 0.  0.
    9000001    1    1    2    0    0 -0.48480089657E+04 -0.13175365362E+04 -0.41244279051E+04  0.65000000000E+04  0.10000000000E+01 0.  0.
</event>
<event>
 4    1  0.2193160E-006  0.1300000E+05  0.7957747E-01  0.1322471E+00
    9000001   -1    0    0    0    0  0.00000000000E+00  0.00000000000E+00  0.64999999231E+04  0.65000000000E+04  0.10000000000E+01 0.  0.
    9000001   -1    0    0    0    0 -0.00000000000E+00 -0.00000000000E+00 -0.64999999231E+04  0.65000000000E+04  0.10000000000E+01 0.  0.
    9000001    1    1    2    0    0 -0.42027000658E+04  0.47322502970E+04 -0.14809180542E+04  0.65000000000E+04  0.10000000000E+01 0.  0.
    9000001    1    1    2    0    0  0.42027000658E+04 -0.47322502970E+04  0.14809180542E+04  0.65000000000E+04  0.10000000000E+01 0.  0.
</event>
<event>
 4    1  0.2193160E-006  0.1300000E+05  0.7957747E-01  0.1322471E+00
    9000001   -1    0    0    0    0  0.00000000000E+00  0.00000000000E+00  0.64999999231E+04  0.65000000000E+04  0.10000000000E+01 0.  0.
    9000001   -1    0    0    0    0 -0.00000000000E+00 -0.00000000000E+00 -0.64999999231E+04  0.65000000000E+04  0.10000000000E+01 0.  0.
    9000001    1    1    2    0    0 -0.52819186740E+04 -0.21889994587E+04  0.30918627865E+04  0.65000000000E+04  0.10000000000E+01 0.  0.
    9000001    1    1    2    0    0  0.52819186740E+04  0.21889994587E+04 -0.30918627865E+04  0.65000000000E+04  0.10000000000E+01 0.  0.
</event>
<event>
 4    1  0.2193160E-006  0.1300000E+05  0.7957747E-01  0.1322471E+00
    9000001   -1    0    0    0    0  0.00000000000E+00  0.00000000000E+00  0.64999999231E+04  0.65000000000E+04  0.10000000000E+01 0.  0.
    9000001   -1    0    0    0    0 -0.00000000000E+00 -0.00000000000E+00 -0.64999999231E+04  0.65000000000E+04  0.10000000000E+01 0.  0.
    9000001    1    1    2    0    0  0.38017377773E+04  0.20758726074E+04  0.48463947209E+04  0.65000000000E+04  0.10000000000E+01 0.  0.
    9000001    1    1    2    0    0 -0.38017377773E+04 -0.20758726074E+04 -0.48463947209E+04  0.65000000000E+04  0.10000000000E+01 0.  0.
</event>
<event>
 4    1  0.2193160E-006  0.1300000E+05  0.7957747E-01  0.1322471E+00
    9000001   -1    0    0    0    0  0.00000000000E+00  0.00000000000E+00  0.64999999231E+04  0.65000000000E+04  0.10000000000E+01 0.  0.
    9000001   -1    0    0    0    0 -0.00000000000E+00 -0.00000000000E+00 -0.64999999231E+04  0.65000000000E+04  0.10000000000E+01 0.  0.
    9000001    1    1    2    0    0 -0.64515906529E+04 -0.71015516120E+03 -0.35022377818E+03  0.65000000000E+04  0.10000000000E+01 0.  0.
    9000001    1    1    2    0    0  0.64515906529E+04  0.71015516120E+03  0.35022377818E+03  0.65000000000E+04  0.10000000000E+01 0.  0.
</event>
<event>
 4    1  0.2193160E-006  0.1300000E+05  0.7957747E-01  0.1322471E+00
    9000001   -1    0    0    0    0  0.00000000000E+00  0.00000000000E+00  0.64999999231E+04  0.65000000000E+04  0.10000000000E+01 0.  0.
    9000001   -1    0    0    0    0 -0.00000000000E+00 -0.00000000000E+00 -0.64999999231E+04  0.65000000000E+04  0.10000000000E+01 0.  0.
    9000001    1    1    2    0    0 -0.33876673902E+04 -0.55002219939E+04 -0.72198799953E+03  0.65000000000E+04  0.10000000000E+01 0.  0.
    9000001    1    1    2    0    0  0.33876673902E+04  0.55002219939E+04  0.72198799953E+03  0.65000000000E+04  0.10000000000E+01 0.  0.
</event>
<event>
 4    1  0.2193160E-006  0.1300000E+05  0.7957747E-01  0.1322471E+00
    9000001   -1    0    0    0    0  0.00000000000E+00  0.00000000000E+00  0.64999999231E+04  0.65000000000E+04  0.10000000000E+01 0.  0.
    9000001   -1    0    0    0    0 -0.00000000000E+00 -0.00000000000E+00 -0.64999999231E+04  0.65000000000E+04  0.10000000000E+01 0.  0.
    9000001    1    1    2    0    0  0.51927847660E+04  0.24468555596E+04 -0.30492430609E+04  0.65000000000E+04  0.10000000000E+01 0.  0.
    9000001    1    1    2    0    0 -0.51927847660E+04 -0.24468555596E+04  0.30492430609E+04  0.65000000000E+04  0.10000000000E+01 0.  0.
</event>
<event>
 4    1  0.2193160E-006  0.1300000E+05  0.7957747E-01  0.1322471E+00
    9000001   -1    0    0    0    0  0.00000000000E+00  0.00000000000E+00  0.64999999231E+04  0.65000000000E+04  0.10000000000E+01 0.  0.
    9000001   -1    0    0    0    0 -0.00000000000E+00 -0.00000000000E+00 -0.64999999231E+04  0.65000000000E+04  0.10000000000E+01 0.  0.
    9000001    1    1    2    0    0  0.59015377335E+04 -0.27138787779E+04 -0.23814566701E+03  0.65000000000E+04  0.10000000000E+01 0.  0.
    9000001    1    1    2    0    0 -0.59015377335E+04  0.27138787779E+04  0.23814566701E+03  0.65000000000E+04  0.10000000000E+01 0.  0.
</event>
<event>
 4    1  0.2193160E-006  0.1300000E+05  0.7957747E-01  0.1322471E+00
    9000001   -1    0    0    0    0  0.00000000000E+00  0.00000000000E+00  0.64999999231E+04  0.65000000000E+04  0.10000000000E+01 0.  0.
    9000001   -1    0    0    0    0 -0.00000000000E+00 -0.00000000000E+00 -0.64999999231E+04  0.65000000000E+04  0.10000000000E+01 0.  0.
    9000001    1    1    2    0    0 -0.30352521562E+02 -0.62227113262E+04 -0.18780153021E+04  0.65000000000E+04  0.10000000000E+01 0.  0.
    9000001    1    1    2    0    0  0.30352521562E+02  0.62227113262E+04  0.18780153021E+04  0.65000000000E+04  0.10000000000E+01 0.  0.
</event>
<event>
 4    1  0.2193160E-006  0.1300000E+05  0.7957747E-01  0.1322471E+00
    9000001   -1    0    0    0    0  0.00000000000E+00  0.00000000000E+00  0.64999999231E+04  0.65000000000E+04  0.10000000000E+01 0.  0.
    9000001   -1    0    0    0    0 -0.00000000000E+00 -0.00000000000E+00 -0.64999999231E+04  0.65000000000E+04  0.10000000000E+01 0.  0.
    9000001    1    1    2    0    0 -0.40924567868E+04  0.49899730536E+04 -0.77586427468E+03  0.65000000000E+04  0.10000000000E+01 0.  0.
    9000001    1    1    2    0    0  0.40924567868E+04 -0.49899730536E+04  0.77586427468E+03  0.65000000000E+04  0.10000000000E+01 0.  0.
</event>
<event>
 4    1  0.2193160E-006  0.1300000E+05  0.7957747E-01  0.1322471E+00
    9000001   -1    0    0    0    0  0.00000000000E+00  0.00000000000E+00  0.64999999231E+04  0.65000000000E+04  0.10000000000E+01 0.  0.
    9000001   -1    0    0    0    0 -0.00000000000E+00 -0.00000000000E+00 -0.64999999231E+04  0.65000000000E+04  0.10000000000E+01 0.  0.
    9000001    1    1    2    0    0  0.31045857682E+04  0.29909927911E+04  0.48647207866E+04  0.65000000000E+04  0.10000000000E+01 0.  0.
    9000001    1    1    2    0    0 -0.31045857682E+04 -0.29909927911E+04 -0.48647207866E+04  0.65000000000E+04  0.10000000000E+01 0.  0.
</event>
<event>
 4    1  0.2193160E-006  0.1300000E+05  0.7957747E-01  0.1322471E+00
    9000001   -1    0    0    0    0  0.00000000000E+00  0.00000000000E+00  0.64999999231E+04  0.65000000000E+04  0.10000000000E+01 0.  0.
    9000001   -1    0    0    0    0 -0.00000000000E+00 -0.00000000000E+00 -0.64999999231E+04  0.65000000000E+04  0.10000000000E+01 0.  0.
    9000001    1    1    2    0    0 -0.49494593533E+04 -0.37396287306E+04 -0.19411409191E+04  0.65000000000E+04  0.10000000000E+01 0.  0.
    9000001    1    1    2    0    0  0.49494593533E+04  0.37396287306E+04  0.19411409191E+04  0.65000000000E+04  0.10000000000E+01 0.  0.
</event>
<event>
 4    1  0.2193160E-006  0.1300000E+05  0.7957747E-01  0.1322471E+00
    9000001   -1    0    0    0    0  0.00000000000E+00  0.00000000000E+00  0.64999999231E+04  0.65000000000E+04  0.10000000000E+01 0.  0.
    9000001   -1    0    0    0    0 -0.00000000000E+00 -0.00000000000E+00 -0.64999999231E+04  0.65000000000E+04  0.10000000000E+01 0.  0.
    9000001    1    1    2    0    0 -0.91484164488E+03 -0.51342888658E+04  0.38797089591E+04  0.65000000000E+04  0.10000000000E+01 0.  0.
    9000001    1    1    2    0    0  0.91484164488E+03  0.51342888658E+04 -0.38797089591E+04  0.65000000000E+04  0.10000000000E+01 0.  0.
</event>
<event>
 4    1  0.2193160E-006  0.1300000E+05  0.7957747E-01  0.1322471E+00
    9000001   -1    0    0    0    0  0.00000000000E+00  0.00000000000E+00  0.64999999231E+04  0.65000000000E+04  0.10000000000E+01 0.  0.
    9000001   -1    0    0    0    0 -0.00000000000E+00 -0.00000000000E+00 -0.64999999231E+04  0.65000000000E+04  0.10000000000E+01 0.  0.
    9000001    1    1    2    0    0 -0.87390111371E+03 -0.64185921522E+04  0.53662894710E+03  0.65000000000E+04  0.10000000000E+01 0.  0.
    9000001    1    1    2    0    0  0.87390111371E+03  0.64185921522E+04 -0.53662894710E+03  0.65000000000E+04  0.10000000000E+01 0.  0.
</event>
<event>
 4    1  0.2193160E-006  0.1300000E+05  0.7957747E-01  0.1322471E+00
    9000001   -1    0    0    0    0  0.00000000000E+00  0.00000000000E+00  0.64999999231E+04  0.65000000000E+04  0.10000000000E+01 0.  0.
    9000001   -1    0    0    0    0 -0.00000000000E+00 -0.00000000000E+00 -0.64999999231E+04  0.65000000000E+04  0.10000000000E+01 0.  0.
    9000001    1    1    2    0    0  0.36572949683E+04 -0.27764510784E+04 -0.46005990832E+04  0.65000000000E+04  0.10000000000E+01 0.  0.
    9000001    1    1    2    0    0 -0.36572949683E+04  0.27764510784E+04  0.46005990832E+04  0.65000000000E+04  0.10000000000E+01 0.  0.
</event>
<event>
 4    1  0.2193160E-006  0.1300000E+05  0.7957747E-01  0.1322471E+00
    9000001   -1    0    0    0    0  0.00000000000E+00  0.00000000000E+00  0.64999999231E+04  0.65000000000E+04  0.10000000000E+01 0.  0.
    9000001   -1    0    0    0    0 -0.00000000000E+00 -0.00000000000E+00 -0.64999999231E+04  0.65000000000E+04  0.10000000000E+01 0.  0.
    9000001    1    1    2    0    0 -0.62020710891E+04 -0.51019151276E+03  0.18772367529E+04  0.65000000000E+04  0.10000000000E+01 0.  0.
    9000001    1    1    2    0    0  0.62020710891E+04  0.51019151276E+03 -0.18772367529E+04  0.65000000000E+04  0.10000000000E+01 0.  0.
</event>
<event>
 4    1  0.2193160E-006  0.1300000E+05  0.7957747E-01  0.1322471E+00
    9000001   -1    0    0    0    0  0.00000000000E+00  0.00000000000E+00  0.64999999231E+04  0.65000000000E+04  0.10000000000E+01 0.  0.
    9000001   -1    0    0    0    0 -0.00000000000E+00 -0.00000000000E+00 -0.64999999231E+04  0.65000000000E+04  0.10000000000E+01 0.  0.
    9000001    1    1    2    0    0  0.41287957775E+04 -0.35432441800E+04  0.35564680666E+04  0.65000000000E+04  0.10000000000E+01 0.  0.
    9000001    1    1    2    0    0 -0.41287957775E+04  0.35432441800E+04 -0.35564680666E+04  0.65000000000E+04  0.10000000000E+01 0.  0.
</event>
<event>
 4    1  0.2193160E-006  0.1300000E+05  0.7957747E-01  0.1322471E+00
    9000001   -1    0    0    0    0  0.00000000000E+00  0.00000000000E+00  0.64999999231E+04  0.65000000000E+04  0.10000000000E+01 0.  0.
    9000001   -1    0    0    0    0 -0.00000000000E+00 -0.00000000000E+00 -0.64999999231E+04  0.65000000000E+04  0.10000000000E+01 0.  0.
    9000001    1    1    2    0    0  0.27892278327E+04  0.38679879297E+04  0.44168853815E+04  0.65000000000E+04  0.10000000000E+01 0.  0.
    9000001    1    1    2    0    0 -0.27892278327E+04 -0.38679879297E+04 -0.44168853815E+04  0.65000000000E+04  0.10000000000E+01 0.  0.
</event>
<event>
 4    1  0.2193160E-006  0.1300000E+05  0.7957747E-01  0.1322471E+00
    9000001   -1    0    0    0    0  0.00000000000E+00  0.00000000000E+00  0.64999999231E+04  0.65000000000E+04  0.10000000000E+01 0.  0.
    9000001   -1    0    0    0    0 -0.00000000000E+00 -0.00000000000E+00 -0.64999999231E+04  0.65000000000E+04  0.10000000000E+01 0.  0.
    9000001    1    1    2    0    0  0.31825243326E+03  0.25948480473E+04  0.59510904883E+04  0.65000000000E+04  0.10000000000E+01 0.  0.
    9000001    1    1    2    0    0 -0.31825243326E+03 -0.25948480473E+04 -0.59510904883E+04  0.65000000000E+04  0.10000000000E+01 0.  0.
</event>
<event>
 4    1  0.2193160E-006  0.1300000E+05  0.7957747E-01  0.1322471E+00
    9000001   -1    0    0    0    0  0.00000000000E+00  0.00000000000E+00  0.64999999231E+04  0.65000000000E+04  0.10000000000E+01 0.  0.
    9000001   -1    0    0    0    0 -0.00000000000E+00 -0.00000000000E+00 -0.64999999231E+04  0.65000000000E+04  0.10000000000E+01 0.  0.
    9000001    1    1    2    0    0 -0.60382714252E+04 -0.21746795132E+04  0.10295854556E+04  0.65000000000E+04  0.10000000000E+01 0.  0.
    9000001    1    1    2    0    0  0.60382714252E+04  0.21746795132E+04 -0.10295854556E+04  0.65000000000E+04  0.10000000000E+01 0.  0.
</event>
<event>
 4    1  0.2193160E-006  0.1300000E+05  0.7957747E-01  0.1322471E+00
    9000001   -1    0    0    0    0  0.00000000000E+00  0.00000000000E+00  0.64999999231E+04  0.65000000000E+04  0.10000000000E+01 0.  0.
    9000001   -1    0    0    0    0 -0.00000000000E+00 -0.00000000000E+00 -0.64999999231E+04  0.65000000000E+04  0.10000000000E+01 0.  0.
    9000001    1    1    2    0    0  0.63512761271E+04  0.20569091609E+02  0.13823413001E+04  0.65000000000E+04  0.10000000000E+01 0.  0.
    9000001    1    1    2    0    0 -0.63512761271E+04 -0.20569091609E+02 -0.13823413001E+04  0.65000000000E+04  0.10000000000E+01 0.  0.
</event>
<event>
 4    1  0.2193160E-006  0.1300000E+05  0.7957747E-01  0.1322471E+00
    9000001   -1    0    0    0    0  0.00000000000E+00  0.00000000000E+00  0.64999999231E+04  0.65000000000E+04  0.10000000000E+01 0.  0.
    9000001   -1    0    0    0    0 -0.00000000000E+00 -0.00000000000E+00 -0.64999999231E+04  0.65000000000E+04  0.10000000000E+01 0.  0.
    9000001    1    1    2    0    0 -0.36728615208E+04  0.44245131787E+04  0.30304736232E+04  0.65000000000E+04  0.10000000000E+01 0.  0.
    9000001    1    1    2    0    0  0.36728615208E+04 -0.44245131787E+04 -0.30304736232E+04  0.65000000000E+04  0.10000000000E+01 0.  0.
</event>
<event>
 4    1  0.2193160E-006  0.1300000E+05  0.7957747E-01  0.1322471E+00
    9000001   -1    0    0    0    0  0.00000000000E+00  0.00000000000E+00  0.64999999231E+04  0.65000000000E+04  0.10000000000E+01 0.  0.
    9000001   -1    0    0    0    0 -0.00000000000E+00 -0.00000000000E+00 -0.64999999231E+04  0.65000000000E+04  0.10000000000E+01 0.  0.
    9000001    1    1    2    0    0 -0.49989443374E+04  0.40037066293E+04  0.11094538016E+04  0.65000000000E+04  0.10000000000E+01 0.  0.
    9000001    1    1    2    0    0  0.49989443374E+04 -0.40037066293E+04 -0.11094538016E+04  0.65000000000E+04  0.10000000000E+01 0.  0.
</event>
<event>
 4    1  0.2193160E-006  0.1300000E+05  0.7957747E-01  0.1322471E+00
    9000001   -1    0    0    0    0  0.00000000000E+00  0.00000000000E+00  0.64999999231E+04  0.65000000000E+04  0.10000000000E+01 0.  0.
    9000001   -1    0    0    0    0 -0.00000000000E+00 -0.00000000000E+00 -0.64999999231E+04  0.65000000000E+04  0.10000000000E+01 0.  0.
    9000001    1    1    2    0    0  0.21954706974E+04 -0.25074788733E+04 -0.55805427260E+04  0.65000000000E+04  0.10000000000E+01 0.  0.
    9000001    1    1    2    0    0 -0.21954706974E+04  0.25074788733E+04  0.55805427260E+04  0.65000000000E+04  0.10000000000E+01 0.  0.
</event>
<event>
 4    1  0.2193160E-006  0.1300000E+05  0.7957747E-01  0.1322471E+00
    9000001   -1    0    0    0    0  0.00000000000E+00  0.00000000000E+00  0.64999999231E+04  0.65000000000E+04  0.10000000000E+01 0.  0.
    9000001   -1    0    0    0    0 -0.00000000000E+00 -0.00000000000E+00 -0.64999999231E+04  0.65000000000E+04  0.10000000000E+01 0.  0.
    9000001    1    1    2    0    0 -0.22062352845E+04 -0.37317835002E+04  0.48431721813E+04  0.65000000000E+04  0.10000000000E+01 0.  0.
    9000001    1    1    2    0    0  0.22062352845E+04  0.37317835002E+04 -0.48431721813E+04  0.65000000000E+04  0.10000000000E+01 0.  0.
</event>
<event>
 4    1  0.2193160E-006  0.1300000E+05  0.7957747E-01  0.1322471E+00
    9000001   -1    0    0    0    0  0.00000000000E+00  0.00000000000E+00  0.64999999231E+04  0.65000000000E+04  0.10000000000E+01 0.  0.
    9000001   -1    0    0    0    0 -0.00000000000E+00 -0.00000000000E+00 -0.64999999231E+04  0.65000000000E+04  0.10000000000E+01 0.  0.
    9000001    1    1    2    0    0 -0.84599777778E+03  0.37430275384E+04  0.52463350643E+04  0.65000000000E+04  0.10000000000E+01 0.  0.
    9000001    1    1    2    0    0  0.84599777778E+03 -0.37430275384E+04 -0.52463350643E+04  0.65000000000E+04  0.10000000000E+01 0.  0.
</event>
<event>
 4    1  0.2193160E-006  0.1300000E+05  0.7957747E-01  0.1322471E+00
    9000001   -1    0    0    0    0  0.00000000000E+00  0.00000000000E+00  0.64999999231E+04  0.65000000000E+04  0.10000000000E+01 0.  0.
    9000001   -1    0    0    0    0 -0.00000000000E+00 -0.00000000000E+00 -0.64999999231E+04  0.65000000000E+04  0.10000000000E+01 0.  0.
    9000001    1    1    2    0    0  0.36355610963E+04 -0.46614775463E+04  0.27024658371E+04  0.65000000000E+04  0.10000000000E+01 0.  0.
    9000001    1    1    2    0    0 -0.36355610963E+04  0.46614775463E+04 -0.27024658371E+04  0.65000000000E+04  0.10000000000E+01 0.  0.
</event>
<event>
 4    1  0.2193160E-006  0.1300000E+05  0.7957747E-01  0.1322471E+00
    9000001   -1    0    0    0    0  0.00000000000E+00  0.00000000000E+00  0.64999999231E+04  0.65000000000E+04  0.10000000000E+01 0.  0.
    9000001   -1    0    0    0    0 -0.00000000000E+00 -0.00000000000E+00 -0.64999999231E+04  0.65000000000E+04  0.10000000000E+01 0.  0.
    9000001    1    1    2    0    0 -0.16078093073E+04  0.29186300216E+03 -0.62912450453E+04  0.65000000000E+04  0.10000000000E+01 0.  0.
    9000001    1    1    2    0    0  0.16078093073E+04 -0.29186300216E+03  0.62912450453E+04  0.65000000000E+04  0.10000000000E+01 0.  0.
</event>
<event>
 4    1  0.2193160E-006  0.1300000E+05  0.7957747E-01  0.1322471E+00
    9000001   -1    0    0    0    0  0.00000000000E+00  0.00000000000E+00  0.64999999231E+04  0.65000000000E+04  0.10000000000E+01 0.  0.
    9000001   -1    0    0    0    0 -0.00000000000E+00 -0.00000000000E+00 -0.64999999231E+04  0.65000000000E+04  0.10000000000E+01 0.  0.
    9000001    1    1    2    0    0  0.28140781770E+03  0.79950331101E+02  0.64934133231E+04  0.65000000000E+04  0.10000000000E+01 0.  0.
    9000001    1    1    2    0    0 -0.28140781770E+03 -0.79950331101E+02 -0.64934133231E+04  0.65000000000E+04  0.10000000000E+01 0.  0.
</event>
<event>
 4    1  0.2193160E-006  0.1300000E+05  0.7957747E-01  0.1322471E+00
    9000001   -1    0    0    0    0  0.00000000000E+00  0.00000000000E+00  0.64999999231E+04  0.65000000000E+04  0.10000000000E+01 0.  0.
    9000001   -1    0    0    0    0 -0.00000000000E+00 -0.00000000000E+00 -0.64999999231E+04  0.65000000000E+04  0.10000000000E+01 0.  0.
    9000001    1    1    2    0    0  0.19469961645E+04 -0.54330496329E+04 -0.29901800316E+04  0.65000000000E+04  0.10000000000E+01 0.  0.
    9000001    1    1    2    0    0 -0.19469961645E+04  0.54330496329E+04  0.29901800316E+04  0.65000000000E+04  0.10000000000E+01 0.  0.
</event>
<event>
 4    1  0.2193160E-006  0.1300000E+05  0.7957747E-01  0.1322471E+00
    9000001   -1    0    0    0    0  0.00000000000E+00  0.00000000000E+00  0.64999999231E+04  0.65000000000E+04  0.10000000000E+01 0.  0.
    9000001   -1    0    0    0    0 -0.00000000000E+00 -0.00000000000E+00 -0.64999999231E+04  0.65000000000E+04  0.10000000000E+01 0.  0.
    9000001    1    1    2    0    0 -0.18281921285E+04  0.46726193058E+04 -0.41321110058E+04  0.65000000000E+04  0.10000000000E+01 0.  0.
    9000001    1    1    2    0    0  0.18281921285E+04 -0.46726193058E+04  0.41321110058E+04  0.65000000000E+04  0.10000000000E+01 0.  0.
</event>
<event>
 4    1  0.2193160E-006  0.1300000E+05  0.7957747E-01  0.1322471E+00
    9000001   -1    0    0    0    0  0.00000000000E+00  0.00000000000E+00  0.64999999231E+04  0.65000000000E+04  0.10000000000E+01 0.  0.
    9000001   -1    0    0    0    0 -0.00000000000E+00 -0.00000000000E+00 -0.64999999231E+04  0.65000000000E+04  0.10000000000E+01 0.  0.
    9000001    1    1    2    0    0  0.38906303549E+04 -0.26607210888E+03  0.52002115413E+04  0.65000000000E+04  0.10000000000E+01 0.  0.
    9000001    1    1    2    0    0 -0.38906303549E+04  0.26607210888E+03 -0.52002115413E+04  0.65000000000E+04  0.10000000000E+01 0.  0.
</event>
<event>
 4    1  0.2193160E-006  0.1300000E+05  0.7957747E-01  0.1322471E+00
    9000001   -1    0    0    0    0  0.00000000000E+00  0.00000000000E+00  0.64999999231E+04  0.65000000000E+04  0.10000000000E+01 0.  0.
    9000001   -1    0    0    0    0 -0.00000000000E+00 -0.00000000000E+00 -0.64999999231E+04  0.65000000000E+04  0.10000000000E+01 0.  0.
    9000001    1    1    2    0    0  0.33551041645E+04  0.55012402738E+04 -0.85418411072E+03  0.65000000000E+04  0.10000000000E+01 0.  0.
    9000001    1    1    2    0    0 -0.33551041645E+04 -0.55012402738E+04  0.85418411072E+03  0.65000000000E+04  0.10000000000E+01 0.  0.
</event>
<event>
 4    1  0.2193160E-006  0.1300000E+05  0.7957747E-01  0.1322471E+00
    9000001   -1    0    0    0    0  0.00000000000E+00  0.00000000000E+00  0.64999999231E+04  0.65000000000E+04  0.10000000000E+01 0.  0.
    9000001   -1    0    0    0    0 -0.00000000000E+00 -0.00000000000E+00 -0.64999999231E+04  0.65000000000E+04  0.10000000000E+01 0.  0.
    9000001    1    1    2    0    0  0.26016661880E+04  0.55190682243E+04 -0.22408074396E+04  0.65000000000E+04  0.10000000000E+01 0.  0.
    9000001    1    1    2    0    0 -0.26016661880E+04 -0.55190682243E+04  0.22408074396E+04  0.65000000000E+04  0.10000000000E+01 0.  0.
</event>
<event>
 4    1  0.2193160E-006  0.1300000E+05  0.7957747E-01  0.1322471E+00
    9000001   -1    0    0    0    0  0.00000000000E+00  0.00000000000E+00  0.64999999231E+04  0.65000000000E+04  0.10000000000E+01 0.  0.
    9000001   -1    0    0    0    0 -0.00000000000E+00 -0.00000000000E+00 -0.64999999231E+04  0.65000000000E+04  0.10000000000E+01 0.  0.
    9000001    1    1    2    0    0 -0.51944956924E+04 -0.28971361521E+04  0.26217962579E+04  0.65000000000E+04  0.10000000000E+01 0.  0.
    9000001    1    1    2    0    0  0.51944956924E+04  0.28971361521E+04 -0.26217962579E+04  0.65000000000E+04  0.10000000000E+01 0.  0.
</event>
<event>
 4    1  0.2193160E-006  0.1300000E+05  0.7957747E-01  0.1322471E+00
    9000001   -1    0    0    0    0  0.00000000000E+00  0.00000000000E+00  0.64999999231E+04  0.65000000000E+04  0.10000000000E+01 0.  0.
    9000001   -1    0    0    0    0 -0.00000000000E+00 -0.00000000000E+00 -0.64999999231E+04  0.65000000000E+04  0.10000000000E+01 0.  0.
    9000001    1    1    2    0    0  0.96524885345E+03 -0.63296524703E+04 -0.11197290994E+04  0.65000000000E+04  0.10000000000E+01 0.  0.
    9000001    1    1    2    0    0 -0.96524885345E+03  0.63296524703E+04  0.11197290994E+04  0.65000000000E+04  0.10000000000E+01 0.  0.
</event>
<event>
 4    1  0.2193160E-006  0.1300000E+05  0.7957747E-01  0.1322471E+00
    9000001   -1    0    0    0    0  0.00000000000E+00  0.00000000000E+00  0.64999999231E+04  0.65000000000E+04  0.10000000000E+01 0.  0.
    9000001   -1    0    0    0    0 -0.00000000000E+00 -0.00000000000E+00 -0.64999999231E+04  0.65000000000E+04  0.10000000000E+01 0.  0.
    9000001    1    1    2    0    0  0.69488393925E+03  0.47484776976E+04 -0.43839588121E+04  0.65000000000E+04  0.10000000000E+01 0.  0.
    9000001    1    1    2    0    0 -0.69488393925E+03 -0.47484776976E+04  0.43839588121E+04  0.65000000000E+04  0.10000000000E+01 0.  0.
</event>
<event>
 4    1  0.2193160E-006  0.1300000E+05  0.7957747E-01  0.1322471E+00
    9000001   -1    0    0    0    0  0.00000000000E+00  0.00000000000E+00  0.64999999231E+04  0.65000000000E+04  0.10000000000E+01 0.  0.
    9000001   -1    0    0    0    0 -0.00000000000E+00 -0.00000000000E+00 -0.64999999231E+04  0.65000000000E+04  0.10000000000E+01 0.  0.
    9000001    1    1    2    0    0 -0.16646965218E+04 -0.30193524112E+04  0.55101992257E+04  0.65000000000E+04  0.10000000000E+01 0.  0.
    9000001    1    1    2    0    0  0.16646965218E+04  0.30193524112E+04 -0.55101992257E+04  0.65000000000E+04  0.10000000000E+01 0.  0.
</event>
<event>
 4    1  0.2193160E-006  0.1300000E+05  0.7957747E-01  0.1322471E+00
    9000001   -1    0    0    0    0  0.00000000000E+00  0.00000000000E+00  0.64999999231E+04  0.65000000000E+04  0.10000000000E+01 0.  0.
    9000001   -1    0    0    0    0 -0.00000000000E+00 -0.00000000000E+00 -0.64999999231E+04  0.65000000000E+04  0.10000000000E+01 0.  0.
    9000001    1    1    2    0    0  0.57231985847E+04 -0.17652851612E+04  0.25256217570E+04  0.65000000000E+04  0.10000000000E+01 0.  0.
    9000001    1    1    2    0    0 -0.57231985847E+04  0.17652851612E+04 -0.25256217570E+04  0.65000000000E+04  0.10000000000E+01 0.  0.
</event>
<event>
 4    1  0.2193160E-006  0.1300000E+05  0.7957747E-01  0.1322471E+00
    9000001   -1    0    0    0    0  0.00000000000E+00  0.00000000000E+00  0.64999999231E+04  0.65000000000E+04  0.10000000000E+01 0.  0.
    9000001   -1    0    0    0    0 -0.00000000000E+00 -0.00000000000E+00 -0.64999999231E+04  0.65000000000E+04  0.10000000000E+01 0.  0.
    9000001    1    1    2    0    0 -0.43675017786E+04 -0.14473769716E+04  0.45912990662E+04  0.65000000000E+04  0.10000000000E+01 0.  0.
    9000001    1    1    2    0    0  0.43675017786E+04  0.14473769716E+04 -0.45912990662E+04  0.65000000000E+04  0.10000000000E+01 0.  0.
</event>
<event>
 4    1  0.2193160E-006  0.1300000E+05  0.7957747E-01  0.1322471E+00
    9000001   -1    0    0    0    0  0.00000000000E+00  0.00000000000E+00  0.64999999231E+04  0.65000000000E+04  0.10000000000E+01 0.  0.
    9000001   -1    0    0    0    0 -0.00000000000E+00 -0.00000000000E+00 -0.64999999231E+04  0.65000000000E+04  0.10000000000E+01 0.  0.
    9000001    1    1    2    0    0  0.15779669628E+04  0.56606970750E+04  0.27778639076E+04  0.65000000000E+04  0.10000000000E+01 0.  0.
    9000001    1    1    2    0    0 -0.15779669628E+04 -0.56606970750E+04 -0.27778639076E+04  0.65000000000E+04  0.10000000000E+01 0.  0.
</event>
<event>
 4    1  0.2193160E-006  0.1300000E+05  0.7957747E-01  0.1322471E+00
    9000001   -1    0    0    0    0  0.00000000000E+00  0.00000000000E+00  0.64999999231E+04  0.65000000000E+04  0.10000000000E+01 0.  0.
    9000001   -1    0    0    0    0 -0.00000000000E+00 -0.00000000000E+00 -0.64999999231E+04  0.65000000000E+04  0.10000000000E+01 0.  0.
    9000001    1    1    2    0    0 -0.22382600243E+04 -0.45166295893E+04  0.41036871489E+04  0.65000000000E+04  0.10000000000E+01 0.  0.
    9000001    1    1    2    0    0  0.22382600243E+04  0.45166295893E+04 -0.41036871489E+04  0.65000000000E+04  0.10000000000E+01 0.  0.
</event>
<event>
 4    1  0.2193160E-006  0.1300000E+05  0.7957747E-01  0.1322471E+00
    9000001   -1    0    0    0    0  0.00000000000E+00  0.00000000000E+00  0.64999999231E+04  0.65000000000E+04  0.10000000000E+01 0.  0.
    9000001   -1    0    0    0    0 -0.00000000000E+00 -0.00000000000E+00 -0.64999999231E+04  0.65000000000E+04  0.10000000000E+01 0.  0.
    9000001    1    1    2    0    0  0.36909889325E+04 -0.26451126485E+03 -0.53438407060E+04  0.65000000000E+04  0.10000000000E+01 0.  0.
    9000001    1    1    2    0    0 -0.36909889325E+04  0.26451126485E+03  0.53438407060E+04  0.65000000000E+04  0.10000000000E+01 0.  0.
</event>
<event>
 4    1  0.2193160E-006  0.1300000E+05  0.7957747E-01  0.1322471E+00
    9000001   -1    0    0    0    0  0.00000000000E+00  0.00000000000E+00  0.64999999231E+04  0.65000000000E+04  0.10000000000E+01 0.  0.
    9000001   -1    0    0    0    0 -0.00000000000E+00 -0.00000000000E+00 -0.64999999231E+04  0.65000000000E+04  0.10000000000E+01 0.  0.
    9000001    1    1    2    0    0  0.27878996339E+03 -0.24037031279E+04 -0.60327843016E+04  0.65000000000E+04  0.10000000000E+01 0.  0.
    9000001    1    1    2    0    0 -0.27878996339E+03  0.24037031279E+04  0.60327843016E+04  0.65000000000E+04  0.10000000000E+01 0.  0.
</event>
<event>
 4    1  0.2193160E-006  0.1300000E+05  0.7957747E-01  0.1322471E+00
    9000001   -1    0    0    0    0  0.00000000000E+00  0.00000000000E+00  0.64999999231E+04  0.65000000000E+04  0.10000000000E+01 0.  0.
    9000001   -1    0    0    0    0 -0.00000000000E+00 -0.00000000000E+00 -0.64999999231E+04  0.65000000000E+04  0.10000000000E+01 0.  0.
    9000001    1    1    2    0    0 -0.22041420976E+04  0.84628497294E+03  0.60560348709E+04  0.65000000000E+04  0.10000000000E+01 0.  0.
    9000001    1    1    2    0    0  0.22041420976E+04 -0.84628497294E+03 -0.60560348709E+04  0.65000000000E+04  0.10000000000E+01 0.  0.
</event>
<event>
 4    1  0.2193160E-006  0.1300000E+05  0.7957747E-01  0.1322471E+00
    9000001   -1    0    0    0    0  0.00000000000E+00  0.00000000000E+00  0.64999999231E+04  0.65000000000E+04  0.10000000000E+01 0.  0.
    9000001   -1    0    0    0    0 -0.00000000000E+00 -0.00000000000E+00 -0.64999999231E+04  0.65000000000E+04  0.10000000000E+01 0.  0.
    9000001    1    1    2    0    0 -0.47257970850E+04  0.36324541746E+04 -0.25927046846E+04  0.65000000000E+04  0.10000000000E+01 0.  0.
    9000001    1    1    2    0    0  0.47257970850E+04 -0.36324541746E+04  0.25927046846E+04  0.65000000000E+04  0.10000000000E+01 0.  0.
</event>
<event>
 4    1  0.2193160E-006  0.1300000E+05  0.7957747E-01  0.1322471E+00
    9000001   -1    0    0    0    0  0.00000000000E+00  0.00000000000E+00  0.64999999231E+04  0.65000000000E+04  0.10000000000E+01 0.  0.
    9000001   -1    0    0    0    0 -0.00000000000E+00 -0.00000000000E+00 -0.64999999231E+04  0.65000000000E+04  0.10000000000E+01 0.  0.
    9000001    1    1    2    0    0  0.58639191804E+04  0.92188533017E+03 -0.26485049149E+04  0.65000000000E+04  0.10000000000E+01 0.  0.
    9000001    1    1    2    0    0 -0.58639191804E+04 -0.92188533017E+03  0.26485049149E+04  0.65000000000E+04  0.10000000000E+01 0.  0.
</event>
<event>
 4    1  0.2193160E-006  0.1300000E+05  0.7957747E-01  0.1322471E+00
    9000001   -1    0    0    0    0  0.00000000000E+00  0.00000000000E+00  0.64999999231E+04  0.65000000000E+04  0.10000000000E+01 0.  0.
    9000001   -1    0    0    0    0 -0.00000000000E+00 -0.00000000000E+00 -0.64999999231E+04  0.65000000000E+04  0.10000000000E+01 0.  0.
    9000001    1    1    2    0    0  0.11498204943E+04 -0.63838417991E+04 -0.41770290302E+03  0.65000000000E+04  0.10000000000E+01 0.  0.
    9000001    1    1    2    0    0 -0.11498204943E+04  0.63838417991E+04  0.41770290302E+03  0.65000000000E+04  0.10000000000E+01 0.  0.
</event>
<event>
 4    1  0.2193160E-006  0.1300000E+05  0.7957747E-01  0.1322471E+00
    9000001   -1    0    0    0    0  0.00000000000E+00  0.00000000000E+00  0.64999999231E+04  0.65000000000E+04  0.10000000000E+01 0.  0.
    9000001   -1    0    0    0    0 -0.00000000000E+00 -0.00000000000E+00 -0.64999999231E+04  0.65000000000E+04  0.10000000000E+01 0.  0.
    9000001    1    1    2    0    0  0.23748391861E+04  0.43545950150E+04  0.42009094368E+04  0.65000000000E+04  0.10000000000E+01 0.  0.
    9000001    1    1    2    0    0 -0.23748391861E+04 -0.43545950150E+04 -0.42009094368E+04  0.65000000000E+04  0.10000000000E+01 0.  0.
</event>
<event>
 4    1  0.2193160E-006  0.1300000E+05  0.7957747E-01  0.1322471E+00
    9000001   -1    0    0    0    0  0.00000000000E+00  0.00000000000E+00  0.64999999231E+04  0.65000000000E+04  0.10000000000E+01 0.  0.
    9000001   -1    0    0    0    0 -0.00000000000E+00 -0.00000000000E+00 -0.64999999231E+04  0.65000000000E+04  0.10000000000E+01 0.  0.
    9000001    1    1    2    0    0  0.62860419201E+03  0.62342396571E+04 -0.17289047594E+04  0.65000000000E+04  0.10000000000E+01 0.  0.
    9000001    1    1    2    0    0 -0.62860419201E+03 -0.62342396571E+04  0.17289047594E+04  0.65000000000E+04  0.10000000000E+01 0.  0.
</event>
<event>
 4    1  0.2193160E-006  0.1300000E+05  0.7957747E-01  0.1322471E+00
    9000001   -1    0    0    0    0  0.00000000000E+00  0.00000000000E+00  0.64999999231E+04  0.65000000000E+04  0.10000000000E+01 0.  0.
    9000001   -1    0    0    0    0 -0.00000000000E+00 -0.00000000000E+00 -0.64999999231E+04  0.65000000000E+04  0.10000000000E+01 0.  0.
    9000001    1    1    2    0    0 -0.11387819190E+04  0.53182165291E+04 -0.35594589041E+04  0.65000000000E+04  0.10000000000E+01 0.  0.
    9000001    1    1    2    0    0  0.11387819190E+04 -0.53182165291E+04  0.35594589041E+04  0.65000000000E+04  0.10000000000E+01 0.  0.
</event>
<event>
 4    1  0.2193160E-006  0.1300000E+05  0.7957747E-01  0.1322471E+00
    9000001   -1    0    0    0    0  0.00000000000E+00  0.00000000000E+00  0.64999999231E+04  0.65000000000E+04  0.10000000000E+01 0.  0.
    9000001   -1    0    0    0    0 -0.00000000000E+00 -0.00000000000E+00 -0.64999999231E+04  0.65000000000E+04  0.10000000000E+01 0.  0.
    9000001    1    1    2    0    0 -0.67099307748E+03  0.23791553995E+04 -0.60116043512E+04  0.65000000000E+04  0.10000000000E+01 0.  0.
    9000001    1    1    2    0    0  0.67099307748E+03 -0.23791553995E+04  0.60116043512E+04  0.65000000000E+04  0.10000000000E+01 0.  0.
</event>
<event>
 4    1  0.2193160E-006  0.1300000E+05  0.7957747E-01  0.1322471E+00
    9000001   -1    0    0    0    0  0.00000000000E+00  0.00000000000E+00  0.64999999231E+04  0.65000000000E+04  0.10000000000E+01 0.  0.
    9000001   -1    0    0    0    0 -0.00000000000E+00 -0.00000000000E+00 -0.64999999231E+04  0.65000000000E+04  0.10000000000E+01 0.  0.
    9000001    1    1    2    0    0 -0.79161525628E+03 -0.37780444988E+04 -0.52296963632E+04  0.65000000000E+04  0.10000000000E+01 0.  0.
    9000001    1    1    2    0    0  0.79161525628E+03  0.37780444988E+04  0.52296963632E+04  0.65000000000E+04  0.10000000000E+01 0.  0.
</event>
<event>
 4    1  0.2193160E-006  0.1300000E+05  0.7957747E-01  0.1322471E+00
    9000001   -1    0    0    0    0  0.00000000000E+00  0.00000000000E+00  0.64999999231E+04  0.65000000000E+04  0.10000000000E+01 0.  0.
    9000001   -1    0    0    0    0 -0.00000000000E+00 -0.00000000000E+00 -0.64999999231E+04  0.65000000000E+04  0.10000000000E+01 0.  0.
    9000001    1    1    2    0    0 -0.62066670068E+04  0.17192454125E+04 -0.87833870345E+03  0.65000000000E+04  0.10000000000E+01 0.  0.
    9000001    1    1    2    0    0  0.62066670068E+04 -0.17192454125E+04  0.87833870345E+03  0.65000000000E+04  0.10000000000E+01 0.  0.
</event>
<event>
 4    1  0.2193160E-006  0.1300000E+05  0.7957747E-01  0.1322471E+00
    9000001   -1    0    0    0    0  0.00000000000E+00  0.00000000000E+00  0.64999999231E+04  0.65000000000E+04  0.10000000000E+01 0.  0.
    9000001   -1    0    0    0    0 -0.00000000000E+00 -0.00000000000E+00 -0.64999999231E+04  0.65000000000E+04  0.10000000000E+01 0.  0.
    9000001    1    1    2    0    0 -0.46865860045E+04 -0.12229288558E+04  0.43347843817E+04  0.65000000000E+04  0.10000000000E+01 0.  0.
    9000001    1    1    2    0    0  0.46865860045E+04  0.12229288558E+04 -0.43347843817E+04  0.65000000000E+04  0.10000000000E+01 0.  0.
</event>
<event>
 4    1  0.2193160E-006  0.1300000E+05  0.7957747E-01  0.1322471E+00
    9000001   -1    0    0    0    0  0.00000000000E+00  0.00000000000E+00  0.64999999231E+04  0.65000000000E+04  0.10000000000E+01 0.  0.
    9000001   -1    0    0    0    0 -0.00000000000E+00 -0.00000000000E+00 -0.64999999231E+04  0.65000000000E+04  0.10000000000E+01 0.  0.
    9000001    1    1    2    0    0  0.23305796336E+03  0.48596553443E+04  0.43103866324E+04  0.65000000000E+04  0.10000000000E+01 0.  0.
    9000001    1    1    2    0    0 -0.23305796336E+03 -0.48596553443E+04 -0.43103866324E+04  0.65000000000E+04  0.10000000000E+01 0.  0.
</event>
<event>
 4    1  0.2193160E-006  0.1300000E+05  0.7957747E-01  0.1322471E+00
    9000001   -1    0    0    0    0  0.00000000000E+00  0.00000000000E+00  0.64999999231E+04  0.65000000000E+04  0.10000000000E+01 0.  0.
    9000001   -1    0    0    0    0 -0.00000000000E+00 -0.00000000000E+00 -0.64999999231E+04  0.65000000000E+04  0.10000000000E+01 0.  0.
    9000001    1    1    2    0    0  0.77797086534E+03 -0.95168299122E+03  0.63827157086E+04  0.65000000000E+04  0.10000000000E+01 0.  0.
    9000001    1    1    2    0    0 -0.77797086534E+03  0.95168299122E+03 -0.63827157086E+04  0.65000000000E+04  0.10000000000E+01 0.  0.
</event>
<event>
 4    1  0.2193160E-006  0.1300000E+05  0.7957747E-01  0.1322471E+00
    9000001   -1    0    0    0    0  0.00000000000E+00  0.00000000000E+00  0.64999999231E+04  0.65000000000E+04  0.10000000000E+01 0.  0.
    9000001   -1    0    0    0    0 -0.00000000000E+00 -0.00000000000E+00 -0.64999999231E+04  0.65000000000E+04  0.10000000000E+01 0.  0.
    9000001    1    1    2    0    0 -0.56428804583E+04 -0.29939115704E+04 -0.12018288738E+04  0.65000000000E+04  0.10000000000E+01 0.  0.
    9000001    1    1    2    0    0  0.56428804583E+04  0.29939115704E+04  0.12018288738E+04  0.65000000000E+04  0.10000000000E+01 0.  0.
</event>
<event>
 4    1  0.2193160E-006  0.1300000E+05  0.7957747E-01  0.1322471E+00
    9000001   -1    0    0    0    0  0.00000000000E+00  0.00000000000E+00  0.64999999231E+04  0.65000000000E+04  0.10000000000E+01 0.  0.
    9000001   -1    0    0    0    0 -0.00000000000E+00 -0.00000000000E+00 -0.64999999231E+04  0.65000000000E+04  0.10000000000E+01 0.  0.
    9000001    1    1    2    0    0 -0.87676717811E+03  0.48091668922E+04  0.42840625717E+04  0.65000000000E+04  0.10000000000E+01 0.  0.
    9000001    1    1    2    0    0  0.87676717811E+03 -0.48091668922E+04 -0.42840625717E+04  0.65000000000E+04  0.10000000000E+01 0.  0.
</event>
<event>
 4    1  0.2193160E-006  0.1300000E+05  0.7957747E-01  0.1322471E+00
    9000001   -1    0    0    0    0  0.00000000000E+00  0.00000000000E+00  0.64999999231E+04  0.65000000000E+04  0.10000000000E+01 0.  0.
    9000001   -1    0    0    0    0 -0.00000000000E+00 -0.00000000000E+00 -0.64999999231E+04  0.65000000000E+04  0.10000000000E+01 0.  0.
    9000001    1    1    2    0    0  0.55246164327E+04 -0.18458909537E+04 -0.28846661607E+04  0.65000000000E+04  0.10000000000E+01 0.  0.
    9000001    1    1    2    0    0 -0.55246164327E+04  0.18458909537E+04  0.28846661607E+04  0.65000000000E+04  0.10000000000E+01 0.  0.
</event>
<event>
 4    1  0.2193160E-006  0.1300000E+05  0.7957747E-01  0.1322471E+00
    9000001   -1    0    0    0    0  0.00000000000E+00  0.00000000000E+00  0.64999999231E+04  0.65000000000E+04  0.10000000000E+01 0.  0.
    9000001   -1    0    0    0    0 -0.00000000000E+00 -0.00000000000E+00 -0.64999999231E+04  0.65000000000E+04  0.10000000000E+01 0.  0.
    9000001    1    1    2    0    0  0.32205842886E+04  0.38418789292E+04 -0.41373665699E+04  0.65000000000E+04  0.10000000000E+01 0.  0.
    9000001    1    1    2    0    0 -0.32205842886E+04 -0.38418789292E+04  0.41373665699E+04  0.65000000000E+04  0.10000000000E+01 0.  0.
</event>
<event>
 4    1  0.2193160E-006  0.1300000E+05  0.7957747E-01  0.1322471E+00
    9000001   -1    0    0    0    0  0.00000000000E+00  0.00000000000E+00  0.64999999231E+04  0.65000000000E+04  0.10000000000E+01 0.  0.
    9000001   -1    0    0    0    0 -0.00000000000E+00 -0.00000000000E+00 -0.64999999231E+04  0.65000000000E+04  0.10000000000E+01 0.  0.
    9000001    1    1    2    0    0  0.23646856124E+04 -0.56357779760E+03  0.60283199169E+04  0.65000000000E+04  0.10000000000E+01 0.  0.
    9000001    1    1    2    0    0 -0.23646856124E+04  0.56357779760E+03 -0.60283199169E+04  0.65000000000E+04  0.10000000000E+01 0.  0.
</event>
<event>
 4    1  0.2193160E-006  0.1300000E+05  0.7957747E-01  0.1322471E+00
    9000001   -1    0    0    0    0  0.00000000000E+00  0.00000000000E+00  0.64999999231E+04  0.65000000000E+04  0.10000000000E+01 0.  0.
    9000001   -1    0    0    0    0 -0.00000000000E+00 -0.00000000000E+00 -0.64999999231E+04  0.65000000000E+04  0.10000000000E+01 0.  0.
    9000001    1    1    2    0    0 -0.12038928768E+04  0.35113726632E+04  0.53358132427E+04  0.65000000000E+04  0.10000000000E+01 0.  0.
    9000001    1    1    2    0    0  0.12038928768E+04 -0.35113726632E+04 -0.53358132427E+04  0.65000000000E+04  0.10000000000E+01 0.  0.
</event>
<event>
 4    1  0.2193160E-006  0.1300000E+05  0.7957747E-01  0.1322471E+00
    9000001   -1    0    0    0    0  0.00000000000E+00  0.00000000000E+00  0.64999999231E+04  0.65000000000E+04  0.10000000000E+01 0.  0.
    9000001   -1    0    0    0    0 -0.00000000000E+00 -0.00000000000E+00 -0.64999999231E+04  0.65000000000E+04  0.10000000000E+01 0.  0.
    9000001    1    1    2    0    0 -0.42668357999E+04  0.48768061803E+04 -0.51075702302E+03  0.65000000000E+04  0.10000000000E+01 0.  0.
    9000001    1    1    2    0    0  0.42668357999E+04 -0.48768061803E+04  0.51075702302E+03  0.65000000000E+04  0.10000000000E+01 0.  0.
</event>
<event>
 4    1  0.2193160E-006  0.1300000E+05  0.7957747E-01  0.1322471E+00
    9000001   -1    0    0    0    0  0.00000000000E+00  0.00000000000E+00  0.64999999231E+04  0.65000000000E+04  0.10000000000E+01 0.  0.
    9000001   -1    0    0    0    0 -0.00000000000E+00 -0.00000000000E+00 -0.64999999231E+04  0.65000000000E+04  0.10000000000E+01 0.  0.
    9000001    1    1    2    0    0 -0.51420927184E+04 -0.31600011897E+03  0.39634612903E+04  0.65000000000E+04  0.10000000000E+01 0.  0.
    9000001    1    1    2    0    0  0.51420927184E+04  0.31600011897E+03 -0.39634612903E+04  0.65000000000E+04  0.10000000000E+01 0.  0.
</event>
<event>
 4    1  0.2193160E-006  0.1300000E+05  0.7957747E-01  0.1322471E+00
    9000001   -1    0    0    0    0  0.00000000000E+00  0.00000000000E+00  0.64999999231E+04  0.65000000000E+04  0.10000000000E+01 0.  0.
    9000001   -1    0    0    0    0 -0.00000000000E+00 -0.00000000000E+00 -0.64999999231E+04  0.65000000000E+04  0.10000000000E+01 0.  0.
    9000001    1    1    2    0    0 -0.28289189730E+04  0.37143963218E+04 -0.45222202964E+04  0.65000000000E+04  0.10000000000E+01 0.  0.
    9000001    1    1    2    0    0  0.28289189730E+04 -0.37143963218E+04  0.45222202964E+04  0.65000000000E+04  0.10000000000E+01 0.  0.
</event>
<event>
 4    1  0.2193160E-006  0.1300000E+05  0.7957747E-01  0.1322471E+00
    9000001   -1    0    0    0    0  0.00000000000E+00  0.00000000000E+00  0.64999999231E+04  0.65000000000E+04  0.10000000000E+01 0.  0.
    9000001   -1    0    0    0    0 -0.00000000000E+00 -0.00000000000E+00 -0.64999999231E+04  0.65000000000E+04  0.10000000000E+01 0.  0.
    9000001    1    1    2    0    0  0.27097131266E+04 -0.27402568842E+04 -0.52343524891E+04  0.65000000000E+04  0.10000000000E+01 0.  0.
    9000001    1    1    2    0    0 -0.27097131266E+04  0.27402568842E+04  0.52343524891E+04  0.65000000000E+04  0.10000000000E+01 0.  0.
</event>
<event>
 4    1  0.2193160E-006  0.1300000E+05  0.7957747E-01  0.1322471E+00
    9000001   -1    0    0    0    0  0.00000000000E+00  0.00000000000E+00  0.64999999231E+04  0.65000000000E+04  0.10000000000E+01 0.  0.
    9000001   -1    0    0    0    0 -0.00000000000E+00 -0.00000000000E+00 -0.64999999231E+04  0.65000000000E+04  0.10000000000E+01 0.  0.
    9000001    1    1    2    0    0 -0.86717743310E+03 -0.63105092341E+04 -0.12944016015E+04  0.65000000000E+04  0.10000000000E+01 0.  0.
    9000001    1    1    2    0    0  0.86717743310E+03  0.63105092341E+04  0.12944016015E+04  0.65000000000E+04  0.10000000000E+01 0.  0.
</event>
<event>
 4    1  0.2193160E-006  0.1300000E+05  0.7957747E-01  0.1322471E+00
    9000001   -1    0    0    0    0  0.00000000000E+00  0.00000000000E+00  0.64999999231E+04  0.65000000000E+04  0.10000000000E+01 0.  0.
    9000001   -1    0    0    0    0 -0.00000000000E+00 -0.00000000000E+00 -0.64999999231E+04  0.65000000000E+04  0.10000000000E+01 0.  0.
    9000001    1    1    2    0    0  0.31360738388E+04 -0.55023569347E+04  0.14625689867E+04  0.65000000000E+04  0.10000000000E+01 0.  0.
    9000001    1    1    2    0    0 -0.31360738388E+04  0.55023569347E+04 -0.14625689867E+04  0.65000000000E+04  0.10000000000E+01 0.  0.
</event>
<event>
 4    1  0.2193160E-006  0.1300000E+05  0.7957747E-01  0.1322471E+00
    9000001   -1    0    0    0    0  0.00000000000E+00  0.00000000000E+00  0.64999999231E+04  0.65000000000E+04  0.10000000000E+01 0.  0.
    9000001   -1    0    0    0    0 -0.00000000000E+00 -0.00000000000E+00 -0.64999999231E+04  0.65000000000E+04  0.10000000000E+01 0.  0.
    9000001    1    1    2    0    0  0.19082963294E+03  0.53672954552E+04  0.36613826006E+04  0.65000000000E+04  0.10000000000E+01 0.  0.
    9000001    1    1    2    0    0 -0.19082963294E+03 -0.53672954552E+04 -0.36613826006E+04  0.65000000000E+04  0.10000000000E+01 0.  0.
</event>
<event>
 4    1  0.2193160E-006  0.1300000E+05  0.7957747E-01  0.1322471E+00
    9000001   -1    0    0    0    0  0.00000000000E+00  0.00000000000E+00  0.64999999231E+04  0.65000000000E+04  0.10000000000E+01 0.  0.
    9000001   -1    0    0    0    0 -0.00000000000E+00 -0.00000000000E+00 -0.64999999231E+04  0.65000000000E+04  0.10000000000E+01 0.  0.
    9000001    1    1    2    0    0 -0.19571409772E+04  0.59741278344E+04 -0.16520880163E+04  0.65000000000E+04  0.10000000000E+01 0.  0.
    9000001    1    1    2    0    0  0.19571409772E+04 -0.59741278344E+04  0.16520880163E+04  0.65000000000E+04  0.10000000000E+01 0.  0.
</event>
<event>
 4    1  0.2193160E-006  0.1300000E+05  0.7957747E-01  0.1322471E+00
    9000001   -1    0    0    0    0  0.00000000000E+00  0.00000000000E+00  0.64999999231E+04  0.65000000000E+04  0.10000000000E+01 0.  0.
    9000001   -1    0    0    0    0 -0.00000000000E+00 -0.00000000000E+00 -0.64999999231E+04  0.65000000000E+04  0.10000000000E+01 0.  0.
    9000001    1    1    2    0    0 -0.97351761824E+03 -0.37001512889E+04 -0.52546306137E+04  0.65000000000E+04  0.10000000000E+01 0.  0.
    9000001    1    1    2    0    0  0.97351761824E+03  0.37001512889E+04  0.52546306137E+04  0.65000000000E+04  0.10000000000E+01 0.  0.
</event>
<event>
 4    1  0.2193160E-006  0.1300000E+05  0.7957747E-01  0.1322471E+00
    9000001   -1    0    0    0    0  0.00000000000E+00  0.00000000000E+00  0.64999999231E+04  0.65000000000E+04  0.10000000000E+01 0.  0.
    9000001   -1    0    0    0    0 -0.00000000000E+00 -0.00000000000E+00 -0.64999999231E+04  0.65000000000E+04  0.10000000000E+01 0.  0.
    9000001    1    1    2    0    0  0.82402012308E+03 -0.54950181334E+04 -0.33727978816E+04  0.65000000000E+04  0.10000000000E+01 0.  0.
    9000001    1    1    2    0    0 -0.82402012308E+03  0.54950181334E+04  0.33727978816E+04  0.65000000000E+04  0.10000000000E+01 0.  0.
</event>
<event>
 4    1  0.2193160E-006  0.1300000E+05  0.7957747E-01  0.1322471E+00
    9000001   -1    0    0    0    0  0.00000000000E+00  0.00000000000E+00  0.64999999231E+04  0.65000000000E+04  0.10000000000E+01 0.  0.
    9000001   -1    0    0    0    0 -0.00000000000E+00 -0.00000000000E+00 -0.64999999231E+04  0.65000000000E+04  0.10000000000E+01 0.  0.
    9000001    1    1    2    0    0  0.47773844125E+04  0.43438298630E+04 -0.74681945409E+03  0.65000000000E+04  0.10000000000E+01 0.  0.
    9000001    1    1    2    0    0 -0.47773844125E+04 -0.43438298630E+04  0.74681945409E+03  0.65000000000E+04  0.10000000000E+01 0.  0.
</event>
<event>
 4    1  0.2193160E-006  0.1300000E+05  0.7957747E-01  0.1322471E+00
    9000001   -1    0    0    0    0  0.00000000000E+00  0.00000000000E+00  0.64999999231E+04  0.65000000000E+04  0.10000000000E+01 0.  0.
    9000001   -1    0    0    0    0 -0.00000000000E+00 -0.00000000000E+00 -0.64999999231E+04  0.65000000000E+04  0.10000000000E+01 0.  0.
    9000001    1    1    2    0    0  0.52391926688E+04 -0.31632439498E+04 -0.21896910498E+04  0.65000000000E+04  0.10000000000E+01 0.  0.
    9000001    1    1    2    0    0 -0.52391926688E+04  0.31632439498E+04  0.21896910498E+04  0.65000000000E+04  0.10000000000E+01 0.  0.
</event>
<event>
 4    1  0.2193160E-006  0.1300000E+05  0.7957747E-01  0.1322471E+00
    9000001   -1    0    0    0    0  0.00000000000E+00  0.00000000000E+00  0.64999999231E+04  0.65000000000E+04  0.10000000000E+01 0.  0.
    9000001   -1    0    0    0    0 -0.00000000000E+00 -0.00000000000E+00 -0.64999999231E+04  0.65000000000E+04  0.10000000000E+01 0.  0.
    9000001    1    1    2    0    0 -0.30777364100E+04 -0.56991387981E+04 -0.54530225656E+03  0.65000000000E+04  0.10000000000E+01 0.  0.
    9000001    1    1    2    0    0  0.30777364100E+04  0.56991387981E+04  0.54530225656E+03  0.65000000000E+04  0.10000000000E+01 0.  0.
</event>
<event>
 4    1  0.2193160E-006  0.1300000E+05  0.7957747E-01  0.1322471E+00
    9000001   -1    0    0    0    0  0.00000000000E+00  0.00000000000E+00  0.64999999231E+04  0.65000000000E+04  0.10000000000E+01 0.  0.
    9000001   -1    0    0    0    0 -0.00000000000E+00 -0.00000000000E+00 -0.64999999231E+04  0.65000000000E+04  0.10000000000E+01 0.  0.
    9000001    1    1    2    0    0 -0.13011747740E+04  0.31729960109E+04 -0.55216881044E+04  0.65000000000E+04  0.10000000000E+01 0.  0.
    9000001    1    1    2    0    0  0.13011747740E+04 -0.31729960109E+04  0.55216881044E+04  0.65000000000E+04  0.10000000000E+01 0.  0.
</event>
<event>
 4    1  0.2193160E-006  0.1300000E+05  0.7957747E-01  0.1322471E+00
    9000001   -1    0    0    0    0  0.00000000000E+00  0.00000000000E+00  0.64999999231E+04  0.65000000000E+04  0.10000000000E+01 0.  0.
    9000001   -1    0    0    0    0 -0.00000000000E+00 -0.00000000000E+00 -0.64999999231E+04  0.65000000000E+04  0.10000000000E+01 0.  0.
    9000001    1    1    2    0    0  0.81795832204E+03  0.63473846068E+04  0.11365086168E+04  0.65000000000E+04  0.10000000000E+01 0.  0.
    9000001    1    1    2    0    0 -0.81795832204E+03 -0.63473846068E+04 -0.11365086168E+04  0.65000000000E+04  0.10000000000E+01 0.  0.
</event>
<event>
 4    1  0.2193160E-006  0.1300000E+05  0.7957747E-01  0.1322471E+00
    9000001   -1    0    0    0    0  0.00000000000E+00  0.00000000000E+00  0.64999999231E+04  0.65000000000E+04  0.10000000000E+01 0.  0.
    9000001   -1    0    0    0    0 -0.00000000000E+00 -0.00000000000E+00 -0.64999999231E+04  0.65000000000E+04  0.10000000000E+01 0.  0.
    9000001    1    1    2    0    0 -0.49652446264E+04 -0.15135926873E+03 -0.41920681259E+04  0.65000000000E+04  0.10000000000E+01 0.  0.
    9000001    1    1    2    0    0  0.49652446264E+04  0.15135926873E+03  0.41920681259E+04  0.65000000000E+04  0.10000000000E+01 0.  0.
</event>
<event>
 4    1  0.2193160E-006  0.1300000E+05  0.7957747E-01  0.1322471E+00
    9000001   -1    0    0    0    0  0.00000000000E+00  0.00000000000E+00  0.64999999231E+04  0.65000000000E+04  0.10000000000E+01 0.  0.
    9000001   -1    0    0    0    0 -0.00000000000E+00 -0.00000000000E+00 -0.64999999231E+04  0.65000000000E+04  0.10000000000E+01 0.  0.
    9000001    1    1    2    0    0  0.14357396322E+04 -0.61498062943E+04 -0.15390039800E+04  0.65000000000E+04  0.10000000000E+01 0.  0.
    9000001    1    1    2    0    0 -0.14357396322E+04  0.61498062943E+04  0.15390039800E+04  0.65000000000E+04  0.10000000000E+01 0.  0.
</event>
<event>
 4    1  0.2193160E-006  0.1300000E+05  0.7957747E-01  0.1322471E+00
    9000001   -1    0    0    0    0  0.00000000000E+00  0.00000000000E+00  0.64999999231E+04  0.65000000000E+04  0.10000000000E+01 0.  0.
    9000001   -1    0    0    0    0 -0.00000000000E+00 -0.00000000000E+00 -0.64999999231E+04  0.65000000000E+04  0.10000000000E+01 0.  0.
    9000001    1    1    2    0    0  0.58231267841E+04  0.46624790138E+03 -0.28502291751E+04  0.65000000000E+04  0.10000000000E+01 0.  0.
    9000001    1    1    2    0    0 -0.58231267841E+04 -0.46624790138E+03  0.28502291751E+04  0.65000000000E+04  0.10000000000E+01 0.  0.
</event>
<event>
 4    1  0.2193160E-006  0.1300000E+05  0.7957747E-01  0.1322471E+00
    9000001   -1    0    0    0    0  0.00000000000E+00  0.00000000000E+00  0.64999999231E+04  0.65000000000E+04  0.10000000000E+01 0.  0.
    9000001   -1    0    0    0    0 -0.00000000000E+00 -0.00000000000E+00 -0.64999999231E+04  0.65000000000E+04  0.10000000000E+01 0.  0.
    9000001    1    1    2    0    0 -0.57490167765E+04  0.17600222485E+04  0.24700459081E+04  0.65000000000E+04  0.10000000000E+01 0.  0.
    9000001    1    1    2    0    0  0.57490167765E+04 -0.17600222485E+04 -0.24700459081E+04  0.65000000000E+04  0.10000000000E+01 0.  0.
</event>
<event>
 4    1  0.2193160E-006  0.1300000E+05  0.7957747E-01  0.1322471E+00
    9000001   -1    0    0    0    0  0.00000000000E+00  0.00000000000E+00  0.64999999231E+04  0.65000000000E+04  0.10000000000E+01 0.  0.
    9000001   -1    0    0    0    0 -0.00000000000E+00 -0.00000000000E+00 -0.64999999231E+04  0.65000000000E+04  0.10000000000E+01 0.  0.
    9000001    1    1    2    0    0  0.32234948355E+04 -0.37330123672E+04 -0.42336389444E+04  0.65000000000E+04  0.10000000000E+01 0.  0.
    9000001    1    1    2    0    0 -0.32234948355E+04  0.37330123672E+04  0.42336389444E+04  0.65000000000E+04  0.10000000000E+01 0.  0.
</event>
<event>
 4    1  0.2193160E-006  0.1300000E+05  0.7957747E-01  0.1322471E+00
    9000001   -1    0    0    0    0  0.00000000000E+00  0.00000000000E+00  0.64999999231E+04  0.65000000000E+04  0.10000000000E+01 0.  0.
    9000001   -1    0    0    0    0 -0.00000000000E+00 -0.00000000000E+00 -0.64999999231E+04  0.65000000000E+04  0.10000000000E+01 0.  0.
    9000001    1    1    2    0    0  0.11222718462E+04  0.47564686984E+04  0.42856166913E+04  0.65000000000E+04  0.10000000000E+01 0.  0.
    9000001    1    1    2    0    0 -0.11222718462E+04 -0.47564686984E+04 -0.42856166913E+04  0.65000000000E+04  0.10000000000E+01 0.  0.
</event>
<event>
 4    1  0.2193160E-006  0.1300000E+05  0.7957747E-01  0.1322471E+00
    9000001   -1    0    0    0    0  0.00000000000E+00  0.00000000000E+00  0.64999999231E+04  0.65000000000E+04  0.10000000000E+01 0.  0.
    9000001   -1    0    0    0    0 -0.00000000000E+00 -0.00000000000E+00 -0.64999999231E+04  0.65000000000E+04  0.10000000000E+01 0.  0.
    9000001    1    1    2    0    0  0.85295317246E+03 -0.25231008332E+03  0.64388515674E+04  0.65000000000E+04  0.10000000000E+01 0.  0.
    9000001    1    1    2    0    0 -0.85295317246E+03  0.25231008332E+03 -0.64388515674E+04  0.65000000000E+04  0.10000000000E+01 0.  0.
</event>
<event>
 4    1  0.2193160E-006  0.1300000E+05  0.7957747E-01  0.1322471E+00
    9000001   -1    0    0    0    0  0.00000000000E+00  0.00000000000E+00  0.64999999231E+04  0.65000000000E+04  0.10000000000E+01 0.  0.
    9000001   -1    0    0    0    0 -0.00000000000E+00 -0.00000000000E+00 -0.64999999231E+04  0.65000000000E+04  0.10000000000E+01 0.  0.
    9000001    1    1    2    0    0  0.26056305612E+03 -0.50655869107E+03 -0.64749906707E+04  0.65000000000E+04  0.10000000000E+01 0.  0.
    9000001    1    1    2    0    0 -0.26056305612E+03  0.50655869107E+03  0.64749906707E+04  0.65000000000E+04  0.10000000000E+01 0.  0.
</event>
<event>
 4    1  0.2193160E-006  0.1300000E+05  0.7957747E-01  0.1322471E+00
    9000001   -1    0    0    0    0  0.00000000000E+00  0.00000000000E+00  0.64999999231E+04  0.65000000000E+04  0.10000000000E+01 0.  0.
    9000001   -1    0    0    0    0 -0.00000000000E+00 -0.00000000000E+00 -0.64999999231E+04  0.65000000000E+04  0.10000000000E+01 0.  0.
    9000001    1    1    2    0    0  0.45981068926E+04 -0.36220202029E+04 -0.28263725257E+04  0.65000000000E+04  0.10000000000E+01 0.  0.
    9000001    1    1    2    0    0 -0.45981068926E+04  0.36220202029E+04  0.28263725257E+04  0.65000000000E+04  0.10000000000E+01 0.  0.
</event>
<event>
 4    1  0.2193160E-006  0.1300000E+05  0.7957747E-01  0.1322471E+00
    9000001   -1    0    0    0    0  0.00000000000E+00  0.00000000000E+00  0.64999999231E+04  0.65000000000E+04  0.10000000000E+01 0.  0.
    9000001   -1    0    0    0    0 -0.00000000000E+00 -0.00000000000E+00 -0.64999999231E+04  0.65000000000E+04  0.10000000000E+01 0.  0.
    9000001    1    1    2    0    0  0.27188027368E+04  0.29138350861E+04 -0.51349465206E+04  0.65000000000E+04  0.10000000000E+01 0.  0.
    9000001    1    1    2    0    0 -0.27188027368E+04 -0.29138350861E+04  0.51349465206E+04  0.65000000000E+04  0.10000000000E+01 0.  0.
</event>
<event>
 4    1  0.2193160E-006  0.1300000E+05  0.7957747E-01  0.1322471E+00
    9000001   -1    0    0    0    0  0.00000000000E+00  0.00000000000E+00  0.64999999231E+04  0.65000000000E+04  0.10000000000E+01 0.  0.
    9000001   -1    0    0    0    0 -0.00000000000E+00 -0.00000000000E+00 -0.64999999231E+04  0.65000000000E+04  0.10000000000E+01 0.  0.
    9000001    1    1    2    0    0 -0.34317821889E+04  0.50627230250E+04  0.22003875976E+04  0.65000000000E+04  0.10000000000E+01 0.  0.
    9000001    1    1    2    0    0  0.34317821889E+04 -0.50627230250E+04 -0.22003875976E+04  0.65000000000E+04  0.10000000000E+01 0.  0.
</event>
<event>
 4    1  0.2193160E-006  0.1300000E+05  0.7957747E-01  0.1322471E+00
    9000001   -1    0    0    0    0  0.00000000000E+00  0.00000000000E+00  0.64999999231E+04  0.65000000000E+04  0.10000000000E+01 0.  0.
    9000001   -1    0    0    0    0 -0.00000000000E+00 -0.00000000000E+00 -0.64999999231E+04  0.65000000000E+04  0.10000000000E+01 0.  0.
    9000001    1    1    2    0    0 -0.43161485978E+04  0.36290696052E+04 -0.32327564218E+04  0.65000000000E+04  0.10000000000E+01 0.  0.
    9000001    1    1    2    0    0  0.43161485978E+04 -0.36290696052E+04  0.32327564218E+04  0.65000000000E+04  0.10000000000E+01 0.  0.
</event>
<event>
 4    1  0.2193160E-006  0.1300000E+05  0.7957747E-01  0.1322471E+00
    9000001   -1    0    0    0    0  0.00000000000E+00  0.00000000000E+00  0.64999999231E+04  0.65000000000E+04  0.10000000000E+01 0.  0.
    9000001   -1    0    0    0    0 -0.00000000000E+00 -0.00000000000E+00 -0.64999999231E+04  0.65000000000E+04  0.10000000000E+01 0.  0.
    9000001    1    1    2    0    0 -0.26513196676E+04 -0.14133594102E+04  0.57639325289E+04  0.65000000000E+04  0.10000000000E+01 0.  0.
    9000001    1    1    2    0    0  0.26513196676E+04  0.14133594102E+04 -0.57639325289E+04  0.65000000000E+04  0.10000000000E+01 0.  0.
</event>
<event>
 4    1  0.2193160E-006  0.1300000E+05  0.7957747E-01  0.1322471E+00
    9000001   -1    0    0    0    0  0.00000000000E+00  0.00000000000E+00  0.64999999231E+04  0.65000000000E+04  0.10000000000E+01 0.  0.
    9000001   -1    0    0    0    0 -0.00000000000E+00 -0.00000000000E+00 -0.64999999231E+04  0.65000000000E+04  0.10000000000E+01 0.  0.
    9000001    1    1    2    0    0  0.25254539583E+04  0.57596926560E+04  0.16425656189E+04  0.65000000000E+04  0.10000000000E+01 0.  0.
    9000001    1    1    2    0    0 -0.25254539583E+04 -0.57596926560E+04 -0.16425656189E+04  0.65000000000E+04  0.10000000000E+01 0.  0.
</event>
<event>
 4    1  0.2193160E-006  0.1300000E+05  0.7957747E-01  0.1322471E+00
    9000001   -1    0    0    0    0  0.00000000000E+00  0.00000000000E+00  0.64999999231E+04  0.65000000000E+04  0.10000000000E+01 0.  0.
    9000001   -1    0    0    0    0 -0.00000000000E+00 -0.00000000000E+00 -0.64999999231E+04  0.65000000000E+04  0.10000000000E+01 0.  0.
    9000001    1    1    2    0    0 -0.13299532031E+04  0.60612321962E+04 -0.19346027347E+04  0.65000000000E+04  0.10000000000E+01 0.  0.
    9000001    1    1    2    0    0  0.13299532031E+04 -0.60612321962E+04  0.19346027347E+04  0.65000000000E+04  0.10000000000E+01 0.  0.
</event>
<event>
 4    1  0.2193160E-006  0.1300000E+05  0.7957747E-01  0.1322471E+00
    9000001   -1    0    0    0    0  0.00000000000E+00  0.00000000000E+00  0.64999999231E+04  0.65000000000E+04  0.10000000000E+01 0.  0.
    9000001   -1    0    0    0    0 -0.00000000000E+00 -0.00000000000E+00 -0.64999999231E+04  0.65000000000E+04  0.10000000000E+01 0.  0.
    9000001    1    1    2    0    0 -0.45893951985E+04  0.19856513781E+04 -0.41526665309E+04  0.65000000000E+04  0.10000000000E+01 0.  0.
    9000001    1    1    2    0    0  0.45893951985E+04 -0.19856513781E+04  0.41526665309E+04  0.65000000000E+04  0.10000000000E+01 0.  0.
</event>
<event>
 4    1  0.2193160E-006  0.1300000E+05  0.7957747E-01  0.1322471E+00
    9000001   -1    0    0    0    0  0.00000000000E+00  0.00000000000E+00  0.64999999231E+04  0.65000000000E+04  0.10000000000E+01 0.  0.
    9000001   -1    0    0    0    0 -0.00000000000E+00 -0.00000000000E+00 -0.64999999231E+04  0.65000000000E+04  0.10000000000E+01 0.  0.
    9000001    1    1    2    0    0 -0.74461897916E+03 -0.22244442774E+03  0.64533758648E+04  0.65000000000E+04  0.10000000000E+01 0.  0.
    9000001    1    1    2    0    0  0.74461897916E+03  0.22244442774E+03 -0.64533758648E+04  0.65000000000E+04  0.10000000000E+01 0.  0.
</event>
<event>
 4    1  0.2193160E-006  0.1300000E+05  0.7957747E-01  0.1322471E+00
    9000001   -1    0    0    0    0  0.00000000000E+00  0.00000000000E+00  0.64999999231E+04  0.65000000000E+04  0.10000000000E+01 0.  0.
    9000001   -1    0    0    0    0 -0.00000000000E+00 -0.00000000000E+00 -0.64999999231E+04  0.65000000000E+04  0.10000000000E+01 0.  0.
    9000001    1    1    2    0    0  0.48445312745E+04  0.42748718079E+04  0.71132746080E+03  0.65000000000E+04  0.10000000000E+01 0.  0.
    9000001    1    1    2    0    0 -0.48445312745E+04 -0.42748718079E+04 -0.71132746080E+03  0.65000000000E+04  0.10000000000E+01 0.  0.
</event>
<event>
 4    1  0.2193160E-006  0.1300000E+05  0.7957747E-01  0.1322471E+00
    9000001   -1    0    0    0    0  0.00000000000E+00  0.00000000000E+00  0.64999999231E+04  0.65000000000E+04  0.10000000000E+01 0.  0.
    9000001   -1    0    0    0    0 -0.00000000000E+00 -0.00000000000E+00 -0.64999999231E+04  0.65000000000E+04  0.10000000000E+01 0.  0.
    9000001    1    1    2    0    0 -0.15556242577E+04  0.38226372663E+04 -0.50217005585E+04  0.65000000000E+04  0.10000000000E+01 0.  0.
    9000001    1    1    2    0    0  0.15556242577E+04 -0.38226372663E+04  0.50217005585E+04  0.65000000000E+04  0.10000000000E+01 0.  0.
</event>
<event>
 4    1  0.2193160E-006  0.1300000E+05  0.7957747E-01  0.1322471E+00
    9000001   -1    0    0    0    0  0.00000000000E+00  0.00000000000E+00  0.64999999231E+04  0.65000000000E+04  0.10000000000E+01 0.  0.
    9000001   -1    0    0    0    0 -0.00000000000E+00 -0.00000000000E+00 -0.64999999231E+04  0.65000000000E+04  0.10000000000E+01 0.  0.
    9000001    1    1    2    0    0  0.30291211735E+04  0.27200597590E+04 -0.50671193812E+04  0.65000000000E+04  0.10000000000E+01 0.  0.
    9000001    1    1    2    0    0 -0.30291211735E+04 -0.27200597590E+04  0.50671193812E+04  0.65000000000E+04  0.10000000000E+01 0.  0.
</event>
<event>
 4    1  0.2193160E-006  0.1300000E+05  0.7957747E-01  0.1322471E+00
    9000001   -1    0    0    0    0  0.00000000000E+00  0.00000000000E+00  0.64999999231E+04  0.65000000000E+04  0.10000000000E+01 0.  0.
    9000001   -1    0    0    0    0 -0.00000000000E+00 -0.00000000000E+00 -0.64999999231E+04  0.65000000000E+04  0.10000000000E+01 0.  0.
    9000001    1    1    2    0    0  0.44032243224E+04 -0.38843453509E+04 -0.27880953644E+04  0.65000000000E+04  0.10000000000E+01 0.  0.
    9000001    1    1    2    0    0 -0.44032243224E+04  0.38843453509E+04  0.27880953644E+04  0.65000000000E+04  0.10000000000E+01 0.  0.
</event>
<event>
 4    1  0.2193160E-006  0.1300000E+05  0.7957747E-01  0.1322471E+00
    9000001   -1    0    0    0    0  0.00000000000E+00  0.00000000000E+00  0.64999999231E+04  0.65000000000E+04  0.10000000000E+01 0.  0.
    9000001   -1    0    0    0    0 -0.00000000000E+00 -0.00000000000E+00 -0.64999999231E+04  0.65000000000E+04  0.10000000000E+01 0.  0.
    9000001    1    1    2    0    0 -0.43307145399E+04 -0.47176068314E+04 -0.11131470513E+04  0.65000000000E+04  0.10000000000E+01 0.  0.
    9000001    1    1    2    0    0  0.43307145399E+04  0.47176068314E+04  0.11131470513E+04  0.65000000000E+04  0.10000000000E+01 0.  0.
</event>
<event>
 4    1  0.2193160E-006  0.1300000E+05  0.7957747E-01  0.1322471E+00
    9000001   -1    0    0    0    0  0.00000000000E+00  0.00000000000E+00  0.64999999231E+04  0.65000000000E+04  0.10000000000E+01 0.  0.
    9000001   -1    0    0    0    0 -0.00000000000E+00 -0.00000000000E+00 -0.64999999231E+04  0.65000000000E+04  0.10000000000E+01 0.  0.
    9000001    1    1    2    0    0  0.71530715557E+03 -0.59387591233E+04  0.25435162174E+04  0.65000000000E+04  0.10000000000E+01 0.  0.
    9000001    1    1    2    0    0 -0.71530715557E+03  0.59387591233E+04 -0.25435162174E+04  0.65000000000E+04  0.10000000000E+01 0.  0.
</event>
<event>
 4    1  0.2193160E-006  0.1300000E+05  0.7957747E-01  0.1322471E+00
    9000001   -1    0    0    0    0  0.00000000000E+00  0.00000000000E+00  0.64999999231E+04  0.65000000000E+04  0.10000000000E+01 0.  0.
    9000001   -1    0    0    0    0 -0.00000000000E+00 -0.00000000000E+00 -0.64999999231E+04  0.65000000000E+04  0.10000000000E+01 0.  0.
    9000001    1    1    2    0    0 -0.24475760979E+04 -0.10047777354E+04  0.59371535223E+04  0.65000000000E+04  0.10000000000E+01 0.  0.
    9000001    1    1    2    0    0  0.24475760979E+04  0.10047777354E+04 -0.59371535223E+04  0.65000000000E+04  0.10000000000E+01 0.  0.
</event>
<event>
 4    1  0.2193160E-006  0.1300000E+05  0.7957747E-01  0.1322471E+00
    9000001   -1    0    0    0    0  0.00000000000E+00  0.00000000000E+00  0.64999999231E+04  0.65000000000E+04  0.10000000000E+01 0.  0.
    9000001   -1    0    0    0    0 -0.00000000000E+00 -0.00000000000E+00 -0.64999999231E+04  0.65000000000E+04  0.10000000000E+01 0.  0.
    9000001    1    1    2    0    0  0.28112865080E+04  0.56017513600E+04  0.17225123716E+04  0.65000000000E+04  0.10000000000E+01 0.  0.
    9000001    1    1    2    0    0 -0.28112865080E+04 -0.56017513600E+04 -0.17225123716E+04  0.65000000000E+04  0.10000000000E+01 0.  0.
</event>
<event>
 4    1  0.2193160E-006  0.1300000E+05  0.7957747E-01  0.1322471E+00
    9000001   -1    0    0    0    0  0.00000000000E+00  0.00000000000E+00  0.64999999231E+04  0.65000000000E+04  0.10000000000E+01 0.  0.
    9000001   -1    0    0    0    0 -0.00000000000E+00 -0.00000000000E+00 -0.64999999231E+04  0.65000000000E+04  0.10000000000E+01 0.  0.
    9000001    1    1    2    0    0 -0.20979924048E+04 -0.30352497899E+04  0.53512321555E+04  0.65000000000E+04  0.10000000000E+01 0.  0.
    9000001    1    1    2    0    0  0.20979924048E+04  0.30352497899E+04 -0.53512321555E+04  0.65000000000E+04  0.10000000000E+01 0.  0.
</event>
<event>
 4    1  0.2193160E-006  0.1300000E+05  0.7957747E-01  0.1322471E+00
    9000001   -1    0    0    0    0  0.00000000000E+00  0.00000000000E+00  0.64999999231E+04  0.65000000000E+04  0.10000000000E+01 0.  0.
    9000001   -1    0    0    0    0 -0.00000000000E+00 -0.00000000000E+00 -0.64999999231E+04  0.65000000000E+04  0.10000000000E+01 0.  0.
    9000001    1    1    2    0    0 -0.29072182488E+04 -0.55495831812E+04  0.17321107265E+04  0.65000000000E+04  0.10000000000E+01 0.  0.
    9000001    1    1    2    0    0  0.29072182488E+04  0.55495831812E+04 -0.17321107265E+04  0.65000000000E+04  0.10000000000E+01 0.  0.
</event>
<event>
 4    1  0.2193160E-006  0.1300000E+05  0.7957747E-01  0.1322471E+00
    9000001   -1    0    0    0    0  0.00000000000E+00  0.00000000000E+00  0.64999999231E+04  0.65000000000E+04  0.10000000000E+01 0.  0.
    9000001   -1    0    0    0    0 -0.00000000000E+00 -0.00000000000E+00 -0.64999999231E+04  0.65000000000E+04  0.10000000000E+01 0.  0.
    9000001    1    1    2    0    0  0.17376382301E+03  0.10957532786E+04  0.64046178564E+04  0.65000000000E+04  0.10000000000E+01 0.  0.
    9000001    1    1    2    0    0 -0.17376382301E+03 -0.10957532786E+04 -0.64046178564E+04  0.65000000000E+04  0.10000000000E+01 0.  0.
</event>
<event>
 4    1  0.2193160E-006  0.1300000E+05  0.7957747E-01  0.1322471E+00
    9000001   -1    0    0    0    0  0.00000000000E+00  0.00000000000E+00  0.64999999231E+04  0.65000000000E+04  0.10000000000E+01 0.  0.
    9000001   -1    0    0    0    0 -0.00000000000E+00 -0.00000000000E+00 -0.64999999231E+04  0.65000000000E+04  0.10000000000E+01 0.  0.
    9000001    1    1    2    0    0 -0.39076888185E+04 -0.23336648891E+04  0.46404714505E+04  0.65000000000E+04  0.10000000000E+01 0.  0.
    9000001    1    1    2    0    0  0.39076888185E+04  0.23336648891E+04 -0.46404714505E+04  0.65000000000E+04  0.10000000000E+01 0.  0.
</event>
<event>
 4    1  0.2193160E-006  0.1300000E+05  0.7957747E-01  0.1322471E+00
    9000001   -1    0    0    0    0  0.00000000000E+00  0.00000000000E+00  0.64999999231E+04  0.65000000000E+04  0.10000000000E+01 0.  0.
    9000001   -1    0    0    0    0 -0.00000000000E+00 -0.00000000000E+00 -0.64999999231E+04  0.65000000000E+04  0.10000000000E+01 0.  0.
    9000001    1    1    2    0    0 -0.60916692441E+04  0.22445821332E+04 -0.32158337601E+03  0.65000000000E+04  0.10000000000E+01 0.  0.
    9000001    1    1    2    0    0  0.60916692441E+04 -0.22445821332E+04  0.32158337601E+03  0.65000000000E+04  0.10000000000E+01 0.  0.
</event>
<event>
 4    1  0.2193160E-006  0.1300000E+05  0.7957747E-01  0.1322471E+00
    9000001   -1    0    0    0    0  0.00000000000E+00  0.00000000000E+00  0.64999999231E+04  0.65000000000E+04  0.10000000000E+01 0.  0.
    9000001   -1    0    0    0    0 -0.00000000000E+00 -0.00000000000E+00 -0.64999999231E+04  0.65000000000E+04  0.10000000000E+01 0.  0.
    9000001    1    1    2    0    0 -0.44418244271E+04 -0.40600886701E+04  0.24568017318E+04  0.65000000000E+04  0.10000000000E+01 0.  0.
    9000001    1    1    2    0    0  0.44418244271E+04  0.40600886701E+04 -0.24568017318E+04  0.65000000000E+04  0.10000000000E+01 0.  0.
</event>
<event>
 4    1  0.2193160E-006  0.1300000E+05  0.7957747E-01  0.1322471E+00
    9000001   -1    0    0    0    0  0.00000000000E+00  0.00000000000E+00  0.64999999231E+04  0.65000000000E+04  0.10000000000E+01 0.  0.
    9000001   -1    0    0    0    0 -0.00000000000E+00 -0.00000000000E+00 -0.64999999231E+04  0.65000000000E+04  0.10000000000E+01 0.  0.
    9000001    1    1    2    0    0  0.23237965306E+04 -0.45870366678E+04  0.39760612788E+04  0.65000000000E+04  0.10000000000E+01 0.  0.
    9000001    1    1    2    0    0 -0.23237965306E+04  0.45870366678E+04 -0.39760612788E+04  0.65000000000E+04  0.10000000000E+01 0.  0.
</event>
<event>
 4    1  0.2193160E-006  0.1300000E+05  0.7957747E-01  0.1322471E+00
    9000001   -1    0    0    0    0  0.00000000000E+00  0.00000000000E+00  0.64999999231E+04  0.65000000000E+04  0.10000000000E+01 0.  0.
    9000001   -1    0    0    0    0 -0.00000000000E+00 -0.00000000000E+00 -0.64999999231E+04  0.65000000000E+04  0.10000000000E+01 0.  0.
    9000001    1    1    2    0    0  0.93341139032E+03  0.60706863847E+04  0.21273243745E+04  0.65000000000E+04  0.10000000000E+01 0.  0.
    9000001    1    1    2    0    0 -0.93341139032E+03 -0.60706863847E+04 -0.21273243745E+04  0.65000000000E+04  0.10000000000E+01 0.  0.
</event>
<event>
 4    1  0.2193160E-006  0.1300000E+05  0.7957747E-01  0.1322471E+00
    9000001   -1    0    0    0    0  0.00000000000E+00  0.00000000000E+00  0.64999999231E+04  0.65000000000E+04  0.10000000000E+01 0.  0.
    9000001   -1    0    0    0    0 -0.00000000000E+00 -0.00000000000E+00 -0.64999999231E+04  0.65000000000E+04  0.10000000000E+01 0.  0.
    9000001    1    1    2    0    0 -0.40783758202E+04  0.48959565624E+04 -0.12831441885E+04  0.65000000000E+04  0.10000000000E+01 0.  0.
    9000001    1    1    2    0    0  0.40783758202E+04 -0.48959565624E+04  0.12831441885E+04  0.65000000000E+04  0.10000000000E+01 0.  0.
</event>
<event>
 4    1  0.2193160E-006  0.1300000E+05  0.7957747E-01  0.1322471E+00
    9000001   -1    0    0    0    0  0.00000000000E+00  0.00000000000E+00  0.64999999231E+04  0.65000000000E+04  0.10000000000E+01 0.  0.
    9000001   -1    0    0    0    0 -0.00000000000E+00 -0.00000000000E+00 -0.64999999231E+04  0.65000000000E+04  0.10000000000E+01 0.  0.
    9000001    1    1    2    0    0  0.14581960861E+03 -0.58516009286E+04 -0.28262169439E+04  0.65000000000E+04  0.10000000000E+01 0.  0.
    9000001    1    1    2    0    0 -0.14581960861E+03  0.58516009286E+04  0.28262169439E+04  0.65000000000E+04  0.10000000000E+01 0.  0.
</event>
<event>
 4    1  0.2193160E-006  0.1300000E+05  0.7957747E-01  0.1322471E+00
    9000001   -1    0    0    0    0  0.00000000000E+00  0.00000000000E+00  0.64999999231E+04  0.65000000000E+04  0.10000000000E+01 0.  0.
    9000001   -1    0    0    0    0 -0.00000000000E+00 -0.00000000000E+00 -0.64999999231E+04  0.65000000000E+04  0.10000000000E+01 0.  0.
    9000001    1    1    2    0    0 -0.16352467506E+04  0.37910990093E+04 -0.50203122778E+04  0.65000000000E+04  0.10000000000E+01 0.  0.
    9000001    1    1    2    0    0  0.16352467506E+04 -0.37910990093E+04  0.50203122778E+04  0.65000000000E+04  0.10000000000E+01 0.  0.
</event>
<event>
 4    1  0.2193160E-006  0.1300000E+05  0.7957747E-01  0.1322471E+00
    9000001   -1    0    0    0    0  0.00000000000E+00  0.00000000000E+00  0.64999999231E+04  0.65000000000E+04  0.10000000000E+01 0.  0.
    9000001   -1    0    0    0    0 -0.00000000000E+00 -0.00000000000E+00 -0.64999999231E+04  0.65000000000E+04  0.10000000000E+01 0.  0.
    9000001    1    1    2    0    0 -0.30291420121E+04 -0.44866678884E+04  0.35977922299E+04  0.65000000000E+04  0.10000000000E+01 0.  0.
    9000001    1    1    2    0    0  0.30291420121E+04  0.44866678884E+04 -0.35977922299E+04  0.65000000000E+04  0.10000000000E+01 0.  0.
</event>
<event>
 4    1  0.2193160E-006  0.1300000E+05  0.7957747E-01  0.1322471E+00
    9000001   -1    0    0    0    0  0.00000000000E+00  0.00000000000E+00  0.64999999231E+04  0.65000000000E+04  0.10000000000E+01 0.  0.
    9000001   -1    0    0    0    0 -0.00000000000E+00 -0.00000000000E+00 -0.64999999231E+04  0.65000000000E+04  0.10000000000E+01 0.  0.
    9000001    1    1    2    0    0 -0.24248554021E+03  0.41558569066E+04  0.49919989118E+04  0.65000000000E+04  0.10000000000E+01 0.  0.
    9000001    1    1    2    0    0  0.24248554021E+03 -0.41558569066E+04 -0.49919989118E+04  0.65000000000E+04  0.10000000000E+01 0.  0.
</event>
<event>
 4    1  0.2193160E-006  0.1300000E+05  0.7957747E-01  0.1322471E+00
    9000001   -1    0    0    0    0  0.00000000000E+00  0.00000000000E+00  0.64999999231E+04  0.65000000000E+04  0.10000000000E+01 0.  0.
    9000001   -1    0    0    0    0 -0.00000000000E+00 -0.00000000000E+00 -0.64999999231E+04  0.65000000000E+04  0.10000000000E+01 0.  0.
    9000001    1    1    2    0    0 -0.44244250210E+04 -0.27252758071E+04 -0.39047834779E+04  0.65000000000E+04  0.10000000000E+01 0.  0.
    9000001    1    1    2    0    0  0.44244250210E+04  0.27252758071E+04  0.39047834779E+04  0.65000000000E+04  0.10000000000E+01 0.  0.
</event>
<event>
 4    1  0.2193160E-006  0.1300000E+05  0.7957747E-01  0.1322471E+00
    9000001   -1    0    0    0    0  0.00000000000E+00  0.00000000000E+00  0.64999999231E+04  0.65000000000E+04  0.10000000000E+01 0.  0.
    9000001   -1    0    0    0    0 -0.00000000000E+00 -0.00000000000E+00 -0.64999999231E+04  0.65000000000E+04  0.10000000000E+01 0.  0.
    9000001    1    1    2    0    0 -0.64198775220E+04 -0.22477397004E+03 -0.99229444443E+03  0.65000000000E+04  0.10000000000E+01 0.  0.
    9000001    1    1    2    0    0  0.64198775220E+04  0.22477397004E+03  0.99229444443E+03  0.65000000000E+04  0.10000000000E+01 0.  0.
</event>
<event>
 4    1  0.2193160E-006  0.1300000E+05  0.7957747E-01  0.1322471E+00
    9000001   -1    0    0    0    0  0.00000000000E+00  0.00000000000E+00  0.64999999231E+04  0.65000000000E+04  0.10000000000E+01 0.  0.
    9000001   -1    0    0    0    0 -0.00000000000E+00 -0.00000000000E+00 -0.64999999231E+04  0.65000000000E+04  0.10000000000E+01 0.  0.
    9000001    1    1    2    0    0  0.29319149974E+03 -0.92388519237E+03  0.64273224515E+04  0.65000000000E+04  0.10000000000E+01 0.  0.
    9000001    1    1    2    0    0 -0.29319149974E+03  0.92388519237E+03 -0.64273224515E+04  0.65000000000E+04  0.10000000000E+01 0.  0.
</event>
<event>
 4    1  0.2193160E-006  0.1300000E+05  0.7957747E-01  0.1322471E+00
    9000001   -1    0    0    0    0  0.00000000000E+00  0.00000000000E+00  0.64999999231E+04  0.65000000000E+04  0.10000000000E+01 0.  0.
    9000001   -1    0    0    0    0 -0.00000000000E+00 -0.00000000000E+00 -0.64999999231E+04  0.65000000000E+04  0.10000000000E+01 0.  0.
    9000001    1    1    2    0    0 -0.12592813207E+04 -0.51404460557E+04 -0.37735956201E+04  0.65000000000E+04  0.10000000000E+01 0.  0.
    9000001    1    1    2    0    0  0.12592813207E+04  0.51404460557E+04  0.37735956201E+04  0.65000000000E+04  0.10000000000E+01 0.  0.
</event>
<event>
 4    1  0.2193160E-006  0.1300000E+05  0.7957747E-01  0.1322471E+00
    9000001   -1    0    0    0    0  0.00000000000E+00  0.00000000000E+00  0.64999999231E+04  0.65000000000E+04  0.10000000000E+01 0.  0.
    9000001   -1    0    0    0    0 -0.00000000000E+00 -0.00000000000E+00 -0.64999999231E+04  0.65000000000E+04  0.10000000000E+01 0.  0.
    9000001    1    1    2    0    0  0.34648522063E+04  0.44011996093E+04 -0.32976112852E+04  0.65000000000E+04  0.10000000000E+01 0.  0.
    9000001    1    1    2    0    0 -0.34648522063E+04 -0.44011996093E+04  0.32976112852E+04  0.65000000000E+04  0.10000000000E+01 0.  0.
</event>
<event>
 4    1  0.2193160E-006  0.1300000E+05  0.7957747E-01  0.1322471E+00
    9000001   -1    0    0    0    0  0.00000000000E+00  0.00000000000E+00  0.64999999231E+04  0.65000000000E+04  0.10000000000E+01 0.  0.
    9000001   -1    0    0    0    0 -0.00000000000E+00 -0.00000000000E+00 -0.64999999231E+04  0.65000000000E+04  0.10000000000E+01 0.  0.
    9000001    1    1    2    0    0 -0.20392552221E+04 -0.61313783771E+04 -0.70543343833E+03  0.65000000000E+04  0.10000000000E+01 0.  0.
    9000001    1    1    2    0    0  0.20392552221E+04  0.61313783771E+04  0.70543343833E+03  0.65000000000E+04  0.10000000000E+01 0.  0.
</event>
<event>
 4    1  0.2193160E-006  0.1300000E+05  0.7957747E-01  0.1322471E+00
    9000001   -1    0    0    0    0  0.00000000000E+00  0.00000000000E+00  0.64999999231E+04  0.65000000000E+04  0.10000000000E+01 0.  0.
    9000001   -1    0    0    0    0 -0.00000000000E+00 -0.00000000000E+00 -0.64999999231E+04  0.65000000000E+04  0.10000000000E+01 0.  0.
    9000001    1    1    2    0    0  0.61413812259E+04  0.21255868327E+04  0.12375885911E+03  0.65000000000E+04  0.10000000000E+01 0.  0.
    9000001    1    1    2    0    0 -0.61413812259E+04 -0.21255868327E+04 -0.12375885911E+03  0.65000000000E+04  0.10000000000E+01 0.  0.
</event>
<event>
 4    1  0.2193160E-006  0.1300000E+05  0.7957747E-01  0.1322471E+00
    9000001   -1    0    0    0    0  0.00000000000E+00  0.00000000000E+00  0.64999999231E+04  0.65000000000E+04  0.10000000000E+01 0.  0.
    9000001   -1    0    0    0    0 -0.00000000000E+00 -0.00000000000E+00 -0.64999999231E+04  0.65000000000E+04  0.10000000000E+01 0.  0.
    9000001    1    1    2    0    0  0.14247631532E+04  0.32755941337E+04  0.54305185782E+04  0.65000000000E+04  0.10000000000E+01 0.  0.
    9000001    1    1    2    0    0 -0.14247631532E+04 -0.32755941337E+04 -0.54305185782E+04  0.65000000000E+04  0.10000000000E+01 0.  0.
</event>
<event>
 4    1  0.2193160E-006  0.1300000E+05  0.7957747E-01  0.1322471E+00
    9000001   -1    0    0    0    0  0.00000000000E+00  0.00000000000E+00  0.64999999231E+04  0.65000000000E+04  0.10000000000E+01 0.  0.
    9000001   -1    0    0    0    0 -0.00000000000E+00 -0.00000000000E+00 -0.64999999231E+04  0.65000000000E+04  0.10000000000E+01 0.  0.
    9000001    1    1    2    0    0 -0.48402946709E+04 -0.21820107913E+04  0.37497167100E+04  0.65000000000E+04  0.10000000000E+01 0.  0.
    9000001    1    1    2    0    0  0.48402946709E+04  0.21820107913E+04 -0.37497167100E+04  0.65000000000E+04  0.10000000000E+01 0.  0.
</event>
<event>
 4    1  0.2193160E-006  0.1300000E+05  0.7957747E-01  0.1322471E+00
    9000001   -1    0    0    0    0  0.00000000000E+00  0.00000000000E+00  0.64999999231E+04  0.65000000000E+04  0.10000000000E+01 0.  0.
    9000001   -1    0    0    0    0 -0.00000000000E+00 -0.00000000000E+00 -0.64999999231E+04  0.65000000000E+04  0.10000000000E+01 0.  0.
    9000001    1    1    2    0    0  0.52829572912E+04 -0.23354446686E+03 -0.37796584822E+04  0.65000000000E+04  0.10000000000E+01 0.  0.
    9000001    1    1    2    0    0 -0.52829572912E+04  0.23354446686E+03  0.37796584822E+04  0.65000000000E+04  0.10000000000E+01 0.  0.
</event>
<event>
 4    1  0.2193160E-006  0.1300000E+05  0.7957747E-01  0.1322471E+00
    9000001   -1    0    0    0    0  0.00000000000E+00  0.00000000000E+00  0.64999999231E+04  0.65000000000E+04  0.10000000000E+01 0.  0.
    9000001   -1    0    0    0    0 -0.00000000000E+00 -0.00000000000E+00 -0.64999999231E+04  0.65000000000E+04  0.10000000000E+01 0.  0.
    9000001    1    1    2    0    0  0.28128057385E+04  0.48159267981E+04  0.33384085958E+04  0.65000000000E+04  0.10000000000E+01 0.  0.
    9000001    1    1    2    0    0 -0.28128057385E+04 -0.48159267981E+04 -0.33384085958E+04  0.65000000000E+04  0.10000000000E+01 0.  0.
</event>
<event>
 4    1  0.2193160E-006  0.1300000E+05  0.7957747E-01  0.1322471E+00
    9000001   -1    0    0    0    0  0.00000000000E+00  0.00000000000E+00  0.64999999231E+04  0.65000000000E+04  0.10000000000E+01 0.  0.
    9000001   -1    0    0    0    0 -0.00000000000E+00 -0.00000000000E+00 -0.64999999231E+04  0.65000000000E+04  0.10000000000E+01 0.  0.
    9000001    1    1    2    0    0 -0.25941145898E+04  0.53757795467E+04 -0.25732397401E+04  0.65000000000E+04  0.10000000000E+01 0.  0.
    9000001    1    1    2    0    0  0.25941145898E+04 -0.53757795467E+04  0.25732397401E+04  0.65000000000E+04  0.10000000000E+01 0.  0.
</event>
<event>
 4    1  0.2193160E-006  0.1300000E+05  0.7957747E-01  0.1322471E+00
    9000001   -1    0    0    0    0  0.00000000000E+00  0.00000000000E+00  0.64999999231E+04  0.65000000000E+04  0.10000000000E+01 0.  0.
    9000001   -1    0    0    0    0 -0.00000000000E+00 -0.00000000000E+00 -0.64999999231E+04  0.65000000000E+04  0.10000000000E+01 0.  0.
    9000001    1    1    2    0    0 -0.36335457453E+04  0.29819980675E+04  0.44894355818E+04  0.65000000000E+04  0.10000000000E+01 0.  0.
    9000001    1    1    2    0    0  0.36335457453E+04 -0.29819980675E+04 -0.44894355818E+04  0.65000000000E+04  0.10000000000E+01 0.  0.
</event>
<event>
 4    1  0.2193160E-006  0.1300000E+05  0.7957747E-01  0.1322471E+00
    9000001   -1    0    0    0    0  0.00000000000E+00  0.00000000000E+00  0.64999999231E+04  0.65000000000E+04  0.10000000000E+01 0.  0.
    9000001   -1    0    0    0    0 -0.00000000000E+00 -0.00000000000E+00 -0.64999999231E+04  0.65000000000E+04  0.10000000000E+01 0.  0.
    9000001    1    1    2    0    0  0.51971498332E+04  0.21967450193E+03  0.38976115410E+04  0.65000000000E+04  0.10000000000E+01 0.  0.
    9000001    1    1    2    0    0 -0.51971498332E+04 -0.21967450193E+03 -0.38976115410E+04  0.65000000000E+04  0.10000000000E+01 0.  0.
</event>
<event>
 4    1  0.2193160E-006  0.1300000E+05  0.7957747E-01  0.1322471E+00
    9000001   -1    0    0    0    0  0.00000000000E+00  0.00000000000E+00  0.64999999231E+04  0.65000000000E+04  0.10000000000E+01 0.  0.
    9000001   -1    0    0    0    0 -0.00000000000E+00 -0.00000000000E+00 -0.64999999231E+04  0.65000000000E+04  0.10000000000E+01 0.  0.
    9000001    1    1    2    0    0 -0.47970979790E+03 -0.38460433893E+04  0.52180291066E+04  0.65000000000E+04  0.10000000000E+01 0.  0.
    9000001    1    1    2    0    0  0.47970979790E+03  0.38460433893E+04 -0.52180291066E+04  0.65000000000E+04  0.10000000000E+01 0.  0.
</event>
<event>
 4    1  0.2193160E-006  0.1300000E+05  0.7957747E-01  0.1322471E+00
    9000001   -1    0    0    0    0  0.00000000000E+00  0.00000000000E+00  0.64999999231E+04  0.65000000000E+04  0.10000000000E+01 0.  0.
    9000001   -1    0    0    0    0 -0.00000000000E+00 -0.00000000000E+00 -0.64999999231E+04  0.65000000000E+04  0.10000000000E+01 0.  0.
    9000001    1    1    2    0    0 -0.66603959456E+03  0.64061442384E+04  0.87618848177E+03  0.65000000000E+04  0.10000000000E+01 0.  0.
    9000001    1    1    2    0    0  0.66603959456E+03 -0.64061442384E+04 -0.87618848177E+03  0.65000000000E+04  0.10000000000E+01 0.  0.
</event>
<event>
 4    1  0.2193160E-006  0.1300000E+05  0.7957747E-01  0.1322471E+00
    9000001   -1    0    0    0    0  0.00000000000E+00  0.00000000000E+00  0.64999999231E+04  0.65000000000E+04  0.10000000000E+01 0.  0.
    9000001   -1    0    0    0    0 -0.00000000000E+00 -0.00000000000E+00 -0.64999999231E+04  0.65000000000E+04  0.10000000000E+01 0.  0.
    9000001    1    1    2    0    0  0.64001497067E+04  0.90184055628E+03  0.68903290421E+03  0.65000000000E+04  0.10000000000E+01 0.  0.
    9000001    1    1    2    0    0 -0.64001497067E+04 -0.90184055628E+03 -0.68903290421E+03  0.65000000000E+04  0.10000000000E+01 0.  0.
</event>
<event>
 4    1  0.2193160E-006  0.1300000E+05  0.7957747E-01  0.1322471E+00
    9000001   -1    0    0    0    0  0.00000000000E+00  0.00000000000E+00  0.64999999231E+04  0.65000000000E+04  0.10000000000E+01 0.  0.
    9000001   -1    0    0    0    0 -0.00000000000E+00 -0.00000000000E+00 -0.64999999231E+04  0.65000000000E+04  0.10000000000E+01 0.  0.
    9000001    1    1    2    0    0 -0.31637531662E+04  0.41233296094E+04  0.39036928460E+04  0.65000000000E+04  0.10000000000E+01 0.  0.
    9000001    1    1    2    0    0  0.31637531662E+04 -0.41233296094E+04 -0.39036928460E+04  0.65000000000E+04  0.10000000000E+01 0.  0.
</event>
<event>
 4    1  0.2193160E-006  0.1300000E+05  0.7957747E-01  0.1322471E+00
    9000001   -1    0    0    0    0  0.00000000000E+00  0.00000000000E+00  0.64999999231E+04  0.65000000000E+04  0.10000000000E+01 0.  0.
    9000001   -1    0    0    0    0 -0.00000000000E+00 -0.00000000000E+00 -0.64999999231E+04  0.65000000000E+04  0.10000000000E+01 0.  0.
    9000001    1    1    2    0    0  0.57310875528E+04  0.29628987558E+04  0.79111656867E+03  0.65000000000E+04  0.10000000000E+01 0.  0.
    9000001    1    1    2    0    0 -0.57310875528E+04 -0.29628987558E+04 -0.79111656867E+03  0.65000000000E+04  0.10000000000E+01 0.  0.
</event>
<event>
 4    1  0.2193160E-006  0.1300000E+05  0.7957747E-01  0.1322471E+00
    9000001   -1    0    0    0    0  0.00000000000E+00  0.00000000000E+00  0.64999999231E+04  0.65000000000E+04  0.10000000000E+01 0.  0.
    9000001   -1    0    0    0    0 -0.00000000000E+00 -0.00000000000E+00 -0.64999999231E+04  0.65000000000E+04  0.10000000000E+01 0.  0.
    9000001    1    1    2    0    0 -0.45015865497E+04 -0.46783100636E+04  0.31485311569E+03  0.65000000000E+04  0.10000000000E+01 0.  0.
    9000001    1    1    2    0    0  0.45015865497E+04  0.46783100636E+04 -0.31485311569E+03  0.65000000000E+04  0.10000000000E+01 0.  0.
</event>
<event>
 4    1  0.2193160E-006  0.1300000E+05  0.7957747E-01  0.1322471E+00
    9000001   -1    0    0    0    0  0.00000000000E+00  0.00000000000E+00  0.64999999231E+04  0.65000000000E+04  0.10000000000E+01 0.  0.
    9000001   -1    0    0    0    0 -0.00000000000E+00 -0.00000000000E+00 -0.64999999231E+04  0.65000000000E+04  0.10000000000E+01 0.  0.
    9000001    1    1    2    0    0  0.61309527709E+04 -0.21500199388E+04  0.19705680395E+03  0.65000000000E+04  0.10000000000E+01 0.  0.
    9000001    1    1    2    0    0 -0.61309527709E+04  0.21500199388E+04 -0.19705680395E+03  0.65000000000E+04  0.10000000000E+01 0.  0.
</event>
<event>
 4    1  0.2193160E-006  0.1300000E+05  0.7957747E-01  0.1322471E+00
    9000001   -1    0    0    0    0  0.00000000000E+00  0.00000000000E+00  0.64999999231E+04  0.65000000000E+04  0.10000000000E+01 0.  0.
    9000001   -1    0    0    0    0 -0.00000000000E+00 -0.00000000000E+00 -0.64999999231E+04  0.65000000000E+04  0.10000000000E+01 0.  0.
    9000001    1    1    2    0    0  0.43468909087E+03 -0.25548050319E+04  0.59610414898E+04  0.65000000000E+04  0.10000000000E+01 0.  0.
    9000001    1    1    2    0    0 -0.43468909087E+03  0.25548050319E+04 -0.59610414898E+04  0.65000000000E+04  0.10000000000E+01 0.  0.
</event>
<event>
 4    1  0.2193160E-006  0.1300000E+05  0.7957747E-01  0.1322471E+00
    9000001   -1    0    0    0    0  0.00000000000E+00  0.00000000000E+00  0.64999999231E+04  0.65000000000E+04  0.10000000000E+01 0.  0.
    9000001   -1    0    0    0    0 -0.00000000000E+00 -0.00000000000E+00 -0.64999999231E+04  0.65000000000E+04  0.10000000000E+01 0.  0.
    9000001    1    1    2    0    0 -0.63150466639E+04 -0.98026209629E+02 -0.15364164457E+04  0.65000000000E+04  0.10000000000E+01 0.  0.
    9000001    1    1    2    0    0  0.63150466639E+04  0.98026209629E+02  0.15364164457E+04  0.65000000000E+04  0.10000000000E+01 0.  0.
</event>
<event>
 4    1  0.2193160E-006  0.1300000E+05  0.7957747E-01  0.1322471E+00
    9000001   -1    0    0    0    0  0.00000000000E+00  0.00000000000E+00  0.64999999231E+04  0.65000000000E+04  0.10000000000E+01 0.  0.
    9000001   -1    0    0    0    0 -0.00000000000E+00 -0.00000000000E+00 -0.64999999231E+04  0.65000000000E+04  0.10000000000E+01 0.  0.
    9000001    1    1    2    0    0 -0.44125208444E+04 -0.31879550602E+04  0.35519855478E+04  0.65000000000E+04  0.10000000000E+01 0.  0.
    9000001    1    1    2    0    0  0.44125208444E+04  0.31879550602E+04 -0.35519855478E+04  0.65000000000E+04  0.10000000000E+01 0.  0.
</event>
<event>
 4    1  0.2193160E-006  0.1300000E+05  0.7957747E-01  0.1322471E+00
    9000001   -1    0    0    0    0  0.00000000000E+00  0.00000000000E+00  0.64999999231E+04  0.65000000000E+04  0.10000000000E+01 0.  0.
    9000001   -1    0    0    0    0 -0.00000000000E+00 -0.00000000000E+00 -0.64999999231E+04  0.65000000000E+04  0.10000000000E+01 0.  0.
    9000001    1    1    2    0    0  0.81249827381E+02 -0.85729074228E+03  0.64427051810E+04  0.65000000000E+04  0.10000000000E+01 0.  0.
    9000001    1    1    2    0    0 -0.81249827381E+02  0.85729074228E+03 -0.64427051810E+04  0.65000000000E+04  0.10000000000E+01 0.  0.
</event>
<event>
 4    1  0.2193160E-006  0.1300000E+05  0.7957747E-01  0.1322471E+00
    9000001   -1    0    0    0    0  0.00000000000E+00  0.00000000000E+00  0.64999999231E+04  0.65000000000E+04  0.10000000000E+01 0.  0.
    9000001   -1    0    0    0    0 -0.00000000000E+00 -0.00000000000E+00 -0.64999999231E+04  0.65000000000E+04  0.10000000000E+01 0.  0.
    9000001    1    1    2    0    0 -0.29912092340E+04  0.38555050608E+04  0.42939197762E+04  0.65000000000E+04  0.10000000000E+01 0.  0.
    9000001    1    1    2    0    0  0.29912092340E+04 -0.38555050608E+04 -0.42939197762E+04  0.65000000000E+04  0.10000000000E+01 0.  0.
</event>
<event>
 4    1  0.2193160E-006  0.1300000E+05  0.7957747E-01  0.1322471E+00
    9000001   -1    0    0    0    0  0.00000000000E+00  0.00000000000E+00  0.64999999231E+04  0.65000000000E+04  0.10000000000E+01 0.  0.
    9000001   -1    0    0    0    0 -0.00000000000E+00 -0.00000000000E+00 -0.64999999231E+04  0.65000000000E+04  0.10000000000E+01 0.  0.
    9000001    1    1    2    0    0  0.22172852718E+04 -0.28259583023E+03 -0.61035878482E+04  0.65000000000E+04  0.10000000000E+01 0.  0.
    9000001    1    1    2    0    0 -0.22172852718E+04  0.28259583023E+03  0.61035878482E+04  0.65000000000E+04  0.10000000000E+01 0.  0.
</event>
<event>
 4    1  0.2193160E-006  0.1300000E+05  0.7957747E-01  0.1322471E+00
    9000001   -1    0    0    0    0  0.00000000000E+00  0.00000000000E+00  0.64999999231E+04  0.65000000000E+04  0.10000000000E+01 0.  0.
    9000001   -1    0    0    0    0 -0.00000000000E+00 -0.00000000000E+00 -0.64999999231E+04  0.65000000000E+04  0.10000000000E+01 0.  0.
    9000001    1    1    2    0    0  0.63269675943E+04  0.40595855881E+03  0.14334147023E+04  0.65000000000E+04  0.10000000000E+01 0.  0.
    9000001    1    1    2    0    0 -0.63269675943E+04 -0.40595855881E+03 -0.14334147023E+04  0.65000000000E+04  0.10000000000E+01 0.  0.
</event>
<event>
 4    1  0.2193160E-006  0.1300000E+05  0.7957747E-01  0.1322471E+00
    9000001   -1    0    0    0    0  0.00000000000E+00  0.00000000000E+00  0.64999999231E+04  0.65000000000E+04  0.10000000000E+01 0.  0.
    9000001   -1    0    0    0    0 -0.00000000000E+00 -0.00000000000E+00 -0.64999999231E+04  0.65000000000E+04  0.10000000000E+01 0.  0.
    9000001    1    1    2    0    0 -0.47920192030E+04  0.19790652152E+04 -0.39204402599E+04  0.65000000000E+04  0.10000000000E+01 0.  0.
    9000001    1    1    2    0    0  0.47920192030E+04 -0.19790652152E+04  0.39204402599E+04  0.65000000000E+04  0.10000000000E+01 0.  0.
</event>
<event>
 4    1  0.2193160E-006  0.1300000E+05  0.7957747E-01  0.1322471E+00
    9000001   -1    0    0    0    0  0.00000000000E+00  0.00000000000E+00  0.64999999231E+04  0.65000000000E+04  0.10000000000E+01 0.  0.
    9000001   -1    0    0    0    0 -0.00000000000E+00 -0.00000000000E+00 -0.64999999231E+04  0.65000000000E+04  0.10000000000E+01 0.  0.
    9000001    1    1    2    0    0  0.59977739101E+04 -0.15578653520E+04 -0.19620812083E+04  0.65000000000E+04  0.10000000000E+01 0.  0.
    9000001    1    1    2    0    0 -0.59977739101E+04  0.15578653520E+04  0.19620812083E+04  0.65000000000E+04  0.10000000000E+01 0.  0.
</event>
<event>
 4    1  0.2193160E-006  0.1300000E+05  0.7957747E-01  0.1322471E+00
    9000001   -1    0    0    0    0  0.00000000000E+00  0.00000000000E+00  0.64999999231E+04  0.65000000000E+04  0.10000000000E+01 0.  0.
    9000001   -1    0    0    0    0 -0.00000000000E+00 -0.00000000000E+00 -0.64999999231E+04  0.65000000000E+04  0.10000000000E+01 0.  0.
    9000001    1    1    2    0    0 -0.47012138013E+04 -0.41239017387E+04  0.17725750319E+04  0.65000000000E+04  0.10000000000E+01 0.  0.
    9000001    1    1    2    0    0  0.47012138013E+04  0.41239017387E+04 -0.17725750319E+04  0.65000000000E+04  0.10000000000E+01 0.  0.
</event>
<event>
 4    1  0.2193160E-006  0.1300000E+05  0.7957747E-01  0.1322471E+00
    9000001   -1    0    0    0    0  0.00000000000E+00  0.00000000000E+00  0.64999999231E+04  0.65000000000E+04  0.10000000000E+01 0.  0.
    9000001   -1    0    0    0    0 -0.00000000000E+00 -0.00000000000E+00 -0.64999999231E+04  0.65000000000E+04  0.10000000000E+01 0.  0.
    9000001    1    1    2    0    0 -0.21478214859E+04 -0.29752970019E+04  0.53651159927E+04  0.65000000000E+04  0.10000000000E+01 0.  0.
    9000001    1    1    2    0    0  0.21478214859E+04  0.29752970019E+04 -0.53651159927E+04  0.65000000000E+04  0.10000000000E+01 0.  0.
</event>
<event>
 4    1  0.2193160E-006  0.1300000E+05  0.7957747E-01  0.1322471E+00
    9000001   -1    0    0    0    0  0.00000000000E+00  0.00000000000E+00  0.64999999231E+04  0.65000000000E+04  0.10000000000E+01 0.  0.
    9000001   -1    0    0    0    0 -0.00000000000E+00 -0.00000000000E+00 -0.64999999231E+04  0.65000000000E+04  0.10000000000E+01 0.  0.
    9000001    1    1    2    0    0  0.30989586280E+04 -0.56587740348E+04  0.79039916836E+03  0.65000000000E+04  0.10000000000E+01 0.  0.
    9000001    1    1    2    0    0 -0.30989586280E+04  0.56587740348E+04 -0.79039916836E+03  0.65000000000E+04  0.10000000000E+01 0.  0.
</event>
<event>
 4    1  0.2193160E-006  0.1300000E+05  0.7957747E-01  0.1322471E+00
    9000001   -1    0    0    0    0  0.00000000000E+00  0.00000000000E+00  0.64999999231E+04  0.65000000000E+04  0.10000000000E+01 0.  0.
    9000001   -1    0    0    0    0 -0.00000000000E+00 -0.00000000000E+00 -0.64999999231E+04  0.65000000000E+04  0.10000000000E+01 0.  0.
    9000001    1    1    2    0    0 -0.42279535195E+04  0.33470295960E+04  0.36292975794E+04  0.65000000000E+04  0.10000000000E+01 0.  0.
    9000001    1    1    2    0    0  0.42279535195E+04 -0.33470295960E+04 -0.36292975794E+04  0.65000000000E+04  0.10000000000E+01 0.  0.
</event>
<event>
 4    1  0.2193160E-006  0.1300000E+05  0.7957747E-01  0.1322471E+00
    9000001   -1    0    0    0    0  0.00000000000E+00  0.00000000000E+00  0.64999999231E+04  0.65000000000E+04  0.10000000000E+01 0.  0.
    9000001   -1    0    0    0    0 -0.00000000000E+00 -0.00000000000E+00 -0.64999999231E+04  0.65000000000E+04  0.10000000000E+01 0.  0.
    9000001    1    1    2    0    0 -0.86939587059E+03  0.36323589234E+04  0.53197855663E+04  0.65000000000E+04  0.10000000000E+01 0.  0.
    9000001    1    1    2    0    0  0.86939587059E+03 -0.36323589234E+04 -0.53197855663E+04  0.65000000000E+04  0.10000000000E+01 0.  0.
</event>
<event>
 4    1  0.2193160E-006  0.1300000E+05  0.7957747E-01  0.1322471E+00
    9000001   -1    0    0    0    0  0.00000000000E+00  0.00000000000E+00  0.64999999231E+04  0.65000000000E+04  0.10000000000E+01 0.  0.
    9000001   -1    0    0    0    0 -0.00000000000E+00 -0.00000000000E+00 -0.64999999231E+04  0.65000000000E+04  0.10000000000E+01 0.  0.
    9000001    1    1    2    0    0 -0.34843318975E+04  0.52506753623E+03 -0.54620265754E+04  0.65000000000E+04  0.10000000000E+01 0.  0.
    9000001    1    1    2    0    0  0.34843318975E+04 -0.52506753623E+03  0.54620265754E+04  0.65000000000E+04  0.10000000000E+01 0.  0.
</event>
<event>
 4    1  0.2193160E-006  0.1300000E+05  0.7957747E-01  0.1322471E+00
    9000001   -1    0    0    0    0  0.00000000000E+00  0.00000000000E+00  0.64999999231E+04  0.65000000000E+04  0.10000000000E+01 0.  0.
    9000001   -1    0    0    0    0 -0.00000000000E+00 -0.00000000000E+00 -0.64999999231E+04  0.65000000000E+04  0.10000000000E+01 0.  0.
    9000001    1    1    2    0    0 -0.19432374025E+04 -0.48819940555E+04  0.38262202550E+04  0.65000000000E+04  0.10000000000E+01 0.  0.
    9000001    1    1    2    0    0  0.19432374025E+04  0.48819940555E+04 -0.38262202550E+04  0.65000000000E+04  0.10000000000E+01 0.  0.
</event>
<event>
 4    1  0.2193160E-006  0.1300000E+05  0.7957747E-01  0.1322471E+00
    9000001   -1    0    0    0    0  0.00000000000E+00  0.00000000000E+00  0.64999999231E+04  0.65000000000E+04  0.10000000000E+01 0.  0.
    9000001   -1    0    0    0    0 -0.00000000000E+00 -0.00000000000E+00 -0.64999999231E+04  0.65000000000E+04  0.10000000000E+01 0.  0.
    9000001    1    1    2    0    0 -0.40643105181E+04 -0.21713383546E+04 -0.45843940452E+04  0.65000000000E+04  0.10000000000E+01 0.  0.
    9000001    1    1    2    0    0  0.40643105181E+04  0.21713383546E+04  0.45843940452E+04  0.65000000000E+04  0.10000000000E+01 0.  0.
</event>
<event>
 4    1  0.2193160E-006  0.1300000E+05  0.7957747E-01  0.1322471E+00
    9000001   -1    0    0    0    0  0.00000000000E+00  0.00000000000E+00  0.64999999231E+04  0.65000000000E+04  0.10000000000E+01 0.  0.
    9000001   -1    0    0    0    0 -0.00000000000E+00 -0.00000000000E+00 -0.64999999231E+04  0.65000000000E+04  0.10000000000E+01 0.  0.
    9000001    1    1    2    0    0  0.47321921964E+04 -0.11142877910E+04  0.43144778056E+04  0.65000000000E+04  0.10000000000E+01 0.  0.
    9000001    1    1    2    0    0 -0.47321921964E+04  0.11142877910E+04 -0.43144778056E+04  0.65000000000E+04  0.10000000000E+01 0.  0.
</event>
<event>
 4    1  0.2193160E-006  0.1300000E+05  0.7957747E-01  0.1322471E+00
    9000001   -1    0    0    0    0  0.00000000000E+00  0.00000000000E+00  0.64999999231E+04  0.65000000000E+04  0.10000000000E+01 0.  0.
    9000001   -1    0    0    0    0 -0.00000000000E+00 -0.00000000000E+00 -0.64999999231E+04  0.65000000000E+04  0.10000000000E+01 0.  0.
    9000001    1    1    2    0    0  0.49023661840E+04 -0.10392164809E+04  0.41396659169E+04  0.65000000000E+04  0.10000000000E+01 0.  0.
    9000001    1    1    2    0    0 -0.49023661840E+04  0.10392164809E+04 -0.41396659169E+04  0.65000000000E+04  0.10000000000E+01 0.  0.
</event>
<event>
 4    1  0.2193160E-006  0.1300000E+05  0.7957747E-01  0.1322471E+00
    9000001   -1    0    0    0    0  0.00000000000E+00  0.00000000000E+00  0.64999999231E+04  0.65000000000E+04  0.10000000000E+01 0.  0.
    9000001   -1    0    0    0    0 -0.00000000000E+00 -0.00000000000E+00 -0.64999999231E+04  0.65000000000E+04  0.10000000000E+01 0.  0.
    9000001    1    1    2    0    0 -0.56166966499E+04 -0.24220450132E+03  0.32625227544E+04  0.65000000000E+04  0.10000000000E+01 0.  0.
    9000001    1    1    2    0    0  0.56166966499E+04  0.24220450132E+03 -0.32625227544E+04  0.65000000000E+04  0.10000000000E+01 0.  0.
</event>
<event>
 4    1  0.2193160E-006  0.1300000E+05  0.7957747E-01  0.1322471E+00
    9000001   -1    0    0    0    0  0.00000000000E+00  0.00000000000E+00  0.64999999231E+04  0.65000000000E+04  0.10000000000E+01 0.  0.
    9000001   -1    0    0    0    0 -0.00000000000E+00 -0.00000000000E+00 -0.64999999231E+04  0.65000000000E+04  0.10000000000E+01 0.  0.
    9000001    1    1    2    0    0  0.59736096861E+04 -0.25620157845E+04 -0.45403071263E+02  0.65000000000E+04  0.10000000000E+01 0.  0.
    9000001    1    1    2    0    0 -0.59736096861E+04  0.25620157845E+04  0.45403071263E+02  0.65000000000E+04  0.10000000000E+01 0.  0.
</event>
<event>
 4    1  0.2193160E-006  0.1300000E+05  0.7957747E-01  0.1322471E+00
    9000001   -1    0    0    0    0  0.00000000000E+00  0.00000000000E+00  0.64999999231E+04  0.65000000000E+04  0.10000000000E+01 0.  0.
    9000001   -1    0    0    0    0 -0.00000000000E+00 -0.00000000000E+00 -0.64999999231E+04  0.65000000000E+04  0.10000000000E+01 0.  0.
    9000001    1    1    2    0    0  0.58911818857E+04 -0.16771823455E+04 -0.21750941058E+04  0.65000000000E+04  0.10000000000E+01 0.  0.
    9000001    1    1    2    0    0 -0.58911818857E+04  0.16771823455E+04  0.21750941058E+04  0.65000000000E+04  0.10000000000E+01 0.  0.
</event>
<event>
 4    1  0.2193160E-006  0.1300000E+05  0.7957747E-01  0.1322471E+00
    9000001   -1    0    0    0    0  0.00000000000E+00  0.00000000000E+00  0.64999999231E+04  0.65000000000E+04  0.10000000000E+01 0.  0.
    9000001   -1    0    0    0    0 -0.00000000000E+00 -0.00000000000E+00 -0.64999999231E+04  0.65000000000E+04  0.10000000000E+01 0.  0.
    9000001    1    1    2    0    0  0.54457638986E+04 -0.34040556243E+04  0.10030253571E+04  0.65000000000E+04  0.10000000000E+01 0.  0.
    9000001    1    1    2    0    0 -0.54457638986E+04  0.34040556243E+04 -0.10030253571E+04  0.65000000000E+04  0.10000000000E+01 0.  0.
</event>
<event>
 4    1  0.2193160E-006  0.1300000E+05  0.7957747E-01  0.1322471E+00
    9000001   -1    0    0    0    0  0.00000000000E+00  0.00000000000E+00  0.64999999231E+04  0.65000000000E+04  0.10000000000E+01 0.  0.
    9000001   -1    0    0    0    0 -0.00000000000E+00 -0.00000000000E+00 -0.64999999231E+04  0.65000000000E+04  0.10000000000E+01 0.  0.
    9000001    1    1    2    0    0  0.23040041564E+04 -0.58063413624E+04 -0.17966535087E+04  0.65000000000E+04  0.10000000000E+01 0.  0.
    9000001    1    1    2    0    0 -0.23040041564E+04  0.58063413624E+04  0.17966535087E+04  0.65000000000E+04  0.10000000000E+01 0.  0.
</event>
<event>
 4    1  0.2193160E-006  0.1300000E+05  0.7957747E-01  0.1322471E+00
    9000001   -1    0    0    0    0  0.00000000000E+00  0.00000000000E+00  0.64999999231E+04  0.65000000000E+04  0.10000000000E+01 0.  0.
    9000001   -1    0    0    0    0 -0.00000000000E+00 -0.00000000000E+00 -0.64999999231E+04  0.65000000000E+04  0.10000000000E+01 0.  0.
    9000001    1    1    2    0    0  0.54872271684E+04 -0.32774206797E+04  0.11827301854E+04  0.65000000000E+04  0.10000000000E+01 0.  0.
    9000001    1    1    2    0    0 -0.54872271684E+04  0.32774206797E+04 -0.11827301854E+04  0.65000000000E+04  0.10000000000E+01 0.  0.
</event>
<event>
 4    1  0.2193160E-006  0.1300000E+05  0.7957747E-01  0.1322471E+00
    9000001   -1    0    0    0    0  0.00000000000E+00  0.00000000000E+00  0.64999999231E+04  0.65000000000E+04  0.10000000000E+01 0.  0.
    9000001   -1    0    0    0    0 -0.00000000000E+00 -0.00000000000E+00 -0.64999999231E+04  0.65000000000E+04  0.10000000000E+01 0.  0.
    9000001    1    1    2    0    0 -0.17923993702E+04 -0.51783654824E+02 -0.62477693580E+04  0.65000000000E+04  0.10000000000E+01 0.  0.
    9000001    1    1    2    0    0  0.17923993702E+04  0.51783654824E+02  0.62477693580E+04  0.65000000000E+04  0.10000000000E+01 0.  0.
</event>
<event>
 4    1  0.2193160E-006  0.1300000E+05  0.7957747E-01  0.1322471E+00
    9000001   -1    0    0    0    0  0.00000000000E+00  0.00000000000E+00  0.64999999231E+04  0.65000000000E+04  0.10000000000E+01 0.  0.
    9000001   -1    0    0    0    0 -0.00000000000E+00 -0.00000000000E+00 -0.64999999231E+04  0.65000000000E+04  0.10000000000E+01 0.  0.
    9000001    1    1    2    0    0 -0.40445949860E+04  0.10222593568E+04  0.49845999044E+04  0.65000000000E+04  0.10000000000E+01 0.  0.
    9000001    1    1    2    0    0  0.40445949860E+04 -0.10222593568E+04 -0.49845999044E+04  0.65000000000E+04  0.10000000000E+01 0.  0.
</event>
<event>
 4    1  0.2193160E-006  0.1300000E+05  0.7957747E-01  0.1322471E+00
    9000001   -1    0    0    0    0  0.00000000000E+00  0.00000000000E+00  0.64999999231E+04  0.65000000000E+04  0.10000000000E+01 0.  0.
    9000001   -1    0    0    0    0 -0.00000000000E+00 -0.00000000000E+00 -0.64999999231E+04  0.65000000000E+04  0.10000000000E+01 0.  0.
    9000001    1    1    2    0    0  0.28303184092E+04  0.33902581808E+04  0.47692186122E+04  0.65000000000E+04  0.10000000000E+01 0.  0.
    9000001    1    1    2    0    0 -0.28303184092E+04 -0.33902581808E+04 -0.47692186122E+04  0.65000000000E+04  0.10000000000E+01 0.  0.
</event>
<event>
 4    1  0.2193160E-006  0.1300000E+05  0.7957747E-01  0.1322471E+00
    9000001   -1    0    0    0    0  0.00000000000E+00  0.00000000000E+00  0.64999999231E+04  0.65000000000E+04  0.10000000000E+01 0.  0.
    9000001   -1    0    0    0    0 -0.00000000000E+00 -0.00000000000E+00 -0.64999999231E+04  0.65000000000E+04  0.10000000000E+01 0.  0.
    9000001    1    1    2    0    0  0.60750035320E+04  0.59564937218E+03  0.22337262393E+04  0.65000000000E+04  0.10000000000E+01 0.  0.
    9000001    1    1    2    0    0 -0.60750035320E+04 -0.59564937218E+03 -0.22337262393E+04  0.65000000000E+04  0.10000000000E+01 0.  0.
</event>
<event>
 4    1  0.2193160E-006  0.1300000E+05  0.7957747E-01  0.1322471E+00
    9000001   -1    0    0    0    0  0.00000000000E+00  0.00000000000E+00  0.64999999231E+04  0.65000000000E+04  0.10000000000E+01 0.  0.
    9000001   -1    0    0    0    0 -0.00000000000E+00 -0.00000000000E+00 -0.64999999231E+04  0.65000000000E+04  0.10000000000E+01 0.  0.
    9000001    1    1    2    0    0  0.47027283256E+04  0.37729244915E+04 -0.24288651829E+04  0.65000000000E+04  0.10000000000E+01 0.  0.
    9000001    1    1    2    0    0 -0.47027283256E+04 -0.37729244915E+04  0.24288651829E+04  0.65000000000E+04  0.10000000000E+01 0.  0.
</event>
<event>
 4    1  0.2193160E-006  0.1300000E+05  0.7957747E-01  0.1322471E+00
    9000001   -1    0    0    0    0  0.00000000000E+00  0.00000000000E+00  0.64999999231E+04  0.65000000000E+04  0.10000000000E+01 0.  0.
    9000001   -1    0    0    0    0 -0.00000000000E+00 -0.00000000000E+00 -0.64999999231E+04  0.65000000000E+04  0.10000000000E+01 0.  0.
    9000001    1    1    2    0    0 -0.85001088654E+03 -0.51109556610E+04 -0.39249984362E+04  0.65000000000E+04  0.10000000000E+01 0.  0.
    9000001    1    1    2    0    0  0.85001088654E+03  0.51109556610E+04  0.39249984362E+04  0.65000000000E+04  0.10000000000E+01 0.  0.
</event>
<event>
 4    1  0.2193160E-006  0.1300000E+05  0.7957747E-01  0.1322471E+00
    9000001   -1    0    0    0    0  0.00000000000E+00  0.00000000000E+00  0.64999999231E+04  0.65000000000E+04  0.10000000000E+01 0.  0.
    9000001   -1    0    0    0    0 -0.00000000000E+00 -0.00000000000E+00 -0.64999999231E+04  0.65000000000E+04  0.10000000000E+01 0.  0.
    9000001    1    1    2    0    0  0.42990377777E+04 -0.11609953173E+04 -0.47350145786E+04  0.65000000000E+04  0.10000000000E+01 0.  0.
    9000001    1    1    2    0    0 -0.42990377777E+04  0.11609953173E+04  0.47350145786E+04  0.65000000000E+04  0.10000000000E+01 0.  0.
</event>
<event>
 4    1  0.2193160E-006  0.1300000E+05  0.7957747E-01  0.1322471E+00
    9000001   -1    0    0    0    0  0.00000000000E+00  0.00000000000E+00  0.64999999231E+04  0.65000000000E+04  0.10000000000E+01 0.  0.
    9000001   -1    0    0    0    0 -0.00000000000E+00 -0.00000000000E+00 -0.64999999231E+04  0.65000000000E+04  0.10000000000E+01 0.  0.
    9000001    1    1    2    0    0 -0.77087562590E+03  0.49596038870E+04  0.41301427401E+04  0.65000000000E+04  0.10000000000E+01 0.  0.
    9000001    1    1    2    0    0  0.77087562590E+03 -0.49596038870E+04 -0.41301427401E+04  0.65000000000E+04  0.10000000000E+01 0.  0.
</event>
<event>
 4    1  0.2193160E-006  0.1300000E+05  0.7957747E-01  0.1322471E+00
    9000001   -1    0    0    0    0  0.00000000000E+00  0.00000000000E+00  0.64999999231E+04  0.65000000000E+04  0.10000000000E+01 0.  0.
    9000001   -1    0    0    0    0 -0.00000000000E+00 -0.00000000000E+00 -0.64999999231E+04  0.65000000000E+04  0.10000000000E+01 0.  0.
    9000001    1    1    2    0    0  0.19306266371E+04 -0.61947355935E+04 -0.38461762176E+03  0.65000000000E+04  0.10000000000E+01 0.  0.
    9000001    1    1    2    0    0 -0.19306266371E+04  0.61947355935E+04  0.38461762176E+03  0.65000000000E+04  0.10000000000E+01 0.  0.
</event>
<event>
 4    1  0.2193160E-006  0.1300000E+05  0.7957747E-01  0.1322471E+00
    9000001   -1    0    0    0    0  0.00000000000E+00  0.00000000000E+00  0.64999999231E+04  0.65000000000E+04  0.10000000000E+01 0.  0.
    9000001   -1    0    0    0    0 -0.00000000000E+00 -0.00000000000E+00 -0.64999999231E+04  0.65000000000E+04  0.10000000000E+01 0.  0.
    9000001    1    1    2    0    0 -0.63193779060E+04  0.29505750822E+03  0.14927836240E+04  0.65000000000E+04  0.10000000000E+01 0.  0.
    9000001    1    1    2    0    0  0.63193779060E+04 -0.29505750822E+03 -0.14927836240E+04  0.65000000000E+04  0.10000000000E+01 0.  0.
</event>
<event>
 4    1  0.2193160E-006  0.1300000E+05  0.7957747E-01  0.1322471E+00
    9000001   -1    0    0    0    0  0.00000000000E+00  0.00000000000E+00  0.64999999231E+04  0.65000000000E+04  0.10000000000E+01 0.  0.
    9000001   -1    0    0    0    0 -0.00000000000E+00 -0.00000000000E+00 -0.64999999231E+04  0.65000000000E+04  0.10000000000E+01 0.  0.
    9000001    1    1    2    0    0  0.33817886361E+03 -0.63304162759E+04 -0.14357798684E+04  0.65000000000E+04  0.10000000000E+01 0.  0.
    9000001    1    1    2    0    0 -0.33817886361E+03  0.63304162759E+04  0.14357798684E+04  0.65000000000E+04  0.10000000000E+01 0.  0.
</event>
<event>
 4    1  0.2193160E-006  0.1300000E+05  0.7957747E-01  0.1322471E+00
    9000001   -1    0    0    0    0  0.00000000000E+00  0.00000000000E+00  0.64999999231E+04  0.65000000000E+04  0.10000000000E+01 0.  0.
    9000001   -1    0    0    0    0 -0.00000000000E+00 -0.00000000000E+00 -0.64999999231E+04  0.65000000000E+04  0.10000000000E+01 0.  0.
    9000001    1    1    2    0    0  0.46327633964E+04  0.45201460036E+04  0.59647499479E+03  0.65000000000E+04  0.10000000000E+01 0.  0.
    9000001    1    1    2    0    0 -0.46327633964E+04 -0.45201460036E+04 -0.59647499479E+03  0.65000000000E+04  0.10000000000E+01 0.  0.
</event>
<event>
 4    1  0.2193160E-006  0.1300000E+05  0.7957747E-01  0.1322471E+00
    9000001   -1    0    0    0    0  0.00000000000E+00  0.00000000000E+00  0.64999999231E+04  0.65000000000E+04  0.10000000000E+01 0.  0.
    9000001   -1    0    0    0    0 -0.00000000000E+00 -0.00000000000E+00 -0.64999999231E+04  0.65000000000E+04  0.10000000000E+01 0.  0.
    9000001    1    1    2    0    0 -0.46824487337E+04 -0.19617519091E+04 -0.40590888515E+04  0.65000000000E+04  0.10000000000E+01 0.  0.
    9000001    1    1    2    0    0  0.46824487337E+04  0.19617519091E+04  0.40590888515E+04  0.65000000000E+04  0.10000000000E+01 0.  0.
</event>
<event>
 4    1  0.2193160E-006  0.1300000E+05  0.7957747E-01  0.1322471E+00
    9000001   -1    0    0    0    0  0.00000000000E+00  0.00000000000E+00  0.64999999231E+04  0.65000000000E+04  0.10000000000E+01 0.  0.
    9000001   -1    0    0    0    0 -0.00000000000E+00 -0.00000000000E+00 -0.64999999231E+04  0.65000000000E+04  0.10000000000E+01 0.  0.
    9000001    1    1    2    0    0 -0.20806903925E+04 -0.60877651436E+04  0.92727668317E+03  0.65000000000E+04  0.10000000000E+01 0.  0.
    9000001    1    1    2    0    0  0.20806903925E+04  0.60877651436E+04 -0.92727668317E+03  0.65000000000E+04  0.10000000000E+01 0.  0.
</event>
<event>
 4    1  0.2193160E-006  0.1300000E+05  0.7957747E-01  0.1322471E+00
    9000001   -1    0    0    0    0  0.00000000000E+00  0.00000000000E+00  0.64999999231E+04  0.65000000000E+04  0.10000000000E+01 0.  0.
    9000001   -1    0    0    0    0 -0.00000000000E+00 -0.00000000000E+00 -0.64999999231E+04  0.65000000000E+04  0.10000000000E+01 0.  0.
    9000001    1    1    2    0    0 -0.34773650804E+04 -0.53331978394E+04 -0.13095540857E+04  0.65000000000E+04  0.10000000000E+01 0.  0.
    9000001    1    1    2    0    0  0.34773650804E+04  0.53331978394E+04  0.13095540857E+04  0.65000000000E+04  0.10000000000E+01 0.  0.
</event>
<event>
 4    1  0.2193160E-006  0.1300000E+05  0.7957747E-01  0.1322471E+00
    9000001   -1    0    0    0    0  0.00000000000E+00  0.00000000000E+00  0.64999999231E+04  0.65000000000E+04  0.10000000000E+01 0.  0.
    9000001   -1    0    0    0    0 -0.00000000000E+00 -0.00000000000E+00 -0.64999999231E+04  0.65000000000E+04  0.10000000000E+01 0.  0.
    9000001    1    1    2    0    0 -0.14723085714E+04 -0.41317062579E+04 -0.47970105137E+04  0.65000000000E+04  0.10000000000E+01 0.  0.
    9000001    1    1    2    0    0  0.14723085714E+04  0.41317062579E+04  0.47970105137E+04  0.65000000000E+04  0.10000000000E+01 0.  0.
</event>
<event>
 4    1  0.2193160E-006  0.1300000E+05  0.7957747E-01  0.1322471E+00
    9000001   -1    0    0    0    0  0.00000000000E+00  0.00000000000E+00  0.64999999231E+04  0.65000000000E+04  0.10000000000E+01 0.  0.
    9000001   -1    0    0    0    0 -0.00000000000E+00 -0.00000000000E+00 -0.64999999231E+04  0.65000000000E+04  0.10000000000E+01 0.  0.
    9000001    1    1    2    0    0 -0.41092104276E+04 -0.24729444714E+04  0.43873607445E+04  0.65000000000E+04  0.10000000000E+01 0.  0.
    9000001    1    1    2    0    0  0.41092104276E+04  0.24729444714E+04 -0.43873607445E+04  0.65000000000E+04  0.10000000000E+01 0.  0.
</event>
<event>
 4    1  0.2193160E-006  0.1300000E+05  0.7957747E-01  0.1322471E+00
    9000001   -1    0    0    0    0  0.00000000000E+00  0.00000000000E+00  0.64999999231E+04  0.65000000000E+04  0.10000000000E+01 0.  0.
    9000001   -1    0    0    0    0 -0.00000000000E+00 -0.00000000000E+00 -0.64999999231E+04  0.65000000000E+04  0.10000000000E+01 0.  0.
    9000001    1    1    2    0    0 -0.15382526003E+04 -0.37956518545E+04 -0.50474552933E+04  0.65000000000E+04  0.10000000000E+01 0.  0.
    9000001    1    1    2    0    0  0.15382526003E+04  0.37956518545E+04  0.50474552933E+04  0.65000000000E+04  0.10000000000E+01 0.  0.
</event>
<event>
 4    1  0.2193160E-006  0.1300000E+05  0.7957747E-01  0.1322471E+00
    9000001   -1    0    0    0    0  0.00000000000E+00  0.00000000000E+00  0.64999999231E+04  0.65000000000E+04  0.10000000000E+01 0.  0.
    9000001   -1    0    0    0    0 -0.00000000000E+00 -0.00000000000E+00 -0.64999999231E+04  0.65000000000E+04  0.10000000000E+01 0.  0.
    9000001    1    1    2    0    0 -0.54162904320E+04 -0.35011900594E+04  0.80960800655E+03  0.65000000000E+04  0.10000000000E+01 0.  0.
    9000001    1    1    2    0    0  0.54162904320E+04  0.35011900594E+04 -0.80960800655E+03  0.65000000000E+04  0.10000000000E+01 0.  0.
</event>
<event>
 4    1  0.2193160E-006  0.1300000E+05  0.7957747E-01  0.1322471E+00
    9000001   -1    0    0    0    0  0.00000000000E+00  0.00000000000E+00  0.64999999231E+04  0.65000000000E+04  0.10000000000E+01 0.  0.
    9000001   -1    0    0    0    0 -0.00000000000E+00 -0.00000000000E+00 -0.64999999231E+04  0.65000000000E+04  0.10000000000E+01 0.  0.
    9000001    1    1    2    0    0 -0.26064707949E+04 -0.62832063654E+02  0.59541885364E+04  0.65000000000E+04  0.10000000000E+01 0.  0.
    9000001    1    1    2    0    0  0.26064707949E+04  0.62832063654E+02 -0.59541885364E+04  0.65000000000E+04  0.10000000000E+01 0.  0.
</event>
<event>
 4    1  0.2193160E-006  0.1300000E+05  0.7957747E-01  0.1322471E+00
    9000001   -1    0    0    0    0  0.00000000000E+00  0.00000000000E+00  0.64999999231E+04  0.65000000000E+04  0.10000000000E+01 0.  0.
    9000001   -1    0    0    0    0 -0.00000000000E+00 -0.00000000000E+00 -0.64999999231E+04  0.65000000000E+04  0.10000000000E+01 0.  0.
    9000001    1    1    2    0    0  0.98963077452E+02 -0.44959500592E+04 -0.46932545610E+04  0.65000000000E+04  0.10000000000E+01 0.  0.
    9000001    1    1    2    0    0 -0.98963077452E+02  0.44959500592E+04  0.46932545610E+04  0.65000000000E+04  0.10000000000E+01 0.  0.
</event>
<event>
 4    1  0.2193160E-006  0.1300000E+05  0.7957747E-01  0.1322471E+00
    9000001   -1    0    0    0    0  0.00000000000E+00  0.00000000000E+00  0.64999999231E+04  0.65000000000E+04  0.10000000000E+01 0.  0.
    9000001   -1    0    0    0    0 -0.00000000000E+00 -0.00000000000E+00 -0.64999999231E+04  0.65000000000E+04  0.10000000000E+01 0.  0.
    9000001    1    1    2    0    0 -0.41914974008E+04  0.33223910682E+04  0.36936521397E+04  0.65000000000E+04  0.10000000000E+01 0.  0.
    9000001    1    1    2    0    0  0.41914974008E+04 -0.33223910682E+04 -0.36936521397E+04  0.65000000000E+04  0.10000000000E+01 0.  0.
</event>
<event>
 4    1  0.2193160E-006  0.1300000E+05  0.7957747E-01  0.1322471E+00
    9000001   -1    0    0    0    0  0.00000000000E+00  0.00000000000E+00  0.64999999231E+04  0.65000000000E+04  0.10000000000E+01 0.  0.
    9000001   -1    0    0    0    0 -0.00000000000E+00 -0.00000000000E+00 -0.64999999231E+04  0.65000000000E+04  0.10000000000E+01 0.  0.
    9000001    1    1    2    0    0  0.61963067272E+04 -0.66353234980E+03  0.18481089694E+04  0.65000000000E+04  0.10000000000E+01 0.  0.
    9000001    1    1    2    0    0 -0.61963067272E+04  0.66353234980E+03 -0.18481089694E+04  0.65000000000E+04  0.10000000000E+01 0.  0.
</event>
<event>
 4    1  0.2193160E-006  0.1300000E+05  0.7957747E-01  0.1322471E+00
    9000001   -1    0    0    0    0  0.00000000000E+00  0.00000000000E+00  0.64999999231E+04  0.65000000000E+04  0.10000000000E+01 0.  0.
    9000001   -1    0    0    0    0 -0.00000000000E+00 -0.00000000000E+00 -0.64999999231E+04  0.65000000000E+04  0.10000000000E+01 0.  0.
    9000001    1    1    2    0    0 -0.56465302416E+04 -0.19856867868E+04 -0.25345104488E+04  0.65000000000E+04  0.10000000000E+01 0.  0.
    9000001    1    1    2    0    0  0.56465302416E+04  0.19856867868E+04  0.25345104488E+04  0.65000000000E+04  0.10000000000E+01 0.  0.
</event>
<event>
 4    1  0.2193160E-006  0.1300000E+05  0.7957747E-01  0.1322471E+00
    9000001   -1    0    0    0    0  0.00000000000E+00  0.00000000000E+00  0.64999999231E+04  0.65000000000E+04  0.10000000000E+01 0.  0.
    9000001   -1    0    0    0    0 -0.00000000000E+00 -0.00000000000E+00 -0.64999999231E+04  0.65000000000E+04  0.10000000000E+01 0.  0.
    9000001    1    1    2    0    0 -0.84971471356E+03 -0.41464661385E+04 -0.49330317725E+04  0.65000000000E+04  0.10000000000E+01 0.  0.
    9000001    1    1    2    0    0  0.84971471356E+03  0.41464661385E+04  0.49330317725E+04  0.65000000000E+04  0.10000000000E+01 0.  0.
</event>
<event>
 4    1  0.2193160E-006  0.1300000E+05  0.7957747E-01  0.1322471E+00
    9000001   -1    0    0    0    0  0.00000000000E+00  0.00000000000E+00  0.64999999231E+04  0.65000000000E+04  0.10000000000E+01 0.  0.
    9000001   -1    0    0    0    0 -0.00000000000E+00 -0.00000000000E+00 -0.64999999231E+04  0.65000000000E+04  0.10000000000E+01 0.  0.
    9000001    1    1    2    0    0  0.37367516991E+04  0.32755508401E+04 -0.41901613850E+04  0.65000000000E+04  0.10000000000E+01 0.  0.
    9000001    1    1    2    0    0 -0.37367516991E+04 -0.32755508401E+04  0.41901613850E+04  0.65000000000E+04  0.10000000000E+01 0.  0.
</event>
<event>
 4    1  0.2193160E-006  0.1300000E+05  0.7957747E-01  0.1322471E+00
    9000001   -1    0    0    0    0  0.00000000000E+00  0.00000000000E+00  0.64999999231E+04  0.65000000000E+04  0.10000000000E+01 0.  0.
    9000001   -1    0    0    0    0 -0.00000000000E+00 -0.00000000000E+00 -0.64999999231E+04  0.65000000000E+04  0.10000000000E+01 0.  0.
    9000001    1    1    2    0    0  0.30967416197E+04 -0.51613336669E+04 -0.24537369704E+04  0.65000000000E+04  0.10000000000E+01 0.  0.
    9000001    1    1    2    0    0 -0.30967416197E+04  0.51613336669E+04  0.24537369704E+04  0.65000000000E+04  0.10000000000E+01 0.  0.
</event>
<event>
 4    1  0.2193160E-006  0.1300000E+05  0.7957747E-01  0.1322471E+00
    9000001   -1    0    0    0    0  0.00000000000E+00  0.00000000000E+00  0.64999999231E+04  0.65000000000E+04  0.10000000000E+01 0.  0.
    9000001   -1    0    0    0    0 -0.00000000000E+00 -0.00000000000E+00 -0.64999999231E+04  0.65000000000E+04  0.10000000000E+01 0.  0.
    9000001    1    1    2    0    0 -0.53415826216E+04 -0.24940053966E+04 -0.27381437468E+04  0.65000000000E+04  0.10000000000E+01 0.  0.
    9000001    1    1    2    0    0  0.53415826216E+04  0.24940053966E+04  0.27381437468E+04  0.65000000000E+04  0.10000000000E+01 0.  0.
</event>
<event>
 4    1  0.2193160E-006  0.1300000E+05  0.7957747E-01  0.1322471E+00
    9000001   -1    0    0    0    0  0.00000000000E+00  0.00000000000E+00  0.64999999231E+04  0.65000000000E+04  0.10000000000E+01 0.  0.
    9000001   -1    0    0    0    0 -0.00000000000E+00 -0.00000000000E+00 -0.64999999231E+04  0.65000000000E+04  0.10000000000E+01 0.  0.
    9000001    1    1    2    0    0 -0.56348320646E+03 -0.64741334608E+04 -0.13446786756E+03  0.65000000000E+04  0.10000000000E+01 0.  0.
    9000001    1    1    2    0    0  0.56348320646E+03  0.64741334608E+04  0.13446786756E+03  0.65000000000E+04  0.10000000000E+01 0.  0.
</event>
<event>
 4    1  0.2193160E-006  0.1300000E+05  0.7957747E-01  0.1322471E+00
    9000001   -1    0    0    0    0  0.00000000000E+00  0.00000000000E+00  0.64999999231E+04  0.65000000000E+04  0.10000000000E+01 0.  0.
    9000001   -1    0    0    0    0 -0.00000000000E+00 -0.00000000000E+00 -0.64999999231E+04  0.65000000000E+04  0.10000000000E+01 0.  0.
    9000001    1    1    2    0    0  0.34337682520E+04  0.49402033297E+04 -0.24604116835E+04  0.65000000000E+04  0.10000000000E+01 0.  0.
    9000001    1    1    2    0    0 -0.34337682520E+04 -0.49402033297E+04  0.24604116835E+04  0.65000000000E+04  0.10000000000E+01 0.  0.
</event>
<event>
 4    1  0.2193160E-006  0.1300000E+05  0.7957747E-01  0.1322471E+00
    9000001   -1    0    0    0    0  0.00000000000E+00  0.00000000000E+00  0.64999999231E+04  0.65000000000E+04  0.10000000000E+01 0.  0.
    9000001   -1    0    0    0    0 -0.00000000000E+00 -0.00000000000E+00 -0.64999999231E+04  0.65000000000E+04  0.10000000000E+01 0.  0.
    9000001    1    1    2    0    0 -0.27822098516E+04 -0.15043907009E+04  0.56785663649E+04  0.65000000000E+04  0.10000000000E+01 0.  0.
    9000001    1    1    2    0    0  0.27822098516E+04  0.15043907009E+04 -0.56785663649E+04  0.65000000000E+04  0.10000000000E+01 0.  0.
</event>
<event>
 4    1  0.2193160E-006  0.1300000E+05  0.7957747E-01  0.1322471E+00
    9000001   -1    0    0    0    0  0.00000000000E+00  0.00000000000E+00  0.64999999231E+04  0.65000000000E+04  0.10000000000E+01 0.  0.
    9000001   -1    0    0    0    0 -0.00000000000E+00 -0.00000000000E+00 -0.64999999231E+04  0.65000000000E+04  0.10000000000E+01 0.  0.
    9000001    1    1    2    0    0 -0.26540563633E+04  0.56133405474E+04  0.19226002493E+04  0.65000000000E+04  0.10000000000E+01 0.  0.
    9000001    1    1    2    0    0  0.26540563633E+04 -0.56133405474E+04 -0.19226002493E+04  0.65000000000E+04  0.10000000000E+01 0.  0.
</event>
<event>
 4    1  0.2193160E-006  0.1300000E+05  0.7957747E-01  0.1322471E+00
    9000001   -1    0    0    0    0  0.00000000000E+00  0.00000000000E+00  0.64999999231E+04  0.65000000000E+04  0.10000000000E+01 0.  0.
    9000001   -1    0    0    0    0 -0.00000000000E+00 -0.00000000000E+00 -0.64999999231E+04  0.65000000000E+04  0.10000000000E+01 0.  0.
    9000001    1    1    2    0    0 -0.16372074861E+04 -0.62654412948E+03  0.62591527463E+04  0.65000000000E+04  0.10000000000E+01 0.  0.
    9000001    1    1    2    0    0  0.16372074861E+04  0.62654412948E+03 -0.62591527463E+04  0.65000000000E+04  0.10000000000E+01 0.  0.
</event>
<event>
 4    1  0.2193160E-006  0.1300000E+05  0.7957747E-01  0.1322471E+00
    9000001   -1    0    0    0    0  0.00000000000E+00  0.00000000000E+00  0.64999999231E+04  0.65000000000E+04  0.10000000000E+01 0.  0.
    9000001   -1    0    0    0    0 -0.00000000000E+00 -0.00000000000E+00 -0.64999999231E+04  0.65000000000E+04  0.10000000000E+01 0.  0.
    9000001    1    1    2    0    0  0.13022293760E+04  0.48348670000E+04  0.41446663007E+04  0.65000000000E+04  0.10000000000E+01 0.  0.
    9000001    1    1    2    0    0 -0.13022293760E+04 -0.48348670000E+04 -0.41446663007E+04  0.65000000000E+04  0.10000000000E+01 0.  0.
</event>
<event>
 4    1  0.2193160E-006  0.1300000E+05  0.7957747E-01  0.1322471E+00
    9000001   -1    0    0    0    0  0.00000000000E+00  0.00000000000E+00  0.64999999231E+04  0.65000000000E+04  0.10000000000E+01 0.  0.
    9000001   -1    0    0    0    0 -0.00000000000E+00 -0.00000000000E+00 -0.64999999231E+04  0.65000000000E+04  0.10000000000E+01 0.  0.
    9000001    1    1    2    0    0  0.19775202707E+04 -0.59967866139E+04  0.15420644883E+04  0.65000000000E+04  0.10000000000E+01 0.  0.
    9000001    1    1    2    0    0 -0.19775202707E+04  0.59967866139E+04 -0.15420644883E+04  0.65000000000E+04  0.10000000000E+01 0.  0.
</event>
<event>
 4    1  0.2193160E-006  0.1300000E+05  0.7957747E-01  0.1322471E+00
    9000001   -1    0    0    0    0  0.00000000000E+00  0.00000000000E+00  0.64999999231E+04  0.65000000000E+04  0.10000000000E+01 0.  0.
    9000001   -1    0    0    0    0 -0.00000000000E+00 -0.00000000000E+00 -0.64999999231E+04  0.65000000000E+04  0.10000000000E+01 0.  0.
    9000001    1    1    2    0    0  0.51331844135E+04 -0.33972834919E+04  0.20877934889E+04  0.65000000000E+04  0.10000000000E+01 0.  0.
    9000001    1    1    2    0    0 -0.51331844135E+04  0.33972834919E+04 -0.20877934889E+04  0.65000000000E+04  0.10000000000E+01 0.  0.
</event>
<event>
 4    1  0.2193160E-006  0.1300000E+05  0.7957747E-01  0.1322471E+00
    9000001   -1    0    0    0    0  0.00000000000E+00  0.00000000000E+00  0.64999999231E+04  0.65000000000E+04  0.10000000000E+01 0.  0.
    9000001   -1    0    0    0    0 -0.00000000000E+00 -0.00000000000E+00 -0.64999999231E+04  0.65000000000E+04  0.10000000000E+01 0.  0.
    9000001    1    1    2    0    0  0.60933689156E+04  0.18670542866E+04 -0.12786565405E+04  0.65000000000E+04  0.10000000000E+01 0.  0.
    9000001    1    1    2    0    0 -0.60933689156E+04 -0.18670542866E+04  0.12786565405E+04  0.65000000000E+04  0.10000000000E+01 0.  0.
</event>
<event>
 4    1  0.2193160E-006  0.1300000E+05  0.7957747E-01  0.1322471E+00
    9000001   -1    0    0    0    0  0.00000000000E+00  0.00000000000E+00  0.64999999231E+04  0.65000000000E+04  0.10000000000E+01 0.  0.
    9000001   -1    0    0    0    0 -0.00000000000E+00 -0.00000000000E+00 -0.64999999231E+04  0.65000000000E+04  0.10000000000E+01 0.  0.
    9000001    1    1    2    0    0 -0.30774658804E+03  0.25436459615E+04  0.59737054045E+04  0.65000000000E+04  0.10000000000E+01 0.  0.
    9000001    1    1    2    0    0  0.30774658804E+03 -0.25436459615E+04 -0.59737054045E+04  0.65000000000E+04  0.10000000000E+01 0.  0.
</event>
<event>
 4    1  0.2193160E-006  0.1300000E+05  0.7957747E-01  0.1322471E+00
    9000001   -1    0    0    0    0  0.00000000000E+00  0.00000000000E+00  0.64999999231E+04  0.65000000000E+04  0.10000000000E+01 0.  0.
    9000001   -1    0    0    0    0 -0.00000000000E+00 -0.00000000000E+00 -0.64999999231E+04  0.65000000000E+04  0.10000000000E+01 0.  0.
    9000001    1    1    2    0    0  0.20277850005E+04 -0.59181211707E+04  0.17646327666E+04  0.65000000000E+04  0.10000000000E+01 0.  0.
    9000001    1    1    2    0    0 -0.20277850005E+04  0.59181211707E+04 -0.17646327666E+04  0.65000000000E+04  0.10000000000E+01 0.  0.
</event>
<event>
 4    1  0.2193160E-006  0.1300000E+05  0.7957747E-01  0.1322471E+00
    9000001   -1    0    0    0    0  0.00000000000E+00  0.00000000000E+00  0.64999999231E+04  0.65000000000E+04  0.10000000000E+01 0.  0.
    9000001   -1    0    0    0    0 -0.00000000000E+00 -0.00000000000E+00 -0.64999999231E+04  0.65000000000E+04  0.10000000000E+01 0.  0.
    9000001    1    1    2    0    0  0.63455282722E+04 -0.17721495932E+03  0.13974493927E+04  0.65000000000E+04  0.10000000000E+01 0.  0.
    9000001    1    1    2    0    0 -0.63455282722E+04  0.17721495932E+03 -0.13974493927E+04  0.65000000000E+04  0.10000000000E+01 0.  0.
</event>
<event>
 4    1  0.2193160E-006  0.1300000E+05  0.7957747E-01  0.1322471E+00
    9000001   -1    0    0    0    0  0.00000000000E+00  0.00000000000E+00  0.64999999231E+04  0.65000000000E+04  0.10000000000E+01 0.  0.
    9000001   -1    0    0    0    0 -0.00000000000E+00 -0.00000000000E+00 -0.64999999231E+04  0.65000000000E+04  0.10000000000E+01 0.  0.
    9000001    1    1    2    0    0  0.60660629780E+04 -0.22461154404E+04  0.63862694489E+03  0.65000000000E+04  0.10000000000E+01 0.  0.
    9000001    1    1    2    0    0 -0.60660629780E+04  0.22461154404E+04 -0.63862694489E+03  0.65000000000E+04  0.10000000000E+01 0.  0.
</event>
<event>
 4    1  0.2193160E-006  0.1300000E+05  0.7957747E-01  0.1322471E+00
    9000001   -1    0    0    0    0  0.00000000000E+00  0.00000000000E+00  0.64999999231E+04  0.65000000000E+04  0.10000000000E+01 0.  0.
    9000001   -1    0    0    0    0 -0.00000000000E+00 -0.00000000000E+00 -0.64999999231E+04  0.65000000000E+04  0.10000000000E+01 0.  0.
    9000001    1    1    2    0    0 -0.94516276959E+02 -0.59784747617E+04 -0.25492950392E+04  0.65000000000E+04  0.10000000000E+01 0.  0.
    9000001    1    1    2    0    0  0.94516276959E+02  0.59784747617E+04  0.25492950392E+04  0.65000000000E+04  0.10000000000E+01 0.  0.
</event>
<event>
 4    1  0.2193160E-006  0.1300000E+05  0.7957747E-01  0.1322471E+00
    9000001   -1    0    0    0    0  0.00000000000E+00  0.00000000000E+00  0.64999999231E+04  0.65000000000E+04  0.10000000000E+01 0.  0.
    9000001   -1    0    0    0    0 -0.00000000000E+00 -0.00000000000E+00 -0.64999999231E+04  0.65000000000E+04  0.10000000000E+01 0.  0.
    9000001    1    1    2    0    0  0.22903876863E+04  0.16140287803E+04 -0.58650689973E+04  0.65000000000E+04  0.10000000000E+01 0.  0.
    9000001    1    1    2    0    0 -0.22903876863E+04 -0.16140287803E+04  0.58650689973E+04  0.65000000000E+04  0.10000000000E+01 0.  0.
</event>
<event>
 4    1  0.2193160E-006  0.1300000E+05  0.7957747E-01  0.1322471E+00
    9000001   -1    0    0    0    0  0.00000000000E+00  0.00000000000E+00  0.64999999231E+04  0.65000000000E+04  0.10000000000E+01 0.  0.
    9000001   -1    0    0    0    0 -0.00000000000E+00 -0.00000000000E+00 -0.64999999231E+04  0.65000000000E+04  0.10000000000E+01 0.  0.
    9000001    1    1    2    0    0 -0.33258266870E+04  0.44939961436E+04  0.33155504082E+04  0.65000000000E+04  0.10000000000E+01 0.  0.
    9000001    1    1    2    0    0  0.33258266870E+04 -0.44939961436E+04 -0.33155504082E+04  0.65000000000E+04  0.10000000000E+01 0.  0.
</event>
<event>
 4    1  0.2193160E-006  0.1300000E+05  0.7957747E-01  0.1322471E+00
    9000001   -1    0    0    0    0  0.00000000000E+00  0.00000000000E+00  0.64999999231E+04  0.65000000000E+04  0.10000000000E+01 0.  0.
    9000001   -1    0    0    0    0 -0.00000000000E+00 -0.00000000000E+00 -0.64999999231E+04  0.65000000000E+04  0.10000000000E+01 0.  0.
    9000001    1    1    2    0    0 -0.45171534893E+04 -0.37276901959E+04 -0.28195122199E+04  0.65000000000E+04  0.10000000000E+01 0.  0.
    9000001    1    1    2    0    0  0.45171534893E+04  0.37276901959E+04  0.28195122199E+04  0.65000000000E+04  0.10000000000E+01 0.  0.
</event>
<event>
 4    1  0.2193160E-006  0.1300000E+05  0.7957747E-01  0.1322471E+00
    9000001   -1    0    0    0    0  0.00000000000E+00  0.00000000000E+00  0.64999999231E+04  0.65000000000E+04  0.10000000000E+01 0.  0.
    9000001   -1    0    0    0    0 -0.00000000000E+00 -0.00000000000E+00 -0.64999999231E+04  0.65000000000E+04  0.10000000000E+01 0.  0.
    9000001    1    1    2    0    0  0.16093591973E+04  0.41061289632E+04 -0.47748996756E+04  0.65000000000E+04  0.10000000000E+01 0.  0.
    9000001    1    1    2    0    0 -0.16093591973E+04 -0.41061289632E+04  0.47748996756E+04  0.65000000000E+04  0.10000000000E+01 0.  0.
</event>
<event>
 4    1  0.2193160E-006  0.1300000E+05  0.7957747E-01  0.1322471E+00
    9000001   -1    0    0    0    0  0.00000000000E+00  0.00000000000E+00  0.64999999231E+04  0.65000000000E+04  0.10000000000E+01 0.  0.
    9000001   -1    0    0    0    0 -0.00000000000E+00 -0.00000000000E+00 -0.64999999231E+04  0.65000000000E+04  0.10000000000E+01 0.  0.
    9000001    1    1    2    0    0  0.22080799583E+03 -0.47091983764E+04  0.44748959184E+04  0.65000000000E+04  0.10000000000E+01 0.  0.
    9000001    1    1    2    0    0 -0.22080799583E+03  0.47091983764E+04 -0.44748959184E+04  0.65000000000E+04  0.10000000000E+01 0.  0.
</event>
<event>
 4    1  0.2193160E-006  0.1300000E+05  0.7957747E-01  0.1322471E+00
    9000001   -1    0    0    0    0  0.00000000000E+00  0.00000000000E+00  0.64999999231E+04  0.65000000000E+04  0.10000000000E+01 0.  0.
    9000001   -1    0    0    0    0 -0.00000000000E+00 -0.00000000000E+00 -0.64999999231E+04  0.65000000000E+04  0.10000000000E+01 0.  0.
    9000001    1    1    2    0    0 -0.60460835497E+04 -0.17047080049E+04 -0.16699830323E+04  0.65000000000E+04  0.10000000000E+01 0.  0.
    9000001    1    1    2    0    0  0.60460835497E+04  0.17047080049E+04  0.16699830323E+04  0.65000000000E+04  0.10000000000E+01 0.  0.
</event>
<event>
 4    1  0.2193160E-006  0.1300000E+05  0.7957747E-01  0.1322471E+00
    9000001   -1    0    0    0    0  0.00000000000E+00  0.00000000000E+00  0.64999999231E+04  0.65000000000E+04  0.10000000000E+01 0.  0.
    9000001   -1    0    0    0    0 -0.00000000000E+00 -0.00000000000E+00 -0.64999999231E+04  0.65000000000E+04  0.10000000000E+01 0.  0.
    9000001    1    1    2    0    0  0.34442354869E+04 -0.14869965543E+03  0.55104563625E+04  0.65000000000E+04  0.10000000000E+01 0.  0.
    9000001    1    1    2    0    0 -0.34442354869E+04  0.14869965543E+03 -0.55104563625E+04  0.65000000000E+04  0.10000000000E+01 0.  0.
</event>
<event>
 4    1  0.2193160E-006  0.1300000E+05  0.7957747E-01  0.1322471E+00
    9000001   -1    0    0    0    0  0.00000000000E+00  0.00000000000E+00  0.64999999231E+04  0.65000000000E+04  0.10000000000E+01 0.  0.
    9000001   -1    0    0    0    0 -0.00000000000E+00 -0.00000000000E+00 -0.64999999231E+04  0.65000000000E+04  0.10000000000E+01 0.  0.
    9000001    1    1    2    0    0  0.36210866827E+04  0.37626157671E+04 -0.38704589942E+04  0.65000000000E+04  0.10000000000E+01 0.  0.
    9000001    1    1    2    0    0 -0.36210866827E+04 -0.37626157671E+04  0.38704589942E+04  0.65000000000E+04  0.10000000000E+01 0.  0.
</event>
<event>
 4    1  0.2193160E-006  0.1300000E+05  0.7957747E-01  0.1322471E+00
    9000001   -1    0    0    0    0  0.00000000000E+00  0.00000000000E+00  0.64999999231E+04  0.65000000000E+04  0.10000000000E+01 0.  0.
    9000001   -1    0    0    0    0 -0.00000000000E+00 -0.00000000000E+00 -0.64999999231E+04  0.65000000000E+04  0.10000000000E+01 0.  0.
    9000001    1    1    2    0    0 -0.29621218458E+04 -0.31455709533E+04 -0.48560494796E+04  0.65000000000E+04  0.10000000000E+01 0.  0.
    9000001    1    1    2    0    0  0.29621218458E+04  0.31455709533E+04  0.48560494796E+04  0.65000000000E+04  0.10000000000E+01 0.  0.
</event>
<event>
 4    1  0.2193160E-006  0.1300000E+05  0.7957747E-01  0.1322471E+00
    9000001   -1    0    0    0    0  0.00000000000E+00  0.00000000000E+00  0.64999999231E+04  0.65000000000E+04  0.10000000000E+01 0.  0.
    9000001   -1    0    0    0    0 -0.00000000000E+00 -0.00000000000E+00 -0.64999999231E+04  0.65000000000E+04  0.10000000000E+01 0.  0.
    9000001    1    1    2    0    0  0.62625431227E+04  0.17015269949E+04 -0.36791102414E+03  0.65000000000E+04  0.10000000000E+01 0.  0.
    9000001    1    1    2    0    0 -0.62625431227E+04 -0.17015269949E+04  0.36791102414E+03  0.65000000000E+04  0.10000000000E+01 0.  0.
</event>
<event>
 4    1  0.2193160E-006  0.1300000E+05  0.7957747E-01  0.1322471E+00
    9000001   -1    0    0    0    0  0.00000000000E+00  0.00000000000E+00  0.64999999231E+04  0.65000000000E+04  0.10000000000E+01 0.  0.
    9000001   -1    0    0    0    0 -0.00000000000E+00 -0.00000000000E+00 -0.64999999231E+04  0.65000000000E+04  0.10000000000E+01 0.  0.
    9000001    1    1    2    0    0  0.32744820416E+04 -0.33433786203E+04 -0.45110515138E+04  0.65000000000E+04  0.10000000000E+01 0.  0.
    9000001    1    1    2    0    0 -0.32744820416E+04  0.33433786203E+04  0.45110515138E+04  0.65000000000E+04  0.10000000000E+01 0.  0.
</event>
<event>
 4    1  0.2193160E-006  0.1300000E+05  0.7957747E-01  0.1322471E+00
    9000001   -1    0    0    0    0  0.00000000000E+00  0.00000000000E+00  0.64999999231E+04  0.65000000000E+04  0.10000000000E+01 0.  0.
    9000001   -1    0    0    0    0 -0.00000000000E+00 -0.00000000000E+00 -0.64999999231E+04  0.65000000000E+04  0.10000000000E+01 0.  0.
    9000001    1    1    2    0    0 -0.96185524219E+03 -0.59599985927E+04 -0.24089936215E+04  0.65000000000E+04  0.10000000000E+01 0.  0.
    9000001    1    1    2    0    0  0.96185524219E+03  0.59599985927E+04  0.24089936215E+04  0.65000000000E+04  0.10000000000E+01 0.  0.
</event>
<event>
 4    1  0.2193160E-006  0.1300000E+05  0.7957747E-01  0.1322471E+00
    9000001   -1    0    0    0    0  0.00000000000E+00  0.00000000000E+00  0.64999999231E+04  0.65000000000E+04  0.10000000000E+01 0.  0.
    9000001   -1    0    0    0    0 -0.00000000000E+00 -0.00000000000E+00 -0.64999999231E+04  0.65000000000E+04  0.10000000000E+01 0.  0.
    9000001    1    1    2    0    0  0.38946912967E+04  0.34746126975E+04  0.38740734771E+04  0.65000000000E+04  0.10000000000E+01 0.  0.
    9000001    1    1    2    0    0 -0.38946912967E+04 -0.34746126975E+04 -0.38740734771E+04  0.65000000000E+04  0.10000000000E+01 0.  0.
</event>
<event>
 4    1  0.2193160E-006  0.1300000E+05  0.7957747E-01  0.1322471E+00
    9000001   -1    0    0    0    0  0.00000000000E+00  0.00000000000E+00  0.64999999231E+04  0.65000000000E+04  0.10000000000E+01 0.  0.
    9000001   -1    0    0    0    0 -0.00000000000E+00 -0.00000000000E+00 -0.64999999231E+04  0.65000000000E+04  0.10000000000E+01 0.  0.
    9000001    1    1    2    0    0 -0.13147478004E+03  0.71614892459E+03  0.64590900365E+04  0.65000000000E+04  0.10000000000E+01 0.  0.
    9000001    1    1    2    0    0  0.13147478004E+03 -0.71614892459E+03 -0.64590900365E+04  0.65000000000E+04  0.10000000000E+01 0.  0.
</event>
<event>
 4    1  0.2193160E-006  0.1300000E+05  0.7957747E-01  0.1322471E+00
    9000001   -1    0    0    0    0  0.00000000000E+00  0.00000000000E+00  0.64999999231E+04  0.65000000000E+04  0.10000000000E+01 0.  0.
    9000001   -1    0    0    0    0 -0.00000000000E+00 -0.00000000000E+00 -0.64999999231E+04  0.65000000000E+04  0.10000000000E+01 0.  0.
    9000001    1    1    2    0    0  0.43593877782E+04  0.23635503337E+04 -0.42023049651E+04  0.65000000000E+04  0.10000000000E+01 0.  0.
    9000001    1    1    2    0    0 -0.43593877782E+04 -0.23635503337E+04  0.42023049651E+04  0.65000000000E+04  0.10000000000E+01 0.  0.
</event>
<event>
 4    1  0.2193160E-006  0.1300000E+05  0.7957747E-01  0.1322471E+00
    9000001   -1    0    0    0    0  0.00000000000E+00  0.00000000000E+00  0.64999999231E+04  0.65000000000E+04  0.10000000000E+01 0.  0.
    9000001   -1    0    0    0    0 -0.00000000000E+00 -0.00000000000E+00 -0.64999999231E+04  0.65000000000E+04  0.10000000000E+01 0.  0.
    9000001    1    1    2    0    0 -0.33868310843E+04 -0.52741223708E+04 -0.17213388464E+04  0.65000000000E+04  0.10000000000E+01 0.  0.
    9000001    1    1    2    0    0  0.33868310843E+04  0.52741223708E+04  0.17213388464E+04  0.65000000000E+04  0.10000000000E+01 0.  0.
</event>
<event>
 4    1  0.2193160E-006  0.1300000E+05  0.7957747E-01  0.1322471E+00
    9000001   -1    0    0    0    0  0.00000000000E+00  0.00000000000E+00  0.64999999231E+04  0.65000000000E+04  0.10000000000E+01 0.  0.
    9000001   -1    0    0    0    0 -0.00000000000E+00 -0.00000000000E+00 -0.64999999231E+04  0.65000000000E+04  0.10000000000E+01 0.  0.
    9000001    1    1    2    0    0 -0.64656183229E+04 -0.26789401327E+03  0.61156479635E+03  0.65000000000E+04  0.10000000000E+01 0.  0.
    9000001    1    1    2    0    0  0.64656183229E+04  0.26789401327E+03 -0.61156479635E+03  0.65000000000E+04  0.10000000000E+01 0.  0.
</event>
<event>
 4    1  0.2193160E-006  0.1300000E+05  0.7957747E-01  0.1322471E+00
    9000001   -1    0    0    0    0  0.00000000000E+00  0.00000000000E+00  0.64999999231E+04  0.65000000000E+04  0.10000000000E+01 0.  0.
    9000001   -1    0    0    0    0 -0.00000000000E+00 -0.00000000000E+00 -0.64999999231E+04  0.65000000000E+04  0.10000000000E+01 0.  0.
    9000001    1    1    2    0    0 -0.10193435183E+04 -0.94107526557E+03 -0.63502216604E+04  0.65000000000E+04  0.10000000000E+01 0.  0.
    9000001    1    1    2    0    0  0.10193435183E+04  0.94107526557E+03  0.63502216604E+04  0.65000000000E+04  0.10000000000E+01 0.  0.
</event>
<event>
 4    1  0.2193160E-006  0.1300000E+05  0.7957747E-01  0.1322471E+00
    9000001   -1    0    0    0    0  0.00000000000E+00  0.00000000000E+00  0.64999999231E+04  0.65000000000E+04  0.10000000000E+01 0.  0.
    9000001   -1    0    0    0    0 -0.00000000000E+00 -0.00000000000E+00 -0.64999999231E+04  0.65000000000E+04  0.10000000000E+01 0.  0.
    9000001    1    1    2    0    0  0.14083309615E+04  0.62462095502E+04  0.11186908232E+04  0.65000000000E+04  0.10000000000E+01 0.  0.
    9000001    1    1    2    0    0 -0.14083309615E+04 -0.62462095502E+04 -0.11186908232E+04  0.65000000000E+04  0.10000000000E+01 0.  0.
</event>
