<event>
 6    4  0.6277709E-003  0.1281512E+03  0.7818608E-02  0.1230225E+00
          4   -1    0    0  502    0 -0.00000000000E+00  0.00000000000E+00  0.73071344620E+03  0.73071454985E+03  0.12700000000E+01 0.  1.
         21   -1    0    0  501  502  0.00000000000E+00 -0.00000000000E+00 -0.25083380641E+02  0.25083380641E+02  0.00000000000E+00 0.  1.
         25    2    1    2    0    0 -0.15971650913E+02 -0.23374401064E+02  0.71465733944E+03  0.72605636308E+03  0.12498509232E+03 0.  0.
    9000005    1    3    3    0    0 -0.46145555648E+02  0.11877553372E+02  0.11337374076E+03  0.12298411960E+03  0.10000000000E+01 0.  0.
    9000005    1    3    3    0    0  0.30173904735E+02 -0.35251954436E+02  0.60128359868E+03  0.60307224349E+03  0.10000000000E+01 0.  0.
          4    1    1    2  501    0  0.15971650913E+02  0.23374401064E+02 -0.90272738790E+01  0.29741567405E+02  0.12700000000E+01 0. -1.
<mgrwt>
<rscale>  1 0.12815120E+03</rscale>
<asrwt>0</asrwt>
<pdfrwt beam="2">  1       21 0.38589822E-02 0.12815120E+03</pdfrwt>
<pdfrwt beam="1">  1        4 0.11241999E+00 0.12815120E+03</pdfrwt>
<totfact> 0.10968986E+04</totfact>
</mgrwt>
</event>
<event>
 6    4  0.6277709E-003  0.1336853E+03  0.7818608E-02  0.1222088E+00
         -4   -1    0    0    0  501 -0.00000000000E+00  0.00000000000E+00  0.36916662967E+02  0.36938501657E+02  0.12700000000E+01 0. -1.
         21   -1    0    0  501  502  0.00000000000E+00 -0.00000000000E+00 -0.37005028420E+03  0.37005028420E+03  0.00000000000E+00 0. -1.
         25    2    1    2    0    0  0.22293171255E+02  0.41800699745E+02 -0.94545264439E+02  0.16373932361E+03  0.12500989995E+03 0.  0.
    9000005    1    3    3    0    0  0.14231584922E+01 -0.44482874877E+02 -0.25762464910E+02  0.51433997858E+02  0.10000000000E+01 0.  0.
    9000005    1    3    3    0    0  0.20870012762E+02  0.86283574621E+02 -0.68782799529E+02  0.11230532576E+03  0.10000000000E+01 0.  0.
         -4    1    1    2    0  502 -0.22293171255E+02 -0.41800699745E+02 -0.23858835680E+03  0.24324946225E+03  0.12700000000E+01 0.  1.
<mgrwt>
<rscale>  1 0.13368530E+03</rscale>
<asrwt>0</asrwt>
<pdfrwt beam="2">  1       21 0.56930815E-01 0.13368530E+03</pdfrwt>
<pdfrwt beam="1">  1       -4 0.56813339E-02 0.13368530E+03</pdfrwt>
<totfact> 0.23029215E+04</totfact>
</mgrwt>
</event>
<event>
 6    4  0.6277709E-003  0.1281857E+03  0.7818608E-02  0.1230173E+00
          4   -1    0    0  502    0 -0.00000000000E+00  0.00000000000E+00  0.13452924445E+03  0.13453523892E+03  0.12700000000E+01 0. -1.
         21   -1    0    0  501  502  0.00000000000E+00 -0.00000000000E+00 -0.49480666779E+02  0.49480666779E+02  0.00000000000E+00 0. -1.
         25    2    1    2    0    0 -0.19382081120E+02  0.20772582872E+02  0.87908823153E+02  0.15543340805E+03  0.12499767150E+03 0.  0.
    9000005    1    3    3    0    0 -0.27214150338E+02  0.61590306999E+02  0.91605565142E+02  0.11369501071E+03  0.10000000000E+01 0.  0.
    9000005    1    3    3    0    0  0.78320692174E+01 -0.40817724127E+02 -0.36967419891E+01  0.41738397340E+02  0.10000000000E+01 0.  0.
          4    1    1    2  501    0  0.19382081120E+02 -0.20772582872E+02 -0.28602454855E+01  0.28582497651E+02  0.12700000000E+01 0.  1.
<mgrwt>
<rscale>  1 0.12818574E+03</rscale>
<asrwt>0</asrwt>
<pdfrwt beam="2">  1       21 0.76124104E-02 0.12818574E+03</pdfrwt>
<pdfrwt beam="1">  1        4 0.20698521E-01 0.12818574E+03</pdfrwt>
<totfact> 0.11060168E+05</totfact>
</mgrwt>
</event>
<event>
 6    4  0.6277709E-003  0.1304789E+03  0.7818608E-02  0.1226747E+00
         -4   -1    0    0    0  501 -0.00000000000E+00  0.00000000000E+00  0.28760818644E+02  0.28788844872E+02  0.12700000000E+01 0.  1.
         21   -1    0    0  501  502  0.00000000000E+00 -0.00000000000E+00 -0.33156113030E+03  0.33156113030E+03  0.00000000000E+00 0. -1.
         25    2    1    2    0    0 -0.24396210463E+02 -0.28446458748E+02 -0.13245878090E+03  0.18593029136E+03  0.12498147266E+03 0.  0.
    9000005    1    3    3    0    0 -0.15287396759E+02  0.10671212417E+02  0.20532385155E+02  0.27751722726E+02  0.10000000000E+01 0.  0.
    9000005    1    3    3    0    0 -0.91088137040E+01 -0.39117671165E+02 -0.15299116606E+03  0.15817856864E+03  0.10000000000E+01 0.  0.
         -4    1    1    2    0  502  0.24396210463E+02  0.28446458748E+02 -0.17034153076E+03  0.17441968381E+03  0.12700000000E+01 0. -1.
<mgrwt>
<rscale>  1 0.13047890E+03</rscale>
<asrwt>0</asrwt>
<pdfrwt beam="2">  1       21 0.51009403E-01 0.13047890E+03</pdfrwt>
<pdfrwt beam="1">  1       -4 0.44270845E-02 0.13047890E+03</pdfrwt>
<totfact> 0.43146303E+04</totfact>
</mgrwt>
</event>
<event>
 6    4  0.6277709E-003  0.1266390E+03  0.7818608E-02  0.1232530E+00
          4   -1    0    0  502    0 -0.00000000000E+00  0.00000000000E+00  0.20569376267E+03  0.20569768327E+03  0.12700000000E+01 0. -1.
         21   -1    0    0  501  502  0.00000000000E+00 -0.00000000000E+00 -0.51795681704E+02  0.51795681704E+02  0.00000000000E+00 0.  1.
         25    2    1    2    0    0  0.19748298195E+02  0.51561403132E+01  0.18262133135E+03  0.22223405306E+03  0.12498336933E+03 0.  0.
    9000005    1    3    3    0    0 -0.52930965561E+02  0.91429102045E+01  0.82342559087E+02  0.98318751819E+02  0.10000000000E+01 0.  0.
    9000005    1    3    3    0    0  0.72679263755E+02 -0.39867698913E+01  0.10027877226E+03  0.12391530124E+03  0.10000000000E+01 0.  0.
          4    1    1    2  501    0 -0.19748298195E+02 -0.51561403132E+01 -0.28723250381E+02  0.35259311918E+02  0.12700000000E+01 0.  1.
<mgrwt>
<rscale>  1 0.12663895E+03</rscale>
<asrwt>0</asrwt>
<pdfrwt beam="2">  1       21 0.79685665E-02 0.12663895E+03</pdfrwt>
<pdfrwt beam="1">  1        4 0.31646693E-01 0.12663895E+03</pdfrwt>
<totfact> 0.46528166E+04</totfact>
</mgrwt>
</event>
<event>
 6    4  0.6277709E-003  0.1306227E+03  0.7818608E-02  0.1226535E+00
         21   -1    0    0  501  502  0.00000000000E+00  0.00000000000E+00  0.15891803021E+03  0.15891803021E+03  0.00000000000E+00 0.  1.
          4   -1    0    0  502    0 -0.00000000000E+00 -0.00000000000E+00 -0.63449351290E+02  0.63462060155E+02  0.12700000000E+01 0. -1.
         25    2    1    2    0    0  0.37745727688E+02 -0.36428565868E+01  0.12588638820E+02  0.13122788628E+03  0.12499709576E+03 0.  0.
    9000005    1    3    3    0    0  0.94488253875E+01 -0.62359115737E+02 -0.62123578794E+01  0.63384012236E+02  0.10000000000E+01 0.  0.
    9000005    1    3    3    0    0  0.28296902300E+02  0.58716259150E+02  0.18800996699E+02  0.67843874044E+02  0.10000000000E+01 0.  0.
          4    1    1    2  501    0 -0.37745727688E+02  0.36428565868E+01  0.82880040104E+02  0.91152204090E+02  0.12700000000E+01 0.  1.
<mgrwt>
<rscale>  1 0.13062268E+03</rscale>
<asrwt>0</asrwt>
<pdfrwt beam="1">  1       21 0.24448928E-01 0.13062268E+03</pdfrwt>
<pdfrwt beam="2">  1        4 0.97628067E-02 0.13062268E+03</pdfrwt>
<totfact> 0.50469124E+04</totfact>
</mgrwt>
</event>
<event>
 6    4  0.6277709E-003  0.1306295E+03  0.7818608E-02  0.1226525E+00
          4   -1    0    0  502    0 -0.00000000000E+00  0.00000000000E+00  0.29644585367E+02  0.29671776853E+02  0.12700000000E+01 0.  1.
         21   -1    0    0  501  502  0.00000000000E+00 -0.00000000000E+00 -0.31631356445E+03  0.31631356445E+03  0.00000000000E+00 0. -1.
         25    2    1    2    0    0  0.25481409421E+02 -0.28143595116E+02 -0.12820384307E+03  0.18303081880E+03  0.12499076398E+03 0.  0.
    9000005    1    3    3    0    0 -0.48778866076E+01  0.29441506580E+02  0.89808812509E+01  0.31180960785E+02  0.10000000000E+01 0.  0.
    9000005    1    3    3    0    0  0.30359296028E+02 -0.57585101696E+02 -0.13718472432E+03  0.15184985802E+03  0.10000000000E+01 0.  0.
          4    1    1    2  501    0 -0.25481409421E+02  0.28143595116E+02 -0.15846513601E+03  0.16295452250E+03  0.12700000000E+01 0. -1.
<mgrwt>
<rscale>  1 0.13062946E+03</rscale>
<asrwt>0</asrwt>
<pdfrwt beam="2">  1       21 0.48663626E-01 0.13062946E+03</pdfrwt>
<pdfrwt beam="1">  1        4 0.45629932E-02 0.13062946E+03</pdfrwt>
<totfact> 0.45310462E+04</totfact>
</mgrwt>
</event>
<event>
 6    4  0.6277709E-003  0.1289015E+03  0.7818608E-02  0.1229095E+00
         -4   -1    0    0    0  501 -0.00000000000E+00  0.00000000000E+00  0.42551825469E+03  0.42552014991E+03  0.12700000000E+01 0.  1.
         21   -1    0    0  501  502  0.00000000000E+00 -0.00000000000E+00 -0.19957329964E+02  0.19957329964E+02  0.00000000000E+00 0. -1.
         25    2    1    2    0    0  0.26835931606E+02  0.16356456470E+02  0.38926722330E+03  0.41005434478E+03  0.12501157404E+03 0.  0.
    9000005    1    3    3    0    0 -0.34707452868E+02  0.18926301269E+02  0.29370942298E+03  0.29635964184E+03  0.10000000000E+01 0.  0.
    9000005    1    3    3    0    0  0.61543384473E+02 -0.25698447991E+01  0.95557800326E+02  0.11369470295E+03  0.10000000000E+01 0.  0.
         -4    1    1    2    0  502 -0.26835931606E+02 -0.16356456470E+02  0.16293701426E+02  0.35423135090E+02  0.12700000000E+01 0. -1.
<mgrwt>
<rscale>  1 0.12890149E+03</rscale>
<asrwt>0</asrwt>
<pdfrwt beam="2">  1       21 0.30703588E-02 0.12890149E+03</pdfrwt>
<pdfrwt beam="1">  1       -4 0.65467594E-01 0.12890149E+03</pdfrwt>
<totfact> 0.53766518E+04</totfact>
</mgrwt>
</event>
<event>
 6    4  0.6277709E-003  0.1290121E+03  0.7818608E-02  0.1228929E+00
         21   -1    0    0  501  502  0.00000000000E+00  0.00000000000E+00  0.42794571907E+03  0.42794571907E+03  0.00000000000E+00 0.  1.
         -4   -1    0    0    0  501 -0.00000000000E+00 -0.00000000000E+00 -0.26367738708E+02  0.26398305714E+02  0.12700000000E+01 0. -1.
         25    2    1    2    0    0 -0.16310789359E+02  0.27461609553E+02  0.13829860049E+03  0.18913122982E+03  0.12499574931E+03 0.  0.
    9000005    1    3    3    0    0  0.15018533078E+02  0.40253741240E+02  0.14783808323E+03  0.15395784772E+03  0.10000000000E+01 0.  0.
    9000005    1    3    3    0    0 -0.31329322437E+02 -0.12792131688E+02 -0.95394827403E+01  0.35173382101E+02  0.10000000000E+01 0.  0.
         -4    1    1    2    0  502  0.16310789359E+02 -0.27461609553E+02  0.26327937987E+03  0.26521279496E+03  0.12700000000E+01 0.  1.
<mgrwt>
<rscale>  1 0.12901209E+03</rscale>
<asrwt>0</asrwt>
<pdfrwt beam="1">  1       21 0.65837798E-01 0.12901209E+03</pdfrwt>
<pdfrwt beam="2">  1       -4 0.40590718E-02 0.12901209E+03</pdfrwt>
<totfact> 0.28863233E+04</totfact>
</mgrwt>
</event>
<event>
 6    4  0.6277709E-003  0.1283714E+03  0.7818608E-02  0.1229893E+00
         -4   -1    0    0    0  501 -0.00000000000E+00  0.00000000000E+00  0.19487142198E+02  0.19528482046E+02  0.12700000000E+01 0.  1.
         21   -1    0    0  501  502  0.00000000000E+00 -0.00000000000E+00 -0.33714673012E+03  0.33714673012E+03  0.00000000000E+00 0. -1.
         25    2    1    2    0    0  0.27707947839E+02 -0.91336809017E+01 -0.21969266738E+03  0.25444857708E+03  0.12501222251E+03 0.  0.
    9000005    1    3    3    0    0 -0.60081138599E+00  0.52056365718E+02 -0.14375742671E+03  0.15289677537E+03  0.10000000000E+01 0.  0.
    9000005    1    3    3    0    0  0.28308759225E+02 -0.61190046619E+02 -0.75935240671E+02  0.10155180171E+03  0.10000000000E+01 0.  0.
         -4    1    1    2    0  502 -0.27707947839E+02  0.91336809017E+01 -0.97966920545E+02  0.10222663509E+03  0.12700000000E+01 0. -1.
<mgrwt>
<rscale>  1 0.12837138E+03</rscale>
<asrwt>0</asrwt>
<pdfrwt beam="2">  1       21 0.51868728E-01 0.12837138E+03</pdfrwt>
<pdfrwt beam="1">  1       -4 0.30013858E-02 0.12837138E+03</pdfrwt>
<totfact> 0.76866871E+04</totfact>
</mgrwt>
</event>
<event>
 6    4  0.6277709E-003  0.1284154E+03  0.7818608E-02  0.1229826E+00
          4   -1    0    0  502    0 -0.00000000000E+00  0.00000000000E+00  0.19199955379E+03  0.19200375401E+03  0.12700000000E+01 0. -1.
         21   -1    0    0  501  502  0.00000000000E+00 -0.00000000000E+00 -0.47449783765E+02  0.47449783765E+02  0.00000000000E+00 0. -1.
         25    2    1    2    0    0  0.20195654221E+02 -0.21401500855E+02  0.16082409081E+03  0.20580305330E+03  0.12499847950E+03 0.  0.
    9000005    1    3    3    0    0  0.65823886702E+02 -0.42171146130E+02  0.10175563245E+03  0.12832146493E+03  0.10000000000E+01 0.  0.
    9000005    1    3    3    0    0 -0.45628232482E+02  0.20769645275E+02  0.59068458359E+02  0.77481588375E+02  0.10000000000E+01 0.  0.
          4    1    1    2  501    0 -0.20195654221E+02  0.21401500855E+02 -0.16274320785E+02  0.33650484473E+02  0.12700000000E+01 0.  1.
<mgrwt>
<rscale>  1 0.12841538E+03</rscale>
<asrwt>0</asrwt>
<pdfrwt beam="2">  1       21 0.72999668E-02 0.12841538E+03</pdfrwt>
<pdfrwt beam="1">  1        4 0.29540023E-01 0.12841538E+03</pdfrwt>
<totfact> 0.61735674E+04</totfact>
</mgrwt>
</event>
<event>
 6    4  0.6277709E-003  0.1300307E+03  0.7818608E-02  0.1227410E+00
         -4   -1    0    0    0  501 -0.00000000000E+00  0.00000000000E+00  0.10308487763E+03  0.10309270049E+03  0.12700000000E+01 0.  1.
         21   -1    0    0  501  502  0.00000000000E+00 -0.00000000000E+00 -0.87773423051E+02  0.87773423051E+02  0.00000000000E+00 0.  1.
         25    2    1    2    0    0  0.68165255387E+01 -0.35116111604E+02  0.51600061844E+02  0.13989473714E+03  0.12501345841E+03 0.  0.
    9000005    1    3    3    0    0  0.65301471927E+02 -0.98111510858E+01  0.21869293437E+02  0.69568720823E+02  0.10000000000E+01 0.  0.
    9000005    1    3    3    0    0 -0.58484946389E+02 -0.25304960519E+02  0.29730768407E+02  0.70326016317E+02  0.10000000000E+01 0.  0.
         -4    1    1    2    0  502 -0.68165255387E+01  0.35116111604E+02 -0.36288607269E+02  0.50971386406E+02  0.12700000000E+01 0. -1.
<mgrwt>
<rscale>  1 0.13003065E+03</rscale>
<asrwt>0</asrwt>
<pdfrwt beam="2">  1       21 0.13503603E-01 0.13003065E+03</pdfrwt>
<pdfrwt beam="1">  1       -4 0.15860521E-01 0.13003065E+03</pdfrwt>
<totfact> 0.65189701E+04</totfact>
</mgrwt>
</event>
<event>
 6    4  0.6277709E-003  0.1269391E+03  0.7818608E-02  0.1232070E+00
         21   -1    0    0  501  502  0.00000000000E+00  0.00000000000E+00  0.17234186875E+03  0.17234186875E+03  0.00000000000E+00 0. -1.
         -4   -1    0    0    0  501 -0.00000000000E+00 -0.00000000000E+00 -0.58604878461E+02  0.58618637646E+02  0.12700000000E+01 0.  1.
         25    2    1    2    0    0  0.21538254617E+02 -0.49489617004E+01  0.12752151820E+02  0.12757801690E+03  0.12500057754E+03 0.  0.
    9000005    1    3    3    0    0 -0.47805298871E+02 -0.22292305395E+02  0.18388248315E+02  0.55869680114E+02  0.10000000000E+01 0.  0.
    9000005    1    3    3    0    0  0.69343553488E+02  0.17343343694E+02 -0.56360964952E+01  0.71708336786E+02  0.10000000000E+01 0.  0.
         -4    1    1    2    0  502 -0.21538254617E+02  0.49489617004E+01  0.10098483847E+03  0.10338248950E+03  0.12700000000E+01 0. -1.
<mgrwt>
<rscale>  1 0.12693909E+03</rscale>
<asrwt>0</asrwt>
<pdfrwt beam="1">  1       21 0.26514133E-01 0.12693909E+03</pdfrwt>
<pdfrwt beam="2">  1       -4 0.90175536E-02 0.12693909E+03</pdfrwt>
<totfact> 0.49274419E+04</totfact>
</mgrwt>
</event>
<event>
 6    4  0.6277709E-003  0.1281170E+03  0.7818608E-02  0.1230277E+00
         21   -1    0    0  501  502  0.00000000000E+00  0.00000000000E+00  0.56730649263E+02  0.56730649263E+02  0.00000000000E+00 0. -1.
          4   -1    0    0  502    0 -0.00000000000E+00 -0.00000000000E+00 -0.10914309906E+03  0.10915048773E+03  0.12700000000E+01 0. -1.
         25    2    1    2    0    0 -0.13858949605E+02  0.24433162879E+02 -0.50455865451E+02  0.13769441929E+03  0.12499963525E+03 0.  0.
    9000005    1    3    3    0    0 -0.80757130566E+01 -0.50865371221E+02 -0.11784957233E+02  0.52843053922E+02  0.10000000000E+01 0.  0.
    9000005    1    3    3    0    0 -0.57832365487E+01  0.75298534100E+02 -0.38670908219E+02  0.84851365369E+02  0.10000000000E+01 0.  0.
          4    1    1    2  501    0  0.13858949605E+02 -0.24433162879E+02 -0.19565843415E+01  0.28186717700E+02  0.12700000000E+01 0.  1.
<mgrwt>
<rscale>  1 0.12811697E+03</rscale>
<asrwt>0</asrwt>
<pdfrwt beam="1">  1       21 0.87277923E-02 0.12811697E+03</pdfrwt>
<pdfrwt beam="2">  1        4 0.16792908E-01 0.12811697E+03</pdfrwt>
<totfact> 0.12681777E+05</totfact>
</mgrwt>
</event>
<event>
 6    4  0.6277709E-003  0.1273923E+03  0.7818608E-02  0.1231377E+00
         -4   -1    0    0    0  501 -0.00000000000E+00  0.00000000000E+00  0.21840841269E+03  0.21841210506E+03  0.12700000000E+01 0.  1.
         21   -1    0    0  501  502  0.00000000000E+00 -0.00000000000E+00 -0.28659820967E+02  0.28659820967E+02  0.00000000000E+00 0.  1.
         25    2    1    2    0    0  0.20389022195E+02  0.13729466757E+02  0.18017477763E+03  0.22066205477E+03  0.12499832573E+03 0.  0.
    9000005    1    3    3    0    0  0.69130886163E+02 -0.84777485049E+01  0.12884593033E+03  0.14646919609E+03  0.10000000000E+01 0.  0.
    9000005    1    3    3    0    0 -0.48741863968E+02  0.22207215262E+02  0.51328847302E+02  0.74192858674E+02  0.10000000000E+01 0.  0.
         -4    1    1    2    0  502 -0.20389022195E+02 -0.13729466757E+02  0.95738140946E+01  0.26409871257E+02  0.12700000000E+01 0. -1.
<mgrwt>
<rscale>  1 0.12739228E+03</rscale>
<asrwt>0</asrwt>
<pdfrwt beam="2">  1       21 0.44092034E-02 0.12739228E+03</pdfrwt>
<pdfrwt beam="1">  1       -4 0.33603742E-01 0.12739228E+03</pdfrwt>
<totfact> 0.11321009E+05</totfact>
</mgrwt>
</event>
<event>
 6    4  0.6277709E-003  0.1301536E+03  0.7818608E-02  0.1227228E+00
          4   -1    0    0  502    0 -0.00000000000E+00  0.00000000000E+00  0.19316545032E+03  0.19316962520E+03  0.12700000000E+01 0. -1.
         21   -1    0    0  501  502  0.00000000000E+00 -0.00000000000E+00 -0.13501774520E+03  0.13501774520E+03  0.00000000000E+00 0.  1.
         25    2    1    2    0    0  0.32700149527E+02 -0.15698578472E+02  0.16798629018E+03  0.21250732539E+03  0.12499689800E+03 0.  0.
    9000005    1    3    3    0    0  0.22370735240E+02 -0.11673198901E+02 -0.14874483530E+02  0.29308081276E+02  0.10000000000E+01 0.  0.
    9000005    1    3    3    0    0  0.10329414287E+02 -0.40253795717E+01  0.18286077371E+03  0.18319924411E+03  0.10000000000E+01 0.  0.
          4    1    1    2  501    0 -0.32700149527E+02  0.15698578472E+02 -0.10983858506E+03  0.11568004501E+03  0.12700000000E+01 0.  1.
<mgrwt>
<rscale>  1 0.13015364E+03</rscale>
<asrwt>0</asrwt>
<pdfrwt beam="2">  1       21 0.20771961E-01 0.13015364E+03</pdfrwt>
<pdfrwt beam="1">  1        4 0.29718542E-01 0.13015364E+03</pdfrwt>
<totfact> 0.95175413E+03</totfact>
</mgrwt>
</event>
<event>
 6    4  0.6277709E-003  0.1333691E+03  0.7818608E-02  0.1222540E+00
         21   -1    0    0  501  502  0.00000000000E+00  0.00000000000E+00  0.51118227703E+02  0.51118227703E+02  0.00000000000E+00 0.  1.
         -4   -1    0    0    0  501 -0.00000000000E+00 -0.00000000000E+00 -0.17204366039E+03  0.17204834780E+03  0.12700000000E+01 0.  1.
         25    2    1    2    0    0  0.36515848319E+02  0.28806570739E+02 -0.59323273325E+02  0.14596771130E+03  0.12499638510E+03 0.  0.
    9000005    1    3    3    0    0  0.55472226857E+01 -0.49077761340E+02 -0.25328314485E+02  0.55515059689E+02  0.10000000000E+01 0.  0.
    9000005    1    3    3    0    0  0.30968625633E+02  0.77884332079E+02 -0.33994958840E+02  0.90452651611E+02  0.10000000000E+01 0.  0.
         -4    1    1    2    0  502 -0.36515848319E+02 -0.28806570739E+02 -0.61602159366E+02  0.77198864207E+02  0.12700000000E+01 0. -1.
<mgrwt>
<rscale>  1 0.13336912E+03</rscale>
<asrwt>0</asrwt>
<pdfrwt beam="1">  1       21 0.78643427E-02 0.13336912E+03</pdfrwt>
<pdfrwt beam="2">  1       -4 0.26469830E-01 0.13336912E+03</pdfrwt>
<totfact> 0.67037973E+04</totfact>
</mgrwt>
</event>
<event>
 6    4  0.6277709E-003  0.1552646E+03  0.7818608E-02  0.1194149E+00
         21   -1    0    0  501  502  0.00000000000E+00  0.00000000000E+00  0.42937056893E+03  0.42937056893E+03  0.00000000000E+00 0. -1.
          4   -1    0    0  502    0 -0.00000000000E+00 -0.00000000000E+00 -0.13156994000E+03  0.13157606930E+03  0.12700000000E+01 0.  1.
         25    2    1    2    0    0 -0.22600691364E+02 -0.89282401612E+02 -0.78188108045E+02  0.17384034570E+03  0.12499978826E+03 0.  0.
    9000005    1    3    3    0    0 -0.55378012487E+02 -0.35216367467E+00 -0.81432880596E+01  0.55983581760E+02  0.10000000000E+01 0.  0.
    9000005    1    3    3    0    0  0.32777321123E+02 -0.88930237937E+02 -0.70044819985E+02  0.11785676394E+03  0.10000000000E+01 0.  0.
          4    1    1    2  501    0  0.22600691364E+02  0.89282401612E+02  0.37598873697E+03  0.38710629253E+03  0.12700000000E+01 0. -1.
<mgrwt>
<rscale>  1 0.15526457E+03</rscale>
<asrwt>0</asrwt>
<pdfrwt beam="1">  1       21 0.66057010E-01 0.15526457E+03</pdfrwt>
<pdfrwt beam="2">  1        4 0.20242145E-01 0.15526457E+03</pdfrwt>
<totfact> 0.19449430E+03</totfact>
</mgrwt>
</event>
<event>
 6    4  0.6277709E-003  0.1286406E+03  0.7818608E-02  0.1229487E+00
         21   -1    0    0  501  502  0.00000000000E+00  0.00000000000E+00  0.13008099849E+04  0.13008099849E+04  0.00000000000E+00 0.  1.
          4   -1    0    0  502    0 -0.00000000000E+00 -0.00000000000E+00 -0.54140313922E+01  0.55609923499E+01  0.12700000000E+01 0.  1.
         25    2    1    2    0    0 -0.19461689712E+02 -0.23332182383E+02  0.82257695616E+03  0.83257506628E+03  0.12500097632E+03 0.  0.
    9000005    1    3    3    0    0  0.29423406636E+02 -0.50489072166E+02  0.60892849915E+03  0.61172690013E+03  0.10000000000E+01 0.  0.
    9000005    1    3    3    0    0 -0.48885096348E+02  0.27156889783E+02  0.21364845701E+03  0.22084816614E+03  0.10000000000E+01 0.  0.
          4    1    1    2  501    0  0.19461689712E+02  0.23332182383E+02  0.47281899730E+03  0.47379591092E+03  0.12700000000E+01 0. -1.
<mgrwt>
<rscale>  1 0.12864055E+03</rscale>
<asrwt>0</asrwt>
<pdfrwt beam="1">  1       21 0.20012437E+00 0.12864055E+03</pdfrwt>
<pdfrwt beam="2">  1        4 0.84428132E-03 0.12864055E+03</pdfrwt>
<totfact> 0.21225471E+04</totfact>
</mgrwt>
</event>
<event>
 6    4  0.6277709E-003  0.1326369E+03  0.7818608E-02  0.1223595E+00
         21   -1    0    0  501  502  0.00000000000E+00  0.00000000000E+00  0.49428637316E+03  0.49428637316E+03  0.00000000000E+00 0. -1.
          4   -1    0    0  502    0 -0.00000000000E+00 -0.00000000000E+00 -0.45642450361E+02  0.45660115801E+02  0.12700000000E+01 0.  1.
         25    2    1    2    0    0  0.39947342484E+02 -0.19324891372E+02  0.54642034010E+02  0.14345141602E+03  0.12499326094E+03 0.  0.
    9000005    1    3    3    0    0  0.82959357490E+02 -0.25053973383E+02  0.49336732308E+02  0.99724970455E+02  0.10000000000E+01 0.  0.
    9000005    1    3    3    0    0 -0.43012015006E+02  0.57290820109E+01  0.53053017017E+01  0.43726445565E+02  0.10000000000E+01 0.  0.
          4    1    1    2  501    0 -0.39947342484E+02  0.19324891372E+02  0.39400188879E+03  0.39649507294E+03  0.12700000000E+01 0. -1.
<mgrwt>
<rscale>  1 0.13263694E+03</rscale>
<asrwt>0</asrwt>
<pdfrwt beam="1">  1       21 0.76044054E-01 0.13263694E+03</pdfrwt>
<pdfrwt beam="2">  1        4 0.70234002E-02 0.13263694E+03</pdfrwt>
<totfact> 0.87172766E+03</totfact>
</mgrwt>
</event>
<event>
 6    4  0.6277709E-003  0.1443939E+03  0.7818608E-02  0.1207536E+00
         21   -1    0    0  501  502  0.00000000000E+00  0.00000000000E+00  0.10306603472E+03  0.10306603472E+03  0.00000000000E+00 0. -1.
         -4   -1    0    0    0  501 -0.00000000000E+00 -0.00000000000E+00 -0.11728074166E+03  0.11728761769E+03  0.12700000000E+01 0.  1.
         25    2    1    2    0    0  0.70915842292E+02 -0.13994076598E+02 -0.27113337111E+02  0.14691743227E+03  0.12499883195E+03 0.  0.
    9000005    1    3    3    0    0  0.16093937676E+02  0.30877685883E+02  0.37389694480E+02  0.51102207083E+02  0.10000000000E+01 0.  0.
    9000005    1    3    3    0    0  0.54821904617E+02 -0.44871762482E+02 -0.64503031591E+02  0.95815225191E+02  0.10000000000E+01 0.  0.
         -4    1    1    2    0  502 -0.70915842292E+02  0.13994076598E+02  0.12898630174E+02  0.73436220138E+02  0.12700000000E+01 0. -1.
<mgrwt>
<rscale>  1 0.14439390E+03</rscale>
<asrwt>0</asrwt>
<pdfrwt beam="1">  1       21 0.15856313E-01 0.14439390E+03</pdfrwt>
<pdfrwt beam="2">  1       -4 0.18044322E-01 0.14439390E+03</pdfrwt>
<totfact> 0.39340242E+04</totfact>
</mgrwt>
</event>
<event>
 6    4  0.6277709E-003  0.1272057E+03  0.7818608E-02  0.1231662E+00
         -4   -1    0    0    0  501 -0.00000000000E+00  0.00000000000E+00  0.64819367267E+02  0.64831807571E+02  0.12700000000E+01 0.  1.
         21   -1    0    0  501  502  0.00000000000E+00 -0.00000000000E+00 -0.18510797642E+03  0.18510797642E+03  0.00000000000E+00 0. -1.
         25    2    1    2    0    0 -0.22359156393E+02  0.67053332968E+01  0.19841013790E+00  0.12720581116E+03  0.12504553433E+03 0.  0.
    9000005    1    3    3    0    0  0.81857190728E+00  0.15854192840E+02  0.60179917656E+02  0.62246670431E+02  0.10000000000E+01 0.  0.
    9000005    1    3    3    0    0 -0.23177728300E+02 -0.91488595434E+01 -0.59981507518E+02  0.64959140729E+02  0.10000000000E+01 0.  0.
         -4    1    1    2    0  502  0.22359156393E+02 -0.67053332968E+01 -0.12048701929E+03  0.12273397283E+03  0.12700000000E+01 0. -1.
<mgrwt>
<rscale>  1 0.12720566E+03</rscale>
<asrwt>0</asrwt>
<pdfrwt beam="2">  1       21 0.28478150E-01 0.12720566E+03</pdfrwt>
<pdfrwt beam="1">  1       -4 0.99735024E-02 0.12720566E+03</pdfrwt>
<totfact> 0.36321195E+04</totfact>
</mgrwt>
</event>
<event>
 6    4  0.6277709E-003  0.1465371E+03  0.7818608E-02  0.1204794E+00
         21   -1    0    0  501  502  0.00000000000E+00  0.00000000000E+00  0.13664759009E+03  0.13664759009E+03  0.00000000000E+00 0.  1.
         -4   -1    0    0    0  501 -0.00000000000E+00 -0.00000000000E+00 -0.91462740704E+02  0.91471557531E+02  0.12700000000E+01 0. -1.
         25    2    1    2    0    0  0.39365167601E+02 -0.65532687688E+02  0.21694053615E+02  0.14813427429E+03  0.12501592571E+03 0.  0.
    9000005    1    3    3    0    0 -0.30929219748E+01 -0.71566586053E+02  0.57812066741E+02  0.92057468282E+02  0.10000000000E+01 0.  0.
    9000005    1    3    3    0    0  0.42458089576E+02  0.60338983657E+01 -0.36118013127E+02  0.56076806009E+02  0.10000000000E+01 0.  0.
         -4    1    1    2    0  502 -0.39365167601E+02  0.65532687688E+02  0.23490795772E+02  0.79984873331E+02  0.12700000000E+01 0.  1.
<mgrwt>
<rscale>  1 0.14653713E+03</rscale>
<asrwt>0</asrwt>
<pdfrwt beam="1">  1       21 0.21022706E-01 0.14653713E+03</pdfrwt>
<pdfrwt beam="2">  1       -4 0.14072323E-01 0.14653713E+03</pdfrwt>
<totfact> 0.36324113E+04</totfact>
</mgrwt>
</event>
<event>
 6    4  0.6277709E-003  0.1379830E+03  0.7818608E-02  0.1216069E+00
         21   -1    0    0  501  502  0.00000000000E+00  0.00000000000E+00  0.96220086691E+01  0.96220086691E+01  0.00000000000E+00 0.  1.
          4   -1    0    0  502    0 -0.00000000000E+00 -0.00000000000E+00 -0.10121360831E+04  0.10121368798E+04  0.12700000000E+01 0.  1.
         25    2    1    2    0    0  0.11282213051E+02 -0.57336517273E+02 -0.65665423762E+03  0.67099485938E+03  0.12499819589E+03 0.  0.
    9000005    1    3    3    0    0 -0.37040557884E+02 -0.77244870582E+02 -0.40015352382E+03  0.40922196371E+03  0.10000000000E+01 0.  0.
    9000005    1    3    3    0    0  0.48322770936E+02  0.19908353309E+02 -0.25650071380E+03  0.26177289566E+03  0.10000000000E+01 0.  0.
          4    1    1    2  501    0 -0.11282213051E+02  0.57336517273E+02 -0.34585983677E+03  0.35076402913E+03  0.12700000000E+01 0. -1.
<mgrwt>
<rscale>  1 0.13798302E+03</rscale>
<asrwt>0</asrwt>
<pdfrwt beam="1">  1       21 0.14803097E-02 0.13798302E+03</pdfrwt>
<pdfrwt beam="2">  1        4 0.15571968E+00 0.13798302E+03</pdfrwt>
<totfact> 0.23544518E+04</totfact>
</mgrwt>
</event>
<event>
 6    4  0.6277709E-003  0.1311006E+03  0.7818608E-02  0.1225832E+00
         -4   -1    0    0    0  501 -0.00000000000E+00  0.00000000000E+00  0.20823763152E+03  0.20824150423E+03  0.12700000000E+01 0. -1.
         21   -1    0    0  501  502  0.00000000000E+00 -0.00000000000E+00 -0.64505181049E+02  0.64505181049E+02  0.00000000000E+00 0.  1.
         25    2    1    2    0    0 -0.37903636004E+02 -0.11165650194E+02  0.17756043779E+03  0.22071493543E+03  0.12500406508E+03 0.  0.
    9000005    1    3    3    0    0  0.11261380466E+02  0.45739304091E+02  0.10980519280E+03  0.11948674820E+03  0.10000000000E+01 0.  0.
    9000005    1    3    3    0    0 -0.49165016470E+02 -0.56904954284E+02  0.67755244981E+02  0.10122818723E+03  0.10000000000E+01 0.  0.
         -4    1    1    2    0  502  0.37903636004E+02  0.11165650194E+02 -0.33827987312E+02  0.52031749848E+02  0.12700000000E+01 0.  1.
<mgrwt>
<rscale>  1 0.13110062E+03</rscale>
<asrwt>0</asrwt>
<pdfrwt beam="2">  1       21 0.99238741E-02 0.13110062E+03</pdfrwt>
<pdfrwt beam="1">  1       -4 0.32037818E-01 0.13110062E+03</pdfrwt>
<totfact> 0.31188861E+04</totfact>
</mgrwt>
</event>
<event>
 6    4  0.6277709E-003  0.1280468E+03  0.7818608E-02  0.1230383E+00
         21   -1    0    0  501  502  0.00000000000E+00  0.00000000000E+00  0.49188620308E+02  0.49188620308E+02  0.00000000000E+00 0. -1.
          4   -1    0    0  502    0 -0.00000000000E+00 -0.00000000000E+00 -0.15674114067E+03  0.15674628569E+03  0.12700000000E+01 0. -1.
         25    2    1    2    0    0  0.14448389426E+02  0.23707274825E+02 -0.42040734668E+02  0.13477172871E+03  0.12500081861E+03 0.  0.
    9000005    1    3    3    0    0 -0.49492774729E+00 -0.23449690798E+02 -0.72813642401E+02  0.76504636929E+02  0.10000000000E+01 0.  0.
    9000005    1    3    3    0    0  0.14943317173E+02  0.47156965623E+02  0.30772907732E+02  0.58267091786E+02  0.10000000000E+01 0.  0.
          4    1    1    2  501    0 -0.14448389426E+02 -0.23707274825E+02 -0.65511785689E+02  0.71163177281E+02  0.12700000000E+01 0.  1.
<mgrwt>
<rscale>  1 0.12804685E+03</rscale>
<asrwt>0</asrwt>
<pdfrwt beam="1">  1       21 0.75674802E-02 0.12804685E+03</pdfrwt>
<pdfrwt beam="2">  1        4 0.24115678E-01 0.12804685E+03</pdfrwt>
<totfact> 0.84598894E+04</totfact>
</mgrwt>
</event>
<event>
 6    4  0.6277709E-003  0.1302064E+03  0.7818608E-02  0.1227150E+00
         21   -1    0    0  501  502  0.00000000000E+00  0.00000000000E+00  0.94090305073E+01  0.94090305073E+01  0.00000000000E+00 0.  1.
          4   -1    0    0  502    0 -0.00000000000E+00 -0.00000000000E+00 -0.74593048437E+03  0.74593156550E+03  0.12700000000E+01 0.  1.
         25    2    1    2    0    0 -0.23227994875E+02 -0.28140124573E+02 -0.60447930097E+03  0.61834370044E+03  0.12498920036E+03 0.  0.
    9000005    1    3    3    0    0 -0.29074367934E+01 -0.36484824407E+01  0.56438220524E+01  0.73903545373E+01  0.10000000000E+01 0.  0.
    9000005    1    3    3    0    0 -0.20320558082E+02 -0.24491642132E+02 -0.61012312302E+03  0.61095334590E+03  0.10000000000E+01 0.  0.
          4    1    1    2  501    0  0.23227994875E+02  0.28140124573E+02 -0.13204215289E+03  0.13699689557E+03  0.12700000000E+01 0. -1.
<mgrwt>
<rscale>  1 0.13020640E+03</rscale>
<asrwt>0</asrwt>
<pdfrwt beam="1">  1       21 0.14475430E-02 0.13020640E+03</pdfrwt>
<pdfrwt beam="2">  1        4 0.11476523E+00 0.13020640E+03</pdfrwt>
<totfact> 0.51491669E+04</totfact>
</mgrwt>
</event>
<event>
 6    4  0.6277709E-003  0.1432362E+03  0.7818608E-02  0.1209040E+00
          4   -1    0    0  502    0 -0.00000000000E+00  0.00000000000E+00  0.45209123359E+02  0.45226958055E+02  0.12700000000E+01 0.  1.
         21   -1    0    0  501  502  0.00000000000E+00 -0.00000000000E+00 -0.36524289246E+03  0.36524289246E+03  0.00000000000E+00 0. -1.
         25    2    1    2    0    0  0.46832271998E+02 -0.51943707607E+02 -0.87970778422E+02  0.16809358310E+03  0.12500073745E+03 0.  0.
    9000005    1    3    3    0    0  0.13143676647E+02  0.55409239457E+01 -0.99452607480E+02  0.10047526665E+03  0.10000000000E+01 0.  0.
    9000005    1    3    3    0    0  0.33688595351E+02 -0.57484631553E+02  0.11481829058E+02  0.67618316454E+02  0.10000000000E+01 0.  0.
          4    1    1    2  501    0 -0.46832271998E+02  0.51943707607E+02 -0.23206299067E+03  0.24237626741E+03  0.12700000000E+01 0. -1.
<mgrwt>
<rscale>  1 0.14323615E+03</rscale>
<asrwt>0</asrwt>
<pdfrwt beam="2">  1       21 0.56191215E-01 0.14323615E+03</pdfrwt>
<pdfrwt beam="1">  1        4 0.69567914E-02 0.14323615E+03</pdfrwt>
<totfact> 0.17111779E+04</totfact>
</mgrwt>
</event>
<event>
 6    4  0.6277709E-003  0.1284929E+03  0.7818608E-02  0.1229709E+00
         -4   -1    0    0    0  501 -0.00000000000E+00  0.00000000000E+00  0.59812753837E+02  0.59826235228E+02  0.12700000000E+01 0. -1.
         21   -1    0    0  501  502  0.00000000000E+00 -0.00000000000E+00 -0.16165917648E+03  0.16165917648E+03  0.00000000000E+00 0.  1.
         25    2    1    2    0    0  0.57692397794E+01 -0.29194463808E+02 -0.14630131645E+02  0.12932308122E+03  0.12499927096E+03 0.  0.
    9000005    1    3    3    0    0 -0.18706661866E+02 -0.42872568241E+02 -0.59935073242E+02  0.76034264055E+02  0.10000000000E+01 0.  0.
    9000005    1    3    3    0    0  0.24475901645E+02  0.13678104433E+02  0.45304941597E+02  0.53288817170E+02  0.10000000000E+01 0.  0.
         -4    1    1    2    0  502 -0.57692397794E+01  0.29194463808E+02 -0.87216290996E+02  0.92162330482E+02  0.12700000000E+01 0.  1.
<mgrwt>
<rscale>  1 0.12849287E+03</rscale>
<asrwt>0</asrwt>
<pdfrwt beam="2">  1       21 0.24870642E-01 0.12849287E+03</pdfrwt>
<pdfrwt beam="1">  1       -4 0.92033830E-02 0.12849287E+03</pdfrwt>
<totfact> 0.53840066E+04</totfact>
</mgrwt>
</event>
<event>
 6    4  0.6277709E-003  0.1290629E+03  0.7818608E-02  0.1228853E+00
         21   -1    0    0  501  502  0.00000000000E+00  0.00000000000E+00  0.17786395844E+03  0.17786395844E+03  0.00000000000E+00 0. -1.
          4   -1    0    0  502    0 -0.00000000000E+00 -0.00000000000E+00 -0.40071638128E+02  0.40091758284E+02  0.12700000000E+01 0.  1.
         25    2    1    2    0    0 -0.30811616976E+02 -0.91239547885E+01  0.80080371033E+02  0.15188844585E+03  0.12499852745E+03 0.  0.
    9000005    1    3    3    0    0  0.81554836681E+01  0.49692488204E+02  0.60379429613E+02  0.78629071075E+02  0.10000000000E+01 0.  0.
    9000005    1    3    3    0    0 -0.38967100644E+02 -0.58816442993E+02  0.19700941420E+02  0.73259374770E+02  0.10000000000E+01 0.  0.
          4    1    1    2  501    0  0.30811616976E+02  0.91239547885E+01  0.57711949274E+02  0.66067270873E+02  0.12700000000E+01 0. -1.
<mgrwt>
<rscale>  1 0.12906291E+03</rscale>
<asrwt>0</asrwt>
<pdfrwt beam="1">  1       21 0.27363686E-01 0.12906291E+03</pdfrwt>
<pdfrwt beam="2">  1        4 0.61667640E-02 0.12906291E+03</pdfrwt>
<totfact> 0.86941217E+04</totfact>
</mgrwt>
</event>
<event>
 6    4  0.6277709E-003  0.1268041E+03  0.7818608E-02  0.1232276E+00
         21   -1    0    0  501  502  0.00000000000E+00  0.00000000000E+00  0.35953644879E+02  0.35953644879E+02  0.00000000000E+00 0. -1.
         -4   -1    0    0    0  501 -0.00000000000E+00 -0.00000000000E+00 -0.15560769376E+03  0.15561287625E+03  0.12700000000E+01 0. -1.
         25    2    1    2    0    0 -0.11200659811E+02  0.18134003511E+02 -0.11101258294E+03  0.16853209696E+03  0.12499990908E+03 0.  0.
    9000005    1    3    3    0    0  0.47799405292E+02  0.25074711198E+02 -0.91051767901E+02  0.10585343039E+03  0.10000000000E+01 0.  0.
    9000005    1    3    3    0    0 -0.59000065103E+02 -0.69407076868E+01 -0.19960815041E+02  0.62678666566E+02  0.10000000000E+01 0.  0.
         -4    1    1    2    0  502  0.11200659811E+02 -0.18134003511E+02 -0.86414659351E+01  0.23034424175E+02  0.12700000000E+01 0.  1.
<mgrwt>
<rscale>  1 0.12680408E+03</rscale>
<asrwt>0</asrwt>
<pdfrwt beam="1">  1       21 0.55313300E-02 0.12680408E+03</pdfrwt>
<pdfrwt beam="2">  1       -4 0.23941769E-01 0.12680408E+03</pdfrwt>
<totfact> 0.14596674E+05</totfact>
</mgrwt>
</event>
<event>
 6    4  0.6277709E-003  0.1320634E+03  0.7818608E-02  0.1224426E+00
          4   -1    0    0  502    0 -0.00000000000E+00  0.00000000000E+00  0.14164716849E+03  0.14165286175E+03  0.12700000000E+01 0. -1.
         21   -1    0    0  501  502  0.00000000000E+00 -0.00000000000E+00 -0.66452567222E+02  0.66452567222E+02  0.00000000000E+00 0. -1.
         25    2    1    2    0    0  0.27059182176E+02  0.32918127694E+02  0.93395764389E+02  0.16175138158E+03  0.12499975266E+03 0.  0.
    9000005    1    3    3    0    0  0.43259540685E+02  0.50005324361E+02  0.72628185017E+00  0.66132048283E+02  0.10000000000E+01 0.  0.
    9000005    1    3    3    0    0 -0.16200358509E+02 -0.17087196668E+02  0.92669482538E+02  0.95619333295E+02  0.10000000000E+01 0.  0.
          4    1    1    2  501    0 -0.27059182176E+02 -0.32918127694E+02 -0.18201163118E+02  0.46354047394E+02  0.12700000000E+01 0.  1.
<mgrwt>
<rscale>  1 0.13206340E+03</rscale>
<asrwt>0</asrwt>
<pdfrwt beam="2">  1       21 0.10223472E-01 0.13206340E+03</pdfrwt>
<pdfrwt beam="1">  1        4 0.21793243E-01 0.13206340E+03</pdfrwt>
<totfact> 0.60645976E+04</totfact>
</mgrwt>
</event>
<event>
 6    4  0.6277709E-003  0.1370662E+03  0.7818608E-02  0.1217332E+00
         21   -1    0    0  501  502  0.00000000000E+00  0.00000000000E+00  0.12166584912E+03  0.12166584912E+03  0.00000000000E+00 0. -1.
         -4   -1    0    0    0  501 -0.00000000000E+00 -0.00000000000E+00 -0.77712008969E+02  0.77722385694E+02  0.12700000000E+01 0. -1.
         25    2    1    2    0    0 -0.54392622004E+02 -0.14126727140E+02  0.20977285591E+02  0.13866215551E+03  0.12501609941E+03 0.  0.
    9000005    1    3    3    0    0 -0.10663011126E+02 -0.58922085088E+02 -0.20797231447E+02  0.63395873314E+02  0.10000000000E+01 0.  0.
    9000005    1    3    3    0    0 -0.43729610879E+02  0.44795357948E+02  0.41774517038E+02  0.75266282192E+02  0.10000000000E+01 0.  0.
         -4    1    1    2    0  502  0.54392622004E+02  0.14126727140E+02  0.22976554556E+02  0.60726079302E+02  0.12700000000E+01 0.  1.
<mgrwt>
<rscale>  1 0.13706621E+03</rscale>
<asrwt>0</asrwt>
<pdfrwt beam="1">  1       21 0.18717823E-01 0.13706621E+03</pdfrwt>
<pdfrwt beam="2">  1       -4 0.11957002E-01 0.13706621E+03</pdfrwt>
<totfact> 0.59202030E+04</totfact>
</mgrwt>
</event>
<event>
 6    4  0.6277709E-003  0.1623367E+03  0.7818608E-02  0.1186084E+00
          4   -1    0    0  502    0 -0.00000000000E+00  0.00000000000E+00  0.13295635294E+03  0.13296241833E+03  0.12700000000E+01 0.  1.
         21   -1    0    0  501  502  0.00000000000E+00 -0.00000000000E+00 -0.20698592703E+03  0.20698592703E+03  0.00000000000E+00 0. -1.
         25    2    1    2    0    0  0.10353642191E+03  0.28988247170E+01  0.57774855235E+02  0.17231119454E+03  0.12500008007E+03 0.  0.
    9000005    1    3    3    0    0  0.77772038538E+02  0.59120174522E+02  0.50662894347E+02  0.11005186903E+03  0.10000000000E+01 0.  0.
    9000005    1    3    3    0    0  0.25764383373E+02 -0.56221349805E+02  0.71119608879E+01  0.62259325504E+02  0.10000000000E+01 0.  0.
          4    1    1    2  501    0 -0.10353642191E+03 -0.28988247170E+01 -0.13180442932E+03  0.16763715082E+03  0.12700000000E+01 0. -1.
<mgrwt>
<rscale>  1 0.16233673E+03</rscale>
<asrwt>0</asrwt>
<pdfrwt beam="2">  1       21 0.31843989E-01 0.16233673E+03</pdfrwt>
<pdfrwt beam="1">  1        4 0.20455590E-01 0.16233673E+03</pdfrwt>
<totfact> 0.85534659E+03</totfact>
</mgrwt>
</event>
<event>
 6    4  0.6277709E-003  0.1270098E+03  0.7818608E-02  0.1231961E+00
         21   -1    0    0  501  502  0.00000000000E+00  0.00000000000E+00  0.13437914717E+03  0.13437914717E+03  0.00000000000E+00 0.  1.
          4   -1    0    0  502    0 -0.00000000000E+00 -0.00000000000E+00 -0.44332428496E+02  0.44350615738E+02  0.12700000000E+01 0.  1.
         25    2    1    2    0    0  0.21022885074E+02  0.80529663735E+01  0.58201780692E+02  0.13971021730E+03  0.12499874231E+03 0.  0.
    9000005    1    3    3    0    0 -0.29759789366E+01  0.48800499409E+02 -0.16226826187E+02  0.51523345013E+02  0.10000000000E+01 0.  0.
    9000005    1    3    3    0    0  0.23998864010E+02 -0.40747533035E+02  0.74428606879E+02  0.88186872290E+02  0.10000000000E+01 0.  0.
          4    1    1    2  501    0 -0.21022885074E+02 -0.80529663735E+01  0.31844937982E+02  0.39019545606E+02  0.12700000000E+01 0. -1.
<mgrwt>
<rscale>  1 0.12700983E+03</rscale>
<asrwt>0</asrwt>
<pdfrwt beam="1">  1       21 0.20673715E-01 0.12700983E+03</pdfrwt>
<pdfrwt beam="2">  1        4 0.68222343E-02 0.12700983E+03</pdfrwt>
<totfact> 0.12463261E+05</totfact>
</mgrwt>
</event>
<event>
 6    4  0.6277709E-003  0.1268803E+03  0.7818608E-02  0.1232160E+00
         21   -1    0    0  501  502  0.00000000000E+00  0.00000000000E+00  0.30763933642E+03  0.30763933642E+03  0.00000000000E+00 0. -1.
          4   -1    0    0  502    0 -0.00000000000E+00 -0.00000000000E+00 -0.18986823951E+02  0.19029250740E+02  0.12700000000E+01 0. -1.
         25    2    1    2    0    0  0.21623730432E+02 -0.25085750635E+01  0.21290645905E+03  0.24784627956E+03  0.12499895728E+03 0.  0.
    9000005    1    3    3    0    0  0.57204100566E+02  0.25423623710E+02  0.18349452623E+03  0.19388117733E+03  0.10000000000E+01 0.  0.
    9000005    1    3    3    0    0 -0.35580370135E+02 -0.27932198773E+02  0.29411932819E+02  0.53965102236E+02  0.10000000000E+01 0.  0.
          4    1    1    2  501    0 -0.21623730432E+02  0.25085750635E+01  0.75746053413E+02  0.78822307593E+02  0.12700000000E+01 0.  1.
<mgrwt>
<rscale>  1 0.12688033E+03</rscale>
<asrwt>0</asrwt>
<pdfrwt beam="1">  1       21 0.47329125E-01 0.12688033E+03</pdfrwt>
<pdfrwt beam="2">  1        4 0.29245153E-02 0.12688033E+03</pdfrwt>
<totfact> 0.96530472E+04</totfact>
</mgrwt>
</event>
<event>
 6    4  0.6277709E-003  0.1326753E+03  0.7818608E-02  0.1223539E+00
         21   -1    0    0  501  502  0.00000000000E+00  0.00000000000E+00  0.13703256545E+02  0.13703256545E+02  0.00000000000E+00 0. -1.
          4   -1    0    0  502    0 -0.00000000000E+00 -0.00000000000E+00 -0.89995990225E+03  0.89996079834E+03  0.12700000000E+01 0.  1.
         25    2    1    2    0    0 -0.19297078638E+02 -0.40070208099E+02 -0.83633221114E+03  0.84679058565E+03  0.12499891896E+03 0.  0.
    9000005    1    3    3    0    0 -0.54411456514E+02  0.23324113269E+02 -0.32528177328E+03  0.33062645521E+03  0.10000000000E+01 0.  0.
    9000005    1    3    3    0    0  0.35114377876E+02 -0.63394321368E+02 -0.51105043786E+03  0.51616413044E+03  0.10000000000E+01 0.  0.
          4    1    1    2  501    0  0.19297078638E+02  0.40070208099E+02 -0.49924434567E+02  0.66873469238E+02  0.12700000000E+01 0. -1.
<mgrwt>
<rscale>  1 0.13267527E+03</rscale>
<asrwt>0</asrwt>
<pdfrwt beam="1">  1       21 0.21081928E-02 0.13267527E+03</pdfrwt>
<pdfrwt beam="2">  1        4 0.13846000E+00 0.13267527E+03</pdfrwt>
<totfact> 0.17883420E+04</totfact>
</mgrwt>
</event>
<event>
 6    4  0.6277709E-003  0.1275951E+03  0.7818608E-02  0.1231068E+00
         21   -1    0    0  501  502  0.00000000000E+00  0.00000000000E+00  0.76568504296E+03  0.76568504296E+03  0.00000000000E+00 0. -1.
         -4   -1    0    0    0  501 -0.00000000000E+00 -0.00000000000E+00 -0.77466141599E+01  0.78500274485E+01  0.12700000000E+01 0. -1.
         25    2    1    2    0    0 -0.22654140592E+02  0.11915117970E+02  0.58884135757E+03  0.60250696593E+03  0.12500127795E+03 0.  0.
    9000005    1    3    3    0    0  0.48307798867E+02  0.10526609264E+02  0.14945094215E+03  0.15741993852E+03  0.10000000000E+01 0.  0.
    9000005    1    3    3    0    0 -0.70961939458E+02  0.13885087058E+01  0.43939041542E+03  0.44508702741E+03  0.10000000000E+01 0.  0.
         -4    1    1    2    0  502  0.22654140592E+02 -0.11915117970E+02  0.16909707123E+03  0.17102810448E+03  0.12700000000E+01 0.  1.
<mgrwt>
<rscale>  1 0.12759506E+03</rscale>
<asrwt>0</asrwt>
<pdfrwt beam="1">  1       21 0.11779764E+00 0.12759506E+03</pdfrwt>
<pdfrwt beam="2">  1       -4 0.11998233E-02 0.12759506E+03</pdfrwt>
<totfact> 0.50333345E+04</totfact>
</mgrwt>
</event>
<event>
 6    4  0.6277709E-003  0.1278877E+03  0.7818608E-02  0.1230624E+00
         21   -1    0    0  501  502  0.00000000000E+00  0.00000000000E+00  0.18305478049E+02  0.18305478049E+02  0.00000000000E+00 0. -1.
         -4   -1    0    0    0  501 -0.00000000000E+00 -0.00000000000E+00 -0.42271250758E+03  0.42271441537E+03  0.12700000000E+01 0. -1.
         25    2    1    2    0    0  0.24787873733E+02  0.10809166126E+02 -0.38983287864E+03  0.41027423469E+03  0.12499599044E+03 0.  0.
    9000005    1    3    3    0    0 -0.34515138901E+02  0.46153185179E+02 -0.20566534631E+03  0.21358990142E+03  0.10000000000E+01 0.  0.
    9000005    1    3    3    0    0  0.59303012634E+02 -0.35344019053E+02 -0.18416753233E+03  0.19668433328E+03  0.10000000000E+01 0.  0.
         -4    1    1    2    0  502 -0.24787873733E+02 -0.10809166126E+02 -0.14574150890E+02  0.30745658729E+02  0.12700000000E+01 0.  1.
<mgrwt>
<rscale>  1 0.12788774E+03</rscale>
<asrwt>0</asrwt>
<pdfrwt beam="1">  1       21 0.28162274E-02 0.12788774E+03</pdfrwt>
<pdfrwt beam="2">  1       -4 0.65036228E-01 0.12788774E+03</pdfrwt>
<totfact> 0.62751355E+04</totfact>
</mgrwt>
</event>
<event>
 6    4  0.6277709E-003  0.1273892E+03  0.7818608E-02  0.1231382E+00
         21   -1    0    0  501  502  0.00000000000E+00  0.00000000000E+00  0.27834945569E+03  0.27834945569E+03  0.00000000000E+00 0. -1.
         -4   -1    0    0    0  501 -0.00000000000E+00 -0.00000000000E+00 -0.24041064146E+02  0.24074585465E+02  0.12700000000E+01 0. -1.
         25    2    1    2    0    0 -0.24037028898E+02  0.50430138383E+01  0.15764863997E+03  0.20268472483E+03  0.12499917299E+03 0.  0.
    9000005    1    3    3    0    0  0.12534200418E+02 -0.26903741388E+02 -0.74272412684E+01  0.30611785208E+02  0.10000000000E+01 0.  0.
    9000005    1    3    3    0    0 -0.36571229316E+02  0.31946755226E+02  0.16507588124E+03  0.17207293962E+03  0.10000000000E+01 0.  0.
         -4    1    1    2    0  502  0.24037028898E+02 -0.50430138383E+01  0.96659751574E+02  0.99739316326E+02  0.12700000000E+01 0.  1.
<mgrwt>
<rscale>  1 0.12738918E+03</rscale>
<asrwt>0</asrwt>
<pdfrwt beam="1">  1       21 0.42822991E-01 0.12738918E+03</pdfrwt>
<pdfrwt beam="2">  1       -4 0.37014269E-02 0.12738918E+03</pdfrwt>
<totfact> 0.81732618E+04</totfact>
</mgrwt>
</event>
<event>
 6    4  0.6277709E-003  0.1291690E+03  0.7818608E-02  0.1228694E+00
          4   -1    0    0  502    0 -0.00000000000E+00  0.00000000000E+00  0.30583832077E+02  0.30610189227E+02  0.12700000000E+01 0.  1.
         21   -1    0    0  501  502  0.00000000000E+00 -0.00000000000E+00 -0.21641744182E+03  0.21641744182E+03  0.00000000000E+00 0.  1.
         25    2    1    2    0    0 -0.32119912929E+02 -0.53558605107E+01 -0.13673729042E+03  0.18810025609E+03  0.12499698277E+03 0.  0.
    9000005    1    3    3    0    0 -0.28440726396E+02 -0.41512679141E+02 -0.14264700125E+03  0.15126580715E+03  0.10000000000E+01 0.  0.
    9000005    1    3    3    0    0 -0.36791865333E+01  0.36156818630E+02  0.59097108239E+01  0.36834448945E+02  0.10000000000E+01 0.  0.
          4    1    1    2  501    0  0.32119912929E+02  0.53558605107E+01 -0.49096319325E+02  0.58927374960E+02  0.12700000000E+01 0. -1.
<mgrwt>
<rscale>  1 0.12916896E+03</rscale>
<asrwt>0</asrwt>
<pdfrwt beam="2">  1       21 0.33294992E-01 0.12916896E+03</pdfrwt>
<pdfrwt beam="1">  1        4 0.47075189E-02 0.12916896E+03</pdfrwt>
<totfact> 0.92032379E+04</totfact>
</mgrwt>
</event>
<event>
 6    4  0.6277709E-003  0.1316836E+03  0.7818608E-02  0.1224979E+00
          4   -1    0    0  502    0 -0.00000000000E+00  0.00000000000E+00  0.14638965908E+03  0.14639516791E+03  0.12700000000E+01 0.  1.
         21   -1    0    0  501  502  0.00000000000E+00 -0.00000000000E+00 -0.62938197322E+02  0.62938197322E+02  0.00000000000E+00 0.  1.
         25    2    1    2    0    0  0.28050999802E+02  0.30470175119E+02  0.99344646944E+02  0.16495435671E+03  0.12500116304E+03 0.  0.
    9000005    1    3    3    0    0 -0.25326515699E+02  0.73495075817E+01 -0.19379663202E+02  0.32741701314E+02  0.10000000000E+01 0.  0.
    9000005    1    3    3    0    0  0.53377515500E+02  0.23120667538E+02  0.11872431015E+03  0.13221265540E+03  0.10000000000E+01 0.  0.
          4    1    1    2  501    0 -0.28050999802E+02 -0.30470175119E+02 -0.15893185181E+02  0.44379008516E+02  0.12700000000E+01 0. -1.
<mgrwt>
<rscale>  1 0.13168364E+03</rscale>
<asrwt>0</asrwt>
<pdfrwt beam="2">  1       21 0.96827997E-02 0.13168364E+03</pdfrwt>
<pdfrwt beam="1">  1        4 0.22522895E-01 0.13168364E+03</pdfrwt>
<totfact> 0.62793340E+04</totfact>
</mgrwt>
</event>
<event>
 6    4  0.6277709E-003  0.1303904E+03  0.7818608E-02  0.1226878E+00
         -4   -1    0    0    0  501 -0.00000000000E+00  0.00000000000E+00  0.87388881515E+02  0.87398109319E+02  0.12700000000E+01 0.  1.
         21   -1    0    0  501  502  0.00000000000E+00 -0.00000000000E+00 -0.93978924019E+02  0.93978924019E+02  0.00000000000E+00 0. -1.
         25    2    1    2    0    0  0.28576196635E+02 -0.23753643928E+02  0.24787037420E+02  0.13272553122E+03  0.12498333809E+03 0.  0.
    9000005    1    3    3    0    0  0.71073033590E+02  0.56358502382E+01 -0.76464452459E+01  0.71711972755E+02  0.10000000000E+01 0.  0.
    9000005    1    3    3    0    0 -0.42496836954E+02 -0.29389494166E+02  0.32433482666E+02  0.61013558463E+02  0.10000000000E+01 0.  0.
         -4    1    1    2    0  502 -0.28576196635E+02  0.23753643928E+02 -0.31377079924E+02  0.48651502120E+02  0.12700000000E+01 0. -1.
<mgrwt>
<rscale>  1 0.13039045E+03</rscale>
<asrwt>0</asrwt>
<pdfrwt beam="2">  1       21 0.14458296E-01 0.13039045E+03</pdfrwt>
<pdfrwt beam="1">  1       -4 0.13445813E-01 0.13039045E+03</pdfrwt>
<totfact> 0.76906368E+04</totfact>
</mgrwt>
</event>
<event>
 6    4  0.6277709E-003  0.1269802E+03  0.7818608E-02  0.1232007E+00
         21   -1    0    0  501  502  0.00000000000E+00  0.00000000000E+00  0.61662539894E+02  0.61662539894E+02  0.00000000000E+00 0.  1.
         -4   -1    0    0    0  501 -0.00000000000E+00 -0.00000000000E+00 -0.97530980227E+02  0.97539248531E+02  0.12700000000E+01 0. -1.
         25    2    1    2    0    0  0.22004967083E+02 -0.37322046245E+01 -0.45464385828E+02  0.13487396490E+03  0.12500331236E+03 0.  0.
    9000005    1    3    3    0    0  0.14374766880E+01  0.13898542963E+02  0.41490483426E+02  0.43791506604E+02  0.10000000000E+01 0.  0.
    9000005    1    3    3    0    0  0.20567490395E+02 -0.17630747588E+02 -0.86954869254E+02  0.91082458293E+02  0.10000000000E+01 0.  0.
         -4    1    1    2    0  502 -0.22004967083E+02  0.37322046245E+01  0.95959454956E+01  0.24327823529E+02  0.12700000000E+01 0.  1.
<mgrwt>
<rscale>  1 0.12698022E+03</rscale>
<asrwt>0</asrwt>
<pdfrwt beam="1">  1       21 0.94865446E-02 0.12698022E+03</pdfrwt>
<pdfrwt beam="2">  1       -4 0.15006408E-01 0.12698022E+03</pdfrwt>
<totfact> 0.13345444E+05</totfact>
</mgrwt>
</event>
<event>
 6    4  0.6277709E-003  0.1421879E+03  0.7818608E-02  0.1210415E+00
          4   -1    0    0  502    0 -0.00000000000E+00  0.00000000000E+00  0.36562474145E+03  0.36562694712E+03  0.12700000000E+01 0.  1.
         21   -1    0    0  501  502  0.00000000000E+00 -0.00000000000E+00 -0.39497023950E+02  0.39497023950E+02  0.00000000000E+00 0. -1.
         25    2    1    2    0    0 -0.49311065849E+02 -0.46491045837E+02  0.30088992594E+03  0.33279446408E+03  0.12499763691E+03 0.  0.
    9000005    1    3    3    0    0 -0.15867378441E+02  0.43425630135E+02  0.98934544186E+02  0.10920898811E+03  0.10000000000E+01 0.  0.
    9000005    1    3    3    0    0 -0.33443687408E+02 -0.89916675972E+02  0.20195538175E+03  0.22358547597E+03  0.10000000000E+01 0.  0.
          4    1    1    2  501    0  0.49311065849E+02  0.46491045837E+02  0.25237791559E+02  0.72329506987E+02  0.12700000000E+01 0. -1.
<mgrwt>
<rscale>  1 0.14218793E+03</rscale>
<asrwt>0</asrwt>
<pdfrwt beam="2">  1       21 0.60764655E-02 0.14218793E+03</pdfrwt>
<pdfrwt beam="1">  1        4 0.56251698E-01 0.14218793E+03</pdfrwt>
<totfact> 0.23942563E+04</totfact>
</mgrwt>
</event>
<event>
 6    4  0.6277709E-003  0.1315394E+03  0.7818608E-02  0.1225189E+00
         21   -1    0    0  501  502  0.00000000000E+00  0.00000000000E+00  0.12177592035E+04  0.12177592035E+04  0.00000000000E+00 0.  1.
         -4   -1    0    0    0  501 -0.00000000000E+00 -0.00000000000E+00 -0.25806476198E+02  0.25837707207E+02  0.12700000000E+01 0. -1.
         25    2    1    2    0    0 -0.42003214859E+01 -0.40762290647E+02  0.14473964009E+03  0.19558161026E+03  0.12499358311E+03 0.  0.
    9000005    1    3    3    0    0 -0.50194201739E+02 -0.57293140045E+02  0.11629591391E+03  0.13902410358E+03  0.10000000000E+01 0.  0.
    9000005    1    3    3    0    0  0.45993880253E+02  0.16530849398E+02  0.28443726172E+02  0.56557506673E+02  0.10000000000E+01 0.  0.
         -4    1    1    2    0  502  0.42003214859E+01  0.40762290647E+02  0.10472130872E+04  0.10480153005E+04  0.12700000000E+01 0.  1.
<mgrwt>
<rscale>  1 0.13153936E+03</rscale>
<asrwt>0</asrwt>
<pdfrwt beam="1">  1       21 0.18734752E+00 0.13153936E+03</pdfrwt>
<pdfrwt beam="2">  1       -4 0.39726814E-02 0.13153936E+03</pdfrwt>
<totfact> 0.23729061E+03</totfact>
</mgrwt>
</event>
<event>
 6    4  0.6277709E-003  0.1294388E+03  0.7818608E-02  0.1228291E+00
          4   -1    0    0  502    0 -0.00000000000E+00  0.00000000000E+00  0.53278886747E+02  0.53294020988E+02  0.12700000000E+01 0. -1.
         21   -1    0    0  501  502  0.00000000000E+00 -0.00000000000E+00 -0.31810649926E+03  0.31810649926E+03  0.00000000000E+00 0.  1.
         25    2    1    2    0    0  0.23859303468E+02 -0.23672863058E+02 -0.28303799383E+02  0.13249719695E+03  0.12499892532E+03 0.  0.
    9000005    1    3    3    0    0  0.15516452429E+02 -0.75233608472E+02 -0.11888696899E+02  0.77738003921E+02  0.10000000000E+01 0.  0.
    9000005    1    3    3    0    0  0.83428510393E+01  0.51560745414E+02 -0.16415102484E+02  0.54759193024E+02  0.10000000000E+01 0.  0.
          4    1    1    2  501    0 -0.23859303468E+02  0.23672863058E+02 -0.23652381313E+03  0.23890332330E+03  0.12700000000E+01 0.  1.
<mgrwt>
<rscale>  1 0.12943880E+03</rscale>
<asrwt>0</asrwt>
<pdfrwt beam="2">  1       21 0.48939461E-01 0.12943880E+03</pdfrwt>
<pdfrwt beam="1">  1        4 0.81981110E-02 0.12943880E+03</pdfrwt>
<totfact> 0.17253226E+04</totfact>
</mgrwt>
</event>
<event>
 6    4  0.6277709E-003  0.1276865E+03  0.7818608E-02  0.1230929E+00
         21   -1    0    0  501  502  0.00000000000E+00  0.00000000000E+00  0.13109258006E+02  0.13109258006E+02  0.00000000000E+00 0.  1.
         -4   -1    0    0    0  501 -0.00000000000E+00 -0.00000000000E+00 -0.55613899853E+03  0.55614044862E+03  0.12700000000E+01 0.  1.
         25    2    1    2    0    0  0.25803545378E+02  0.34318314349E+01 -0.51654462737E+03  0.53209227749E+03  0.12500495701E+03 0.  0.
    9000005    1    3    3    0    0  0.74344138269E+02  0.17981303686E+02 -0.28704985861E+03  0.29706733160E+03  0.10000000000E+01 0.  0.
    9000005    1    3    3    0    0 -0.48540592891E+02 -0.14549472251E+02 -0.22949476876E+03  0.23502494589E+03  0.10000000000E+01 0.  0.
         -4    1    1    2    0  502 -0.25803545378E+02 -0.34318314349E+01 -0.26485113160E+02  0.37157429138E+02  0.12700000000E+01 0. -1.
<mgrwt>
<rscale>  1 0.12768649E+03</rscale>
<asrwt>0</asrwt>
<pdfrwt beam="1">  1       21 0.20168091E-02 0.12768649E+03</pdfrwt>
<pdfrwt beam="2">  1       -4 0.85564682E-01 0.12768649E+03</pdfrwt>
<totfact> 0.59336092E+04</totfact>
</mgrwt>
</event>
<event>
 6    4  0.6277709E-003  0.1465245E+03  0.7818608E-02  0.1204810E+00
         21   -1    0    0  501  502  0.00000000000E+00  0.00000000000E+00  0.44675383739E+03  0.44675383739E+03  0.00000000000E+00 0.  1.
          4   -1    0    0  502    0 -0.00000000000E+00 -0.00000000000E+00 -0.65760745130E+02  0.65773007382E+02  0.12700000000E+01 0. -1.
         25    2    1    2    0    0  0.75138505035E+02  0.14070403775E+02  0.25278985715E+02  0.14868909289E+03  0.12500259207E+03 0.  0.
    9000005    1    3    3    0    0  0.79843370976E+02  0.49729181568E+02  0.48529265626E+02  0.10584916160E+03  0.10000000000E+01 0.  0.
    9000005    1    3    3    0    0 -0.47048659407E+01 -0.35658777793E+02 -0.23250279911E+02  0.42839931293E+02  0.10000000000E+01 0.  0.
          4    1    1    2  501    0 -0.75138505035E+02 -0.14070403775E+02  0.35571410654E+03  0.36383775188E+03  0.12700000000E+01 0.  1.
<mgrwt>
<rscale>  1 0.14652447E+03</rscale>
<asrwt>0</asrwt>
<pdfrwt beam="1">  1       21 0.68731358E-01 0.14652447E+03</pdfrwt>
<pdfrwt beam="2">  1        4 0.10118120E-01 0.14652447E+03</pdfrwt>
<totfact> 0.59638764E+03</totfact>
</mgrwt>
</event>
<event>
 6    4  0.6277709E-003  0.1266244E+03  0.7818608E-02  0.1232552E+00
         21   -1    0    0  501  502  0.00000000000E+00  0.00000000000E+00  0.17373386964E+02  0.17373386964E+02  0.00000000000E+00 0. -1.
          4   -1    0    0  502    0 -0.00000000000E+00 -0.00000000000E+00 -0.60627566683E+03  0.60627699700E+03  0.12700000000E+01 0.  1.
         25    2    1    2    0    0 -0.16429506371E+02  0.11717798806E+02 -0.58996669804E+03  0.60340238716E+03  0.12500600204E+03 0.  0.
    9000005    1    3    3    0    0 -0.20840087546E+02  0.43163881149E+02 -0.55119940924E+03  0.55328041591E+03  0.10000000000E+01 0.  0.
    9000005    1    3    3    0    0  0.44105811745E+01 -0.31446082343E+02 -0.38767288799E+02  0.50121971249E+02  0.10000000000E+01 0.  0.
          4    1    1    2  501    0  0.16429506371E+02 -0.11717798806E+02  0.10644181731E+01  0.20247996802E+02  0.12700000000E+01 0. -1.
<mgrwt>
<rscale>  1 0.12662439E+03</rscale>
<asrwt>0</asrwt>
<pdfrwt beam="1">  1       21 0.26728290E-02 0.12662439E+03</pdfrwt>
<pdfrwt beam="2">  1        4 0.93276845E-01 0.12662439E+03</pdfrwt>
<totfact> 0.30900183E+04</totfact>
</mgrwt>
</event>
<event>
 6    4  0.6277709E-003  0.1283383E+03  0.7818608E-02  0.1229942E+00
         21   -1    0    0  501  502  0.00000000000E+00  0.00000000000E+00  0.24106206513E+03  0.24106206513E+03  0.00000000000E+00 0. -1.
          4   -1    0    0  502    0 -0.00000000000E+00 -0.00000000000E+00 -0.72071593378E+02  0.72082782078E+02  0.12700000000E+01 0.  1.
         25    2    1    2    0    0 -0.28635660985E+02  0.50721952354E+01 -0.12858488277E+02  0.12898082953E+03  0.12499994168E+03 0.  0.
    9000005    1    3    3    0    0 -0.20278041893E+02  0.68119708475E+00  0.55948360733E+02  0.59522114220E+02  0.10000000000E+01 0.  0.
    9000005    1    3    3    0    0 -0.83576190910E+01  0.43909981507E+01 -0.68806849010E+02  0.69458715308E+02  0.10000000000E+01 0.  0.
          4    1    1    2  501    0  0.28635660985E+02 -0.50721952354E+01  0.18184896003E+03  0.18416401768E+03  0.12700000000E+01 0. -1.
<mgrwt>
<rscale>  1 0.12833828E+03</rscale>
<asrwt>0</asrwt>
<pdfrwt beam="1">  1       21 0.37086471E-01 0.12833828E+03</pdfrwt>
<pdfrwt beam="2">  1        4 0.11089056E-01 0.12833828E+03</pdfrwt>
<totfact> 0.18173998E+04</totfact>
</mgrwt>
</event>
<event>
 6    4  0.6277709E-003  0.1343815E+03  0.7818608E-02  0.1221095E+00
         -4   -1    0    0    0  501 -0.00000000000E+00  0.00000000000E+00  0.14410314076E+03  0.14410873699E+03  0.12700000000E+01 0. -1.
         21   -1    0    0  501  502  0.00000000000E+00 -0.00000000000E+00 -0.60874338932E+02  0.60874338932E+02  0.00000000000E+00 0.  1.
         25    2    1    2    0    0 -0.27389613945E+02  0.41016280284E+02  0.77978624033E+02  0.15536751922E+03  0.12500349604E+03 0.  0.
    9000005    1    3    3    0    0 -0.42552281464E+02 -0.26557768562E+02 -0.11823807019E+01  0.50183759852E+02  0.10000000000E+01 0.  0.
    9000005    1    3    3    0    0  0.15162667519E+02  0.67574048846E+02  0.79161004735E+02  0.10518375937E+03  0.10000000000E+01 0.  0.
         -4    1    1    2    0  502  0.27389613945E+02 -0.41016280284E+02  0.52501777988E+01  0.49615556707E+02  0.12700000000E+01 0.  1.
<mgrwt>
<rscale>  1 0.13438155E+03</rscale>
<asrwt>0</asrwt>
<pdfrwt beam="2">  1       21 0.93652830E-02 0.13438155E+03</pdfrwt>
<pdfrwt beam="1">  1       -4 0.22171163E-01 0.13438155E+03</pdfrwt>
<totfact> 0.68668940E+04</totfact>
</mgrwt>
</event>
<event>
 6    4  0.6277709E-003  0.1269292E+03  0.7818608E-02  0.1232085E+00
          4   -1    0    0  502    0 -0.00000000000E+00  0.00000000000E+00  0.17440362772E+03  0.17440825170E+03  0.12700000000E+01 0. -1.
         21   -1    0    0  501  502  0.00000000000E+00 -0.00000000000E+00 -0.76608409768E+02  0.76608409768E+02  0.00000000000E+00 0. -1.
         25    2    1    2    0    0  0.16707359489E+02 -0.14383569401E+02  0.14871325518E+03  0.19551637007E+03  0.12499998307E+03 0.  0.
    9000005    1    3    3    0    0 -0.30876498805E+02  0.23061518643E+02  0.12443898046E+03  0.13027375668E+03  0.10000000000E+01 0.  0.
    9000005    1    3    3    0    0  0.47583858294E+02 -0.37445088043E+02  0.24274274720E+02  0.65242613390E+02  0.10000000000E+01 0.  0.
          4    1    1    2  501    0 -0.16707359489E+02  0.14383569401E+02 -0.50918037233E+02  0.55500291400E+02  0.12700000000E+01 0.  1.
<mgrwt>
<rscale>  1 0.12692919E+03</rscale>
<asrwt>0</asrwt>
<pdfrwt beam="2">  1       21 0.11785909E-01 0.12692919E+03</pdfrwt>
<pdfrwt beam="1">  1        4 0.26832493E-01 0.12692919E+03</pdfrwt>
<totfact> 0.32058470E+04</totfact>
</mgrwt>
</event>
<event>
 6    4  0.6277709E-003  0.1282993E+03  0.7818608E-02  0.1230001E+00
          4   -1    0    0  502    0 -0.00000000000E+00  0.00000000000E+00  0.17646766043E+02  0.17692406614E+02  0.12700000000E+01 0. -1.
         21   -1    0    0  501  502  0.00000000000E+00 -0.00000000000E+00 -0.34983163234E+03  0.34983163234E+03  0.00000000000E+00 0. -1.
         25    2    1    2    0    0  0.18294471069E+02 -0.22385709867E+02 -0.27272484391E+03  0.30139602038E+03  0.12499965175E+03 0.  0.
    9000005    1    3    3    0    0 -0.31959529695E+02 -0.32577274832E+02 -0.23046264350E+03  0.23493982298E+03  0.10000000000E+01 0.  0.
    9000005    1    3    3    0    0  0.50254000763E+02  0.10191564965E+02 -0.42262200403E+02  0.66456197394E+02  0.10000000000E+01 0.  0.
          4    1    1    2  501    0 -0.18294471069E+02  0.22385709867E+02 -0.59460022393E+02  0.66128018577E+02  0.12700000000E+01 0.  1.
<mgrwt>
<rscale>  1 0.12829934E+03</rscale>
<asrwt>0</asrwt>
<pdfrwt beam="2">  1       21 0.53820254E-01 0.12829934E+03</pdfrwt>
<pdfrwt beam="1">  1        4 0.27185751E-02 0.12829934E+03</pdfrwt>
<totfact> 0.83070852E+04</totfact>
</mgrwt>
</event>
<event>
 6    4  0.6277709E-003  0.1310660E+03  0.7818608E-02  0.1225882E+00
          4   -1    0    0  502    0 -0.00000000000E+00  0.00000000000E+00  0.48843700184E+02  0.48860208224E+02  0.12700000000E+01 0.  1.
         21   -1    0    0  501  502  0.00000000000E+00 -0.00000000000E+00 -0.19830050106E+03  0.19830050106E+03  0.00000000000E+00 0. -1.
         25    2    1    2    0    0 -0.20758914293E+02 -0.33503252556E+02 -0.50188259382E+02  0.14034658716E+03  0.12499961077E+03 0.  0.
    9000005    1    3    3    0    0 -0.65384756011E+02 -0.12660457962E+02 -0.60538509758E+02  0.90007581226E+02  0.10000000000E+01 0.  0.
    9000005    1    3    3    0    0  0.44625841719E+02 -0.20842794594E+02  0.10350250376E+02  0.50339005934E+02  0.10000000000E+01 0.  0.
          4    1    1    2  501    0  0.20758914293E+02  0.33503252556E+02 -0.99268541490E+02  0.10681412212E+03  0.12700000000E+01 0. -1.
<mgrwt>
<rscale>  1 0.13106603E+03</rscale>
<asrwt>0</asrwt>
<pdfrwt beam="2">  1       21 0.30507770E-01 0.13106603E+03</pdfrwt>
<pdfrwt beam="1">  1        4 0.75159981E-02 0.13106603E+03</pdfrwt>
<totfact> 0.51123725E+04</totfact>
</mgrwt>
</event>
<event>
 6    4  0.6277709E-003  0.1724228E+03  0.7818608E-02  0.1175345E+00
          4   -1    0    0  502    0 -0.00000000000E+00  0.00000000000E+00  0.70181154563E+02  0.70192644599E+02  0.12700000000E+01 0.  1.
         21   -1    0    0  501  502  0.00000000000E+00 -0.00000000000E+00 -0.90687592547E+03  0.90687592547E+03  0.00000000000E+00 0. -1.
         25    2    1    2    0    0  0.11656617691E+03  0.22733011510E+02 -0.47305350346E+02  0.17879434801E+03  0.12500063719E+03 0.  0.
    9000005    1    3    3    0    0  0.64772335568E+02  0.72871219920E+02 -0.11134145646E+02  0.98135820916E+02  0.10000000000E+01 0.  0.
    9000005    1    3    3    0    0  0.51793841342E+02 -0.50138208410E+02 -0.36171204699E+02  0.80658527094E+02  0.10000000000E+01 0.  0.
          4    1    1    2  501    0 -0.11656617691E+03 -0.22733011510E+02 -0.78938942056E+03  0.79827422206E+03  0.12700000000E+01 0. -1.
<mgrwt>
<rscale>  1 0.17242280E+03</rscale>
<asrwt>0</asrwt>
<pdfrwt beam="2">  1       21 0.13951937E+00 0.17242280E+03</pdfrwt>
<pdfrwt beam="1">  1        4 0.10798053E-01 0.17242280E+03</pdfrwt>
<totfact> 0.10130640E+03</totfact>
</mgrwt>
</event>
<event>
 6    4  0.6277709E-003  0.1310964E+03  0.7818608E-02  0.1225838E+00
         21   -1    0    0  501  502  0.00000000000E+00  0.00000000000E+00  0.26902273888E+03  0.26902273888E+03  0.00000000000E+00 0.  1.
          4   -1    0    0  502    0 -0.00000000000E+00 -0.00000000000E+00 -0.82507166710E+02  0.82516940433E+02  0.12700000000E+01 0. -1.
         25    2    1    2    0    0  0.36358422317E+02  0.15471619782E+02 -0.27461019459E+02  0.13394165414E+03  0.12499981293E+03 0.  0.
    9000005    1    3    3    0    0  0.26227634095E+02  0.33371982154E+01  0.49091676482E+02  0.55767538783E+02  0.10000000000E+01 0.  0.
    9000005    1    3    3    0    0  0.10130788222E+02  0.12134421567E+02 -0.76552695941E+02  0.78174115362E+02  0.10000000000E+01 0.  0.
          4    1    1    2  501    0 -0.36358422317E+02 -0.15471619782E+02  0.21397659163E+03  0.21759802516E+03  0.12700000000E+01 0.  1.
<mgrwt>
<rscale>  1 0.13109637E+03</rscale>
<asrwt>0</asrwt>
<pdfrwt beam="1">  1       21 0.41388113E-01 0.13109637E+03</pdfrwt>
<pdfrwt beam="2">  1        4 0.12694393E-01 0.13109637E+03</pdfrwt>
<totfact> 0.11614640E+04</totfact>
</mgrwt>
</event>
<event>
 6    4  0.6277709E-003  0.1280308E+03  0.7818608E-02  0.1230407E+00
          4   -1    0    0  502    0 -0.00000000000E+00  0.00000000000E+00  0.23898206934E+03  0.23898544384E+03  0.12700000000E+01 0.  1.
         21   -1    0    0  501  502  0.00000000000E+00 -0.00000000000E+00 -0.29089269060E+02  0.29089269060E+02  0.00000000000E+00 0.  1.
         25    2    1    2    0    0 -0.26546336026E+01  0.27561273574E+02  0.20217136918E+03  0.23930138708E+03  0.12500088184E+03 0.  0.
    9000005    1    3    3    0    0  0.13522749626E+02 -0.48712859500E+01  0.20253063472E+03  0.20304248862E+03  0.10000000000E+01 0.  0.
    9000005    1    3    3    0    0 -0.16177383229E+02  0.32432559524E+02 -0.35926554743E+00  0.36258898455E+02  0.10000000000E+01 0.  0.
          4    1    1    2  501    0  0.26546336026E+01 -0.27561273574E+02  0.77214311075E+01  0.28773325824E+02  0.12700000000E+01 0. -1.
<mgrwt>
<rscale>  1 0.12803082E+03</rscale>
<asrwt>0</asrwt>
<pdfrwt beam="2">  1       21 0.44752723E-02 0.12803082E+03</pdfrwt>
<pdfrwt beam="1">  1        4 0.36768863E-01 0.12803082E+03</pdfrwt>
<totfact> 0.92902226E+04</totfact>
</mgrwt>
</event>
<event>
 6    4  0.6277709E-003  0.1269663E+03  0.7818608E-02  0.1232028E+00
         -4   -1    0    0    0  501 -0.00000000000E+00  0.00000000000E+00  0.85066643600E+03  0.85066738402E+03  0.12700000000E+01 0. -1.
         21   -1    0    0  501  502  0.00000000000E+00 -0.00000000000E+00 -0.15426873380E+02  0.15426873380E+02  0.00000000000E+00 0.  1.
         25    2    1    2    0    0 -0.17304346045E+02  0.13999605487E+02  0.83416674204E+03  0.84377401570E+03  0.12500002677E+03 0.  0.
    9000005    1    3    3    0    0 -0.54694294051E+02 -0.25257216061E+02  0.25267169607E+03  0.25975638348E+03  0.10000000000E+01 0.  0.
    9000005    1    3    3    0    0  0.37389948006E+02  0.39256821547E+02  0.58149504597E+03  0.58401763222E+03  0.10000000000E+01 0.  0.
         -4    1    1    2    0  502  0.17304346045E+02 -0.13999605487E+02  0.10728205821E+01  0.22320241706E+02  0.12700000000E+01 0.  1.
<mgrwt>
<rscale>  1 0.12696628E+03</rscale>
<asrwt>0</asrwt>
<pdfrwt beam="2">  1       21 0.23733658E-02 0.12696628E+03</pdfrwt>
<pdfrwt beam="1">  1       -4 0.13087582E+00 0.12696628E+03</pdfrwt>
<totfact> 0.16876878E+04</totfact>
</mgrwt>
</event>
<event>
 6    4  0.6277709E-003  0.1430598E+03  0.7818608E-02  0.1209270E+00
          4   -1    0    0  502    0 -0.00000000000E+00  0.00000000000E+00  0.21545633067E+03  0.21546007363E+03  0.12700000000E+01 0.  1.
         21   -1    0    0  501  502  0.00000000000E+00 -0.00000000000E+00 -0.10583353806E+03  0.10583353806E+03  0.00000000000E+00 0. -1.
         25    2    1    2    0    0 -0.68680509954E+02  0.11277014336E+02  0.17483654700E+03  0.22590687172E+03  0.12498765148E+03 0.  0.
    9000005    1    3    3    0    0  0.28873293759E+02  0.15757837156E+02  0.92462314358E+02  0.98144057898E+02  0.10000000000E+01 0.  0.
    9000005    1    3    3    0    0 -0.97553803714E+02 -0.44808228194E+01  0.82374232642E+02  0.12776281382E+03  0.10000000000E+01 0.  0.
          4    1    1    2  501    0  0.68680509954E+02 -0.11277014336E+02 -0.65213754389E+02  0.95386739967E+02  0.12700000000E+01 0. -1.
<mgrwt>
<rscale>  1 0.14305977E+03</rscale>
<asrwt>0</asrwt>
<pdfrwt beam="2">  1       21 0.16282083E-01 0.14305977E+03</pdfrwt>
<pdfrwt beam="1">  1        4 0.33148002E-01 0.14305977E+03</pdfrwt>
<totfact> 0.12192269E+04</totfact>
</mgrwt>
</event>
<event>
 6    4  0.6277709E-003  0.1295147E+03  0.7818608E-02  0.1228178E+00
         21   -1    0    0  501  502  0.00000000000E+00  0.00000000000E+00  0.31892917838E+02  0.31892917838E+02  0.00000000000E+00 0. -1.
         -4   -1    0    0    0  501 -0.00000000000E+00 -0.00000000000E+00 -0.24061829439E+03  0.24062164594E+03  0.12700000000E+01 0.  1.
         25    2    1    2    0    0 -0.23517787246E+01 -0.33811835711E+02 -0.19863439625E+03  0.23712795782E+03  0.12500109564E+03 0.  0.
    9000005    1    3    3    0    0 -0.44905746195E+02 -0.62301030091E+02 -0.10113024296E+03  0.12698925321E+03  0.10000000000E+01 0.  0.
    9000005    1    3    3    0    0  0.42553967471E+02  0.28489194380E+02 -0.97504153292E+02  0.11013870461E+03  0.10000000000E+01 0.  0.
         -4    1    1    2    0  502  0.23517787246E+01  0.33811835711E+02 -0.10090980301E+02  0.35386605951E+02  0.12700000000E+01 0. -1.
<mgrwt>
<rscale>  1 0.12951465E+03</rscale>
<asrwt>0</asrwt>
<pdfrwt beam="1">  1       21 0.49066028E-02 0.12951465E+03</pdfrwt>
<pdfrwt beam="2">  1       -4 0.37020401E-01 0.12951465E+03</pdfrwt>
<totfact> 0.78722554E+04</totfact>
</mgrwt>
</event>
<event>
 6    4  0.6277709E-003  0.1269009E+03  0.7818608E-02  0.1232128E+00
         21   -1    0    0  501  502  0.00000000000E+00  0.00000000000E+00  0.44790203536E+02  0.44790203536E+02  0.00000000000E+00 0.  1.
          4   -1    0    0  502    0 -0.00000000000E+00 -0.00000000000E+00 -0.12863335501E+03  0.12863962423E+03  0.12700000000E+01 0.  1.
         25    2    1    2    0    0  0.31524451112E+01  0.21656734317E+02 -0.57959386354E+02  0.13951030170E+03  0.12499952705E+03 0.  0.
    9000005    1    3    3    0    0  0.56246517424E+02  0.25327827871E+02 -0.60246249677E+02  0.86230970000E+02  0.10000000000E+01 0.  0.
    9000005    1    3    3    0    0 -0.53094072313E+02 -0.36710935545E+01  0.22868633226E+01  0.53279331701E+02  0.10000000000E+01 0.  0.
          4    1    1    2  501    0 -0.31524451112E+01 -0.21656734317E+02 -0.25883765119E+02  0.33919526061E+02  0.12700000000E+01 0. -1.
<mgrwt>
<rscale>  1 0.12690088E+03</rscale>
<asrwt>0</asrwt>
<pdfrwt beam="1">  1       21 0.68908007E-02 0.12690088E+03</pdfrwt>
<pdfrwt beam="2">  1        4 0.19791614E-01 0.12690088E+03</pdfrwt>
<totfact> 0.14197916E+05</totfact>
</mgrwt>
</event>
<event>
 6    4  0.6277709E-003  0.1274386E+03  0.7818608E-02  0.1231307E+00
          4   -1    0    0  502    0 -0.00000000000E+00  0.00000000000E+00  0.77561520712E+03  0.77561624687E+03  0.12700000000E+01 0.  1.
         21   -1    0    0  501  502  0.00000000000E+00 -0.00000000000E+00 -0.25123819251E+02  0.25123819251E+02  0.00000000000E+00 0. -1.
         25    2    1    2    0    0  0.25345101774E+01 -0.24680551958E+02  0.76254981410E+03  0.77312536116E+03  0.12500020681E+03 0.  0.
    9000005    1    3    3    0    0 -0.55792540372E+02 -0.18938173648E+02  0.23279588018E+03  0.24013825978E+03  0.10000000000E+01 0.  0.
    9000005    1    3    3    0    0  0.58327050550E+02 -0.57423783097E+01  0.52975393392E+03  0.53298710138E+03  0.10000000000E+01 0.  0.
          4    1    1    2  501    0 -0.25345101774E+01  0.24680551958E+02 -0.12058426234E+02  0.27614704960E+02  0.12700000000E+01 0. -1.
<mgrwt>
<rscale>  1 0.12743863E+03</rscale>
<asrwt>0</asrwt>
<pdfrwt beam="2">  1       21 0.38652036E-02 0.12743863E+03</pdfrwt>
<pdfrwt beam="1">  1        4 0.11932795E+00 0.12743863E+03</pdfrwt>
<totfact> 0.94903647E+03</totfact>
</mgrwt>
</event>
<event>
 6    4  0.6277709E-003  0.1279058E+03  0.7818608E-02  0.1230597E+00
         21   -1    0    0  501  502  0.00000000000E+00  0.00000000000E+00  0.10955049766E+03  0.10955049766E+03  0.00000000000E+00 0.  1.
          4   -1    0    0  502    0 -0.00000000000E+00 -0.00000000000E+00 -0.20482722397E+03  0.20483116116E+03  0.12700000000E+01 0. -1.
         25    2    1    2    0    0  0.27104228903E+02 -0.12362471296E+01 -0.18259466781E+03  0.22293657509E+03  0.12499494498E+03 0.  0.
    9000005    1    3    3    0    0 -0.27069799445E+02  0.64140137671E+01  0.43255036527E+01  0.28171325784E+02  0.10000000000E+01 0.  0.
    9000005    1    3    3    0    0  0.54174028348E+02 -0.76502608967E+01 -0.18692017146E+03  0.19476524931E+03  0.10000000000E+01 0.  0.
          4    1    1    2  501    0 -0.27104228903E+02  0.12362471296E+01  0.87317941490E+02  0.91445083725E+02  0.12700000000E+01 0.  1.
<mgrwt>
<rscale>  1 0.12790584E+03</rscale>
<asrwt>0</asrwt>
<pdfrwt beam="1">  1       21 0.16853923E-01 0.12790584E+03</pdfrwt>
<pdfrwt beam="2">  1        4 0.31512750E-01 0.12790584E+03</pdfrwt>
<totfact> 0.12486655E+04</totfact>
</mgrwt>
</event>
<event>
 6    4  0.6277709E-003  0.1383781E+03  0.7818608E-02  0.1215528E+00
         -4   -1    0    0    0  501 -0.00000000000E+00  0.00000000000E+00  0.46468433583E+03  0.46468607131E+03  0.12700000000E+01 0.  1.
         21   -1    0    0  501  502  0.00000000000E+00 -0.00000000000E+00 -0.21887931273E+02  0.21887931273E+02  0.00000000000E+00 0. -1.
         25    2    1    2    0    0 -0.87629500311E+01 -0.58704978914E+02  0.35055399746E+03  0.37687742830E+03  0.12500170791E+03 0.  0.
    9000005    1    3    3    0    0 -0.40995486872E+02 -0.55874399454E+02  0.33283251915E+03  0.33997215219E+03  0.10000000000E+01 0.  0.
    9000005    1    3    3    0    0  0.32232536841E+02 -0.28305794597E+01  0.17721478312E+02  0.36905276112E+02  0.10000000000E+01 0.  0.
         -4    1    1    2    0  502  0.87629500311E+01  0.58704978914E+02  0.92242407094E+02  0.10969657428E+03  0.12700000000E+01 0. -1.
<mgrwt>
<rscale>  1 0.13837807E+03</rscale>
<asrwt>0</asrwt>
<pdfrwt beam="2">  1       21 0.33673744E-02 0.13837807E+03</pdfrwt>
<pdfrwt beam="1">  1       -4 0.71492858E-01 0.13837807E+03</pdfrwt>
<totfact> 0.38570933E+04</totfact>
</mgrwt>
</event>
<event>
 6    4  0.6277709E-003  0.1269298E+03  0.7818608E-02  0.1232084E+00
          4   -1    0    0  502    0 -0.00000000000E+00  0.00000000000E+00  0.55984268476E+03  0.55984412525E+03  0.12700000000E+01 0. -1.
         21   -1    0    0  501  502  0.00000000000E+00 -0.00000000000E+00 -0.13277656636E+02  0.13277656636E+02  0.00000000000E+00 0. -1.
         25    2    1    2    0    0  0.19754099820E+01 -0.21980300916E+02  0.53131534964E+03  0.54626658747E+03  0.12499659179E+03 0.  0.
    9000005    1    3    3    0    0 -0.18718034456E+02  0.33880396319E+02  0.61399253791E+02  0.72588666021E+02  0.10000000000E+01 0.  0.
    9000005    1    3    3    0    0  0.20693444438E+02 -0.55860697236E+02  0.46991609584E+03  0.47367792145E+03  0.10000000000E+01 0.  0.
          4    1    1    2  501    0 -0.19754099820E+01  0.21980300916E+02  0.15249678488E+02  0.26855194413E+02  0.12700000000E+01 0.  1.
<mgrwt>
<rscale>  1 0.12692984E+03</rscale>
<asrwt>0</asrwt>
<pdfrwt beam="2">  1       21 0.20427168E-02 0.12692984E+03</pdfrwt>
<pdfrwt beam="1">  1        4 0.86134409E-01 0.12692984E+03</pdfrwt>
<totfact> 0.57222638E+04</totfact>
</mgrwt>
</event>
<event>
 6    4  0.6277709E-003  0.1325019E+03  0.7818608E-02  0.1223790E+00
         21   -1    0    0  501  502  0.00000000000E+00  0.00000000000E+00  0.36395458407E+03  0.36395458407E+03  0.00000000000E+00 0.  1.
         -4   -1    0    0    0  501 -0.00000000000E+00 -0.00000000000E+00 -0.30802807736E+02  0.30828977674E+02  0.12700000000E+01 0. -1.
         25    2    1    2    0    0  0.24206329749E+02 -0.36677528509E+02  0.12540792073E+03  0.18243877151E+03  0.12500228507E+03 0.  0.
    9000005    1    3    3    0    0  0.31403366079E+02  0.41994812448E+02  0.61448371667E+02  0.80787610772E+02  0.10000000000E+01 0.  0.
    9000005    1    3    3    0    0 -0.71970363304E+01 -0.78672340957E+02  0.63959549064E+02  0.10165116074E+03  0.10000000000E+01 0.  0.
         -4    1    1    2    0  502 -0.24206329749E+02  0.36677528509E+02  0.20774385560E+03  0.21234479023E+03  0.12700000000E+01 0.  1.
<mgrwt>
<rscale>  1 0.13250192E+03</rscale>
<asrwt>0</asrwt>
<pdfrwt beam="1">  1       21 0.55993010E-01 0.13250192E+03</pdfrwt>
<pdfrwt beam="2">  1       -4 0.47410773E-02 0.13250192E+03</pdfrwt>
<totfact> 0.31889197E+04</totfact>
</mgrwt>
</event>
<event>
 6    4  0.6277709E-003  0.1281593E+03  0.7818608E-02  0.1230213E+00
         21   -1    0    0  501  502  0.00000000000E+00  0.00000000000E+00  0.75961437072E+03  0.75961437072E+03  0.00000000000E+00 0.  1.
         -4   -1    0    0    0  501 -0.00000000000E+00 -0.00000000000E+00 -0.59598857705E+02  0.59612387469E+02  0.12700000000E+01 0. -1.
         25    2    1    2    0    0 -0.20469222471E+02  0.19542066160E+02  0.99119193470E+01  0.12854197892E+03  0.12499565105E+03 0.  0.
    9000005    1    3    3    0    0  0.52563674517E+02  0.55608945106E+01 -0.34761501017E+01  0.52980628969E+02  0.10000000000E+01 0.  0.
    9000005    1    3    3    0    0 -0.73032896987E+02  0.13981171650E+02  0.13388069449E+02  0.75561349952E+02  0.10000000000E+01 0.  0.
         -4    1    1    2    0  502  0.20469222471E+02 -0.19542066160E+02  0.69010359367E+03  0.69068477927E+03  0.12700000000E+01 0.  1.
<mgrwt>
<rscale>  1 0.12815925E+03</rscale>
<asrwt>0</asrwt>
<pdfrwt beam="1">  1       21 0.11686374E+00 0.12815925E+03</pdfrwt>
<pdfrwt beam="2">  1       -4 0.91701780E-02 0.12815925E+03</pdfrwt>
<totfact> 0.20712604E+03</totfact>
</mgrwt>
</event>
<event>
 6    4  0.6277709E-003  0.1278250E+03  0.7818608E-02  0.1230719E+00
         21   -1    0    0  501  502  0.00000000000E+00  0.00000000000E+00  0.45954121196E+03  0.45954121196E+03  0.00000000000E+00 0.  1.
         -4   -1    0    0    0  501 -0.00000000000E+00 -0.00000000000E+00 -0.22560657933E+02  0.22596375514E+02  0.12700000000E+01 0. -1.
         25    2    1    2    0    0 -0.24915129740E+02 -0.97539185959E+01  0.16441186687E+03  0.20825585253E+03  0.12499334193E+03 0.  0.
    9000005    1    3    3    0    0 -0.57364711495E+00  0.49839515489E+02  0.27434626549E+02  0.56903120381E+02  0.10000000000E+01 0.  0.
    9000005    1    3    3    0    0 -0.24341482625E+02 -0.59593434085E+02  0.13697724032E+03  0.15135273215E+03  0.10000000000E+01 0.  0.
         -4    1    1    2    0  502  0.24915129740E+02  0.97539185959E+01  0.27256868715E+03  0.27388173494E+03  0.12700000000E+01 0.  1.
<mgrwt>
<rscale>  1 0.12782503E+03</rscale>
<asrwt>0</asrwt>
<pdfrwt beam="1">  1       21 0.70698641E-01 0.12782503E+03</pdfrwt>
<pdfrwt beam="2">  1       -4 0.34737533E-02 0.12782503E+03</pdfrwt>
<totfact> 0.31605905E+04</totfact>
</mgrwt>
</event>
<event>
 6    4  0.6277709E-003  0.1271028E+03  0.7818608E-02  0.1231819E+00
         -4   -1    0    0    0  501 -0.00000000000E+00  0.00000000000E+00  0.27379985021E+03  0.27380279559E+03  0.12700000000E+01 0.  1.
         21   -1    0    0  501  502  0.00000000000E+00 -0.00000000000E+00 -0.21193847858E+02  0.21193847858E+02  0.00000000000E+00 0.  1.
         25    2    1    2    0    0  0.22620305711E+02  0.46137392389E+01  0.22927942483E+03  0.26215296919E+03  0.12498863861E+03 0.  0.
    9000005    1    3    3    0    0  0.61911843473E+02 -0.28817039072E+02  0.17197954459E+03  0.18504448616E+03  0.10000000000E+01 0.  0.
    9000005    1    3    3    0    0 -0.39291537763E+02  0.33430778311E+02  0.57299880243E+02  0.77108483023E+02  0.10000000000E+01 0.  0.
         -4    1    1    2    0  502 -0.22620305711E+02 -0.46137392389E+01  0.23326577516E+02  0.32843674259E+02  0.12700000000E+01 0. -1.
<mgrwt>
<rscale>  1 0.12710281E+03</rscale>
<asrwt>0</asrwt>
<pdfrwt beam="2">  1       21 0.32605922E-02 0.12710281E+03</pdfrwt>
<pdfrwt beam="1">  1       -4 0.42126205E-01 0.12710281E+03</pdfrwt>
<totfact> 0.12013172E+05</totfact>
</mgrwt>
</event>
<event>
 6    4  0.6277709E-003  0.1274404E+03  0.7818608E-02  0.1231304E+00
         -4   -1    0    0    0  501 -0.00000000000E+00  0.00000000000E+00  0.98737354599E+02  0.98745521889E+02  0.12700000000E+01 0. -1.
         21   -1    0    0  501  502  0.00000000000E+00 -0.00000000000E+00 -0.58782623509E+02  0.58782623509E+02  0.00000000000E+00 0. -1.
         25    2    1    2    0    0  0.17532070756E+02  0.17561469484E+02  0.31427381713E+02  0.13125825193E+03  0.12500107865E+03 0.  0.
    9000005    1    3    3    0    0 -0.12247388406E+02  0.11448013470E+02  0.75701707343E+02  0.77542272535E+02  0.10000000000E+01 0.  0.
    9000005    1    3    3    0    0  0.29779459162E+02  0.61134560142E+01 -0.44274325631E+02  0.53715979396E+02  0.10000000000E+01 0.  0.
         -4    1    1    2    0  502 -0.17532070756E+02 -0.17561469484E+02  0.85273493771E+01  0.26269893468E+02  0.12700000000E+01 0.  1.
<mgrwt>
<rscale>  1 0.12744037E+03</rscale>
<asrwt>0</asrwt>
<pdfrwt beam="2">  1       21 0.90434806E-02 0.12744037E+03</pdfrwt>
<pdfrwt beam="1">  1       -4 0.15192046E-01 0.12744037E+03</pdfrwt>
<totfact> 0.14203586E+05</totfact>
</mgrwt>
</event>
<event>
 6    4  0.6277709E-003  0.1267686E+03  0.7818608E-02  0.1232331E+00
         21   -1    0    0  501  502  0.00000000000E+00  0.00000000000E+00  0.81195864505E+01  0.81195864505E+01  0.00000000000E+00 0. -1.
          4   -1    0    0  502    0 -0.00000000000E+00 -0.00000000000E+00 -0.68869026468E+03  0.68869143567E+03  0.12700000000E+01 0. -1.
         25    2    1    2    0    0 -0.12468581850E+02 -0.17046846082E+02 -0.54154689388E+03  0.55618639408E+03  0.12499682477E+03 0.  0.
    9000005    1    3    3    0    0  0.54995380350E+01  0.50265504099E+02 -0.14506043122E+03  0.15362419903E+03  0.10000000000E+01 0.  0.
    9000005    1    3    3    0    0 -0.17968119885E+02 -0.67312350180E+02 -0.39648646265E+03  0.40256219505E+03  0.10000000000E+01 0.  0.
          4    1    1    2  501    0  0.12468581850E+02  0.17046846082E+02 -0.13902378435E+03  0.14062462803E+03  0.12700000000E+01 0.  1.
<mgrwt>
<rscale>  1 0.12676856E+03</rscale>
<asrwt>0</asrwt>
<pdfrwt beam="1">  1       21 0.12491669E-02 0.12676856E+03</pdfrwt>
<pdfrwt beam="2">  1        4 0.10596010E+00 0.12676856E+03</pdfrwt>
<totfact> 0.78260227E+04</totfact>
</mgrwt>
</event>
<event>
 6    4  0.6277709E-003  0.1268620E+03  0.7818608E-02  0.1232188E+00
         21   -1    0    0  501  502  0.00000000000E+00  0.00000000000E+00  0.17640443507E+02  0.17640443507E+02  0.00000000000E+00 0. -1.
         -4   -1    0    0    0  501 -0.00000000000E+00 -0.00000000000E+00 -0.36627569724E+03  0.36627789899E+03  0.12700000000E+01 0. -1.
         25    2    1    2    0    0  0.18634075240E+02  0.11017465868E+02 -0.33521341048E+03  0.35841594867E+03  0.12500139354E+03 0.  0.
    9000005    1    3    3    0    0 -0.64045078646E+00 -0.95145311683E+01  0.89407544155E+01  0.13110056067E+02  0.10000000000E+01 0.  0.
    9000005    1    3    3    0    0  0.19274526027E+02  0.20531997036E+02 -0.34415416489E+03  0.34530589261E+03  0.10000000000E+01 0.  0.
         -4    1    1    2    0  502 -0.18634075240E+02 -0.11017465868E+02 -0.13421843250E+02  0.25502393818E+02  0.12700000000E+01 0.  1.
<mgrwt>
<rscale>  1 0.12686198E+03</rscale>
<asrwt>0</asrwt>
<pdfrwt beam="1">  1       21 0.27139148E-02 0.12686198E+03</pdfrwt>
<pdfrwt beam="2">  1       -4 0.56353785E-01 0.12686198E+03</pdfrwt>
<totfact> 0.89967081E+04</totfact>
</mgrwt>
</event>
<event>
 6    4  0.6277709E-003  0.1308082E+03  0.7818608E-02  0.1226261E+00
         -4   -1    0    0    0  501 -0.00000000000E+00  0.00000000000E+00  0.16262527371E+03  0.16263023258E+03  0.12700000000E+01 0. -1.
         21   -1    0    0  501  502  0.00000000000E+00 -0.00000000000E+00 -0.67236968162E+02  0.67236968162E+02  0.00000000000E+00 0.  1.
         25    2    1    2    0    0  0.31209186779E+02 -0.22610222712E+02  0.12524498373E+03  0.18109969474E+03  0.12500223187E+03 0.  0.
    9000005    1    3    3    0    0 -0.12680855549E+02  0.27290097921E+02 -0.88962643931E+01  0.31395812812E+02  0.10000000000E+01 0.  0.
    9000005    1    3    3    0    0  0.43890042328E+02 -0.49900320633E+02  0.13414124812E+03  0.14970388192E+03  0.10000000000E+01 0.  0.
         -4    1    1    2    0  502 -0.31209186779E+02  0.22610222712E+02 -0.29856678180E+02  0.48767506010E+02  0.12700000000E+01 0.  1.
<mgrwt>
<rscale>  1 0.13080823E+03</rscale>
<asrwt>0</asrwt>
<pdfrwt beam="2">  1       21 0.10344149E-01 0.13080823E+03</pdfrwt>
<pdfrwt beam="1">  1       -4 0.25020577E-01 0.13080823E+03</pdfrwt>
<totfact> 0.46086944E+04</totfact>
</mgrwt>
</event>
<event>
 6    4  0.6277709E-003  0.1367583E+03  0.7818608E-02  0.1217759E+00
         -4   -1    0    0    0  501 -0.00000000000E+00  0.00000000000E+00  0.53036754576E+02  0.53051957890E+02  0.12700000000E+01 0.  1.
         21   -1    0    0  501  502  0.00000000000E+00 -0.00000000000E+00 -0.18724711618E+03  0.18724711618E+03  0.00000000000E+00 0. -1.
         25    2    1    2    0    0 -0.44915814971E+02  0.32555984367E+02 -0.12247472265E+03  0.18358346181E+03  0.12500202882E+03 0.  0.
    9000005    1    3    3    0    0 -0.26854088626E+02  0.80298779556E+02 -0.87064528841E+02  0.12145068240E+03  0.10000000000E+01 0.  0.
    9000005    1    3    3    0    0 -0.18061726346E+02 -0.47742795189E+02 -0.35410193808E+02  0.62132779405E+02  0.10000000000E+01 0.  0.
         -4    1    1    2    0  502  0.44915814971E+02 -0.32555984367E+02 -0.11735638957E+02  0.56715612263E+02  0.12700000000E+01 0. -1.
<mgrwt>
<rscale>  1 0.13675829E+03</rscale>
<asrwt>0</asrwt>
<pdfrwt beam="2">  1       21 0.28807249E-01 0.13675829E+03</pdfrwt>
<pdfrwt beam="1">  1       -4 0.81610015E-02 0.13675829E+03</pdfrwt>
<totfact> 0.50072731E+04</totfact>
</mgrwt>
</event>
<event>
 6    4  0.6277709E-003  0.1281023E+03  0.7818608E-02  0.1230299E+00
          4   -1    0    0  502    0 -0.00000000000E+00  0.00000000000E+00  0.15879897075E+02  0.15930600463E+02  0.12700000000E+01 0.  1.
         21   -1    0    0  501  502  0.00000000000E+00 -0.00000000000E+00 -0.10814827591E+04  0.10814827591E+04  0.00000000000E+00 0. -1.
         25    2    1    2    0    0 -0.33746430441E+01  0.27814728574E+02 -0.24622238929E+03  0.27755299380E+03  0.12500060816E+03 0.  0.
    9000005    1    3    3    0    0  0.38681250639E+02  0.33537178465E+02 -0.22371572381E+03  0.22950099471E+03  0.10000000000E+01 0.  0.
    9000005    1    3    3    0    0 -0.42055893683E+02 -0.57224498911E+01 -0.22506665473E+02  0.48051999094E+02  0.10000000000E+01 0.  0.
          4    1    1    2  501    0  0.33746430441E+01 -0.27814728574E+02 -0.81938047270E+03  0.81986036572E+03  0.12700000000E+01 0. -1.
<mgrwt>
<rscale>  1 0.12810230E+03</rscale>
<asrwt>0</asrwt>
<pdfrwt beam="2">  1       21 0.16638197E+00 0.12810230E+03</pdfrwt>
<pdfrwt beam="1">  1        4 0.24470186E-02 0.12810230E+03</pdfrwt>
<totfact> 0.70249928E+03</totfact>
</mgrwt>
</event>
<event>
 6    4  0.6277709E-003  0.1269837E+03  0.7818608E-02  0.1232001E+00
         21   -1    0    0  501  502  0.00000000000E+00  0.00000000000E+00  0.16523523726E+04  0.16523523726E+04  0.00000000000E+00 0.  1.
          4   -1    0    0  502    0 -0.00000000000E+00 -0.00000000000E+00 -0.44085434526E+01  0.45878268683E+01  0.12700000000E+01 0.  1.
         25    2    1    2    0    0 -0.16898229168E+02  0.14635878498E+02  0.92793307352E+03  0.93658135819E+03  0.12500036995E+03 0.  0.
    9000005    1    3    3    0    0 -0.43291373096E+02 -0.40004259940E+02  0.61489752194E+03  0.61771712481E+03  0.10000000000E+01 0.  0.
    9000005    1    3    3    0    0  0.26393143928E+02  0.54640138438E+02  0.31303555158E+03  0.31886423338E+03  0.10000000000E+01 0.  0.
          4    1    1    2  501    0  0.16898229168E+02 -0.14635878498E+02  0.72001075563E+03  0.72035884128E+03  0.12700000000E+01 0. -1.
<mgrwt>
<rscale>  1 0.12698367E+03</rscale>
<asrwt>0</asrwt>
<pdfrwt beam="1">  1       21 0.25420757E+00 0.12698367E+03</pdfrwt>
<pdfrwt beam="2">  1        4 0.69206734E-03 0.12698367E+03</pdfrwt>
<totfact> 0.13618900E+04</totfact>
</mgrwt>
</event>
<event>
 6    4  0.6277709E-003  0.1268624E+03  0.7818608E-02  0.1232187E+00
         -4   -1    0    0    0  501 -0.00000000000E+00  0.00000000000E+00  0.44284233393E+02  0.44302440421E+02  0.12700000000E+01 0.  1.
         21   -1    0    0  501  502  0.00000000000E+00 -0.00000000000E+00 -0.12945448299E+03  0.12945448299E+03  0.00000000000E+00 0.  1.
         25    2    1    2    0    0  0.81565487410E+01  0.20071064564E+02 -0.59442017095E+02  0.14009787161E+03  0.12499873325E+03 0.  0.
    9000005    1    3    3    0    0  0.49009910527E+02  0.54567797756E+02 -0.32858472167E+02  0.80375960802E+02  0.10000000000E+01 0.  0.
    9000005    1    3    3    0    0 -0.40853361786E+02 -0.34496733191E+02 -0.26583544928E+02  0.59721910812E+02  0.10000000000E+01 0.  0.
         -4    1    1    2    0  502 -0.81565487410E+01 -0.20071064564E+02 -0.25728232498E+02  0.33659051792E+02  0.12700000000E+01 0. -1.
<mgrwt>
<rscale>  1 0.12686237E+03</rscale>
<asrwt>0</asrwt>
<pdfrwt beam="2">  1       21 0.19916074E-01 0.12686237E+03</pdfrwt>
<pdfrwt beam="1">  1       -4 0.68148389E-02 0.12686237E+03</pdfrwt>
<totfact> 0.13376405E+05</totfact>
</mgrwt>
</event>
<event>
 6    4  0.6277709E-003  0.1268120E+03  0.7818608E-02  0.1232264E+00
         -4   -1    0    0    0  501 -0.00000000000E+00  0.00000000000E+00  0.27077193145E+02  0.27106960151E+02  0.12700000000E+01 0.  1.
         21   -1    0    0  501  502  0.00000000000E+00 -0.00000000000E+00 -0.22333888169E+03  0.22333888169E+03  0.00000000000E+00 0.  1.
         25    2    1    2    0    0 -0.17896623860E+02  0.11707279887E+02 -0.13350299395E+03  0.18413131708E+03  0.12499577187E+03 0.  0.
    9000005    1    3    3    0    0  0.22246763535E+02  0.95981760348E+01  0.16172929874E+02  0.29148021060E+02  0.10000000000E+01 0.  0.
    9000005    1    3    3    0    0 -0.40143387395E+02  0.21091038521E+01 -0.14967592383E+03  0.15498329602E+03  0.10000000000E+01 0.  0.
         -4    1    1    2    0  502  0.17896623860E+02 -0.11707279887E+02 -0.62758694591E+02  0.66314524764E+02  0.12700000000E+01 0. -1.
<mgrwt>
<rscale>  1 0.12681204E+03</rscale>
<asrwt>0</asrwt>
<pdfrwt beam="2">  1       21 0.34359827E-01 0.12681204E+03</pdfrwt>
<pdfrwt beam="1">  1       -4 0.41682897E-02 0.12681204E+03</pdfrwt>
<totfact> 0.10481626E+05</totfact>
</mgrwt>
</event>
<event>
 6    4  0.6277709E-003  0.1281685E+03  0.7818608E-02  0.1230199E+00
         21   -1    0    0  501  502  0.00000000000E+00  0.00000000000E+00  0.43294325043E+03  0.43294325043E+03  0.00000000000E+00 0. -1.
          4   -1    0    0  502    0 -0.00000000000E+00 -0.00000000000E+00 -0.14280928514E+02  0.14337287722E+02  0.12700000000E+01 0. -1.
         25    2    1    2    0    0 -0.28308827421E+02  0.69231047188E+00  0.35985024092E+03  0.38199391797E+03  0.12500115388E+03 0.  0.
    9000005    1    3    3    0    0 -0.34328327503E+02  0.16178791599E+02  0.36306219785E+03  0.36504156869E+03  0.10000000000E+01 0.  0.
    9000005    1    3    3    0    0  0.60195000814E+01 -0.15486481127E+02 -0.32119569224E+01  0.16952349283E+02  0.10000000000E+01 0.  0.
          4    1    1    2  501    0  0.28308827421E+02 -0.69231047188E+00  0.58812080992E+02  0.65286620179E+02  0.12700000000E+01 0.  1.
<mgrwt>
<rscale>  1 0.12816847E+03</rscale>
<asrwt>0</asrwt>
<pdfrwt beam="1">  1       21 0.66606644E-01 0.12816847E+03</pdfrwt>
<pdfrwt beam="2">  1        4 0.22015449E-02 0.12816847E+03</pdfrwt>
<totfact> 0.73277929E+04</totfact>
</mgrwt>
</event>
<event>
 6    4  0.6277709E-003  0.1615785E+03  0.7818608E-02  0.1186926E+00
         21   -1    0    0  501  502  0.00000000000E+00  0.00000000000E+00  0.73587222697E+02  0.73587222697E+02  0.00000000000E+00 0. -1.
          4   -1    0    0  502    0 -0.00000000000E+00 -0.00000000000E+00 -0.29950249152E+03  0.29950518414E+03  0.12700000000E+01 0.  1.
         25    2    1    2    0    0  0.96138009182E+02  0.35202913690E+02 -0.21667476684E+03  0.27028792387E+03  0.12500338100E+03 0.  0.
    9000005    1    3    3    0    0  0.57942624627E+02  0.27448014525E+02 -0.22187503460E+03  0.23095513033E+03  0.10000000000E+01 0.  0.
    9000005    1    3    3    0    0  0.38195384554E+02  0.77548991645E+01  0.52002677594E+01  0.39332793532E+02  0.10000000000E+01 0.  0.
          4    1    1    2  501    0 -0.96138009182E+02 -0.35202913690E+02 -0.92405019840E+01  0.10280448297E+03  0.12700000000E+01 0. -1.
<mgrwt>
<rscale>  1 0.16157849E+03</rscale>
<asrwt>0</asrwt>
<pdfrwt beam="1">  1       21 0.11321111E-01 0.16157849E+03</pdfrwt>
<pdfrwt beam="2">  1        4 0.46078356E-01 0.16157849E+03</pdfrwt>
<totfact> 0.12382878E+04</totfact>
</mgrwt>
</event>
<event>
 6    4  0.6277709E-003  0.1459117E+03  0.7818608E-02  0.1205589E+00
         21   -1    0    0  501  502  0.00000000000E+00  0.00000000000E+00  0.23956069084E+03  0.23956069084E+03  0.00000000000E+00 0.  1.
          4   -1    0    0  502    0 -0.00000000000E+00 -0.00000000000E+00 -0.14842624684E+03  0.14843168008E+03  0.12700000000E+01 0. -1.
         25    2    1    2    0    0 -0.20014296793E+02  0.72560758091E+02 -0.10377390584E+03  0.17905095945E+03  0.12499834741E+03 0.  0.
    9000005    1    3    3    0    0 -0.58333412205E+02  0.18478193805E+02 -0.67856979468E+01  0.61573341004E+02  0.10000000000E+01 0.  0.
    9000005    1    3    3    0    0  0.38319115412E+02  0.54082564286E+02 -0.96988207894E+02  0.11747761845E+03  0.10000000000E+01 0.  0.
          4    1    1    2  501    0  0.20014296793E+02 -0.72560758091E+02  0.19490834984E+03  0.20894141147E+03  0.12700000000E+01 0.  1.
<mgrwt>
<rscale>  1 0.14591169E+03</rscale>
<asrwt>0</asrwt>
<pdfrwt beam="1">  1       21 0.36855491E-01 0.14591169E+03</pdfrwt>
<pdfrwt beam="2">  1        4 0.22835484E-01 0.14591169E+03</pdfrwt>
<totfact> 0.52154907E+03</totfact>
</mgrwt>
</event>
<event>
 6    4  0.6277709E-003  0.1313521E+03  0.7818608E-02  0.1225463E+00
         21   -1    0    0  501  502  0.00000000000E+00  0.00000000000E+00  0.48893238677E+02  0.48893238677E+02  0.00000000000E+00 0. -1.
         -4   -1    0    0    0  501 -0.00000000000E+00 -0.00000000000E+00 -0.17699815325E+03  0.17700270945E+03  0.12700000000E+01 0.  1.
         25    2    1    2    0    0 -0.30486586407E+02 -0.26440754588E+02 -0.13087883070E+03  0.18542555198E+03  0.12499928619E+03 0.  0.
    9000005    1    3    3    0    0  0.31138049306E+02  0.32978808907E+02 -0.52099309782E+02  0.69083413576E+02  0.10000000000E+01 0.  0.
    9000005    1    3    3    0    0 -0.61624635714E+02 -0.59419563496E+02 -0.78779520915E+02  0.11634213840E+03  0.10000000000E+01 0.  0.
         -4    1    1    2    0  502  0.30486586407E+02  0.26440754588E+02  0.27739161236E+01  0.40470396151E+02  0.12700000000E+01 0. -1.
<mgrwt>
<rscale>  1 0.13135207E+03</rscale>
<asrwt>0</asrwt>
<pdfrwt beam="1">  1       21 0.75220367E-02 0.13135207E+03</pdfrwt>
<pdfrwt beam="2">  1       -4 0.27232105E-01 0.13135207E+03</pdfrwt>
<totfact> 0.68509888E+04</totfact>
</mgrwt>
</event>
<event>
 6    4  0.6277709E-003  0.1280565E+03  0.7818608E-02  0.1230368E+00
         21   -1    0    0  501  502  0.00000000000E+00  0.00000000000E+00  0.35386479283E+02  0.35386479283E+02  0.00000000000E+00 0. -1.
          4   -1    0    0  502    0 -0.00000000000E+00 -0.00000000000E+00 -0.22095098285E+03  0.22095463273E+03  0.12700000000E+01 0.  1.
         25    2    1    2    0    0 -0.19052573894E+02  0.20615156900E+02 -0.18871954951E+03  0.22806475297E+03  0.12494189815E+03 0.  0.
    9000005    1    3    3    0    0 -0.47945330665E+02 -0.35226850112E+02 -0.58433337199E+02  0.83397485559E+02  0.10000000000E+01 0.  0.
    9000005    1    3    3    0    0  0.28892756771E+02  0.55842007012E+02 -0.13028621231E+03  0.14466726741E+03  0.10000000000E+01 0.  0.
          4    1    1    2  501    0  0.19052573894E+02 -0.20615156900E+02  0.31550459386E+01  0.28276359046E+02  0.12700000000E+01 0. -1.
<mgrwt>
<rscale>  1 0.12805648E+03</rscale>
<asrwt>0</asrwt>
<pdfrwt beam="1">  1       21 0.54440737E-02 0.12805648E+03</pdfrwt>
<pdfrwt beam="2">  1        4 0.33994493E-01 0.12805648E+03</pdfrwt>
<totfact> 0.77801261E+04</totfact>
</mgrwt>
</event>
<event>
 6    4  0.6277709E-003  0.1267322E+03  0.7818608E-02  0.1232387E+00
          4   -1    0    0  502    0 -0.00000000000E+00  0.00000000000E+00  0.59554310306E+02  0.59567850188E+02  0.12700000000E+01 0.  1.
         21   -1    0    0  501  502  0.00000000000E+00 -0.00000000000E+00 -0.92203392370E+02  0.92203392370E+02  0.00000000000E+00 0.  1.
         25    2    1    2    0    0  0.66273511315E+00  0.20882750927E+02 -0.23343690253E+02  0.12886421916E+03  0.12499812239E+03 0.  0.
    9000005    1    3    3    0    0 -0.58243572293E+02  0.21444143768E+02  0.72176203903E+01  0.62492071973E+02  0.10000000000E+01 0.  0.
    9000005    1    3    3    0    0  0.58906307406E+02 -0.56139284105E+00 -0.30561310643E+02  0.66372147188E+02  0.10000000000E+01 0.  0.
          4    1    1    2  501    0 -0.66273511315E+00 -0.20882750927E+02 -0.93053918118E+01  0.22907023396E+02  0.12700000000E+01 0. -1.
<mgrwt>
<rscale>  1 0.12673223E+03</rscale>
<asrwt>0</asrwt>
<pdfrwt beam="2">  1       21 0.14185137E-01 0.12673223E+03</pdfrwt>
<pdfrwt beam="1">  1        4 0.91639158E-02 0.12673223E+03</pdfrwt>
<totfact> 0.15197736E+05</totfact>
</mgrwt>
</event>
<event>
 6    4  0.6277709E-003  0.1322588E+03  0.7818608E-02  0.1224142E+00
         21   -1    0    0  501  502  0.00000000000E+00  0.00000000000E+00  0.18527461790E+03  0.18527461790E+03  0.00000000000E+00 0.  1.
          4   -1    0    0  502    0 -0.00000000000E+00 -0.00000000000E+00 -0.46378686698E+02  0.46396071815E+02  0.12700000000E+01 0.  1.
         25    2    1    2    0    0 -0.28192800483E+02 -0.32743881716E+02  0.68203035188E+02  0.14880879114E+03  0.12500162608E+03 0.  0.
    9000005    1    3    3    0    0  0.76551222106E+01 -0.39084086217E+02 -0.26161153948E+02  0.47661018321E+02  0.10000000000E+01 0.  0.
    9000005    1    3    3    0    0 -0.35847922693E+02  0.63402045014E+01  0.94364189136E+02  0.10114777282E+03  0.10000000000E+01 0.  0.
          4    1    1    2  501    0  0.28192800483E+02  0.32743881716E+02  0.70692896009E+02  0.82861898573E+02  0.12700000000E+01 0. -1.
<mgrwt>
<rscale>  1 0.13225885E+03</rscale>
<asrwt>0</asrwt>
<pdfrwt beam="1">  1       21 0.28503787E-01 0.13225885E+03</pdfrwt>
<pdfrwt beam="2">  1        4 0.71368548E-02 0.13225885E+03</pdfrwt>
<totfact> 0.63522261E+04</totfact>
</mgrwt>
</event>
<event>
 6    4  0.6277709E-003  0.1281465E+03  0.7818608E-02  0.1230232E+00
         21   -1    0    0  501  502  0.00000000000E+00  0.00000000000E+00  0.71709132172E+03  0.71709132172E+03  0.00000000000E+00 0. -1.
          4   -1    0    0  502    0 -0.00000000000E+00 -0.00000000000E+00 -0.10243314651E+02  0.10321743798E+02  0.12700000000E+01 0. -1.
         25    2    1    2    0    0  0.21297807720E+02 -0.18523513968E+02  0.41839607369E+03  0.43758061745E+03  0.12499922042E+03 0.  0.
    9000005    1    3    3    0    0  0.54760970093E+02 -0.31880501678E+02  0.37868354729E+03  0.38394968319E+03  0.10000000000E+01 0.  0.
    9000005    1    3    3    0    0 -0.33463162372E+02  0.13356987710E+02  0.39712526404E+02  0.53630934264E+02  0.10000000000E+01 0.  0.
          4    1    1    2  501    0 -0.21297807720E+02  0.18523513968E+02  0.28845193338E+03  0.28983244807E+03  0.12700000000E+01 0.  1.
<mgrwt>
<rscale>  1 0.12814649E+03</rscale>
<asrwt>0</asrwt>
<pdfrwt beam="1">  1       21 0.11032170E+00 0.12814649E+03</pdfrwt>
<pdfrwt beam="2">  1        4 0.15820146E-02 0.12814649E+03</pdfrwt>
<totfact> 0.38728348E+04</totfact>
</mgrwt>
</event>
<event>
 6    4  0.6277709E-003  0.1357327E+03  0.7818608E-02  0.1219189E+00
         21   -1    0    0  501  502  0.00000000000E+00  0.00000000000E+00  0.28900317852E+03  0.28900317852E+03  0.00000000000E+00 0.  1.
         -4   -1    0    0    0  501 -0.00000000000E+00 -0.00000000000E+00 -0.30813603203E+02  0.30839763980E+02  0.12700000000E+01 0.  1.
         25    2    1    2    0    0  0.16097184547E+02  0.50401362310E+02  0.18052031495E+03  0.22585600948E+03  0.12499574487E+03 0.  0.
    9000005    1    3    3    0    0  0.64631024564E+02  0.51324996038E+02  0.83737379762E+02  0.11757709524E+03  0.10000000000E+01 0.  0.
    9000005    1    3    3    0    0 -0.48533840017E+02 -0.92363372808E+00  0.96782935186E+02  0.10827891424E+03  0.10000000000E+01 0.  0.
         -4    1    1    2    0  502 -0.16097184547E+02 -0.50401362310E+02  0.77669260374E+02  0.93986933028E+02  0.12700000000E+01 0. -1.
<mgrwt>
<rscale>  1 0.13573265E+03</rscale>
<asrwt>0</asrwt>
<pdfrwt beam="1">  1       21 0.44462026E-01 0.13573265E+03</pdfrwt>
<pdfrwt beam="2">  1       -4 0.47427816E-02 0.13573265E+03</pdfrwt>
<totfact> 0.51434293E+04</totfact>
</mgrwt>
</event>
<event>
 6    4  0.6277709E-003  0.1357873E+03  0.7818608E-02  0.1219112E+00
          4   -1    0    0  502    0 -0.00000000000E+00  0.00000000000E+00  0.58963872437E+03  0.58964009207E+03  0.12700000000E+01 0.  1.
         21   -1    0    0  501  502  0.00000000000E+00 -0.00000000000E+00 -0.32935559641E+02  0.32935559641E+02  0.00000000000E+00 0.  1.
         25    2    1    2    0    0 -0.42114553250E+02  0.32235583644E+02  0.55296530611E+03  0.56939339024E+03  0.12500173856E+03 0.  0.
    9000005    1    3    3    0    0  0.14687118385E+01 -0.22360951539E+02  0.15171485821E+02  0.27080311117E+02  0.10000000000E+01 0.  0.
    9000005    1    3    3    0    0 -0.43583265088E+02  0.54596535183E+02  0.53779382029E+03  0.54231307913E+03  0.10000000000E+01 0.  0.
          4    1    1    2  501    0  0.42114553250E+02 -0.32235583644E+02  0.37378586227E+01  0.53182261473E+02  0.12700000000E+01 0. -1.
<mgrwt>
<rscale>  1 0.13578735E+03</rscale>
<asrwt>0</asrwt>
<pdfrwt beam="2">  1       21 0.50670096E-02 0.13578735E+03</pdfrwt>
<pdfrwt beam="1">  1        4 0.90715631E-01 0.13578735E+03</pdfrwt>
<totfact> 0.11499644E+04</totfact>
</mgrwt>
</event>
<event>
 6    4  0.6277709E-003  0.1301959E+03  0.7818608E-02  0.1227165E+00
         -4   -1    0    0    0  501 -0.00000000000E+00  0.00000000000E+00  0.74666363466E+02  0.74677163398E+02  0.12700000000E+01 0. -1.
         21   -1    0    0  501  502  0.00000000000E+00 -0.00000000000E+00 -0.10420786374E+03  0.10420786374E+03  0.00000000000E+00 0. -1.
         25    2    1    2    0    0  0.35275288126E+02  0.90473481225E+01 -0.47077480912E+02  0.13844588796E+03  0.12499909689E+03 0.  0.
    9000005    1    3    3    0    0 -0.12594327769E+02 -0.49591280365E+02 -0.34465725290E+02  0.61699257694E+02  0.10000000000E+01 0.  0.
    9000005    1    3    3    0    0  0.47869615895E+02  0.58638628488E+02 -0.12611755622E+02  0.76746630263E+02  0.10000000000E+01 0.  0.
         -4    1    1    2    0  502 -0.35275288126E+02 -0.90473481225E+01  0.17535980641E+02  0.40439139178E+02  0.12700000000E+01 0.  1.
<mgrwt>
<rscale>  1 0.13019591E+03</rscale>
<asrwt>0</asrwt>
<pdfrwt beam="2">  1       21 0.16031979E-01 0.13019591E+03</pdfrwt>
<pdfrwt beam="1">  1       -4 0.11488559E-01 0.13019591E+03</pdfrwt>
<totfact> 0.83559263E+04</totfact>
</mgrwt>
</event>
<event>
 6    4  0.6277709E-003  0.1278239E+03  0.7818608E-02  0.1230721E+00
          4   -1    0    0  502    0 -0.00000000000E+00  0.00000000000E+00  0.28363315502E+03  0.28363599829E+03  0.12700000000E+01 0.  1.
         21   -1    0    0  501  502  0.00000000000E+00 -0.00000000000E+00 -0.72901368102E+02  0.72901368102E+02  0.00000000000E+00 0. -1.
         25    2    1    2    0    0  0.74034180422E+01 -0.25676913794E+02  0.26600891398E+03  0.29512655157E+03  0.12499929848E+03 0.  0.
    9000005    1    3    3    0    0  0.51523513049E+02  0.17416741415E+02  0.64433045967E+02  0.84324567542E+02  0.10000000000E+01 0.  0.
    9000005    1    3    3    0    0 -0.44120095007E+02 -0.43093655209E+02  0.20157586802E+03  0.21080198403E+03  0.10000000000E+01 0.  0.
          4    1    1    2  501    0 -0.74034180422E+01  0.25676913794E+02 -0.55277127067E+02  0.61410814825E+02  0.12700000000E+01 0. -1.
<mgrwt>
<rscale>  1 0.12782386E+03</rscale>
<asrwt>0</asrwt>
<pdfrwt beam="2">  1       21 0.11215595E-01 0.12782386E+03</pdfrwt>
<pdfrwt beam="1">  1        4 0.43636939E-01 0.12782386E+03</pdfrwt>
<totfact> 0.13747439E+04</totfact>
</mgrwt>
</event>
<event>
 6    4  0.6277709E-003  0.1930527E+03  0.7818608E-02  0.1155736E+00
          4   -1    0    0  502    0 -0.00000000000E+00  0.00000000000E+00  0.21124772693E+03  0.21125154445E+03  0.12700000000E+01 0. -1.
         21   -1    0    0  501  502  0.00000000000E+00 -0.00000000000E+00 -0.22008294243E+03  0.22008294243E+03  0.00000000000E+00 0.  1.
         25    2    1    2    0    0  0.14149625219E+03  0.40279085081E+02  0.12701039064E+03  0.23108655134E+03  0.12500304316E+03 0.  0.
    9000005    1    3    3    0    0  0.13294250267E+03 -0.82042233030E+01  0.55585297714E+02  0.14433206026E+03  0.10000000000E+01 0.  0.
    9000005    1    3    3    0    0  0.85537495198E+01  0.48483308384E+02  0.71425092925E+02  0.86754491078E+02  0.10000000000E+01 0.  0.
          4    1    1    2  501    0 -0.14149625219E+03 -0.40279085081E+02 -0.13584560614E+03  0.20024793554E+03  0.12700000000E+01 0.  1.
<mgrwt>
<rscale>  1 0.19305273E+03</rscale>
<asrwt>0</asrwt>
<pdfrwt beam="2">  1       21 0.33858914E-01 0.19305273E+03</pdfrwt>
<pdfrwt beam="1">  1        4 0.32500226E-01 0.19305273E+03</pdfrwt>
<totfact> 0.32237367E+03</totfact>
</mgrwt>
</event>
<event>
 6    4  0.6277709E-003  0.1274358E+03  0.7818608E-02  0.1231311E+00
         21   -1    0    0  501  502  0.00000000000E+00  0.00000000000E+00  0.32654139871E+03  0.32654139871E+03  0.00000000000E+00 0.  1.
         -4   -1    0    0    0  501 -0.00000000000E+00 -0.00000000000E+00 -0.23728121285E+02  0.23762084077E+02  0.12700000000E+01 0.  1.
         25    2    1    2    0    0 -0.21030262814E+02  0.13128059309E+02  0.15613352974E+03  0.20153796535E+03  0.12500101790E+03 0.  0.
    9000005    1    3    3    0    0 -0.48698109753E+02 -0.21871785507E+02  0.17954738318E+02  0.56331638738E+02  0.10000000000E+01 0.  0.
    9000005    1    3    3    0    0  0.27667846939E+02  0.34999844816E+02  0.13817879142E+03  0.14520632662E+03  0.10000000000E+01 0.  0.
         -4    1    1    2    0  502  0.21030262814E+02 -0.13128059309E+02  0.14667974769E+03  0.14876551743E+03  0.12700000000E+01 0. -1.
<mgrwt>
<rscale>  1 0.12743576E+03</rscale>
<asrwt>0</asrwt>
<pdfrwt beam="1">  1       21 0.50237135E-01 0.12743576E+03</pdfrwt>
<pdfrwt beam="2">  1       -4 0.36532829E-02 0.12743576E+03</pdfrwt>
<totfact> 0.60244024E+04</totfact>
</mgrwt>
</event>
<event>
 6    4  0.6277709E-003  0.1292257E+03  0.7818608E-02  0.1228609E+00
         -4   -1    0    0    0  501 -0.00000000000E+00  0.00000000000E+00  0.20405895938E+02  0.20445378183E+02  0.12700000000E+01 0.  1.
         21   -1    0    0  501  502  0.00000000000E+00 -0.00000000000E+00 -0.41123854465E+03  0.41123854465E+03  0.00000000000E+00 0.  1.
         25    2    1    2    0    0 -0.11030796515E+02 -0.30862313574E+02 -0.20043309101E+03  0.23847997529E+03  0.12500045510E+03 0.  0.
    9000005    1    3    3    0    0  0.33305206386E+02  0.27183674040E+02 -0.28274219675E+02  0.51464749149E+02  0.10000000000E+01 0.  0.
    9000005    1    3    3    0    0 -0.44336002901E+02 -0.58045987614E+02 -0.17215887133E+03  0.18701522615E+03  0.10000000000E+01 0.  0.
         -4    1    1    2    0  502  0.11030796515E+02  0.30862313574E+02 -0.19039955770E+03  0.19320394754E+03  0.12700000000E+01 0. -1.
<mgrwt>
<rscale>  1 0.12922567E+03</rscale>
<asrwt>0</asrwt>
<pdfrwt beam="2">  1       21 0.63267466E-01 0.12922567E+03</pdfrwt>
<pdfrwt beam="1">  1       -4 0.31425567E-02 0.12922567E+03</pdfrwt>
<totfact> 0.47093467E+04</totfact>
</mgrwt>
</event>
<event>
 6    4  0.6277709E-003  0.1414546E+03  0.7818608E-02  0.1211385E+00
          4   -1    0    0  502    0 -0.00000000000E+00  0.00000000000E+00  0.49037545357E+03  0.49037709812E+03  0.12700000000E+01 0. -1.
         21   -1    0    0  501  502  0.00000000000E+00 -0.00000000000E+00 -0.43875278447E+02  0.43875278447E+02  0.00000000000E+00 0.  1.
         25    2    1    2    0    0 -0.29916343479E+02 -0.59112493428E+02  0.44609726981E+03  0.46798738038E+03  0.12498055681E+03 0.  0.
    9000005    1    3    3    0    0 -0.62750603417E+01  0.36479345019E+02  0.19071020078E+03  0.19427171610E+03  0.10000000000E+01 0.  0.
    9000005    1    3    3    0    0 -0.23641283138E+02 -0.95591838447E+02  0.25538706903E+03  0.27371566428E+03  0.10000000000E+01 0.  0.
          4    1    1    2  501    0  0.29916343479E+02  0.59112493428E+02  0.40290531065E+00  0.66264996183E+02  0.12700000000E+01 0.  1.
<mgrwt>
<rscale>  1 0.14145464E+03</rscale>
<asrwt>0</asrwt>
<pdfrwt beam="2">  1       21 0.67500432E-02 0.14145464E+03</pdfrwt>
<pdfrwt beam="1">  1        4 0.75443914E-01 0.14145464E+03</pdfrwt>
<totfact> 0.10694246E+04</totfact>
</mgrwt>
</event>
<event>
 6    4  0.6277709E-003  0.1380395E+03  0.7818608E-02  0.1215992E+00
         -4   -1    0    0    0  501 -0.00000000000E+00  0.00000000000E+00  0.12903320141E+04  0.12903326391E+04  0.12700000000E+01 0.  1.
         21   -1    0    0  501  502  0.00000000000E+00 -0.00000000000E+00 -0.79215241887E+01  0.79215241887E+01  0.00000000000E+00 0.  1.
         25    2    1    2    0    0  0.47830112427E+02  0.33768507878E+02  0.74670606359E+03  0.75935818347E+03  0.12500749426E+03 0.  0.
    9000005    1    3    3    0    0 -0.26885690625E+02  0.32273753552E+02  0.10171777055E+03  0.11005426105E+03  0.10000000000E+01 0.  0.
    9000005    1    3    3    0    0  0.74715803051E+02  0.14947543262E+01  0.64498829304E+03  0.64930392242E+03  0.10000000000E+01 0.  0.
         -4    1    1    2    0  502 -0.47830112427E+02 -0.33768507878E+02  0.53570442633E+03  0.53889597983E+03  0.12700000000E+01 0. -1.
<mgrwt>
<rscale>  1 0.13803951E+03</rscale>
<asrwt>0</asrwt>
<pdfrwt beam="2">  1       21 0.12186971E-02 0.13803951E+03</pdfrwt>
<pdfrwt beam="1">  1       -4 0.19852033E+00 0.13803951E+03</pdfrwt>
<totfact> 0.16644516E+04</totfact>
</mgrwt>
</event>
<event>
 6    4  0.6277709E-003  0.1269324E+03  0.7818608E-02  0.1232080E+00
         21   -1    0    0  501  502  0.00000000000E+00  0.00000000000E+00  0.28536608660E+01  0.28536608660E+01  0.00000000000E+00 0.  1.
          4   -1    0    0  502    0 -0.00000000000E+00 -0.00000000000E+00 -0.22378015179E+04  0.22378018783E+04  0.12700000000E+01 0. -1.
         25    2    1    2    0    0 -0.13404915665E+02  0.17548575258E+02 -0.21062038645E+04  0.21100252488E+04  0.12499674883E+03 0.  0.
    9000005    1    3    3    0    0  0.12897380871E+02 -0.51336162972E+02 -0.81567833797E+03  0.81739457736E+03  0.10000000000E+01 0.  0.
    9000005    1    3    3    0    0 -0.26302296535E+02  0.68884738230E+02 -0.12905255266E+04  0.12926306714E+04  0.10000000000E+01 0.  0.
          4    1    1    2  501    0  0.13404915665E+02 -0.17548575258E+02 -0.12874399254E+03  0.13063029041E+03  0.12700000000E+01 0.  1.
<mgrwt>
<rscale>  1 0.12693239E+03</rscale>
<asrwt>0</asrwt>
<pdfrwt beam="1">  1       21 0.43902515E-03 0.12693239E+03</pdfrwt>
<pdfrwt beam="2">  1        4 0.34429861E+00 0.12693239E+03</pdfrwt>
<totfact> 0.11414398E+04</totfact>
</mgrwt>
</event>
<event>
 6    4  0.6277709E-003  0.1267347E+03  0.7818608E-02  0.1232383E+00
         21   -1    0    0  501  502  0.00000000000E+00  0.00000000000E+00  0.51913407720E+02  0.51913407720E+02  0.00000000000E+00 0. -1.
         -4   -1    0    0    0  501 -0.00000000000E+00 -0.00000000000E+00 -0.44104907498E+03  0.44105090346E+03  0.12700000000E+01 0.  1.
         25    2    1    2    0    0  0.14608825770E+02 -0.14925119209E+02 -0.42933285845E+03  0.44764760285E+03  0.12500198404E+03 0.  0.
    9000005    1    3    3    0    0  0.26336286270E+02 -0.58677155555E+02 -0.35354845951E+03  0.35935236437E+03  0.10000000000E+01 0.  0.
    9000005    1    3    3    0    0 -0.11727460501E+02  0.43752036346E+02 -0.75784398943E+02  0.88295238474E+02  0.10000000000E+01 0.  0.
         -4    1    1    2    0  502 -0.14608825770E+02  0.14925119209E+02  0.40197191195E+02  0.45316708329E+02  0.12700000000E+01 0. -1.
<mgrwt>
<rscale>  1 0.12673466E+03</rscale>
<asrwt>0</asrwt>
<pdfrwt beam="1">  1       21 0.79866782E-02 0.12673466E+03</pdfrwt>
<pdfrwt beam="2">  1       -4 0.67855038E-01 0.12673466E+03</pdfrwt>
<totfact> 0.99784818E+03</totfact>
</mgrwt>
</event>
<event>
 6    4  0.6277709E-003  0.1507742E+03  0.7818608E-02  0.1199525E+00
         21   -1    0    0  501  502  0.00000000000E+00  0.00000000000E+00  0.45624812807E+03  0.45624812807E+03  0.00000000000E+00 0.  1.
         -4   -1    0    0    0  501 -0.00000000000E+00 -0.00000000000E+00 -0.50208989132E+02  0.50225048429E+02  0.12700000000E+01 0. -1.
         25    2    1    2    0    0  0.84129200922E+02 -0.55802687960E+01  0.81975260496E+02  0.17161817496E+03  0.12499597111E+03 0.  0.
    9000005    1    3    3    0    0 -0.22399021355E+02  0.61668241434E+01 -0.14508415387E+02  0.27408757629E+02  0.10000000000E+01 0.  0.
    9000005    1    3    3    0    0  0.10652822228E+03 -0.11747092939E+02  0.96483675883E+02  0.14420941733E+03  0.10000000000E+01 0.  0.
         -4    1    1    2    0  502 -0.84129200922E+02  0.55802687960E+01  0.32406387844E+03  0.33485500154E+03  0.12700000000E+01 0.  1.
<mgrwt>
<rscale>  1 0.15077418E+03</rscale>
<asrwt>0</asrwt>
<pdfrwt beam="1">  1       21 0.70192017E-01 0.15077418E+03</pdfrwt>
<pdfrwt beam="2">  1       -4 0.77258315E-02 0.15077418E+03</pdfrwt>
<totfact> 0.89576937E+03</totfact>
</mgrwt>
</event>
<event>
 6    4  0.6277709E-003  0.1284962E+03  0.7818608E-02  0.1229704E+00
         -4   -1    0    0    0  501 -0.00000000000E+00  0.00000000000E+00  0.12882332656E+04  0.12882338916E+04  0.12700000000E+01 0.  1.
         21   -1    0    0  501  502  0.00000000000E+00 -0.00000000000E+00 -0.97639725181E+01  0.97639725181E+01  0.00000000000E+00 0. -1.
         25    2    1    2    0    0 -0.29716416611E+02 -0.11672551562E+01  0.12507190918E+04  0.12573024777E+04  0.12500738431E+03 0.  0.
    9000005    1    3    3    0    0  0.10139464052E+02 -0.39500708357E+02  0.98717155114E+03  0.98801406168E+03  0.10000000000E+01 0.  0.
    9000005    1    3    3    0    0 -0.39855880664E+02  0.38333453201E+02  0.26354754061E+03  0.26928841606E+03  0.10000000000E+01 0.  0.
         -4    1    1    2    0  502  0.29716416611E+02  0.11672551562E+01  0.27750201347E+02  0.40695386417E+02  0.12700000000E+01 0. -1.
<mgrwt>
<rscale>  1 0.12849620E+03</rscale>
<asrwt>0</asrwt>
<pdfrwt beam="2">  1       21 0.15021506E-02 0.12849620E+03</pdfrwt>
<pdfrwt beam="1">  1       -4 0.19819600E+00 0.12849620E+03</pdfrwt>
<totfact> 0.11911728E+04</totfact>
</mgrwt>
</event>
<event>
 6    4  0.6277709E-003  0.1268572E+03  0.7818608E-02  0.1232195E+00
         21   -1    0    0  501  502  0.00000000000E+00  0.00000000000E+00  0.46228610768E+02  0.46228610768E+02  0.00000000000E+00 0.  1.
         -4   -1    0    0    0  501 -0.00000000000E+00 -0.00000000000E+00 -0.13704342879E+03  0.13704931330E+03  0.12700000000E+01 0.  1.
         25    2    1    2    0    0  0.17459390638E+02 -0.12738764522E+02 -0.48624257672E+02  0.13585680297E+03  0.12500258412E+03 0.  0.
    9000005    1    3    3    0    0  0.24227732052E+02 -0.35468499103E+02 -0.83362392381E+02  0.93783185553E+02  0.10000000000E+01 0.  0.
    9000005    1    3    3    0    0 -0.67683414135E+01  0.22729734581E+02  0.34738134709E+02  0.42073617418E+02  0.10000000000E+01 0.  0.
         -4    1    1    2    0  502 -0.17459390638E+02  0.12738764522E+02 -0.42190560352E+02  0.47421121094E+02  0.12700000000E+01 0. -1.
<mgrwt>
<rscale>  1 0.12685721E+03</rscale>
<asrwt>0</asrwt>
<pdfrwt beam="1">  1       21 0.71120942E-02 0.12685721E+03</pdfrwt>
<pdfrwt beam="2">  1       -4 0.21085398E-01 0.12685721E+03</pdfrwt>
<totfact> 0.12000714E+05</totfact>
</mgrwt>
</event>
<event>
 6    4  0.6277709E-003  0.1503166E+03  0.7818608E-02  0.1200085E+00
         21   -1    0    0  501  502  0.00000000000E+00  0.00000000000E+00  0.28367908843E+03  0.28367908843E+03  0.00000000000E+00 0. -1.
          4   -1    0    0  502    0 -0.00000000000E+00 -0.00000000000E+00 -0.64122228010E+02  0.64134803539E+02  0.12700000000E+01 0.  1.
         25    2    1    2    0    0  0.54332733403E+02  0.63386251852E+02  0.49315492552E+02  0.15819954896E+03  0.12500086656E+03 0.  0.
    9000005    1    3    3    0    0 -0.65551201770E+01 -0.32747674905E+02  0.25260905151E+02  0.41886670210E+02  0.10000000000E+01 0.  0.
    9000005    1    3    3    0    0  0.60887853580E+02  0.96133926757E+02  0.24054587402E+02  0.11631287875E+03  0.10000000000E+01 0.  0.
          4    1    1    2  501    0 -0.54332733403E+02 -0.63386251852E+02  0.17024136787E+03  0.18961434301E+03  0.12700000000E+01 0. -1.
<mgrwt>
<rscale>  1 0.15031660E+03</rscale>
<asrwt>0</asrwt>
<pdfrwt beam="1">  1       21 0.43642936E-01 0.15031660E+03</pdfrwt>
<pdfrwt beam="2">  1        4 0.98661443E-02 0.15031660E+03</pdfrwt>
<totfact> 0.16197147E+04</totfact>
</mgrwt>
</event>
<event>
 6    4  0.6277709E-003  0.1283198E+03  0.7818608E-02  0.1229970E+00
          4   -1    0    0  502    0 -0.00000000000E+00  0.00000000000E+00  0.13702655540E+03  0.13703244063E+03  0.12700000000E+01 0.  1.
         21   -1    0    0  501  502  0.00000000000E+00 -0.00000000000E+00 -0.10939329590E+03  0.10939329590E+03  0.00000000000E+00 0. -1.
         25    2    1    2    0    0 -0.13042652817E+02 -0.25889119726E+02  0.10371833945E+03  0.16499533924E+03  0.12500244286E+03 0.  0.
    9000005    1    3    3    0    0  0.36080026842E+02  0.14287060540E+02 -0.49674914346E+01  0.39135206744E+02  0.10000000000E+01 0.  0.
    9000005    1    3    3    0    0 -0.49122679659E+02 -0.40176180265E+02  0.10868583088E+03  0.12586013250E+03  0.10000000000E+01 0.  0.
          4    1    1    2  501    0  0.13042652817E+02  0.25889119726E+02 -0.76085079946E+02  0.81430397292E+02  0.12700000000E+01 0. -1.
<mgrwt>
<rscale>  1 0.12831979E+03</rscale>
<asrwt>0</asrwt>
<pdfrwt beam="2">  1       21 0.16829738E-01 0.12831979E+03</pdfrwt>
<pdfrwt beam="1">  1        4 0.21082028E-01 0.12831979E+03</pdfrwt>
<totfact> 0.26364205E+04</totfact>
</mgrwt>
</event>
<event>
 6    4  0.6277709E-003  0.1387615E+03  0.7818608E-02  0.1215005E+00
         -4   -1    0    0    0  501 -0.00000000000E+00  0.00000000000E+00  0.10769785364E+04  0.10769792852E+04  0.12700000000E+01 0. -1.
         21   -1    0    0  501  502  0.00000000000E+00 -0.00000000000E+00 -0.10640392057E+02  0.10640392057E+02  0.00000000000E+00 0.  1.
         25    2    1    2    0    0 -0.23044331833E+02  0.55671100699E+02  0.90136835495E+03  0.91198665932E+03  0.12499777108E+03 0.  0.
    9000005    1    3    3    0    0 -0.14607013438E+02  0.84536053707E+02  0.83150180330E+03  0.83591623869E+03  0.10000000000E+01 0.  0.
    9000005    1    3    3    0    0 -0.84373183943E+01 -0.28864953008E+02  0.69866551654E+02  0.76070420624E+02  0.10000000000E+01 0.  0.
         -4    1    1    2    0  502  0.23044331833E+02 -0.55671100699E+02  0.16496978939E+03  0.17563301795E+03  0.12700000000E+01 0.  1.
<mgrwt>
<rscale>  1 0.13876151E+03</rscale>
<asrwt>0</asrwt>
<pdfrwt beam="2">  1       21 0.16369843E-02 0.13876151E+03</pdfrwt>
<pdfrwt beam="1">  1       -4 0.16569481E+00 0.13876151E+03</pdfrwt>
<totfact> 0.17050754E+04</totfact>
</mgrwt>
</event>
<event>
 6    4  0.6277709E-003  0.1310407E+03  0.7818608E-02  0.1225920E+00
         -4   -1    0    0    0  501 -0.00000000000E+00  0.00000000000E+00  0.54755124388E+02  0.54769850709E+02  0.12700000000E+01 0.  1.
         21   -1    0    0  501  502  0.00000000000E+00 -0.00000000000E+00 -0.14160086783E+03  0.14160086783E+03  0.00000000000E+00 0.  1.
         25    2    1    2    0    0 -0.39060707629E+02  0.45661715647E+01 -0.86511696698E+02  0.15702210623E+03  0.12500031750E+03 0.  0.
    9000005    1    3    3    0    0  0.29835515056E+02 -0.32261823707E+02 -0.52035472131E+01  0.44261271233E+02  0.10000000000E+01 0.  0.
    9000005    1    3    3    0    0 -0.68896222685E+02  0.36827995272E+02 -0.81308149485E+02  0.11276083499E+03  0.10000000000E+01 0.  0.
         -4    1    1    2    0  502  0.39060707629E+02 -0.45661715647E+01 -0.33404673938E+00  0.39348612307E+02  0.12700000000E+01 0. -1.
<mgrwt>
<rscale>  1 0.13104071E+03</rscale>
<asrwt>0</asrwt>
<pdfrwt beam="2">  1       21 0.21784749E-01 0.13104071E+03</pdfrwt>
<pdfrwt beam="1">  1       -4 0.84254363E-02 0.13104071E+03</pdfrwt>
<totfact> 0.80181425E+04</totfact>
</mgrwt>
</event>
<event>
 6    4  0.6277709E-003  0.1320851E+03  0.7818608E-02  0.1224394E+00
          4   -1    0    0  502    0 -0.00000000000E+00  0.00000000000E+00  0.24053291154E+02  0.24086795456E+02  0.12700000000E+01 0.  1.
         21   -1    0    0  501  502  0.00000000000E+00 -0.00000000000E+00 -0.63575348480E+03  0.63575348480E+03  0.00000000000E+00 0. -1.
         25    2    1    2    0    0 -0.41863051071E+02 -0.83207701014E+01 -0.16618155550E+03  0.21227998254E+03  0.12499892535E+03 0.  0.
    9000005    1    3    3    0    0  0.34887521680E+02 -0.36317579256E+02 -0.64764211172E+02  0.82045772473E+02  0.10000000000E+01 0.  0.
    9000005    1    3    3    0    0 -0.76750572751E+02  0.27996809155E+02 -0.10141734433E+03  0.13023421007E+03  0.10000000000E+01 0.  0.
          4    1    1    2  501    0  0.41863051071E+02  0.83207701014E+01 -0.44551863815E+03  0.44756029772E+03  0.12700000000E+01 0. -1.
<mgrwt>
<rscale>  1 0.13208513E+03</rscale>
<asrwt>0</asrwt>
<pdfrwt beam="2">  1       21 0.97808230E-01 0.13208513E+03</pdfrwt>
<pdfrwt beam="1">  1        4 0.37031811E-02 0.13208513E+03</pdfrwt>
<totfact> 0.13789074E+04</totfact>
</mgrwt>
</event>
<event>
 6    4  0.6277709E-003  0.1319633E+03  0.7818608E-02  0.1224571E+00
          4   -1    0    0  502    0 -0.00000000000E+00  0.00000000000E+00  0.28605472800E+03  0.28605754721E+03  0.12700000000E+01 0. -1.
         21   -1    0    0  501  502  0.00000000000E+00 -0.00000000000E+00 -0.37602538292E+02  0.37602538292E+02  0.00000000000E+00 0. -1.
         25    2    1    2    0    0  0.42324489587E+02 -0.14163089908E+01  0.24841768499E+03  0.28129285240E+03  0.12498381594E+03 0.  0.
    9000005    1    3    3    0    0  0.45610729379E+02  0.23108027568E+02  0.25758809795E+02  0.57261119921E+02  0.10000000000E+01 0.  0.
    9000005    1    3    3    0    0 -0.32862397919E+01 -0.24524336559E+02  0.22265887519E+03  0.22403173248E+03  0.10000000000E+01 0.  0.
          4    1    1    2  501    0 -0.42324489587E+02  0.14163089908E+01  0.34504726066E-01  0.42367233100E+02  0.12700000000E+01 0.  1.
<mgrwt>
<rscale>  1 0.13196334E+03</rscale>
<asrwt>0</asrwt>
<pdfrwt beam="2">  1       21 0.57850061E-02 0.13196334E+03</pdfrwt>
<pdfrwt beam="1">  1        4 0.44010285E-01 0.13196334E+03</pdfrwt>
<totfact> 0.42535106E+04</totfact>
</mgrwt>
</event>
<event>
 6    4  0.6277709E-003  0.1271590E+03  0.7818608E-02  0.1231733E+00
         -4   -1    0    0    0  501 -0.00000000000E+00  0.00000000000E+00  0.28933356949E+03  0.28933635675E+03  0.12700000000E+01 0.  1.
         21   -1    0    0  501  502  0.00000000000E+00 -0.00000000000E+00 -0.20048485929E+02  0.20048485929E+02  0.00000000000E+00 0. -1.
         25    2    1    2    0    0  0.96411471724E+01 -0.21260407447E+02  0.24261358425E+03  0.27391741510E+03  0.12499776952E+03 0.  0.
    9000005    1    3    3    0    0  0.66944704148E+02 -0.19796436404E+02  0.13496181245E+03  0.15195125247E+03  0.10000000000E+01 0.  0.
    9000005    1    3    3    0    0 -0.57303556976E+02 -0.14639710428E+01  0.10765177180E+03  0.12196616262E+03  0.10000000000E+01 0.  0.
         -4    1    1    2    0  502 -0.96411471724E+01  0.21260407447E+02  0.26671499311E+02  0.35467427579E+02  0.12700000000E+01 0. -1.
<mgrwt>
<rscale>  1 0.12715895E+03</rscale>
<asrwt>0</asrwt>
<pdfrwt beam="2">  1       21 0.30843827E-02 0.12715895E+03</pdfrwt>
<pdfrwt beam="1">  1       -4 0.44516162E-01 0.12715895E+03</pdfrwt>
<totfact> 0.11794514E+05</totfact>
</mgrwt>
</event>
<event>
 6    4  0.6277709E-003  0.1312300E+03  0.7818608E-02  0.1225642E+00
         21   -1    0    0  501  502  0.00000000000E+00  0.00000000000E+00  0.14080105821E+02  0.14080105821E+02  0.00000000000E+00 0.  1.
          4   -1    0    0  502    0 -0.00000000000E+00 -0.00000000000E+00 -0.88129020696E+03  0.88129112204E+03  0.12700000000E+01 0.  1.
         25    2    1    2    0    0  0.14789225127E+02  0.37113742982E+02 -0.83143525941E+03  0.84172793100E+03  0.12500067250E+03 0.  0.
    9000005    1    3    3    0    0  0.25133048684E+02  0.68633771792E+02 -0.28295393882E+03  0.29224338531E+03  0.10000000000E+01 0.  0.
    9000005    1    3    3    0    0 -0.10343823557E+02 -0.31520028810E+02 -0.54848132060E+03  0.54948454568E+03  0.10000000000E+01 0.  0.
          4    1    1    2  501    0 -0.14789225127E+02 -0.37113742982E+02 -0.35774841729E+02  0.53643296867E+02  0.12700000000E+01 0. -1.
<mgrwt>
<rscale>  1 0.13123002E+03</rscale>
<asrwt>0</asrwt>
<pdfrwt beam="1">  1       21 0.21661712E-02 0.13123002E+03</pdfrwt>
<pdfrwt beam="2">  1        4 0.13558752E+00 0.13123002E+03</pdfrwt>
<totfact> 0.18007565E+04</totfact>
</mgrwt>
</event>
<event>
 6    4  0.6277709E-003  0.2232979E+03  0.7818608E-02  0.1131448E+00
         21   -1    0    0  501  502  0.00000000000E+00  0.00000000000E+00  0.66180770379E+02  0.66180770379E+02  0.00000000000E+00 0.  1.
         -4   -1    0    0    0  501 -0.00000000000E+00 -0.00000000000E+00 -0.10372185370E+04  0.10372193145E+04  0.12700000000E+01 0. -1.
         25    2    1    2    0    0 -0.12594635482E+03 -0.13555153310E+03 -0.85797231469E+03  0.88655426009E+03  0.12500104353E+03 0.  0.
    9000005    1    3    3    0    0 -0.30738649658E+01  0.13599820295E+02 -0.20782274814E+03  0.20829233880E+03  0.10000000000E+01 0.  0.
    9000005    1    3    3    0    0 -0.12287248986E+03 -0.14915135340E+03 -0.65014956655E+03  0.67826192128E+03  0.10000000000E+01 0.  0.
         -4    1    1    2    0  502  0.12594635482E+03  0.13555153310E+03 -0.11306545195E+03  0.21684582483E+03  0.12700000000E+01 0.  1.
<mgrwt>
<rscale>  1 0.22329792E+03</rscale>
<asrwt>0</asrwt>
<pdfrwt beam="1">  1       21 0.10181658E-01 0.22329792E+03</pdfrwt>
<pdfrwt beam="2">  1       -4 0.15957306E+00 0.22329792E+03</pdfrwt>
<totfact> 0.89371683E+02</totfact>
</mgrwt>
</event>
<event>
 6    4  0.6277709E-003  0.1675379E+03  0.7818608E-02  0.1180440E+00
          4   -1    0    0  502    0 -0.00000000000E+00  0.00000000000E+00  0.10451114991E+03  0.10451886602E+03  0.12700000000E+01 0.  1.
         21   -1    0    0  501  502  0.00000000000E+00 -0.00000000000E+00 -0.44687278553E+03  0.44687278553E+03  0.00000000000E+00 0. -1.
         25    2    1    2    0    0 -0.84029632227E+02  0.73369958722E+02  0.23245287157E+02  0.16914282576E+03  0.12499928878E+03 0.  0.
    9000005    1    3    3    0    0 -0.97254889559E+01 -0.31611773899E+02 -0.12939543303E+02  0.35529159367E+02  0.10000000000E+01 0.  0.
    9000005    1    3    3    0    0 -0.74304143271E+02  0.10498173262E+03  0.36184830460E+02  0.13361366639E+03  0.10000000000E+01 0.  0.
          4    1    1    2  501    0  0.84029632227E+02 -0.73369958722E+02 -0.36560692278E+03  0.38224882579E+03  0.12700000000E+01 0. -1.
<mgrwt>
<rscale>  1 0.16753791E+03</rscale>
<asrwt>0</asrwt>
<pdfrwt beam="2">  1       21 0.68749659E-01 0.16753791E+03</pdfrwt>
<pdfrwt beam="1">  1        4 0.16079371E-01 0.16753791E+03</pdfrwt>
<totfact> 0.26945884E+03</totfact>
</mgrwt>
</event>
<event>
 6    4  0.6277709E-003  0.1348013E+03  0.7818608E-02  0.1220500E+00
         21   -1    0    0  501  502  0.00000000000E+00  0.00000000000E+00  0.33364341297E+02  0.33364341297E+02  0.00000000000E+00 0.  1.
         -4   -1    0    0    0  501 -0.00000000000E+00 -0.00000000000E+00 -0.32021490083E+03  0.32021741928E+03  0.12700000000E+01 0.  1.
         25    2    1    2    0    0 -0.46685849801E+02  0.19182804665E+02 -0.26743574284E+03  0.29948835457E+03  0.12499539755E+03 0.  0.
    9000005    1    3    3    0    0 -0.34718064640E+02  0.61700257870E+02 -0.79631196748E+02  0.10655699568E+03  0.10000000000E+01 0.  0.
    9000005    1    3    3    0    0 -0.11967785161E+02 -0.42517453205E+02 -0.18780454610E+03  0.19293135889E+03  0.10000000000E+01 0.  0.
         -4    1    1    2    0  502  0.46685849801E+02 -0.19182804665E+02 -0.19414816688E+02  0.54093406007E+02  0.12700000000E+01 0. -1.
<mgrwt>
<rscale>  1 0.13480133E+03</rscale>
<asrwt>0</asrwt>
<pdfrwt beam="1">  1       21 0.51329756E-02 0.13480133E+03</pdfrwt>
<pdfrwt beam="2">  1       -4 0.49265884E-01 0.13480133E+03</pdfrwt>
<totfact> 0.41582174E+04</totfact>
</mgrwt>
</event>
<event>
 6    4  0.6277709E-003  0.1321666E+03  0.7818608E-02  0.1224276E+00
         21   -1    0    0  501  502  0.00000000000E+00  0.00000000000E+00  0.15247932700E+04  0.15247932700E+04  0.00000000000E+00 0. -1.
          4   -1    0    0  502    0 -0.00000000000E+00 -0.00000000000E+00 -0.10687174950E+02  0.10762370018E+02  0.12700000000E+01 0.  1.
         25    2    1    2    0    0  0.32479642964E+02  0.28083291421E+02  0.41343548239E+03  0.43404712488E+03  0.12499764017E+03 0.  0.
    9000005    1    3    3    0    0  0.18602818859E+02  0.76914464860E+02  0.28930100497E+03  0.29992994391E+03  0.10000000000E+01 0.  0.
    9000005    1    3    3    0    0  0.13876824104E+02 -0.48831173439E+02  0.12413447742E+03  0.13411718097E+03  0.10000000000E+01 0.  0.
          4    1    1    2  501    0 -0.32479642964E+02 -0.28083291421E+02  0.11006706126E+04  0.11015085151E+04  0.12700000000E+01 0. -1.
<mgrwt>
<rscale>  1 0.13216659E+03</rscale>
<asrwt>0</asrwt>
<pdfrwt beam="1">  1       21 0.23458341E+00 0.13216659E+03</pdfrwt>
<pdfrwt beam="2">  1        4 0.16500069E-02 0.13216659E+03</pdfrwt>
<totfact> 0.47702717E+03</totfact>
</mgrwt>
</event>
<event>
 6    4  0.6277709E-003  0.1289935E+03  0.7818608E-02  0.1228957E+00
         21   -1    0    0  501  502  0.00000000000E+00  0.00000000000E+00  0.10527907550E+03  0.10527907550E+03  0.00000000000E+00 0.  1.
          4   -1    0    0  502    0 -0.00000000000E+00 -0.00000000000E+00 -0.21006817140E+03  0.21007201036E+03  0.12700000000E+01 0. -1.
         25    2    1    2    0    0 -0.11225704675E+02  0.29792082026E+02 -0.18700404044E+03  0.22717799131E+03  0.12500297596E+03 0.  0.
    9000005    1    3    3    0    0 -0.97186808036E+01 -0.70325674248E+01 -0.18982023489E+03  0.19020155450E+03  0.10000000000E+01 0.  0.
    9000005    1    3    3    0    0 -0.15070238718E+01  0.36824649451E+02  0.28161944461E+01  0.36976436812E+02  0.10000000000E+01 0.  0.
          4    1    1    2  501    0  0.11225704675E+02 -0.29792082026E+02  0.82214944537E+02  0.88173094548E+02  0.12700000000E+01 0.  1.
<mgrwt>
<rscale>  1 0.12899352E+03</rscale>
<asrwt>0</asrwt>
<pdfrwt beam="1">  1       21 0.16196781E-01 0.12899352E+03</pdfrwt>
<pdfrwt beam="2">  1        4 0.32319064E-01 0.12899352E+03</pdfrwt>
<totfact> 0.12802374E+04</totfact>
</mgrwt>
</event>
<event>
 6    4  0.6277709E-003  0.1271131E+03  0.7818608E-02  0.1231803E+00
         21   -1    0    0  501  502  0.00000000000E+00  0.00000000000E+00  0.12405965710E+02  0.12405965710E+02  0.00000000000E+00 0.  1.
         -4   -1    0    0    0  501 -0.00000000000E+00 -0.00000000000E+00 -0.10100271688E+04  0.10100279672E+04  0.12700000000E+01 0. -1.
         25    2    1    2    0    0  0.17419311725E+02 -0.15130802747E+02 -0.98996215444E+03  0.99808957961E+03  0.12500147233E+03 0.  0.
    9000005    1    3    3    0    0  0.64949230762E+02 -0.36069266560E+02 -0.63869277304E+03  0.64299988561E+03  0.10000000000E+01 0.  0.
    9000005    1    3    3    0    0 -0.47529919037E+02  0.20938463813E+02 -0.35126938140E+03  0.35508969400E+03  0.10000000000E+01 0.  0.
         -4    1    1    2    0  502 -0.17419311725E+02  0.15130802747E+02 -0.76590486222E+01  0.24344353319E+02  0.12700000000E+01 0.  1.
<mgrwt>
<rscale>  1 0.12711311E+03</rscale>
<asrwt>0</asrwt>
<pdfrwt beam="1">  1       21 0.19086104E-02 0.12711311E+03</pdfrwt>
<pdfrwt beam="2">  1       -4 0.15539383E+00 0.12711311E+03</pdfrwt>
<totfact> 0.15614071E+04</totfact>
</mgrwt>
</event>
<event>
 6    4  0.6277709E-003  0.1267920E+03  0.7818608E-02  0.1232295E+00
         21   -1    0    0  501  502  0.00000000000E+00  0.00000000000E+00  0.10761580200E+03  0.10761580200E+03  0.00000000000E+00 0. -1.
          4   -1    0    0  502    0 -0.00000000000E+00 -0.00000000000E+00 -0.68888605159E+02  0.68900310744E+02  0.12700000000E+01 0. -1.
         25    2    1    2    0    0  0.19106782120E+02  0.92233687822E+01 -0.60649361023E+01  0.12693700698E+03  0.12500432247E+03 0.  0.
    9000005    1    3    3    0    0  0.34652638032E+02 -0.52208973315E+02 -0.98853038592E+01  0.63445263413E+02  0.10000000000E+01 0.  0.
    9000005    1    3    3    0    0 -0.15545855912E+02  0.61432342097E+02  0.38203677570E+01  0.63491743568E+02  0.10000000000E+01 0.  0.
          4    1    1    2  501    0 -0.19106782120E+02 -0.92233687822E+01  0.44792132949E+02  0.49579105768E+02  0.12700000000E+01 0.  1.
<mgrwt>
<rscale>  1 0.12679204E+03</rscale>
<asrwt>0</asrwt>
<pdfrwt beam="1">  1       21 0.16556277E-01 0.12679204E+03</pdfrwt>
<pdfrwt beam="2">  1        4 0.10599724E-01 0.12679204E+03</pdfrwt>
<totfact> 0.90031478E+04</totfact>
</mgrwt>
</event>
<event>
 6    4  0.6277709E-003  0.1268173E+03  0.7818608E-02  0.1232256E+00
         -4   -1    0    0    0  501 -0.00000000000E+00  0.00000000000E+00  0.42278393636E+03  0.42278584383E+03  0.12700000000E+01 0.  1.
         21   -1    0    0  501  502  0.00000000000E+00 -0.00000000000E+00 -0.12995112181E+02  0.12995112181E+02  0.00000000000E+00 0.  1.
         25    2    1    2    0    0 -0.12713715497E+02 -0.16984949251E+02  0.35812740997E+03  0.37991825216E+03  0.12503003437E+03 0.  0.
    9000005    1    3    3    0    0  0.68322065104E+01 -0.65814354588E+02  0.26317326527E+03  0.27136576031E+03  0.10000000000E+01 0.  0.
    9000005    1    3    3    0    0 -0.19545922008E+02  0.48829405336E+02  0.94954144692E+02  0.10855249185E+03  0.10000000000E+01 0.  0.
         -4    1    1    2    0  502  0.12713715497E+02  0.16984949251E+02  0.51661414210E+02  0.55862703846E+02  0.12700000000E+01 0. -1.
<mgrwt>
<rscale>  1 0.12681734E+03</rscale>
<asrwt>0</asrwt>
<pdfrwt beam="2">  1       21 0.19992484E-02 0.12681734E+03</pdfrwt>
<pdfrwt beam="1">  1       -4 0.65048592E-01 0.12681734E+03</pdfrwt>
<totfact> 0.10928087E+05</totfact>
</mgrwt>
</event>
<event>
 6    4  0.6277709E-003  0.1299001E+03  0.7818608E-02  0.1227604E+00
         21   -1    0    0  501  502  0.00000000000E+00  0.00000000000E+00  0.28878699081E+03  0.28878699081E+03  0.00000000000E+00 0. -1.
         -4   -1    0    0    0  501 -0.00000000000E+00 -0.00000000000E+00 -0.31935887795E+02  0.31961129975E+02  0.12700000000E+01 0.  1.
         25    2    1    2    0    0 -0.74931528222E+01  0.34546866948E+02  0.11161263079E+03  0.17126414148E+03  0.12499757377E+03 0.  0.
    9000005    1    3    3    0    0 -0.40858614298E+02 -0.28622367323E+02  0.17015936159E+02  0.52718197588E+02  0.10000000000E+01 0.  0.
    9000005    1    3    3    0    0  0.33365461476E+02  0.63169234270E+02  0.94596694635E+02  0.11854594389E+03  0.10000000000E+01 0.  0.
         -4    1    1    2    0  502  0.74931528222E+01 -0.34546866948E+02  0.14523847222E+03  0.14948397930E+03  0.12700000000E+01 0. -1.
<mgrwt>
<rscale>  1 0.12990006E+03</rscale>
<asrwt>0</asrwt>
<pdfrwt beam="1">  1       21 0.44428766E-01 0.12990006E+03</pdfrwt>
<pdfrwt beam="2">  1       -4 0.49153702E-02 0.12990006E+03</pdfrwt>
<totfact> 0.48409926E+04</totfact>
</mgrwt>
</event>
<event>
 6    4  0.6277709E-003  0.1271609E+03  0.7818608E-02  0.1231730E+00
         21   -1    0    0  501  502  0.00000000000E+00  0.00000000000E+00  0.22215593760E+02  0.22215593760E+02  0.00000000000E+00 0.  1.
          4   -1    0    0  502    0 -0.00000000000E+00 -0.00000000000E+00 -0.29910135220E+03  0.29910404843E+03  0.12700000000E+01 0. -1.
         25    2    1    2    0    0  0.22683754116E+02 -0.39582198704E+01 -0.26794076271E+03  0.29658412008E+03  0.12505865727E+03 0.  0.
    9000005    1    3    3    0    0 -0.33311939362E+02  0.32572416753E+02 -0.48831920251E+02  0.67499659796E+02  0.10000000000E+01 0.  0.
    9000005    1    3    3    0    0  0.55995693478E+02 -0.36530636623E+02 -0.21910884246E+03  0.22908446029E+03  0.10000000000E+01 0.  0.
          4    1    1    2  501    0 -0.22683754116E+02  0.39582198704E+01 -0.89449957277E+01  0.24735522107E+02  0.12700000000E+01 0.  1.
<mgrwt>
<rscale>  1 0.12716087E+03</rscale>
<asrwt>0</asrwt>
<pdfrwt beam="1">  1       21 0.34177838E-02 0.12716087E+03</pdfrwt>
<pdfrwt beam="2">  1        4 0.46018591E-01 0.12716087E+03</pdfrwt>
<totfact> 0.93213838E+04</totfact>
</mgrwt>
</event>
<event>
 6    4  0.6277709E-003  0.1277920E+03  0.7818608E-02  0.1230769E+00
         21   -1    0    0  501  502  0.00000000000E+00  0.00000000000E+00  0.68813415846E+03  0.68813415846E+03  0.00000000000E+00 0. -1.
         -4   -1    0    0    0  501 -0.00000000000E+00 -0.00000000000E+00 -0.25404036160E+02  0.25435761307E+02  0.12700000000E+01 0.  1.
         25    2    1    2    0    0  0.15082115944E+02 -0.21871295222E+02  0.13768257375E+03  0.18784911467E+03  0.12499989996E+03 0.  0.
    9000005    1    3    3    0    0 -0.36439977820E+02 -0.39532441977E+01 -0.31652437070E+01  0.36803789084E+02  0.10000000000E+01 0.  0.
    9000005    1    3    3    0    0  0.51522093764E+02 -0.17918051024E+02  0.14084781746E+03  0.15104532558E+03  0.10000000000E+01 0.  0.
         -4    1    1    2    0  502 -0.15082115944E+02  0.21871295222E+02  0.52504754855E+03  0.52572080510E+03  0.12700000000E+01 0. -1.
<mgrwt>
<rscale>  1 0.12779201E+03</rscale>
<asrwt>0</asrwt>
<pdfrwt beam="1">  1       21 0.10586678E+00 0.12779201E+03</pdfrwt>
<pdfrwt beam="2">  1       -4 0.39108443E-02 0.12779201E+03</pdfrwt>
<totfact> 0.10474908E+04</totfact>
</mgrwt>
</event>
<event>
 6    4  0.6277709E-003  0.1316073E+03  0.7818608E-02  0.1225090E+00
         21   -1    0    0  501  502  0.00000000000E+00  0.00000000000E+00  0.12208680772E+04  0.12208680772E+04  0.00000000000E+00 0. -1.
         -4   -1    0    0    0  501 -0.00000000000E+00 -0.00000000000E+00 -0.23669859410E+02  0.23703905680E+02  0.12700000000E+01 0.  1.
         25    2    1    2    0    0  0.12259811757E+02 -0.39232408458E+02  0.16273659437E+03  0.20929330152E+03  0.12502400591E+03 0.  0.
    9000005    1    3    3    0    0 -0.54559605728E+02 -0.22256819391E+02  0.50701905860E+02  0.77741879605E+02  0.10000000000E+01 0.  0.
    9000005    1    3    3    0    0  0.66819417486E+02 -0.16975589068E+02  0.11203468851E+03  0.13155142191E+03  0.10000000000E+01 0.  0.
         -4    1    1    2    0  502 -0.12259811757E+02  0.39232408458E+02  0.10344616235E+04  0.10352786814E+04  0.12700000000E+01 0. -1.
<mgrwt>
<rscale>  1 0.13160732E+03</rscale>
<asrwt>0</asrwt>
<pdfrwt beam="1">  1       21 0.18782581E+00 0.13160732E+03</pdfrwt>
<pdfrwt beam="2">  1       -4 0.36441875E-02 0.13160732E+03</pdfrwt>
<totfact> 0.27008938E+03</totfact>
</mgrwt>
</event>
<event>
 6    4  0.6277709E-003  0.1273716E+03  0.7818608E-02  0.1231409E+00
         -4   -1    0    0    0  501 -0.00000000000E+00  0.00000000000E+00  0.23688020986E+02  0.23722041190E+02  0.12700000000E+01 0.  1.
         21   -1    0    0  501  502  0.00000000000E+00 -0.00000000000E+00 -0.26360419019E+03  0.26360419019E+03  0.00000000000E+00 0. -1.
         25    2    1    2    0    0  0.22647023942E+02  0.92449788061E+01 -0.16459669788E+03  0.20812400296E+03  0.12500068131E+03 0.  0.
    9000005    1    3    3    0    0 -0.32600854098E+02  0.48710029239E+02 -0.64391553884E+02  0.87079014969E+02  0.10000000000E+01 0.  0.
    9000005    1    3    3    0    0  0.55247878040E+02 -0.39465050433E+02 -0.10020514399E+03  0.12104498799E+03  0.10000000000E+01 0.  0.
         -4    1    1    2    0  502 -0.22647023942E+02 -0.92449788061E+01 -0.75319471325E+02  0.79202228423E+02  0.12700000000E+01 0. -1.
<mgrwt>
<rscale>  1 0.12737161E+03</rscale>
<asrwt>0</asrwt>
<pdfrwt beam="2">  1       21 0.40554490E-01 0.12737161E+03</pdfrwt>
<pdfrwt beam="1">  1       -4 0.36471633E-02 0.12737161E+03</pdfrwt>
<totfact> 0.93331366E+04</totfact>
</mgrwt>
</event>
<event>
 6    4  0.6277709E-003  0.1279273E+03  0.7818608E-02  0.1230564E+00
          4   -1    0    0  502    0 -0.00000000000E+00  0.00000000000E+00  0.37610933905E+02  0.37632369700E+02  0.12700000000E+01 0. -1.
         21   -1    0    0  501  502  0.00000000000E+00 -0.00000000000E+00 -0.52289653453E+03  0.52289653453E+03  0.00000000000E+00 0.  1.
         25    2    1    2    0    0 -0.39462763061E+01  0.26948367557E+02 -0.72895432831E+02  0.14723838776E+03  0.12499444424E+03 0.  0.
    9000005    1    3    3    0    0 -0.29983175457E+02  0.89884691983E+01 -0.10048633336E+03  0.10525343976E+03  0.10000000000E+01 0.  0.
    9000005    1    3    3    0    0  0.26036899151E+02  0.17959898358E+02  0.27590900530E+02  0.41984948000E+02  0.10000000000E+01 0.  0.
          4    1    1    2  501    0  0.39462763061E+01 -0.26948367557E+02 -0.41239016780E+03  0.41329051647E+03  0.12700000000E+01 0.  1.
<mgrwt>
<rscale>  1 0.12792732E+03</rscale>
<asrwt>0</asrwt>
<pdfrwt beam="2">  1       21 0.80445611E-01 0.12792732E+03</pdfrwt>
<pdfrwt beam="1">  1        4 0.57880658E-02 0.12792732E+03</pdfrwt>
<totfact> 0.10516960E+04</totfact>
</mgrwt>
</event>
<event>
 6    4  0.6277709E-003  0.1267208E+03  0.7818608E-02  0.1232404E+00
         21   -1    0    0  501  502  0.00000000000E+00  0.00000000000E+00  0.15644082914E+03  0.15644082914E+03  0.00000000000E+00 0. -1.
          4   -1    0    0  502    0 -0.00000000000E+00 -0.00000000000E+00 -0.98262816230E+02  0.98271022959E+02  0.12700000000E+01 0.  1.
         25    2    1    2    0    0  0.82274559944E+01 -0.19117037055E+02 -0.56073893927E+02  0.13857286961E+03  0.12500002589E+03 0.  0.
    9000005    1    3    3    0    0 -0.28471766057E+02 -0.39979081193E+02 -0.77099249974E+02  0.91401656123E+02  0.10000000000E+01 0.  0.
    9000005    1    3    3    0    0  0.36699222051E+02  0.20862044138E+02  0.21025356047E+02  0.47171213485E+02  0.10000000000E+01 0.  0.
          4    1    1    2  501    0 -0.82274559944E+01  0.19117037055E+02  0.11425190683E+03  0.11613898249E+03  0.12700000000E+01 0. -1.
<mgrwt>
<rscale>  1 0.12672079E+03</rscale>
<asrwt>0</asrwt>
<pdfrwt beam="1">  1       21 0.24067820E-01 0.12672079E+03</pdfrwt>
<pdfrwt beam="2">  1        4 0.15118384E-01 0.12672079E+03</pdfrwt>
<totfact> 0.24512619E+04</totfact>
</mgrwt>
</event>
<event>
 6    4  0.6277709E-003  0.1296998E+03  0.7818608E-02  0.1227902E+00
         21   -1    0    0  501  502  0.00000000000E+00  0.00000000000E+00  0.35829866595E+03  0.35829866595E+03  0.00000000000E+00 0.  1.
         -4   -1    0    0    0  501 -0.00000000000E+00 -0.00000000000E+00 -0.18845054642E+02  0.18887799885E+02  0.12700000000E+01 0. -1.
         25    2    1    2    0    0  0.30441865903E+02  0.16460255614E+02  0.27343824335E+03  0.30263923972E+03  0.12499755709E+03 0.  0.
    9000005    1    3    3    0    0  0.34786053744E+02  0.61699685030E+02  0.95007579374E+02  0.11850890602E+03  0.10000000000E+01 0.  0.
    9000005    1    3    3    0    0 -0.43441878409E+01 -0.45239429416E+02  0.17843066398E+03  0.18413033370E+03  0.10000000000E+01 0.  0.
         -4    1    1    2    0  502 -0.30441865903E+02 -0.16460255614E+02  0.66015367961E+02  0.74547226116E+02  0.12700000000E+01 0.  1.
<mgrwt>
<rscale>  1 0.12969979E+03</rscale>
<asrwt>0</asrwt>
<pdfrwt beam="1">  1       21 0.55122867E-01 0.12969979E+03</pdfrwt>
<pdfrwt beam="2">  1       -4 0.29027007E-02 0.12969979E+03</pdfrwt>
<totfact> 0.71433390E+04</totfact>
</mgrwt>
</event>
<event>
 6    4  0.6277709E-003  0.1280261E+03  0.7818608E-02  0.1230414E+00
         -4   -1    0    0    0  501 -0.00000000000E+00  0.00000000000E+00  0.38828067888E+03  0.38828275585E+03  0.12700000000E+01 0. -1.
         21   -1    0    0  501  502  0.00000000000E+00 -0.00000000000E+00 -0.15619264992E+02  0.15619264992E+02  0.00000000000E+00 0. -1.
         25    2    1    2    0    0 -0.25393573750E+02  0.11010333298E+02  0.30904319590E+03  0.33451216865E+03  0.12499853206E+03 0.  0.
    9000005    1    3    3    0    0 -0.40359147404E+02  0.49540076830E+02  0.27063846625E+03  0.27808138990E+03  0.10000000000E+01 0.  0.
    9000005    1    3    3    0    0  0.14965573654E+02 -0.38529743533E+02  0.38404729642E+02  0.56430778750E+02  0.10000000000E+01 0.  0.
         -4    1    1    2    0  502  0.25393573750E+02 -0.11010333298E+02  0.63618217990E+02  0.69389852193E+02  0.12700000000E+01 0.  1.
<mgrwt>
<rscale>  1 0.12802615E+03</rscale>
<asrwt>0</asrwt>
<pdfrwt beam="2">  1       21 0.24029642E-02 0.12802615E+03</pdfrwt>
<pdfrwt beam="1">  1       -4 0.59739612E-01 0.12802615E+03</pdfrwt>
<totfact> 0.97253666E+04</totfact>
</mgrwt>
</event>
<event>
 6    4  0.6277709E-003  0.1296814E+03  0.7818608E-02  0.1227929E+00
         21   -1    0    0  501  502  0.00000000000E+00  0.00000000000E+00  0.34776844882E+03  0.34776844882E+03  0.00000000000E+00 0. -1.
         -4   -1    0    0    0  501 -0.00000000000E+00 -0.00000000000E+00 -0.57890764098E+02  0.57904692969E+02  0.12700000000E+01 0.  1.
         25    2    1    2    0    0  0.34457953761E+02 -0.22348403576E+01  0.17202516713E+02  0.13081735190E+03  0.12499963155E+03 0.  0.
    9000005    1    3    3    0    0  0.73682552018E+02  0.88067402459E+01  0.39798833117E+02  0.84211782211E+02  0.10000000000E+01 0.  0.
    9000005    1    3    3    0    0 -0.39224598257E+02 -0.11041580603E+02 -0.22596316404E+02  0.46605569686E+02  0.10000000000E+01 0.  0.
         -4    1    1    2    0  502 -0.34457953761E+02  0.22348403576E+01  0.27267516801E+03  0.27485578989E+03  0.12700000000E+01 0. -1.
<mgrwt>
<rscale>  1 0.12968135E+03</rscale>
<asrwt>0</asrwt>
<pdfrwt beam="1">  1       21 0.53502837E-01 0.12968135E+03</pdfrwt>
<pdfrwt beam="2">  1       -4 0.89075214E-02 0.12968135E+03</pdfrwt>
<totfact> 0.12498042E+04</totfact>
</mgrwt>
</event>
<event>
 6    4  0.6277709E-003  0.1268835E+03  0.7818608E-02  0.1232155E+00
         21   -1    0    0  501  502  0.00000000000E+00  0.00000000000E+00  0.87358388138E+03  0.87358388138E+03  0.00000000000E+00 0. -1.
         -4   -1    0    0    0  501 -0.00000000000E+00 -0.00000000000E+00 -0.63369884278E+01  0.64629963898E+01  0.12700000000E+01 0. -1.
         25    2    1    2    0    0  0.19447212384E+02 -0.97957011196E+01  0.76997137554E+03  0.78035591019E+03  0.12500111032E+03 0.  0.
    9000005    1    3    3    0    0 -0.41026993653E+02 -0.39741679581E+02  0.28094985057E+03  0.28669920446E+03  0.10000000000E+01 0.  0.
    9000005    1    3    3    0    0  0.60474206037E+02  0.29945978461E+02  0.48902152498E+03  0.49365670573E+03  0.10000000000E+01 0.  0.
         -4    1    1    2    0  502 -0.19447212384E+02  0.97957011196E+01  0.97275517408E+02  0.99690967579E+02  0.12700000000E+01 0.  1.
<mgrwt>
<rscale>  1 0.12688352E+03</rscale>
<asrwt>0</asrwt>
<pdfrwt beam="1">  1       21 0.13439743E+00 0.12688352E+03</pdfrwt>
<pdfrwt beam="2">  1       -4 0.98468592E-03 0.12688352E+03</pdfrwt>
<totfact> 0.48943953E+04</totfact>
</mgrwt>
</event>
<event>
 6    4  0.6277709E-003  0.1330152E+03  0.7818608E-02  0.1223049E+00
          4   -1    0    0  502    0 -0.00000000000E+00  0.00000000000E+00  0.70456171904E+03  0.70456286365E+03  0.12700000000E+01 0.  1.
         21   -1    0    0  501  502  0.00000000000E+00 -0.00000000000E+00 -0.14199836860E+02  0.14199836860E+02  0.00000000000E+00 0.  1.
         25    2    1    2    0    0 -0.17228559408E+01 -0.45444329196E+02  0.62580918759E+03  0.63978916970E+03  0.12499954846E+03 0.  0.
    9000005    1    3    3    0    0 -0.10936226164E+02 -0.85011031222E+02  0.31959968356E+03  0.33089489903E+03  0.10000000000E+01 0.  0.
    9000005    1    3    3    0    0  0.92133702236E+01  0.39566702026E+02  0.30620950402E+03  0.30889427067E+03  0.10000000000E+01 0.  0.
          4    1    1    2  501    0  0.17228559408E+01  0.45444329196E+02  0.64552694595E+02  0.78973530807E+02  0.12700000000E+01 0. -1.
<mgrwt>
<rscale>  1 0.13301520E+03</rscale>
<asrwt>0</asrwt>
<pdfrwt beam="2">  1       21 0.21845908E-02 0.13301520E+03</pdfrwt>
<pdfrwt beam="1">  1        4 0.10839854E+00 0.13301520E+03</pdfrwt>
<totfact> 0.30484992E+04</totfact>
</mgrwt>
</event>
<event>
 6    4  0.6277709E-003  0.1280935E+03  0.7818608E-02  0.1230312E+00
         21   -1    0    0  501  502  0.00000000000E+00  0.00000000000E+00  0.97784390892E+01  0.97784390892E+01  0.00000000000E+00 0.  1.
         -4   -1    0    0    0  501 -0.00000000000E+00 -0.00000000000E+00 -0.17083281055E+04  0.17083285775E+04  0.12700000000E+01 0. -1.
         25    2    1    2    0    0 -0.25817948669E+02  0.10820894499E+02 -0.16791401688E+04  0.16840188995E+04  0.12499715672E+03 0.  0.
    9000005    1    3    3    0    0 -0.57501384703E+01  0.94988177497E+01 -0.16396808964E+04  0.16397187971E+04  0.10000000000E+01 0.  0.
    9000005    1    3    3    0    0 -0.20067810199E+02  0.13220767492E+01 -0.39459272455E+02  0.44300102436E+02  0.10000000000E+01 0.  0.
         -4    1    1    2    0  502  0.25817948669E+02 -0.10820894499E+02 -0.19409497535E+02  0.34088117077E+02  0.12700000000E+01 0.  1.
<mgrwt>
<rscale>  1 0.12809351E+03</rscale>
<asrwt>0</asrwt>
<pdfrwt beam="1">  1       21 0.15043747E-02 0.12809351E+03</pdfrwt>
<pdfrwt beam="2">  1       -4 0.26282619E+00 0.12809351E+03</pdfrwt>
<totfact> 0.49387967E+03</totfact>
</mgrwt>
</event>
<event>
 6    4  0.6277709E-003  0.1502409E+03  0.7818608E-02  0.1200177E+00
         21   -1    0    0  501  502  0.00000000000E+00  0.00000000000E+00  0.55303824379E+01  0.55303824379E+01  0.00000000000E+00 0.  1.
          4   -1    0    0  502    0 -0.00000000000E+00 -0.00000000000E+00 -0.24713539876E+04  0.24713543139E+04  0.12700000000E+01 0. -1.
         25    2    1    2    0    0 -0.76829122688E+02  0.32417625493E+02 -0.16317771903E+04  0.16386790822E+04  0.12497487415E+03 0.  0.
    9000005    1    3    3    0    0 -0.57377398583E+02  0.80213394839E+02 -0.10746926222E+04  0.10792087781E+04  0.10000000000E+01 0.  0.
    9000005    1    3    3    0    0 -0.19451724105E+02 -0.47795769347E+02 -0.55708456808E+03  0.55947030407E+03  0.10000000000E+01 0.  0.
          4    1    1    2  501    0  0.76829122688E+02 -0.32417625493E+02 -0.83404641486E+03  0.83820561414E+03  0.12700000000E+01 0.  1.
<mgrwt>
<rscale>  1 0.15024093E+03</rscale>
<asrwt>0</asrwt>
<pdfrwt beam="1">  1       21 0.85082813E-03 0.15024093E+03</pdfrwt>
<pdfrwt beam="2">  1        4 0.38021952E+00 0.15024093E+03</pdfrwt>
<totfact> 0.24509598E+03</totfact>
</mgrwt>
</event>
<event>
 6    4  0.6277709E-003  0.1290519E+03  0.7818608E-02  0.1228869E+00
         21   -1    0    0  501  502  0.00000000000E+00  0.00000000000E+00  0.32757909550E+02  0.32757909550E+02  0.00000000000E+00 0. -1.
         -4   -1    0    0    0  501 -0.00000000000E+00 -0.00000000000E+00 -0.20952172505E+03  0.20952557402E+03  0.12700000000E+01 0. -1.
         25    2    1    2    0    0  0.23302059709E+01 -0.31986052499E+02 -0.11581358367E+03  0.17339893468E+03  0.12500346785E+03 0.  0.
    9000005    1    3    3    0    0 -0.53739021309E+02 -0.39917857689E+02 -0.37454369165E+02  0.76714715298E+02  0.10000000000E+01 0.  0.
    9000005    1    3    3    0    0  0.56069227279E+02  0.79318051900E+01 -0.78359214501E+02  0.96684219387E+02  0.10000000000E+01 0.  0.
         -4    1    1    2    0  502 -0.23302059709E+01  0.31986052499E+02 -0.60950231832E+02  0.68884548882E+02  0.12700000000E+01 0.  1.
<mgrwt>
<rscale>  1 0.12905194E+03</rscale>
<asrwt>0</asrwt>
<pdfrwt beam="1">  1       21 0.50396787E-02 0.12905194E+03</pdfrwt>
<pdfrwt beam="2">  1       -4 0.32236299E-01 0.12905194E+03</pdfrwt>
<totfact> 0.98179283E+04</totfact>
</mgrwt>
</event>
<event>
 6    4  0.6277709E-003  0.1270059E+03  0.7818608E-02  0.1231967E+00
          4   -1    0    0  502    0 -0.00000000000E+00  0.00000000000E+00  0.94913628125E+02  0.94922124417E+02  0.12700000000E+01 0. -1.
         21   -1    0    0  501  502  0.00000000000E+00 -0.00000000000E+00 -0.15870774346E+03  0.15870774346E+03  0.00000000000E+00 0.  1.
         25    2    1    2    0    0  0.19784598650E+02  0.10607995835E+02  0.50845858798E+02  0.13680565597E+03  0.12500610476E+03 0.  0.
    9000005    1    3    3    0    0  0.15584620345E+02 -0.43280399073E+02 -0.17881323331E+02  0.49364106993E+02  0.10000000000E+01 0.  0.
    9000005    1    3    3    0    0  0.41999783052E+01  0.53888394908E+02  0.68727182128E+02  0.87441548973E+02  0.10000000000E+01 0.  0.
          4    1    1    2  501    0 -0.19784598650E+02 -0.10607995835E+02 -0.11463997413E+03  0.11682421191E+03  0.12700000000E+01 0.  1.
<mgrwt>
<rscale>  1 0.12700585E+03</rscale>
<asrwt>0</asrwt>
<pdfrwt beam="2">  1       21 0.24416576E-01 0.12700585E+03</pdfrwt>
<pdfrwt beam="1">  1        4 0.14603141E-01 0.12700585E+03</pdfrwt>
<totfact> 0.25348987E+04</totfact>
</mgrwt>
</event>
<event>
 6    4  0.6277709E-003  0.1269273E+03  0.7818608E-02  0.1232088E+00
          4   -1    0    0  502    0 -0.00000000000E+00  0.00000000000E+00  0.71531029687E+02  0.71542302927E+02  0.12700000000E+01 0. -1.
         21   -1    0    0  501  502  0.00000000000E+00 -0.00000000000E+00 -0.77984627452E+02  0.77984627452E+02  0.00000000000E+00 0. -1.
         25    2    1    2    0    0 -0.21415506172E+02  0.51027812221E+01 -0.94213991581E+01  0.12727646913E+03  0.12500349815E+03 0.  0.
    9000005    1    3    3    0    0 -0.65119991421E+02  0.34891101833E+02 -0.84574206747E+01  0.74367534814E+02  0.10000000000E+01 0.  0.
    9000005    1    3    3    0    0  0.43704485249E+02 -0.29788320611E+02 -0.96397848338E+00  0.52908934314E+02  0.10000000000E+01 0.  0.
          4    1    1    2  501    0  0.21415506172E+02 -0.51027812221E+01  0.29678013931E+01  0.22250461252E+02  0.12700000000E+01 0.  1.
<mgrwt>
<rscale>  1 0.12692729E+03</rscale>
<asrwt>0</asrwt>
<pdfrwt beam="2">  1       21 0.11997635E-01 0.12692729E+03</pdfrwt>
<pdfrwt beam="1">  1        4 0.11006436E-01 0.12692729E+03</pdfrwt>
<totfact> 0.15051815E+05</totfact>
</mgrwt>
</event>
<event>
 6    4  0.6277709E-003  0.1277208E+03  0.7818608E-02  0.1230877E+00
         21   -1    0    0  501  502  0.00000000000E+00  0.00000000000E+00  0.94554287861E+02  0.94554287861E+02  0.00000000000E+00 0.  1.
         -4   -1    0    0    0  501 -0.00000000000E+00 -0.00000000000E+00 -0.62981686996E+02  0.62994490211E+02  0.12700000000E+01 0. -1.
         25    2    1    2    0    0  0.25908486631E+02 -0.39975900368E+01  0.30334876337E+02  0.13127378487E+03  0.12500148586E+03 0.  0.
    9000005    1    3    3    0    0  0.45697969437E+02 -0.55769740612E+02  0.20582137447E+02  0.74987950769E+02  0.10000000000E+01 0.  0.
    9000005    1    3    3    0    0 -0.19789482806E+02  0.51772150575E+02  0.97527388901E+01  0.56285834104E+02  0.10000000000E+01 0.  0.
         -4    1    1    2    0  502 -0.25908486631E+02  0.39975900368E+01  0.12377245275E+01  0.26274993199E+02  0.12700000000E+01 0.  1.
<mgrwt>
<rscale>  1 0.12772080E+03</rscale>
<asrwt>0</asrwt>
<pdfrwt beam="1">  1       21 0.14546814E-01 0.12772080E+03</pdfrwt>
<pdfrwt beam="2">  1       -4 0.96911312E-02 0.12772080E+03</pdfrwt>
<totfact> 0.13241935E+05</totfact>
</mgrwt>
</event>
<event>
 6    4  0.6277709E-003  0.1270490E+03  0.7818608E-02  0.1231901E+00
         21   -1    0    0  501  502  0.00000000000E+00  0.00000000000E+00  0.90177015637E+01  0.90177015637E+01  0.00000000000E+00 0.  1.
         -4   -1    0    0    0  501 -0.00000000000E+00 -0.00000000000E+00 -0.97113831285E+03  0.97113914327E+03  0.12700000000E+01 0. -1.
         25    2    1    2    0    0 -0.22739479264E+02 -0.58804869253E+00 -0.93950091303E+03  0.94805243131E+03  0.12499606875E+03 0.  0.
    9000005    1    3    3    0    0 -0.12214228932E+02 -0.61680364904E+02 -0.38588367007E+03  0.39097424676E+03  0.10000000000E+01 0.  0.
    9000005    1    3    3    0    0 -0.10525250332E+02  0.61092316211E+02 -0.55361724296E+03  0.55707818455E+03  0.10000000000E+01 0.  0.
         -4    1    1    2    0  502  0.22739479264E+02  0.58804869253E+00 -0.22619698253E+02  0.32104413521E+02  0.12700000000E+01 0.  1.
<mgrwt>
<rscale>  1 0.12704899E+03</rscale>
<asrwt>0</asrwt>
<pdfrwt beam="1">  1       21 0.13873379E-02 0.12704899E+03</pdfrwt>
<pdfrwt beam="2">  1       -4 0.14941292E+00 0.12704899E+03</pdfrwt>
<totfact> 0.28759427E+04</totfact>
</mgrwt>
</event>
<event>
 6    4  0.6277709E-003  0.1285600E+03  0.7818608E-02  0.1229608E+00
          4   -1    0    0  502    0 -0.00000000000E+00  0.00000000000E+00  0.20386921275E+02  0.20426440196E+02  0.12700000000E+01 0. -1.
         21   -1    0    0  501  502  0.00000000000E+00 -0.00000000000E+00 -0.12100097851E+04  0.12100097851E+04  0.00000000000E+00 0.  1.
         25    2    1    2    0    0 -0.16132485334E+02 -0.25348490194E+02 -0.18455344176E+03  0.22491697679E+03  0.12499948218E+03 0.  0.
    9000005    1    3    3    0    0 -0.14725420594E+02 -0.66953415608E+02 -0.16547036651E+03  0.17911180884E+03  0.10000000000E+01 0.  0.
    9000005    1    3    3    0    0 -0.14070647407E+01  0.41604925414E+02 -0.19083075243E+02  0.45805167947E+02  0.10000000000E+01 0.  0.
          4    1    1    2  501    0  0.16132485334E+02  0.25348490194E+02 -0.10050694221E+04  0.10055192485E+04  0.12700000000E+01 0.  1.
<mgrwt>
<rscale>  1 0.12856000E+03</rscale>
<asrwt>0</asrwt>
<pdfrwt beam="2">  1       21 0.18615543E+00 0.12856000E+03</pdfrwt>
<pdfrwt beam="1">  1        4 0.31395393E-02 0.12856000E+03</pdfrwt>
<totfact> 0.35013657E+03</totfact>
</mgrwt>
</event>
<event>
 6    4  0.6277709E-003  0.1316473E+03  0.7818608E-02  0.1225032E+00
         -4   -1    0    0    0  501 -0.00000000000E+00  0.00000000000E+00  0.34367067954E+03  0.34367302611E+03  0.12700000000E+01 0.  1.
         21   -1    0    0  501  502  0.00000000000E+00 -0.00000000000E+00 -0.24089343843E+02  0.24089343843E+02  0.00000000000E+00 0.  1.
         25    2    1    2    0    0  0.22151501913E+02 -0.34831788348E+02  0.28485356337E+03  0.31380337082E+03  0.12500824157E+03 0.  0.
    9000005    1    3    3    0    0 -0.12918356499E+02  0.22441680550E+01 -0.87504381350E+01  0.15795264875E+02  0.10000000000E+01 0.  0.
    9000005    1    3    3    0    0  0.35069858412E+02 -0.37075956402E+02  0.29360400150E+03  0.29800810595E+03  0.10000000000E+01 0.  0.
         -4    1    1    2    0  502 -0.22151501913E+02  0.34831788348E+02  0.34727772335E+02  0.53958999137E+02  0.12700000000E+01 0. -1.
<mgrwt>
<rscale>  1 0.13164727E+03</rscale>
<asrwt>0</asrwt>
<pdfrwt beam="2">  1       21 0.37060532E-02 0.13164727E+03</pdfrwt>
<pdfrwt beam="1">  1       -4 0.52875164E-01 0.13164727E+03</pdfrwt>
<totfact> 0.61807971E+04</totfact>
</mgrwt>
</event>
<event>
 6    4  0.6277709E-003  0.1283255E+03  0.7818608E-02  0.1229962E+00
          4   -1    0    0  502    0 -0.00000000000E+00  0.00000000000E+00  0.10013347167E+03  0.10014152509E+03  0.12700000000E+01 0. -1.
         21   -1    0    0  501  502  0.00000000000E+00 -0.00000000000E+00 -0.61872986365E+02  0.61872986365E+02  0.00000000000E+00 0. -1.
         25    2    1    2    0    0  0.70863716506E+01  0.28148848548E+02  0.32799061505E+02  0.13245077713E+03  0.12499942235E+03 0.  0.
    9000005    1    3    3    0    0  0.24141047916E+02  0.13023406023E+02  0.77525032842E+02  0.82240683460E+02  0.10000000000E+01 0.  0.
    9000005    1    3    3    0    0 -0.17054676266E+02  0.15125442525E+02 -0.44725971337E+02  0.50210093668E+02  0.10000000000E+01 0.  0.
          4    1    1    2  501    0 -0.70863716506E+01 -0.28148848548E+02  0.54614237977E+01  0.29563734332E+02  0.12700000000E+01 0.  1.
<mgrwt>
<rscale>  1 0.12832548E+03</rscale>
<asrwt>0</asrwt>
<pdfrwt beam="2">  1       21 0.95189210E-02 0.12832548E+03</pdfrwt>
<pdfrwt beam="1">  1        4 0.15406772E-01 0.12832548E+03</pdfrwt>
<totfact> 0.12690284E+05</totfact>
</mgrwt>
</event>
<event>
 6    4  0.6277709E-003  0.1312890E+03  0.7818608E-02  0.1225556E+00
         21   -1    0    0  501  502  0.00000000000E+00  0.00000000000E+00  0.31869595481E+01  0.31869595481E+01  0.00000000000E+00 0. -1.
          4   -1    0    0  502    0 -0.00000000000E+00 -0.00000000000E+00 -0.24835553795E+04  0.24835557043E+04  0.12700000000E+01 0.  1.
         25    2    1    2    0    0 -0.27062767306E+02 -0.29649081007E+02 -0.21378518077E+04  0.21418793518E+04  0.12500137819E+03 0.  0.
    9000005    1    3    3    0    0 -0.40058960431E+02  0.26397678961E+02 -0.16418196067E+04  0.16425206783E+04  0.10000000000E+01 0.  0.
    9000005    1    3    3    0    0  0.12996193125E+02 -0.56046759968E+02 -0.49603220107E+03  0.49935867354E+03  0.10000000000E+01 0.  0.
          4    1    1    2  501    0  0.27062767306E+02  0.29649081007E+02 -0.34251661225E+03  0.34486331198E+03  0.12700000000E+01 0. -1.
<mgrwt>
<rscale>  1 0.13128902E+03</rscale>
<asrwt>0</asrwt>
<pdfrwt beam="1">  1       21 0.49030126E-03 0.13128902E+03</pdfrwt>
<pdfrwt beam="2">  1        4 0.38210510E+00 0.13128902E+03</pdfrwt>
<totfact> 0.56211683E+03</totfact>
</mgrwt>
</event>
<event>
 6    4  0.6277709E-003  0.1291327E+03  0.7818608E-02  0.1228748E+00
         21   -1    0    0  501  502  0.00000000000E+00  0.00000000000E+00  0.22767814612E+02  0.22767814612E+02  0.00000000000E+00 0. -1.
         -4   -1    0    0    0  501 -0.00000000000E+00 -0.00000000000E+00 -0.34875876855E+03  0.34876108088E+03  0.12700000000E+01 0.  1.
         25    2    1    2    0    0 -0.24345881861E+02 -0.21383081207E+02 -0.30904773154E+03  0.33494141388E+03  0.12500116894E+03 0.  0.
    9000005    1    3    3    0    0 -0.53550085534E+02 -0.52210855595E+02 -0.25752304619E+03  0.26816544226E+03  0.10000000000E+01 0.  0.
    9000005    1    3    3    0    0  0.29204203672E+02  0.30827774388E+02 -0.51524685350E+02  0.66775971624E+02  0.10000000000E+01 0.  0.
         -4    1    1    2    0  502  0.24345881861E+02  0.21383081207E+02 -0.16943222390E+02  0.36587481609E+02  0.12700000000E+01 0. -1.
<mgrwt>
<rscale>  1 0.12913269E+03</rscale>
<asrwt>0</asrwt>
<pdfrwt beam="1">  1       21 0.35027408E-02 0.12913269E+03</pdfrwt>
<pdfrwt beam="2">  1       -4 0.53658096E-01 0.12913269E+03</pdfrwt>
<totfact> 0.65655058E+04</totfact>
</mgrwt>
</event>
<event>
 6    4  0.6277709E-003  0.1297380E+03  0.7818608E-02  0.1227845E+00
          4   -1    0    0  502    0 -0.00000000000E+00  0.00000000000E+00  0.90718001351E+02  0.90726890551E+02  0.12700000000E+01 0.  1.
         21   -1    0    0  501  502  0.00000000000E+00 -0.00000000000E+00 -0.76571679996E+02  0.76571679996E+02  0.00000000000E+00 0. -1.
         25    2    1    2    0    0 -0.13559977901E+02  0.32018667457E+02  0.22098550335E+02  0.13160656987E+03  0.12499150067E+03 0.  0.
    9000005    1    3    3    0    0  0.38920459181E+02  0.40278178939E+02  0.46813288259E+02  0.73004231378E+02  0.10000000000E+01 0.  0.
    9000005    1    3    3    0    0 -0.52480437082E+02 -0.82595114811E+01 -0.24714737924E+02  0.58602338494E+02  0.10000000000E+01 0.  0.
          4    1    1    2  501    0  0.13559977901E+02 -0.32018667457E+02 -0.79522289801E+01  0.35692000675E+02  0.12700000000E+01 0. -1.
<mgrwt>
<rscale>  1 0.12973798E+03</rscale>
<asrwt>0</asrwt>
<pdfrwt beam="2">  1       21 0.11780259E-01 0.12973798E+03</pdfrwt>
<pdfrwt beam="1">  1        4 0.13958109E-01 0.12973798E+03</pdfrwt>
<totfact> 0.10380872E+05</totfact>
</mgrwt>
</event>
<event>
 6    4  0.6277709E-003  0.1300201E+03  0.7818608E-02  0.1227426E+00
          4   -1    0    0  502    0 -0.00000000000E+00  0.00000000000E+00  0.65158126965E+02  0.65170502604E+02  0.12700000000E+01 0.  1.
         21   -1    0    0  501  502  0.00000000000E+00 -0.00000000000E+00 -0.17828841151E+03  0.17828841151E+03  0.00000000000E+00 0. -1.
         25    2    1    2    0    0 -0.25127699035E+02 -0.25485669378E+02 -0.56207994003E+01  0.13014155931E+03  0.12499724586E+03 0.  0.
    9000005    1    3    3    0    0 -0.67061663107E+02 -0.96634683447E+00 -0.32587474660E+02  0.74573078183E+02  0.10000000000E+01 0.  0.
    9000005    1    3    3    0    0  0.41933964072E+02 -0.24519322544E+02  0.26966675260E+02  0.55568481132E+02  0.10000000000E+01 0.  0.
          4    1    1    2  501    0  0.25127699035E+02  0.25485669378E+02 -0.10750948514E+03  0.11331735479E+03  0.12700000000E+01 0. -1.
<mgrwt>
<rscale>  1 0.13002012E+03</rscale>
<asrwt>0</asrwt>
<pdfrwt beam="2">  1       21 0.27428986E-01 0.13002012E+03</pdfrwt>
<pdfrwt beam="1">  1        4 0.10025627E-01 0.13002012E+03</pdfrwt>
<totfact> 0.38780459E+04</totfact>
</mgrwt>
</event>
<event>
 6    4  0.6277709E-003  0.1319976E+03  0.7818608E-02  0.1224521E+00
         21   -1    0    0  501  502  0.00000000000E+00  0.00000000000E+00  0.13797024058E+03  0.13797024058E+03  0.00000000000E+00 0. -1.
          4   -1    0    0  502    0 -0.00000000000E+00 -0.00000000000E+00 -0.16303308626E+03  0.16303803273E+03  0.12700000000E+01 0.  1.
         25    2    1    2    0    0 -0.34042786436E+02  0.25295863768E+02 -0.13156360517E+03  0.18636614883E+03  0.12499826876E+03 0.  0.
    9000005    1    3    3    0    0 -0.57869796079E+02 -0.66742205698E+01 -0.13429418494E+03  0.14638779535E+03  0.10000000000E+01 0.  0.
    9000005    1    3    3    0    0  0.23827009643E+02  0.31970084338E+02  0.27305797743E+01  0.39978353481E+02  0.10000000000E+01 0.  0.
          4    1    1    2  501    0  0.34042786436E+02 -0.25295863768E+02  0.10650075949E+03  0.11464212447E+03  0.12700000000E+01 0. -1.
<mgrwt>
<rscale>  1 0.13199757E+03</rscale>
<asrwt>0</asrwt>
<pdfrwt beam="1">  1       21 0.21226191E-01 0.13199757E+03</pdfrwt>
<pdfrwt beam="2">  1        4 0.25082843E-01 0.13199757E+03</pdfrwt>
<totfact> 0.12560527E+04</totfact>
</mgrwt>
</event>
<event>
 6    4  0.6277709E-003  0.1279466E+03  0.7818608E-02  0.1230535E+00
         21   -1    0    0  501  502  0.00000000000E+00  0.00000000000E+00  0.17756819951E+03  0.17756819951E+03  0.00000000000E+00 0. -1.
          4   -1    0    0  502    0 -0.00000000000E+00 -0.00000000000E+00 -0.45873486205E+02  0.45891062709E+02  0.12700000000E+01 0.  1.
         25    2    1    2    0    0  0.21556265282E+02 -0.16758009511E+02  0.50096133104E+02  0.13740436900E+03  0.12499933845E+03 0.  0.
    9000005    1    3    3    0    0 -0.37603385613E+02 -0.44762957554E+02  0.40774020566E+02  0.71282941379E+02  0.10000000000E+01 0.  0.
    9000005    1    3    3    0    0  0.59159650895E+02  0.28004948043E+02  0.93221125383E+01  0.66121427624E+02  0.10000000000E+01 0.  0.
          4    1    1    2  501    0 -0.21556265282E+02  0.16758009511E+02  0.81598580197E+02  0.86054893213E+02  0.12700000000E+01 0. -1.
<mgrwt>
<rscale>  1 0.12794662E+03</rscale>
<asrwt>0</asrwt>
<pdfrwt beam="1">  1       21 0.27318184E-01 0.12794662E+03</pdfrwt>
<pdfrwt beam="2">  1        4 0.70591609E-02 0.12794662E+03</pdfrwt>
<totfact> 0.69863171E+04</totfact>
</mgrwt>
</event>
<event>
 6    4  0.6277709E-003  0.1453617E+03  0.7818608E-02  0.1206291E+00
         -4   -1    0    0    0  501 -0.00000000000E+00  0.00000000000E+00  0.97270686657E+02  0.97278977085E+02  0.12700000000E+01 0. -1.
         21   -1    0    0  501  502  0.00000000000E+00 -0.00000000000E+00 -0.12770461205E+03  0.12770461205E+03  0.00000000000E+00 0.  1.
         25    2    1    2    0    0  0.44522703366E+02  0.59349059393E+02 -0.15884380684E+01  0.14537041808E+03  0.12500181340E+03 0.  0.
    9000005    1    3    3    0    0  0.41600774175E+02 -0.11129988320E+02 -0.45194859243E+02  0.62434576590E+02  0.10000000000E+01 0.  0.
    9000005    1    3    3    0    0  0.29219291915E+01  0.70479047713E+02  0.43606421175E+02  0.82935841494E+02  0.10000000000E+01 0.  0.
         -4    1    1    2    0  502 -0.44522703366E+02 -0.59349059393E+02 -0.28845487325E+02  0.79613171052E+02  0.12700000000E+01 0.  1.
<mgrwt>
<rscale>  1 0.14536174E+03</rscale>
<asrwt>0</asrwt>
<pdfrwt beam="2">  1       21 0.19646863E-01 0.14536174E+03</pdfrwt>
<pdfrwt beam="1">  1       -4 0.14965845E-01 0.14536174E+03</pdfrwt>
<totfact> 0.36968101E+04</totfact>
</mgrwt>
</event>
<event>
 6    4  0.6277709E-003  0.1266899E+03  0.7818608E-02  0.1232452E+00
         -4   -1    0    0    0  501 -0.00000000000E+00  0.00000000000E+00  0.35316739051E+01  0.37530814769E+01  0.12700000000E+01 0.  1.
         21   -1    0    0  501  502  0.00000000000E+00 -0.00000000000E+00 -0.15025615467E+04  0.15025615467E+04  0.00000000000E+00 0.  1.
         25    2    1    2    0    0  0.59089310020E+00 -0.20625250439E+02 -0.12370709209E+04  0.12435412363E+04  0.12499837153E+03 0.  0.
    9000005    1    3    3    0    0 -0.45646864708E+02  0.29719217930E+02 -0.70398412187E+03  0.70608888393E+03  0.10000000000E+01 0.  0.
    9000005    1    3    3    0    0  0.46237757809E+02 -0.50344468369E+02 -0.53308679904E+03  0.53745235236E+03  0.10000000000E+01 0.  0.
         -4    1    1    2    0  502 -0.59089310020E+00  0.20625250439E+02 -0.26195895192E+03  0.26277339192E+03  0.12700000000E+01 0. -1.
<mgrwt>
<rscale>  1 0.12668995E+03</rscale>
<asrwt>0</asrwt>
<pdfrwt beam="2">  1       21 0.23116348E+00 0.12668995E+03</pdfrwt>
<pdfrwt beam="1">  1       -4 0.56040669E-03 0.12668995E+03</pdfrwt>
<totfact> 0.25322252E+04</totfact>
</mgrwt>
</event>
<event>
 6    4  0.6277709E-003  0.1317811E+03  0.7818608E-02  0.1224837E+00
         -4   -1    0    0    0  501 -0.00000000000E+00  0.00000000000E+00  0.66524703585E+01  0.67726111561E+01  0.12700000000E+01 0. -1.
         21   -1    0    0  501  502  0.00000000000E+00 -0.00000000000E+00 -0.11690414643E+04  0.11690414643E+04  0.00000000000E+00 0. -1.
         25    2    1    2    0    0  0.41657903769E+02  0.25566164734E+01 -0.76837448306E+03  0.77959322174E+03  0.12499731170E+03 0.  0.
    9000005    1    3    3    0    0  0.25654538702E+02 -0.49057793658E+02 -0.17015744530E+03  0.17893959501E+03  0.10000000000E+01 0.  0.
    9000005    1    3    3    0    0  0.16003365068E+02  0.51614410131E+02 -0.59821703776E+03  0.60065362672E+03  0.10000000000E+01 0.  0.
         -4    1    1    2    0  502 -0.41657903769E+02 -0.25566164734E+01 -0.39401451090E+03  0.39622085373E+03  0.12700000000E+01 0.  1.
<mgrwt>
<rscale>  1 0.13178105E+03</rscale>
<asrwt>0</asrwt>
<pdfrwt beam="2">  1       21 0.17985255E+00 0.13178105E+03</pdfrwt>
<pdfrwt beam="1">  1       -4 0.10327515E-02 0.13178105E+03</pdfrwt>
<totfact> 0.21239624E+04</totfact>
</mgrwt>
</event>
<event>
 6    4  0.6277709E-003  0.1291393E+03  0.7818608E-02  0.1228739E+00
         21   -1    0    0  501  502  0.00000000000E+00  0.00000000000E+00  0.14810138578E+03  0.14810138578E+03  0.00000000000E+00 0.  1.
         -4   -1    0    0    0  501 -0.00000000000E+00 -0.00000000000E+00 -0.51215536531E+02  0.51231280310E+02  0.12700000000E+01 0.  1.
         25    2    1    2    0    0 -0.32430256153E+02 -0.13646207757E+00  0.42415982154E+02  0.13592667696E+03  0.12500082332E+03 0.  0.
    9000005    1    3    3    0    0  0.27630515580E+02  0.60460312796E+01 -0.30262810281E+02  0.41434738705E+02  0.10000000000E+01 0.  0.
    9000005    1    3    3    0    0 -0.60060771734E+02 -0.61824933572E+01  0.72678792435E+02  0.94491938255E+02  0.10000000000E+01 0.  0.
         -4    1    1    2    0  502  0.32430256153E+02  0.13646207757E+00  0.54469867090E+02  0.63405989124E+02  0.12700000000E+01 0. -1.
<mgrwt>
<rscale>  1 0.12913925E+03</rscale>
<asrwt>0</asrwt>
<pdfrwt beam="1">  1       21 0.22784828E-01 0.12913925E+03</pdfrwt>
<pdfrwt beam="2">  1       -4 0.78809433E-02 0.12913925E+03</pdfrwt>
<totfact> 0.82206035E+04</totfact>
</mgrwt>
</event>
<event>
 6    4  0.6277709E-003  0.1547177E+03  0.7818608E-02  0.1194793E+00
         21   -1    0    0  501  502  0.00000000000E+00  0.00000000000E+00  0.14728541154E+03  0.14728541154E+03  0.00000000000E+00 0. -1.
          4   -1    0    0  502    0 -0.00000000000E+00 -0.00000000000E+00 -0.12786392484E+03  0.12787023178E+03  0.12700000000E+01 0.  1.
         25    2    1    2    0    0  0.21378341682E+02 -0.88629242912E+02 -0.47734198061E+02  0.16191397657E+03  0.12500162380E+03 0.  0.
    9000005    1    3    3    0    0  0.40043742403E+02 -0.15116091979E+02 -0.70707290151E+02  0.82659049250E+02  0.10000000000E+01 0.  0.
    9000005    1    3    3    0    0 -0.18665400721E+02 -0.73513150934E+02  0.22973092090E+02  0.79254927320E+02  0.10000000000E+01 0.  0.
          4    1    1    2  501    0 -0.21378341682E+02  0.88629242912E+02  0.67155684756E+02  0.11324166675E+03  0.12700000000E+01 0. -1.
<mgrwt>
<rscale>  1 0.15471775E+03</rscale>
<asrwt>0</asrwt>
<pdfrwt beam="1">  1       21 0.22659294E-01 0.15471775E+03</pdfrwt>
<pdfrwt beam="2">  1        4 0.19672279E-01 0.15471775E+03</pdfrwt>
<totfact> 0.17549857E+04</totfact>
</mgrwt>
</event>
<event>
 6    4  0.6277709E-003  0.1277208E+03  0.7818608E-02  0.1230877E+00
         21   -1    0    0  501  502  0.00000000000E+00  0.00000000000E+00  0.10632712684E+02  0.10632712684E+02  0.00000000000E+00 0. -1.
          4   -1    0    0  502    0 -0.00000000000E+00 -0.00000000000E+00 -0.62538883769E+03  0.62539012721E+03  0.12700000000E+01 0. -1.
         25    2    1    2    0    0 -0.11856821564E+02  0.23339694339E+02 -0.57020373910E+03  0.58433286466E+03  0.12500906802E+03 0.  0.
    9000005    1    3    3    0    0 -0.31700136385E+02 -0.41009424534E+02 -0.14859179598E+03  0.15737596188E+03  0.10000000000E+01 0.  0.
    9000005    1    3    3    0    0  0.19843314820E+02  0.64349118873E+02 -0.42161194312E+03  0.42695690277E+03  0.10000000000E+01 0.  0.
          4    1    1    2  501    0  0.11856821564E+02 -0.23339694339E+02 -0.44552385907E+02  0.51689975232E+02  0.12700000000E+01 0.  1.
<mgrwt>
<rscale>  1 0.12772076E+03</rscale>
<asrwt>0</asrwt>
<pdfrwt beam="1">  1       21 0.16358015E-02 0.12772076E+03</pdfrwt>
<pdfrwt beam="2">  1        4 0.96219627E-01 0.12772076E+03</pdfrwt>
<totfact> 0.63722018E+04</totfact>
</mgrwt>
</event>
<event>
 6    4  0.6277709E-003  0.1285246E+03  0.7818608E-02  0.1229661E+00
         21   -1    0    0  501  502  0.00000000000E+00  0.00000000000E+00  0.15999133080E+03  0.15999133080E+03  0.00000000000E+00 0. -1.
         -4   -1    0    0    0  501 -0.00000000000E+00 -0.00000000000E+00 -0.39399497710E+02  0.39419960931E+02  0.12700000000E+01 0. -1.
         25    2    1    2    0    0 -0.66394793279E+01 -0.29139061273E+02  0.10303715324E+03  0.16472776160E+03  0.12500165165E+03 0.  0.
    9000005    1    3    3    0    0 -0.12579882106E+02  0.62060384181E+01  0.12292489257E+03  0.12372670512E+03  0.10000000000E+01 0.  0.
    9000005    1    3    3    0    0  0.59404027783E+01 -0.35345099691E+02 -0.19887739324E+02  0.41001056483E+02  0.10000000000E+01 0.  0.
         -4    1    1    2    0  502  0.66394793279E+01  0.29139061273E+02  0.17554679843E+02  0.34683530126E+02  0.12700000000E+01 0.  1.
<mgrwt>
<rscale>  1 0.12852463E+03</rscale>
<asrwt>0</asrwt>
<pdfrwt beam="1">  1       21 0.24614051E-01 0.12852463E+03</pdfrwt>
<pdfrwt beam="2">  1       -4 0.60634231E-02 0.12852463E+03</pdfrwt>
<totfact> 0.10918542E+05</totfact>
</mgrwt>
</event>
<event>
 6    4  0.6277709E-003  0.1394666E+03  0.7818608E-02  0.1214048E+00
         -4   -1    0    0    0  501 -0.00000000000E+00  0.00000000000E+00  0.42494832471E+03  0.42495022247E+03  0.12700000000E+01 0.  1.
         21   -1    0    0  501  502  0.00000000000E+00 -0.00000000000E+00 -0.10611271409E+03  0.10611271409E+03  0.00000000000E+00 0. -1.
         25    2    1    2    0    0 -0.60630823272E+02 -0.12258509841E+02  0.40308785540E+03  0.42653341228E+03  0.12499825929E+03 0.  0.
    9000005    1    3    3    0    0 -0.42830238297E+02 -0.64182583052E+02  0.16435249234E+03  0.18156699870E+03  0.10000000000E+01 0.  0.
    9000005    1    3    3    0    0 -0.17800584974E+02  0.51924073211E+02  0.23873536307E+03  0.24496641358E+03  0.10000000000E+01 0.  0.
         -4    1    1    2    0  502  0.60630823272E+02  0.12258509841E+02 -0.84252244782E+02  0.10452952427E+03  0.12700000000E+01 0. -1.
<mgrwt>
<rscale>  1 0.13946660E+03</rscale>
<asrwt>0</asrwt>
<pdfrwt beam="2">  1       21 0.16325033E-01 0.13946660E+03</pdfrwt>
<pdfrwt beam="1">  1       -4 0.65377395E-01 0.13946660E+03</pdfrwt>
<totfact> 0.30741616E+03</totfact>
</mgrwt>
</event>
<event>
 6    4  0.6277709E-003  0.1296931E+03  0.7818608E-02  0.1227912E+00
         21   -1    0    0  501  502  0.00000000000E+00  0.00000000000E+00  0.12290353330E+03  0.12290353330E+03  0.00000000000E+00 0. -1.
         -4   -1    0    0    0  501 -0.00000000000E+00 -0.00000000000E+00 -0.55202524917E+02  0.55217131918E+02  0.12700000000E+01 0. -1.
         25    2    1    2    0    0 -0.32669271647E+02  0.11303960265E+02  0.47863250619E+02  0.13824322346E+03  0.12500094898E+03 0.  0.
    9000005    1    3    3    0    0 -0.20131039318E+02  0.67769376411E+02  0.17181101557E+02  0.72760823070E+02  0.10000000000E+01 0.  0.
    9000005    1    3    3    0    0 -0.12538232329E+02 -0.56465416145E+02  0.30682149062E+02  0.65482400395E+02  0.10000000000E+01 0.  0.
         -4    1    1    2    0  502  0.32669271647E+02 -0.11303960265E+02  0.19837757762E+02  0.39877441752E+02  0.12700000000E+01 0.  1.
<mgrwt>
<rscale>  1 0.12969309E+03</rscale>
<asrwt>0</asrwt>
<pdfrwt beam="1">  1       21 0.18908236E-01 0.12969309E+03</pdfrwt>
<pdfrwt beam="2">  1       -4 0.84943245E-02 0.12969309E+03</pdfrwt>
<totfact> 0.10268389E+05</totfact>
</mgrwt>
</event>
<event>
 6    4  0.6277709E-003  0.1285230E+03  0.7818608E-02  0.1229664E+00
         21   -1    0    0  501  502  0.00000000000E+00  0.00000000000E+00  0.20807810215E+03  0.20807810215E+03  0.00000000000E+00 0.  1.
         -4   -1    0    0    0  501 -0.00000000000E+00 -0.00000000000E+00 -0.30276076534E+02  0.30302701370E+02  0.12700000000E+01 0.  1.
         25    2    1    2    0    0 -0.11369705207E+02 -0.27635664930E+02  0.15018531166E+03  0.19767090346E+03  0.12500063226E+03 0.  0.
    9000005    1    3    3    0    0 -0.26633278735E+02  0.43344765321E+02  0.89880521734E+02  0.10328411496E+03  0.10000000000E+01 0.  0.
    9000005    1    3    3    0    0  0.15263573527E+02 -0.70980430252E+02  0.60304789923E+02  0.94386788499E+02  0.10000000000E+01 0.  0.
         -4    1    1    2    0  502  0.11369705207E+02  0.27635664930E+02  0.27616713957E+02  0.40709900054E+02  0.12700000000E+01 0. -1.
<mgrwt>
<rscale>  1 0.12852299E+03</rscale>
<asrwt>0</asrwt>
<pdfrwt beam="1">  1       21 0.32012015E-01 0.12852299E+03</pdfrwt>
<pdfrwt beam="2">  1       -4 0.46602042E-02 0.12852299E+03</pdfrwt>
<totfact> 0.10090646E+05</totfact>
</mgrwt>
</event>
<event>
 6    4  0.6277709E-003  0.1322747E+03  0.7818608E-02  0.1224119E+00
         21   -1    0    0  501  502  0.00000000000E+00  0.00000000000E+00  0.12349524246E+03  0.12349524246E+03  0.00000000000E+00 0. -1.
         -4   -1    0    0    0  501 -0.00000000000E+00 -0.00000000000E+00 -0.10267715641E+03  0.10268501034E+03  0.12700000000E+01 0.  1.
         25    2    1    2    0    0 -0.31368813788E+02  0.29798113355E+02 -0.51460424653E+02  0.14193224957E+03  0.12499863249E+03 0.  0.
    9000005    1    3    3    0    0 -0.30232539769E+02  0.38701875476E+02  0.31583743969E+02  0.58398411874E+02  0.10000000000E+01 0.  0.
    9000005    1    3    3    0    0 -0.11362740186E+01 -0.89037621206E+01 -0.83044168622E+02  0.83533837699E+02  0.10000000000E+01 0.  0.
         -4    1    1    2    0  502  0.31368813788E+02 -0.29798113355E+02  0.72278510701E+02  0.84248003223E+02  0.12700000000E+01 0. -1.
<mgrwt>
<rscale>  1 0.13227467E+03</rscale>
<asrwt>0</asrwt>
<pdfrwt beam="1">  1       21 0.18999268E-01 0.13227467E+03</pdfrwt>
<pdfrwt beam="2">  1       -4 0.15797592E-01 0.13227467E+03</pdfrwt>
<totfact> 0.35415021E+04</totfact>
</mgrwt>
</event>
<event>
 6    4  0.6277709E-003  0.1291471E+03  0.7818608E-02  0.1228727E+00
         21   -1    0    0  501  502  0.00000000000E+00  0.00000000000E+00  0.14990043902E+03  0.14990043902E+03  0.00000000000E+00 0.  1.
          4   -1    0    0  502    0 -0.00000000000E+00 -0.00000000000E+00 -0.16643519998E+03  0.16644004533E+03  0.12700000000E+01 0. -1.
         25    2    1    2    0    0 -0.31781073940E+02  0.66257238423E+01 -0.13894253583E+03  0.18969446931E+03  0.12500010618E+03 0.  0.
    9000005    1    3    3    0    0 -0.37633816232E+02  0.15092487017E+02 -0.16062789604E+03  0.16566957559E+03  0.10000000000E+01 0.  0.
    9000005    1    3    3    0    0  0.58527422917E+01 -0.84667631747E+01  0.21685360206E+02  0.24024893720E+02  0.10000000000E+01 0.  0.
          4    1    1    2  501    0  0.31781073940E+02 -0.66257238423E+01  0.12240777488E+03  0.12664601505E+03  0.12700000000E+01 0.  1.
<mgrwt>
<rscale>  1 0.12914706E+03</rscale>
<asrwt>0</asrwt>
<pdfrwt beam="1">  1       21 0.23061606E-01 0.12914706E+03</pdfrwt>
<pdfrwt beam="2">  1        4 0.25606202E-01 0.12914706E+03</pdfrwt>
<totfact> 0.10335445E+04</totfact>
</mgrwt>
</event>
<event>
 6    4  0.6277709E-003  0.1267904E+03  0.7818608E-02  0.1232297E+00
         21   -1    0    0  501  502  0.00000000000E+00  0.00000000000E+00  0.71622675489E+02  0.71622675489E+02  0.00000000000E+00 0.  1.
          4   -1    0    0  502    0 -0.00000000000E+00 -0.00000000000E+00 -0.11056376339E+03  0.11057105713E+03  0.12700000000E+01 0.  1.
         25    2    1    2    0    0 -0.21186867146E+02  0.47138244326E-02 -0.69804926852E+02  0.14473611901E+03  0.12500773165E+03 0.  0.
    9000005    1    3    3    0    0  0.45426604972E+02  0.71992958998E+01  0.26055663225E+01  0.46078143155E+02  0.10000000000E+01 0.  0.
    9000005    1    3    3    0    0 -0.66613472119E+02 -0.71945820754E+01 -0.72410493174E+02  0.98657975860E+02  0.10000000000E+01 0.  0.
          4    1    1    2  501    0  0.21186867146E+02 -0.47138244326E-02  0.30863838955E+02  0.37457613601E+02  0.12700000000E+01 0. -1.
<mgrwt>
<rscale>  1 0.12679044E+03</rscale>
<asrwt>0</asrwt>
<pdfrwt beam="1">  1       21 0.11018873E-01 0.12679044E+03</pdfrwt>
<pdfrwt beam="2">  1        4 0.17011237E-01 0.12679044E+03</pdfrwt>
<totfact> 0.82378903E+04</totfact>
</mgrwt>
</event>
<event>
 6    4  0.6277709E-003  0.1281630E+03  0.7818608E-02  0.1230207E+00
         -4   -1    0    0    0  501 -0.00000000000E+00  0.00000000000E+00  0.16457809390E+04  0.16457814290E+04  0.12700000000E+01 0.  1.
         21   -1    0    0  501  502  0.00000000000E+00 -0.00000000000E+00 -0.16203819998E+02  0.16203819998E+02  0.00000000000E+00 0. -1.
         25    2    1    2    0    0  0.28064187666E+02  0.36388576822E+01  0.16286058986E+04  0.16336410065E+04  0.12499970033E+03 0.  0.
    9000005    1    3    3    0    0 -0.28106480047E+02  0.14601251745E+02  0.12527202070E+03  0.12921783911E+03  0.10000000000E+01 0.  0.
    9000005    1    3    3    0    0  0.56170667713E+02 -0.10962394063E+02  0.15033338779E+04  0.15044231674E+04  0.10000000000E+01 0.  0.
         -4    1    1    2    0  502 -0.28064187666E+02 -0.36388576822E+01  0.97122035496E+00  0.28344242512E+02  0.12700000000E+01 0. -1.
<mgrwt>
<rscale>  1 0.12816304E+03</rscale>
<asrwt>0</asrwt>
<pdfrwt beam="2">  1       21 0.24928967E-02 0.12816304E+03</pdfrwt>
<pdfrwt beam="1">  1       -4 0.25320080E+00 0.12816304E+03</pdfrwt>
<totfact> 0.24851309E+03</totfact>
</mgrwt>
</event>
<event>
 6    4  0.6277709E-003  0.1272142E+03  0.7818608E-02  0.1231649E+00
          4   -1    0    0  502    0 -0.00000000000E+00  0.00000000000E+00  0.21150471659E+03  0.21150852947E+03  0.12700000000E+01 0. -1.
         21   -1    0    0  501  502  0.00000000000E+00 -0.00000000000E+00 -0.55383574597E+02  0.55383574597E+02  0.00000000000E+00 0.  1.
         25    2    1    2    0    0  0.23528630024E+02  0.21263653153E+01  0.18812055279E+03  0.22709646295E+03  0.12500137296E+03 0.  0.
    9000005    1    3    3    0    0  0.23378007470E+02 -0.54989298576E+02  0.14065964977E+03  0.15282830649E+03  0.10000000000E+01 0.  0.
    9000005    1    3    3    0    0  0.15062255434E+00  0.57115663892E+02  0.47460903023E+02  0.74268156465E+02  0.10000000000E+01 0.  0.
          4    1    1    2  501    0 -0.23528630024E+02 -0.21263653153E+01 -0.31999410799E+02  0.39795641115E+02  0.12700000000E+01 0.  1.
<mgrwt>
<rscale>  1 0.12721423E+03</rscale>
<asrwt>0</asrwt>
<pdfrwt beam="2">  1       21 0.85205500E-02 0.12721423E+03</pdfrwt>
<pdfrwt beam="1">  1        4 0.32540600E-01 0.12721423E+03</pdfrwt>
<totfact> 0.39328810E+04</totfact>
</mgrwt>
</event>
<event>
 6    4  0.6277709E-003  0.1280446E+03  0.7818608E-02  0.1230386E+00
         21   -1    0    0  501  502  0.00000000000E+00  0.00000000000E+00  0.77934245549E+03  0.77934245549E+03  0.00000000000E+00 0. -1.
         -4   -1    0    0    0  501 -0.00000000000E+00 -0.00000000000E+00 -0.15523203084E+02  0.15575067704E+02  0.12700000000E+01 0.  1.
         25    2    1    2    0    0  0.23453567142E+02 -0.14838348499E+02  0.25502157869E+03  0.28536190103E+03  0.12500065026E+03 0.  0.
    9000005    1    3    3    0    0  0.32643912362E+02  0.47816797594E+02  0.76537872451E+02  0.95974564681E+02  0.10000000000E+01 0.  0.
    9000005    1    3    3    0    0 -0.91903452200E+01 -0.62655146093E+02  0.17848370624E+03  0.18938733635E+03  0.10000000000E+01 0.  0.
         -4    1    1    2    0  502 -0.23453567142E+02  0.14838348499E+02  0.50879767372E+03  0.50955562216E+03  0.12700000000E+01 0. -1.
<mgrwt>
<rscale>  1 0.12804456E+03</rscale>
<asrwt>0</asrwt>
<pdfrwt beam="1">  1       21 0.11989881E+00 0.12804456E+03</pdfrwt>
<pdfrwt beam="2">  1       -4 0.23922549E-02 0.12804456E+03</pdfrwt>
<totfact> 0.16781734E+04</totfact>
</mgrwt>
</event>
<event>
 6    4  0.6277709E-003  0.1301252E+03  0.7818608E-02  0.1227270E+00
          4   -1    0    0  502    0 -0.00000000000E+00  0.00000000000E+00  0.14414000217E+03  0.14414559697E+03  0.12700000000E+01 0. -1.
         21   -1    0    0  501  502  0.00000000000E+00 -0.00000000000E+00 -0.14116189373E+03  0.14116189373E+03  0.00000000000E+00 0.  1.
         25    2    1    2    0    0  0.28192291945E+02 -0.22666810481E+02  0.11121633443E+03  0.17117723139E+03  0.12499592746E+03 0.  0.
    9000005    1    3    3    0    0  0.15175827462E+02 -0.44387434658E+02  0.13092165025E+03  0.13907562187E+03  0.10000000000E+01 0.  0.
    9000005    1    3    3    0    0  0.13016464483E+02  0.21720624177E+02 -0.19705315821E+02  0.32101609521E+02  0.10000000000E+01 0.  0.
          4    1    1    2  501    0 -0.28192291945E+02  0.22666810481E+02 -0.10823822599E+03  0.11413025930E+03  0.12700000000E+01 0.  1.
<mgrwt>
<rscale>  1 0.13012521E+03</rscale>
<asrwt>0</asrwt>
<pdfrwt beam="2">  1       21 0.21717214E-01 0.13012521E+03</pdfrwt>
<pdfrwt beam="1">  1        4 0.22176255E-01 0.13012521E+03</pdfrwt>
<totfact> 0.15063333E+04</totfact>
</mgrwt>
</event>
<event>
 6    4  0.6277709E-003  0.1290826E+03  0.7818608E-02  0.1228823E+00
         -4   -1    0    0    0  501 -0.00000000000E+00  0.00000000000E+00  0.47509998171E+02  0.47526969461E+02  0.12700000000E+01 0.  1.
         21   -1    0    0  501  502  0.00000000000E+00 -0.00000000000E+00 -0.14608147086E+03  0.14608147086E+03  0.00000000000E+00 0.  1.
         25    2    1    2    0    0  0.31987020197E+02 -0.39245959976E+01 -0.57297545502E+02  0.14122789164E+03  0.12499494686E+03 0.  0.
    9000005    1    3    3    0    0  0.61313114213E+02 -0.43703459235E+02 -0.52006812687E+02  0.91515020021E+02  0.10000000000E+01 0.  0.
    9000005    1    3    3    0    0 -0.29326094016E+02  0.39778863238E+02 -0.52907328153E+01  0.49712871617E+02  0.10000000000E+01 0.  0.
         -4    1    1    2    0  502 -0.31987020197E+02  0.39245959976E+01 -0.41273927185E+02  0.52380548680E+02  0.12700000000E+01 0. -1.
<mgrwt>
<rscale>  1 0.12908257E+03</rscale>
<asrwt>0</asrwt>
<pdfrwt beam="2">  1       21 0.22474073E-01 0.12908257E+03</pdfrwt>
<pdfrwt beam="1">  1       -4 0.73109606E-02 0.12908257E+03</pdfrwt>
<totfact> 0.95454181E+04</totfact>
</mgrwt>
</event>
<event>
 6    4  0.6277709E-003  0.1676227E+03  0.7818608E-02  0.1180350E+00
         21   -1    0    0  501  502  0.00000000000E+00  0.00000000000E+00  0.37983415587E+03  0.37983415587E+03  0.00000000000E+00 0. -1.
         -4   -1    0    0    0  501 -0.00000000000E+00 -0.00000000000E+00 -0.81275772968E+02  0.81285694754E+02  0.12700000000E+01 0.  1.
         25    2    1    2    0    0  0.46486226963E+02  0.10154375178E+03  0.30030056767E+02  0.17029141725E+03  0.12500103862E+03 0.  0.
    9000005    1    3    3    0    0  0.50546763792E+02  0.14635882626E+01 -0.24547661099E+02  0.56220148397E+02  0.10000000000E+01 0.  0.
    9000005    1    3    3    0    0 -0.40605368283E+01  0.10008016352E+03  0.54577717866E+02  0.11407126885E+03  0.10000000000E+01 0.  0.
         -4    1    1    2    0  502 -0.46486226963E+02 -0.10154375178E+03  0.26852832614E+03  0.29082843338E+03  0.12700000000E+01 0. -1.
<mgrwt>
<rscale>  1 0.16762268E+03</rscale>
<asrwt>0</asrwt>
<pdfrwt beam="1">  1       21 0.58436023E-01 0.16762268E+03</pdfrwt>
<pdfrwt beam="2">  1       -4 0.12504892E-01 0.16762268E+03</pdfrwt>
<totfact> 0.59347912E+03</totfact>
</mgrwt>
</event>
<event>
 6    4  0.6277709E-003  0.1365345E+03  0.7818608E-02  0.1218070E+00
         -4   -1    0    0    0  501 -0.00000000000E+00  0.00000000000E+00  0.94957183174E+02  0.94965675569E+02  0.12700000000E+01 0.  1.
         21   -1    0    0  501  502  0.00000000000E+00 -0.00000000000E+00 -0.15858392304E+03  0.15858392304E+03  0.00000000000E+00 0. -1.
         25    2    1    2    0    0 -0.64695214622E+01  0.54539085285E+02  0.34737444703E+02  0.14088419914E+03  0.12500120388E+03 0.  0.
    9000005    1    3    3    0    0  0.48039912067E+02 -0.12958670810E+02  0.12287495094E+02  0.51261514182E+02  0.10000000000E+01 0.  0.
    9000005    1    3    3    0    0 -0.54509433529E+02  0.67497756095E+02  0.22449949609E+02  0.89622684958E+02  0.10000000000E+01 0.  0.
         -4    1    1    2    0  502  0.64695214622E+01 -0.54539085285E+02 -0.98364184572E+02  0.11266539947E+03  0.12700000000E+01 0. -1.
<mgrwt>
<rscale>  1 0.13653449E+03</rscale>
<asrwt>0</asrwt>
<pdfrwt beam="2">  1       21 0.24397526E-01 0.13653449E+03</pdfrwt>
<pdfrwt beam="1">  1       -4 0.14609842E-01 0.13653449E+03</pdfrwt>
<totfact> 0.25554742E+04</totfact>
</mgrwt>
</event>
<event>
 6    4  0.6277709E-003  0.1266748E+03  0.7818608E-02  0.1232475E+00
          4   -1    0    0  502    0 -0.00000000000E+00  0.00000000000E+00  0.23812440840E+02  0.23846283542E+02  0.12700000000E+01 0. -1.
         21   -1    0    0  501  502  0.00000000000E+00 -0.00000000000E+00 -0.99897789677E+03  0.99897789677E+03  0.00000000000E+00 0.  1.
         25    2    1    2    0    0 -0.19991515349E+02 -0.47315209517E+01 -0.14555299535E+03  0.19295642240E+03  0.12499783403E+03 0.  0.
    9000005    1    3    3    0    0  0.29402755597E+01 -0.63220045265E+02 -0.64084657964E+02  0.90073651698E+02  0.10000000000E+01 0.  0.
    9000005    1    3    3    0    0 -0.22931790909E+02  0.58488524314E+02 -0.81468337386E+02  0.10288277070E+03  0.10000000000E+01 0.  0.
          4    1    1    2  501    0  0.19991515349E+02  0.47315209517E+01 -0.82961246058E+03  0.82986775791E+03  0.12700000000E+01 0.  1.
<mgrwt>
<rscale>  1 0.12667481E+03</rscale>
<asrwt>0</asrwt>
<pdfrwt beam="2">  1       21 0.15368891E+00 0.12667481E+03</pdfrwt>
<pdfrwt beam="1">  1        4 0.36661178E-02 0.12667481E+03</pdfrwt>
<totfact> 0.46031732E+03</totfact>
</mgrwt>
</event>
<event>
 6    4  0.6277709E-003  0.1292152E+03  0.7818608E-02  0.1228625E+00
         -4   -1    0    0    0  501 -0.00000000000E+00  0.00000000000E+00  0.10978194861E+03  0.10978929429E+03  0.12700000000E+01 0.  1.
         21   -1    0    0  501  502  0.00000000000E+00 -0.00000000000E+00 -0.13317899499E+03  0.13317899499E+03  0.00000000000E+00 0. -1.
         25    2    1    2    0    0 -0.25495882163E+02 -0.20516207027E+02  0.67904148419E+02  0.14597099123E+03  0.12500240858E+03 0.  0.
    9000005    1    3    3    0    0 -0.39150388574E+02 -0.28383605967E+02  0.99509020608E+02  0.11064098334E+03  0.10000000000E+01 0.  0.
    9000005    1    3    3    0    0  0.13654506410E+02  0.78673989402E+01 -0.31604872189E+02  0.35330007890E+02  0.10000000000E+01 0.  0.
         -4    1    1    2    0  502  0.25495882163E+02  0.20516207027E+02 -0.91301194793E+02  0.96997298048E+02  0.12700000000E+01 0. -1.
<mgrwt>
<rscale>  1 0.12921516E+03</rscale>
<asrwt>0</asrwt>
<pdfrwt beam="2">  1       21 0.20489076E-01 0.12921516E+03</pdfrwt>
<pdfrwt beam="1">  1       -4 0.16890561E-01 0.12921516E+03</pdfrwt>
<totfact> 0.27313062E+04</totfact>
</mgrwt>
</event>
<event>
 6    4  0.6277709E-003  0.1266158E+03  0.7818608E-02  0.1232565E+00
         21   -1    0    0  501  502  0.00000000000E+00  0.00000000000E+00  0.85310403991E+02  0.85310403991E+02  0.00000000000E+00 0. -1.
         -4   -1    0    0    0  501 -0.00000000000E+00 -0.00000000000E+00 -0.76387962530E+02  0.76398519092E+02  0.12700000000E+01 0. -1.
         25    2    1    2    0    0  0.64696783587E+01  0.19171109400E+02 -0.18125609441E+02  0.12790658394E+03  0.12498867279E+03 0.  0.
    9000005    1    3    3    0    0  0.28107962012E+02 -0.17036834046E+02  0.42690897164E+02  0.53887140798E+02  0.10000000000E+01 0.  0.
    9000005    1    3    3    0    0 -0.21638283653E+02  0.36207943446E+02 -0.60816506604E+02  0.74019443146E+02  0.10000000000E+01 0.  0.
         -4    1    1    2    0  502 -0.64696783587E+01 -0.19171109400E+02  0.27048050902E+02  0.33802339140E+02  0.12700000000E+01 0.  1.
<mgrwt>
<rscale>  1 0.12661578E+03</rscale>
<asrwt>0</asrwt>
<pdfrwt beam="1">  1       21 0.13124678E-01 0.12661578E+03</pdfrwt>
<pdfrwt beam="2">  1       -4 0.11753533E-01 0.12661578E+03</pdfrwt>
<totfact> 0.11472632E+05</totfact>
</mgrwt>
</event>
<event>
 6    4  0.6277709E-003  0.1311000E+03  0.7818608E-02  0.1225833E+00
          4   -1    0    0  502    0 -0.00000000000E+00  0.00000000000E+00  0.76458843251E+03  0.76458948726E+03  0.12700000000E+01 0. -1.
         21   -1    0    0  501  502  0.00000000000E+00 -0.00000000000E+00 -0.12350919342E+02  0.12350919342E+02  0.00000000000E+00 0. -1.
         25    2    1    2    0    0 -0.36395028224E+02  0.15430184263E+02  0.69568293001E+03  0.70792792627E+03  0.12499808405E+03 0.  0.
    9000005    1    3    3    0    0 -0.27445249517E+01  0.46879203909E+02  0.10016857003E+03  0.11063423791E+03  0.10000000000E+01 0.  0.
    9000005    1    3    3    0    0 -0.33650503272E+02 -0.31449019646E+02  0.59551435998E+03  0.59729368836E+03  0.10000000000E+01 0.  0.
          4    1    1    2  501    0  0.36395028224E+02 -0.15430184263E+02  0.56554583155E+02  0.69012480332E+02  0.12700000000E+01 0.  1.
<mgrwt>
<rscale>  1 0.13110000E+03</rscale>
<asrwt>0</asrwt>
<pdfrwt beam="2">  1       21 0.19001420E-02 0.13110000E+03</pdfrwt>
<pdfrwt beam="1">  1        4 0.11763406E+00 0.13110000E+03</pdfrwt>
<totfact> 0.31423344E+04</totfact>
</mgrwt>
</event>
<event>
 6    4  0.6277709E-003  0.1355918E+03  0.7818608E-02  0.1219387E+00
         21   -1    0    0  501  502  0.00000000000E+00  0.00000000000E+00  0.22613633066E+02  0.22613633066E+02  0.00000000000E+00 0.  1.
         -4   -1    0    0    0  501 -0.00000000000E+00 -0.00000000000E+00 -0.53018794593E+03  0.53018946699E+03  0.12700000000E+01 0. -1.
         25    2    1    2    0    0 -0.52308366071E+02 -0.48903792327E+01 -0.46735477404E+03  0.48662678123E+03  0.12500023370E+03 0.  0.
    9000005    1    3    3    0    0  0.21852154532E+02 -0.41584128085E+02 -0.10647381633E+03  0.11638053931E+03  0.10000000000E+01 0.  0.
    9000005    1    3    3    0    0 -0.74160520603E+02  0.36693748852E+02 -0.36088095771E+03  0.37024624192E+03  0.10000000000E+01 0.  0.
         -4    1    1    2    0  502  0.52308366071E+02  0.48903792327E+01 -0.40219538826E+02  0.66176318826E+02  0.12700000000E+01 0.  1.
<mgrwt>
<rscale>  1 0.13559181E+03</rscale>
<asrwt>0</asrwt>
<pdfrwt beam="1">  1       21 0.34790206E-02 0.13559181E+03</pdfrwt>
<pdfrwt beam="2">  1       -4 0.81570233E-01 0.13559181E+03</pdfrwt>
<totfact> 0.27307034E+04</totfact>
</mgrwt>
</event>
<event>
 6    4  0.6277709E-003  0.1266637E+03  0.7818608E-02  0.1232492E+00
         21   -1    0    0  501  502  0.00000000000E+00  0.00000000000E+00  0.29630513749E+03  0.29630513749E+03  0.00000000000E+00 0.  1.
          4   -1    0    0  502    0 -0.00000000000E+00 -0.00000000000E+00 -0.92241741725E+02  0.92250484099E+02  0.12700000000E+01 0. -1.
         25    2    1    2    0    0  0.71569366940E+01 -0.19166724851E+02 -0.48152717792E+02  0.13550786736E+03  0.12500045120E+03 0.  0.
    9000005    1    3    3    0    0 -0.96407728118E+00  0.22345081294E+02  0.35381302113E+02  0.41869662553E+02  0.10000000000E+01 0.  0.
    9000005    1    3    3    0    0  0.81210139752E+01 -0.41511806145E+02 -0.83534019905E+02  0.93638204804E+02  0.10000000000E+01 0.  0.
          4    1    1    2  501    0 -0.71569366940E+01  0.19166724851E+02  0.25221611355E+03  0.25304775423E+03  0.12700000000E+01 0.  1.
<mgrwt>
<rscale>  1 0.12666372E+03</rscale>
<asrwt>0</asrwt>
<pdfrwt beam="1">  1       21 0.45585406E-01 0.12666372E+03</pdfrwt>
<pdfrwt beam="2">  1        4 0.14191919E-01 0.12666372E+03</pdfrwt>
<totfact> 0.78600975E+03</totfact>
</mgrwt>
</event>
<event>
 6    4  0.6277709E-003  0.1681741E+03  0.7818608E-02  0.1179765E+00
         21   -1    0    0  501  502  0.00000000000E+00  0.00000000000E+00  0.46570661984E+03  0.46570661984E+03  0.00000000000E+00 0. -1.
          4   -1    0    0  502    0 -0.00000000000E+00 -0.00000000000E+00 -0.66752527290E+02  0.66764607387E+02  0.12700000000E+01 0.  1.
         25    2    1    2    0    0 -0.89180009521E+02 -0.68586628843E+02  0.65383738311E+02  0.18043714666E+03  0.12500132361E+03 0.  0.
    9000005    1    3    3    0    0 -0.79704133736E+02 -0.13169227417E+01  0.77775035913E+02  0.11137521911E+03  0.10000000000E+01 0.  0.
    9000005    1    3    3    0    0 -0.94758757840E+01 -0.67269706101E+02 -0.12391297601E+02  0.69061927551E+02  0.10000000000E+01 0.  0.
          4    1    1    2  501    0  0.89180009521E+02  0.68586628843E+02  0.33357035424E+03  0.35203408057E+03  0.12700000000E+01 0. -1.
<mgrwt>
<rscale>  1 0.16817411E+03</rscale>
<asrwt>0</asrwt>
<pdfrwt beam="1">  1       21 0.71647170E-01 0.16817411E+03</pdfrwt>
<pdfrwt beam="2">  1        4 0.10270682E-01 0.16817411E+03</pdfrwt>
<totfact> 0.53430445E+03</totfact>
</mgrwt>
</event>
<event>
 6    4  0.6277709E-003  0.1273851E+03  0.7818608E-02  0.1231388E+00
         21   -1    0    0  501  502  0.00000000000E+00  0.00000000000E+00  0.44431350444E+03  0.44431350444E+03  0.00000000000E+00 0. -1.
          4   -1    0    0  502    0 -0.00000000000E+00 -0.00000000000E+00 -0.19091531525E+02  0.19133726139E+02  0.12700000000E+01 0. -1.
         25    2    1    2    0    0  0.24356821084E+02  0.30227511255E+01  0.20156291411E+03  0.23844194344E+03  0.12499824114E+03 0.  0.
    9000005    1    3    3    0    0  0.23995845008E+02  0.30504199967E+01 -0.10491279699E+02  0.26385082708E+02  0.10000000000E+01 0.  0.
    9000005    1    3    3    0    0  0.36097607592E+00 -0.27668871268E-01  0.21205419381E+03  0.21205686073E+03  0.10000000000E+01 0.  0.
          4    1    1    2  501    0 -0.24356821084E+02 -0.30227511255E+01  0.22365905880E+03  0.22500528714E+03  0.12700000000E+01 0.  1.
<mgrwt>
<rscale>  1 0.12738505E+03</rscale>
<asrwt>0</asrwt>
<pdfrwt beam="1">  1       21 0.68355916E-01 0.12738505E+03</pdfrwt>
<pdfrwt beam="2">  1        4 0.29405444E-02 0.12738505E+03</pdfrwt>
<totfact> 0.44160872E+04</totfact>
</mgrwt>
</event>
<event>
 6    4  0.6277709E-003  0.1302281E+03  0.7818608E-02  0.1227118E+00
         21   -1    0    0  501  502  0.00000000000E+00  0.00000000000E+00  0.15447812960E+03  0.15447812960E+03  0.00000000000E+00 0.  1.
         -4   -1    0    0    0  501 -0.00000000000E+00 -0.00000000000E+00 -0.92648677592E+02  0.92657381571E+02  0.12700000000E+01 0. -1.
         25    2    1    2    0    0  0.41302640803E+01 -0.36299503824E+02 -0.42180241735E+02  0.13688877720E+03  0.12499860588E+03 0.  0.
    9000005    1    3    3    0    0  0.14801181857E+01 -0.82078252606E+02 -0.39061377733E+02  0.90916563569E+02  0.10000000000E+01 0.  0.
    9000005    1    3    3    0    0  0.26501458946E+01  0.45778748782E+02 -0.31188640017E+01  0.45972213629E+02  0.10000000000E+01 0.  0.
         -4    1    1    2    0  502 -0.41302640803E+01  0.36299503824E+02  0.10400969374E+03  0.11024673397E+03  0.12700000000E+01 0.  1.
<mgrwt>
<rscale>  1 0.13022812E+03</rscale>
<asrwt>0</asrwt>
<pdfrwt beam="1">  1       21 0.23765866E-01 0.13022812E+03</pdfrwt>
<pdfrwt beam="2">  1       -4 0.14254714E-01 0.13022812E+03</pdfrwt>
<totfact> 0.27888740E+04</totfact>
</mgrwt>
</event>
<event>
 6    4  0.6277709E-003  0.1268361E+03  0.7818608E-02  0.1232227E+00
         21   -1    0    0  501  502  0.00000000000E+00  0.00000000000E+00  0.68481415466E+02  0.68481415466E+02  0.00000000000E+00 0. -1.
          4   -1    0    0  502    0 -0.00000000000E+00 -0.00000000000E+00 -0.93590399625E+02  0.93599016031E+02  0.12700000000E+01 0. -1.
         25    2    1    2    0    0 -0.14672415715E+02  0.15698195974E+02 -0.43170379732E+02  0.13398167619E+03  0.12500277888E+03 0.  0.
    9000005    1    3    3    0    0 -0.51706753516E+00  0.17575934634E+02  0.43085500525E+02  0.46546118986E+02  0.10000000000E+01 0.  0.
    9000005    1    3    3    0    0 -0.14155348180E+02 -0.18777386607E+01 -0.86255880258E+02  0.87435557204E+02  0.10000000000E+01 0.  0.
          4    1    1    2  501    0  0.14672415715E+02 -0.15698195974E+02  0.18061395574E+02  0.28098755307E+02  0.12700000000E+01 0.  1.
<mgrwt>
<rscale>  1 0.12683615E+03</rscale>
<asrwt>0</asrwt>
<pdfrwt beam="1">  1       21 0.10535602E-01 0.12683615E+03</pdfrwt>
<pdfrwt beam="2">  1        4 0.14400092E-01 0.12683615E+03</pdfrwt>
<totfact> 0.11933750E+05</totfact>
</mgrwt>
</event>
<event>
 6    4  0.6277709E-003  0.1266400E+03  0.7818608E-02  0.1232528E+00
          4   -1    0    0  502    0 -0.00000000000E+00  0.00000000000E+00  0.48302028058E+03  0.48302195017E+03  0.12700000000E+01 0. -1.
         21   -1    0    0  501  502  0.00000000000E+00 -0.00000000000E+00 -0.60702087292E+02  0.60702087292E+02  0.00000000000E+00 0.  1.
         25    2    1    2    0    0  0.16300235552E+02 -0.12155428627E+02  0.47270472644E+03  0.48937454117E+03  0.12499692406E+03 0.  0.
    9000005    1    3    3    0    0  0.11420874513E+02 -0.60934196927E+02  0.14052949756E+03  0.15359997531E+03  0.10000000000E+01 0.  0.
    9000005    1    3    3    0    0  0.48793610399E+01  0.48778768301E+02  0.33217522888E+03  0.33577456586E+03  0.10000000000E+01 0.  0.
          4    1    1    2  501    0 -0.16300235552E+02  0.12155428627E+02 -0.50386533154E+02  0.54349496294E+02  0.12700000000E+01 0.  1.
<mgrwt>
<rscale>  1 0.12663997E+03</rscale>
<asrwt>0</asrwt>
<pdfrwt beam="2">  1       21 0.93387830E-02 0.12663997E+03</pdfrwt>
<pdfrwt beam="1">  1        4 0.74311960E-01 0.12663997E+03</pdfrwt>
<totfact> 0.62538645E+03</totfact>
</mgrwt>
</event>
<event>
 6    4  0.6277709E-003  0.1270275E+03  0.7818608E-02  0.1231934E+00
         21   -1    0    0  501  502  0.00000000000E+00  0.00000000000E+00  0.52483414088E+03  0.52483414088E+03  0.00000000000E+00 0. -1.
          4   -1    0    0  502    0 -0.00000000000E+00 -0.00000000000E+00 -0.10769731546E+02  0.10844354179E+02  0.12700000000E+01 0. -1.
         25    2    1    2    0    0 -0.22499746022E+02 -0.21879519564E+01  0.45579023188E+03  0.47316035079E+03  0.12499982552E+03 0.  0.
    9000005    1    3    3    0    0 -0.97699711606E+01 -0.36546518667E+02  0.42076048508E+03  0.42245885737E+03  0.10000000000E+01 0.  0.
    9000005    1    3    3    0    0 -0.12729774861E+02  0.34358566711E+02  0.35029746795E+02  0.50701493419E+02  0.10000000000E+01 0.  0.
          4    1    1    2  501    0  0.22499746022E+02  0.21879519564E+01  0.58274177460E+02  0.62518144274E+02  0.12700000000E+01 0.  1.
<mgrwt>
<rscale>  1 0.12702749E+03</rscale>
<asrwt>0</asrwt>
<pdfrwt beam="1">  1       21 0.80743694E-01 0.12702749E+03</pdfrwt>
<pdfrwt beam="2">  1        4 0.16627406E-02 0.12702749E+03</pdfrwt>
<totfact> 0.73795372E+04</totfact>
</mgrwt>
</event>
<event>
 6    4  0.6277709E-003  0.1569288E+03  0.7818608E-02  0.1192208E+00
         -4   -1    0    0    0  501 -0.00000000000E+00  0.00000000000E+00  0.21178810075E+03  0.21179190853E+03  0.12700000000E+01 0.  1.
         21   -1    0    0  501  502  0.00000000000E+00 -0.00000000000E+00 -0.21611726008E+03  0.21611726008E+03  0.00000000000E+00 0. -1.
         25    2    1    2    0    0  0.29184557191E+02 -0.90289071182E+02  0.16879984258E+03  0.23047786675E+03  0.12499122149E+03 0.  0.
    9000005    1    3    3    0    0 -0.77660095978E+01 -0.11066286426E+03  0.14308256396E+03  0.18105303240E+03  0.10000000000E+01 0.  0.
    9000005    1    3    3    0    0  0.36950566789E+02  0.20373793079E+02  0.25717278627E+02  0.49424834349E+02  0.10000000000E+01 0.  0.
         -4    1    1    2    0  502 -0.29184557191E+02  0.90289071182E+02 -0.17312900191E+03  0.19743130186E+03  0.12700000000E+01 0. -1.
<mgrwt>
<rscale>  1 0.15692884E+03</rscale>
<asrwt>0</asrwt>
<pdfrwt beam="2">  1       21 0.33248809E-01 0.15692884E+03</pdfrwt>
<pdfrwt beam="1">  1       -4 0.32583365E-01 0.15692884E+03</pdfrwt>
<totfact> 0.32986838E+03</totfact>
</mgrwt>
</event>
<event>
 6    4  0.6277709E-003  0.1273952E+03  0.7818608E-02  0.1231373E+00
         -4   -1    0    0    0  501 -0.00000000000E+00  0.00000000000E+00  0.25455708273E+02  0.25487369101E+02  0.12700000000E+01 0. -1.
         21   -1    0    0  501  502  0.00000000000E+00 -0.00000000000E+00 -0.33180974135E+03  0.33180974135E+03  0.00000000000E+00 0. -1.
         25    2    1    2    0    0  0.18354728348E+02 -0.16332829806E+02 -0.14061581472E+03  0.18974285862E+03  0.12500355061E+03 0.  0.
    9000005    1    3    3    0    0  0.69503982802E+02 -0.17614707671E+02 -0.56540986578E+02  0.91317932055E+02  0.10000000000E+01 0.  0.
    9000005    1    3    3    0    0 -0.51149254455E+02  0.12818778647E+01 -0.84074828141E+02  0.98424926563E+02  0.10000000000E+01 0.  0.
         -4    1    1    2    0  502 -0.18354728348E+02  0.16332829806E+02 -0.16573821836E+03  0.16755425183E+03  0.12700000000E+01 0.  1.
<mgrwt>
<rscale>  1 0.12739523E+03</rscale>
<asrwt>0</asrwt>
<pdfrwt beam="2">  1       21 0.51047654E-01 0.12739523E+03</pdfrwt>
<pdfrwt beam="1">  1       -4 0.39188851E-02 0.12739523E+03</pdfrwt>
<totfact> 0.52158826E+04</totfact>
</mgrwt>
</event>
<event>
 6    4  0.6277709E-003  0.1315369E+03  0.7818608E-02  0.1225193E+00
          4   -1    0    0  502    0 -0.00000000000E+00  0.00000000000E+00  0.27922201362E+03  0.27922490181E+03  0.12700000000E+01 0. -1.
         21   -1    0    0  501  502  0.00000000000E+00 -0.00000000000E+00 -0.26963163006E+02  0.26963163006E+02  0.00000000000E+00 0. -1.
         25    2    1    2    0    0  0.26345001158E+02 -0.31335799440E+02  0.17724983078E+03  0.22072487175E+03  0.12500390028E+03 0.  0.
    9000005    1    3    3    0    0  0.34140939570E+02  0.26475666733E+02  0.15042630731E+03  0.15651082587E+03  0.10000000000E+01 0.  0.
    9000005    1    3    3    0    0 -0.77959384116E+01 -0.57811466173E+02  0.26823523471E+02  0.64214045879E+02  0.10000000000E+01 0.  0.
          4    1    1    2  501    0 -0.26345001158E+02  0.31335799440E+02  0.75009019832E+02  0.85463193064E+02  0.12700000000E+01 0.  1.
<mgrwt>
<rscale>  1 0.13153694E+03</rscale>
<asrwt>0</asrwt>
<pdfrwt beam="2">  1       21 0.41481791E-02 0.13153694E+03</pdfrwt>
<pdfrwt beam="1">  1        4 0.42959754E-01 0.13153694E+03</pdfrwt>
<totfact> 0.77974389E+04</totfact>
</mgrwt>
</event>
<event>
 6    4  0.6277709E-003  0.1294938E+03  0.7818608E-02  0.1228209E+00
         21   -1    0    0  501  502  0.00000000000E+00  0.00000000000E+00  0.73674704917E+02  0.73674704917E+02  0.00000000000E+00 0. -1.
          4   -1    0    0  502    0 -0.00000000000E+00 -0.00000000000E+00 -0.94261718299E+02  0.94270273346E+02  0.12700000000E+01 0. -1.
         25    2    1    2    0    0 -0.17454489902E+02 -0.28964796443E+02 -0.29786900188E+02  0.13287548343E+03  0.12500006409E+03 0.  0.
    9000005    1    3    3    0    0 -0.48685172661E+02  0.33104604721E+02 -0.22375295330E+02  0.62990592407E+02  0.10000000000E+01 0.  0.
    9000005    1    3    3    0    0  0.31230682759E+02 -0.62069401164E+02 -0.74116048580E+01  0.69884891021E+02  0.10000000000E+01 0.  0.
          4    1    1    2  501    0  0.17454489902E+02  0.28964796443E+02  0.91998868060E+01  0.35069494835E+02  0.12700000000E+01 0.  1.
<mgrwt>
<rscale>  1 0.12949376E+03</rscale>
<asrwt>0</asrwt>
<pdfrwt beam="1">  1       21 0.11334570E-01 0.12949376E+03</pdfrwt>
<pdfrwt beam="2">  1        4 0.14503303E-01 0.12949376E+03</pdfrwt>
<totfact> 0.10395169E+05</totfact>
</mgrwt>
</event>
<event>
 6    4  0.6277709E-003  0.1344894E+03  0.7818608E-02  0.1220942E+00
         -4   -1    0    0    0  501 -0.00000000000E+00  0.00000000000E+00  0.20870855792E+02  0.20909460096E+02  0.12700000000E+01 0.  1.
         21   -1    0    0  501  502  0.00000000000E+00 -0.00000000000E+00 -0.11423769436E+04  0.11423769436E+04  0.00000000000E+00 0. -1.
         25    2    1    2    0    0 -0.48971173665E+02  0.79902305934E+01 -0.20341491107E+03  0.24385449140E+03  0.12500146918E+03 0.  0.
    9000005    1    3    3    0    0  0.27177080886E+02 -0.59588490288E+01 -0.14290493065E+03  0.14559162342E+03  0.10000000000E+01 0.  0.
    9000005    1    3    3    0    0 -0.76148254551E+02  0.13949079622E+02 -0.60509980423E+02  0.98262867983E+02  0.10000000000E+01 0.  0.
         -4    1    1    2    0  502  0.48971173665E+02 -0.79902305934E+01 -0.91809117672E+03  0.91943191228E+03  0.12700000000E+01 0. -1.
<mgrwt>
<rscale>  1 0.13448936E+03</rscale>
<asrwt>0</asrwt>
<pdfrwt beam="2">  1       21 0.17575034E+00 0.13448936E+03</pdfrwt>
<pdfrwt beam="1">  1       -4 0.32139239E-02 0.13448936E+03</pdfrwt>
<totfact> 0.39612698E+03</totfact>
</mgrwt>
</event>
<event>
 6    4  0.6277709E-003  0.1281356E+03  0.7818608E-02  0.1230249E+00
         21   -1    0    0  501  502  0.00000000000E+00  0.00000000000E+00  0.31300135370E+02  0.31300135370E+02  0.00000000000E+00 0. -1.
         -4   -1    0    0    0  501 -0.00000000000E+00 -0.00000000000E+00 -0.19524855254E+03  0.19525268287E+03  0.12700000000E+01 0. -1.
         25    2    1    2    0    0  0.26891681612E+02 -0.83784347443E+01 -0.13281166612E+03  0.18454721296E+03  0.12500149778E+03 0.  0.
    9000005    1    3    3    0    0  0.39284748929E+02  0.47503571625E+02 -0.34145997790E+02  0.70475740369E+02  0.10000000000E+01 0.  0.
    9000005    1    3    3    0    0 -0.12393067317E+02 -0.55882006370E+02 -0.98665668326E+02  0.11407147259E+03  0.10000000000E+01 0.  0.
         -4    1    1    2    0  502 -0.26891681612E+02  0.83784347443E+01 -0.31136751053E+02  0.42005605278E+02  0.12700000000E+01 0.  1.
<mgrwt>
<rscale>  1 0.12813561E+03</rscale>
<asrwt>0</asrwt>
<pdfrwt beam="1">  1       21 0.48154054E-02 0.12813561E+03</pdfrwt>
<pdfrwt beam="2">  1       -4 0.30040539E-01 0.12813561E+03</pdfrwt>
<totfact> 0.12101899E+05</totfact>
</mgrwt>
</event>
<event>
 6    4  0.6277709E-003  0.1278120E+03  0.7818608E-02  0.1230739E+00
          4   -1    0    0  502    0 -0.00000000000E+00  0.00000000000E+00  0.95221472037E+02  0.95229940864E+02  0.12700000000E+01 0.  1.
         21   -1    0    0  501  502  0.00000000000E+00 -0.00000000000E+00 -0.13836805152E+03  0.13836805152E+03  0.00000000000E+00 0. -1.
         25    2    1    2    0    0  0.25879904234E+02 -0.64328663675E+01  0.49589883028E+02  0.13709506190E+03  0.12499899314E+03 0.  0.
    9000005    1    3    3    0    0 -0.18188815396E+02 -0.33249658900E+02  0.71585941528E+02  0.81005677868E+02  0.10000000000E+01 0.  0.
    9000005    1    3    3    0    0  0.44068719630E+02  0.26816792532E+02 -0.21996058500E+02  0.56089384032E+02  0.10000000000E+01 0.  0.
          4    1    1    2  501    0 -0.25879904234E+02  0.64328663675E+01 -0.92736462515E+02  0.96502930487E+02  0.12700000000E+01 0. -1.
<mgrwt>
<rscale>  1 0.12781197E+03</rscale>
<asrwt>0</asrwt>
<pdfrwt beam="2">  1       21 0.21287392E-01 0.12781197E+03</pdfrwt>
<pdfrwt beam="1">  1        4 0.14650557E-01 0.12781197E+03</pdfrwt>
<totfact> 0.32605864E+04</totfact>
</mgrwt>
</event>
<event>
 6    4  0.6277709E-003  0.1335951E+03  0.7818608E-02  0.1222217E+00
         21   -1    0    0  501  502  0.00000000000E+00  0.00000000000E+00  0.70721067268E+02  0.70721067268E+02  0.00000000000E+00 0. -1.
         -4   -1    0    0    0  501 -0.00000000000E+00 -0.00000000000E+00 -0.11819907084E+03  0.11820589346E+03  0.12700000000E+01 0. -1.
         25    2    1    2    0    0 -0.36064642315E+02 -0.30240673912E+02 -0.47666329018E+02  0.14184400043E+03  0.12502993542E+03 0.  0.
    9000005    1    3    3    0    0 -0.17811419379E+02  0.40312747748E+02 -0.52795753711E+02  0.68780490702E+02  0.10000000000E+01 0.  0.
    9000005    1    3    3    0    0 -0.18253222936E+02 -0.70553421660E+02  0.51294246935E+01  0.73063509724E+02  0.10000000000E+01 0.  0.
         -4    1    1    2    0  502  0.36064642315E+02  0.30240673912E+02  0.18832544399E+00  0.47082960298E+02  0.12700000000E+01 0.  1.
<mgrwt>
<rscale>  1 0.13359507E+03</rscale>
<asrwt>0</asrwt>
<pdfrwt beam="1">  1       21 0.10880164E-01 0.13359507E+03</pdfrwt>
<pdfrwt beam="2">  1       -4 0.18185874E-01 0.13359507E+03</pdfrwt>
<totfact> 0.75368854E+04</totfact>
</mgrwt>
</event>
<event>
 6    4  0.6277709E-003  0.1273030E+03  0.7818608E-02  0.1231513E+00
          4   -1    0    0  502    0 -0.00000000000E+00  0.00000000000E+00  0.57120409330E+02  0.57134526007E+02  0.12700000000E+01 0.  1.
         21   -1    0    0  501  502  0.00000000000E+00 -0.00000000000E+00 -0.10395664619E+03  0.10395664619E+03  0.00000000000E+00 0.  1.
         25    2    1    2    0    0  0.19495913696E+02  0.14200438113E+02 -0.49923096298E+02  0.13674194850E+03  0.12499720734E+03 0.  0.
    9000005    1    3    3    0    0  0.81366347984E+01 -0.32030683573E+02 -0.75693118409E+02  0.82599138557E+02  0.10000000000E+01 0.  0.
    9000005    1    3    3    0    0  0.11359278897E+02  0.46231121686E+02  0.25770022110E+02  0.54142809947E+02  0.10000000000E+01 0.  0.
          4    1    1    2  501    0 -0.19495913696E+02 -0.14200438113E+02  0.30868594347E+01  0.24349223696E+02  0.12700000000E+01 0. -1.
<mgrwt>
<rscale>  1 0.12730297E+03</rscale>
<asrwt>0</asrwt>
<pdfrwt beam="2">  1       21 0.15993330E-01 0.12730297E+03</pdfrwt>
<pdfrwt beam="1">  1        4 0.87894379E-02 0.12730297E+03</pdfrwt>
<totfact> 0.13133236E+05</totfact>
</mgrwt>
</event>
<event>
 6    4  0.6277709E-003  0.1340724E+03  0.7818608E-02  0.1221535E+00
         21   -1    0    0  501  502  0.00000000000E+00  0.00000000000E+00  0.31455836626E+02  0.31455836626E+02  0.00000000000E+00 0.  1.
          4   -1    0    0  502    0 -0.00000000000E+00 -0.00000000000E+00 -0.62821856238E+03  0.62821984609E+03  0.12700000000E+01 0. -1.
         25    2    1    2    0    0  0.21855570528E+02  0.43275641120E+02 -0.59628840228E+03  0.61117532230E+03  0.12499987526E+03 0.  0.
    9000005    1    3    3    0    0 -0.37401105233E+02  0.59451702789E+02 -0.37476145581E+03  0.38128794421E+03  0.10000000000E+01 0.  0.
    9000005    1    3    3    0    0  0.59256675761E+02 -0.16176061669E+02 -0.22152694647E+03  0.22988737809E+03  0.10000000000E+01 0.  0.
          4    1    1    2  501    0 -0.21855570528E+02 -0.43275641120E+02 -0.47432347177E+00  0.48500360413E+02  0.12700000000E+01 0.  1.
<mgrwt>
<rscale>  1 0.13407243E+03</rscale>
<asrwt>0</asrwt>
<pdfrwt beam="1">  1       21 0.48393596E-02 0.13407243E+03</pdfrwt>
<pdfrwt beam="2">  1        4 0.96651078E-01 0.13407243E+03</pdfrwt>
<totfact> 0.10741118E+04</totfact>
</mgrwt>
</event>
<event>
 6    4  0.6277709E-003  0.1285065E+03  0.7818608E-02  0.1229689E+00
         21   -1    0    0  501  502  0.00000000000E+00  0.00000000000E+00  0.57469535893E+02  0.57469535893E+02  0.00000000000E+00 0.  1.
         -4   -1    0    0    0  501 -0.00000000000E+00 -0.00000000000E+00 -0.10911641387E+03  0.10912380435E+03  0.12700000000E+01 0.  1.
         25    2    1    2    0    0 -0.29331919683E+02 -0.53315402910E+01 -0.43358913244E+02  0.13562416050E+03  0.12500052288E+03 0.  0.
    9000005    1    3    3    0    0  0.56799039381E+01 -0.58914295023E+02 -0.16475850022E+01  0.59218831491E+02  0.10000000000E+01 0.  0.
    9000005    1    3    3    0    0 -0.35011823621E+02  0.53582754732E+02 -0.41711328241E+02  0.76405329013E+02  0.10000000000E+01 0.  0.
         -4    1    1    2    0  502  0.29331919683E+02  0.53315402910E+01 -0.82879647311E+01  0.30969179737E+02  0.12700000000E+01 0. -1.
<mgrwt>
<rscale>  1 0.12850649E+03</rscale>
<asrwt>0</asrwt>
<pdfrwt beam="1">  1       21 0.88414672E-02 0.12850649E+03</pdfrwt>
<pdfrwt beam="2">  1       -4 0.16788788E-01 0.12850649E+03</pdfrwt>
<totfact> 0.12411406E+05</totfact>
</mgrwt>
</event>
<event>
 6    4  0.6277709E-003  0.1554835E+03  0.7818608E-02  0.1193892E+00
         -4   -1    0    0    0  501 -0.00000000000E+00  0.00000000000E+00  0.13255795519E+02  0.13316494090E+02  0.12700000000E+01 0.  1.
         21   -1    0    0  501  502  0.00000000000E+00 -0.00000000000E+00 -0.16486916592E+04  0.16486916592E+04  0.00000000000E+00 0. -1.
         25    2    1    2    0    0 -0.83846715342E+01 -0.92079698497E+02 -0.52004544207E+03  0.54279129355E+03  0.12500461172E+03 0.  0.
    9000005    1    3    3    0    0  0.43149571790E+02 -0.84596548613E+02 -0.41257843794E+03  0.42336795939E+03  0.10000000000E+01 0.  0.
    9000005    1    3    3    0    0 -0.51534243324E+02 -0.74831498845E+01 -0.10746700412E+03  0.11942333416E+03  0.10000000000E+01 0.  0.
         -4    1    1    2    0  502  0.83846715342E+01  0.92079698497E+02 -0.11153904216E+04  0.11192168598E+04  0.12700000000E+01 0. -1.
<mgrwt>
<rscale>  1 0.15548352E+03</rscale>
<asrwt>0</asrwt>
<pdfrwt beam="2">  1       21 0.25364483E+00 0.15548352E+03</pdfrwt>
<pdfrwt beam="1">  1       -4 0.20440602E-02 0.15548352E+03</pdfrwt>
<totfact> 0.26491785E+03</totfact>
</mgrwt>
</event>
<event>
 6    4  0.6277709E-003  0.1291922E+03  0.7818608E-02  0.1228659E+00
         21   -1    0    0  501  502  0.00000000000E+00  0.00000000000E+00  0.11348804704E+02  0.11348804704E+02  0.00000000000E+00 0.  1.
         -4   -1    0    0    0  501 -0.00000000000E+00 -0.00000000000E+00 -0.11776789204E+04  0.11776796052E+04  0.12700000000E+01 0. -1.
         25    2    1    2    0    0 -0.31033000689E+02 -0.10111116025E+02 -0.11393831947E+04  0.11466842102E+04  0.12500132658E+03 0.  0.
    9000005    1    3    3    0    0 -0.26300539567E+02  0.54456248572E+02 -0.41065737648E+03  0.41508755973E+03  0.10000000000E+01 0.  0.
    9000005    1    3    3    0    0 -0.47324611220E+01 -0.64567364597E+02 -0.72872581825E+03  0.73159665044E+03  0.10000000000E+01 0.  0.
         -4    1    1    2    0  502  0.31033000689E+02  0.10111116025E+02 -0.26946920971E+02  0.42344199707E+02  0.12700000000E+01 0.  1.
<mgrwt>
<rscale>  1 0.12919216E+03</rscale>
<asrwt>0</asrwt>
<pdfrwt beam="1">  1       21 0.17459704E-02 0.12919216E+03</pdfrwt>
<pdfrwt beam="2">  1       -4 0.18118684E+00 0.12919216E+03</pdfrwt>
<totfact> 0.12021062E+04</totfact>
</mgrwt>
</event>
<event>
 6    4  0.6277709E-003  0.1275682E+03  0.7818608E-02  0.1231109E+00
          4   -1    0    0  502    0 -0.00000000000E+00  0.00000000000E+00  0.46683161933E+03  0.46683334682E+03  0.12700000000E+01 0.  1.
         21   -1    0    0  501  502  0.00000000000E+00 -0.00000000000E+00 -0.13729753808E+02  0.13729753808E+02  0.00000000000E+00 0.  1.
         25    2    1    2    0    0 -0.25414434617E+02 -0.15922324603E+01  0.41896594615E+03  0.43795673277E+03  0.12500082820E+03 0.  0.
    9000005    1    3    3    0    0 -0.66761163204E+02  0.19236699370E+02  0.15366547315E+03  0.16864513380E+03  0.10000000000E+01 0.  0.
    9000005    1    3    3    0    0  0.41346728587E+02 -0.20828931831E+02  0.26530047300E+03  0.26931159897E+03  0.10000000000E+01 0.  0.
          4    1    1    2  501    0  0.25414434617E+02  0.15922324603E+01  0.34135919370E+02  0.42606367862E+02  0.12700000000E+01 0. -1.
<mgrwt>
<rscale>  1 0.12756816E+03</rscale>
<asrwt>0</asrwt>
<pdfrwt beam="2">  1       21 0.21122702E-02 0.12756816E+03</pdfrwt>
<pdfrwt beam="1">  1        4 0.71824888E-01 0.12756816E+03</pdfrwt>
<totfact> 0.80915133E+04</totfact>
</mgrwt>
</event>
<event>
 6    4  0.6277709E-003  0.1279359E+03  0.7818608E-02  0.1230551E+00
         21   -1    0    0  501  502  0.00000000000E+00  0.00000000000E+00  0.33213195703E+02  0.33213195703E+02  0.00000000000E+00 0. -1.
         -4   -1    0    0    0  501 -0.00000000000E+00 -0.00000000000E+00 -0.18523477940E+03  0.18523913301E+03  0.12700000000E+01 0. -1.
         25    2    1    2    0    0 -0.18957580628E+00 -0.27252189055E+02 -0.13641961895E+03  0.18702380741E+03  0.12499949743E+03 0.  0.
    9000005    1    3    3    0    0 -0.62392555173E+02 -0.13495563388E+02 -0.61088121700E+02  0.88361302531E+02  0.10000000000E+01 0.  0.
    9000005    1    3    3    0    0  0.62202979366E+02 -0.13756625667E+02 -0.75331497247E+02  0.98662504880E+02  0.10000000000E+01 0.  0.
         -4    1    1    2    0  502  0.18957580628E+00  0.27252189055E+02 -0.15601964748E+02  0.31428521303E+02  0.12700000000E+01 0.  1.
<mgrwt>
<rscale>  1 0.12793589E+03</rscale>
<asrwt>0</asrwt>
<pdfrwt beam="1">  1       21 0.51097223E-02 0.12793589E+03</pdfrwt>
<pdfrwt beam="2">  1       -4 0.28499862E-01 0.12793589E+03</pdfrwt>
<totfact> 0.12092640E+05</totfact>
</mgrwt>
</event>
<event>
 6    4  0.6277709E-003  0.1266779E+03  0.7818608E-02  0.1232470E+00
          4   -1    0    0  502    0 -0.00000000000E+00  0.00000000000E+00  0.56166225340E+03  0.56166368923E+03  0.12700000000E+01 0.  1.
         21   -1    0    0  501  502  0.00000000000E+00 -0.00000000000E+00 -0.96527798398E+01  0.96527798398E+01  0.00000000000E+00 0.  1.
         25    2    1    2    0    0 -0.19365034457E+02 -0.64305961343E+01  0.46608651810E+03  0.48299475995E+03  0.12502375238E+03 0.  0.
    9000005    1    3    3    0    0  0.49617291282E+02 -0.24420065979E+02  0.19561349556E+03  0.20328269691E+03  0.10000000000E+01 0.  0.
    9000005    1    3    3    0    0 -0.68982325738E+02  0.17989469845E+02  0.27047302253E+03  0.27971206304E+03  0.10000000000E+01 0.  0.
          4    1    1    2  501    0  0.19365034457E+02  0.64305961343E+01  0.85922955467E+02  0.88321709122E+02  0.12700000000E+01 0. -1.
<mgrwt>
<rscale>  1 0.12667792E+03</rscale>
<asrwt>0</asrwt>
<pdfrwt beam="2">  1       21 0.14850435E-02 0.12667792E+03</pdfrwt>
<pdfrwt beam="1">  1        4 0.86416089E-01 0.12667792E+03</pdfrwt>
<totfact> 0.94728765E+04</totfact>
</mgrwt>
</event>
<event>
 6    4  0.6277709E-003  0.1327443E+03  0.7818608E-02  0.1223440E+00
         21   -1    0    0  501  502  0.00000000000E+00  0.00000000000E+00  0.99781276022E+03  0.99781276022E+03  0.00000000000E+00 0.  1.
         -4   -1    0    0    0  501 -0.00000000000E+00 -0.00000000000E+00 -0.87573137658E+01  0.88489233465E+01  0.12700000000E+01 0.  1.
         25    2    1    2    0    0 -0.44344229419E+02  0.55309402057E+01  0.85759168603E+03  0.86780443605E+03  0.12499614915E+03 0.  0.
    9000005    1    3    3    0    0 -0.33528988056E+02 -0.44978526162E+02  0.69363002196E+03  0.69589573086E+03  0.10000000000E+01 0.  0.
    9000005    1    3    3    0    0 -0.10815241363E+02  0.50509466368E+02  0.16396166407E+03  0.17190870519E+03  0.10000000000E+01 0.  0.
         -4    1    1    2    0  502  0.44344229419E+02 -0.55309402057E+01  0.13146376043E+03  0.13885724752E+03  0.12700000000E+01 0. -1.
<mgrwt>
<rscale>  1 0.13274426E+03</rscale>
<asrwt>0</asrwt>
<pdfrwt beam="1">  1       21 0.15350957E+00 0.13274426E+03</pdfrwt>
<pdfrwt beam="2">  1       -4 0.13543889E-02 0.13274426E+03</pdfrwt>
<totfact> 0.21584661E+04</totfact>
</mgrwt>
</event>
<event>
 6    4  0.6277709E-003  0.1268164E+03  0.7818608E-02  0.1232258E+00
         21   -1    0    0  501  502  0.00000000000E+00  0.00000000000E+00  0.11854157885E+03  0.11854157885E+03  0.00000000000E+00 0.  1.
         -4   -1    0    0    0  501 -0.00000000000E+00 -0.00000000000E+00 -0.55284990077E+02  0.55299575295E+02  0.12700000000E+01 0.  1.
         25    2    1    2    0    0  0.18797073244E+02  0.10191514421E+02  0.23922564432E+02  0.12905303854E+03  0.12500080295E+03 0.  0.
    9000005    1    3    3    0    0 -0.43827902600E+02 -0.29295502842E+02  0.11707863353E+02  0.54010976638E+02  0.10000000000E+01 0.  0.
    9000005    1    3    3    0    0  0.62624975844E+02  0.39487017264E+02  0.12214701079E+02  0.75042061901E+02  0.10000000000E+01 0.  0.
         -4    1    1    2    0  502 -0.18797073244E+02 -0.10191514421E+02  0.39334024342E+02  0.44788115608E+02  0.12700000000E+01 0. -1.
<mgrwt>
<rscale>  1 0.12681639E+03</rscale>
<asrwt>0</asrwt>
<pdfrwt beam="1">  1       21 0.18237166E-01 0.12681639E+03</pdfrwt>
<pdfrwt beam="2">  1       -4 0.85070284E-02 0.12681639E+03</pdfrwt>
<totfact> 0.10911239E+05</totfact>
</mgrwt>
</event>
<event>
 6    4  0.6277709E-003  0.1270002E+03  0.7818608E-02  0.1231976E+00
          4   -1    0    0  502    0 -0.00000000000E+00  0.00000000000E+00  0.51768410008E+02  0.51783985697E+02  0.12700000000E+01 0. -1.
         21   -1    0    0  501  502  0.00000000000E+00 -0.00000000000E+00 -0.14851110703E+03  0.14851110703E+03  0.00000000000E+00 0. -1.
         25    2    1    2    0    0  0.18280282219E+02 -0.13039109876E+02 -0.30882955412E+02  0.13070123115E+03  0.12499947114E+03 0.  0.
    9000005    1    3    3    0    0 -0.12087637821E+02 -0.64930860542E+02 -0.87805896347E+01  0.66635023772E+02  0.10000000000E+01 0.  0.
    9000005    1    3    3    0    0  0.30367920040E+02  0.51891750666E+02 -0.22102365777E+02  0.64066207377E+02  0.10000000000E+01 0.  0.
          4    1    1    2  501    0 -0.18280282219E+02  0.13039109876E+02 -0.65859741608E+02  0.69593861576E+02  0.12700000000E+01 0.  1.
<mgrwt>
<rscale>  1 0.12700022E+03</rscale>
<asrwt>0</asrwt>
<pdfrwt beam="2">  1       21 0.22847862E-01 0.12700022E+03</pdfrwt>
<pdfrwt beam="1">  1        4 0.79659867E-02 0.12700022E+03</pdfrwt>
<totfact> 0.80167468E+04</totfact>
</mgrwt>
</event>
<event>
 6    4  0.6277709E-003  0.1305190E+03  0.7818608E-02  0.1226688E+00
         -4   -1    0    0    0  501 -0.00000000000E+00  0.00000000000E+00  0.22719296180E+02  0.22754764752E+02  0.12700000000E+01 0. -1.
         21   -1    0    0  501  502  0.00000000000E+00 -0.00000000000E+00 -0.15490066908E+04  0.15490066908E+04  0.00000000000E+00 0.  1.
         25    2    1    2    0    0 -0.91469205723E+01 -0.36392148585E+02 -0.16698911699E+03  0.21194474912E+03  0.12500862710E+03 0.  0.
    9000005    1    3    3    0    0 -0.22654248163E+02 -0.39693077567E+02 -0.18420482317E+03  0.18979244517E+03  0.10000000000E+01 0.  0.
    9000005    1    3    3    0    0  0.13507327591E+02  0.33009289824E+01  0.17215706178E+02  0.22152303943E+02  0.10000000000E+01 0.  0.
         -4    1    1    2    0  502  0.91469205723E+01  0.36392148585E+02 -0.13592982776E+04  0.13598167064E+04  0.12700000000E+01 0.  1.
<mgrwt>
<rscale>  1 0.13051901E+03</rscale>
<asrwt>0</asrwt>
<pdfrwt beam="2">  1       21 0.23830879E+00 0.13051901E+03</pdfrwt>
<pdfrwt beam="1">  1       -4 0.34980437E-02 0.13051901E+03</pdfrwt>
<totfact> 0.14147671E+03</totfact>
</mgrwt>
</event>
<event>
 6    4  0.6277709E-003  0.1287453E+03  0.7818608E-02  0.1229329E+00
         -4   -1    0    0    0  501 -0.00000000000E+00  0.00000000000E+00  0.35177169107E+02  0.35200087023E+02  0.12700000000E+01 0. -1.
         21   -1    0    0  501  502  0.00000000000E+00 -0.00000000000E+00 -0.22890088407E+03  0.22890088407E+03  0.00000000000E+00 0.  1.
         25    2    1    2    0    0  0.17591825835E+02  0.25300244458E+02 -0.93163501578E+02  0.15891758780E+03  0.12500314787E+03 0.  0.
    9000005    1    3    3    0    0  0.15036672504E+02 -0.50461918480E+02 -0.43278114460E+02  0.68165254550E+02  0.10000000000E+01 0.  0.
    9000005    1    3    3    0    0  0.25551533313E+01  0.75762162938E+02 -0.49885387119E+02  0.90752333246E+02  0.10000000000E+01 0.  0.
         -4    1    1    2    0  502 -0.17591825835E+02 -0.25300244458E+02 -0.10056021338E+03  0.10518338329E+03  0.12700000000E+01 0.  1.
<mgrwt>
<rscale>  1 0.12874534E+03</rscale>
<asrwt>0</asrwt>
<pdfrwt beam="2">  1       21 0.35215520E-01 0.12874534E+03</pdfrwt>
<pdfrwt beam="1">  1       -4 0.54139062E-02 0.12874534E+03</pdfrwt>
<totfact> 0.65838376E+04</totfact>
</mgrwt>
</event>
<event>
 6    4  0.6277709E-003  0.1279355E+03  0.7818608E-02  0.1230552E+00
         21   -1    0    0  501  502  0.00000000000E+00  0.00000000000E+00  0.60316260583E+02  0.60316260583E+02  0.00000000000E+00 0.  1.
          4   -1    0    0  502    0 -0.00000000000E+00 -0.00000000000E+00 -0.33088792969E+03  0.33089036691E+03  0.12700000000E+01 0. -1.
         25    2    1    2    0    0  0.18402435007E+02 -0.20084952841E+02 -0.31448664251E+03  0.33951337132E+03  0.12500170417E+03 0.  0.
    9000005    1    3    3    0    0  0.63694667280E+02  0.51788416442E+01 -0.24252611424E+03  0.25080619436E+03  0.10000000000E+01 0.  0.
    9000005    1    3    3    0    0 -0.45292232272E+02 -0.25263794485E+02 -0.71960528262E+02  0.88707176957E+02  0.10000000000E+01 0.  0.
          4    1    1    2  501    0 -0.18402435007E+02  0.20084952841E+02  0.43914973401E+02  0.51693256172E+02  0.12700000000E+01 0.  1.
<mgrwt>
<rscale>  1 0.12793546E+03</rscale>
<asrwt>0</asrwt>
<pdfrwt beam="1">  1       21 0.92794246E-02 0.12793546E+03</pdfrwt>
<pdfrwt beam="2">  1        4 0.50907052E-01 0.12793546E+03</pdfrwt>
<totfact> 0.14044815E+04</totfact>
</mgrwt>
</event>
<event>
 6    4  0.6277709E-003  0.1276671E+03  0.7818608E-02  0.1230959E+00
         21   -1    0    0  501  502  0.00000000000E+00  0.00000000000E+00  0.14370775555E+03  0.14370775555E+03  0.00000000000E+00 0.  1.
          4   -1    0    0  502    0 -0.00000000000E+00 -0.00000000000E+00 -0.41546773929E+02  0.41566180049E+02  0.12700000000E+01 0.  1.
         25    2    1    2    0    0 -0.11590420192E+02  0.23221993026E+02  0.92048652750E+02  0.15739077051E+03  0.12500120547E+03 0.  0.
    9000005    1    3    3    0    0  0.35369347900E+02 -0.15161823239E+02 -0.90001807680E+01  0.39533212729E+02  0.10000000000E+01 0.  0.
    9000005    1    3    3    0    0 -0.46959768093E+02  0.38383816265E+02  0.10104883352E+03  0.11785755778E+03  0.10000000000E+01 0.  0.
          4    1    1    2  501    0  0.11590420192E+02 -0.23221993026E+02  0.10112328872E+02  0.27883165092E+02  0.12700000000E+01 0. -1.
<mgrwt>
<rscale>  1 0.12766715E+03</rscale>
<asrwt>0</asrwt>
<pdfrwt beam="1">  1       21 0.22108885E-01 0.12766715E+03</pdfrwt>
<pdfrwt beam="2">  1        4 0.63937359E-02 0.12766715E+03</pdfrwt>
<totfact> 0.12238839E+05</totfact>
</mgrwt>
</event>
<event>
 6    4  0.6277709E-003  0.1287401E+03  0.7818608E-02  0.1229337E+00
         21   -1    0    0  501  502  0.00000000000E+00  0.00000000000E+00  0.30366466994E+02  0.30366466994E+02  0.00000000000E+00 0.  1.
         -4   -1    0    0    0  501 -0.00000000000E+00 -0.00000000000E+00 -0.24731095205E+03  0.24731421290E+03  0.12700000000E+01 0.  1.
         25    2    1    2    0    0 -0.20625416035E+02 -0.22872674982E+02 -0.20962056738E+03  0.24599756582E+03  0.12500181228E+03 0.  0.
    9000005    1    3    3    0    0  0.13347889067E+02 -0.67914226167E+02 -0.14164341796E+03  0.15765267555E+03  0.10000000000E+01 0.  0.
    9000005    1    3    3    0    0 -0.33973305102E+02  0.45041551185E+02 -0.67977149423E+02  0.88344890268E+02  0.10000000000E+01 0.  0.
         -4    1    1    2    0  502  0.20625416035E+02  0.22872674982E+02 -0.73239176764E+01  0.31683114077E+02  0.12700000000E+01 0. -1.
<mgrwt>
<rscale>  1 0.12874013E+03</rscale>
<asrwt>0</asrwt>
<pdfrwt beam="1">  1       21 0.46717641E-02 0.12874013E+03</pdfrwt>
<pdfrwt beam="2">  1       -4 0.38050133E-01 0.12874013E+03</pdfrwt>
<totfact> 0.80951189E+04</totfact>
</mgrwt>
</event>
<event>
 6    4  0.6277709E-003  0.1287091E+03  0.7818608E-02  0.1229384E+00
          4   -1    0    0  502    0 -0.00000000000E+00  0.00000000000E+00  0.17059634232E+03  0.17060106949E+03  0.12700000000E+01 0.  1.
         21   -1    0    0  501  502  0.00000000000E+00 -0.00000000000E+00 -0.78836836285E+02  0.78836836285E+02  0.00000000000E+00 0. -1.
         25    2    1    2    0    0 -0.78580778655E+01  0.29635395560E+02  0.14131951568E+03  0.19114713880E+03  0.12500406834E+03 0.  0.
    9000005    1    3    3    0    0 -0.19774438816E+02  0.55910957167E+02  0.14975322333E+03  0.16107169665E+03  0.10000000000E+01 0.  0.
    9000005    1    3    3    0    0  0.11916360951E+02 -0.26275561607E+02 -0.84337076492E+01  0.30075442154E+02  0.10000000000E+01 0.  0.
          4    1    1    2  501    0  0.78580778655E+01 -0.29635395560E+02 -0.49560009654E+02  0.58290766976E+02  0.12700000000E+01 0. -1.
<mgrwt>
<rscale>  1 0.12870906E+03</rscale>
<asrwt>0</asrwt>
<pdfrwt beam="2">  1       21 0.12128744E-01 0.12870906E+03</pdfrwt>
<pdfrwt beam="1">  1        4 0.26246742E-01 0.12870906E+03</pdfrwt>
<totfact> 0.31798652E+04</totfact>
</mgrwt>
</event>
<event>
 6    4  0.6277709E-003  0.1286395E+03  0.7818608E-02  0.1229489E+00
         21   -1    0    0  501  502  0.00000000000E+00  0.00000000000E+00  0.95339047546E+03  0.95339047546E+03  0.00000000000E+00 0. -1.
         -4   -1    0    0    0  501 -0.00000000000E+00 -0.00000000000E+00 -0.10754344584E+02  0.10829073249E+02  0.12700000000E+01 0. -1.
         25    2    1    2    0    0 -0.29908722482E+02  0.53902648498E+01  0.38838679990E+03  0.40913620323E+03  0.12499815929E+03 0.  0.
    9000005    1    3    3    0    0 -0.69180055593E+02  0.12656731245E+02  0.13119116295E+03  0.14885628698E+03  0.10000000000E+01 0.  0.
    9000005    1    3    3    0    0  0.39271333111E+02 -0.72664663948E+01  0.25719563696E+03  0.26027991626E+03  0.10000000000E+01 0.  0.
         -4    1    1    2    0  502  0.29908722482E+02 -0.53902648498E+01  0.55424933097E+03  0.55508334547E+03  0.12700000000E+01 0.  1.
<mgrwt>
<rscale>  1 0.12863952E+03</rscale>
<asrwt>0</asrwt>
<pdfrwt beam="1">  1       21 0.14667539E+00 0.12863952E+03</pdfrwt>
<pdfrwt beam="2">  1       -4 0.16603287E-02 0.12863952E+03</pdfrwt>
<totfact> 0.17775227E+04</totfact>
</mgrwt>
</event>
<event>
 6    4  0.6277709E-003  0.1280739E+03  0.7818608E-02  0.1230342E+00
         21   -1    0    0  501  502  0.00000000000E+00  0.00000000000E+00  0.88514020154E+03  0.88514020154E+03  0.00000000000E+00 0.  1.
          4   -1    0    0  502    0 -0.00000000000E+00 -0.00000000000E+00 -0.68153804721E+01  0.69326986794E+01  0.12700000000E+01 0.  1.
         25    2    1    2    0    0  0.27799200763E+02  0.23358672750E+01  0.72519610609E+03  0.73641857779E+03  0.12499871036E+03 0.  0.
    9000005    1    3    3    0    0 -0.18094283519E+02 -0.46634330059E+02  0.46578955867E+03  0.46846886428E+03  0.10000000000E+01 0.  0.
    9000005    1    3    3    0    0  0.45893484282E+02  0.48970197334E+02  0.25940654742E+03  0.26794971351E+03  0.10000000000E+01 0.  0.
          4    1    1    2  501    0 -0.27799200763E+02 -0.23358672750E+01  0.15312871498E+03  0.15565432243E+03  0.12700000000E+01 0. -1.
<mgrwt>
<rscale>  1 0.12807392E+03</rscale>
<asrwt>0</asrwt>
<pdfrwt beam="1">  1       21 0.13617533E+00 0.12807392E+03</pdfrwt>
<pdfrwt beam="2">  1        4 0.10576153E-02 0.12807392E+03</pdfrwt>
<totfact> 0.42563946E+04</totfact>
</mgrwt>
</event>
<event>
 6    4  0.6277709E-003  0.1310469E+03  0.7818608E-02  0.1225911E+00
         -4   -1    0    0    0  501 -0.00000000000E+00  0.00000000000E+00  0.52182714856E+02  0.52198166920E+02  0.12700000000E+01 0. -1.
         21   -1    0    0  501  502  0.00000000000E+00 -0.00000000000E+00 -0.38126917693E+03  0.38126917693E+03  0.00000000000E+00 0.  1.
         25    2    1    2    0    0 -0.38999049985E+01  0.39154244976E+02 -0.33486973419E+02  0.13525779546E+03  0.12500011874E+03 0.  0.
    9000005    1    3    3    0    0  0.33477294298E+02 -0.34592496146E+02 -0.16060747824E+02  0.50757439295E+02  0.10000000000E+01 0.  0.
    9000005    1    3    3    0    0 -0.37377199297E+02  0.73746741122E+02 -0.17426225595E+02  0.84500356164E+02  0.10000000000E+01 0.  0.
         -4    1    1    2    0  502  0.38999049985E+01 -0.39154244976E+02 -0.29559948865E+03  0.29820954839E+03  0.12700000000E+01 0.  1.
<mgrwt>
<rscale>  1 0.13104691E+03</rscale>
<asrwt>0</asrwt>
<pdfrwt beam="2">  1       21 0.58656796E-01 0.13104691E+03</pdfrwt>
<pdfrwt beam="1">  1       -4 0.80294614E-02 0.13104691E+03</pdfrwt>
<totfact> 0.12252333E+04</totfact>
</mgrwt>
</event>
<event>
 6    4  0.6277709E-003  0.1282308E+03  0.7818608E-02  0.1230105E+00
          4   -1    0    0  502    0 -0.00000000000E+00  0.00000000000E+00  0.12960258849E+02  0.13022335022E+02  0.12700000000E+01 0. -1.
         21   -1    0    0  501  502  0.00000000000E+00 -0.00000000000E+00 -0.56878732353E+03  0.56878732353E+03  0.00000000000E+00 0. -1.
         25    2    1    2    0    0 -0.27457647371E+02 -0.80012667539E+01 -0.32773483466E+03  0.35192790424E+03  0.12500074106E+03 0.  0.
    9000005    1    3    3    0    0  0.10765714229E+02  0.53492225592E+02 -0.16551594112E+03  0.17428093862E+03  0.10000000000E+01 0.  0.
    9000005    1    3    3    0    0 -0.38223361601E+02 -0.61493492346E+02 -0.16221889354E+03  0.17764696562E+03  0.10000000000E+01 0.  0.
          4    1    1    2  501    0  0.27457647371E+02  0.80012667539E+01 -0.22809223002E+03  0.22988175431E+03  0.12700000000E+01 0.  1.
<mgrwt>
<rscale>  1 0.12823076E+03</rscale>
<asrwt>0</asrwt>
<pdfrwt beam="2">  1       21 0.87505721E-01 0.12823076E+03</pdfrwt>
<pdfrwt beam="1">  1        4 0.19987706E-02 0.12823076E+03</pdfrwt>
<totfact> 0.46466336E+04</totfact>
</mgrwt>
</event>
<event>
 6    4  0.6277709E-003  0.1385963E+03  0.7818608E-02  0.1215230E+00
         -4   -1    0    0    0  501 -0.00000000000E+00  0.00000000000E+00  0.12400340796E+02  0.12465205649E+02  0.12700000000E+01 0. -1.
         21   -1    0    0  501  502  0.00000000000E+00 -0.00000000000E+00 -0.20176565645E+04  0.20176565645E+04  0.00000000000E+00 0. -1.
         25    2    1    2    0    0 -0.29324863381E+02 -0.52203387847E+02 -0.39245396526E+03  0.41620793135E+03  0.12499514374E+03 0.  0.
    9000005    1    3    3    0    0 -0.15222929825E+02 -0.10083684664E+02 -0.36172633758E+03  0.36218829577E+03  0.10000000000E+01 0.  0.
    9000005    1    3    3    0    0 -0.14101933556E+02 -0.42119703183E+02 -0.30727627675E+02  0.54019635585E+02  0.10000000000E+01 0.  0.
         -4    1    1    2    0  502  0.29324863381E+02  0.52203387847E+02 -0.16128022584E+04  0.16139138388E+04  0.12700000000E+01 0.  1.
<mgrwt>
<rscale>  1 0.13859627E+03</rscale>
<asrwt>0</asrwt>
<pdfrwt beam="2">  1       21 0.31040855E+00 0.13859627E+03</pdfrwt>
<pdfrwt beam="1">  1       -4 0.19127660E-02 0.13859627E+03</pdfrwt>
<totfact> 0.14048519E+03</totfact>
</mgrwt>
</event>
<event>
 6    4  0.6277709E-003  0.1276821E+03  0.7818608E-02  0.1230936E+00
         -4   -1    0    0    0  501 -0.00000000000E+00  0.00000000000E+00  0.18606102335E+02  0.18649395275E+02  0.12700000000E+01 0. -1.
         21   -1    0    0  501  502  0.00000000000E+00 -0.00000000000E+00 -0.32221944565E+03  0.32221944565E+03  0.00000000000E+00 0. -1.
         25    2    1    2    0    0 -0.26005338421E+02  0.12262508409E+01 -0.26660664190E+03  0.29560417295E+03  0.12499977696E+03 0.  0.
    9000005    1    3    3    0    0 -0.79868714801E+01  0.50295341410E+02 -0.45169218935E+02  0.68078409373E+02  0.10000000000E+01 0.  0.
    9000005    1    3    3    0    0 -0.18018466941E+02 -0.49069090569E+02 -0.22143742297E+03  0.22752576357E+03  0.10000000000E+01 0.  0.
         -4    1    1    2    0  502  0.26005338421E+02 -0.12262508409E+01 -0.37006701412E+02  0.45264667976E+02  0.12700000000E+01 0.  1.
<mgrwt>
<rscale>  1 0.12768213E+03</rscale>
<asrwt>0</asrwt>
<pdfrwt beam="2">  1       21 0.49572222E-01 0.12768213E+03</pdfrwt>
<pdfrwt beam="1">  1       -4 0.28660000E-02 0.12768213E+03</pdfrwt>
<totfact> 0.90664186E+04</totfact>
</mgrwt>
</event>
<event>
 6    4  0.6277709E-003  0.1300919E+03  0.7818608E-02  0.1227319E+00
          4   -1    0    0  502    0 -0.00000000000E+00  0.00000000000E+00  0.42736699142E+03  0.42736887844E+03  0.12700000000E+01 0. -1.
         21   -1    0    0  501  502  0.00000000000E+00 -0.00000000000E+00 -0.20457466515E+02  0.20457466515E+02  0.00000000000E+00 0. -1.
         25    2    1    2    0    0  0.16555545415E+02  0.32020447343E+02  0.38315424160E+03  0.40463697685E+03  0.12499806017E+03 0.  0.
    9000005    1    3    3    0    0  0.65004506314E+02  0.11853553849E+02  0.29260657263E+03  0.29997616393E+03  0.10000000000E+01 0.  0.
    9000005    1    3    3    0    0 -0.48448960899E+02  0.20166893494E+02  0.90547668972E+02  0.10466081292E+03  0.10000000000E+01 0.  0.
          4    1    1    2  501    0 -0.16555545415E+02 -0.32020447343E+02  0.23755283306E+02  0.43189368102E+02  0.12700000000E+01 0.  1.
<mgrwt>
<rscale>  1 0.13009193E+03</rscale>
<asrwt>0</asrwt>
<pdfrwt beam="2">  1       21 0.31473029E-02 0.13009193E+03</pdfrwt>
<pdfrwt beam="1">  1        4 0.65751938E-01 0.13009193E+03</pdfrwt>
<totfact> 0.51213600E+04</totfact>
</mgrwt>
</event>
<event>
 6    4  0.6277709E-003  0.1273362E+03  0.7818608E-02  0.1231463E+00
         21   -1    0    0  501  502  0.00000000000E+00  0.00000000000E+00  0.35645507731E+03  0.35645507731E+03  0.00000000000E+00 0.  1.
         -4   -1    0    0    0  501 -0.00000000000E+00 -0.00000000000E+00 -0.16470699563E+02  0.16519589707E+02  0.12700000000E+01 0.  1.
         25    2    1    2    0    0  0.95084759039E+01  0.22333086585E+02  0.30355391623E+03  0.32918004067E+03  0.12500136498E+03 0.  0.
    9000005    1    3    3    0    0 -0.41465533782E+02  0.51886862494E+02  0.18942429935E+03  0.20073415797E+03  0.10000000000E+01 0.  0.
    9000005    1    3    3    0    0  0.50974009686E+02 -0.29553775909E+02  0.11412961688E+03  0.12844588270E+03  0.10000000000E+01 0.  0.
         -4    1    1    2    0  502 -0.95084759039E+01 -0.22333086585E+02  0.36430461519E+02  0.43794626348E+02  0.12700000000E+01 0. -1.
<mgrwt>
<rscale>  1 0.12733624E+03</rscale>
<asrwt>0</asrwt>
<pdfrwt beam="1">  1       21 0.54839237E-01 0.12733624E+03</pdfrwt>
<pdfrwt beam="2">  1       -4 0.25378889E-02 0.12733624E+03</pdfrwt>
<totfact> 0.88816929E+04</totfact>
</mgrwt>
</event>
<event>
 6    4  0.6277709E-003  0.1297280E+03  0.7818608E-02  0.1227860E+00
         21   -1    0    0  501  502  0.00000000000E+00  0.00000000000E+00  0.49865614939E+03  0.49865614939E+03  0.00000000000E+00 0.  1.
          4   -1    0    0  502    0 -0.00000000000E+00 -0.00000000000E+00 -0.22568535945E+02  0.22604241078E+02  0.12700000000E+01 0. -1.
         25    2    1    2    0    0 -0.18431640366E+02 -0.29407805745E+02  0.17324483713E+03  0.21643272691E+03  0.12499922911E+03 0.  0.
    9000005    1    3    3    0    0 -0.55925544787E+02 -0.59483040770E+02  0.10867414373E+03  0.13593001219E+03  0.10000000000E+01 0.  0.
    9000005    1    3    3    0    0  0.37493904421E+02  0.30075235025E+02  0.64570693395E+02  0.80502714712E+02  0.10000000000E+01 0.  0.
          4    1    1    2  501    0  0.18431640366E+02  0.29407805745E+02  0.30284277632E+03  0.30482766356E+03  0.12700000000E+01 0.  1.
<mgrwt>
<rscale>  1 0.12972799E+03</rscale>
<asrwt>0</asrwt>
<pdfrwt beam="1">  1       21 0.76716322E-01 0.12972799E+03</pdfrwt>
<pdfrwt beam="2">  1        4 0.34749538E-02 0.12972799E+03</pdfrwt>
<totfact> 0.26428620E+04</totfact>
</mgrwt>
</event>
<event>
 6    4  0.6277709E-003  0.1329811E+03  0.7818608E-02  0.1223098E+00
         21   -1    0    0  501  502  0.00000000000E+00  0.00000000000E+00  0.53665263681E+03  0.53665263681E+03  0.00000000000E+00 0. -1.
          4   -1    0    0  502    0 -0.00000000000E+00 -0.00000000000E+00 -0.17665990489E+02  0.17711581520E+02  0.12700000000E+01 0. -1.
         25    2    1    2    0    0  0.45368014187E+02 -0.70016995101E+00  0.26656726582E+03  0.29789608483E+03  0.12500089280E+03 0.  0.
    9000005    1    3    3    0    0  0.61026108244E+02 -0.30594317690E+02  0.25207249799E+03  0.26115463313E+03  0.10000000000E+01 0.  0.
    9000005    1    3    3    0    0 -0.15658094057E+02  0.29894147739E+02  0.14494767832E+02  0.36741451700E+02  0.10000000000E+01 0.  0.
          4    1    1    2  501    0 -0.45368014187E+02  0.70016995101E+00  0.25241938050E+03  0.25646813350E+03  0.12700000000E+01 0.  1.
<mgrwt>
<rscale>  1 0.13298109E+03</rscale>
<asrwt>0</asrwt>
<pdfrwt beam="1">  1       21 0.82561932E-01 0.13298109E+03</pdfrwt>
<pdfrwt beam="2">  1        4 0.27214677E-02 0.13298109E+03</pdfrwt>
<totfact> 0.32974981E+04</totfact>
</mgrwt>
</event>
<event>
 6    4  0.6277709E-003  0.1380320E+03  0.7818608E-02  0.1216002E+00
          4   -1    0    0  502    0 -0.00000000000E+00  0.00000000000E+00  0.15672485070E+03  0.15672999626E+03  0.12700000000E+01 0.  1.
         21   -1    0    0  501  502  0.00000000000E+00 -0.00000000000E+00 -0.70120775168E+02  0.70120775168E+02  0.00000000000E+00 0. -1.
         25    2    1    2    0    0  0.26238152297E+02 -0.52335541877E+02  0.95181987469E+02  0.16766763994E+03  0.12500150865E+03 0.  0.
    9000005    1    3    3    0    0  0.34709137392E+01 -0.18615826690E+02 -0.30303279888E+02  0.35747517641E+02  0.10000000000E+01 0.  0.
    9000005    1    3    3    0    0  0.22767238558E+02 -0.33719715186E+02  0.12548526736E+03  0.13192012230E+03  0.10000000000E+01 0.  0.
          4    1    1    2  501    0 -0.26238152297E+02  0.52335541877E+02 -0.85779119348E+01  0.59183131487E+02  0.12700000000E+01 0. -1.
<mgrwt>
<rscale>  1 0.13803198E+03</rscale>
<asrwt>0</asrwt>
<pdfrwt beam="2">  1       21 0.10787812E-01 0.13803198E+03</pdfrwt>
<pdfrwt beam="1">  1        4 0.24112796E-01 0.13803198E+03</pdfrwt>
<totfact> 0.46117302E+04</totfact>
</mgrwt>
</event>
<event>
 6    4  0.6277709E-003  0.1279608E+03  0.7818608E-02  0.1230513E+00
         21   -1    0    0  501  502  0.00000000000E+00  0.00000000000E+00  0.27479113042E+02  0.27479113042E+02  0.00000000000E+00 0.  1.
          4   -1    0    0  502    0 -0.00000000000E+00 -0.00000000000E+00 -0.26931252280E+03  0.26931551726E+03  0.12700000000E+01 0. -1.
         25    2    1    2    0    0  0.17834301342E+02  0.20783924212E+02 -0.23645108195E+03  0.26885512131E+03  0.12499571307E+03 0.  0.
    9000005    1    3    3    0    0  0.27546878460E+02  0.80792688005E+01 -0.24764741457E+03  0.24930773562E+03  0.10000000000E+01 0.  0.
    9000005    1    3    3    0    0 -0.97125771180E+01  0.12704655412E+02  0.11196332612E+02  0.19547385691E+02  0.10000000000E+01 0.  0.
          4    1    1    2  501    0 -0.17834301342E+02 -0.20783924212E+02 -0.53823278003E+01  0.27939508989E+02  0.12700000000E+01 0.  1.
<mgrwt>
<rscale>  1 0.12796078E+03</rscale>
<asrwt>0</asrwt>
<pdfrwt beam="1">  1       21 0.42275561E-02 0.12796078E+03</pdfrwt>
<pdfrwt beam="2">  1        4 0.41435182E-01 0.12796078E+03</pdfrwt>
<totfact> 0.80839961E+04</totfact>
</mgrwt>
</event>
<event>
 6    4  0.6277709E-003  0.1272358E+03  0.7818608E-02  0.1231616E+00
         21   -1    0    0  501  502  0.00000000000E+00  0.00000000000E+00  0.66786453004E+02  0.66786453004E+02  0.00000000000E+00 0.  1.
         -4   -1    0    0    0  501 -0.00000000000E+00 -0.00000000000E+00 -0.36018853062E+03  0.36019076958E+03  0.12700000000E+01 0. -1.
         25    2    1    2    0    0 -0.21718281227E+02 -0.96173462560E+01 -0.34632318987E+03  0.36895624267E+03  0.12499912029E+03 0.  0.
    9000005    1    3    3    0    0  0.28083682925E+02  0.28287363070E+02 -0.25586444768E+03  0.25895266699E+03  0.10000000000E+01 0.  0.
    9000005    1    3    3    0    0 -0.49801964151E+02 -0.37904709326E+02 -0.90458742194E+02  0.11000357568E+03  0.10000000000E+01 0.  0.
         -4    1    1    2    0  502  0.21718281227E+02  0.96173462560E+01  0.52921112254E+02  0.58020979918E+02  0.12700000000E+01 0.  1.
<mgrwt>
<rscale>  1 0.12723583E+03</rscale>
<asrwt>0</asrwt>
<pdfrwt beam="1">  1       21 0.10274839E-01 0.12723583E+03</pdfrwt>
<pdfrwt beam="2">  1       -4 0.55414720E-01 0.12723583E+03</pdfrwt>
<totfact> 0.98697524E+03</totfact>
</mgrwt>
</event>
<event>
 6    4  0.6277709E-003  0.1310407E+03  0.7818608E-02  0.1225920E+00
         -4   -1    0    0    0  501 -0.00000000000E+00  0.00000000000E+00  0.95457705412E+02  0.95466153282E+02  0.12700000000E+01 0.  1.
         21   -1    0    0  501  502  0.00000000000E+00 -0.00000000000E+00 -0.31688931076E+03  0.31688931076E+03  0.00000000000E+00 0. -1.
         25    2    1    2    0    0 -0.39303651188E+02  0.12117138236E+01  0.48383094848E+02  0.13968747804E+03  0.12500168962E+03 0.  0.
    9000005    1    3    3    0    0 -0.40749391437E+02 -0.58070039670E+02  0.33929627368E+02  0.78643893743E+02  0.10000000000E+01 0.  0.
    9000005    1    3    3    0    0  0.14457402485E+01  0.59281753493E+02  0.14453467480E+02  0.61043584301E+02  0.10000000000E+01 0.  0.
         -4    1    1    2    0  502  0.39303651188E+02 -0.12117138236E+01 -0.26981470020E+03  0.27266798600E+03  0.12700000000E+01 0. -1.
<mgrwt>
<rscale>  1 0.13104071E+03</rscale>
<asrwt>0</asrwt>
<pdfrwt beam="2">  1       21 0.48752202E-01 0.13104071E+03</pdfrwt>
<pdfrwt beam="1">  1       -4 0.14686646E-01 0.13104071E+03</pdfrwt>
<totfact> 0.64706271E+03</totfact>
</mgrwt>
</event>
<event>
 6    4  0.6277709E-003  0.1294953E+03  0.7818608E-02  0.1228207E+00
         -4   -1    0    0    0  501 -0.00000000000E+00  0.00000000000E+00  0.29238305896E+03  0.29238581715E+03  0.12700000000E+01 0.  1.
         21   -1    0    0  501  502  0.00000000000E+00 -0.00000000000E+00 -0.26437829753E+02  0.26437829753E+02  0.00000000000E+00 0. -1.
         25    2    1    2    0    0 -0.23093362516E+02  0.24713831224E+02  0.24969523699E+03  0.28127698269E+03  0.12499981109E+03 0.  0.
    9000005    1    3    3    0    0  0.43264235050E+02 -0.21770043772E+02  0.96223438239E+02  0.10772965658E+03  0.10000000000E+01 0.  0.
    9000005    1    3    3    0    0 -0.66357597566E+02  0.46483874995E+02  0.15347179875E+03  0.17354732611E+03  0.10000000000E+01 0.  0.
         -4    1    1    2    0  502  0.23093362516E+02 -0.24713831224E+02  0.16249992224E+02  0.37546664210E+02  0.12700000000E+01 0. -1.
<mgrwt>
<rscale>  1 0.12949529E+03</rscale>
<asrwt>0</asrwt>
<pdfrwt beam="2">  1       21 0.40673586E-02 0.12949529E+03</pdfrwt>
<pdfrwt beam="1">  1       -4 0.44984566E-01 0.12949529E+03</pdfrwt>
<totfact> 0.73333868E+04</totfact>
</mgrwt>
</event>
<event>
 6    4  0.6277709E-003  0.1398829E+03  0.7818608E-02  0.1213487E+00
         21   -1    0    0  501  502  0.00000000000E+00  0.00000000000E+00  0.26549666756E+02  0.26549666756E+02  0.00000000000E+00 0. -1.
         -4   -1    0    0    0  501 -0.00000000000E+00 -0.00000000000E+00 -0.43095891917E+03  0.43096079046E+03  0.12700000000E+01 0.  1.
         25    2    1    2    0    0 -0.59177885279E+02  0.20986917528E+02 -0.33951989742E+03  0.36720700155E+03  0.12499899372E+03 0.  0.
    9000005    1    3    3    0    0 -0.78552989543E+02  0.20219582966E+02 -0.33814862976E+03  0.34774257650E+03  0.10000000000E+01 0.  0.
    9000005    1    3    3    0    0  0.19375104264E+02  0.76733456184E+00 -0.13712676587E+01  0.19464425051E+02  0.10000000000E+01 0.  0.
         -4    1    1    2    0  502  0.59177885279E+02 -0.20986917528E+02 -0.64889355002E+02  0.90303455670E+02  0.12700000000E+01 0. -1.
<mgrwt>
<rscale>  1 0.13988288E+03</rscale>
<asrwt>0</asrwt>
<pdfrwt beam="1">  1       21 0.40845644E-02 0.13988288E+03</pdfrwt>
<pdfrwt beam="2">  1       -4 0.66303848E-01 0.13988288E+03</pdfrwt>
<totfact> 0.32974968E+04</totfact>
</mgrwt>
</event>
<event>
 6    4  0.6277709E-003  0.1365741E+03  0.7818608E-02  0.1218014E+00
         21   -1    0    0  501  502  0.00000000000E+00  0.00000000000E+00  0.26575296312E+03  0.26575296312E+03  0.00000000000E+00 0.  1.
         -4   -1    0    0    0  501 -0.00000000000E+00 -0.00000000000E+00 -0.87360466312E+02  0.87369697117E+02  0.12700000000E+01 0. -1.
         25    2    1    2    0    0 -0.29847296389E+02  0.46230084023E+02 -0.28087169307E+02  0.13943235351E+03  0.12499764140E+03 0.  0.
    9000005    1    3    3    0    0  0.36394345829E+02 -0.20390640803E+02 -0.13608844109E+01  0.41751390960E+02  0.10000000000E+01 0.  0.
    9000005    1    3    3    0    0 -0.66241642218E+02  0.66620724826E+02 -0.26726284896E+02  0.97680962549E+02  0.10000000000E+01 0.  0.
         -4    1    1    2    0  502  0.29847296389E+02 -0.46230084023E+02  0.20647966612E+03  0.21369030673E+03  0.12700000000E+01 0.  1.
<mgrwt>
<rscale>  1 0.13657413E+03</rscale>
<asrwt>0</asrwt>
<pdfrwt beam="1">  1       21 0.40885071E-01 0.13657413E+03</pdfrwt>
<pdfrwt beam="2">  1       -4 0.13441015E-01 0.13657413E+03</pdfrwt>
<totfact> 0.10821324E+04</totfact>
</mgrwt>
</event>
<event>
 6    4  0.6277709E-003  0.1317073E+03  0.7818608E-02  0.1224944E+00
          4   -1    0    0  502    0 -0.00000000000E+00  0.00000000000E+00  0.23684878781E+03  0.23685219270E+03  0.12700000000E+01 0.  1.
         21   -1    0    0  501  502  0.00000000000E+00 -0.00000000000E+00 -0.14177496934E+03  0.14177496934E+03  0.00000000000E+00 0. -1.
         25    2    1    2    0    0 -0.38141263376E+02  0.16332835222E+02  0.21476941362E+03  0.25193791279E+03  0.12500117359E+03 0.  0.
    9000005    1    3    3    0    0 -0.65162668358E+02 -0.33689846566E+02  0.10199884834E+03  0.12564212738E+03  0.10000000000E+01 0.  0.
    9000005    1    3    3    0    0  0.27021404982E+02  0.50022681788E+02  0.11277056528E+03  0.12629578541E+03  0.10000000000E+01 0.  0.
          4    1    1    2  501    0  0.38141263376E+02 -0.16332835222E+02 -0.11969559515E+03  0.12668924925E+03  0.12700000000E+01 0. -1.
<mgrwt>
<rscale>  1 0.13170729E+03</rscale>
<asrwt>0</asrwt>
<pdfrwt beam="2">  1       21 0.21811534E-01 0.13170729E+03</pdfrwt>
<pdfrwt beam="1">  1        4 0.36438975E-01 0.13170729E+03</pdfrwt>
<totfact> 0.58906344E+03</totfact>
</mgrwt>
</event>
<event>
 6    4  0.6277709E-003  0.1275105E+03  0.7818608E-02  0.1231197E+00
         -4   -1    0    0    0  501 -0.00000000000E+00  0.00000000000E+00  0.14541728275E+03  0.14542282841E+03  0.12700000000E+01 0.  1.
         21   -1    0    0  501  502  0.00000000000E+00 -0.00000000000E+00 -0.13949038935E+03  0.13949038935E+03  0.00000000000E+00 0. -1.
         25    2    1    2    0    0 -0.24176162595E+02 -0.66199240401E+01  0.11577830771E+03  0.17223111465E+03  0.12502251832E+03 0.  0.
    9000005    1    3    3    0    0  0.19034937302E+02  0.46369316407E+02  0.18746260518E+02  0.53524430175E+02  0.10000000000E+01 0.  0.
    9000005    1    3    3    0    0 -0.43211099897E+02 -0.52989240447E+02  0.97032047195E+02  0.11870668448E+03  0.10000000000E+01 0.  0.
         -4    1    1    2    0  502  0.24176162595E+02  0.66199240401E+01 -0.10985141432E+03  0.11268210310E+03  0.12700000000E+01 0. -1.
<mgrwt>
<rscale>  1 0.12751055E+03</rscale>
<asrwt>0</asrwt>
<pdfrwt beam="2">  1       21 0.21460060E-01 0.12751055E+03</pdfrwt>
<pdfrwt beam="1">  1       -4 0.22372761E-01 0.12751055E+03</pdfrwt>
<totfact> 0.15126593E+04</totfact>
</mgrwt>
</event>
<event>
 6    4  0.6277709E-003  0.1268334E+03  0.7818608E-02  0.1232232E+00
         -4   -1    0    0    0  501 -0.00000000000E+00  0.00000000000E+00  0.16952393405E+03  0.16952869113E+03  0.12700000000E+01 0. -1.
         21   -1    0    0  501  502  0.00000000000E+00 -0.00000000000E+00 -0.45278778744E+02  0.45278778744E+02  0.00000000000E+00 0. -1.
         25    2    1    2    0    0 -0.20670991554E+02 -0.57548119464E+01  0.13943223572E+03  0.18848888207E+03  0.12500521011E+03 0.  0.
    9000005    1    3    3    0    0 -0.59530147137E+01  0.58248063374E+02  0.84809407640E+02  0.10306265519E+03  0.10000000000E+01 0.  0.
    9000005    1    3    3    0    0 -0.14717976841E+02 -0.64002875320E+02  0.54622828083E+02  0.85426226882E+02  0.10000000000E+01 0.  0.
         -4    1    1    2    0  502  0.20670991554E+02  0.57548119464E+01 -0.15187080413E+02  0.26318587802E+02  0.12700000000E+01 0.  1.
<mgrwt>
<rscale>  1 0.12683340E+03</rscale>
<asrwt>0</asrwt>
<pdfrwt beam="2">  1       21 0.69659660E-02 0.12683340E+03</pdfrwt>
<pdfrwt beam="1">  1       -4 0.26082341E-01 0.12683340E+03</pdfrwt>
<totfact> 0.84260480E+04</totfact>
</mgrwt>
</event>
<event>
 6    4  0.6277709E-003  0.1268573E+03  0.7818608E-02  0.1232195E+00
          4   -1    0    0  502    0 -0.00000000000E+00  0.00000000000E+00  0.32811509836E+02  0.32836078903E+02  0.12700000000E+01 0.  1.
         21   -1    0    0  501  502  0.00000000000E+00 -0.00000000000E+00 -0.41499537547E+03  0.41499537547E+03  0.00000000000E+00 0.  1.
         25    2    1    2    0    0 -0.13504268993E+02  0.16830000027E+02 -0.91664969050E+02  0.15650954247E+03  0.12500862431E+03 0.  0.
    9000005    1    3    3    0    0 -0.60920628853E+02  0.85124001322E+01 -0.89119466679E+02  0.10829156623E+03  0.10000000000E+01 0.  0.
    9000005    1    3    3    0    0  0.47416359860E+02  0.83175998944E+01 -0.25455023714E+01  0.48217976240E+02  0.10000000000E+01 0.  0.
          4    1    1    2  501    0  0.13504268993E+02 -0.16830000027E+02 -0.29051889658E+03  0.29132191190E+03  0.12700000000E+01 0. -1.
<mgrwt>
<rscale>  1 0.12685728E+03</rscale>
<asrwt>0</asrwt>
<pdfrwt beam="2">  1       21 0.63845442E-01 0.12685728E+03</pdfrwt>
<pdfrwt beam="1">  1        4 0.50499640E-02 0.12685728E+03</pdfrwt>
<totfact> 0.21721300E+04</totfact>
</mgrwt>
</event>
<event>
 6    4  0.6277709E-003  0.1279462E+03  0.7818608E-02  0.1230535E+00
         21   -1    0    0  501  502  0.00000000000E+00  0.00000000000E+00  0.20690537424E+03  0.20690537424E+03  0.00000000000E+00 0. -1.
         -4   -1    0    0    0  501 -0.00000000000E+00 -0.00000000000E+00 -0.29680272071E+02  0.29707430892E+02  0.12700000000E+01 0. -1.
         25    2    1    2    0    0 -0.27157753322E+02 -0.27806228741E+01  0.15744116177E+03  0.20287421259E+03  0.12499980514E+03 0.  0.
    9000005    1    3    3    0    0 -0.60414946020E+02 -0.43218446848E+02  0.77911442286E+02  0.10765218386E+03  0.10000000000E+01 0.  0.
    9000005    1    3    3    0    0  0.33257192699E+02  0.40437823974E+02  0.79529719483E+02  0.95222028727E+02  0.10000000000E+01 0.  0.
         -4    1    1    2    0  502  0.27157753322E+02  0.27806228741E+01  0.19783940396E+02  0.33738592541E+02  0.12700000000E+01 0.  1.
<mgrwt>
<rscale>  1 0.12794619E+03</rscale>
<asrwt>0</asrwt>
<pdfrwt beam="1">  1       21 0.31831595E-01 0.12794619E+03</pdfrwt>
<pdfrwt beam="2">  1       -4 0.45685848E-02 0.12794619E+03</pdfrwt>
<totfact> 0.10524803E+05</totfact>
</mgrwt>
</event>
<event>
 6    4  0.6277709E-003  0.1270416E+03  0.7818608E-02  0.1231913E+00
         -4   -1    0    0    0  501 -0.00000000000E+00  0.00000000000E+00  0.23638864257E+02  0.23672955104E+02  0.12700000000E+01 0. -1.
         21   -1    0    0  501  502  0.00000000000E+00 -0.00000000000E+00 -0.49907140237E+03  0.49907140237E+03  0.00000000000E+00 0.  1.
         25    2    1    2    0    0 -0.89184940666E+01  0.20832468875E+02 -0.15020560682E+03  0.19672641160E+03  0.12500410155E+03 0.  0.
    9000005    1    3    3    0    0 -0.33054275669E+02 -0.20452265651E+02 -0.14319803706E+03  0.14838314637E+03  0.10000000000E+01 0.  0.
    9000005    1    3    3    0    0  0.24135781602E+02  0.41284734526E+02 -0.70075697601E+01  0.48343265223E+02  0.10000000000E+01 0.  0.
         -4    1    1    2    0  502  0.89184940666E+01 -0.20832468875E+02 -0.32522693130E+03  0.32601794588E+03  0.12700000000E+01 0.  1.
<mgrwt>
<rscale>  1 0.12704156E+03</rscale>
<asrwt>0</asrwt>
<pdfrwt beam="2">  1       21 0.76780211E-01 0.12704156E+03</pdfrwt>
<pdfrwt beam="1">  1       -4 0.36394953E-02 0.12704156E+03</pdfrwt>
<totfact> 0.24477717E+04</totfact>
</mgrwt>
</event>
<event>
 6    4  0.6277709E-003  0.1328356E+03  0.7818608E-02  0.1223308E+00
         21   -1    0    0  501  502  0.00000000000E+00  0.00000000000E+00  0.46358478038E+02  0.46358478038E+02  0.00000000000E+00 0. -1.
         -4   -1    0    0    0  501 -0.00000000000E+00 -0.00000000000E+00 -0.40043023651E+03  0.40043225046E+03  0.12700000000E+01 0.  1.
         25    2    1    2    0    0 -0.39679375781E+02 -0.21124199075E+02 -0.37452771188E+03  0.39738684628E+03  0.12499845591E+03 0.  0.
    9000005    1    3    3    0    0 -0.21177230632E+02  0.49053370825E+02 -0.22382637823E+03  0.23011726549E+03  0.10000000000E+01 0.  0.
    9000005    1    3    3    0    0 -0.18502145149E+02 -0.70177569900E+02 -0.15070133365E+03  0.16726958079E+03  0.10000000000E+01 0.  0.
         -4    1    1    2    0  502  0.39679375781E+02  0.21124199075E+02  0.20455953408E+02  0.49403882223E+02  0.12700000000E+01 0. -1.
<mgrwt>
<rscale>  1 0.13283561E+03</rscale>
<asrwt>0</asrwt>
<pdfrwt beam="1">  1       21 0.71320738E-02 0.13283561E+03</pdfrwt>
<pdfrwt beam="2">  1       -4 0.61606142E-01 0.13283561E+03</pdfrwt>
<totfact> 0.14953189E+04</totfact>
</mgrwt>
</event>
<event>
 6    4  0.6277709E-003  0.1828862E+03  0.7818608E-02  0.1165039E+00
          4   -1    0    0  502    0 -0.00000000000E+00  0.00000000000E+00  0.41781863444E+03  0.41782056458E+03  0.12700000000E+01 0.  1.
         21   -1    0    0  501  502  0.00000000000E+00 -0.00000000000E+00 -0.11757306377E+03  0.11757306377E+03  0.00000000000E+00 0. -1.
         25    2    1    2    0    0  0.40694848180E+02 -0.12714385700E+03  0.34838894613E+03  0.39347453682E+03  0.12500288917E+03 0.  0.
    9000005    1    3    3    0    0  0.62464139272E+02 -0.80640670874E+02  0.31763770170E+03  0.33361564117E+03  0.10000000000E+01 0.  0.
    9000005    1    3    3    0    0 -0.21769291092E+02 -0.46503186123E+02  0.30751244426E+02  0.59858895646E+02  0.10000000000E+01 0.  0.
          4    1    1    2  501    0 -0.40694848180E+02  0.12714385700E+03 -0.48143375451E+02  0.14191909153E+03  0.12700000000E+01 0. -1.
<mgrwt>
<rscale>  1 0.18288618E+03</rscale>
<asrwt>0</asrwt>
<pdfrwt beam="2">  1       21 0.18088164E-01 0.18288618E+03</pdfrwt>
<pdfrwt beam="1">  1        4 0.64280465E-01 0.18288618E+03</pdfrwt>
<totfact> 0.26752611E+03</totfact>
</mgrwt>
</event>
<event>
 6    4  0.6277709E-003  0.1269186E+03  0.7818608E-02  0.1232101E+00
         21   -1    0    0  501  502  0.00000000000E+00  0.00000000000E+00  0.29651296682E+02  0.29651296682E+02  0.00000000000E+00 0. -1.
          4   -1    0    0  502    0 -0.00000000000E+00 -0.00000000000E+00 -0.19145925667E+03  0.19146346875E+03  0.12700000000E+01 0. -1.
         25    2    1    2    0    0  0.18601088448E+02  0.11749275803E+02 -0.12452397917E+03  0.17780478853E+03  0.12499710182E+03 0.  0.
    9000005    1    3    3    0    0 -0.82216891856E+00  0.24859061680E+02  0.19663382663E+02  0.31722192974E+02  0.10000000000E+01 0.  0.
    9000005    1    3    3    0    0  0.19423257367E+02 -0.13109785877E+02 -0.14418736183E+03  0.14608259555E+03  0.10000000000E+01 0.  0.
          4    1    1    2  501    0 -0.18601088448E+02 -0.11749275803E+02 -0.37283980820E+02  0.43309976901E+02  0.12700000000E+01 0.  1.
<mgrwt>
<rscale>  1 0.12691856E+03</rscale>
<asrwt>0</asrwt>
<pdfrwt beam="1">  1       21 0.45617378E-02 0.12691856E+03</pdfrwt>
<pdfrwt beam="2">  1        4 0.29457688E-01 0.12691856E+03</pdfrwt>
<totfact> 0.13727639E+05</totfact>
</mgrwt>
</event>
<event>
 6    4  0.6277709E-003  0.1270349E+03  0.7818608E-02  0.1231923E+00
         21   -1    0    0  501  502  0.00000000000E+00  0.00000000000E+00  0.33171164798E+02  0.33171164798E+02  0.00000000000E+00 0. -1.
         -4   -1    0    0    0  501 -0.00000000000E+00 -0.00000000000E+00 -0.19249287982E+03  0.19249706928E+03  0.12700000000E+01 0. -1.
         25    2    1    2    0    0  0.49997174521E+01 -0.22085247083E+02 -0.15829418341E+03  0.20296528196E+03  0.12500040747E+03 0.  0.
    9000005    1    3    3    0    0  0.18532799498E+02 -0.19459399861E+02 -0.17737639713E+03  0.17940323062E+03  0.10000000000E+01 0.  0.
    9000005    1    3    3    0    0 -0.13533082046E+02 -0.26258472222E+01  0.19082213712E+02  0.23562051342E+02  0.10000000000E+01 0.  0.
         -4    1    1    2    0  502 -0.49997174521E+01  0.22085247083E+02 -0.10275316046E+01  0.22702952110E+02  0.12700000000E+01 0.  1.
<mgrwt>
<rscale>  1 0.12703487E+03</rscale>
<asrwt>0</asrwt>
<pdfrwt beam="1">  1       21 0.51032561E-02 0.12703487E+03</pdfrwt>
<pdfrwt beam="2">  1       -4 0.29616482E-01 0.12703487E+03</pdfrwt>
<totfact> 0.11261904E+05</totfact>
</mgrwt>
</event>
<event>
 6    4  0.6277709E-003  0.1269210E+03  0.7818608E-02  0.1232097E+00
          4   -1    0    0  502    0 -0.00000000000E+00  0.00000000000E+00  0.13062562066E+03  0.13063179426E+03  0.12700000000E+01 0. -1.
         21   -1    0    0  501  502  0.00000000000E+00 -0.00000000000E+00 -0.47216699754E+02  0.47216699754E+02  0.00000000000E+00 0. -1.
         25    2    1    2    0    0  0.20686703184E+02  0.74125401421E+01  0.89148390275E+02  0.15510118981E+03  0.12500423254E+03 0.  0.
    9000005    1    3    3    0    0 -0.95537249045E+01 -0.49184427708E+02  0.66089950233E+01  0.50547605322E+02  0.10000000000E+01 0.  0.
    9000005    1    3    3    0    0  0.30240428088E+02  0.56596967851E+02  0.82539395251E+02  0.10455358449E+03  0.10000000000E+01 0.  0.
          4    1    1    2  501    0 -0.20686703184E+02 -0.74125401421E+01 -0.57394693722E+01  0.22747304206E+02  0.12700000000E+01 0.  1.
<mgrwt>
<rscale>  1 0.12692101E+03</rscale>
<asrwt>0</asrwt>
<pdfrwt beam="2">  1       21 0.72641077E-02 0.12692101E+03</pdfrwt>
<pdfrwt beam="1">  1        4 0.20098038E-01 0.12692101E+03</pdfrwt>
<totfact> 0.12619673E+05</totfact>
</mgrwt>
</event>
<event>
 6    4  0.6277709E-003  0.1365756E+03  0.7818608E-02  0.1218012E+00
         21   -1    0    0  501  502  0.00000000000E+00  0.00000000000E+00  0.10291341454E+02  0.10291341454E+02  0.00000000000E+00 0.  1.
          4   -1    0    0  502    0 -0.00000000000E+00 -0.00000000000E+00 -0.14619002450E+04  0.14619007967E+04  0.12700000000E+01 0. -1.
         25    2    1    2    0    0  0.11603094729E+02  0.53792082346E+02 -0.13477156178E+04  0.13546181289E+04  0.12499867433E+03 0.  0.
    9000005    1    3    3    0    0  0.17336252487E+02 -0.38960025489E+02 -0.35202567629E+03  0.35460048788E+03  0.10000000000E+01 0.  0.
    9000005    1    3    3    0    0 -0.57331577575E+01  0.92752107835E+02 -0.99568994155E+03  0.10000176410E+04  0.10000000000E+01 0.  0.
          4    1    1    2  501    0 -0.11603094729E+02 -0.53792082346E+02 -0.10389328574E+03  0.11757400925E+03  0.12700000000E+01 0.  1.
<mgrwt>
<rscale>  1 0.13657558E+03</rscale>
<asrwt>0</asrwt>
<pdfrwt beam="1">  1       21 0.15832840E-02 0.13657558E+03</pdfrwt>
<pdfrwt beam="2">  1        4 0.22491370E+00 0.13657558E+03</pdfrwt>
<totfact> 0.75795356E+03</totfact>
</mgrwt>
</event>
<event>
 6    4  0.6277709E-003  0.1292501E+03  0.7818608E-02  0.1228573E+00
         21   -1    0    0  501  502  0.00000000000E+00  0.00000000000E+00  0.23105443567E+02  0.23105443567E+02  0.00000000000E+00 0. -1.
          4   -1    0    0  502    0 -0.00000000000E+00 -0.00000000000E+00 -0.28607118612E+03  0.28607400516E+03  0.12700000000E+01 0. -1.
         25    2    1    2    0    0 -0.31502073646E+02 -0.94109454774E+01 -0.19986798766E+03  0.23801846145E+03  0.12499851582E+03 0.  0.
    9000005    1    3    3    0    0 -0.65823281877E+02 -0.44997217484E+02 -0.12686382481E+03  0.14984286458E+03  0.10000000000E+01 0.  0.
    9000005    1    3    3    0    0  0.34321208231E+02  0.35586272006E+02 -0.73004162849E+02  0.88175596868E+02  0.10000000000E+01 0.  0.
          4    1    1    2  501    0  0.31502073646E+02  0.94109454774E+01 -0.63097754891E+02  0.71160987283E+02  0.12700000000E+01 0.  1.
<mgrwt>
<rscale>  1 0.12925005E+03</rscale>
<asrwt>0</asrwt>
<pdfrwt beam="1">  1       21 0.35546836E-02 0.12925005E+03</pdfrwt>
<pdfrwt beam="2">  1        4 0.44013853E-01 0.12925005E+03</pdfrwt>
<totfact> 0.95738126E+04</totfact>
</mgrwt>
</event>
<event>
 6    4  0.6277709E-003  0.1279703E+03  0.7818608E-02  0.1230499E+00
         -4   -1    0    0    0  501 -0.00000000000E+00  0.00000000000E+00  0.53770432904E+03  0.53770582884E+03  0.12700000000E+01 0. -1.
         21   -1    0    0  501  502  0.00000000000E+00 -0.00000000000E+00 -0.11634826369E+02  0.11634826369E+02  0.00000000000E+00 0. -1.
         25    2    1    2    0    0  0.20481297361E+02 -0.18550773936E+02  0.46519382235E+03  0.48247454937E+03  0.12495112518E+03 0.  0.
    9000005    1    3    3    0    0 -0.87518679872E+01  0.47058292830E+02  0.10810098400E+03  0.11822817287E+03  0.10000000000E+01 0.  0.
    9000005    1    3    3    0    0  0.29233165348E+02 -0.65609066765E+02  0.35709283835E+03  0.36424637650E+03  0.10000000000E+01 0.  0.
         -4    1    1    2    0  502 -0.20481297361E+02  0.18550773936E+02  0.60875680326E+02  0.66866105841E+02  0.12700000000E+01 0.  1.
<mgrwt>
<rscale>  1 0.12797030E+03</rscale>
<asrwt>0</asrwt>
<pdfrwt beam="2">  1       21 0.17899737E-02 0.12797030E+03</pdfrwt>
<pdfrwt beam="1">  1       -4 0.82729170E-01 0.12797030E+03</pdfrwt>
<totfact> 0.77532736E+04</totfact>
</mgrwt>
</event>
<event>
 6    4  0.6277709E-003  0.1278369E+03  0.7818608E-02  0.1230701E+00
          4   -1    0    0  502    0 -0.00000000000E+00  0.00000000000E+00  0.19603821674E+04  0.19603825788E+04  0.12700000000E+01 0.  1.
         21   -1    0    0  501  502  0.00000000000E+00 -0.00000000000E+00 -0.39185950945E+01  0.39185950945E+01  0.00000000000E+00 0. -1.
         25    2    1    2    0    0 -0.14373325710E+02  0.22597268677E+02  0.18535277173E+04  0.18579309140E+04  0.12500021304E+03 0.  0.
    9000005    1    3    3    0    0 -0.30475549497E+02  0.44980409526E+02  0.17483515931E+04  0.17491958980E+04  0.10000000000E+01 0.  0.
    9000005    1    3    3    0    0  0.16102223787E+02 -0.22383140849E+02  0.10517612420E+03  0.10873501601E+03  0.10000000000E+01 0.  0.
          4    1    1    2  501    0  0.14373325710E+02 -0.22597268677E+02  0.10293585494E+03  0.10637025982E+03  0.12700000000E+01 0. -1.
<mgrwt>
<rscale>  1 0.12783694E+03</rscale>
<asrwt>0</asrwt>
<pdfrwt beam="2">  1       21 0.60286235E-03 0.12783694E+03</pdfrwt>
<pdfrwt beam="1">  1        4 0.30161233E+00 0.12783694E+03</pdfrwt>
<totfact> 0.12474303E+04</totfact>
</mgrwt>
</event>
<event>
 6    4  0.6277709E-003  0.1326813E+03  0.7818608E-02  0.1223530E+00
         -4   -1    0    0    0  501 -0.00000000000E+00  0.00000000000E+00  0.21325686973E+03  0.21326065128E+03  0.12700000000E+01 0. -1.
         21   -1    0    0  501  502  0.00000000000E+00 -0.00000000000E+00 -0.50998700162E+02  0.50998700162E+02  0.00000000000E+00 0.  1.
         25    2    1    2    0    0  0.14418150752E+02  0.42106507906E+02  0.17342193126E+03  0.21835637165E+03  0.12499399073E+03 0.  0.
    9000005    1    3    3    0    0  0.57556316667E+01 -0.18933858318E+02  0.15169001277E+03  0.15297868565E+03  0.10000000000E+01 0.  0.
    9000005    1    3    3    0    0  0.86625190852E+01  0.61040366224E+02  0.21731918487E+02  0.65377686001E+02  0.10000000000E+01 0.  0.
         -4    1    1    2    0  502 -0.14418150752E+02 -0.42106507906E+02 -0.11163761696E+02  0.45902979798E+02  0.12700000000E+01 0.  1.
<mgrwt>
<rscale>  1 0.13268134E+03</rscale>
<asrwt>0</asrwt>
<pdfrwt beam="2">  1       21 0.78459540E-02 0.13268134E+03</pdfrwt>
<pdfrwt beam="1">  1       -4 0.32810256E-01 0.13268134E+03</pdfrwt>
<totfact> 0.44876327E+04</totfact>
</mgrwt>
</event>
<event>
 6    4  0.6277709E-003  0.1581572E+03  0.7818608E-02  0.1190793E+00
         21   -1    0    0  501  502  0.00000000000E+00  0.00000000000E+00  0.35400650381E+03  0.35400650381E+03  0.00000000000E+00 0.  1.
          4   -1    0    0  502    0 -0.00000000000E+00 -0.00000000000E+00 -0.75489245431E+02  0.75499927654E+02  0.12700000000E+01 0. -1.
         25    2    1    2    0    0  0.88490409685E+02 -0.39603842371E+02  0.27651571210E+02  0.16055620775E+03  0.12495867125E+03 0.  0.
    9000005    1    3    3    0    0  0.10530932034E+03  0.24387088357E+01 -0.38053966798E+01  0.10541101126E+03  0.10000000000E+01 0.  0.
    9000005    1    3    3    0    0 -0.16818910651E+02 -0.42042551206E+02  0.31456967890E+02  0.55145196493E+02  0.10000000000E+01 0.  0.
          4    1    1    2  501    0 -0.88490409685E+02  0.39603842371E+02  0.25086568717E+03  0.26895022372E+03  0.12700000000E+01 0.  1.
<mgrwt>
<rscale>  1 0.15815716E+03</rscale>
<asrwt>0</asrwt>
<pdfrwt beam="1">  1       21 0.54462538E-01 0.15815716E+03</pdfrwt>
<pdfrwt beam="2">  1        4 0.11614727E-01 0.15815716E+03</pdfrwt>
<totfact> 0.77971867E+03</totfact>
</mgrwt>
</event>
<event>
 6    4  0.6277709E-003  0.1269503E+03  0.7818608E-02  0.1232052E+00
         -4   -1    0    0    0  501 -0.00000000000E+00  0.00000000000E+00  0.81329643961E+03  0.81329743119E+03  0.12700000000E+01 0.  1.
         21   -1    0    0  501  502  0.00000000000E+00 -0.00000000000E+00 -0.16345418081E+02  0.16345418081E+02  0.00000000000E+00 0. -1.
         25    2    1    2    0    0 -0.11155181583E+02 -0.19155474277E+02  0.79739279106E+03  0.80743523051E+03  0.12500007182E+03 0.  0.
    9000005    1    3    3    0    0  0.56735916135E+02 -0.13400756810E+02  0.40371610144E+03  0.40790468865E+03  0.10000000000E+01 0.  0.
    9000005    1    3    3    0    0 -0.67891097718E+02 -0.57547174670E+01  0.39367668962E+03  0.39953054185E+03  0.10000000000E+01 0.  0.
         -4    1    1    2    0  502  0.11155181583E+02  0.19155474277E+02 -0.44176953203E+00  0.22207618766E+02  0.12700000000E+01 0. -1.
<mgrwt>
<rscale>  1 0.12695034E+03</rscale>
<asrwt>0</asrwt>
<pdfrwt beam="2">  1       21 0.25146803E-02 0.12695034E+03</pdfrwt>
<pdfrwt beam="1">  1       -4 0.12512637E+00 0.12695034E+03</pdfrwt>
<totfact> 0.17138383E+04</totfact>
</mgrwt>
</event>
<event>
 6    4  0.6277709E-003  0.1271437E+03  0.7818608E-02  0.1231757E+00
         -4   -1    0    0    0  501 -0.00000000000E+00  0.00000000000E+00  0.71388536535E+02  0.71399832273E+02  0.12700000000E+01 0.  1.
         21   -1    0    0  501  502  0.00000000000E+00 -0.00000000000E+00 -0.79221201694E+02  0.79221201694E+02  0.00000000000E+00 0.  1.
         25    2    1    2    0    0 -0.13125725672E+02  0.19167314428E+02 -0.60578298437E+01  0.12728793393E+03  0.12500340078E+03 0.  0.
    9000005    1    3    3    0    0 -0.63230194793E+02  0.31444430088E+01 -0.29302832207E+02  0.69768194980E+02  0.10000000000E+01 0.  0.
    9000005    1    3    3    0    0  0.50104469121E+02  0.16022871419E+02  0.23245002363E+02  0.57519738953E+02  0.10000000000E+01 0.  0.
         -4    1    1    2    0  502  0.13125725672E+02 -0.19167314428E+02 -0.17748353157E+01  0.23333100034E+02  0.12700000000E+01 0. -1.
<mgrwt>
<rscale>  1 0.12714370E+03</rscale>
<asrwt>0</asrwt>
<pdfrwt beam="2">  1       21 0.12187877E-01 0.12714370E+03</pdfrwt>
<pdfrwt beam="1">  1       -4 0.10984504E-01 0.12714370E+03</pdfrwt>
<totfact> 0.14691412E+05</totfact>
</mgrwt>
</event>
<event>
 6    4  0.6277709E-003  0.1307567E+03  0.7818608E-02  0.1226337E+00
         21   -1    0    0  501  502  0.00000000000E+00  0.00000000000E+00  0.48443318217E+02  0.48443318217E+02  0.00000000000E+00 0.  1.
         -4   -1    0    0    0  501 -0.00000000000E+00 -0.00000000000E+00 -0.20436106414E+03  0.20436501030E+03  0.12700000000E+01 0.  1.
         25    2    1    2    0    0 -0.30203277120E+02  0.23803136206E+02 -0.16762308371E+03  0.21259073194E+03  0.12497397278E+03 0.  0.
    9000005    1    3    3    0    0 -0.28710890958E+02  0.34753553542E+02 -0.18585546976E+03  0.19124690947E+03  0.10000000000E+01 0.  0.
    9000005    1    3    3    0    0 -0.14923861622E+01 -0.10950417336E+02  0.18232386051E+02  0.21343822465E+02  0.10000000000E+01 0.  0.
         -4    1    1    2    0  502  0.30203277120E+02 -0.23803136206E+02  0.11705337787E+02  0.40217596580E+02  0.12700000000E+01 0.  1.
<mgrwt>
<rscale>  1 0.13075672E+03</rscale>
<asrwt>0</asrwt>
<pdfrwt beam="1">  1       21 0.74528180E-02 0.13075672E+03</pdfrwt>
<pdfrwt beam="2">  1       -4 0.31441749E-01 0.13075672E+03</pdfrwt>
<totfact> 0.53072963E+04</totfact>
</mgrwt>
</event>
<event>
 6    4  0.6277709E-003  0.1294106E+03  0.7818608E-02  0.1228333E+00
         21   -1    0    0  501  502  0.00000000000E+00  0.00000000000E+00  0.68836332726E+02  0.68836332726E+02  0.00000000000E+00 0. -1.
         -4   -1    0    0    0  501 -0.00000000000E+00 -0.00000000000E+00 -0.12560399665E+03  0.12561041706E+03  0.12700000000E+01 0. -1.
         25    2    1    2    0    0  0.13551166881E+02 -0.30641390637E+02 -0.81364586104E+02  0.15286369524E+03  0.12499833802E+03 0.  0.
    9000005    1    3    3    0    0  0.36977609738E+02 -0.43569907169E+02 -0.10342750339E+03  0.11816906909E+03  0.10000000000E+01 0.  0.
    9000005    1    3    3    0    0 -0.23426442857E+02  0.12928516532E+02  0.22062917284E+02  0.34694626151E+02  0.10000000000E+01 0.  0.
         -4    1    1    2    0  502 -0.13551166881E+02  0.30641390637E+02  0.24596922184E+02  0.41583054541E+02  0.12700000000E+01 0.  1.
<mgrwt>
<rscale>  1 0.12941064E+03</rscale>
<asrwt>0</asrwt>
<pdfrwt beam="1">  1       21 0.10590205E-01 0.12941064E+03</pdfrwt>
<pdfrwt beam="2">  1       -4 0.19325087E-01 0.12941064E+03</pdfrwt>
<totfact> 0.70611783E+04</totfact>
</mgrwt>
</event>
<event>
 6    4  0.6277709E-003  0.1266738E+03  0.7818608E-02  0.1232476E+00
         21   -1    0    0  501  502  0.00000000000E+00  0.00000000000E+00  0.15892320428E+03  0.15892320428E+03  0.00000000000E+00 0.  1.
          4   -1    0    0  502    0 -0.00000000000E+00 -0.00000000000E+00 -0.36144365753E+02  0.36166670786E+02  0.12700000000E+01 0.  1.
         25    2    1    2    0    0 -0.20245897146E+02 -0.33641974215E+01  0.86503972965E+02  0.15339223788E+03  0.12500010851E+03 0.  0.
    9000005    1    3    3    0    0  0.20336453026E+02 -0.36356331348E+02 -0.10686732988E+02  0.43018140508E+02  0.10000000000E+01 0.  0.
    9000005    1    3    3    0    0 -0.40582350172E+02  0.32992133927E+02  0.97190705953E+02  0.11037409737E+03  0.10000000000E+01 0.  0.
          4    1    1    2  501    0  0.20245897146E+02  0.33641974215E+01  0.36274865558E+02  0.41697637185E+02  0.12700000000E+01 0. -1.
<mgrwt>
<rscale>  1 0.12667376E+03</rscale>
<asrwt>0</asrwt>
<pdfrwt beam="1">  1       21 0.24449723E-01 0.12667376E+03</pdfrwt>
<pdfrwt beam="2">  1        4 0.55627778E-02 0.12667376E+03</pdfrwt>
<totfact> 0.12688123E+05</totfact>
</mgrwt>
</event>
<event>
 6    4  0.6277709E-003  0.1269162E+03  0.7818608E-02  0.1232105E+00
          4   -1    0    0  502    0 -0.00000000000E+00  0.00000000000E+00  0.28969703170E+03  0.28969981546E+03  0.12700000000E+01 0.  1.
         21   -1    0    0  501  502  0.00000000000E+00 -0.00000000000E+00 -0.19171961732E+02  0.19171961732E+02  0.00000000000E+00 0. -1.
         25    2    1    2    0    0  0.18798033523E+02 -0.11356849350E+02  0.22559821088E+03  0.25884798626E+03  0.12500153258E+03 0.  0.
    9000005    1    3    3    0    0  0.15596087271E+02 -0.86501053397E+01  0.24160836756E+03  0.24226775587E+03  0.10000000000E+01 0.  0.
    9000005    1    3    3    0    0  0.32019462522E+01 -0.27067440103E+01 -0.16010156677E+02  0.16580230389E+02  0.10000000000E+01 0.  0.
          4    1    1    2  501    0 -0.18798033523E+02  0.11356849350E+02  0.44926859086E+02  0.50023790929E+02  0.12700000000E+01 0. -1.
<mgrwt>
<rscale>  1 0.12691622E+03</rscale>
<asrwt>0</asrwt>
<pdfrwt beam="2">  1       21 0.29495328E-02 0.12691622E+03</pdfrwt>
<pdfrwt beam="1">  1        4 0.44572221E-01 0.12691622E+03</pdfrwt>
<totfact> 0.12656102E+05</totfact>
</mgrwt>
</event>
<event>
 6    4  0.6277709E-003  0.1270889E+03  0.7818608E-02  0.1231840E+00
         21   -1    0    0  501  502  0.00000000000E+00  0.00000000000E+00  0.27704310376E+03  0.27704310376E+03  0.00000000000E+00 0. -1.
          4   -1    0    0  502    0 -0.00000000000E+00 -0.00000000000E+00 -0.29415313547E+02  0.29442716775E+02  0.12700000000E+01 0. -1.
         25    2    1    2    0    0  0.22793963944E+02  0.27006759182E+01  0.11347164079E+03  0.17037430827E+03  0.12499893285E+03 0.  0.
    9000005    1    3    3    0    0  0.59980931271E+02 -0.25433630229E+02  0.23930178663E+02  0.69413508150E+02  0.10000000000E+01 0.  0.
    9000005    1    3    3    0    0 -0.37186967327E+02  0.28134306147E+02  0.89541462129E+02  0.10096080012E+03  0.10000000000E+01 0.  0.
          4    1    1    2  501    0 -0.22793963944E+02 -0.27006759182E+01  0.13415614942E+03  0.13611151226E+03  0.12700000000E+01 0.  1.
<mgrwt>
<rscale>  1 0.12708891E+03</rscale>
<asrwt>0</asrwt>
<pdfrwt beam="1">  1       21 0.42622014E-01 0.12708891E+03</pdfrwt>
<pdfrwt beam="2">  1        4 0.45277649E-02 0.12708891E+03</pdfrwt>
<totfact> 0.59897325E+04</totfact>
</mgrwt>
</event>
<event>
 6    4  0.6277709E-003  0.3686346E+03  0.7818608E-02  0.1055216E+00
         21   -1    0    0  501  502  0.00000000000E+00  0.00000000000E+00  0.38393157863E+03  0.38393157863E+03  0.00000000000E+00 0. -1.
         -4   -1    0    0    0  501 -0.00000000000E+00 -0.00000000000E+00 -0.44913648762E+03  0.44913828317E+03  0.12700000000E+01 0.  1.
         25    2    1    2    0    0  0.21060180285E+03  0.27552342899E+03 -0.24481481101E+03  0.44252202978E+03  0.12500070346E+03 0.  0.
    9000005    1    3    3    0    0  0.17398554696E+03  0.16996003118E+03 -0.10867692318E+03  0.26640018089E+03  0.10000000000E+01 0.  0.
    9000005    1    3    3    0    0  0.36616255891E+02  0.10556339782E+03 -0.13613788782E+03  0.17612184889E+03  0.10000000000E+01 0.  0.
         -4    1    1    2    0  502 -0.21060180285E+03 -0.27552342899E+03  0.17960990202E+03  0.39054783202E+03  0.12700000000E+01 0. -1.
<mgrwt>
<rscale>  1 0.36863458E+03</rscale>
<asrwt>0</asrwt>
<pdfrwt beam="1">  1       21 0.59066397E-01 0.36863458E+03</pdfrwt>
<pdfrwt beam="2">  1       -4 0.69098221E-01 0.36863458E+03</pdfrwt>
<totfact> 0.21554368E+02</totfact>
</mgrwt>
</event>
<event>
 6    4  0.6277709E-003  0.1277968E+03  0.7818608E-02  0.1230762E+00
          4   -1    0    0  502    0 -0.00000000000E+00  0.00000000000E+00  0.11772277073E+03  0.11772962094E+03  0.12700000000E+01 0.  1.
         21   -1    0    0  501  502  0.00000000000E+00 -0.00000000000E+00 -0.10618349693E+03  0.10618349693E+03  0.00000000000E+00 0.  1.
         25    2    1    2    0    0  0.10963294806E+02  0.24217451058E+02  0.79787922448E+02  0.15065897320E+03  0.12500133947E+03 0.  0.
    9000005    1    3    3    0    0  0.41787670836E+02 -0.23460061723E+02 -0.54471817760E+01  0.48241638853E+02  0.10000000000E+01 0.  0.
    9000005    1    3    3    0    0 -0.30824376030E+02  0.47677512780E+02  0.85235104224E+02  0.10241733435E+03  0.10000000000E+01 0.  0.
          4    1    1    2  501    0 -0.10963294806E+02 -0.24217451058E+02 -0.68248648648E+02  0.73254144668E+02  0.12700000000E+01 0. -1.
<mgrwt>
<rscale>  1 0.12779677E+03</rscale>
<asrwt>0</asrwt>
<pdfrwt beam="2">  1       21 0.16335923E-01 0.12779677E+03</pdfrwt>
<pdfrwt beam="1">  1        4 0.18112307E-01 0.12779677E+03</pdfrwt>
<totfact> 0.36516856E+04</totfact>
</mgrwt>
</event>
<event>
 6    4  0.6277709E-003  0.1291383E+03  0.7818608E-02  0.1228740E+00
         21   -1    0    0  501  502  0.00000000000E+00  0.00000000000E+00  0.21168109609E+02  0.21168109609E+02  0.00000000000E+00 0.  1.
          4   -1    0    0  502    0 -0.00000000000E+00 -0.00000000000E+00 -0.14205766506E+04  0.14205772183E+04  0.12700000000E+01 0. -1.
         25    2    1    2    0    0  0.31836412939E+02  0.62606572248E+01 -0.14031314584E+04  0.14090616006E+04  0.12499580593E+03 0.  0.
    9000005    1    3    3    0    0  0.51780012994E+02 -0.36818415771E+02 -0.41955205182E+03  0.42433676446E+03  0.10000000000E+01 0.  0.
    9000005    1    3    3    0    0 -0.19943600055E+02  0.43079072996E+02 -0.98357940661E+03  0.98472483609E+03  0.10000000000E+01 0.  0.
          4    1    1    2  501    0 -0.31836412939E+02 -0.62606572248E+01  0.37229174576E+01  0.32683727329E+02  0.12700000000E+01 0.  1.
<mgrwt>
<rscale>  1 0.12913832E+03</rscale>
<asrwt>0</asrwt>
<pdfrwt beam="1">  1       21 0.32566319E-02 0.12913832E+03</pdfrwt>
<pdfrwt beam="2">  1        4 0.21855325E+00 0.12913832E+03</pdfrwt>
<totfact> 0.25571376E+03</totfact>
</mgrwt>
</event>
<event>
 6    4  0.6277709E-003  0.1272467E+03  0.7818608E-02  0.1231599E+00
         21   -1    0    0  501  502  0.00000000000E+00  0.00000000000E+00  0.52853096726E+02  0.52853096726E+02  0.00000000000E+00 0.  1.
         -4   -1    0    0    0  501 -0.00000000000E+00 -0.00000000000E+00 -0.11066911361E+03  0.11067640041E+03  0.12700000000E+01 0.  1.
         25    2    1    2    0    0 -0.11574481466E+02 -0.20783905955E+02 -0.38749808432E+02  0.13301601532E+03  0.12500309320E+03 0.  0.
    9000005    1    3    3    0    0 -0.61870021588E+02  0.15898967156E+02 -0.28341851929E+02  0.69892326465E+02  0.10000000000E+01 0.  0.
    9000005    1    3    3    0    0  0.50295540121E+02 -0.36682873111E+02 -0.10407956503E+02  0.63123688853E+02  0.10000000000E+01 0.  0.
         -4    1    1    2    0  502  0.11574481466E+02  0.20783905955E+02 -0.19066208456E+02  0.30513481821E+02  0.12700000000E+01 0. -1.
<mgrwt>
<rscale>  1 0.12724666E+03</rscale>
<asrwt>0</asrwt>
<pdfrwt beam="1">  1       21 0.81312457E-02 0.12724666E+03</pdfrwt>
<pdfrwt beam="2">  1       -4 0.17027752E-01 0.12724666E+03</pdfrwt>
<totfact> 0.13971875E+05</totfact>
</mgrwt>
</event>
<event>
 6    4  0.6277709E-003  0.1381219E+03  0.7818608E-02  0.1215879E+00
         -4   -1    0    0    0  501 -0.00000000000E+00  0.00000000000E+00  0.24587515687E+03  0.24587843677E+03  0.12700000000E+01 0.  1.
         21   -1    0    0  501  502  0.00000000000E+00 -0.00000000000E+00 -0.64790834179E+02  0.64790834179E+02  0.00000000000E+00 0.  1.
         25    2    1    2    0    0  0.29062705217E+02  0.51072647632E+02  0.20501990645E+03  0.24720604348E+03  0.12499843888E+03 0.  0.
    9000005    1    3    3    0    0 -0.40090733674E+02  0.53812567356E+01  0.12730866177E+03  0.13358413158E+03  0.10000000000E+01 0.  0.
    9000005    1    3    3    0    0  0.69153438891E+02  0.45691390896E+02  0.77711244684E+02  0.11362191190E+03  0.10000000000E+01 0.  0.
         -4    1    1    2    0  502 -0.29062705217E+02 -0.51072647632E+02 -0.23935583756E+02  0.63463227466E+02  0.12700000000E+01 0. -1.
<mgrwt>
<rscale>  1 0.13812192E+03</rscale>
<asrwt>0</asrwt>
<pdfrwt beam="2">  1       21 0.99678207E-02 0.13812192E+03</pdfrwt>
<pdfrwt beam="1">  1       -4 0.37828157E-01 0.13812192E+03</pdfrwt>
<totfact> 0.22591422E+04</totfact>
</mgrwt>
</event>
<event>
 6    4  0.6277709E-003  0.1293281E+03  0.7818608E-02  0.1228456E+00
         21   -1    0    0  501  502  0.00000000000E+00  0.00000000000E+00  0.88760143389E+02  0.88760143389E+02  0.00000000000E+00 0.  1.
          4   -1    0    0  502    0 -0.00000000000E+00 -0.00000000000E+00 -0.86729072026E+02  0.86738370024E+02  0.12700000000E+01 0.  1.
         25    2    1    2    0    0  0.33160832595E+02 -0.11388454020E+01 -0.26152132004E+02  0.13194574497E+03  0.12499923128E+03 0.  0.
    9000005    1    3    3    0    0  0.29524023737E+02 -0.49587972658E+02  0.23636466856E+02  0.62372410370E+02  0.10000000000E+01 0.  0.
    9000005    1    3    3    0    0  0.36368088586E+01  0.48449127256E+02 -0.49788598860E+02  0.69573334597E+02  0.10000000000E+01 0.  0.
          4    1    1    2  501    0 -0.33160832595E+02  0.11388454020E+01  0.28183203367E+02  0.43552768446E+02  0.12700000000E+01 0. -1.
<mgrwt>
<rscale>  1 0.12932805E+03</rscale>
<asrwt>0</asrwt>
<pdfrwt beam="1">  1       21 0.13655407E-01 0.12932805E+03</pdfrwt>
<pdfrwt beam="2">  1        4 0.13344348E-01 0.12932805E+03</pdfrwt>
<totfact> 0.86231708E+04</totfact>
</mgrwt>
</event>
<event>
 6    4  0.6277709E-003  0.1278449E+03  0.7818608E-02  0.1230689E+00
          4   -1    0    0  502    0 -0.00000000000E+00  0.00000000000E+00  0.37150639584E+02  0.37172340813E+02  0.12700000000E+01 0.  1.
         21   -1    0    0  501  502  0.00000000000E+00 -0.00000000000E+00 -0.16171327251E+03  0.16171327251E+03  0.00000000000E+00 0.  1.
         25    2    1    2    0    0 -0.13820880585E+02  0.22991224215E+02 -0.97714342711E+02  0.16091119142E+03  0.12499882249E+03 0.  0.
    9000005    1    3    3    0    0 -0.66367031251E+02 -0.22427837454E+00 -0.72115434698E+02  0.98011576150E+02  0.10000000000E+01 0.  0.
    9000005    1    3    3    0    0  0.52546150665E+02  0.23215502589E+02 -0.25598908013E+02  0.62899615275E+02  0.10000000000E+01 0.  0.
          4    1    1    2  501    0  0.13820880585E+02 -0.22991224215E+02 -0.26848290214E+02  0.37974421897E+02  0.12700000000E+01 0. -1.
<mgrwt>
<rscale>  1 0.12784490E+03</rscale>
<asrwt>0</asrwt>
<pdfrwt beam="2">  1       21 0.24878965E-01 0.12784490E+03</pdfrwt>
<pdfrwt beam="1">  1        4 0.57175360E-02 0.12784490E+03</pdfrwt>
<totfact> 0.11760581E+05</totfact>
</mgrwt>
</event>
<event>
 6    4  0.6277709E-003  0.1316611E+03  0.7818608E-02  0.1225012E+00
         21   -1    0    0  501  502  0.00000000000E+00  0.00000000000E+00  0.57768962857E+03  0.57768962857E+03  0.00000000000E+00 0. -1.
          4   -1    0    0  502    0 -0.00000000000E+00 -0.00000000000E+00 -0.13446856148E+02  0.13506696127E+02  0.12700000000E+01 0. -1.
         25    2    1    2    0    0  0.61362930170E+00 -0.41348655827E+02  0.37373998514E+03  0.39625271043E+03  0.12499818460E+03 0.  0.
    9000005    1    3    3    0    0 -0.19798410636E+02 -0.48944958923E+02  0.37045997034E+03  0.37420472431E+03  0.10000000000E+01 0.  0.
    9000005    1    3    3    0    0  0.20412039938E+02  0.75963030967E+01  0.32800147968E+01  0.22047986126E+02  0.10000000000E+01 0.  0.
          4    1    1    2  501    0 -0.61362930170E+00  0.41348655827E+02  0.19050278729E+03  0.19494361427E+03  0.12700000000E+01 0.  1.
<mgrwt>
<rscale>  1 0.13166106E+03</rscale>
<asrwt>0</asrwt>
<pdfrwt beam="1">  1       21 0.88875308E-01 0.13166106E+03</pdfrwt>
<pdfrwt beam="2">  1        4 0.20734580E-02 0.13166106E+03</pdfrwt>
<totfact> 0.42496604E+04</totfact>
</mgrwt>
</event>
<event>
 6    4  0.6277709E-003  0.1267416E+03  0.7818608E-02  0.1232372E+00
         -4   -1    0    0    0  501 -0.00000000000E+00  0.00000000000E+00  0.21025204336E+02  0.21063525758E+02  0.12700000000E+01 0.  1.
         21   -1    0    0  501  502  0.00000000000E+00 -0.00000000000E+00 -0.26002357194E+03  0.26002357194E+03  0.00000000000E+00 0.  1.
         25    2    1    2    0    0  0.30660032295E+01 -0.20796579357E+02 -0.20033520285E+03  0.23706038652E+03  0.12498614029E+03 0.  0.
    9000005    1    3    3    0    0 -0.51243331346E+02 -0.24156295655E+02 -0.15878025696E+03  0.16858699721E+03  0.10000000000E+01 0.  0.
    9000005    1    3    3    0    0  0.54309334575E+02  0.33597162986E+01 -0.41554945895E+02  0.68473389312E+02  0.10000000000E+01 0.  0.
         -4    1    1    2    0  502 -0.30660032295E+01  0.20796579357E+02 -0.38663164755E+02  0.44026711184E+02  0.12700000000E+01 0. -1.
<mgrwt>
<rscale>  1 0.12674160E+03</rscale>
<asrwt>0</asrwt>
<pdfrwt beam="2">  1       21 0.40003625E-01 0.12674160E+03</pdfrwt>
<pdfrwt beam="1">  1       -4 0.32378333E-02 0.12674160E+03</pdfrwt>
<totfact> 0.11561676E+05</totfact>
</mgrwt>
</event>
<event>
 6    4  0.6277709E-003  0.1293214E+03  0.7818608E-02  0.1228466E+00
         -4   -1    0    0    0  501 -0.00000000000E+00  0.00000000000E+00  0.91591401477E+03  0.91591489525E+03  0.12700000000E+01 0.  1.
         21   -1    0    0  501  502  0.00000000000E+00 -0.00000000000E+00 -0.86034708755E+01  0.86034708755E+01  0.00000000000E+00 0.  1.
         25    2    1    2    0    0  0.19072457900E+02  0.27080943387E+02  0.52184422314E+03  0.53762944992E+03  0.12500758401E+03 0.  0.
    9000005    1    3    3    0    0 -0.29746576931E+01  0.75738014453E+02  0.31591586378E+03  0.32488294570E+03  0.10000000000E+01 0.  0.
    9000005    1    3    3    0    0  0.22047115593E+02 -0.48657071066E+02  0.20592835936E+03  0.21274650422E+03  0.10000000000E+01 0.  0.
         -4    1    1    2    0  502 -0.19072457900E+02 -0.27080943387E+02  0.38546632075E+03  0.38688891620E+03  0.12700000000E+01 0. -1.
<mgrwt>
<rscale>  1 0.12932143E+03</rscale>
<asrwt>0</asrwt>
<pdfrwt beam="2">  1       21 0.13236116E-02 0.12932143E+03</pdfrwt>
<pdfrwt beam="1">  1       -4 0.14091705E+00 0.12932143E+03</pdfrwt>
<totfact> 0.35996931E+04</totfact>
</mgrwt>
</event>
<event>
 6    4  0.6277709E-003  0.1267502E+03  0.7818608E-02  0.1232359E+00
         21   -1    0    0  501  502  0.00000000000E+00  0.00000000000E+00  0.32123399498E+03  0.32123399498E+03  0.00000000000E+00 0. -1.
         -4   -1    0    0    0  501 -0.00000000000E+00 -0.00000000000E+00 -0.27075330478E+02  0.27105099530E+02  0.12700000000E+01 0.  1.
         25    2    1    2    0    0 -0.21014098799E+02  0.29619592805E+00  0.12549548162E+03  0.17836685490E+03  0.12499575568E+03 0.  0.
    9000005    1    3    3    0    0  0.24051956041E+02  0.67287998479E+01  0.13021205876E+03  0.13258941731E+03  0.10000000000E+01 0.  0.
    9000005    1    3    3    0    0 -0.45066054840E+02 -0.64326039199E+01 -0.47165771357E+01  0.45777437585E+02  0.10000000000E+01 0.  0.
         -4    1    1    2    0  502  0.21014098799E+02 -0.29619592805E+00  0.16866318288E+03  0.16997223961E+03  0.12700000000E+01 0. -1.
<mgrwt>
<rscale>  1 0.12675022E+03</rscale>
<asrwt>0</asrwt>
<pdfrwt beam="1">  1       21 0.49420612E-01 0.12675022E+03</pdfrwt>
<pdfrwt beam="2">  1       -4 0.41679187E-02 0.12675022E+03</pdfrwt>
<totfact> 0.50541899E+04</totfact>
</mgrwt>
</event>
<event>
 6    4  0.6277709E-003  0.1269414E+03  0.7818608E-02  0.1232066E+00
          4   -1    0    0  502    0 -0.00000000000E+00  0.00000000000E+00  0.48400228021E+03  0.48400394642E+03  0.12700000000E+01 0.  1.
         21   -1    0    0  501  502  0.00000000000E+00 -0.00000000000E+00 -0.22337466312E+02  0.22337466312E+02  0.00000000000E+00 0. -1.
         25    2    1    2    0    0 -0.10202541933E+02  0.19609443284E+02  0.46668227383E+03  0.48363877121E+03  0.12500197670E+03 0.  0.
    9000005    1    3    3    0    0 -0.10975613225E+01 -0.16058961245E+02  0.43430356621E+03  0.43460290208E+03  0.10000000000E+01 0.  0.
    9000005    1    3    3    0    0 -0.91049806106E+01  0.35668404529E+02  0.32378707625E+02  0.49035869127E+02  0.10000000000E+01 0.  0.
          4    1    1    2  501    0  0.10202541933E+02 -0.19609443284E+02 -0.50174599350E+01  0.22702641521E+02  0.12700000000E+01 0. -1.
<mgrwt>
<rscale>  1 0.12694139E+03</rscale>
<asrwt>0</asrwt>
<pdfrwt beam="2">  1       21 0.34365336E-02 0.12694139E+03</pdfrwt>
<pdfrwt beam="1">  1        4 0.74464787E-01 0.12694139E+03</pdfrwt>
<totfact> 0.33780606E+04</totfact>
</mgrwt>
</event>
<event>
 6    4  0.6277709E-003  0.1269443E+03  0.7818608E-02  0.1232062E+00
          4   -1    0    0  502    0 -0.00000000000E+00  0.00000000000E+00  0.10256510262E+03  0.10257296513E+03  0.12700000000E+01 0. -1.
         21   -1    0    0  501  502  0.00000000000E+00 -0.00000000000E+00 -0.54492872032E+02  0.54492872032E+02  0.00000000000E+00 0. -1.
         25    2    1    2    0    0  0.21944532977E+02  0.25505839609E+01  0.45201357554E+02  0.13475165293E+03  0.12500710874E+03 0.  0.
    9000005    1    3    3    0    0 -0.37799629585E+02  0.25471522117E+02 -0.13874078506E+02  0.47656064568E+02  0.10000000000E+01 0.  0.
    9000005    1    3    3    0    0  0.59744162562E+02 -0.22920938156E+02  0.59075436060E+02  0.87095588360E+02  0.10000000000E+01 0.  0.
          4    1    1    2  501    0 -0.21944532977E+02 -0.25505839609E+01  0.28708730372E+01  0.22314184236E+02  0.12700000000E+01 0.  1.
<mgrwt>
<rscale>  1 0.12694426E+03</rscale>
<asrwt>0</asrwt>
<pdfrwt beam="2">  1       21 0.83835189E-02 0.12694426E+03</pdfrwt>
<pdfrwt beam="1">  1        4 0.15780990E-01 0.12694426E+03</pdfrwt>
<totfact> 0.15144929E+05</totfact>
</mgrwt>
</event>
<event>
 6    4  0.6277709E-003  0.1312175E+03  0.7818608E-02  0.1225660E+00
          4   -1    0    0  502    0 -0.00000000000E+00  0.00000000000E+00  0.10072824982E+04  0.10072832988E+04  0.12700000000E+01 0.  1.
         21   -1    0    0  501  502  0.00000000000E+00 -0.00000000000E+00 -0.30812548902E+02  0.30812548902E+02  0.00000000000E+00 0. -1.
         25    2    1    2    0    0  0.33045266568E+02 -0.22375010599E+02  0.98789028567E+03  0.99656672869E+03  0.12500158989E+03 0.  0.
    9000005    1    3    3    0    0  0.68414315746E+02 -0.50362231313E+02  0.58002427149E+03  0.58621329604E+03  0.10000000000E+01 0.  0.
    9000005    1    3    3    0    0 -0.35369049178E+02  0.27987220713E+02  0.40786601418E+03  0.41035343265E+03  0.10000000000E+01 0.  0.
          4    1    1    2  501    0 -0.33045266568E+02  0.22375010599E+02 -0.11420336396E+02  0.41529119004E+02  0.12700000000E+01 0. -1.
<mgrwt>
<rscale>  1 0.13121748E+03</rscale>
<asrwt>0</asrwt>
<pdfrwt beam="2">  1       21 0.47403929E-02 0.13121748E+03</pdfrwt>
<pdfrwt beam="1">  1        4 0.15496859E+00 0.13121748E+03</pdfrwt>
<totfact> 0.35428693E+03</totfact>
</mgrwt>
</event>
<event>
 6    4  0.6277709E-003  0.1274951E+03  0.7818608E-02  0.1231221E+00
          4   -1    0    0  502    0 -0.00000000000E+00  0.00000000000E+00  0.16716897377E+02  0.16765069576E+02  0.12700000000E+01 0.  1.
         21   -1    0    0  501  502  0.00000000000E+00 -0.00000000000E+00 -0.37821055396E+03  0.37821055396E+03  0.00000000000E+00 0.  1.
         25    2    1    2    0    0  0.17483661087E+02  0.18013831491E+02 -0.24940512373E+03  0.28010339613E+03  0.12499928102E+03 0.  0.
    9000005    1    3    3    0    0  0.14791070635E+02  0.14229128813E+02  0.84401078393E+01  0.22214393930E+02  0.10000000000E+01 0.  0.
    9000005    1    3    3    0    0  0.26925904514E+01  0.37847026783E+01 -0.25784523156E+03  0.25788900221E+03  0.10000000000E+01 0.  0.
          4    1    1    2  501    0 -0.17483661087E+02 -0.18013831491E+02 -0.11208853286E+03  0.11487222741E+03  0.12700000000E+01 0. -1.
<mgrwt>
<rscale>  1 0.12749509E+03</rscale>
<asrwt>0</asrwt>
<pdfrwt beam="2">  1       21 0.58186245E-01 0.12749509E+03</pdfrwt>
<pdfrwt beam="1">  1        4 0.25756997E-02 0.12749509E+03</pdfrwt>
<totfact> 0.76650217E+04</totfact>
</mgrwt>
</event>
<event>
 6    4  0.6277709E-003  0.1368175E+03  0.7818608E-02  0.1217677E+00
         21   -1    0    0  501  502  0.00000000000E+00  0.00000000000E+00  0.30376062044E+02  0.30376062044E+02  0.00000000000E+00 0. -1.
          4   -1    0    0  502    0 -0.00000000000E+00 -0.00000000000E+00 -0.48005411462E+03  0.48005579453E+03  0.12700000000E+01 0.  1.
         25    2    1    2    0    0  0.52871264287E+02  0.17283586867E+02 -0.13984110604E+03  0.19563884633E+03  0.12499972117E+03 0.  0.
    9000005    1    3    3    0    0 -0.39200321920E+01  0.33008835408E+02  0.99152841048E+01  0.34702488762E+02  0.10000000000E+01 0.  0.
    9000005    1    3    3    0    0  0.56791296479E+02 -0.15725248541E+02 -0.14975639015E+03  0.16093635757E+03  0.10000000000E+01 0.  0.
          4    1    1    2  501    0 -0.52871264287E+02 -0.17283586867E+02 -0.30983694653E+03  0.31479301024E+03  0.12700000000E+01 0. -1.
<mgrwt>
<rscale>  1 0.13681748E+03</rscale>
<asrwt>0</asrwt>
<pdfrwt beam="1">  1       21 0.46732402E-02 0.13681748E+03</pdfrwt>
<pdfrwt beam="2">  1        4 0.73856653E-01 0.13681748E+03</pdfrwt>
<totfact> 0.20810544E+04</totfact>
</mgrwt>
</event>
<event>
 6    4  0.6277709E-003  0.1307611E+03  0.7818608E-02  0.1226331E+00
          4   -1    0    0  502    0 -0.00000000000E+00  0.00000000000E+00  0.58922168333E+02  0.58935853443E+02  0.12700000000E+01 0. -1.
         21   -1    0    0  501  502  0.00000000000E+00 -0.00000000000E+00 -0.15898516663E+03  0.15898516663E+03  0.00000000000E+00 0.  1.
         25    2    1    2    0    0  0.23091027960E+02 -0.30664891046E+02 -0.24329683374E+02  0.13300530301E+03  0.12499978408E+03 0.  0.
    9000005    1    3    3    0    0 -0.50212699199E+02 -0.71287476702E+01 -0.23741404906E+02  0.56007039835E+02  0.10000000000E+01 0.  0.
    9000005    1    3    3    0    0  0.73303727160E+02 -0.23536143376E+02 -0.58827846812E+00  0.76998263175E+02  0.10000000000E+01 0.  0.
          4    1    1    2  501    0 -0.23091027960E+02  0.30664891046E+02 -0.75733314928E+02  0.84915717067E+02  0.12700000000E+01 0.  1.
<mgrwt>
<rscale>  1 0.13076115E+03</rscale>
<asrwt>0</asrwt>
<pdfrwt beam="2">  1       21 0.24459256E-01 0.13076115E+03</pdfrwt>
<pdfrwt beam="1">  1        4 0.90663919E-02 0.13076115E+03</pdfrwt>
<totfact> 0.57094120E+04</totfact>
</mgrwt>
</event>
<event>
 6    4  0.6277709E-003  0.1267903E+03  0.7818608E-02  0.1232298E+00
          4   -1    0    0  502    0 -0.00000000000E+00  0.00000000000E+00  0.46323517162E+02  0.46340922976E+02  0.12700000000E+01 0.  1.
         21   -1    0    0  501  502  0.00000000000E+00 -0.00000000000E+00 -0.13769878948E+03  0.13769878948E+03  0.00000000000E+00 0.  1.
         25    2    1    2    0    0  0.95459600400E+01  0.18971519342E+02 -0.47714925270E+02  0.13547138220E+03  0.12499894961E+03 0.  0.
    9000005    1    3    3    0    0  0.16939548917E+02  0.49223224803E+02 -0.76841350581E+02  0.92819541783E+02  0.10000000000E+01 0.  0.
    9000005    1    3    3    0    0 -0.73935888774E+01 -0.30251705462E+02  0.29126425311E+02  0.42651840420E+02  0.10000000000E+01 0.  0.
          4    1    1    2  501    0 -0.95459600400E+01 -0.18971519342E+02 -0.43660347049E+02  0.48568330254E+02  0.12700000000E+01 0. -1.
<mgrwt>
<rscale>  1 0.12679030E+03</rscale>
<asrwt>0</asrwt>
<pdfrwt beam="2">  1       21 0.21184429E-01 0.12679030E+03</pdfrwt>
<pdfrwt beam="1">  1        4 0.71284845E-02 0.12679030E+03</pdfrwt>
<totfact> 0.11081583E+05</totfact>
</mgrwt>
</event>
<event>
 6    4  0.6277709E-003  0.1371503E+03  0.7818608E-02  0.1217216E+00
         21   -1    0    0  501  502  0.00000000000E+00  0.00000000000E+00  0.78649452441E+01  0.78649452441E+01  0.00000000000E+00 0. -1.
         -4   -1    0    0    0  501 -0.00000000000E+00 -0.00000000000E+00 -0.20585888531E+04  0.20585892449E+04  0.12700000000E+01 0.  1.
         25    2    1    2    0    0 -0.26894647591E+02 -0.49618230414E+02 -0.19087117609E+04  0.19136328773E+04  0.12499964823E+03 0.  0.
    9000005    1    3    3    0    0 -0.70402782636E+02 -0.40095095259E+02 -0.81588773327E+03  0.81990119025E+03  0.10000000000E+01 0.  0.
    9000005    1    3    3    0    0  0.43508135044E+02 -0.95231351543E+01 -0.10928240276E+04  0.10937316871E+04  0.10000000000E+01 0.  0.
         -4    1    1    2    0  502  0.26894647591E+02  0.49618230414E+02 -0.14201214697E+03  0.15282131280E+03  0.12700000000E+01 0. -1.
<mgrwt>
<rscale>  1 0.13715029E+03</rscale>
<asrwt>0</asrwt>
<pdfrwt beam="1">  1       21 0.12099894E-02 0.13715029E+03</pdfrwt>
<pdfrwt beam="2">  1       -4 0.31671447E+00 0.13715029E+03</pdfrwt>
<totfact> 0.34243116E+03</totfact>
</mgrwt>
</event>
<event>
 6    4  0.6277709E-003  0.1270156E+03  0.7818608E-02  0.1231952E+00
          4   -1    0    0  502    0 -0.00000000000E+00  0.00000000000E+00  0.46351033549E+03  0.46351207536E+03  0.12700000000E+01 0.  1.
         21   -1    0    0  501  502  0.00000000000E+00 -0.00000000000E+00 -0.18853824363E+02  0.18853824363E+02  0.00000000000E+00 0. -1.
         25    2    1    2    0    0 -0.11298084915E+02 -0.19483418408E+02  0.44171842148E+03  0.45961737040E+03  0.12500285191E+03 0.  0.
    9000005    1    3    3    0    0 -0.88365631241E+01  0.27213064507E+02  0.38516972098E+03  0.38623224838E+03  0.10000000000E+01 0.  0.
    9000005    1    3    3    0    0 -0.24615217907E+01 -0.46696482916E+02  0.56548700494E+02  0.73385122019E+02  0.10000000000E+01 0.  0.
          4    1    1    2  501    0  0.11298084915E+02  0.19483418408E+02  0.29380896497E+01  0.22748529324E+02  0.12700000000E+01 0. -1.
<mgrwt>
<rscale>  1 0.12701560E+03</rscale>
<asrwt>0</asrwt>
<pdfrwt beam="2">  1       21 0.29005887E-02 0.12701560E+03</pdfrwt>
<pdfrwt beam="1">  1        4 0.71312698E-01 0.12701560E+03</pdfrwt>
<totfact> 0.49029345E+04</totfact>
</mgrwt>
</event>
<event>
 6    4  0.6277709E-003  0.1308924E+03  0.7818608E-02  0.1226138E+00
          4   -1    0    0  502    0 -0.00000000000E+00  0.00000000000E+00  0.24596760421E+03  0.24597088288E+03  0.12700000000E+01 0.  1.
         21   -1    0    0  501  502  0.00000000000E+00 -0.00000000000E+00 -0.38992234519E+02  0.38992234519E+02  0.00000000000E+00 0.  1.
         25    2    1    2    0    0  0.17030175287E+02  0.34880298239E+02  0.20840478078E+03  0.24610030495E+03  0.12500458137E+03 0.  0.
    9000005    1    3    3    0    0  0.24173435409E+02 -0.32500317972E+02  0.18640425536E+02  0.44599227705E+02  0.10000000000E+01 0.  0.
    9000005    1    3    3    0    0 -0.71432601222E+01  0.67380616210E+02  0.18976435525E+03  0.20150107724E+03  0.10000000000E+01 0.  0.
          4    1    1    2  501    0 -0.17030175287E+02 -0.34880298239E+02 -0.14294110891E+01  0.38862812451E+02  0.12700000000E+01 0. -1.
<mgrwt>
<rscale>  1 0.13089235E+03</rscale>
<asrwt>0</asrwt>
<pdfrwt beam="2">  1       21 0.59988055E-02 0.13089235E+03</pdfrwt>
<pdfrwt beam="1">  1        4 0.37843012E-01 0.13089235E+03</pdfrwt>
<totfact> 0.53815584E+04</totfact>
</mgrwt>
</event>
<event>
 6    4  0.6277709E-003  0.1267299E+03  0.7818608E-02  0.1232390E+00
         21   -1    0    0  501  502  0.00000000000E+00  0.00000000000E+00  0.30734234893E+03  0.30734234893E+03  0.00000000000E+00 0. -1.
          4   -1    0    0  502    0 -0.00000000000E+00 -0.00000000000E+00 -0.20674731473E+02  0.20713701298E+02  0.12700000000E+01 0. -1.
         25    2    1    2    0    0  0.20467858435E+02 -0.40492325502E+01  0.18488643361E+03  0.22415055568E+03  0.12500059505E+03 0.  0.
    9000005    1    3    3    0    0  0.13803403399E+02 -0.38369873250E+02  0.18472434917E+03  0.18917416921E+03  0.10000000000E+01 0.  0.
    9000005    1    3    3    0    0  0.66644550358E+01  0.34320640700E+02  0.16208443922E+00  0.34976386468E+02  0.10000000000E+01 0.  0.
          4    1    1    2  501    0 -0.20467858435E+02  0.40492325502E+01  0.10178118384E+03  0.10390549455E+03  0.12700000000E+01 0.  1.
<mgrwt>
<rscale>  1 0.12672994E+03</rscale>
<asrwt>0</asrwt>
<pdfrwt beam="1">  1       21 0.47283435E-01 0.12672994E+03</pdfrwt>
<pdfrwt beam="2">  1        4 0.31839277E-02 0.12672994E+03</pdfrwt>
<totfact> 0.84659073E+04</totfact>
</mgrwt>
</event>
<event>
 6    4  0.6277709E-003  0.1332016E+03  0.7818608E-02  0.1222781E+00
         -4   -1    0    0    0  501 -0.00000000000E+00  0.00000000000E+00  0.31982583719E+02  0.32007789073E+02  0.12700000000E+01 0. -1.
         21   -1    0    0  501  502  0.00000000000E+00 -0.00000000000E+00 -0.41164271754E+03  0.41164271754E+03  0.00000000000E+00 0.  1.
         25    2    1    2    0    0  0.45714978526E+02  0.52364946920E+01 -0.11793473736E+03  0.17790800683E+03  0.12500150591E+03 0.  0.
    9000005    1    3    3    0    0  0.29451989160E+02 -0.57203010774E+02 -0.36409075180E+02  0.73933922272E+02  0.10000000000E+01 0.  0.
    9000005    1    3    3    0    0  0.16262989366E+02  0.62439505466E+02 -0.81525662184E+02  0.10397408456E+03  0.10000000000E+01 0.  0.
         -4    1    1    2    0  502 -0.45714978526E+02 -0.52364946920E+01 -0.26172539646E+03  0.26574249978E+03  0.12700000000E+01 0.  1.
<mgrwt>
<rscale>  1 0.13320156E+03</rscale>
<asrwt>0</asrwt>
<pdfrwt beam="2">  1       21 0.63329640E-01 0.13320156E+03</pdfrwt>
<pdfrwt beam="1">  1       -4 0.49224877E-02 0.13320156E+03</pdfrwt>
<totfact> 0.23129939E+04</totfact>
</mgrwt>
</event>
<event>
 6    4  0.6277709E-003  0.1288960E+03  0.7818608E-02  0.1229103E+00
         21   -1    0    0  501  502  0.00000000000E+00  0.00000000000E+00  0.60908570128E+02  0.60908570128E+02  0.00000000000E+00 0. -1.
         -4   -1    0    0    0  501 -0.00000000000E+00 -0.00000000000E+00 -0.11935601796E+03  0.11936277444E+03  0.12700000000E+01 0.  1.
         25    2    1    2    0    0 -0.28831187396E+02 -0.12578291129E+02 -0.70073215024E+02  0.14671211131E+03  0.12499894946E+03 0.  0.
    9000005    1    3    3    0    0  0.31895016380E+02 -0.47043507405E+02 -0.18084326196E+02  0.59652548251E+02  0.10000000000E+01 0.  0.
    9000005    1    3    3    0    0 -0.60726203776E+02  0.34465216276E+02 -0.51988888828E+02  0.87059563056E+02  0.10000000000E+01 0.  0.
         -4    1    1    2    0  502  0.28831187396E+02  0.12578291129E+02  0.11625767195E+02  0.33559233264E+02  0.12700000000E+01 0. -1.
<mgrwt>
<rscale>  1 0.12889604E+03</rscale>
<asrwt>0</asrwt>
<pdfrwt beam="1">  1       21 0.93705494E-02 0.12889604E+03</pdfrwt>
<pdfrwt beam="2">  1       -4 0.18364002E-01 0.12889604E+03</pdfrwt>
<totfact> 0.95747999E+04</totfact>
</mgrwt>
</event>
<event>
 6    4  0.6277709E-003  0.1335037E+03  0.7818608E-02  0.1222348E+00
         21   -1    0    0  501  502  0.00000000000E+00  0.00000000000E+00  0.26201630684E+02  0.26201630684E+02  0.00000000000E+00 0.  1.
          4   -1    0    0  502    0 -0.00000000000E+00 -0.00000000000E+00 -0.33656379877E+03  0.33656619489E+03  0.12700000000E+01 0.  1.
         25    2    1    2    0    0  0.46192318781E+02  0.80491218436E+01 -0.17914640456E+03  0.22342038866E+03  0.12499886849E+03 0.  0.
    9000005    1    3    3    0    0  0.81856819011E+02 -0.24200068681E+02 -0.11177506174E+03  0.14064439758E+03  0.10000000000E+01 0.  0.
    9000005    1    3    3    0    0 -0.35664500230E+02  0.32249190525E+02 -0.67371342817E+02  0.82775991079E+02  0.10000000000E+01 0.  0.
          4    1    1    2  501    0 -0.46192318781E+02 -0.80491218436E+01 -0.13121576353E+03  0.13934743692E+03  0.12700000000E+01 0. -1.
<mgrwt>
<rscale>  1 0.13350369E+03</rscale>
<asrwt>0</asrwt>
<pdfrwt beam="1">  1       21 0.40310198E-02 0.13350369E+03</pdfrwt>
<pdfrwt beam="2">  1        4 0.51781601E-01 0.13350369E+03</pdfrwt>
<totfact> 0.56219957E+04</totfact>
</mgrwt>
</event>
<event>
 6    4  0.6277709E-003  0.1324616E+03  0.7818608E-02  0.1223848E+00
         21   -1    0    0  501  502  0.00000000000E+00  0.00000000000E+00  0.52043735960E+02  0.52043735960E+02  0.00000000000E+00 0.  1.
          4   -1    0    0  502    0 -0.00000000000E+00 -0.00000000000E+00 -0.43604286648E+03  0.43604471595E+03  0.12700000000E+01 0. -1.
         25    2    1    2    0    0 -0.39632618172E+02  0.18716820676E+02 -0.41418731544E+03  0.43485309516E+03  0.12500007318E+03 0.  0.
    9000005    1    3    3    0    0 -0.77019163197E+02  0.28393242063E+02 -0.35354927158E+03  0.36295483897E+03  0.10000000000E+01 0.  0.
    9000005    1    3    3    0    0  0.37386545024E+02 -0.96764213868E+01 -0.60638043863E+02  0.71898256191E+02  0.10000000000E+01 0.  0.
          4    1    1    2  501    0  0.39632618172E+02 -0.18716820676E+02  0.30188184924E+02  0.53235356751E+02  0.12700000000E+01 0.  1.
<mgrwt>
<rscale>  1 0.13246162E+03</rscale>
<asrwt>0</asrwt>
<pdfrwt beam="1">  1       21 0.80067286E-02 0.13246162E+03</pdfrwt>
<pdfrwt beam="2">  1        4 0.67084852E-01 0.13246162E+03</pdfrwt>
<totfact> 0.10224377E+04</totfact>
</mgrwt>
</event>
<event>
 6    4  0.6277709E-003  0.1266338E+03  0.7818608E-02  0.1232538E+00
         21   -1    0    0  501  502  0.00000000000E+00  0.00000000000E+00  0.31508711905E+02  0.31508711905E+02  0.00000000000E+00 0. -1.
          4   -1    0    0  502    0 -0.00000000000E+00 -0.00000000000E+00 -0.19334876870E+03  0.19335293962E+03  0.12700000000E+01 0. -1.
         25    2    1    2    0    0  0.88706584708E+01  0.18256384720E+02 -0.16055391143E+03  0.20448393735E+03  0.12499655194E+03 0.  0.
    9000005    1    3    3    0    0  0.89915485982E+01  0.25320020072E+02 -0.18091848837E+03  0.18290557891E+03  0.10000000000E+01 0.  0.
    9000005    1    3    3    0    0 -0.12089012744E+00 -0.70636353525E+01  0.20364576945E+02  0.21578358440E+02  0.10000000000E+01 0.  0.
          4    1    1    2  501    0 -0.88706584708E+01 -0.18256384720E+02 -0.12861453675E+01  0.20377714166E+02  0.12700000000E+01 0.  1.
<mgrwt>
<rscale>  1 0.12663381E+03</rscale>
<asrwt>0</asrwt>
<pdfrwt beam="1">  1       21 0.48474942E-02 0.12663381E+03</pdfrwt>
<pdfrwt beam="2">  1        4 0.29748254E-01 0.12663381E+03</pdfrwt>
<totfact> 0.12168854E+05</totfact>
</mgrwt>
</event>
<event>
 6    4  0.6277709E-003  0.1287571E+03  0.7818608E-02  0.1229312E+00
         21   -1    0    0  501  502  0.00000000000E+00  0.00000000000E+00  0.65865378500E+02  0.65865378500E+02  0.00000000000E+00 0. -1.
          4   -1    0    0  502    0 -0.00000000000E+00 -0.00000000000E+00 -0.17801614384E+03  0.17802067399E+03  0.12700000000E+01 0.  1.
         25    2    1    2    0    0 -0.20003733869E+01 -0.30820274368E+02 -0.14825181136E+03  0.19635933128E+03  0.12499798641E+03 0.  0.
    9000005    1    3    3    0    0  0.60126802373E+02 -0.17439519602E+02 -0.54019403199E+02  0.82695012725E+02  0.10000000000E+01 0.  0.
    9000005    1    3    3    0    0 -0.62127175760E+02 -0.13380754767E+02 -0.94232408159E+02  0.11366431856E+03  0.10000000000E+01 0.  0.
          4    1    1    2  501    0  0.20003733869E+01  0.30820274368E+02  0.36101046012E+02  0.47526721211E+02  0.12700000000E+01 0. -1.
<mgrwt>
<rscale>  1 0.12875709E+03</rscale>
<asrwt>0</asrwt>
<pdfrwt beam="1">  1       21 0.10133135E-01 0.12875709E+03</pdfrwt>
<pdfrwt beam="2">  1        4 0.27388389E-01 0.12875709E+03</pdfrwt>
<totfact> 0.40324077E+04</totfact>
</mgrwt>
</event>
<event>
 6    4  0.6277709E-003  0.1303947E+03  0.7818608E-02  0.1226871E+00
         -4   -1    0    0    0  501 -0.00000000000E+00  0.00000000000E+00  0.20545350758E+03  0.20545743277E+03  0.12700000000E+01 0. -1.
         21   -1    0    0  501  502  0.00000000000E+00 -0.00000000000E+00 -0.11332398603E+03  0.11332398603E+03  0.00000000000E+00 0.  1.
         25    2    1    2    0    0  0.24157837700E+02 -0.28191997831E+02  0.18064305950E+03  0.22278845466E+03  0.12499756287E+03 0.  0.
    9000005    1    3    3    0    0 -0.17701911881E+02 -0.50118768584E+01 -0.13494822941E+02  0.22838275769E+02  0.10000000000E+01 0.  0.
    9000005    1    3    3    0    0  0.41859749580E+02 -0.23180120973E+02  0.19413788244E+03  0.19995017890E+03  0.10000000000E+01 0.  0.
         -4    1    1    2    0  502 -0.24157837700E+02  0.28191997831E+02 -0.88513537945E+02  0.95992964136E+02  0.12700000000E+01 0.  1.
<mgrwt>
<rscale>  1 0.13039471E+03</rscale>
<asrwt>0</asrwt>
<pdfrwt beam="2">  1       21 0.17434459E-01 0.13039471E+03</pdfrwt>
<pdfrwt beam="1">  1       -4 0.31609081E-01 0.13039471E+03</pdfrwt>
<totfact> 0.11692307E+04</totfact>
</mgrwt>
</event>
<event>
 6    4  0.6277709E-003  0.1276068E+03  0.7818608E-02  0.1231051E+00
         21   -1    0    0  501  502  0.00000000000E+00  0.00000000000E+00  0.12710916774E+02  0.12710916774E+02  0.00000000000E+00 0. -1.
         -4   -1    0    0    0  501 -0.00000000000E+00 -0.00000000000E+00 -0.46338450894E+03  0.46338624929E+03  0.12700000000E+01 0. -1.
         25    2    1    2    0    0  0.69205092490E+01  0.24727060429E+02 -0.36604904300E+03  0.38765369153E+03  0.12499664678E+03 0.  0.
    9000005    1    3    3    0    0  0.43122544435E+02 -0.20506747537E+02 -0.62693136602E+02  0.78813132853E+02  0.10000000000E+01 0.  0.
    9000005    1    3    3    0    0 -0.36202035186E+02  0.45233807966E+02 -0.30335590640E+03  0.30884055868E+03  0.10000000000E+01 0.  0.
         -4    1    1    2    0  502 -0.69205092490E+01 -0.24727060429E+02 -0.84624549167E+02  0.88443474533E+02  0.12700000000E+01 0.  1.
<mgrwt>
<rscale>  1 0.12760675E+03</rscale>
<asrwt>0</asrwt>
<pdfrwt beam="1">  1       21 0.19555256E-02 0.12760675E+03</pdfrwt>
<pdfrwt beam="2">  1       -4 0.71294940E-01 0.12760675E+03</pdfrwt>
<totfact> 0.93123437E+04</totfact>
</mgrwt>
</event>
<event>
 6    4  0.6277709E-003  0.1293374E+03  0.7818608E-02  0.1228442E+00
         -4   -1    0    0    0  501 -0.00000000000E+00  0.00000000000E+00  0.27300673867E+02  0.27330197467E+02  0.12700000000E+01 0. -1.
         21   -1    0    0  501  502  0.00000000000E+00 -0.00000000000E+00 -0.71399739749E+03  0.71399739749E+03  0.00000000000E+00 0.  1.
         25    2    1    2    0    0  0.20975159630E+02 -0.25754745382E+02 -0.12910644931E+03  0.18274743855E+03  0.12499954724E+03 0.  0.
    9000005    1    3    3    0    0 -0.43416834120E+02 -0.16473045062E+02 -0.10734512232E+02  0.47671925191E+02  0.10000000000E+01 0.  0.
    9000005    1    3    3    0    0  0.64391993749E+02 -0.92817003196E+01 -0.11837193708E+03  0.13507551336E+03  0.10000000000E+01 0.  0.
         -4    1    1    2    0  502 -0.20975159630E+02  0.25754745382E+02 -0.55759027431E+03  0.55858015641E+03  0.12700000000E+01 0.  1.
<mgrwt>
<rscale>  1 0.12933735E+03</rscale>
<asrwt>0</asrwt>
<pdfrwt beam="2">  1       21 0.10984572E+00 0.12933735E+03</pdfrwt>
<pdfrwt beam="1">  1       -4 0.42024628E-02 0.12933735E+03</pdfrwt>
<totfact> 0.85651963E+03</totfact>
</mgrwt>
</event>
<event>
 6    4  0.6277709E-003  0.1283617E+03  0.7818608E-02  0.1229907E+00
         -4   -1    0    0    0  501 -0.00000000000E+00  0.00000000000E+00  0.63572840873E+03  0.63572967727E+03  0.12700000000E+01 0.  1.
         21   -1    0    0  501  502  0.00000000000E+00 -0.00000000000E+00 -0.34437246987E+02  0.34437246987E+02  0.00000000000E+00 0. -1.
         25    2    1    2    0    0 -0.17558024656E+02  0.23307784734E+02  0.62152031764E+03  0.63463709584E+03  0.12500080448E+03 0.  0.
    9000005    1    3    3    0    0 -0.13178562948E+02  0.20088758605E+02  0.15538359961E+02  0.28629938420E+02  0.10000000000E+01 0.  0.
    9000005    1    3    3    0    0 -0.43794617080E+01  0.32190261286E+01  0.60598195768E+03  0.60600715742E+03  0.10000000000E+01 0.  0.
         -4    1    1    2    0  502  0.17558024656E+02 -0.23307784734E+02 -0.20229155898E+02  0.35529828417E+02  0.12700000000E+01 0. -1.
<mgrwt>
<rscale>  1 0.12836175E+03</rscale>
<asrwt>0</asrwt>
<pdfrwt beam="2">  1       21 0.52980385E-02 0.12836175E+03</pdfrwt>
<pdfrwt beam="1">  1       -4 0.97806261E-01 0.12836175E+03</pdfrwt>
<totfact> 0.89395976E+03</totfact>
</mgrwt>
</event>
<event>
 6    4  0.6277709E-003  0.1382624E+03  0.7818608E-02  0.1215686E+00
         21   -1    0    0  501  502  0.00000000000E+00  0.00000000000E+00  0.11374769153E+03  0.11374769153E+03  0.00000000000E+00 0. -1.
          4   -1    0    0  502    0 -0.00000000000E+00 -0.00000000000E+00 -0.11305572192E+03  0.11306285490E+03  0.12700000000E+01 0. -1.
         25    2    1    2    0    0 -0.55242016504E+02  0.20973777798E+02 -0.51913350248E+02  0.14768714711E+03  0.12499967098E+03 0.  0.
    9000005    1    3    3    0    0 -0.63460010682E+02  0.12474694229E+02  0.25383791190E+02  0.69484730748E+02  0.10000000000E+01 0.  0.
    9000005    1    3    3    0    0  0.82179941784E+01  0.84990835696E+01 -0.77297141438E+02  0.78202416359E+02  0.10000000000E+01 0.  0.
          4    1    1    2  501    0  0.55242016504E+02 -0.20973777798E+02  0.52605319863E+02  0.79123399323E+02  0.12700000000E+01 0.  1.
<mgrwt>
<rscale>  1 0.13826242E+03</rscale>
<asrwt>0</asrwt>
<pdfrwt beam="1">  1       21 0.17499645E-01 0.13826242E+03</pdfrwt>
<pdfrwt beam="2">  1        4 0.17394282E-01 0.13826242E+03</pdfrwt>
<totfact> 0.34918003E+04</totfact>
</mgrwt>
</event>
<event>
 6    4  0.6277709E-003  0.1328761E+03  0.7818608E-02  0.1223249E+00
         21   -1    0    0  501  502  0.00000000000E+00  0.00000000000E+00  0.75568035815E+02  0.75568035815E+02  0.00000000000E+00 0. -1.
         -4   -1    0    0    0  501 -0.00000000000E+00 -0.00000000000E+00 -0.26118191933E+03  0.26118500701E+03  0.12700000000E+01 0.  1.
         25    2    1    2    0    0  0.64365128941E+01  0.44612757970E+02 -0.23494570494E+03  0.26991766015E+03  0.12499732845E+03 0.  0.
    9000005    1    3    3    0    0  0.57465304953E+02 -0.21619466846E+01 -0.67228217557E+02  0.88473547023E+02  0.10000000000E+01 0.  0.
    9000005    1    3    3    0    0 -0.51028792059E+02  0.46774704655E+02 -0.16771748738E+03  0.18144411313E+03  0.10000000000E+01 0.  0.
         -4    1    1    2    0  502 -0.64365128941E+01 -0.44612757970E+02  0.49331821424E+02  0.66835382672E+02  0.12700000000E+01 0. -1.
<mgrwt>
<rscale>  1 0.13287610E+03</rscale>
<asrwt>0</asrwt>
<pdfrwt beam="1">  1       21 0.11625851E-01 0.13287610E+03</pdfrwt>
<pdfrwt beam="2">  1       -4 0.40182893E-01 0.13287610E+03</pdfrwt>
<totfact> 0.15249660E+04</totfact>
</mgrwt>
</event>
<event>
 6    4  0.6277709E-003  0.1271892E+03  0.7818608E-02  0.1231687E+00
          4   -1    0    0  502    0 -0.00000000000E+00  0.00000000000E+00  0.20090033567E+03  0.20090434981E+03  0.12700000000E+01 0.  1.
         21   -1    0    0  501  502  0.00000000000E+00 -0.00000000000E+00 -0.48617345802E+02  0.48617345802E+02  0.00000000000E+00 0.  1.
         25    2    1    2    0    0 -0.14453156556E+01  0.23445569711E+02  0.17531943972E+03  0.21659640750E+03  0.12500125648E+03 0.  0.
    9000005    1    3    3    0    0 -0.56332921898E+02  0.19897906209E+02  0.43953205191E+02  0.74176876502E+02  0.10000000000E+01 0.  0.
    9000005    1    3    3    0    0  0.54887606242E+02  0.35476635016E+01  0.13136623452E+03  0.14241953099E+03  0.10000000000E+01 0.  0.
          4    1    1    2  501    0  0.14453156556E+01 -0.23445569711E+02 -0.23036449844E+02  0.32925288120E+02  0.12700000000E+01 0. -1.
<mgrwt>
<rscale>  1 0.12718922E+03</rscale>
<asrwt>0</asrwt>
<pdfrwt beam="2">  1       21 0.74795918E-02 0.12718922E+03</pdfrwt>
<pdfrwt beam="1">  1        4 0.30909328E-01 0.12718922E+03</pdfrwt>
<totfact> 0.54286005E+04</totfact>
</mgrwt>
</event>
<event>
 6    4  0.6277709E-003  0.1290022E+03  0.7818608E-02  0.1228944E+00
          4   -1    0    0  502    0 -0.00000000000E+00  0.00000000000E+00  0.64012959113E+03  0.64013085095E+03  0.12700000000E+01 0.  1.
         21   -1    0    0  501  502  0.00000000000E+00 -0.00000000000E+00 -0.10477180868E+02  0.10477180868E+02  0.00000000000E+00 0.  1.
         25    2    1    2    0    0  0.29333532078E+02  0.12474938820E+02  0.44916380481E+03  0.46732183539E+03  0.12500197631E+03 0.  0.
    9000005    1    3    3    0    0  0.75365942531E+02  0.94162968753E+01  0.34705762891E+03  0.35527269769E+03  0.10000000000E+01 0.  0.
    9000005    1    3    3    0    0 -0.46032410453E+02  0.30586419445E+01  0.10210617590E+03  0.11204913771E+03  0.10000000000E+01 0.  0.
          4    1    1    2  501    0 -0.29333532078E+02 -0.12474938820E+02  0.18048860545E+03  0.18328619642E+03  0.12700000000E+01 0. -1.
<mgrwt>
<rscale>  1 0.12900223E+03</rscale>
<asrwt>0</asrwt>
<pdfrwt beam="2">  1       21 0.16118745E-02 0.12900223E+03</pdfrwt>
<pdfrwt beam="1">  1        4 0.98487462E-01 0.12900223E+03</pdfrwt>
<totfact> 0.61936718E+04</totfact>
</mgrwt>
</event>
<event>
 6    4  0.6277709E-003  0.1268003E+03  0.7818608E-02  0.1232282E+00
         21   -1    0    0  501  502  0.00000000000E+00  0.00000000000E+00  0.76369036632E+02  0.76369036632E+02  0.00000000000E+00 0. -1.
          4   -1    0    0  502    0 -0.00000000000E+00 -0.00000000000E+00 -0.22301747978E+03  0.22302109583E+03  0.12700000000E+01 0.  1.
         25    2    1    2    0    0  0.95935114976E+01  0.19004204028E+02 -0.20288247213E+03  0.23924801620E+03  0.12500048209E+03 0.  0.
    9000005    1    3    3    0    0  0.34590061062E+02 -0.40762850904E+02 -0.50011980660E+02  0.73213936840E+02  0.10000000000E+01 0.  0.
    9000005    1    3    3    0    0 -0.24996549564E+02  0.59767054932E+02 -0.15287049147E+03  0.16603407936E+03  0.10000000000E+01 0.  0.
          4    1    1    2  501    0 -0.95935114976E+01 -0.19004204028E+02  0.56234028984E+02  0.60142116269E+02  0.12700000000E+01 0. -1.
<mgrwt>
<rscale>  1 0.12680030E+03</rscale>
<asrwt>0</asrwt>
<pdfrwt beam="1">  1       21 0.11749083E-01 0.12680030E+03</pdfrwt>
<pdfrwt beam="2">  1        4 0.34311472E-01 0.12680030E+03</pdfrwt>
<totfact> 0.20251063E+04</totfact>
</mgrwt>
</event>
<event>
 6    4  0.6277709E-003  0.1418241E+03  0.7818608E-02  0.1210895E+00
         21   -1    0    0  501  502  0.00000000000E+00  0.00000000000E+00  0.21298605612E+03  0.21298605612E+03  0.00000000000E+00 0.  1.
         -4   -1    0    0    0  501 -0.00000000000E+00 -0.00000000000E+00 -0.87013049901E+02  0.87022317557E+02  0.12700000000E+01 0. -1.
         25    2    1    2    0    0 -0.34924498466E+02 -0.57177975638E+02 -0.16285954492E+02  0.14275613587E+03  0.12500016210E+03 0.  0.
    9000005    1    3    3    0    0 -0.44274561530E+02 -0.92912182864E+02 -0.22311827478E+02  0.10531727384E+03  0.10000000000E+01 0.  0.
    9000005    1    3    3    0    0  0.93500630634E+01  0.35734207226E+02  0.60258729858E+01  0.37438862037E+02  0.10000000000E+01 0.  0.
         -4    1    1    2    0  502  0.34924498466E+02  0.57177975638E+02  0.14225896071E+03  0.15725223780E+03  0.12700000000E+01 0.  1.
<mgrwt>
<rscale>  1 0.14182412E+03</rscale>
<asrwt>0</asrwt>
<pdfrwt beam="1">  1       21 0.32767085E-01 0.14182412E+03</pdfrwt>
<pdfrwt beam="2">  1       -4 0.13387627E-01 0.14182412E+03</pdfrwt>
<totfact> 0.16939606E+04</totfact>
</mgrwt>
</event>
<event>
 6    4  0.6277709E-003  0.1315093E+03  0.7818608E-02  0.1225233E+00
         21   -1    0    0  501  502  0.00000000000E+00  0.00000000000E+00  0.34486877468E+02  0.34486877468E+02  0.00000000000E+00 0.  1.
         -4   -1    0    0    0  501 -0.00000000000E+00 -0.00000000000E+00 -0.60271185861E+03  0.60271319665E+03  0.12700000000E+01 0. -1.
         25    2    1    2    0    0 -0.31250960215E+02  0.26340852743E+02 -0.57994010849E+03  0.59466397008E+03  0.12499697935E+03 0.  0.
    9000005    1    3    3    0    0 -0.31248610753E+02  0.72990858057E+02 -0.44117527863E+03  0.44826417156E+03  0.10000000000E+01 0.  0.
    9000005    1    3    3    0    0 -0.23494619055E-02 -0.46650005314E+02 -0.13876482986E+03  0.14639979852E+03  0.10000000000E+01 0.  0.
         -4    1    1    2    0  502  0.31250960215E+02 -0.26340852743E+02  0.11715127341E+02  0.42536104032E+02  0.12700000000E+01 0.  1.
<mgrwt>
<rscale>  1 0.13150935E+03</rscale>
<asrwt>0</asrwt>
<pdfrwt beam="1">  1       21 0.53056738E-02 0.13150935E+03</pdfrwt>
<pdfrwt beam="2">  1       -4 0.92726797E-01 0.13150935E+03</pdfrwt>
<totfact> 0.10096074E+04</totfact>
</mgrwt>
</event>
<event>
 6    4  0.6277709E-003  0.1304219E+03  0.7818608E-02  0.1226831E+00
          4   -1    0    0  502    0 -0.00000000000E+00  0.00000000000E+00  0.92907555917E+02  0.92916235646E+02  0.12700000000E+01 0.  1.
         21   -1    0    0  501  502  0.00000000000E+00 -0.00000000000E+00 -0.81615276234E+02  0.81615276234E+02  0.00000000000E+00 0. -1.
         25    2    1    2    0    0 -0.29109742355E+02  0.23173627899E+02  0.28529047039E+02  0.13350574950E+03  0.12500193796E+03 0.  0.
    9000005    1    3    3    0    0 -0.36452746142E+02  0.23752747535E+02 -0.43242254495E+02  0.61350536188E+02  0.10000000000E+01 0.  0.
    9000005    1    3    3    0    0  0.73430037867E+01 -0.57911963642E+00  0.71771301534E+02  0.72155213312E+02  0.10000000000E+01 0.  0.
          4    1    1    2  501    0  0.29109742355E+02 -0.23173627899E+02 -0.17236767356E+02  0.41025762380E+02  0.12700000000E+01 0. -1.
<mgrwt>
<rscale>  1 0.13042193E+03</rscale>
<asrwt>0</asrwt>
<pdfrwt beam="2">  1       21 0.12556196E-01 0.13042193E+03</pdfrwt>
<pdfrwt beam="1">  1        4 0.14294898E-01 0.13042193E+03</pdfrwt>
<totfact> 0.89014271E+04</totfact>
</mgrwt>
</event>
<event>
 6    4  0.6277709E-003  0.1472247E+03  0.7818608E-02  0.1203925E+00
          4   -1    0    0  502    0 -0.00000000000E+00  0.00000000000E+00  0.42614389316E+03  0.42614578559E+03  0.12700000000E+01 0. -1.
         21   -1    0    0  501  502  0.00000000000E+00 -0.00000000000E+00 -0.37308993568E+02  0.37308993568E+02  0.00000000000E+00 0.  1.
         25    2    1    2    0    0 -0.60055054982E+02 -0.49437790780E+02  0.34275254968E+03  0.37303409204E+03  0.12499767487E+03 0.  0.
    9000005    1    3    3    0    0 -0.21091574250E+02 -0.56873631893E+02  0.52939734918E+02  0.80517575983E+02  0.10000000000E+01 0.  0.
    9000005    1    3    3    0    0 -0.38963480732E+02  0.74358411126E+01  0.28981281476E+03  0.29251651605E+03  0.10000000000E+01 0.  0.
          4    1    1    2  501    0  0.60055054982E+02  0.49437790780E+02  0.46082349909E+02  0.90420687120E+02  0.12700000000E+01 0.  1.
<mgrwt>
<rscale>  1 0.14722474E+03</rscale>
<asrwt>0</asrwt>
<pdfrwt beam="2">  1       21 0.57398454E-02 0.14722474E+03</pdfrwt>
<pdfrwt beam="1">  1        4 0.65562404E-01 0.14722474E+03</pdfrwt>
<totfact> 0.19169442E+04</totfact>
</mgrwt>
</event>
<event>
 6    4  0.6277709E-003  0.1714969E+03  0.7818608E-02  0.1176296E+00
          4   -1    0    0  502    0 -0.00000000000E+00  0.00000000000E+00  0.47993831696E+02  0.48010631956E+02  0.12700000000E+01 0.  1.
         21   -1    0    0  501  502  0.00000000000E+00 -0.00000000000E+00 -0.65396339929E+03  0.65396339929E+03  0.00000000000E+00 0. -1.
         25    2    1    2    0    0  0.56463662543E+02  0.10294663300E+03 -0.13984361550E+03  0.22128580531E+03  0.12500006561E+03 0.  0.
    9000005    1    3    3    0    0  0.48400832821E+02  0.12408559959E+03 -0.14618832189E+03  0.19776729280E+03  0.10000000000E+01 0.  0.
    9000005    1    3    3    0    0  0.80628297221E+01 -0.21138966585E+02  0.63447063987E+01  0.23518512510E+02  0.10000000000E+01 0.  0.
          4    1    1    2  501    0 -0.56463662543E+02 -0.10294663300E+03 -0.46612595210E+03  0.48068822594E+03  0.12700000000E+01 0. -1.
<mgrwt>
<rscale>  1 0.17149685E+03</rscale>
<asrwt>0</asrwt>
<pdfrwt beam="2">  1       21 0.10060975E+00 0.17149685E+03</pdfrwt>
<pdfrwt beam="1">  1        4 0.73850539E-02 0.17149685E+03</pdfrwt>
<totfact> 0.42830886E+03</totfact>
</mgrwt>
</event>
<event>
 6    4  0.6277709E-003  0.1623569E+03  0.7818608E-02  0.1186061E+00
         21   -1    0    0  501  502  0.00000000000E+00  0.00000000000E+00  0.70121085081E+02  0.70121085081E+02  0.00000000000E+00 0. -1.
         -4   -1    0    0    0  501 -0.00000000000E+00 -0.00000000000E+00 -0.32122680891E+03  0.32122931943E+03  0.12700000000E+01 0.  1.
         25    2    1    2    0    0  0.98311545517E+02 -0.32711796414E+02 -0.23626819560E+03  0.28667477817E+03  0.12499818630E+03 0.  0.
    9000005    1    3    3    0    0  0.94493902074E+02 -0.52528826184E+02 -0.94866960440E+02  0.14383711375E+03  0.10000000000E+01 0.  0.
    9000005    1    3    3    0    0  0.38176434424E+01  0.19817029769E+02 -0.14140123516E+03  0.14283766442E+03  0.10000000000E+01 0.  0.
         -4    1    1    2    0  502 -0.98311545517E+02  0.32711796414E+02 -0.14837528225E+02  0.10467562634E+03  0.12700000000E+01 0. -1.
<mgrwt>
<rscale>  1 0.16235692E+03</rscale>
<asrwt>0</asrwt>
<pdfrwt beam="1">  1       21 0.10787859E-01 0.16235692E+03</pdfrwt>
<pdfrwt beam="2">  1       -4 0.49420587E-01 0.16235692E+03</pdfrwt>
<totfact> 0.11705086E+04</totfact>
</mgrwt>
</event>
<event>
 6    4  0.6277709E-003  0.1295539E+03  0.7818608E-02  0.1228119E+00
         -4   -1    0    0    0  501 -0.00000000000E+00  0.00000000000E+00  0.22788178725E+02  0.22823540251E+02  0.12700000000E+01 0.  1.
         21   -1    0    0  501  502  0.00000000000E+00 -0.00000000000E+00 -0.29338819106E+03  0.29338819106E+03  0.00000000000E+00 0. -1.
         25    2    1    2    0    0 -0.33191148637E+02 -0.74703921006E+01 -0.21356166687E+03  0.24978549509E+03  0.12500699537E+03 0.  0.
    9000005    1    3    3    0    0 -0.81080808692E+02 -0.70160508627E+01 -0.14199074129E+03  0.16366335302E+03  0.10000000000E+01 0.  0.
    9000005    1    3    3    0    0  0.47889660056E+02 -0.45434123787E+00 -0.71570925581E+02  0.86122142070E+02  0.10000000000E+01 0.  0.
         -4    1    1    2    0  502  0.33191148637E+02  0.74703921006E+01 -0.57038345461E+02  0.66426236224E+02  0.12700000000E+01 0. -1.
<mgrwt>
<rscale>  1 0.12955388E+03</rscale>
<asrwt>0</asrwt>
<pdfrwt beam="2">  1       21 0.45136642E-01 0.12955388E+03</pdfrwt>
<pdfrwt beam="1">  1       -4 0.35088054E-02 0.12955388E+03</pdfrwt>
<totfact> 0.80102514E+04</totfact>
</mgrwt>
</event>
<event>
 6    4  0.6277709E-003  0.1356049E+03  0.7818608E-02  0.1219368E+00
         21   -1    0    0  501  502  0.00000000000E+00  0.00000000000E+00  0.30718434623E+03  0.30718434623E+03  0.00000000000E+00 0.  1.
         -4   -1    0    0    0  501 -0.00000000000E+00 -0.00000000000E+00 -0.64969543188E+02  0.64981954741E+02  0.12700000000E+01 0. -1.
         25    2    1    2    0    0  0.52545607272E+02  0.17449103963E+01  0.12128334573E+02  0.13614621405E+03  0.12499843817E+03 0.  0.
    9000005    1    3    3    0    0  0.53201364271E+02 -0.30582347868E+02  0.55018743190E+02  0.82424069686E+02  0.10000000000E+01 0.  0.
    9000005    1    3    3    0    0 -0.65575699914E+00  0.32327258265E+02 -0.42890408617E+02  0.53722144368E+02  0.10000000000E+01 0.  0.
         -4    1    1    2    0  502 -0.52545607272E+02 -0.17449103963E+01  0.23008646847E+03  0.23602008692E+03  0.12700000000E+01 0.  1.
<mgrwt>
<rscale>  1 0.13560492E+03</rscale>
<asrwt>0</asrwt>
<pdfrwt beam="1">  1       21 0.47259129E-01 0.13560492E+03</pdfrwt>
<pdfrwt beam="2">  1       -4 0.99964712E-02 0.13560492E+03</pdfrwt>
<totfact> 0.13358571E+04</totfact>
</mgrwt>
</event>
<event>
 6    4  0.6277709E-003  0.1380624E+03  0.7818608E-02  0.1215960E+00
          4   -1    0    0  502    0 -0.00000000000E+00  0.00000000000E+00  0.17070655973E+02  0.17117832671E+02  0.12700000000E+01 0.  1.
         21   -1    0    0  501  502  0.00000000000E+00 -0.00000000000E+00 -0.89199435284E+03  0.89199435284E+03  0.00000000000E+00 0. -1.
         25    2    1    2    0    0 -0.17440342975E+02  0.56034004814E+02 -0.28931385628E+03  0.32056781713E+03  0.12496896689E+03 0.  0.
    9000005    1    3    3    0    0 -0.49991699364E+02  0.28429783263E+02 -0.26554956657E+03  0.27170755398E+03  0.10000000000E+01 0.  0.
    9000005    1    3    3    0    0  0.32551356389E+02  0.27604221552E+02 -0.23764289711E+02  0.48860263156E+02  0.10000000000E+01 0.  0.
          4    1    1    2  501    0  0.17440342975E+02 -0.56034004814E+02 -0.58560984059E+03  0.58854436838E+03  0.12700000000E+01 0. -1.
<mgrwt>
<rscale>  1 0.13806237E+03</rscale>
<asrwt>0</asrwt>
<pdfrwt beam="2">  1       21 0.13722992E+00 0.13806237E+03</pdfrwt>
<pdfrwt beam="1">  1        4 0.26299529E-02 0.13806237E+03</pdfrwt>
<totfact> 0.10404777E+04</totfact>
</mgrwt>
</event>
<event>
 6    4  0.6277709E-003  0.1285770E+03  0.7818608E-02  0.1229583E+00
          4   -1    0    0  502    0 -0.00000000000E+00  0.00000000000E+00  0.58003100118E+02  0.58017002019E+02  0.12700000000E+01 0. -1.
         21   -1    0    0  501  502  0.00000000000E+00 -0.00000000000E+00 -0.11306171875E+03  0.11306171875E+03  0.00000000000E+00 0. -1.
         25    2    1    2    0    0  0.20667686854E+02  0.21953915103E+02 -0.30436789219E+02  0.13213035685E+03  0.12499162130E+03 0.  0.
    9000005    1    3    3    0    0 -0.50431937888E+02  0.20306799222E+02 -0.27523538603E+02  0.60944988563E+02  0.10000000000E+01 0.  0.
    9000005    1    3    3    0    0  0.71099624742E+02  0.16471158813E+01 -0.29132506159E+01  0.71185368288E+02  0.10000000000E+01 0.  0.
          4    1    1    2  501    0 -0.20667686854E+02 -0.21953915103E+02 -0.24621829413E+02  0.38948363918E+02  0.12700000000E+01 0.  1.
<mgrwt>
<rscale>  1 0.12857695E+03</rscale>
<asrwt>0</asrwt>
<pdfrwt beam="2">  1       21 0.17394111E-01 0.12857695E+03</pdfrwt>
<pdfrwt beam="1">  1        4 0.89251719E-02 0.12857695E+03</pdfrwt>
<totfact> 0.11005298E+05</totfact>
</mgrwt>
</event>
<event>
 6    4  0.6277709E-003  0.1305274E+03  0.7818608E-02  0.1226675E+00
         21   -1    0    0  501  502  0.00000000000E+00  0.00000000000E+00  0.12708695734E+02  0.12708695734E+02  0.00000000000E+00 0.  1.
         -4   -1    0    0    0  501 -0.00000000000E+00 -0.00000000000E+00 -0.89274199716E+03  0.89274290050E+03  0.12700000000E+01 0. -1.
         25    2    1    2    0    0  0.30478724337E+02  0.21985371267E+02 -0.84167783648E+03  0.85173880653E+03  0.12500041973E+03 0.  0.
    9000005    1    3    3    0    0  0.41293017116E+02  0.41021660280E+02 -0.16976789478E+03  0.17947152412E+03  0.10000000000E+01 0.  0.
    9000005    1    3    3    0    0 -0.10814292779E+02 -0.19036289013E+02 -0.67190994171E+03  0.67226728241E+03  0.10000000000E+01 0.  0.
         -4    1    1    2    0  502 -0.30478724337E+02 -0.21985371267E+02 -0.38355464945E+02  0.53712789706E+02  0.12700000000E+01 0.  1.
<mgrwt>
<rscale>  1 0.13052745E+03</rscale>
<asrwt>0</asrwt>
<pdfrwt beam="1">  1       21 0.19551837E-02 0.13052745E+03</pdfrwt>
<pdfrwt beam="2">  1       -4 0.13734989E+00 0.13052745E+03</pdfrwt>
<totfact> 0.20570223E+04</totfact>
</mgrwt>
</event>
<event>
 6    4  0.6277709E-003  0.1266306E+03  0.7818608E-02  0.1232543E+00
          4   -1    0    0  502    0 -0.00000000000E+00  0.00000000000E+00  0.40570643432E+02  0.40590516238E+02  0.12700000000E+01 0. -1.
         21   -1    0    0  501  502  0.00000000000E+00 -0.00000000000E+00 -0.13817598526E+03  0.13817598526E+03  0.00000000000E+00 0. -1.
         25    2    1    2    0    0 -0.47543188967E+00 -0.20254005932E+02 -0.70596924439E+02  0.14498013884E+03  0.12499945650E+03 0.  0.
    9000005    1    3    3    0    0 -0.21634298096E+02  0.49312756437E+02 -0.32085212017E+02  0.62691719004E+02  0.10000000000E+01 0.  0.
    9000005    1    3    3    0    0  0.21158866206E+02 -0.69566762369E+02 -0.38511712422E+02  0.82288419837E+02  0.10000000000E+01 0.  0.
          4    1    1    2  501    0  0.47543188967E+00  0.20254005932E+02 -0.27008417392E+02  0.33786362660E+02  0.12700000000E+01 0.  1.
<mgrwt>
<rscale>  1 0.12663062E+03</rscale>
<asrwt>0</asrwt>
<pdfrwt beam="2">  1       21 0.21257844E-01 0.12663062E+03</pdfrwt>
<pdfrwt beam="1">  1        4 0.62436151E-02 0.12663062E+03</pdfrwt>
<totfact> 0.13670711E+05</totfact>
</mgrwt>
</event>
<event>
 6    4  0.6277709E-003  0.1277089E+03  0.7818608E-02  0.1230895E+00
         21   -1    0    0  501  502  0.00000000000E+00  0.00000000000E+00  0.42292176760E+03  0.42292176760E+03  0.00000000000E+00 0.  1.
         -4   -1    0    0    0  501 -0.00000000000E+00 -0.00000000000E+00 -0.76957934705E+02  0.76968413093E+02  0.12700000000E+01 0. -1.
         25    2    1    2    0    0 -0.11162875835E+02 -0.23655100983E+02 -0.23199652020E+02  0.12979902288E+03  0.12500155554E+03 0.  0.
    9000005    1    3    3    0    0 -0.15232116339E+02  0.47497855980E+02 -0.29972866605E+02  0.58201687461E+02  0.10000000000E+01 0.  0.
    9000005    1    3    3    0    0  0.40692405039E+01 -0.71152956962E+02  0.67732145847E+01  0.71597335415E+02  0.10000000000E+01 0.  0.
         -4    1    1    2    0  502  0.11162875835E+02  0.23655100983E+02  0.36916348492E+03  0.37009115782E+03  0.12700000000E+01 0.  1.
<mgrwt>
<rscale>  1 0.12770890E+03</rscale>
<asrwt>0</asrwt>
<pdfrwt beam="1">  1       21 0.65064886E-01 0.12770890E+03</pdfrwt>
<pdfrwt beam="2">  1       -4 0.11840635E-01 0.12770890E+03</pdfrwt>
<totfact> 0.51039220E+03</totfact>
</mgrwt>
</event>
<event>
 6    4  0.6277709E-003  0.1276051E+03  0.7818608E-02  0.1231053E+00
          4   -1    0    0  502    0 -0.00000000000E+00  0.00000000000E+00  0.77249089091E+02  0.77259527991E+02  0.12700000000E+01 0. -1.
         21   -1    0    0  501  502  0.00000000000E+00 -0.00000000000E+00 -0.99333630909E+02  0.99333630909E+02  0.00000000000E+00 0. -1.
         25    2    1    2    0    0 -0.21602545327E+02  0.13845872934E+02  0.18116265972E+02  0.12888471092E+03  0.12499876581E+03 0.  0.
    9000005    1    3    3    0    0  0.16373025579E+02  0.36394100839E+01  0.65316023976E+02  0.67442599746E+02  0.10000000000E+01 0.  0.
    9000005    1    3    3    0    0 -0.37975570906E+02  0.10206462850E+02 -0.47199758004E+02  0.61442111171E+02  0.10000000000E+01 0.  0.
          4    1    1    2  501    0  0.21602545327E+02 -0.13845872934E+02 -0.40200807790E+02  0.47708447983E+02  0.12700000000E+01 0.  1.
<mgrwt>
<rscale>  1 0.12760513E+03</rscale>
<asrwt>0</asrwt>
<pdfrwt beam="2">  1       21 0.15282097E-01 0.12760513E+03</pdfrwt>
<pdfrwt beam="1">  1        4 0.11885903E-01 0.12760513E+03</pdfrwt>
<totfact> 0.85757178E+04</totfact>
</mgrwt>
</event>
<event>
 6    4  0.6277709E-003  0.1269486E+03  0.7818608E-02  0.1232055E+00
         21   -1    0    0  501  502  0.00000000000E+00  0.00000000000E+00  0.26033495975E+03  0.26033495975E+03  0.00000000000E+00 0. -1.
          4   -1    0    0  502    0 -0.00000000000E+00 -0.00000000000E+00 -0.13099492191E+03  0.13100107811E+03  0.12700000000E+01 0.  1.
         25    2    1    2    0    0 -0.21692304310E+02 -0.45240565462E+01 -0.99578613608E+02  0.16134389661E+03  0.12499971812E+03 0.  0.
    9000005    1    3    3    0    0  0.13238877018E+02 -0.35864116385E+02  0.12173640133E+02  0.40133529907E+02  0.10000000000E+01 0.  0.
    9000005    1    3    3    0    0 -0.34931181328E+02  0.31340059838E+02 -0.11175225374E+03  0.12121036670E+03  0.10000000000E+01 0.  0.
          4    1    1    2  501    0  0.21692304310E+02  0.45240565462E+01  0.22891865145E+03  0.22999214125E+03  0.12700000000E+01 0. -1.
<mgrwt>
<rscale>  1 0.12694862E+03</rscale>
<asrwt>0</asrwt>
<pdfrwt beam="1">  1       21 0.40051532E-01 0.12694862E+03</pdfrwt>
<pdfrwt beam="2">  1        4 0.20153777E-01 0.12694862E+03</pdfrwt>
<totfact> 0.54956119E+03</totfact>
</mgrwt>
</event>
<event>
 6    4  0.6277709E-003  0.1298390E+03  0.7818608E-02  0.1227695E+00
         21   -1    0    0  501  502  0.00000000000E+00  0.00000000000E+00  0.16292160427E+03  0.16292160427E+03  0.00000000000E+00 0.  1.
          4   -1    0    0  502    0 -0.00000000000E+00 -0.00000000000E+00 -0.46985517576E+02  0.47002678242E+02  0.12700000000E+01 0. -1.
         25    2    1    2    0    0 -0.30843053544E+02 -0.16739254189E+02  0.58062068713E+02  0.14223003283E+03  0.12500672715E+03 0.  0.
    9000005    1    3    3    0    0 -0.51602968805E+02 -0.55722116834E+02  0.61766700042E+02  0.97897629839E+02  0.10000000000E+01 0.  0.
    9000005    1    3    3    0    0  0.20759915261E+02  0.38982862645E+02 -0.37046313292E+01  0.44332402991E+02  0.10000000000E+01 0.  0.
          4    1    1    2  501    0  0.30843053544E+02  0.16739254189E+02  0.57874017981E+02  0.67694249682E+02  0.12700000000E+01 0.  1.
<mgrwt>
<rscale>  1 0.12983905E+03</rscale>
<asrwt>0</asrwt>
<pdfrwt beam="1">  1       21 0.25064862E-01 0.12983905E+03</pdfrwt>
<pdfrwt beam="2">  1        4 0.72302420E-02 0.12983905E+03</pdfrwt>
<totfact> 0.79245824E+04</totfact>
</mgrwt>
</event>
<event>
 6    4  0.6277709E-003  0.1273562E+03  0.7818608E-02  0.1231432E+00
          4   -1    0    0  502    0 -0.00000000000E+00  0.00000000000E+00  0.40468814816E+02  0.40488737602E+02  0.12700000000E+01 0.  1.
         21   -1    0    0  501  502  0.00000000000E+00 -0.00000000000E+00 -0.15306564954E+03  0.15306564954E+03  0.00000000000E+00 0.  1.
         25    2    1    2    0    0  0.15694660502E+02  0.18633150761E+02 -0.11127975818E+03  0.16912358146E+03  0.12500433813E+03 0.  0.
    9000005    1    3    3    0    0  0.16911669712E+02 -0.97393307163E+01 -0.13232673742E+03  0.13376182031E+03  0.10000000000E+01 0.  0.
    9000005    1    3    3    0    0 -0.12170092098E+01  0.28372481477E+02  0.21046979245E+02  0.35361761155E+02  0.10000000000E+01 0.  0.
          4    1    1    2  501    0 -0.15694660502E+02 -0.18633150761E+02 -0.13170765477E+01  0.24430805681E+02  0.12700000000E+01 0. -1.
<mgrwt>
<rscale>  1 0.12735620E+03</rscale>
<asrwt>0</asrwt>
<pdfrwt beam="2">  1       21 0.23548561E-01 0.12735620E+03</pdfrwt>
<pdfrwt beam="1">  1        4 0.62279093E-02 0.12735620E+03</pdfrwt>
<totfact> 0.11347311E+05</totfact>
</mgrwt>
</event>
<event>
 6    4  0.6277709E-003  0.1275126E+03  0.7818608E-02  0.1231194E+00
         21   -1    0    0  501  502  0.00000000000E+00  0.00000000000E+00  0.19828534179E+03  0.19828534179E+03  0.00000000000E+00 0.  1.
          4   -1    0    0  502    0 -0.00000000000E+00 -0.00000000000E+00 -0.57469594441E+02  0.57483625366E+02  0.12700000000E+01 0. -1.
         25    2    1    2    0    0 -0.25168406238E+02  0.62540280630E+00  0.16092857218E+02  0.12852411648E+03  0.12500251462E+03 0.  0.
    9000005    1    3    3    0    0 -0.23882465676E+01 -0.58844313154E+02  0.25421960672E+02  0.64153199426E+02  0.10000000000E+01 0.  0.
    9000005    1    3    3    0    0 -0.22780159670E+02  0.59469715960E+02 -0.93291034535E+01  0.64370917053E+02  0.10000000000E+01 0.  0.
          4    1    1    2  501    0  0.25168406238E+02 -0.62540280630E+00  0.12472289013E+03  0.12724485067E+03  0.12700000000E+01 0.  1.
<mgrwt>
<rscale>  1 0.12751262E+03</rscale>
<asrwt>0</asrwt>
<pdfrwt beam="1">  1       21 0.30505437E-01 0.12751262E+03</pdfrwt>
<pdfrwt beam="2">  1        4 0.88428683E-02 0.12751262E+03</pdfrwt>
<totfact> 0.38931776E+04</totfact>
</mgrwt>
</event>
<event>
 6    4  0.6277709E-003  0.1314363E+03  0.7818608E-02  0.1225340E+00
         -4   -1    0    0    0  501 -0.00000000000E+00  0.00000000000E+00  0.33830814321E+03  0.33831052698E+03  0.12700000000E+01 0. -1.
         21   -1    0    0  501  502  0.00000000000E+00 -0.00000000000E+00 -0.23479841456E+02  0.23479841456E+02  0.00000000000E+00 0. -1.
         25    2    1    2    0    0  0.30258545769E+02 -0.27123236874E+02  0.19422008316E+03  0.23451427145E+03  0.12499701292E+03 0.  0.
    9000005    1    3    3    0    0  0.50830798289E+02 -0.51263976042E+02  0.52459927952E+02  0.89245780488E+02  0.10000000000E+01 0.  0.
    9000005    1    3    3    0    0 -0.20572252519E+02  0.24140739168E+02  0.14176015521E+03  0.14526849096E+03  0.10000000000E+01 0.  0.
         -4    1    1    2    0  502 -0.30258545769E+02  0.27123236874E+02  0.12060821860E+03  0.12727609699E+03  0.12700000000E+01 0.  1.
<mgrwt>
<rscale>  1 0.13143631E+03</rscale>
<asrwt>0</asrwt>
<pdfrwt beam="2">  1       21 0.36122836E-02 0.13143631E+03</pdfrwt>
<pdfrwt beam="1">  1       -4 0.52050228E-01 0.13143631E+03</pdfrwt>
<totfact> 0.66585416E+04</totfact>
</mgrwt>
</event>
<event>
 6    4  0.6277709E-003  0.1348050E+03  0.7818608E-02  0.1220495E+00
         -4   -1    0    0    0  501 -0.00000000000E+00  0.00000000000E+00  0.26081232965E+02  0.26112135359E+02  0.12700000000E+01 0.  1.
         21   -1    0    0  501  502  0.00000000000E+00 -0.00000000000E+00 -0.33997673450E+03  0.33997673450E+03  0.00000000000E+00 0.  1.
         25    2    1    2    0    0 -0.26078058957E+02 -0.43209924407E+02 -0.19647015540E+03  0.23827068828E+03  0.12500094482E+03 0.  0.
    9000005    1    3    3    0    0 -0.73510716878E+02 -0.11279624007E+02 -0.84710901280E+02  0.11272973081E+03  0.10000000000E+01 0.  0.
    9000005    1    3    3    0    0  0.47432657921E+02 -0.31930300401E+02 -0.11175925412E+03  0.12554095747E+03  0.10000000000E+01 0.  0.
         -4    1    1    2    0  502  0.26078058957E+02  0.43209924407E+02 -0.11742534614E+03  0.12781818158E+03  0.12700000000E+01 0. -1.
<mgrwt>
<rscale>  1 0.13480504E+03</rscale>
<asrwt>0</asrwt>
<pdfrwt beam="2">  1       21 0.52304110E-01 0.13480504E+03</pdfrwt>
<pdfrwt beam="1">  1       -4 0.40150572E-02 0.13480504E+03</pdfrwt>
<totfact> 0.48016645E+04</totfact>
</mgrwt>
</event>
<event>
 6    4  0.6277709E-003  0.1514745E+03  0.7818608E-02  0.1198673E+00
         21   -1    0    0  501  502  0.00000000000E+00  0.00000000000E+00  0.15373236538E+03  0.15373236538E+03  0.00000000000E+00 0. -1.
          4   -1    0    0  502    0 -0.00000000000E+00 -0.00000000000E+00 -0.48845441868E+03  0.48845606970E+03  0.12700000000E+01 0.  1.
         25    2    1    2    0    0  0.49701239520E+02 -0.69619370723E+02 -0.46347795885E+03  0.48760264628E+03  0.12500980893E+03 0.  0.
    9000005    1    3    3    0    0  0.44372589625E+01 -0.90641721760E+02 -0.37682710267E+03  0.38760195601E+03  0.10000000000E+01 0.  0.
    9000005    1    3    3    0    0  0.45263980557E+02  0.21022351037E+02 -0.86650856173E+02  0.10000069027E+03  0.10000000000E+01 0.  0.
          4    1    1    2  501    0 -0.49701239520E+02  0.69619370723E+02  0.12875590554E+03  0.15458578881E+03  0.12700000000E+01 0. -1.
<mgrwt>
<rscale>  1 0.15147449E+03</rscale>
<asrwt>0</asrwt>
<pdfrwt beam="1">  1       21 0.23651133E-01 0.15147449E+03</pdfrwt>
<pdfrwt beam="2">  1        4 0.75147365E-01 0.15147449E+03</pdfrwt>
<totfact> 0.11492826E+03</totfact>
</mgrwt>
</event>
<event>
 6    4  0.6277709E-003  0.1270194E+03  0.7818608E-02  0.1231947E+00
         -4   -1    0    0    0  501 -0.00000000000E+00  0.00000000000E+00  0.91866452002E+01  0.92740147743E+01  0.12700000000E+01 0.  1.
         21   -1    0    0  501  502  0.00000000000E+00 -0.00000000000E+00 -0.63432490436E+03  0.63432490436E+03  0.00000000000E+00 0. -1.
         25    2    1    2    0    0 -0.22488858876E+02 -0.24487697716E+01 -0.47194473385E+03  0.48873893610E+03  0.12498868193E+03 0.  0.
    9000005    1    3    3    0    0  0.33633998410E+02  0.16148062873E+02 -0.48566441234E+02  0.61251163236E+02  0.10000000000E+01 0.  0.
    9000005    1    3    3    0    0 -0.56122857286E+02 -0.18596832645E+02 -0.42337829261E+03  0.42748777287E+03  0.10000000000E+01 0.  0.
         -4    1    1    2    0  502  0.22488858876E+02  0.24487697716E+01 -0.15319352531E+03  0.15485998303E+03  0.12700000000E+01 0. -1.
<mgrwt>
<rscale>  1 0.12701935E+03</rscale>
<asrwt>0</asrwt>
<pdfrwt beam="2">  1       21 0.97588467E-01 0.12701935E+03</pdfrwt>
<pdfrwt beam="1">  1       -4 0.14201483E-02 0.12701935E+03</pdfrwt>
<totfact> 0.60928252E+04</totfact>
</mgrwt>
</event>
<event>
 6    4  0.6277709E-003  0.2952145E+03  0.7818608E-02  0.1087658E+00
         -4   -1    0    0    0  501 -0.00000000000E+00  0.00000000000E+00  0.15227766119E+03  0.15228295702E+03  0.12700000000E+01 0. -1.
         21   -1    0    0  501  502  0.00000000000E+00 -0.00000000000E+00 -0.54262239291E+03  0.54262239291E+03  0.00000000000E+00 0.  1.
         25    2    1    2    0    0 -0.26642564211E+03  0.23326335421E+02 -0.13313729084E+03  0.32384737435E+03  0.12499937186E+03 0.  0.
    9000005    1    3    3    0    0 -0.27488480689E+03  0.16110828921E+02 -0.10698403344E+03  0.29541123756E+03  0.10000000000E+01 0.  0.
    9000005    1    3    3    0    0  0.84591647807E+01  0.72155065003E+01 -0.26153257403E+02  0.28436136792E+02  0.10000000000E+01 0.  0.
         -4    1    1    2    0  502  0.26642564211E+03 -0.23326335421E+02 -0.25720744088E+03  0.37105797558E+03  0.12700000000E+01 0.  1.
<mgrwt>
<rscale>  1 0.29521447E+03</rscale>
<asrwt>0</asrwt>
<pdfrwt beam="2">  1       21 0.83480368E-01 0.29521447E+03</pdfrwt>
<pdfrwt beam="1">  1       -4 0.23427854E-01 0.29521447E+03</pdfrwt>
<totfact> 0.88156157E+02</totfact>
</mgrwt>
</event>
<event>
 6    4  0.6277709E-003  0.1320831E+03  0.7818608E-02  0.1224397E+00
          4   -1    0    0  502    0 -0.00000000000E+00  0.00000000000E+00  0.57185567960E+03  0.57185708983E+03  0.12700000000E+01 0. -1.
         21   -1    0    0  501  502  0.00000000000E+00 -0.00000000000E+00 -0.13346739895E+02  0.13346739895E+02  0.00000000000E+00 0. -1.
         25    2    1    2    0    0 -0.41989127890E+02 -0.73528860616E+01  0.42098392454E+03  0.44121808567E+03  0.12501512953E+03 0.  0.
    9000005    1    3    3    0    0 -0.52656115268E+02 -0.54577848148E+02  0.17848155079E+03  0.19392800715E+03  0.10000000000E+01 0.  0.
    9000005    1    3    3    0    0  0.10666987378E+02  0.47224962086E+02  0.24250237375E+03  0.24729007852E+03  0.10000000000E+01 0.  0.
          4    1    1    2  501    0  0.41989127890E+02  0.73528860616E+01  0.13752501517E+03  0.14398574405E+03  0.12700000000E+01 0.  1.
<mgrwt>
<rscale>  1 0.13208306E+03</rscale>
<asrwt>0</asrwt>
<pdfrwt beam="2">  1       21 0.20533450E-02 0.13208306E+03</pdfrwt>
<pdfrwt beam="1">  1        4 0.87982534E-01 0.13208306E+03</pdfrwt>
<totfact> 0.54404454E+04</totfact>
</mgrwt>
</event>
<event>
 6    4  0.6277709E-003  0.1406932E+03  0.7818608E-02  0.1212399E+00
         21   -1    0    0  501  502  0.00000000000E+00  0.00000000000E+00  0.17922838221E+02  0.17922838221E+02  0.00000000000E+00 0.  1.
          4   -1    0    0  502    0 -0.00000000000E+00 -0.00000000000E+00 -0.97488344703E+03  0.97488427426E+03  0.12700000000E+01 0. -1.
         25    2    1    2    0    0  0.27030609284E+02 -0.58639566943E+02 -0.88500937342E+03  0.89612285407E+03  0.12500130360E+03 0.  0.
    9000005    1    3    3    0    0 -0.30547301969E+01 -0.10043883736E+02 -0.74251764380E+03  0.74259252779E+03  0.10000000000E+01 0.  0.
    9000005    1    3    3    0    0  0.30085339481E+02 -0.48595683206E+02 -0.14249172962E+03  0.15353032628E+03  0.10000000000E+01 0.  0.
          4    1    1    2  501    0 -0.27030609284E+02  0.58639566943E+02 -0.71951235395E+02  0.96684258411E+02  0.12700000000E+01 0.  1.
<mgrwt>
<rscale>  1 0.14069321E+03</rscale>
<asrwt>0</asrwt>
<pdfrwt beam="1">  1       21 0.27573583E-02 0.14069321E+03</pdfrwt>
<pdfrwt beam="2">  1        4 0.14998567E+00 0.14069321E+03</pdfrwt>
<totfact> 0.94950762E+03</totfact>
</mgrwt>
</event>
<event>
 6    4  0.6277709E-003  0.1271117E+03  0.7818608E-02  0.1231805E+00
         21   -1    0    0  501  502  0.00000000000E+00  0.00000000000E+00  0.20969979928E+02  0.20969979928E+02  0.00000000000E+00 0.  1.
         -4   -1    0    0    0  501 -0.00000000000E+00 -0.00000000000E+00 -0.53155132668E+03  0.53155284384E+03  0.12700000000E+01 0. -1.
         25    2    1    2    0    0  0.22690356657E+02 -0.41687880505E+01 -0.51371391652E+03  0.52920637094E+03  0.12500065578E+03 0.  0.
    9000005    1    3    3    0    0  0.94966534050E+01 -0.51050073026E+02 -0.10045406545E+03  0.11308543517E+03  0.10000000000E+01 0.  0.
    9000005    1    3    3    0    0  0.13193703252E+02  0.46881284975E+02 -0.41325985106E+03  0.41612093577E+03  0.10000000000E+01 0.  0.
         -4    1    1    2    0  502 -0.22690356657E+02  0.41687880505E+01  0.31325697649E+01  0.23316452825E+02  0.12700000000E+01 0.  1.
<mgrwt>
<rscale>  1 0.12711174E+03</rscale>
<asrwt>0</asrwt>
<pdfrwt beam="1">  1       21 0.32261508E-02 0.12711174E+03</pdfrwt>
<pdfrwt beam="2">  1       -4 0.81780201E-01 0.12711174E+03</pdfrwt>
<totfact> 0.30513308E+04</totfact>
</mgrwt>
</event>
<event>
 6    4  0.6277709E-003  0.1368042E+03  0.7818608E-02  0.1217695E+00
         -4   -1    0    0    0  501 -0.00000000000E+00  0.00000000000E+00  0.62561162876E+02  0.62574052134E+02  0.12700000000E+01 0. -1.
         21   -1    0    0  501  502  0.00000000000E+00 -0.00000000000E+00 -0.20002143239E+03  0.20002143239E+03  0.00000000000E+00 0.  1.
         25    2    1    2    0    0 -0.35258206939E+02 -0.42977663017E+02 -0.27737657415E+02  0.13958782143E+03  0.12500064630E+03 0.  0.
    9000005    1    3    3    0    0 -0.62625804867E+02  0.21787684592E+02 -0.16957439270E+02  0.68448881523E+02  0.10000000000E+01 0.  0.
    9000005    1    3    3    0    0  0.27367597928E+02 -0.64765347609E+02 -0.10780218145E+02  0.71138939903E+02  0.10000000000E+01 0.  0.
         -4    1    1    2    0  502  0.35258206939E+02  0.42977663017E+02 -0.10972261209E+03  0.12300766309E+03  0.12700000000E+01 0.  1.
<mgrwt>
<rscale>  1 0.13680417E+03</rscale>
<asrwt>0</asrwt>
<pdfrwt beam="2">  1       21 0.30772528E-01 0.13680417E+03</pdfrwt>
<pdfrwt beam="1">  1       -4 0.96260959E-02 0.13680417E+03</pdfrwt>
<totfact> 0.33463674E+04</totfact>
</mgrwt>
</event>
<event>
 6    4  0.6277709E-003  0.1386605E+03  0.7818608E-02  0.1215143E+00
          4   -1    0    0  502    0 -0.00000000000E+00  0.00000000000E+00  0.82799315620E+03  0.82799413018E+03  0.12700000000E+01 0. -1.
         21   -1    0    0  501  502  0.00000000000E+00 -0.00000000000E+00 -0.29364654502E+02  0.29364654502E+02  0.00000000000E+00 0.  1.
         25    2    1    2    0    0 -0.59639495434E+02 -0.66868062936E+01  0.78320179810E+03  0.79538153984E+03  0.12500061834E+03 0.  0.
    9000005    1    3    3    0    0 -0.47630360925E+02 -0.36467491817E+02  0.15272458245E+03  0.16408634107E+03  0.10000000000E+01 0.  0.
    9000005    1    3    3    0    0 -0.12009134509E+02  0.29780685523E+02  0.63047721565E+03  0.63129519877E+03  0.10000000000E+01 0.  0.
          4    1    1    2  501    0  0.59639495434E+02  0.66868062936E+01  0.15426703601E+02  0.61977244840E+02  0.12700000000E+01 0.  1.
<mgrwt>
<rscale>  1 0.13866051E+03</rscale>
<asrwt>0</asrwt>
<pdfrwt beam="2">  1       21 0.45176398E-02 0.13866051E+03</pdfrwt>
<pdfrwt beam="1">  1        4 0.12738573E+00 0.13866051E+03</pdfrwt>
<totfact> 0.62927169E+03</totfact>
</mgrwt>
</event>
<event>
 6    4  0.6277709E-003  0.1291129E+03  0.7818608E-02  0.1228778E+00
         21   -1    0    0  501  502  0.00000000000E+00  0.00000000000E+00  0.13693425756E+03  0.13693425756E+03  0.00000000000E+00 0.  1.
          4   -1    0    0  502    0 -0.00000000000E+00 -0.00000000000E+00 -0.63725271829E+02  0.63737925677E+02  0.12700000000E+01 0.  1.
         25    2    1    2    0    0  0.83933414625E+01  0.31218747295E+02  0.97970235290E+01  0.12948406475E+03  0.12500033196E+03 0.  0.
    9000005    1    3    3    0    0  0.15151664263E+02  0.34316331358E+02  0.64309796508E+02  0.74457595010E+02  0.10000000000E+01 0.  0.
    9000005    1    3    3    0    0 -0.67583228008E+01 -0.30975840635E+01 -0.54512772978E+02  0.55026469739E+02  0.10000000000E+01 0.  0.
          4    1    1    2  501    0 -0.83933414625E+01 -0.31218747295E+02  0.63411962201E+02  0.71188118487E+02  0.12700000000E+01 0. -1.
<mgrwt>
<rscale>  1 0.12911290E+03</rscale>
<asrwt>0</asrwt>
<pdfrwt beam="1">  1       21 0.21066809E-01 0.12911290E+03</pdfrwt>
<pdfrwt beam="2">  1        4 0.98053144E-02 0.12911290E+03</pdfrwt>
<totfact> 0.66109977E+04</totfact>
</mgrwt>
</event>
<event>
 6    4  0.6277709E-003  0.1269578E+03  0.7818608E-02  0.1232041E+00
          4   -1    0    0  502    0 -0.00000000000E+00  0.00000000000E+00  0.43136564616E+02  0.43155255843E+02  0.12700000000E+01 0.  1.
         21   -1    0    0  501  502  0.00000000000E+00 -0.00000000000E+00 -0.17044064823E+03  0.17044064823E+03  0.00000000000E+00 0.  1.
         25    2    1    2    0    0 -0.76503422226E+01  0.20803538781E+02 -0.55718571951E+02  0.13864649886E+03  0.12500790944E+03 0.  0.
    9000005    1    3    3    0    0  0.50057444960E+02 -0.23880059183E+01 -0.57677228572E+02  0.76414089433E+02  0.10000000000E+01 0.  0.
    9000005    1    3    3    0    0 -0.57707787183E+02  0.23191544700E+02  0.19586566209E+01  0.62232409425E+02  0.10000000000E+01 0.  0.
          4    1    1    2  501    0  0.76503422226E+01 -0.20803538781E+02 -0.71585511666E+02  0.74949405217E+02  0.12700000000E+01 0. -1.
<mgrwt>
<rscale>  1 0.12695784E+03</rscale>
<asrwt>0</asrwt>
<pdfrwt beam="2">  1       21 0.26221638E-01 0.12695784E+03</pdfrwt>
<pdfrwt beam="1">  1        4 0.66381964E-02 0.12695784E+03</pdfrwt>
<totfact> 0.83441855E+04</totfact>
</mgrwt>
</event>
<event>
 6    4  0.6277709E-003  0.1281835E+03  0.7818608E-02  0.1230176E+00
          4   -1    0    0  502    0 -0.00000000000E+00  0.00000000000E+00  0.32793970637E+03  0.32794216551E+03  0.12700000000E+01 0. -1.
         21   -1    0    0  501  502  0.00000000000E+00 -0.00000000000E+00 -0.30670249044E+02  0.30670249044E+02  0.00000000000E+00 0.  1.
         25    2    1    2    0    0 -0.12873824573E+02  0.25289923837E+02  0.30356303460E+03  0.32951709497E+03  0.12500273713E+03 0.  0.
    9000005    1    3    3    0    0  0.46824857215E+02  0.25855198115E+02  0.68096424582E+02  0.86597815005E+02  0.10000000000E+01 0.  0.
    9000005    1    3    3    0    0 -0.59698681788E+02 -0.56527427883E+00  0.23546661002E+03  0.24291927996E+03  0.10000000000E+01 0.  0.
          4    1    1    2  501    0  0.12873824573E+02 -0.25289923837E+02 -0.62935772734E+01  0.29095319584E+02  0.12700000000E+01 0.  1.
<mgrwt>
<rscale>  1 0.12818346E+03</rscale>
<asrwt>0</asrwt>
<pdfrwt beam="2">  1       21 0.47185001E-02 0.12818346E+03</pdfrwt>
<pdfrwt beam="1">  1        4 0.50454472E-01 0.12818346E+03</pdfrwt>
<totfact> 0.45338155E+04</totfact>
</mgrwt>
</event>
<event>
 6    4  0.6277709E-003  0.1330413E+03  0.7818608E-02  0.1223011E+00
         21   -1    0    0  501  502  0.00000000000E+00  0.00000000000E+00  0.63883422483E+03  0.63883422483E+03  0.00000000000E+00 0. -1.
         -4   -1    0    0    0  501 -0.00000000000E+00 -0.00000000000E+00 -0.22969228432E+02  0.23004311656E+02  0.12700000000E+01 0.  1.
         25    2    1    2    0    0 -0.15291803261E+02 -0.42906967833E+02  0.18122622708E+03  0.22481757609E+03  0.12500060000E+03 0.  0.
    9000005    1    3    3    0    0 -0.32607862492E+02 -0.45773065905E+02  0.15700002992E+02  0.58360400552E+02  0.10000000000E+01 0.  0.
    9000005    1    3    3    0    0  0.17316059231E+02  0.28660980719E+01  0.16552622409E+03  0.16645717554E+03  0.10000000000E+01 0.  0.
         -4    1    1    2    0  502  0.15291803261E+02  0.42906967833E+02  0.43463876931E+03  0.43702096039E+03  0.12700000000E+01 0. -1.
<mgrwt>
<rscale>  1 0.13304134E+03</rscale>
<asrwt>0</asrwt>
<pdfrwt beam="1">  1       21 0.98282175E-01 0.13304134E+03</pdfrwt>
<pdfrwt beam="2">  1       -4 0.35365237E-02 0.13304134E+03</pdfrwt>
<totfact> 0.14670634E+04</totfact>
</mgrwt>
</event>
<event>
 6    4  0.6277709E-003  0.1272833E+03  0.7818608E-02  0.1231543E+00
         21   -1    0    0  501  502  0.00000000000E+00  0.00000000000E+00  0.11828005585E+03  0.11828005585E+03  0.00000000000E+00 0. -1.
          4   -1    0    0  502    0 -0.00000000000E+00 -0.00000000000E+00 -0.80598574505E+02  0.80608579644E+02  0.12700000000E+01 0.  1.
         25    2    1    2    0    0  0.45810485855E+01 -0.23558730383E+02 -0.26799803393E+02  0.13007403846E+03  0.12500010495E+03 0.  0.
    9000005    1    3    3    0    0  0.76007286477E+01 -0.57530608521E+02  0.28836745792E+02  0.64808177730E+02  0.10000000000E+01 0.  0.
    9000005    1    3    3    0    0 -0.30196800622E+01  0.33971878138E+02 -0.55636549185E+02  0.65265860732E+02  0.10000000000E+01 0.  0.
          4    1    1    2  501    0 -0.45810485855E+01  0.23558730383E+02  0.64481284739E+02  0.68814597034E+02  0.12700000000E+01 0. -1.
<mgrwt>
<rscale>  1 0.12728325E+03</rscale>
<asrwt>0</asrwt>
<pdfrwt beam="1">  1       21 0.18196932E-01 0.12728325E+03</pdfrwt>
<pdfrwt beam="2">  1        4 0.12401075E-01 0.12728325E+03</pdfrwt>
<totfact> 0.58048243E+04</totfact>
</mgrwt>
</event>
<event>
 6    4  0.6277709E-003  0.1287052E+03  0.7818608E-02  0.1229390E+00
         21   -1    0    0  501  502  0.00000000000E+00  0.00000000000E+00  0.29112829144E+03  0.29112829144E+03  0.00000000000E+00 0. -1.
          4   -1    0    0  502    0 -0.00000000000E+00 -0.00000000000E+00 -0.35259486197E+02  0.35282350643E+02  0.12700000000E+01 0. -1.
         25    2    1    2    0    0  0.23040903452E+02 -0.20225812063E+02  0.88365925287E+02  0.15612031823E+03  0.12500020122E+03 0.  0.
    9000005    1    3    3    0    0 -0.98553734305E+01 -0.24525553504E+02 -0.25967431087E+02  0.37066678262E+02  0.10000000000E+01 0.  0.
    9000005    1    3    3    0    0  0.32896276882E+02  0.42997414408E+01  0.11433335637E+03  0.11905363996E+03  0.10000000000E+01 0.  0.
          4    1    1    2  501    0 -0.23040903452E+02  0.20225812063E+02  0.16750287996E+03  0.17029032386E+03  0.12700000000E+01 0.  1.
<mgrwt>
<rscale>  1 0.12870516E+03</rscale>
<asrwt>0</asrwt>
<pdfrwt beam="1">  1       21 0.44788966E-01 0.12870516E+03</pdfrwt>
<pdfrwt beam="2">  1        4 0.54265084E-02 0.12870516E+03</pdfrwt>
<totfact> 0.40573676E+04</totfact>
</mgrwt>
</event>
<event>
 6    4  0.6277709E-003  0.1283065E+03  0.7818608E-02  0.1229990E+00
         21   -1    0    0  501  502  0.00000000000E+00  0.00000000000E+00  0.58001234703E+03  0.58001234703E+03  0.00000000000E+00 0.  1.
          4   -1    0    0  502    0 -0.00000000000E+00 -0.00000000000E+00 -0.17310615393E+02  0.17357139893E+02  0.12700000000E+01 0. -1.
         25    2    1    2    0    0  0.10026127431E+02 -0.27155630224E+02  0.22966955570E+03  0.26307920200E+03  0.12499844089E+03 0.  0.
    9000005    1    3    3    0    0 -0.36404276536E+02 -0.33805141743E+02  0.20325232242E+03  0.20923805946E+03  0.10000000000E+01 0.  0.
    9000005    1    3    3    0    0  0.46430403967E+02  0.66495115193E+01  0.26417233286E+02  0.53841142544E+02  0.10000000000E+01 0.  0.
          4    1    1    2  501    0 -0.10026127431E+02  0.27155630224E+02  0.33303217593E+03  0.33429028492E+03  0.12700000000E+01 0.  1.
<mgrwt>
<rscale>  1 0.12830651E+03</rscale>
<asrwt>0</asrwt>
<pdfrwt beam="1">  1       21 0.89232654E-01 0.12830651E+03</pdfrwt>
<pdfrwt beam="2">  1        4 0.26668578E-02 0.12830651E+03</pdfrwt>
<totfact> 0.28447152E+04</totfact>
</mgrwt>
</event>
<event>
 6    4  0.6277709E-003  0.1283643E+03  0.7818608E-02  0.1229903E+00
          4   -1    0    0  502    0 -0.00000000000E+00  0.00000000000E+00  0.46488783448E+02  0.46506127407E+02  0.12700000000E+01 0.  1.
         21   -1    0    0  501  502  0.00000000000E+00 -0.00000000000E+00 -0.13445002195E+03  0.13445002195E+03  0.00000000000E+00 0.  1.
         25    2    1    2    0    0 -0.11841355395E+02 -0.26677502386E+02 -0.65533193976E+02  0.14412495453E+03  0.12500198468E+03 0.  0.
    9000005    1    3    3    0    0 -0.61428668741E+02 -0.43929190960E+02 -0.33579316636E+02  0.82654858705E+02  0.10000000000E+01 0.  0.
    9000005    1    3    3    0    0  0.49587313347E+02  0.17251688574E+02 -0.31953877340E+02  0.61470095824E+02  0.10000000000E+01 0.  0.
          4    1    1    2  501    0  0.11841355395E+02  0.26677502386E+02 -0.22428044522E+02  0.36831194825E+02  0.12700000000E+01 0. -1.
<mgrwt>
<rscale>  1 0.12836434E+03</rscale>
<asrwt>0</asrwt>
<pdfrwt beam="2">  1       21 0.20684619E-01 0.12836434E+03</pdfrwt>
<pdfrwt beam="1">  1        4 0.71539161E-02 0.12836434E+03</pdfrwt>
<totfact> 0.11536085E+05</totfact>
</mgrwt>
</event>
<event>
 6    4  0.6277709E-003  0.1274889E+03  0.7818608E-02  0.1231230E+00
          4   -1    0    0  502    0 -0.00000000000E+00  0.00000000000E+00  0.10137122080E+04  0.10137130036E+04  0.12700000000E+01 0. -1.
         21   -1    0    0  501  502  0.00000000000E+00 -0.00000000000E+00 -0.15750897085E+02  0.15750897085E+02  0.00000000000E+00 0.  1.
         25    2    1    2    0    0  0.12392443771E+02  0.21822976637E+02  0.99614510076E+03  0.10042701218E+04  0.12499440333E+03 0.  0.
    9000005    1    3    3    0    0 -0.41865904063E+02 -0.14352647759E+02  0.17403666427E+03  0.17957870957E+03  0.10000000000E+01 0.  0.
    9000005    1    3    3    0    0  0.54258347834E+02  0.36175624396E+02  0.82210843649E+03  0.82469141226E+03  0.10000000000E+01 0.  0.
          4    1    1    2  501    0 -0.12392443771E+02 -0.21822976637E+02  0.18162101821E+01  0.25193778822E+02  0.12700000000E+01 0.  1.
<mgrwt>
<rscale>  1 0.12748889E+03</rscale>
<asrwt>0</asrwt>
<pdfrwt beam="2">  1       21 0.24232157E-02 0.12748889E+03</pdfrwt>
<pdfrwt beam="1">  1        4 0.15595967E+00 0.12748889E+03</pdfrwt>
<totfact> 0.10516359E+04</totfact>
</mgrwt>
</event>
<event>
 6    4  0.6277709E-003  0.1312192E+03  0.7818608E-02  0.1225658E+00
         21   -1    0    0  501  502  0.00000000000E+00  0.00000000000E+00  0.23948908155E+03  0.23948908155E+03  0.00000000000E+00 0.  1.
         -4   -1    0    0    0  501 -0.00000000000E+00 -0.00000000000E+00 -0.31422176009E+02  0.31447830531E+02  0.12700000000E+01 0. -1.
         25    2    1    2    0    0  0.39353131420E+02 -0.66778316986E+01  0.13898384506E+03  0.19114126976E+03  0.12500085371E+03 0.  0.
    9000005    1    3    3    0    0 -0.29549905626E+02  0.24965382932E+02  0.75865904068E+01  0.39433787815E+02  0.10000000000E+01 0.  0.
    9000005    1    3    3    0    0  0.68903037046E+02 -0.31643214630E+02  0.13139725465E+03  0.15170748194E+03  0.10000000000E+01 0.  0.
         -4    1    1    2    0  502 -0.39353131420E+02  0.66778316986E+01  0.69083060477E+02  0.79795642322E+02  0.12700000000E+01 0.  1.
<mgrwt>
<rscale>  1 0.13121919E+03</rscale>
<asrwt>0</asrwt>
<pdfrwt beam="1">  1       21 0.36844473E-01 0.13121919E+03</pdfrwt>
<pdfrwt beam="2">  1       -4 0.48364135E-02 0.13121919E+03</pdfrwt>
<totfact> 0.72369544E+04</totfact>
</mgrwt>
</event>
<event>
 6    4  0.6277709E-003  0.1330168E+03  0.7818608E-02  0.1223047E+00
         21   -1    0    0  501  502  0.00000000000E+00  0.00000000000E+00  0.21076086565E+03  0.21076086565E+03  0.00000000000E+00 0.  1.
         -4   -1    0    0    0  501 -0.00000000000E+00 -0.00000000000E+00 -0.84110973691E+02  0.84120561073E+02  0.12700000000E+01 0. -1.
         25    2    1    2    0    0  0.43366152259E+02  0.13693608088E+02 -0.26054190900E+02  0.13554440062E+03  0.12500130244E+03 0.  0.
    9000005    1    3    3    0    0  0.42917444022E+02  0.64345876551E+02 -0.33576565915E+02  0.84324875388E+02  0.10000000000E+01 0.  0.
    9000005    1    3    3    0    0  0.44870823668E+00 -0.50652268463E+02  0.75223750148E+01  0.51219525236E+02  0.10000000000E+01 0.  0.
         -4    1    1    2    0  502 -0.43366152259E+02 -0.13693608088E+02  0.15270408286E+03  0.15933702610E+03  0.12700000000E+01 0.  1.
<mgrwt>
<rscale>  1 0.13301678E+03</rscale>
<asrwt>0</asrwt>
<pdfrwt beam="1">  1       21 0.32424748E-01 0.13301678E+03</pdfrwt>
<pdfrwt beam="2">  1       -4 0.12941182E-01 0.13301678E+03</pdfrwt>
<totfact> 0.18230229E+04</totfact>
</mgrwt>
</event>
<event>
 6    4  0.6277709E-003  0.1317083E+03  0.7818608E-02  0.1224943E+00
         21   -1    0    0  501  502  0.00000000000E+00  0.00000000000E+00  0.13004943872E+04  0.13004943872E+04  0.00000000000E+00 0. -1.
         -4   -1    0    0    0  501 -0.00000000000E+00 -0.00000000000E+00 -0.46141917741E+02  0.46159392033E+02  0.12700000000E+01 0.  1.
         25    2    1    2    0    0  0.25185831457E+02  0.32984686884E+02  0.48910037759E+02  0.14049649898E+03  0.12499903502E+03 0.  0.
    9000005    1    3    3    0    0  0.51580498212E+02 -0.21046023271E+02 -0.96581051042E+01  0.56548756711E+02  0.10000000000E+01 0.  0.
    9000005    1    3    3    0    0 -0.26394666755E+02  0.54030710154E+02  0.58568142863E+02  0.83947742264E+02  0.10000000000E+01 0.  0.
         -4    1    1    2    0  502 -0.25185831457E+02 -0.32984686884E+02  0.12054424317E+04  0.12061572803E+04  0.12700000000E+01 0. -1.
<mgrwt>
<rscale>  1 0.13170829E+03</rscale>
<asrwt>0</asrwt>
<pdfrwt beam="1">  1       21 0.20007603E+00 0.13170829E+03</pdfrwt>
<pdfrwt beam="2">  1       -4 0.71001494E-02 0.13170829E+03</pdfrwt>
<totfact> 0.77087195E+02</totfact>
</mgrwt>
</event>
<event>
 6    4  0.6277709E-003  0.1268800E+03  0.7818608E-02  0.1232160E+00
          4   -1    0    0  502    0 -0.00000000000E+00  0.00000000000E+00  0.16021058476E+03  0.16021561837E+03  0.12700000000E+01 0.  1.
         21   -1    0    0  501  502  0.00000000000E+00 -0.00000000000E+00 -0.60233201413E+02  0.60233201413E+02  0.00000000000E+00 0.  1.
         25    2    1    2    0    0 -0.67529561966E+01  0.20689172667E+02  0.13110433016E+03  0.18244692508E+03  0.12499956320E+03 0.  0.
    9000005    1    3    3    0    0 -0.50466248121E+02  0.10878936756E+02  0.90447051951E+01  0.52421371180E+02  0.10000000000E+01 0.  0.
    9000005    1    3    3    0    0  0.43713291924E+02  0.98102359107E+01  0.12205962497E+03  0.13002555390E+03  0.10000000000E+01 0.  0.
          4    1    1    2  501    0  0.67529561966E+01 -0.20689172667E+02 -0.31126946815E+02  0.38001894703E+02  0.12700000000E+01 0. -1.
<mgrwt>
<rscale>  1 0.12688000E+03</rscale>
<asrwt>0</asrwt>
<pdfrwt beam="2">  1       21 0.92666465E-02 0.12688000E+03</pdfrwt>
<pdfrwt beam="1">  1        4 0.24649199E-01 0.12688000E+03</pdfrwt>
<totfact> 0.57185873E+04</totfact>
</mgrwt>
</event>
<event>
 6    4  0.6277709E-003  0.1287168E+03  0.7818608E-02  0.1229372E+00
          4   -1    0    0  502    0 -0.00000000000E+00  0.00000000000E+00  0.55789192055E+03  0.55789336608E+03  0.12700000000E+01 0.  1.
         21   -1    0    0  501  502  0.00000000000E+00 -0.00000000000E+00 -0.17290620110E+02  0.17290620110E+02  0.00000000000E+00 0.  1.
         25    2    1    2    0    0 -0.13603831806E+02  0.27523089170E+02  0.52533237874E+03  0.54087163350E+03  0.12500172437E+03 0.  0.
    9000005    1    3    3    0    0 -0.46391875416E+01 -0.13713604069E+02  0.47482817472E+03  0.47504987160E+03  0.10000000000E+01 0.  0.
    9000005    1    3    3    0    0 -0.89646442648E+01  0.41236693239E+02  0.50504204019E+02  0.65821761900E+02  0.10000000000E+01 0.  0.
          4    1    1    2  501    0  0.13603831806E+02 -0.27523089170E+02  0.15268921702E+02  0.34312352691E+02  0.12700000000E+01 0. -1.
<mgrwt>
<rscale>  1 0.12871680E+03</rscale>
<asrwt>0</asrwt>
<pdfrwt beam="2">  1       21 0.26600958E-02 0.12871680E+03</pdfrwt>
<pdfrwt beam="1">  1        4 0.85833211E-01 0.12871680E+03</pdfrwt>
<totfact> 0.37640768E+04</totfact>
</mgrwt>
</event>
<event>
 6    4  0.6277709E-003  0.1307673E+03  0.7818608E-02  0.1226322E+00
         -4   -1    0    0    0  501 -0.00000000000E+00  0.00000000000E+00  0.46674227784E+02  0.46691502859E+02  0.12700000000E+01 0. -1.
         21   -1    0    0  501  502  0.00000000000E+00 -0.00000000000E+00 -0.19094894266E+03  0.19094894266E+03  0.00000000000E+00 0.  1.
         25    2    1    2    0    0  0.30934636673E+02 -0.22759265094E+02 -0.57719961761E+02  0.14293947361E+03  0.12500065294E+03 0.  0.
    9000005    1    3    3    0    0 -0.13367737986E+02  0.49859962889E+01 -0.83451053083E+02  0.84667791033E+02  0.10000000000E+01 0.  0.
    9000005    1    3    3    0    0  0.44302374659E+02 -0.27745261383E+02  0.25731091322E+02  0.58271682576E+02  0.10000000000E+01 0.  0.
         -4    1    1    2    0  502 -0.30934636673E+02  0.22759265094E+02 -0.86554753120E+02  0.94700971914E+02  0.12700000000E+01 0.  1.
<mgrwt>
<rscale>  1 0.13076735E+03</rscale>
<asrwt>0</asrwt>
<pdfrwt beam="2">  1       21 0.29376760E-01 0.13076735E+03</pdfrwt>
<pdfrwt beam="1">  1       -4 0.71823042E-02 0.13076735E+03</pdfrwt>
<totfact> 0.59239790E+04</totfact>
</mgrwt>
</event>
<event>
 6    4  0.6277709E-003  0.1294839E+03  0.7818608E-02  0.1228224E+00
         21   -1    0    0  501  502  0.00000000000E+00  0.00000000000E+00  0.13121690920E+03  0.13121690920E+03  0.00000000000E+00 0.  1.
         -4   -1    0    0    0  501 -0.00000000000E+00 -0.00000000000E+00 -0.57994798134E+02  0.58008702025E+02  0.12700000000E+01 0.  1.
         25    2    1    2    0    0 -0.46859965659E+01  0.33446241210E+02  0.27505766952E+02  0.13237311230E+03  0.12500185611E+03 0.  0.
    9000005    1    3    3    0    0  0.43913662586E+02  0.52850418914E+02 -0.79136198473E+01  0.69175153922E+02  0.10000000000E+01 0.  0.
    9000005    1    3    3    0    0 -0.48599659152E+02 -0.19404177704E+02  0.35419386799E+02  0.63197958379E+02  0.10000000000E+01 0.  0.
         -4    1    1    2    0  502  0.46859965659E+01 -0.33446241210E+02  0.45716344118E+02  0.56852498929E+02  0.12700000000E+01 0. -1.
<mgrwt>
<rscale>  1 0.12948387E+03</rscale>
<asrwt>0</asrwt>
<pdfrwt beam="1">  1       21 0.20187217E-01 0.12948387E+03</pdfrwt>
<pdfrwt beam="2">  1       -4 0.89238190E-02 0.12948387E+03</pdfrwt>
<totfact> 0.83807800E+04</totfact>
</mgrwt>
</event>
<event>
 6    4  0.6277709E-003  0.1308384E+03  0.7818608E-02  0.1226217E+00
         21   -1    0    0  501  502  0.00000000000E+00  0.00000000000E+00  0.42391603695E+03  0.42391603695E+03  0.00000000000E+00 0.  1.
          4   -1    0    0  502    0 -0.00000000000E+00 -0.00000000000E+00 -0.17019841192E+02  0.17067158351E+02  0.12700000000E+01 0.  1.
         25    2    1    2    0    0  0.30078554330E+02 -0.24272543059E+02  0.32755264749E+03  0.35271719206E+03  0.12499921967E+03 0.  0.
    9000005    1    3    3    0    0 -0.26544935930E+02  0.37071018657E+02  0.89516275103E+02  0.10046421032E+03  0.10000000000E+01 0.  0.
    9000005    1    3    3    0    0  0.56623490260E+02 -0.61343561716E+02  0.23803637239E+03  0.25225298173E+03  0.10000000000E+01 0.  0.
          4    1    1    2  501    0 -0.30078554330E+02  0.24272543059E+02  0.79343548268E+02  0.88266003245E+02  0.12700000000E+01 0. -1.
<mgrwt>
<rscale>  1 0.13083838E+03</rscale>
<asrwt>0</asrwt>
<pdfrwt beam="1">  1       21 0.65217844E-01 0.13083838E+03</pdfrwt>
<pdfrwt beam="2">  1        4 0.26222236E-02 0.13083838E+03</pdfrwt>
<totfact> 0.58614105E+04</totfact>
</mgrwt>
</event>
<event>
 6    4  0.6277709E-003  0.1328968E+03  0.7818608E-02  0.1223220E+00
         21   -1    0    0  501  502  0.00000000000E+00  0.00000000000E+00  0.40420634451E+02  0.40420634451E+02  0.00000000000E+00 0.  1.
          4   -1    0    0  502    0 -0.00000000000E+00 -0.00000000000E+00 -0.65934346137E+03  0.65934468447E+03  0.12700000000E+01 0. -1.
         25    2    1    2    0    0 -0.32341485694E+02 -0.31476747337E+02 -0.63730814901E+03  0.65101708523E+03  0.12499924463E+03 0.  0.
    9000005    1    3    3    0    0  0.17022765566E+02  0.36596773496E+02 -0.32819820154E+03  0.33067228168E+03  0.10000000000E+01 0.  0.
    9000005    1    3    3    0    0 -0.49364251260E+02 -0.68073520832E+02 -0.30910994747E+03  0.32034480355E+03  0.10000000000E+01 0.  0.
          4    1    1    2  501    0  0.32341485694E+02  0.31476747337E+02  0.18385322091E+02  0.48748233693E+02  0.12700000000E+01 0.  1.
<mgrwt>
<rscale>  1 0.13289683E+03</rscale>
<asrwt>0</asrwt>
<pdfrwt beam="1">  1       21 0.62185592E-02 0.13289683E+03</pdfrwt>
<pdfrwt beam="2">  1        4 0.10143908E+00 0.13289683E+03</pdfrwt>
<totfact> 0.62859723E+03</totfact>
</mgrwt>
</event>
<event>
 6    4  0.6277709E-003  0.1284683E+03  0.7818608E-02  0.1229746E+00
         21   -1    0    0  501  502  0.00000000000E+00  0.00000000000E+00  0.24371908990E+02  0.24371908990E+02  0.00000000000E+00 0.  1.
          4   -1    0    0  502    0 -0.00000000000E+00 -0.00000000000E+00 -0.73864007757E+03  0.73864116937E+03  0.12700000000E+01 0. -1.
         25    2    1    2    0    0  0.29218081745E+02 -0.53524809812E+01 -0.72114341803E+03  0.73249706112E+03  0.12498707865E+03 0.  0.
    9000005    1    3    3    0    0 -0.65106933361E+01 -0.57432318663E+02 -0.22326021244E+03  0.23062303184E+03  0.10000000000E+01 0.  0.
    9000005    1    3    3    0    0  0.35728775081E+02  0.52079837682E+02 -0.49788320559E+03  0.50187402928E+03  0.10000000000E+01 0.  0.
          4    1    1    2  501    0 -0.29218081745E+02  0.53524809812E+01  0.68752494469E+01  0.30516017244E+02  0.12700000000E+01 0.  1.
<mgrwt>
<rscale>  1 0.12846834E+03</rscale>
<asrwt>0</asrwt>
<pdfrwt beam="1">  1       21 0.37495246E-02 0.12846834E+03</pdfrwt>
<pdfrwt beam="2">  1        4 0.11363956E+00 0.12846834E+03</pdfrwt>
<totfact> 0.11217823E+04</totfact>
</mgrwt>
</event>
<event>
 6    4  0.6277709E-003  0.2254882E+03  0.7818608E-02  0.1129856E+00
         21   -1    0    0  501  502  0.00000000000E+00  0.00000000000E+00  0.87508100308E+03  0.87508100308E+03  0.00000000000E+00 0.  1.
          4   -1    0    0  502    0 -0.00000000000E+00 -0.00000000000E+00 -0.79445979018E+02  0.79456129292E+02  0.12700000000E+01 0. -1.
         25    2    1    2    0    0 -0.18714150366E+03 -0.14058603487E+02  0.12433266869E+03  0.25749477214E+03  0.12500143380E+03 0.  0.
    9000005    1    3    3    0    0 -0.18690667798E+03 -0.46450279320E+02  0.11217733613E+03  0.22288223228E+03  0.10000000000E+01 0.  0.
    9000005    1    3    3    0    0 -0.23482568220E+00  0.32391675832E+02  0.12155332558E+02  0.34612539865E+02  0.10000000000E+01 0.  0.
          4    1    1    2  501    0  0.18714150366E+03  0.14058603487E+02  0.67130235538E+03  0.69704236023E+03  0.12700000000E+01 0.  1.
<mgrwt>
<rscale>  1 0.22548824E+03</rscale>
<asrwt>0</asrwt>
<pdfrwt beam="1">  1       21 0.13462784E+00 0.22548824E+03</pdfrwt>
<pdfrwt beam="2">  1        4 0.12223311E-01 0.22548824E+03</pdfrwt>
<totfact> 0.89228048E+02</totfact>
</mgrwt>
</event>
<event>
 6    4  0.6277709E-003  0.1276431E+03  0.7818608E-02  0.1230995E+00
         -4   -1    0    0    0  501 -0.00000000000E+00  0.00000000000E+00  0.29979902564E+03  0.29980171559E+03  0.12700000000E+01 0. -1.
         21   -1    0    0  501  502  0.00000000000E+00 -0.00000000000E+00 -0.13801865842E+03  0.13801865842E+03  0.00000000000E+00 0.  1.
         25    2    1    2    0    0  0.45527014760E+01 -0.25402580781E+02  0.28481094454E+03  0.31210580025E+03  0.12500695267E+03 0.  0.
    9000005    1    3    3    0    0 -0.27566535165E+02 -0.41165959917E+02  0.26803389422E+03  0.27257607850E+03  0.10000000000E+01 0.  0.
    9000005    1    3    3    0    0  0.32119236641E+02  0.15763379136E+02  0.16777050316E+02  0.39529721748E+02  0.10000000000E+01 0.  0.
         -4    1    1    2    0  502 -0.45527014760E+01  0.25402580781E+02 -0.12303057732E+03  0.12571457377E+03  0.12700000000E+01 0.  1.
<mgrwt>
<rscale>  1 0.12764308E+03</rscale>
<asrwt>0</asrwt>
<pdfrwt beam="2">  1       21 0.21233640E-01 0.12764308E+03</pdfrwt>
<pdfrwt beam="1">  1       -4 0.46123583E-01 0.12764308E+03</pdfrwt>
<totfact> 0.38807127E+03</totfact>
</mgrwt>
</event>
<event>
 6    4  0.6277709E-003  0.1307402E+03  0.7818608E-02  0.1226362E+00
         21   -1    0    0  501  502  0.00000000000E+00  0.00000000000E+00  0.31149770234E+02  0.31149770234E+02  0.00000000000E+00 0.  1.
          4   -1    0    0  502    0 -0.00000000000E+00 -0.00000000000E+00 -0.23182889756E+03  0.23183237617E+03  0.12700000000E+01 0.  1.
         25    2    1    2    0    0 -0.38289404561E+02  0.16534418336E+01 -0.14340708730E+03  0.19405818947E+03  0.12499670332E+03 0.  0.
    9000005    1    3    3    0    0 -0.79198137496E+01  0.62093819286E+02 -0.77304784184E+02  0.99475602542E+02  0.10000000000E+01 0.  0.
    9000005    1    3    3    0    0 -0.30369590812E+02 -0.60440377452E+02 -0.66102303113E+02  0.94582586925E+02  0.10000000000E+01 0.  0.
          4    1    1    2  501    0  0.38289404561E+02 -0.16534418336E+01 -0.57272040027E+02  0.68923956941E+02  0.12700000000E+01 0. -1.
<mgrwt>
<rscale>  1 0.13074016E+03</rscale>
<asrwt>0</asrwt>
<pdfrwt beam="1">  1       21 0.47922724E-02 0.13074016E+03</pdfrwt>
<pdfrwt beam="2">  1        4 0.35668243E-01 0.13074016E+03</pdfrwt>
<totfact> 0.88143239E+04</totfact>
</mgrwt>
</event>
<event>
 6    4  0.6277709E-003  0.1273306E+03  0.7818608E-02  0.1231471E+00
         21   -1    0    0  501  502  0.00000000000E+00  0.00000000000E+00  0.61248344281E+03  0.61248344281E+03  0.00000000000E+00 0.  1.
         -4   -1    0    0    0  501 -0.00000000000E+00 -0.00000000000E+00 -0.14181390993E+02  0.14238144209E+02  0.12700000000E+01 0.  1.
         25    2    1    2    0    0  0.12733551677E+02  0.20832872632E+02  0.58537858226E+03  0.59906691498E+03  0.12496772436E+03 0.  0.
    9000005    1    3    3    0    0 -0.37713711998E+02 -0.28175699505E+02  0.35726336940E+03  0.36035303416E+03  0.10000000000E+01 0.  0.
    9000005    1    3    3    0    0  0.50447263675E+02  0.49008572137E+02  0.22811521286E+03  0.23871388082E+03  0.10000000000E+01 0.  0.
         -4    1    1    2    0  502 -0.12733551677E+02 -0.20832872632E+02  0.12923469558E+02  0.27654672044E+02  0.12700000000E+01 0. -1.
<mgrwt>
<rscale>  1 0.12733061E+03</rscale>
<asrwt>0</asrwt>
<pdfrwt beam="1">  1       21 0.94228201E-01 0.12733061E+03</pdfrwt>
<pdfrwt beam="2">  1       -4 0.21862199E-02 0.12733061E+03</pdfrwt>
<totfact> 0.34137527E+04</totfact>
</mgrwt>
</event>
<event>
 6    4  0.6277709E-003  0.1271303E+03  0.7818608E-02  0.1231777E+00
         -4   -1    0    0    0  501 -0.00000000000E+00  0.00000000000E+00  0.10378818858E+02  0.10456231678E+02  0.12700000000E+01 0. -1.
         21   -1    0    0  501  502  0.00000000000E+00 -0.00000000000E+00 -0.57805210183E+03  0.57805210183E+03  0.00000000000E+00 0. -1.
         25    2    1    2    0    0 -0.13486998719E+02  0.18836701466E+02 -0.41358801718E+03  0.43268599079E+03  0.12500159284E+03 0.  0.
    9000005    1    3    3    0    0  0.42633453529E+02  0.45066178305E+02 -0.15922623655E+03  0.17088758350E+03  0.10000000000E+01 0.  0.
    9000005    1    3    3    0    0 -0.56120452249E+02 -0.26229476839E+02 -0.25436178063E+03  0.26179840729E+03  0.10000000000E+01 0.  0.
         -4    1    1    2    0  502  0.13486998719E+02 -0.18836701466E+02 -0.15408526579E+03  0.15582234272E+03  0.12700000000E+01 0.  1.
<mgrwt>
<rscale>  1 0.12713032E+03</rscale>
<asrwt>0</asrwt>
<pdfrwt beam="2">  1       21 0.88931100E-01 0.12713032E+03</pdfrwt>
<pdfrwt beam="1">  1       -4 0.16028034E-02 0.12713032E+03</pdfrwt>
<totfact> 0.62761590E+04</totfact>
</mgrwt>
</event>
<event>
 6    4  0.6277709E-003  0.1270087E+03  0.7818608E-02  0.1231963E+00
         21   -1    0    0  501  502  0.00000000000E+00  0.00000000000E+00  0.49481536763E+02  0.49481536763E+02  0.00000000000E+00 0.  1.
         -4   -1    0    0    0  501 -0.00000000000E+00 -0.00000000000E+00 -0.26938544302E+03  0.26938843667E+03  0.12700000000E+01 0.  1.
         25    2    1    2    0    0 -0.82720930040E+01 -0.20927870702E+02 -0.25050572465E+03  0.28086355971E+03  0.12499927118E+03 0.  0.
    9000005    1    3    3    0    0  0.45254332641E+02 -0.29043130022E+02 -0.19897388649E+03  0.20611420506E+03  0.10000000000E+01 0.  0.
    9000005    1    3    3    0    0 -0.53526425645E+02  0.81152593197E+01 -0.51531838162E+02  0.74749354649E+02  0.10000000000E+01 0.  0.
         -4    1    1    2    0  502  0.82720930040E+01  0.20927870702E+02  0.30601818394E+02  0.38006413720E+02  0.12700000000E+01 0. -1.
<mgrwt>
<rscale>  1 0.12700874E+03</rscale>
<asrwt>0</asrwt>
<pdfrwt beam="1">  1       21 0.76125441E-02 0.12700874E+03</pdfrwt>
<pdfrwt beam="2">  1       -4 0.41445398E-01 0.12700874E+03</pdfrwt>
<totfact> 0.29860880E+04</totfact>
</mgrwt>
</event>
<event>
 6    4  0.6277709E-003  0.1276051E+03  0.7818608E-02  0.1231053E+00
         -4   -1    0    0    0  501 -0.00000000000E+00  0.00000000000E+00  0.37820235585E+02  0.37841552819E+02  0.12700000000E+01 0.  1.
         21   -1    0    0  501  502  0.00000000000E+00 -0.00000000000E+00 -0.28873993197E+03  0.28873993197E+03  0.00000000000E+00 0. -1.
         25    2    1    2    0    0 -0.25616570554E+02  0.13558917910E+01 -0.73391964946E+02  0.14720546783E+03  0.12500008845E+03 0.  0.
    9000005    1    3    3    0    0 -0.41921883014E+01  0.11290297475E+02  0.34603772766E+02  0.36653326581E+02  0.10000000000E+01 0.  0.
    9000005    1    3    3    0    0 -0.21424382253E+02 -0.99344056843E+01 -0.10799573771E+03  0.11055214125E+03  0.10000000000E+01 0.  0.
         -4    1    1    2    0  502  0.25616570554E+02 -0.13558917910E+01 -0.17752773144E+03  0.17937601696E+03  0.12700000000E+01 0. -1.
<mgrwt>
<rscale>  1 0.12760513E+03</rscale>
<asrwt>0</asrwt>
<pdfrwt beam="2">  1       21 0.44421527E-01 0.12760513E+03</pdfrwt>
<pdfrwt beam="1">  1       -4 0.58203525E-02 0.12760513E+03</pdfrwt>
<totfact> 0.36805263E+04</totfact>
</mgrwt>
</event>
<event>
 6    4  0.6277709E-003  0.1281548E+03  0.7818608E-02  0.1230220E+00
         -4   -1    0    0    0  501 -0.00000000000E+00  0.00000000000E+00  0.66199139127E+03  0.66199260949E+03  0.12700000000E+01 0.  1.
         21   -1    0    0  501  502  0.00000000000E+00 -0.00000000000E+00 -0.16297483763E+02  0.16297483763E+02  0.00000000000E+00 0. -1.
         25    2    1    2    0    0  0.91493265339E+01 -0.26619364027E+02  0.63555185008E+03  0.64834389239E+03  0.12502538917E+03 0.  0.
    9000005    1    3    3    0    0 -0.33040199982E+02  0.22951907698E+02  0.86003798990E+02  0.94953137508E+02  0.10000000000E+01 0.  0.
    9000005    1    3    3    0    0  0.42189526516E+02 -0.49571271725E+02  0.54954805109E+03  0.55339075488E+03  0.10000000000E+01 0.  0.
         -4    1    1    2    0  502 -0.91493265339E+01  0.26619364027E+02  0.10142057423E+02  0.29946200861E+02  0.12700000000E+01 0. -1.
<mgrwt>
<rscale>  1 0.12815478E+03</rscale>
<asrwt>0</asrwt>
<pdfrwt beam="2">  1       21 0.25073057E-02 0.12815478E+03</pdfrwt>
<pdfrwt beam="1">  1       -4 0.10184871E+00 0.12815478E+03</pdfrwt>
<totfact> 0.28067954E+04</totfact>
</mgrwt>
</event>
<event>
 6    4  0.6277709E-003  0.1302425E+03  0.7818608E-02  0.1227096E+00
         -4   -1    0    0    0  501 -0.00000000000E+00  0.00000000000E+00  0.16444251168E+03  0.16444741575E+03  0.12700000000E+01 0. -1.
         21   -1    0    0  501  502  0.00000000000E+00 -0.00000000000E+00 -0.43454420923E+02  0.43454420923E+02  0.00000000000E+00 0. -1.
         25    2    1    2    0    0 -0.33628135927E+02  0.14387813592E+02  0.79547730709E+02  0.15261370914E+03  0.12500096819E+03 0.  0.
    9000005    1    3    3    0    0 -0.23458419556E+02 -0.55043640799E+02  0.32195342667E+02  0.67953218687E+02  0.10000000000E+01 0.  0.
    9000005    1    3    3    0    0 -0.10169716370E+02  0.69431454390E+02  0.47352388042E+02  0.84660490449E+02  0.10000000000E+01 0.  0.
         -4    1    1    2    0  502  0.33628135927E+02 -0.14387813592E+02  0.41440360044E+02  0.55288127536E+02  0.12700000000E+01 0.  1.
<mgrwt>
<rscale>  1 0.13024248E+03</rscale>
<asrwt>0</asrwt>
<pdfrwt beam="2">  1       21 0.66852956E-02 0.13024248E+03</pdfrwt>
<pdfrwt beam="1">  1       -4 0.25300652E-01 0.13024248E+03</pdfrwt>
<totfact> 0.95991957E+04</totfact>
</mgrwt>
</event>
<event>
 6    4  0.6277709E-003  0.1340873E+03  0.7818608E-02  0.1221514E+00
         21   -1    0    0  501  502  0.00000000000E+00  0.00000000000E+00  0.86694109341E+03  0.86694109341E+03  0.00000000000E+00 0. -1.
         -4   -1    0    0    0  501 -0.00000000000E+00 -0.00000000000E+00 -0.13199131467E+02  0.13260089422E+02  0.12700000000E+01 0.  1.
         25    2    1    2    0    0  0.37336581159E+02 -0.30988172377E+02  0.36140749823E+03  0.38547992376E+03  0.12500041889E+03 0.  0.
    9000005    1    3    3    0    0  0.22281641002E+00  0.20258559211E+02  0.28736044174E+03  0.28807548029E+03  0.10000000000E+01 0.  0.
    9000005    1    3    3    0    0  0.37113764749E+02 -0.51246731588E+02  0.74047056494E+02  0.97404443471E+02  0.10000000000E+01 0.  0.
         -4    1    1    2    0  502 -0.37336581159E+02  0.30988172377E+02  0.49233446372E+03  0.49472125908E+03  0.12700000000E+01 0. -1.
<mgrwt>
<rscale>  1 0.13408725E+03</rscale>
<asrwt>0</asrwt>
<pdfrwt beam="1">  1       21 0.13337551E+00 0.13408725E+03</pdfrwt>
<pdfrwt beam="2">  1       -4 0.20353969E-02 0.13408725E+03</pdfrwt>
<totfact> 0.16599374E+04</totfact>
</mgrwt>
</event>
<event>
 6    4  0.6277709E-003  0.1391764E+03  0.7818608E-02  0.1214441E+00
         21   -1    0    0  501  502  0.00000000000E+00  0.00000000000E+00  0.20772089977E+03  0.20772089977E+03  0.00000000000E+00 0.  1.
          4   -1    0    0  502    0 -0.00000000000E+00 -0.00000000000E+00 -0.42096503577E+03  0.42096695149E+03  0.12700000000E+01 0. -1.
         25    2    1    2    0    0 -0.60391169554E+02  0.99251785289E+01 -0.40455309375E+03  0.42782388549E+03  0.12499787518E+03 0.  0.
    9000005    1    3    3    0    0 -0.43445640032E+02 -0.45639207966E+02 -0.31380676222E+03  0.32007209337E+03  0.10000000000E+01 0.  0.
    9000005    1    3    3    0    0 -0.16945529522E+02  0.55564386495E+02 -0.90746331534E+02  0.10775179212E+03  0.10000000000E+01 0.  0.
          4    1    1    2  501    0  0.60391169554E+02 -0.99251785289E+01  0.19130895775E+03  0.20086396576E+03  0.12700000000E+01 0.  1.
<mgrwt>
<rscale>  1 0.13917640E+03</rscale>
<asrwt>0</asrwt>
<pdfrwt beam="1">  1       21 0.31957062E-01 0.13917640E+03</pdfrwt>
<pdfrwt beam="2">  1        4 0.64764297E-01 0.13917640E+03</pdfrwt>
<totfact> 0.88797273E+02</totfact>
</mgrwt>
</event>
<event>
 6    4  0.6277709E-003  0.1266930E+03  0.7818608E-02  0.1232447E+00
         21   -1    0    0  501  502  0.00000000000E+00  0.00000000000E+00  0.48589334155E+03  0.48589334155E+03  0.00000000000E+00 0. -1.
         -4   -1    0    0    0  501 -0.00000000000E+00 -0.00000000000E+00 -0.11928918296E+02  0.11996332427E+02  0.12700000000E+01 0. -1.
         25    2    1    2    0    0 -0.18396990499E+02 -0.93925047711E+01  0.35032371312E+03  0.37252896838E+03  0.12499783959E+03 0.  0.
    9000005    1    3    3    0    0 -0.56693478305E+02 -0.79595004919E+01  0.74034635504E+02  0.93592902427E+02  0.10000000000E+01 0.  0.
    9000005    1    3    3    0    0  0.38296487806E+02 -0.14330042792E+01  0.27628907762E+03  0.27893606596E+03  0.10000000000E+01 0.  0.
         -4    1    1    2    0  502  0.18396990499E+02  0.93925047711E+01  0.12364071013E+03  0.12536070560E+03  0.12700000000E+01 0.  1.
<mgrwt>
<rscale>  1 0.12669305E+03</rscale>
<asrwt>0</asrwt>
<pdfrwt beam="1">  1       21 0.74752807E-01 0.12669305E+03</pdfrwt>
<pdfrwt beam="2">  1       -4 0.18405319E-02 0.12669305E+03</pdfrwt>
<totfact> 0.74941547E+04</totfact>
</mgrwt>
</event>
<event>
 6    4  0.6277709E-003  0.1492466E+03  0.7818608E-02  0.1201402E+00
         21   -1    0    0  501  502  0.00000000000E+00  0.00000000000E+00  0.72775105668E+02  0.72775105668E+02  0.00000000000E+00 0.  1.
          4   -1    0    0  502    0 -0.00000000000E+00 -0.00000000000E+00 -0.50210032363E+03  0.50210192978E+03  0.12700000000E+01 0. -1.
         25    2    1    2    0    0 -0.22480027909E+02 -0.78385806501E+02 -0.46313680798E+03  0.48659044058E+03  0.12499947056E+03 0.  0.
    9000005    1    3    3    0    0 -0.59985369885E+02 -0.91167114456E+02 -0.32190518180E+03  0.33990238809E+03  0.10000000000E+01 0.  0.
    9000005    1    3    3    0    0  0.37505341976E+02  0.12781307955E+02 -0.14123162618E+03  0.14668805249E+03  0.10000000000E+01 0.  0.
          4    1    1    2  501    0  0.22480027909E+02  0.78385806501E+02  0.33811590013E+02  0.88286594876E+02  0.12700000000E+01 0.  1.
<mgrwt>
<rscale>  1 0.14924662E+03</rscale>
<asrwt>0</asrwt>
<pdfrwt beam="1">  1       21 0.11196170E-01 0.14924662E+03</pdfrwt>
<pdfrwt beam="2">  1        4 0.77247180E-01 0.14924662E+03</pdfrwt>
<totfact> 0.42292550E+03</totfact>
</mgrwt>
</event>
<event>
 6    4  0.6277709E-003  0.1283248E+03  0.7818608E-02  0.1229963E+00
         21   -1    0    0  501  502  0.00000000000E+00  0.00000000000E+00  0.59784341873E+02  0.59784341873E+02  0.00000000000E+00 0. -1.
         -4   -1    0    0    0  501 -0.00000000000E+00 -0.00000000000E+00 -0.10701553124E+03  0.10702306680E+03  0.12700000000E+01 0. -1.
         25    2    1    2    0    0 -0.34040265713E+01 -0.28812994742E+02 -0.26255351994E+02  0.13098318898E+03  0.12500190488E+03 0.  0.
    9000005    1    3    3    0    0  0.20654795924E+02  0.44658465231E+02  0.35552791354E+00  0.49215094347E+02  0.10000000000E+01 0.  0.
    9000005    1    3    3    0    0 -0.24058822495E+02 -0.73471459973E+02 -0.26610879908E+02  0.81768094633E+02  0.10000000000E+01 0.  0.
         -4    1    1    2    0  502  0.34040265713E+01  0.28812994742E+02 -0.20975837372E+02  0.35824219689E+02  0.12700000000E+01 0.  1.
<mgrwt>
<rscale>  1 0.12832479E+03</rscale>
<asrwt>0</asrwt>
<pdfrwt beam="1">  1       21 0.91975912E-02 0.12832479E+03</pdfrwt>
<pdfrwt beam="2">  1       -4 0.16465545E-01 0.12832479E+03</pdfrwt>
<totfact> 0.11989751E+05</totfact>
</mgrwt>
</event>
<event>
 6    4  0.6277709E-003  0.1266800E+03  0.7818608E-02  0.1232467E+00
         -4   -1    0    0    0  501 -0.00000000000E+00  0.00000000000E+00  0.55755120647E+03  0.55755265288E+03  0.12700000000E+01 0. -1.
         21   -1    0    0  501  502  0.00000000000E+00 -0.00000000000E+00 -0.29068124520E+02  0.29068124520E+02  0.00000000000E+00 0.  1.
         25    2    1    2    0    0 -0.18904714074E+02 -0.80794920932E+01  0.54542955964E+03  0.55994752464E+03  0.12500063765E+03 0.  0.
    9000005    1    3    3    0    0  0.19331468699E+02  0.43697091632E+02  0.37012101828E+03  0.37319393038E+03  0.10000000000E+01 0.  0.
    9000005    1    3    3    0    0 -0.38236182773E+02 -0.51776583725E+02  0.17530854137E+03  0.18675359427E+03  0.10000000000E+01 0.  0.
         -4    1    1    2    0  502  0.18904714074E+02  0.80794920932E+01 -0.16946477693E+02  0.26673252761E+02  0.12700000000E+01 0.  1.
<mgrwt>
<rscale>  1 0.12668001E+03</rscale>
<asrwt>0</asrwt>
<pdfrwt beam="2">  1       21 0.44720196E-02 0.12668001E+03</pdfrwt>
<pdfrwt beam="1">  1       -4 0.85779346E-01 0.12668001E+03</pdfrwt>
<totfact> 0.15966926E+04</totfact>
</mgrwt>
</event>
<event>
 6    4  0.6277709E-003  0.1313609E+03  0.7818608E-02  0.1225450E+00
         21   -1    0    0  501  502  0.00000000000E+00  0.00000000000E+00  0.33865828256E+03  0.33865828256E+03  0.00000000000E+00 0.  1.
         -4   -1    0    0    0  501 -0.00000000000E+00 -0.00000000000E+00 -0.24513345833E+02  0.24546222193E+02  0.12700000000E+01 0.  1.
         25    2    1    2    0    0 -0.23822092880E+02 -0.32594163276E+02  0.17818813325E+03  0.22137454705E+03  0.12500323061E+03 0.  0.
    9000005    1    3    3    0    0 -0.32517197076E+02  0.15367216574E+02  0.16768633427E+03  0.17150284590E+03  0.10000000000E+01 0.  0.
    9000005    1    3    3    0    0  0.86951041961E+01 -0.47961379849E+02  0.10501798976E+02  0.49871701152E+02  0.10000000000E+01 0.  0.
         -4    1    1    2    0  502  0.23822092880E+02  0.32594163276E+02  0.13595680348E+03  0.14182995770E+03  0.12700000000E+01 0. -1.
<mgrwt>
<rscale>  1 0.13136087E+03</rscale>
<asrwt>0</asrwt>
<pdfrwt beam="1">  1       21 0.52101271E-01 0.13136087E+03</pdfrwt>
<pdfrwt beam="2">  1       -4 0.37739963E-02 0.13136087E+03</pdfrwt>
<totfact> 0.53251206E+04</totfact>
</mgrwt>
</event>
<event>
 6    4  0.6277709E-003  0.1384264E+03  0.7818608E-02  0.1215462E+00
         -4   -1    0    0    0  501 -0.00000000000E+00  0.00000000000E+00  0.21118529028E+03  0.21118910893E+03  0.12700000000E+01 0. -1.
         21   -1    0    0  501  502  0.00000000000E+00 -0.00000000000E+00 -0.53360052768E+02  0.53360052768E+02  0.00000000000E+00 0.  1.
         25    2    1    2    0    0  0.26927962088E+02  0.53039878814E+02  0.15069860513E+03  0.20462633069E+03  0.12499408681E+03 0.  0.
    9000005    1    3    3    0    0  0.27872394775E+02  0.10572616762E+02 -0.15127048451E+02  0.33443657254E+02  0.10000000000E+01 0.  0.
    9000005    1    3    3    0    0 -0.94443268719E+00  0.42467262053E+02  0.16582565358E+03  0.17118267344E+03  0.10000000000E+01 0.  0.
         -4    1    1    2    0  502 -0.26927962088E+02 -0.53039878814E+02  0.71266323828E+01  0.59922831007E+02  0.12700000000E+01 0.  1.
<mgrwt>
<rscale>  1 0.13842639E+03</rscale>
<asrwt>0</asrwt>
<pdfrwt beam="2">  1       21 0.82092390E-02 0.13842639E+03</pdfrwt>
<pdfrwt beam="1">  1       -4 0.32491501E-01 0.13842639E+03</pdfrwt>
<totfact> 0.42496065E+04</totfact>
</mgrwt>
</event>
<event>
 6    4  0.6277709E-003  0.1390583E+03  0.7818608E-02  0.1214602E+00
         21   -1    0    0  501  502  0.00000000000E+00  0.00000000000E+00  0.25425329069E+03  0.25425329069E+03  0.00000000000E+00 0.  1.
          4   -1    0    0  502    0 -0.00000000000E+00 -0.00000000000E+00 -0.73937091604E+02  0.73947998045E+02  0.12700000000E+01 0. -1.
         25    2    1    2    0    0  0.60524334717E+02 -0.63612696549E+01  0.12416708387E+01  0.13906387728E+03  0.12503423281E+03 0.  0.
    9000005    1    3    3    0    0  0.52035967297E+02  0.39683570161E+02  0.41339819136E+02  0.77411292971E+02  0.10000000000E+01 0.  0.
    9000005    1    3    3    0    0  0.84883674203E+01 -0.46044839816E+02 -0.40098148298E+02  0.61652584310E+02  0.10000000000E+01 0.  0.
          4    1    1    2  501    0 -0.60524334717E+02  0.63612696549E+01  0.17907452825E+03  0.18913741146E+03  0.12700000000E+01 0.  1.
<mgrwt>
<rscale>  1 0.13905833E+03</rscale>
<asrwt>0</asrwt>
<pdfrwt beam="1">  1       21 0.39115890E-01 0.13905833E+03</pdfrwt>
<pdfrwt beam="2">  1        4 0.11376020E-01 0.13905833E+03</pdfrwt>
<totfact> 0.15763653E+04</totfact>
</mgrwt>
</event>
<event>
 6    4  0.6277709E-003  0.1289873E+03  0.7818608E-02  0.1228966E+00
         -4   -1    0    0    0  501 -0.00000000000E+00  0.00000000000E+00  0.43324647063E+02  0.43343257181E+02  0.12700000000E+01 0. -1.
         21   -1    0    0  501  502  0.00000000000E+00 -0.00000000000E+00 -0.40088177788E+03  0.40088177788E+03  0.00000000000E+00 0.  1.
         25    2    1    2    0    0 -0.17269949162E+02  0.26733743497E+02 -0.55379239284E+02  0.14037303948E+03  0.12499914354E+03 0.  0.
    9000005    1    3    3    0    0 -0.80626583721E+01 -0.55587059927E+00 -0.92791592681E+02  0.93148242734E+02  0.10000000000E+01 0.  0.
    9000005    1    3    3    0    0 -0.92072907895E+01  0.27289614096E+02  0.37412353397E+02  0.47224796749E+02  0.10000000000E+01 0.  0.
         -4    1    1    2    0  502  0.17269949162E+02 -0.26733743497E+02 -0.30217789153E+03  0.30385199558E+03  0.12700000000E+01 0.  1.
<mgrwt>
<rscale>  1 0.12898733E+03</rscale>
<asrwt>0</asrwt>
<pdfrwt beam="2">  1       21 0.61674120E-01 0.12898733E+03</pdfrwt>
<pdfrwt beam="1">  1       -4 0.66669165E-02 0.12898733E+03</pdfrwt>
<totfact> 0.14935605E+04</totfact>
</mgrwt>
</event>
<event>
 6    4  0.6277709E-003  0.1318585E+03  0.7818608E-02  0.1224724E+00
          4   -1    0    0  502    0 -0.00000000000E+00  0.00000000000E+00  0.56803079199E+01  0.58205496359E+01  0.12700000000E+01 0.  1.
         21   -1    0    0  501  502  0.00000000000E+00 -0.00000000000E+00 -0.28782146136E+04  0.28782146136E+04  0.00000000000E+00 0. -1.
         25    2    1    2    0    0  0.26780561777E+01 -0.41861806308E+02 -0.77903757738E+03  0.79011784225E+03  0.12500829918E+03 0.  0.
    9000005    1    3    3    0    0 -0.73067232336E+01 -0.83983222971E+02 -0.41216866856E+03  0.42070248548E+03  0.10000000000E+01 0.  0.
    9000005    1    3    3    0    0  0.99847794114E+01  0.42121416663E+02 -0.36686890882E+03  0.36941535677E+03  0.10000000000E+01 0.  0.
          4    1    1    2  501    0 -0.26780561777E+01  0.41861806308E+02 -0.20934967283E+04  0.20939173210E+04  0.12700000000E+01 0. -1.
<mgrwt>
<rscale>  1 0.13185848E+03</rscale>
<asrwt>0</asrwt>
<pdfrwt beam="2">  1       21 0.44280179E+00 0.13185848E+03</pdfrwt>
<pdfrwt beam="1">  1        4 0.88470382E-03 0.13185848E+03</pdfrwt>
<totfact> 0.73356569E+02</totfact>
</mgrwt>
</event>
<event>
 6    4  0.6277709E-003  0.1293222E+03  0.7818608E-02  0.1228465E+00
         21   -1    0    0  501  502  0.00000000000E+00  0.00000000000E+00  0.10136994412E+04  0.10136994412E+04  0.00000000000E+00 0.  1.
          4   -1    0    0  502    0 -0.00000000000E+00 -0.00000000000E+00 -0.66104617227E+01  0.67313523297E+01  0.12700000000E+01 0.  1.
         25    2    1    2    0    0 -0.39031019982E+01  0.32916488491E+02  0.73038067478E+03  0.74174131004E+03  0.12500204601E+03 0.  0.
    9000005    1    3    3    0    0  0.84360013289E+01  0.23535267258E+02  0.22378928041E+02  0.33569202308E+02  0.10000000000E+01 0.  0.
    9000005    1    3    3    0    0 -0.12339103327E+02  0.93812212329E+01  0.70800174674E+03  0.70817210773E+03  0.10000000000E+01 0.  0.
          4    1    1    2  501    0  0.39031019982E+01 -0.32916488491E+02  0.27670830472E+03  0.27868948351E+03  0.12700000000E+01 0. -1.
<mgrwt>
<rscale>  1 0.12932224E+03</rscale>
<asrwt>0</asrwt>
<pdfrwt beam="1">  1       21 0.15595364E+00 0.12932224E+03</pdfrwt>
<pdfrwt beam="2">  1        4 0.10263554E-02 0.12932224E+03</pdfrwt>
<totfact> 0.31447519E+04</totfact>
</mgrwt>
</event>
<event>
 6    4  0.6277709E-003  0.1281224E+03  0.7818608E-02  0.1230269E+00
          4   -1    0    0  502    0 -0.00000000000E+00  0.00000000000E+00  0.22001050302E+03  0.22001416850E+03  0.12700000000E+01 0. -1.
         21   -1    0    0  501  502  0.00000000000E+00 -0.00000000000E+00 -0.67246113026E+02  0.67246113026E+02  0.00000000000E+00 0.  1.
         25    2    1    2    0    0 -0.67531963979E+01  0.27289328731E+02  0.19690096581E+03  0.23491562231E+03  0.12500018457E+03 0.  0.
    9000005    1    3    3    0    0  0.21261187683E+02  0.50121743336E+02  0.26201959689E+02  0.60429876288E+02  0.10000000000E+01 0.  0.
    9000005    1    3    3    0    0 -0.28014384080E+02 -0.22832414605E+02  0.17069900612E+03  0.17448574602E+03  0.10000000000E+01 0.  0.
          4    1    1    2  501    0  0.67531963979E+01 -0.27289328731E+02 -0.44136575814E+02  0.52344659219E+02  0.12700000000E+01 0.  1.
<mgrwt>
<rscale>  1 0.12812244E+03</rscale>
<asrwt>0</asrwt>
<pdfrwt beam="2">  1       21 0.10345556E-01 0.12812244E+03</pdfrwt>
<pdfrwt beam="1">  1        4 0.33848974E-01 0.12812244E+03</pdfrwt>
<totfact> 0.26033416E+04</totfact>
</mgrwt>
</event>
<event>
 6    4  0.6277709E-003  0.1483289E+03  0.7818608E-02  0.1202542E+00
         21   -1    0    0  501  502  0.00000000000E+00  0.00000000000E+00  0.11781088327E+02  0.11781088327E+02  0.00000000000E+00 0. -1.
         -4   -1    0    0    0  501 -0.00000000000E+00 -0.00000000000E+00 -0.11443603742E+04  0.11443610789E+04  0.12700000000E+01 0. -1.
         25    2    1    2    0    0 -0.35120338534E+02 -0.71633780365E+02 -0.62705297043E+03  0.64435773491E+03  0.12504649596E+03 0.  0.
    9000005    1    3    3    0    0  0.26154285486E+02 -0.12502791940E+02 -0.41255359309E+03  0.41357204164E+03  0.10000000000E+01 0.  0.
    9000005    1    3    3    0    0 -0.61274624020E+02 -0.59130988425E+02 -0.21449937734E+03  0.23078569328E+03  0.10000000000E+01 0.  0.
         -4    1    1    2    0  502  0.35120338534E+02  0.71633780365E+02 -0.50552631544E+03  0.51178443232E+03  0.12700000000E+01 0.  1.
<mgrwt>
<rscale>  1 0.14832890E+03</rscale>
<asrwt>0</asrwt>
<pdfrwt beam="1">  1       21 0.18124748E-02 0.14832890E+03</pdfrwt>
<pdfrwt beam="2">  1       -4 0.17606079E+00 0.14832890E+03</pdfrwt>
<totfact> 0.12382489E+04</totfact>
</mgrwt>
</event>
<event>
 6    4  0.6277709E-003  0.1364092E+03  0.7818608E-02  0.1218244E+00
          4   -1    0    0  502    0 -0.00000000000E+00  0.00000000000E+00  0.47970607941E+03  0.47970776054E+03  0.12700000000E+01 0.  1.
         21   -1    0    0  501  502  0.00000000000E+00 -0.00000000000E+00 -0.11759010887E+03  0.11759010887E+03  0.00000000000E+00 0. -1.
         25    2    1    2    0    0  0.16538521200E+02  0.52043293360E+02  0.46294513204E+03  0.48262372334E+03  0.12500174390E+03 0.  0.
    9000005    1    3    3    0    0  0.74260493543E+01 -0.38095620991E+02  0.77607090507E+02  0.86777203485E+02  0.10000000000E+01 0.  0.
    9000005    1    3    3    0    0  0.91124718452E+01  0.90138914351E+02  0.38533804154E+03  0.39584651985E+03  0.10000000000E+01 0.  0.
          4    1    1    2  501    0 -0.16538521200E+02 -0.52043293360E+02 -0.10082916150E+03  0.11467414607E+03  0.12700000000E+01 0. -1.
<mgrwt>
<rscale>  1 0.13640918E+03</rscale>
<asrwt>0</asrwt>
<pdfrwt beam="2">  1       21 0.18090786E-01 0.13640918E+03</pdfrwt>
<pdfrwt beam="1">  1        4 0.73801591E-01 0.13640918E+03</pdfrwt>
<totfact> 0.19602672E+03</totfact>
</mgrwt>
</event>
<event>
 6    4  0.6277709E-003  0.1267197E+03  0.7818608E-02  0.1232406E+00
         21   -1    0    0  501  502  0.00000000000E+00  0.00000000000E+00  0.48762934519E+02  0.48762934519E+02  0.00000000000E+00 0.  1.
         -4   -1    0    0    0  501 -0.00000000000E+00 -0.00000000000E+00 -0.11227025589E+03  0.11227743878E+03  0.12700000000E+01 0.  1.
         25    2    1    2    0    0  0.20740790960E+02 -0.16015799050E+01 -0.58682910771E+02  0.13964800770E+03  0.12500054628E+03 0.  0.
    9000005    1    3    3    0    0  0.20825541266E+02 -0.62395565215E+02 -0.27327869890E+02  0.71237084445E+02  0.10000000000E+01 0.  0.
    9000005    1    3    3    0    0 -0.84750305640E-01  0.60793985310E+02 -0.31355040882E+02  0.68410923259E+02  0.10000000000E+01 0.  0.
         -4    1    1    2    0  502 -0.20740790960E+02  0.16015799050E+01 -0.48244106012E+01  0.21392365589E+02  0.12700000000E+01 0. -1.
<mgrwt>
<rscale>  1 0.12671970E+03</rscale>
<asrwt>0</asrwt>
<pdfrwt beam="1">  1       21 0.75019901E-02 0.12671970E+03</pdfrwt>
<pdfrwt beam="2">  1       -4 0.17274171E-01 0.12671970E+03</pdfrwt>
<totfact> 0.15636936E+05</totfact>
</mgrwt>
</event>
<event>
 6    4  0.6277709E-003  0.1268645E+03  0.7818608E-02  0.1232184E+00
         21   -1    0    0  501  502  0.00000000000E+00  0.00000000000E+00  0.12557480808E+03  0.12557480808E+03  0.00000000000E+00 0. -1.
          4   -1    0    0  502    0 -0.00000000000E+00 -0.00000000000E+00 -0.44977357247E+02  0.44995283808E+02  0.12700000000E+01 0. -1.
         25    2    1    2    0    0 -0.10360864996E+02 -0.19077799201E+02  0.58971532329E+02  0.13990083697E+03  0.12499317027E+03 0.  0.
    9000005    1    3    3    0    0 -0.65665963896E+02 -0.15425916663E+02  0.49475426424E+02  0.83658804313E+02  0.10000000000E+01 0.  0.
    9000005    1    3    3    0    0  0.55305098900E+02 -0.36518825382E+01  0.94961059051E+01  0.56242032660E+02  0.10000000000E+01 0.  0.
          4    1    1    2  501    0  0.10360864996E+02  0.19077799201E+02  0.21625918502E+02  0.30669254913E+02  0.12700000000E+01 0.  1.
<mgrwt>
<rscale>  1 0.12686450E+03</rscale>
<asrwt>0</asrwt>
<pdfrwt beam="1">  1       21 0.19319201E-01 0.12686450E+03</pdfrwt>
<pdfrwt beam="2">  1        4 0.69214665E-02 0.12686450E+03</pdfrwt>
<totfact> 0.13793705E+05</totfact>
</mgrwt>
</event>
<event>
 6    4  0.6277709E-003  0.1288649E+03  0.7818608E-02  0.1229150E+00
         -4   -1    0    0    0  501 -0.00000000000E+00  0.00000000000E+00  0.12140474341E+03  0.12141138588E+03  0.12700000000E+01 0. -1.
         21   -1    0    0  501  502  0.00000000000E+00 -0.00000000000E+00 -0.60085380337E+02  0.60085380337E+02  0.00000000000E+00 0.  1.
         25    2    1    2    0    0 -0.30151772740E+02  0.84737232375E+01  0.72928990771E+02  0.14807028360E+03  0.12500095122E+03 0.  0.
    9000005    1    3    3    0    0 -0.39929683724E+02  0.17038259665E+01 -0.26476508429E+02  0.47950893254E+02  0.10000000000E+01 0.  0.
    9000005    1    3    3    0    0  0.97779109834E+01  0.67698972710E+01  0.99405499200E+02  0.10011939035E+03  0.10000000000E+01 0.  0.
         -4    1    1    2    0  502  0.30151772740E+02 -0.84737232375E+01 -0.11609627701E+02  0.33426482619E+02  0.12700000000E+01 0.  1.
<mgrwt>
<rscale>  1 0.12886493E+03</rscale>
<asrwt>0</asrwt>
<pdfrwt beam="2">  1       21 0.92439047E-02 0.12886493E+03</pdfrwt>
<pdfrwt beam="1">  1       -4 0.18679196E-01 0.12886493E+03</pdfrwt>
<totfact> 0.95112279E+04</totfact>
</mgrwt>
</event>
<event>
 6    4  0.6277709E-003  0.1511799E+03  0.7818608E-02  0.1199031E+00
         21   -1    0    0  501  502  0.00000000000E+00  0.00000000000E+00  0.22764266706E+03  0.22764266706E+03  0.00000000000E+00 0.  1.
          4   -1    0    0  502    0 -0.00000000000E+00 -0.00000000000E+00 -0.81915603839E+02  0.81925448136E+02  0.12700000000E+01 0. -1.
         25    2    1    2    0    0 -0.36421867232E+00  0.85027441639E+02  0.12738300366E+02  0.15171558138E+03  0.12500221938E+03 0.  0.
    9000005    1    3    3    0    0  0.30338086078E+02  0.95507313097E+02 -0.23637158378E+02  0.10296485603E+03  0.10000000000E+01 0.  0.
    9000005    1    3    3    0    0 -0.30702304750E+02 -0.10479871458E+02  0.36375458744E+02  0.48750725344E+02  0.10000000000E+01 0.  0.
          4    1    1    2  501    0  0.36421867232E+00 -0.85027441639E+02  0.13298876285E+03  0.15785253382E+03  0.12700000000E+01 0.  1.
<mgrwt>
<rscale>  1 0.15117987E+03</rscale>
<asrwt>0</asrwt>
<pdfrwt beam="1">  1       21 0.35021948E-01 0.15117987E+03</pdfrwt>
<pdfrwt beam="2">  1        4 0.12603430E-01 0.15117987E+03</pdfrwt>
<totfact> 0.16585995E+04</totfact>
</mgrwt>
</event>
<event>
 6    4  0.6277709E-003  0.1596342E+03  0.7818608E-02  0.1189110E+00
          4   -1    0    0  502    0 -0.00000000000E+00  0.00000000000E+00  0.21261299221E+02  0.21299195867E+02  0.12700000000E+01 0.  1.
         21   -1    0    0  501  502  0.00000000000E+00 -0.00000000000E+00 -0.93921413774E+03  0.93921413774E+03  0.00000000000E+00 0. -1.
         25    2    1    2    0    0  0.69814989752E+02 -0.70593968541E+02 -0.36016680081E+03  0.39395837780E+03  0.12500175136E+03 0.  0.
    9000005    1    3    3    0    0 -0.20454196690E+02 -0.62383957956E+02 -0.19199885006E+03  0.20291547697E+03  0.10000000000E+01 0.  0.
    9000005    1    3    3    0    0  0.90269186442E+02 -0.82100105849E+01 -0.16816795075E+03  0.19104290082E+03  0.10000000000E+01 0.  0.
          4    1    1    2  501    0 -0.69814989752E+02  0.70593968541E+02 -0.55778603771E+03  0.56655495581E+03  0.12700000000E+01 0. -1.
<mgrwt>
<rscale>  1 0.15963420E+03</rscale>
<asrwt>0</asrwt>
<pdfrwt beam="2">  1       21 0.14449449E+00 0.15963420E+03</pdfrwt>
<pdfrwt beam="1">  1        4 0.32739501E-02 0.15963420E+03</pdfrwt>
<totfact> 0.65044545E+03</totfact>
</mgrwt>
</event>
<event>
 6    4  0.6277709E-003  0.1368567E+03  0.7818608E-02  0.1217622E+00
         -4   -1    0    0    0  501 -0.00000000000E+00  0.00000000000E+00  0.52080500353E+03  0.52080655200E+03  0.12700000000E+01 0. -1.
         21   -1    0    0  501  502  0.00000000000E+00 -0.00000000000E+00 -0.58736983546E+02  0.58736983546E+02  0.00000000000E+00 0.  1.
         25    2    1    2    0    0  0.40762918799E+02 -0.37991702017E+02  0.49583537350E+03  0.51437581321E+03  0.12499909850E+03 0.  0.
    9000005    1    3    3    0    0  0.70316822561E+01 -0.63787048578E+02  0.43767727698E+03  0.44235803475E+03  0.10000000000E+01 0.  0.
    9000005    1    3    3    0    0  0.33731236543E+02  0.25795346562E+02  0.58158096521E+02  0.72017778457E+02  0.10000000000E+01 0.  0.
         -4    1    1    2    0  502 -0.40762918799E+02  0.37991702017E+02 -0.33767353515E+02  0.65167722337E+02  0.12700000000E+01 0.  1.
<mgrwt>
<rscale>  1 0.13685671E+03</rscale>
<asrwt>0</asrwt>
<pdfrwt beam="2">  1       21 0.90364593E-02 0.13685671E+03</pdfrwt>
<pdfrwt beam="1">  1       -4 0.80125019E-01 0.13685671E+03</pdfrwt>
<totfact> 0.56482119E+03</totfact>
</mgrwt>
</event>
<event>
 6    4  0.6277709E-003  0.1276221E+03  0.7818608E-02  0.1231027E+00
         21   -1    0    0  501  502  0.00000000000E+00  0.00000000000E+00  0.15589767170E+02  0.15589767170E+02  0.00000000000E+00 0.  1.
          4   -1    0    0  502    0 -0.00000000000E+00 -0.00000000000E+00 -0.38739941965E+03  0.38740150135E+03  0.12700000000E+01 0.  1.
         25    2    1    2    0    0 -0.79491865893E+01 -0.24444591741E+02 -0.33092093555E+03  0.35467742262E+03  0.12500672342E+03 0.  0.
    9000005    1    3    3    0    0  0.12520109571E+02  0.76983686528E+00  0.75339101314E+01  0.14666478594E+02  0.10000000000E+01 0.  0.
    9000005    1    3    3    0    0 -0.20469296161E+02 -0.25214428606E+02 -0.33845484568E+03  0.34001094403E+03  0.10000000000E+01 0.  0.
          4    1    1    2  501    0  0.79491865893E+01  0.24444591741E+02 -0.40888716935E+02  0.48313845898E+02  0.12700000000E+01 0. -1.
<mgrwt>
<rscale>  1 0.12762213E+03</rscale>
<asrwt>0</asrwt>
<pdfrwt beam="1">  1       21 0.23984256E-02 0.12762213E+03</pdfrwt>
<pdfrwt beam="2">  1        4 0.59604052E-01 0.12762213E+03</pdfrwt>
<totfact> 0.97971649E+04</totfact>
</mgrwt>
</event>
<event>
 6    4  0.6277709E-003  0.1274317E+03  0.7818608E-02  0.1231317E+00
         -4   -1    0    0    0  501 -0.00000000000E+00  0.00000000000E+00  0.12527520475E+04  0.12527526912E+04  0.12700000000E+01 0. -1.
         21   -1    0    0  501  502  0.00000000000E+00 -0.00000000000E+00 -0.48264196603E+01  0.48264196603E+01  0.00000000000E+00 0. -1.
         25    2    1    2    0    0 -0.21812438007E+02 -0.11744204540E+02  0.11235870341E+04  0.11307902802E+04  0.12500050343E+03 0.  0.
    9000005    1    3    3    0    0  0.20125390704E+02 -0.43239194914E+02  0.19602140140E+03  0.20174253180E+03  0.10000000000E+01 0.  0.
    9000005    1    3    3    0    0 -0.41937828711E+02  0.31494990374E+02  0.92756563265E+03  0.92904774838E+03  0.10000000000E+01 0.  0.
         -4    1    1    2    0  502  0.21812438007E+02  0.11744204540E+02  0.12433859378E+03  0.12678883072E+03  0.12700000000E+01 0.  1.
<mgrwt>
<rscale>  1 0.12743169E+03</rscale>
<asrwt>0</asrwt>
<pdfrwt beam="2">  1       21 0.74252710E-03 0.12743169E+03</pdfrwt>
<pdfrwt beam="1">  1       -4 0.19274373E+00 0.12743169E+03</pdfrwt>
<totfact> 0.39157604E+04</totfact>
</mgrwt>
</event>
<event>
 6    4  0.6277709E-003  0.1500047E+03  0.7818608E-02  0.1200467E+00
         -4   -1    0    0    0  501 -0.00000000000E+00  0.00000000000E+00  0.81348284850E+02  0.81358197793E+02  0.12700000000E+01 0.  1.
         21   -1    0    0  501  502  0.00000000000E+00 -0.00000000000E+00 -0.17452156465E+03  0.17452156465E+03  0.00000000000E+00 0.  1.
         25    2    1    2    0    0 -0.75529970263E+02  0.34266885242E+02 -0.85289915039E+02  0.17255655936E+03  0.12498960253E+03 0.  0.
    9000005    1    3    3    0    0 -0.70053006059E+01 -0.37892024811E+02  0.41299600884E+01  0.38767723060E+02  0.10000000000E+01 0.  0.
    9000005    1    3    3    0    0 -0.68524669657E+02  0.72158910054E+02 -0.89419875128E+02  0.13378883630E+03  0.10000000000E+01 0.  0.
         -4    1    1    2    0  502  0.75529970263E+02 -0.34266885242E+02 -0.78833647642E+01  0.83323203083E+02  0.12700000000E+01 0. -1.
<mgrwt>
<rscale>  1 0.15000466E+03</rscale>
<asrwt>0</asrwt>
<pdfrwt beam="2">  1       21 0.26849471E-01 0.15000466E+03</pdfrwt>
<pdfrwt beam="1">  1       -4 0.12516239E-01 0.15000466E+03</pdfrwt>
<totfact> 0.28102075E+04</totfact>
</mgrwt>
</event>
<event>
 6    4  0.6277709E-003  0.1275960E+03  0.7818608E-02  0.1231067E+00
          4   -1    0    0  502    0 -0.00000000000E+00  0.00000000000E+00  0.13743853195E+02  0.13802405611E+02  0.12700000000E+01 0. -1.
         21   -1    0    0  501  502  0.00000000000E+00 -0.00000000000E+00 -0.57150331461E+03  0.57150331461E+03  0.00000000000E+00 0. -1.
         25    2    1    2    0    0  0.24862112462E+02  0.60846791450E+01 -0.29646154327E+03  0.32275408171E+03  0.12500241065E+03 0.  0.
    9000005    1    3    3    0    0 -0.12473817396E+02  0.29285173933E+02 -0.10650069193E+02  0.33580373830E+02  0.10000000000E+01 0.  0.
    9000005    1    3    3    0    0  0.37335929858E+02 -0.23200494788E+02 -0.28581147407E+03  0.28917370788E+03  0.10000000000E+01 0.  0.
          4    1    1    2  501    0 -0.24862112462E+02 -0.60846791450E+01 -0.26129791815E+03  0.26255163851E+03  0.12700000000E+01 0.  1.
<mgrwt>
<rscale>  1 0.12759604E+03</rscale>
<asrwt>0</asrwt>
<pdfrwt beam="2">  1       21 0.87923585E-01 0.12759604E+03</pdfrwt>
<pdfrwt beam="1">  1        4 0.21190516E-02 0.12759604E+03</pdfrwt>
<totfact> 0.41988514E+04</totfact>
</mgrwt>
</event>
<event>
 6    4  0.6277709E-003  0.1635724E+03  0.7818608E-02  0.1184722E+00
         21   -1    0    0  501  502  0.00000000000E+00  0.00000000000E+00  0.19206307854E+04  0.19206307854E+04  0.00000000000E+00 0.  1.
         -4   -1    0    0    0  501 -0.00000000000E+00 -0.00000000000E+00 -0.27719906778E+02  0.27748984338E+02  0.12700000000E+01 0. -1.
         25    2    1    2    0    0 -0.18894602900E+02  0.10380287217E+03  0.23059767673E+03  0.28272109030E+03  0.12499553632E+03 0.  0.
    9000005    1    3    3    0    0  0.38976752512E+02  0.93444957189E+02  0.11641063331E+03  0.15428409772E+03  0.10000000000E+01 0.  0.
    9000005    1    3    3    0    0 -0.57871355412E+02  0.10357914981E+02  0.11418704342E+03  0.12843699258E+03  0.10000000000E+01 0.  0.
         -4    1    1    2    0  502  0.18894602900E+02 -0.10380287217E+03  0.16623132019E+04  0.16656586794E+04  0.12700000000E+01 0.  1.
<mgrwt>
<rscale>  1 0.16357239E+03</rscale>
<asrwt>0</asrwt>
<pdfrwt beam="1">  1       21 0.29548156E+00 0.16357239E+03</pdfrwt>
<pdfrwt beam="2">  1       -4 0.42668716E-02 0.16357239E+03</pdfrwt>
<totfact> 0.47856293E+02</totfact>
</mgrwt>
</event>
<event>
 6    4  0.6277709E-003  0.1292998E+03  0.7818608E-02  0.1228498E+00
          4   -1    0    0  502    0 -0.00000000000E+00  0.00000000000E+00  0.10290918833E+03  0.10291702455E+03  0.12700000000E+01 0. -1.
         21   -1    0    0  501  502  0.00000000000E+00 -0.00000000000E+00 -0.10876254246E+03  0.10876254246E+03  0.00000000000E+00 0. -1.
         25    2    1    2    0    0 -0.78361492677E+01  0.32163988048E+02  0.56473824421E+02  0.14109474252E+03  0.12499002424E+03 0.  0.
    9000005    1    3    3    0    0  0.57206764178E+02  0.29057702832E+02  0.28561982250E+02  0.70240663377E+02  0.10000000000E+01 0.  0.
    9000005    1    3    3    0    0 -0.65042913446E+02  0.31062852152E+01  0.27911842171E+02  0.70854079139E+02  0.10000000000E+01 0.  0.
          4    1    1    2  501    0  0.78361492677E+01 -0.32163988048E+02 -0.62327178553E+02  0.70584824494E+02  0.12700000000E+01 0.  1.
<mgrwt>
<rscale>  1 0.12929978E+03</rscale>
<asrwt>0</asrwt>
<pdfrwt beam="2">  1       21 0.16732699E-01 0.12929978E+03</pdfrwt>
<pdfrwt beam="1">  1        4 0.15833356E-01 0.12929978E+03</pdfrwt>
<totfact> 0.44385973E+04</totfact>
</mgrwt>
</event>
<event>
 6    4  0.6277709E-003  0.1266321E+03  0.7818608E-02  0.1232540E+00
         -4   -1    0    0    0  501 -0.00000000000E+00  0.00000000000E+00  0.60950578758E+03  0.60950711070E+03  0.12700000000E+01 0.  1.
         21   -1    0    0  501  502  0.00000000000E+00 -0.00000000000E+00 -0.35332490512E+02  0.35332490512E+02  0.00000000000E+00 0. -1.
         25    2    1    2    0    0  0.19590746342E+02 -0.51766328165E+01  0.59930162445E+03  0.61253417432E+03  0.12500033110E+03 0.  0.
    9000005    1    3    3    0    0 -0.31246240176E+02 -0.44209653629E+02  0.38690470373E+03  0.39067514736E+03  0.10000000000E+01 0.  0.
    9000005    1    3    3    0    0  0.50836986518E+02  0.39033020812E+02  0.21239692072E+03  0.22185902696E+03  0.10000000000E+01 0.  0.
         -4    1    1    2    0  502 -0.19590746342E+02  0.51766328165E+01 -0.25128327381E+02  0.32305426890E+02  0.12700000000E+01 0. -1.
<mgrwt>
<rscale>  1 0.12663206E+03</rscale>
<asrwt>0</asrwt>
<pdfrwt beam="2">  1       21 0.54357682E-02 0.12663206E+03</pdfrwt>
<pdfrwt beam="1">  1       -4 0.93771971E-01 0.12663206E+03</pdfrwt>
<totfact> 0.94140225E+03</totfact>
</mgrwt>
</event>
<event>
 6    4  0.6277709E-003  0.1435637E+03  0.7818608E-02  0.1208613E+00
         21   -1    0    0  501  502  0.00000000000E+00  0.00000000000E+00  0.57857962585E+03  0.57857962585E+03  0.00000000000E+00 0.  1.
          4   -1    0    0  502    0 -0.00000000000E+00 -0.00000000000E+00 -0.53320381683E+02  0.53335504149E+02  0.12700000000E+01 0.  1.
         25    2    1    2    0    0 -0.33007484286E+02  0.62428807124E+02  0.50889709516E+02  0.15231642453E+03  0.12499472257E+03 0.  0.
    9000005    1    3    3    0    0 -0.38014366081E+02  0.66832408359E+02 -0.21318295215E+02  0.79794313999E+02  0.10000000000E+01 0.  0.
    9000005    1    3    3    0    0  0.50068817951E+01 -0.44036012357E+01  0.72208004732E+02  0.72522110535E+02  0.10000000000E+01 0.  0.
          4    1    1    2  501    0  0.33007484286E+02 -0.62428807124E+02  0.47436953465E+03  0.47959870546E+03  0.12700000000E+01 0. -1.
<mgrwt>
<rscale>  1 0.14356368E+03</rscale>
<asrwt>0</asrwt>
<pdfrwt beam="1">  1       21 0.89012246E-01 0.14356368E+03</pdfrwt>
<pdfrwt beam="2">  1        4 0.82044065E-02 0.14356368E+03</pdfrwt>
<totfact> 0.47515376E+03</totfact>
</mgrwt>
</event>
<event>
 6    4  0.6277709E-003  0.1363531E+03  0.7818608E-02  0.1218322E+00
         21   -1    0    0  501  502  0.00000000000E+00  0.00000000000E+00  0.36749849041E+03  0.36749849041E+03  0.00000000000E+00 0.  1.
         -4   -1    0    0    0  501 -0.00000000000E+00 -0.00000000000E+00 -0.26975288843E+02  0.27005168175E+02  0.12700000000E+01 0. -1.
         25    2    1    2    0    0  0.54174468688E+02 -0.56656175841E+01  0.18577689405E+03  0.23044572714E+03  0.12500082605E+03 0.  0.
    9000005    1    3    3    0    0  0.32652102370E+02 -0.21843082122E+02  0.19727568081E+03  0.20115162009E+03  0.10000000000E+01 0.  0.
    9000005    1    3    3    0    0  0.21522366317E+02  0.16177464538E+02 -0.11498786762E+02  0.29294107049E+02  0.10000000000E+01 0.  0.
         -4    1    1    2    0  502 -0.54174468688E+02  0.56656175841E+01  0.15474630752E+03  0.16405793145E+03  0.12700000000E+01 0.  1.
<mgrwt>
<rscale>  1 0.13635314E+03</rscale>
<asrwt>0</asrwt>
<pdfrwt beam="1">  1       21 0.56538226E-01 0.13635314E+03</pdfrwt>
<pdfrwt beam="2">  1       -4 0.41525119E-02 0.13635314E+03</pdfrwt>
<totfact> 0.38718381E+04</totfact>
</mgrwt>
</event>
<event>
 6    4  0.6277709E-003  0.1496122E+03  0.7818608E-02  0.1200950E+00
         21   -1    0    0  501  502  0.00000000000E+00  0.00000000000E+00  0.13864656504E+03  0.13864656504E+03  0.00000000000E+00 0. -1.
          4   -1    0    0  502    0 -0.00000000000E+00 -0.00000000000E+00 -0.19529740035E+03  0.19530152965E+03  0.12700000000E+01 0.  1.
         25    2    1    2    0    0 -0.78476553313E+02 -0.24499096443E+02 -0.14841357558E+03  0.21073775199E+03  0.12500014221E+03 0.  0.
    9000005    1    3    3    0    0 -0.33860618833E+02 -0.56049249115E+02 -0.14115065692E+03  0.15560388100E+03  0.10000000000E+01 0.  0.
    9000005    1    3    3    0    0 -0.44615934479E+02  0.31550152671E+02 -0.72629186570E+01  0.55133870991E+02  0.10000000000E+01 0.  0.
          4    1    1    2  501    0  0.78476553313E+02  0.24499096443E+02  0.91762740263E+02  0.12321034269E+03  0.12700000000E+01 0. -1.
<mgrwt>
<rscale>  1 0.14961220E+03</rscale>
<asrwt>0</asrwt>
<pdfrwt beam="1">  1       21 0.21330241E-01 0.14961220E+03</pdfrwt>
<pdfrwt beam="2">  1        4 0.30046519E-01 0.14961220E+03</pdfrwt>
<totfact> 0.89705264E+03</totfact>
</mgrwt>
</event>
<event>
 6    4  0.6277709E-003  0.1295842E+03  0.7818608E-02  0.1228074E+00
         21   -1    0    0  501  502  0.00000000000E+00  0.00000000000E+00  0.14472089321E+03  0.14472089321E+03  0.00000000000E+00 0. -1.
          4   -1    0    0  502    0 -0.00000000000E+00 -0.00000000000E+00 -0.73861859084E+02  0.73872776632E+02  0.12700000000E+01 0.  1.
         25    2    1    2    0    0  0.32298740474E+02  0.11080779389E+02 -0.10839874773E+02  0.13003681283E+03  0.12500430992E+03 0.  0.
    9000005    1    3    3    0    0  0.56283174946E+02  0.21808802256E+02 -0.53010882825E+02  0.80340359320E+02  0.10000000000E+01 0.  0.
    9000005    1    3    3    0    0 -0.23984434471E+02 -0.10728022868E+02  0.42171008053E+02  0.49696453513E+02  0.10000000000E+01 0.  0.
          4    1    1    2  501    0 -0.32298740474E+02 -0.11080779389E+02  0.81698908895E+02  0.88556857006E+02  0.12700000000E+01 0. -1.
<mgrwt>
<rscale>  1 0.12958422E+03</rscale>
<asrwt>0</asrwt>
<pdfrwt beam="1">  1       21 0.22264753E-01 0.12958422E+03</pdfrwt>
<pdfrwt beam="2">  1        4 0.11364631E-01 0.12958422E+03</pdfrwt>
<totfact> 0.46489650E+04</totfact>
</mgrwt>
</event>
<event>
 6    4  0.6277709E-003  0.1329979E+03  0.7818608E-02  0.1223074E+00
          4   -1    0    0  502    0 -0.00000000000E+00  0.00000000000E+00  0.11189895928E+04  0.11189903135E+04  0.12700000000E+01 0. -1.
         21   -1    0    0  501  502  0.00000000000E+00 -0.00000000000E+00 -0.18149392172E+02  0.18149392172E+02  0.00000000000E+00 0.  1.
         25    2    1    2    0    0  0.17690596035E+02  0.41840157855E+02  0.10781933792E+04  0.10863652296E+04  0.12499957247E+03 0.  0.
    9000005    1    3    3    0    0  0.32807854443E+02  0.27390962388E+02  0.10518379289E+04  0.10527063450E+04  0.10000000000E+01 0.  0.
    9000005    1    3    3    0    0 -0.15117258408E+02  0.14449195468E+02  0.26355450307E+02  0.33658884597E+02  0.10000000000E+01 0.  0.
          4    1    1    2  501    0 -0.17690596035E+02 -0.41840157855E+02  0.22646821384E+02  0.50774476031E+02  0.12700000000E+01 0.  1.
<mgrwt>
<rscale>  1 0.13299793E+03</rscale>
<asrwt>0</asrwt>
<pdfrwt beam="2">  1       21 0.27922151E-02 0.13299793E+03</pdfrwt>
<pdfrwt beam="1">  1        4 0.17215566E+00 0.13299793E+03</pdfrwt>
<totfact> 0.64644442E+03</totfact>
</mgrwt>
</event>
<event>
 6    4  0.6277709E-003  0.1420078E+03  0.7818608E-02  0.1210653E+00
          4   -1    0    0  502    0 -0.00000000000E+00  0.00000000000E+00  0.96377988172E+03  0.96378071848E+03  0.12700000000E+01 0. -1.
         21   -1    0    0  501  502  0.00000000000E+00 -0.00000000000E+00 -0.20819410850E+02  0.20819410850E+02  0.00000000000E+00 0.  1.
         25    2    1    2    0    0 -0.48772582666E+02 -0.46448335649E+02  0.88321749161E+03  0.89456097576E+03  0.12501995504E+03 0.  0.
    9000005    1    3    3    0    0 -0.17011432918E+02  0.78476165154E+01  0.71041774912E+03  0.71066542916E+03  0.10000000000E+01 0.  0.
    9000005    1    3    3    0    0 -0.31761149747E+02 -0.54295952165E+02  0.17279974248E+03  0.18389554659E+03  0.10000000000E+01 0.  0.
          4    1    1    2  501    0  0.48772582666E+02  0.46448335649E+02  0.59742979260E+02  0.90039153568E+02  0.12700000000E+01 0.  1.
<mgrwt>
<rscale>  1 0.14200775E+03</rscale>
<asrwt>0</asrwt>
<pdfrwt beam="2">  1       21 0.32029870E-02 0.14200775E+03</pdfrwt>
<pdfrwt beam="1">  1        4 0.14827684E+00 0.14200775E+03</pdfrwt>
<totfact> 0.76488537E+03</totfact>
</mgrwt>
</event>
<event>
 6    4  0.6277709E-003  0.1302216E+03  0.7818608E-02  0.1227127E+00
         -4   -1    0    0    0  501 -0.00000000000E+00  0.00000000000E+00  0.32310005014E+02  0.32334955142E+02  0.12700000000E+01 0.  1.
         21   -1    0    0  501  502  0.00000000000E+00 -0.00000000000E+00 -0.39950216643E+03  0.39950216643E+03  0.00000000000E+00 0.  1.
         25    2    1    2    0    0 -0.26967546437E+01 -0.36398531913E+02 -0.10545990552E+03  0.16756924179E+03  0.12500213402E+03 0.  0.
    9000005    1    3    3    0    0  0.32457653718E+02  0.31206339164E+02 -0.70663774051E+02  0.83795607594E+02  0.10000000000E+01 0.  0.
    9000005    1    3    3    0    0 -0.35154408362E+02 -0.67604871077E+02 -0.34796131473E+02  0.83773634194E+02  0.10000000000E+01 0.  0.
         -4    1    1    2    0  502  0.26967546437E+01  0.36398531913E+02 -0.26173225589E+03  0.26426787978E+03  0.12700000000E+01 0. -1.
<mgrwt>
<rscale>  1 0.13022158E+03</rscale>
<asrwt>0</asrwt>
<pdfrwt beam="2">  1       21 0.61461867E-01 0.13022158E+03</pdfrwt>
<pdfrwt beam="1">  1       -4 0.49728449E-02 0.13022158E+03</pdfrwt>
<totfact> 0.24210241E+04</totfact>
</mgrwt>
</event>
<event>
 6    4  0.6277709E-003  0.1322171E+03  0.7818608E-02  0.1224203E+00
         -4   -1    0    0    0  501 -0.00000000000E+00  0.00000000000E+00  0.19484277255E+03  0.19484691149E+03  0.12700000000E+01 0.  1.
         21   -1    0    0  501  502  0.00000000000E+00 -0.00000000000E+00 -0.56991258247E+02  0.56991258247E+02  0.00000000000E+00 0. -1.
         25    2    1    2    0    0 -0.41011202451E+02  0.13200928376E+02  0.15650014162E+03  0.20487470055E+03  0.12500066145E+03 0.  0.
    9000005    1    3    3    0    0 -0.49257054869E+02  0.46188462602E+02  0.15694160414E+03  0.17085461258E+03  0.10000000000E+01 0.  0.
    9000005    1    3    3    0    0  0.82458524176E+01 -0.32987534226E+02 -0.44146251285E+00  0.34020087971E+02  0.10000000000E+01 0.  0.
         -4    1    1    2    0  502  0.41011202451E+02 -0.13200928376E+02 -0.18648627318E+02  0.46963469179E+02  0.12700000000E+01 0. -1.
<mgrwt>
<rscale>  1 0.13221705E+03</rscale>
<asrwt>0</asrwt>
<pdfrwt beam="2">  1       21 0.87678860E-02 0.13221705E+03</pdfrwt>
<pdfrwt beam="1">  1       -4 0.29977218E-01 0.13221705E+03</pdfrwt>
<totfact> 0.43946697E+04</totfact>
</mgrwt>
</event>
<event>
 6    4  0.6277709E-003  0.1784299E+03  0.7818608E-02  0.1169331E+00
         21   -1    0    0  501  502  0.00000000000E+00  0.00000000000E+00  0.51053718882E+03  0.51053718882E+03  0.00000000000E+00 0. -1.
          4   -1    0    0  502    0 -0.00000000000E+00 -0.00000000000E+00 -0.47195821130E+02  0.47212905356E+02  0.12700000000E+01 0.  1.
         25    2    1    2    0    0 -0.10468709372E+03  0.72501165702E+02  0.22149799980E+03  0.28442677992E+03  0.12498568959E+03 0.  0.
    9000005    1    3    3    0    0 -0.53666441514E+02  0.10479212695E+03  0.15411743424E+03  0.19394499311E+03  0.10000000000E+01 0.  0.
    9000005    1    3    3    0    0 -0.51020652210E+02 -0.32290961249E+02  0.67380565561E+02  0.90481786817E+02  0.10000000000E+01 0.  0.
          4    1    1    2  501    0  0.10468709372E+03 -0.72501165702E+02  0.24184336790E+03  0.27332331425E+03  0.12700000000E+01 0. -1.
<mgrwt>
<rscale>  1 0.17842990E+03</rscale>
<asrwt>0</asrwt>
<pdfrwt beam="1">  1       21 0.78544179E-01 0.17842990E+03</pdfrwt>
<pdfrwt beam="2">  1        4 0.72623316E-02 0.17842990E+03</pdfrwt>
<totfact> 0.77993062E+03</totfact>
</mgrwt>
</event>
<event>
 6    4  0.6277709E-003  0.1284340E+03  0.7818608E-02  0.1229798E+00
          4   -1    0    0  502    0 -0.00000000000E+00  0.00000000000E+00  0.10752823990E+03  0.10753573953E+03  0.12700000000E+01 0. -1.
         21   -1    0    0  501  502  0.00000000000E+00 -0.00000000000E+00 -0.92085998272E+02  0.92085998272E+02  0.00000000000E+00 0. -1.
         25    2    1    2    0    0 -0.26656580574E+02 -0.12927344967E+02  0.63405267322E+02  0.14323242791E+03  0.12497044029E+03 0.  0.
    9000005    1    3    3    0    0 -0.26270635569E+02  0.49735309967E+02  0.57241977764E+02  0.80258279131E+02  0.10000000000E+01 0.  0.
    9000005    1    3    3    0    0 -0.38594500448E+00 -0.62662654934E+02  0.61632895583E+01  0.62974148784E+02  0.10000000000E+01 0.  0.
          4    1    1    2  501    0  0.26656580574E+02  0.12927344967E+02 -0.47963025694E+02  0.56389309887E+02  0.12700000000E+01 0.  1.
<mgrwt>
<rscale>  1 0.12843403E+03</rscale>
<asrwt>0</asrwt>
<pdfrwt beam="2">  1       21 0.14167077E-01 0.12843403E+03</pdfrwt>
<pdfrwt beam="1">  1        4 0.16544057E-01 0.12843403E+03</pdfrwt>
<totfact> 0.55458152E+04</totfact>
</mgrwt>
</event>
<event>
 6    4  0.6277709E-003  0.1269848E+03  0.7818608E-02  0.1232000E+00
         21   -1    0    0  501  502  0.00000000000E+00  0.00000000000E+00  0.13424056813E+03  0.13424056813E+03  0.00000000000E+00 0.  1.
         -4   -1    0    0    0  501 -0.00000000000E+00 -0.00000000000E+00 -0.50928264790E+02  0.50944097347E+02  0.12700000000E+01 0. -1.
         25    2    1    2    0    0  0.10305831653E+02 -0.19858915835E+02  0.34676606380E+02  0.13163440289E+03  0.12499824915E+03 0.  0.
    9000005    1    3    3    0    0 -0.56816798543E+02 -0.92829465667E+01  0.25815024528E+02  0.63101007797E+02  0.10000000000E+01 0.  0.
    9000005    1    3    3    0    0  0.67122630195E+02 -0.10575969268E+02  0.88615818516E+01  0.68533395095E+02  0.10000000000E+01 0.  0.
         -4    1    1    2    0  502 -0.10305831653E+02  0.19858915835E+02  0.48635696957E+02  0.53550262583E+02  0.12700000000E+01 0.  1.
<mgrwt>
<rscale>  1 0.12698484E+03</rscale>
<asrwt>0</asrwt>
<pdfrwt beam="1">  1       21 0.20652395E-01 0.12698484E+03</pdfrwt>
<pdfrwt beam="2">  1       -4 0.78367977E-02 0.12698484E+03</pdfrwt>
<totfact> 0.99415955E+04</totfact>
</mgrwt>
</event>
<event>
 6    4  0.6277709E-003  0.1280090E+03  0.7818608E-02  0.1230440E+00
         -4   -1    0    0    0  501 -0.00000000000E+00  0.00000000000E+00  0.40244153141E+02  0.40264187090E+02  0.12700000000E+01 0. -1.
         21   -1    0    0  501  502  0.00000000000E+00 -0.00000000000E+00 -0.16799870988E+03  0.16799870988E+03  0.00000000000E+00 0. -1.
         25    2    1    2    0    0 -0.24681551184E+02 -0.12407124559E+02 -0.12740710608E+03  0.18060698747E+03  0.12499278993E+03 0.  0.
    9000005    1    3    3    0    0 -0.23679855703E+02 -0.31733262085E+02  0.10795762328E+02  0.41052210330E+02  0.10000000000E+01 0.  0.
    9000005    1    3    3    0    0 -0.10016954809E+01  0.19326137527E+02 -0.13820286841E+03  0.13955477714E+03  0.10000000000E+01 0.  0.
         -4    1    1    2    0  502  0.24681551184E+02  0.12407124559E+02 -0.34745066242E+00  0.27655909507E+02  0.12700000000E+01 0.  1.
<mgrwt>
<rscale>  1 0.12800904E+03</rscale>
<asrwt>0</asrwt>
<pdfrwt beam="2">  1       21 0.25845956E-01 0.12800904E+03</pdfrwt>
<pdfrwt beam="1">  1       -4 0.61933185E-02 0.12800904E+03</pdfrwt>
<totfact> 0.96129226E+04</totfact>
</mgrwt>
</event>
<event>
 6    4  0.6277709E-003  0.1427707E+03  0.7818608E-02  0.1209649E+00
         21   -1    0    0  501  502  0.00000000000E+00  0.00000000000E+00  0.16083815650E+03  0.16083815650E+03  0.00000000000E+00 0.  1.
         -4   -1    0    0    0  501 -0.00000000000E+00 -0.00000000000E+00 -0.14615073395E+03  0.14615625178E+03  0.12700000000E+01 0. -1.
         25    2    1    2    0    0 -0.25690757934E+02 -0.64024177109E+02 -0.99189868211E+02  0.17384501644E+03  0.12499739792E+03 0.  0.
    9000005    1    3    3    0    0  0.40918052502E+02 -0.57398571101E+02 -0.27265142473E+02  0.75586182461E+02  0.10000000000E+01 0.  0.
    9000005    1    3    3    0    0 -0.66608810436E+02 -0.66256060086E+01 -0.71924725738E+02  0.98258833981E+02  0.10000000000E+01 0.  0.
         -4    1    1    2    0  502  0.25690757934E+02  0.64024177109E+02  0.11387729076E+03  0.13314939184E+03  0.12700000000E+01 0.  1.
<mgrwt>
<rscale>  1 0.14277065E+03</rscale>
<asrwt>0</asrwt>
<pdfrwt beam="1">  1       21 0.24744332E-01 0.14277065E+03</pdfrwt>
<pdfrwt beam="2">  1       -4 0.22485538E-01 0.14277065E+03</pdfrwt>
<totfact> 0.11587258E+04</totfact>
</mgrwt>
</event>
<event>
 6    4  0.6277709E-003  0.1266077E+03  0.7818608E-02  0.1232578E+00
         21   -1    0    0  501  502  0.00000000000E+00  0.00000000000E+00  0.68719576882E+03  0.68719576882E+03  0.00000000000E+00 0. -1.
          4   -1    0    0  502    0 -0.00000000000E+00 -0.00000000000E+00 -0.31385628532E+02  0.31411312904E+02  0.12700000000E+01 0.  1.
         25    2    1    2    0    0 -0.18621365766E+02 -0.76156886832E+01  0.97156257661E+02  0.15958961558E+03  0.12499901208E+03 0.  0.
    9000005    1    3    3    0    0 -0.43690187783E+02 -0.50228874509E+02  0.86237824302E+02  0.10894831198E+03  0.10000000000E+01 0.  0.
    9000005    1    3    3    0    0  0.25068822017E+02  0.42613185826E+02  0.10918433359E+02  0.50641303603E+02  0.10000000000E+01 0.  0.
          4    1    1    2  501    0  0.18621365766E+02  0.76156886832E+01  0.55865388263E+03  0.55901746614E+03  0.12700000000E+01 0. -1.
<mgrwt>
<rscale>  1 0.12660769E+03</rscale>
<asrwt>0</asrwt>
<pdfrwt beam="1">  1       21 0.10572241E+00 0.12660769E+03</pdfrwt>
<pdfrwt beam="2">  1        4 0.48306247E-02 0.12660769E+03</pdfrwt>
<totfact> 0.75018144E+03</totfact>
</mgrwt>
</event>
<event>
 6    4  0.6277709E-003  0.1273093E+03  0.7818608E-02  0.1231504E+00
         21   -1    0    0  501  502  0.00000000000E+00  0.00000000000E+00  0.10951716048E+03  0.10951716048E+03  0.00000000000E+00 0.  1.
         -4   -1    0    0    0  501 -0.00000000000E+00 -0.00000000000E+00 -0.13485811734E+03  0.13486409720E+03  0.12700000000E+01 0. -1.
         25    2    1    2    0    0  0.20680013168E+02 -0.12461795292E+02 -0.10254988158E+03  0.16347519954E+03  0.12499881347E+03 0.  0.
    9000005    1    3    3    0    0  0.66918567168E+02 -0.20411171927E+02 -0.27955468031E+02  0.75347320882E+02  0.10000000000E+01 0.  0.
    9000005    1    3    3    0    0 -0.46238554000E+02  0.79493766350E+01 -0.74594413548E+02  0.88127878662E+02  0.10000000000E+01 0.  0.
         -4    1    1    2    0  502 -0.20680013168E+02  0.12461795292E+02  0.77208924719E+02  0.80906058134E+02  0.12700000000E+01 0.  1.
<mgrwt>
<rscale>  1 0.12730932E+03</rscale>
<asrwt>0</asrwt>
<pdfrwt beam="1">  1       21 0.16848794E-01 0.12730932E+03</pdfrwt>
<pdfrwt beam="2">  1       -4 0.20748429E-01 0.12730932E+03</pdfrwt>
<totfact> 0.27055116E+04</totfact>
</mgrwt>
</event>
<event>
 6    4  0.6277709E-003  0.1282198E+03  0.7818608E-02  0.1230121E+00
         21   -1    0    0  501  502  0.00000000000E+00  0.00000000000E+00  0.91476437157E+01  0.91476437157E+01  0.00000000000E+00 0.  1.
         -4   -1    0    0    0  501 -0.00000000000E+00 -0.00000000000E+00 -0.71170078252E+03  0.71170191565E+03  0.12700000000E+01 0. -1.
         25    2    1    2    0    0 -0.13396634016E+02  0.25217372565E+02 -0.62904639073E+03  0.64198105745E+03  0.12499972300E+03 0.  0.
    9000005    1    3    3    0    0 -0.35226967585E+02 -0.36222347766E+02 -0.14484367810E+03  0.15340693859E+03  0.10000000000E+01 0.  0.
    9000005    1    3    3    0    0  0.21830333568E+02  0.61439720331E+02 -0.48420271263E+03  0.48857411886E+03  0.10000000000E+01 0.  0.
         -4    1    1    2    0  502  0.13396634016E+02 -0.25217372565E+02 -0.73506748075E+02  0.78868501917E+02  0.12700000000E+01 0.  1.
<mgrwt>
<rscale>  1 0.12821980E+03</rscale>
<asrwt>0</asrwt>
<pdfrwt beam="1">  1       21 0.14073301E-02 0.12821980E+03</pdfrwt>
<pdfrwt beam="2">  1       -4 0.10949927E+00 0.12821980E+03</pdfrwt>
<totfact> 0.60044885E+04</totfact>
</mgrwt>
</event>
<event>
 6    4  0.6277709E-003  0.1310121E+03  0.7818608E-02  0.1225962E+00
         21   -1    0    0  501  502  0.00000000000E+00  0.00000000000E+00  0.56809821937E+01  0.56809821937E+01  0.00000000000E+00 0. -1.
         -4   -1    0    0    0  501 -0.00000000000E+00 -0.00000000000E+00 -0.13976891541E+04  0.13976897311E+04  0.12700000000E+01 0. -1.
         25    2    1    2    0    0 -0.33839558270E+02 -0.19863964445E+02 -0.86069171850E+03  0.87060577511E+03  0.12499795426E+03 0.  0.
    9000005    1    3    3    0    0 -0.61548651510E+02  0.17015480779E+02 -0.71348139665E+03  0.71633404669E+03  0.10000000000E+01 0.  0.
    9000005    1    3    3    0    0  0.27709093240E+02 -0.36879445225E+02 -0.14721032185E+03  0.15427172842E+03  0.10000000000E+01 0.  0.
         -4    1    1    2    0  502  0.33839558270E+02  0.19863964445E+02 -0.53131645340E+03  0.53276493817E+03  0.12700000000E+01 0.  1.
<mgrwt>
<rscale>  1 0.13101214E+03</rscale>
<asrwt>0</asrwt>
<pdfrwt beam="1">  1       21 0.87399689E-03 0.13101214E+03</pdfrwt>
<pdfrwt beam="2">  1       -4 0.21504016E+00 0.13101214E+03</pdfrwt>
<totfact> 0.22192100E+04</totfact>
</mgrwt>
</event>
<event>
 6    4  0.6277709E-003  0.1279165E+03  0.7818608E-02  0.1230580E+00
          4   -1    0    0  502    0 -0.00000000000E+00  0.00000000000E+00  0.10924008810E+03  0.10924747021E+03  0.12700000000E+01 0. -1.
         21   -1    0    0  501  502  0.00000000000E+00 -0.00000000000E+00 -0.60052289663E+02  0.60052289663E+02  0.00000000000E+00 0. -1.
         25    2    1    2    0    0 -0.18257062732E+02  0.20087635134E+02  0.58385348794E+02  0.14061106424E+03  0.12500315599E+03 0.  0.
    9000005    1    3    3    0    0  0.67277572397E+01 -0.44157763678E+02 -0.74381593198E+01  0.45293454544E+02  0.10000000000E+01 0.  0.
    9000005    1    3    3    0    0 -0.24984819972E+02  0.64245398812E+02  0.65823508113E+02  0.95317609694E+02  0.10000000000E+01 0.  0.
          4    1    1    2  501    0  0.18257062732E+02 -0.20087635134E+02 -0.91975503570E+01  0.28688695639E+02  0.12700000000E+01 0.  1.
<mgrwt>
<rscale>  1 0.12791647E+03</rscale>
<asrwt>0</asrwt>
<pdfrwt beam="2">  1       21 0.92388138E-02 0.12791647E+03</pdfrwt>
<pdfrwt beam="1">  1        4 0.16807768E-01 0.12791647E+03</pdfrwt>
<totfact> 0.11468019E+05</totfact>
</mgrwt>
</event>
<event>
 6    4  0.6277709E-003  0.1320295E+03  0.7818608E-02  0.1224475E+00
         -4   -1    0    0    0  501 -0.00000000000E+00  0.00000000000E+00  0.77826832383E+02  0.77837193800E+02  0.12700000000E+01 0. -1.
         21   -1    0    0  501  502  0.00000000000E+00 -0.00000000000E+00 -0.23332133733E+03  0.23332133733E+03  0.00000000000E+00 0.  1.
         25    2    1    2    0    0 -0.33454424756E+02  0.26216277346E+02  0.17346247314E+02  0.13316406415E+03  0.12500113580E+03 0.  0.
    9000005    1    3    3    0    0  0.33802731224E+01  0.72657999947E+02  0.92225622259E+01  0.73325758480E+02  0.10000000000E+01 0.  0.
    9000005    1    3    3    0    0 -0.36834697879E+02 -0.46441722601E+02  0.81236850879E+01  0.59838305669E+02  0.10000000000E+01 0.  0.
         -4    1    1    2    0  502  0.33454424756E+02 -0.26216277346E+02 -0.17284075226E+03  0.17799446698E+03  0.12700000000E+01 0.  1.
<mgrwt>
<rscale>  1 0.13202945E+03</rscale>
<asrwt>0</asrwt>
<pdfrwt beam="2">  1       21 0.35895591E-01 0.13202945E+03</pdfrwt>
<pdfrwt beam="1">  1       -4 0.11974422E-01 0.13202945E+03</pdfrwt>
<totfact> 0.17052057E+04</totfact>
</mgrwt>
</event>
<event>
 6    4  0.6277709E-003  0.1268161E+03  0.7818608E-02  0.1232258E+00
         -4   -1    0    0    0  501 -0.00000000000E+00  0.00000000000E+00  0.10036227095E+03  0.10037030602E+03  0.12700000000E+01 0.  1.
         21   -1    0    0  501  502  0.00000000000E+00 -0.00000000000E+00 -0.87775036037E+02  0.87775036037E+02  0.00000000000E+00 0.  1.
         25    2    1    2    0    0 -0.17415162092E+02  0.12357699922E+02  0.56856568325E+02  0.13897840806E+03  0.12500531159E+03 0.  0.
    9000005    1    3    3    0    0 -0.42067749673E+01  0.17293925562E+02  0.95854230005E+02  0.97497744727E+02  0.10000000000E+01 0.  0.
    9000005    1    3    3    0    0 -0.13208387124E+02 -0.49362256404E+01 -0.38997661680E+02  0.41480663332E+02  0.10000000000E+01 0.  0.
         -4    1    1    2    0  502  0.17415162092E+02 -0.12357699922E+02 -0.44269333412E+02  0.49166933998E+02  0.12700000000E+01 0. -1.
<mgrwt>
<rscale>  1 0.12681612E+03</rscale>
<asrwt>0</asrwt>
<pdfrwt beam="2">  1       21 0.13503852E-01 0.12681612E+03</pdfrwt>
<pdfrwt beam="1">  1       -4 0.15441674E-01 0.12681612E+03</pdfrwt>
<totfact> 0.68089976E+04</totfact>
</mgrwt>
</event>
<event>
 6    4  0.6277709E-003  0.1290007E+03  0.7818608E-02  0.1228946E+00
          4   -1    0    0  502    0 -0.00000000000E+00  0.00000000000E+00  0.70784348930E+02  0.70795741069E+02  0.12700000000E+01 0. -1.
         21   -1    0    0  501  502  0.00000000000E+00 -0.00000000000E+00 -0.99300685831E+02  0.99300685831E+02  0.00000000000E+00 0. -1.
         25    2    1    2    0    0  0.15255786003E+02  0.27974682172E+02 -0.41723389291E+02  0.13558032947E+03  0.12500345065E+03 0.  0.
    9000005    1    3    3    0    0 -0.45392504993E+02  0.41537339357E+02 -0.15183222870E+01  0.61555953189E+02  0.10000000000E+01 0.  0.
    9000005    1    3    3    0    0  0.60648290996E+02 -0.13562657185E+02 -0.40205067004E+02  0.74024376279E+02  0.10000000000E+01 0.  0.
          4    1    1    2  501    0 -0.15255786003E+02 -0.27974682172E+02  0.13207052390E+02  0.34516097433E+02  0.12700000000E+01 0.  1.
<mgrwt>
<rscale>  1 0.12900072E+03</rscale>
<asrwt>0</asrwt>
<pdfrwt beam="2">  1       21 0.15277029E-01 0.12900072E+03</pdfrwt>
<pdfrwt beam="1">  1        4 0.10891401E-01 0.12900072E+03</pdfrwt>
<totfact> 0.99705894E+04</totfact>
</mgrwt>
</event>
<event>
 6    4  0.6277709E-003  0.1367550E+03  0.7818608E-02  0.1217763E+00
          4   -1    0    0  502    0 -0.00000000000E+00  0.00000000000E+00  0.99635199561E+01  0.10044134105E+02  0.12700000000E+01 0. -1.
         21   -1    0    0  501  502  0.00000000000E+00 -0.00000000000E+00 -0.12154943158E+04  0.12154943158E+04  0.00000000000E+00 0.  1.
         25    2    1    2    0    0  0.80367249444E+01  0.54892547460E+02 -0.51720446688E+03  0.53497887336E+03  0.12499661461E+03 0.  0.
    9000005    1    3    3    0    0  0.13327907654E+02  0.56022192563E+02 -0.52347662674E+03  0.52663545069E+03  0.10000000000E+01 0.  0.
    9000005    1    3    3    0    0 -0.52911827100E+01 -0.11296451039E+01  0.62721598587E+01  0.83434226685E+01  0.10000000000E+01 0.  0.
          4    1    1    2  501    0 -0.80367249444E+01 -0.54892547460E+02 -0.68832632898E+03  0.69055957656E+03  0.12700000000E+01 0.  1.
<mgrwt>
<rscale>  1 0.13675502E+03</rscale>
<asrwt>0</asrwt>
<pdfrwt beam="2">  1       21 0.18699899E+00 0.13675502E+03</pdfrwt>
<pdfrwt beam="1">  1        4 0.15391025E-02 0.13675502E+03</pdfrwt>
<totfact> 0.10420015E+04</totfact>
</mgrwt>
</event>
<event>
 6    4  0.6277709E-003  0.1280070E+03  0.7818608E-02  0.1230443E+00
         -4   -1    0    0    0  501 -0.00000000000E+00  0.00000000000E+00  0.29036497310E+03  0.29036775046E+03  0.12700000000E+01 0. -1.
         21   -1    0    0  501  502  0.00000000000E+00 -0.00000000000E+00 -0.36256699794E+02  0.36256699794E+02  0.00000000000E+00 0.  1.
         25    2    1    2    0    0 -0.72971986478E+01 -0.26573226223E+02  0.26705676669E+03  0.29615049677E+03  0.12500565845E+03 0.  0.
    9000005    1    3    3    0    0 -0.49123874983E+02  0.26082662224E+02  0.16319482735E+03  0.17241523145E+03  0.10000000000E+01 0.  0.
    9000005    1    3    3    0    0  0.41826676336E+02 -0.52655888448E+02  0.10386193934E+03  0.12373526532E+03  0.10000000000E+01 0.  0.
         -4    1    1    2    0  502  0.72971986478E+01  0.26573226223E+02 -0.12948493376E+02  0.30473953480E+02  0.12700000000E+01 0.  1.
<mgrwt>
<rscale>  1 0.12800703E+03</rscale>
<asrwt>0</asrwt>
<pdfrwt beam="2">  1       21 0.55779540E-02 0.12800703E+03</pdfrwt>
<pdfrwt beam="1">  1       -4 0.44673457E-01 0.12800703E+03</pdfrwt>
<totfact> 0.43735645E+04</totfact>
</mgrwt>
</event>
<event>
 6    4  0.6277709E-003  0.1275325E+03  0.7818608E-02  0.1231164E+00
          4   -1    0    0  502    0 -0.00000000000E+00  0.00000000000E+00  0.87511620599E+03  0.87511712753E+03  0.12700000000E+01 0.  1.
         21   -1    0    0  501  502  0.00000000000E+00 -0.00000000000E+00 -0.77268414797E+01  0.77268414797E+01  0.00000000000E+00 0.  1.
         25    2    1    2    0    0  0.19366592771E+02 -0.16261734859E+02  0.81183961799E+03  0.82179565883E+03  0.12500012242E+03 0.  0.
    9000005    1    3    3    0    0  0.26913760077E+02  0.47222428165E+02  0.22459898357E+03  0.23108442531E+03  0.10000000000E+01 0.  0.
    9000005    1    3    3    0    0 -0.75471673062E+01 -0.63484163024E+02  0.58724063442E+03  0.59071123352E+03  0.10000000000E+01 0.  0.
          4    1    1    2  501    0 -0.19366592771E+02  0.16261734859E+02  0.55549746523E+02  0.61048310172E+02  0.12700000000E+01 0. -1.
<mgrwt>
<rscale>  1 0.12753250E+03</rscale>
<asrwt>0</asrwt>
<pdfrwt beam="2">  1       21 0.11887455E-02 0.12753250E+03</pdfrwt>
<pdfrwt beam="1">  1        4 0.13464128E+00 0.12753250E+03</pdfrwt>
<totfact> 0.47719186E+04</totfact>
</mgrwt>
</event>
<event>
 6    4  0.6277709E-003  0.1311626E+03  0.7818608E-02  0.1225741E+00
         21   -1    0    0  501  502  0.00000000000E+00  0.00000000000E+00  0.55104361328E+01  0.55104361328E+01  0.00000000000E+00 0.  1.
          4   -1    0    0  502    0 -0.00000000000E+00 -0.00000000000E+00 -0.15778456043E+04  0.15778461154E+04  0.12700000000E+01 0.  1.
         25    2    1    2    0    0 -0.38786984132E+02  0.86154040385E+01 -0.14154215012E+04  0.14214857169E+04  0.12499984792E+03 0.  0.
    9000005    1    3    3    0    0  0.22630089003E+01 -0.22552094854E+02 -0.11911366221E+04  0.11913526643E+04  0.10000000000E+01 0.  0.
    9000005    1    3    3    0    0 -0.41049993032E+02  0.31167498892E+02 -0.22428487911E+03  0.23013305263E+03  0.10000000000E+01 0.  0.
          4    1    1    2  501    0  0.38786984132E+02 -0.86154040385E+01 -0.15691366696E+03  0.16187083463E+03  0.12700000000E+01 0. -1.
<mgrwt>
<rscale>  1 0.13116256E+03</rscale>
<asrwt>0</asrwt>
<pdfrwt beam="1">  1       21 0.84776058E-03 0.13116256E+03</pdfrwt>
<pdfrwt beam="2">  1        4 0.24275644E+00 0.13116256E+03</pdfrwt>
<totfact> 0.15992195E+04</totfact>
</mgrwt>
</event>
<event>
 6    4  0.6277709E-003  0.1313504E+03  0.7818608E-02  0.1225466E+00
         -4   -1    0    0    0  501 -0.00000000000E+00  0.00000000000E+00  0.10501303279E+03  0.10502071203E+03  0.12700000000E+01 0. -1.
         21   -1    0    0  501  502  0.00000000000E+00 -0.00000000000E+00 -0.99767443377E+02  0.99767443377E+02  0.00000000000E+00 0.  1.
         25    2    1    2    0    0  0.31199411715E+02 -0.25587314109E+02  0.53540032651E+02  0.14184309934E+03  0.12499926320E+03 0.  0.
    9000005    1    3    3    0    0 -0.12104507139E+01 -0.36052980446E+02 -0.32960380318E+02  0.48874014166E+02  0.10000000000E+01 0.  0.
    9000005    1    3    3    0    0  0.32409862429E+02  0.10465666336E+02  0.86500412970E+02  0.92969085176E+02  0.10000000000E+01 0.  0.
         -4    1    1    2    0  502 -0.31199411715E+02  0.25587314109E+02 -0.48294443243E+02  0.62945056063E+02  0.12700000000E+01 0.  1.
<mgrwt>
<rscale>  1 0.13135041E+03</rscale>
<asrwt>0</asrwt>
<pdfrwt beam="2">  1       21 0.15348837E-01 0.13135041E+03</pdfrwt>
<pdfrwt beam="1">  1       -4 0.16157064E-01 0.13135041E+03</pdfrwt>
<totfact> 0.50190841E+04</totfact>
</mgrwt>
</event>
<event>
 6    4  0.6277709E-003  0.1434334E+03  0.7818608E-02  0.1208782E+00
          4   -1    0    0  502    0 -0.00000000000E+00  0.00000000000E+00  0.13055764214E+03  0.13056381896E+03  0.12700000000E+01 0.  1.
         21   -1    0    0  501  502  0.00000000000E+00 -0.00000000000E+00 -0.12699489881E+03  0.12699489881E+03  0.00000000000E+00 0. -1.
         25    2    1    2    0    0 -0.68172155362E+02 -0.17326396619E+02  0.71054340761E+02  0.16006833153E+03  0.12500201851E+03 0.  0.
    9000005    1    3    3    0    0  0.32090497870E+02  0.60495072931E+01 -0.36362184509E+01  0.32872764968E+02  0.10000000000E+01 0.  0.
    9000005    1    3    3    0    0 -0.10026265323E+03 -0.23375903912E+02  0.74690559212E+02  0.12719556656E+03  0.10000000000E+01 0.  0.
          4    1    1    2  501    0  0.68172155362E+02  0.17326396619E+02 -0.67491597433E+02  0.97490386247E+02  0.12700000000E+01 0. -1.
<mgrwt>
<rscale>  1 0.14343344E+03</rscale>
<asrwt>0</asrwt>
<pdfrwt beam="2">  1       21 0.19537677E-01 0.14343344E+03</pdfrwt>
<pdfrwt beam="1">  1        4 0.20086755E-01 0.14343344E+03</pdfrwt>
<totfact> 0.22129309E+04</totfact>
</mgrwt>
</event>
<event>
 6    4  0.6277709E-003  0.1266367E+03  0.7818608E-02  0.1232533E+00
         21   -1    0    0  501  502  0.00000000000E+00  0.00000000000E+00  0.64050225062E+01  0.64050225062E+01  0.00000000000E+00 0.  1.
          4   -1    0    0  502    0 -0.00000000000E+00 -0.00000000000E+00 -0.12331000034E+04  0.12331006574E+04  0.12700000000E+01 0. -1.
         25    2    1    2    0    0  0.17977796703E+02 -0.95335930242E+01 -0.11958164405E+04  0.12025031431E+04  0.12499103703E+03 0.  0.
    9000005    1    3    3    0    0 -0.24974459213E+02  0.43005722336E+02 -0.29779260330E+03  0.30191828423E+03  0.10000000000E+01 0.  0.
    9000005    1    3    3    0    0  0.42952255916E+02 -0.52539315360E+02 -0.89802383719E+03  0.90058485892E+03  0.10000000000E+01 0.  0.
          4    1    1    2  501    0 -0.17977796703E+02  0.95335930242E+01 -0.30878540418E+02  0.37002536786E+02  0.12700000000E+01 0.  1.
<mgrwt>
<rscale>  1 0.12663668E+03</rscale>
<asrwt>0</asrwt>
<pdfrwt beam="1">  1       21 0.98538862E-03 0.12663668E+03</pdfrwt>
<pdfrwt beam="2">  1        4 0.18971732E+00 0.12663668E+03</pdfrwt>
<totfact> 0.26242786E+04</totfact>
</mgrwt>
</event>
<event>
 6    4  0.6277709E-003  0.1275789E+03  0.7818608E-02  0.1231093E+00
         21   -1    0    0  501  502  0.00000000000E+00  0.00000000000E+00  0.44667143354E+02  0.44667143354E+02  0.00000000000E+00 0. -1.
         -4   -1    0    0    0  501 -0.00000000000E+00 -0.00000000000E+00 -0.16723627611E+03  0.16724109826E+03  0.12700000000E+01 0. -1.
         25    2    1    2    0    0  0.24140227651E+02 -0.83786305400E+01 -0.13298374622E+03  0.18428525998E+03  0.12499371282E+03 0.  0.
    9000005    1    3    3    0    0  0.52126889934E+02 -0.32206650754E+02 -0.18457790693E+02  0.64001336269E+02  0.10000000000E+01 0.  0.
    9000005    1    3    3    0    0 -0.27986662283E+02  0.23828020214E+02 -0.11452595553E+03  0.12028392371E+03  0.10000000000E+01 0.  0.
         -4    1    1    2    0  502 -0.24140227651E+02  0.83786305400E+01  0.10414613466E+02  0.27622981635E+02  0.12700000000E+01 0.  1.
<mgrwt>
<rscale>  1 0.12757892E+03</rscale>
<asrwt>0</asrwt>
<pdfrwt beam="1">  1       21 0.68718681E-02 0.12757892E+03</pdfrwt>
<pdfrwt beam="2">  1       -4 0.25730418E-01 0.12757892E+03</pdfrwt>
<totfact> 0.88512705E+04</totfact>
</mgrwt>
</event>
<event>
 6    4  0.6277709E-003  0.1267524E+03  0.7818608E-02  0.1232356E+00
         21   -1    0    0  501  502  0.00000000000E+00  0.00000000000E+00  0.23654741124E+03  0.23654741124E+03  0.00000000000E+00 0. -1.
         -4   -1    0    0    0  501 -0.00000000000E+00 -0.00000000000E+00 -0.28742142981E+02  0.28770187402E+02  0.12700000000E+01 0.  1.
         25    2    1    2    0    0  0.62161912403E+01  0.20020994432E+02  0.11829988196E+03  0.17338116230E+03  0.12500673628E+03 0.  0.
    9000005    1    3    3    0    0  0.19025126865E+02  0.50441790139E+02  0.36195513451E+01  0.54041010322E+02  0.10000000000E+01 0.  0.
    9000005    1    3    3    0    0 -0.12808935624E+02 -0.30420795707E+02  0.11468033062E+03  0.11934015198E+03  0.10000000000E+01 0.  0.
         -4    1    1    2    0  502 -0.62161912403E+01 -0.20020994432E+02  0.89505386293E+02  0.91936436340E+02  0.12700000000E+01 0. -1.
<mgrwt>
<rscale>  1 0.12675238E+03</rscale>
<asrwt>0</asrwt>
<pdfrwt beam="1">  1       21 0.36391908E-01 0.12675238E+03</pdfrwt>
<pdfrwt beam="2">  1       -4 0.44242878E-02 0.12675238E+03</pdfrwt>
<totfact> 0.85140055E+04</totfact>
</mgrwt>
</event>
<event>
 6    4  0.6277709E-003  0.1364113E+03  0.7818608E-02  0.1218241E+00
          4   -1    0    0  502    0 -0.00000000000E+00  0.00000000000E+00  0.92785116984E+02  0.92793808165E+02  0.12700000000E+01 0.  1.
         21   -1    0    0  501  502  0.00000000000E+00 -0.00000000000E+00 -0.21319408622E+03  0.21319408622E+03  0.00000000000E+00 0. -1.
         25    2    1    2    0    0 -0.53043260088E+02 -0.13026942693E+02  0.35356472682E+02  0.14091889526E+03  0.12499906481E+03 0.  0.
    9000005    1    3    3    0    0 -0.76012287417E+01  0.37533902956E+02 -0.28419948786E+02  0.47699748831E+02  0.10000000000E+01 0.  0.
    9000005    1    3    3    0    0 -0.45442031346E+02 -0.50560845649E+02  0.63776421468E+02  0.93219146429E+02  0.10000000000E+01 0.  0.
          4    1    1    2  501    0  0.53043260088E+02  0.13026942693E+02 -0.15576544192E+03  0.16506899912E+03  0.12700000000E+01 0. -1.
<mgrwt>
<rscale>  1 0.13641134E+03</rscale>
<asrwt>0</asrwt>
<pdfrwt beam="2">  1       21 0.32799090E-01 0.13641134E+03</pdfrwt>
<pdfrwt beam="1">  1        4 0.14275593E-01 0.13641134E+03</pdfrwt>
<totfact> 0.15076189E+04</totfact>
</mgrwt>
</event>
<event>
 6    4  0.6277709E-003  0.1502799E+03  0.7818608E-02  0.1200130E+00
         21   -1    0    0  501  502  0.00000000000E+00  0.00000000000E+00  0.70667100047E+02  0.70667100047E+02  0.00000000000E+00 0.  1.
          4   -1    0    0  502    0 -0.00000000000E+00 -0.00000000000E+00 -0.32271071586E+03  0.32271321484E+03  0.12700000000E+01 0. -1.
         25    2    1    2    0    0 -0.80195061353E+02  0.23003958189E+02 -0.26909734743E+03  0.30821651612E+03  0.12499443370E+03 0.  0.
    9000005    1    3    3    0    0  0.29818374501E+02  0.74985642206E+01 -0.10960356923E+03  0.11383894901E+03  0.10000000000E+01 0.  0.
    9000005    1    3    3    0    0 -0.11001343585E+03  0.15505393968E+02 -0.15949377820E+03  0.19437756711E+03  0.10000000000E+01 0.  0.
          4    1    1    2  501    0  0.80195061353E+02 -0.23003958189E+02  0.17053731622E+02  0.85163798764E+02  0.12700000000E+01 0.  1.
<mgrwt>
<rscale>  1 0.15027987E+03</rscale>
<asrwt>0</asrwt>
<pdfrwt beam="1">  1       21 0.10871862E-01 0.15027987E+03</pdfrwt>
<pdfrwt beam="2">  1        4 0.49648872E-01 0.15027987E+03</pdfrwt>
<totfact> 0.11363663E+04</totfact>
</mgrwt>
</event>
<event>
 6    4  0.6277709E-003  0.1333485E+03  0.7818608E-02  0.1222570E+00
         21   -1    0    0  501  502  0.00000000000E+00  0.00000000000E+00  0.41511138326E+02  0.41511138326E+02  0.00000000000E+00 0. -1.
         -4   -1    0    0    0  501 -0.00000000000E+00 -0.00000000000E+00 -0.21404203547E+03  0.21404580315E+03  0.12700000000E+01 0. -1.
         25    2    1    2    0    0  0.26207513088E+02  0.38342202051E+02 -0.15827017377E+03  0.20695715412E+03  0.12499943014E+03 0.  0.
    9000005    1    3    3    0    0  0.25571326378E+02 -0.42709362947E+02 -0.41542505368E+02  0.64844137501E+02  0.10000000000E+01 0.  0.
    9000005    1    3    3    0    0  0.63618670955E+00  0.81051564997E+02 -0.11672766840E+03  0.14211301662E+03  0.10000000000E+01 0.  0.
         -4    1    1    2    0  502 -0.26207513088E+02 -0.38342202051E+02 -0.14260723374E+02  0.48599787360E+02  0.12700000000E+01 0.  1.
<mgrwt>
<rscale>  1 0.13334847E+03</rscale>
<asrwt>0</asrwt>
<pdfrwt beam="1">  1       21 0.63863290E-02 0.13334847E+03</pdfrwt>
<pdfrwt beam="2">  1       -4 0.32931328E-01 0.13334847E+03</pdfrwt>
<totfact> 0.63441243E+04</totfact>
</mgrwt>
</event>
<event>
 6    4  0.6277709E-003  0.1457800E+03  0.7818608E-02  0.1205756E+00
          4   -1    0    0  502    0 -0.00000000000E+00  0.00000000000E+00  0.98501444135E+01  0.99316788595E+01  0.12700000000E+01 0. -1.
         21   -1    0    0  501  502  0.00000000000E+00 -0.00000000000E+00 -0.13823744075E+04  0.13823744075E+04  0.00000000000E+00 0.  1.
         25    2    1    2    0    0 -0.65523547407E+02 -0.36523899565E+02 -0.66365838843E+03  0.67948088222E+03  0.12499792904E+03 0.  0.
    9000005    1    3    3    0    0 -0.41653472853E+02 -0.65938364426E+02 -0.20626029343E+03  0.22051573265E+03  0.10000000000E+01 0.  0.
    9000005    1    3    3    0    0 -0.23870074554E+02  0.29414464862E+02 -0.45739809501E+03  0.45896514957E+03  0.10000000000E+01 0.  0.
          4    1    1    2  501    0  0.65523547407E+02  0.36523899565E+02 -0.70886587467E+03  0.71282520416E+03  0.12700000000E+01 0.  1.
<mgrwt>
<rscale>  1 0.14578001E+03</rscale>
<asrwt>0</asrwt>
<pdfrwt beam="2">  1       21 0.21267276E+00 0.14578001E+03</pdfrwt>
<pdfrwt beam="1">  1        4 0.15217252E-02 0.14578001E+03</pdfrwt>
<totfact> 0.73038777E+03</totfact>
</mgrwt>
</event>
<event>
 6    4  0.6277709E-003  0.1273772E+03  0.7818608E-02  0.1231400E+00
         21   -1    0    0  501  502  0.00000000000E+00  0.00000000000E+00  0.10593092744E+03  0.10593092744E+03  0.00000000000E+00 0.  1.
          4   -1    0    0  502    0 -0.00000000000E+00 -0.00000000000E+00 -0.54803844064E+02  0.54818557298E+02  0.12700000000E+01 0.  1.
         25    2    1    2    0    0  0.24296911061E+02 -0.33338645510E+01  0.38114088866E+02  0.13295730120E+03  0.12499402238E+03 0.  0.
    9000005    1    3    3    0    0  0.15357851783E+02 -0.46391628742E+02 -0.25877550163E+02  0.55305464750E+02  0.10000000000E+01 0.  0.
    9000005    1    3    3    0    0  0.89390592776E+01  0.43057764191E+02  0.63991639029E+02  0.77651836447E+02  0.10000000000E+01 0.  0.
          4    1    1    2  501    0 -0.24296911061E+02  0.33338645510E+01  0.13012994513E+02  0.27792183544E+02  0.12700000000E+01 0. -1.
<mgrwt>
<rscale>  1 0.12737724E+03</rscale>
<asrwt>0</asrwt>
<pdfrwt beam="1">  1       21 0.16297066E-01 0.12737724E+03</pdfrwt>
<pdfrwt beam="2">  1        4 0.84330781E-02 0.12737724E+03</pdfrwt>
<totfact> 0.13598499E+05</totfact>
</mgrwt>
</event>
<event>
 6    4  0.6277709E-003  0.1275584E+03  0.7818608E-02  0.1231124E+00
         21   -1    0    0  501  502  0.00000000000E+00  0.00000000000E+00  0.16854442290E+03  0.16854442290E+03  0.00000000000E+00 0.  1.
         -4   -1    0    0    0  501 -0.00000000000E+00 -0.00000000000E+00 -0.34727210189E+02  0.34750424853E+02  0.12700000000E+01 0.  1.
         25    2    1    2    0    0  0.17307206710E+02 -0.18458432695E+02  0.10822884107E+03  0.16728608763E+03  0.12502359752E+03 0.  0.
    9000005    1    3    3    0    0  0.75136165855E+01  0.42979872745E+02  0.14094997380E+01  0.43665897276E+02  0.10000000000E+01 0.  0.
    9000005    1    3    3    0    0  0.97935901249E+01 -0.61438305440E+02  0.10681934133E+03  0.12362019036E+03  0.10000000000E+01 0.  0.
         -4    1    1    2    0  502 -0.17307206710E+02  0.18458432695E+02  0.25588371642E+02  0.36008760115E+02  0.12700000000E+01 0. -1.
<mgrwt>
<rscale>  1 0.12755843E+03</rscale>
<asrwt>0</asrwt>
<pdfrwt beam="1">  1       21 0.25929911E-01 0.12755843E+03</pdfrwt>
<pdfrwt beam="2">  1       -4 0.53448016E-02 0.12755843E+03</pdfrwt>
<totfact> 0.12121982E+05</totfact>
</mgrwt>
</event>
<event>
 6    4  0.6277709E-003  0.1293903E+03  0.7818608E-02  0.1228363E+00
         21   -1    0    0  501  502  0.00000000000E+00  0.00000000000E+00  0.74264088019E+03  0.74264088019E+03  0.00000000000E+00 0. -1.
          4   -1    0    0  502    0 -0.00000000000E+00 -0.00000000000E+00 -0.92971883818E+01  0.93835287503E+01  0.12700000000E+01 0. -1.
         25    2    1    2    0    0 -0.28268287199E+02 -0.17825172988E+02  0.50833373052E+03  0.52454269883E+03  0.12500011386E+03 0.  0.
    9000005    1    3    3    0    0 -0.44870055738E+02  0.30026568699E+02  0.10530920842E+03  0.11834671989E+03  0.10000000000E+01 0.  0.
    9000005    1    3    3    0    0  0.16601768539E+02 -0.47851741686E+02  0.40302452209E+03  0.40619597894E+03  0.10000000000E+01 0.  0.
          4    1    1    2  501    0  0.28268287199E+02  0.17825172988E+02  0.22500996130E+03  0.22748171011E+03  0.12700000000E+01 0.  1.
<mgrwt>
<rscale>  1 0.12939034E+03</rscale>
<asrwt>0</asrwt>
<pdfrwt beam="1">  1       21 0.11425240E+00 0.12939034E+03</pdfrwt>
<pdfrwt beam="2">  1        4 0.14370624E-02 0.12939034E+03</pdfrwt>
<totfact> 0.41261882E+04</totfact>
</mgrwt>
</event>
<event>
 6    4  0.6277709E-003  0.1359974E+03  0.7818608E-02  0.1218819E+00
         -4   -1    0    0    0  501 -0.00000000000E+00  0.00000000000E+00  0.10071506786E+04  0.10071514793E+04  0.12700000000E+01 0.  1.
         21   -1    0    0  501  502  0.00000000000E+00 -0.00000000000E+00 -0.89822774228E+01  0.89822774228E+01  0.00000000000E+00 0.  1.
         25    2    1    2    0    0  0.53404204473E+02  0.41585982641E+01  0.67668273994E+03  0.69021360353E+03  0.12500393979E+03 0.  0.
    9000005    1    3    3    0    0 -0.18105502053E+02  0.46899372447E+02  0.19500367652E+03  0.20138220923E+03  0.10000000000E+01 0.  0.
    9000005    1    3    3    0    0  0.71509706526E+02 -0.42740774183E+02  0.48167906342E+03  0.48883139429E+03  0.10000000000E+01 0.  0.
         -4    1    1    2    0  502 -0.53404204473E+02 -0.41585982641E+01  0.32148566125E+03  0.32592015323E+03  0.12700000000E+01 0. -1.
<mgrwt>
<rscale>  1 0.13599738E+03</rscale>
<asrwt>0</asrwt>
<pdfrwt beam="2">  1       21 0.13818896E-02 0.13599738E+03</pdfrwt>
<pdfrwt beam="1">  1       -4 0.15495314E+00 0.13599738E+03</pdfrwt>
<totfact> 0.26574845E+04</totfact>
</mgrwt>
</event>
<event>
 6    4  0.6277709E-003  0.1289395E+03  0.7818608E-02  0.1229038E+00
         21   -1    0    0  501  502  0.00000000000E+00  0.00000000000E+00  0.14843388029E+02  0.14843388029E+02  0.00000000000E+00 0.  1.
         -4   -1    0    0    0  501 -0.00000000000E+00 -0.00000000000E+00 -0.90173330449E+03  0.90173419883E+03  0.12700000000E+01 0. -1.
         25    2    1    2    0    0 -0.15082170802E+02  0.27799297157E+02 -0.87220548059E+03  0.88168463118E+03  0.12500046280E+03 0.  0.
    9000005    1    3    3    0    0 -0.44061272858E+02  0.66327751667E+02 -0.59677600544E+03  0.60206591589E+03  0.10000000000E+01 0.  0.
    9000005    1    3    3    0    0  0.28979102057E+02 -0.38528454510E+02 -0.27542947515E+03  0.27961871530E+03  0.10000000000E+01 0.  0.
         -4    1    1    2    0  502  0.15082170802E+02 -0.27799297157E+02 -0.14684435880E+02  0.34892955674E+02  0.12700000000E+01 0.  1.
<mgrwt>
<rscale>  1 0.12893948E+03</rscale>
<asrwt>0</asrwt>
<pdfrwt beam="1">  1       21 0.22835977E-02 0.12893948E+03</pdfrwt>
<pdfrwt beam="2">  1       -4 0.13873248E+00 0.12893948E+03</pdfrwt>
<totfact> 0.15587555E+04</totfact>
</mgrwt>
</event>
<event>
 6    4  0.6277709E-003  0.1272537E+03  0.7818608E-02  0.1231589E+00
         21   -1    0    0  501  502  0.00000000000E+00  0.00000000000E+00  0.14404004210E+02  0.14404004210E+02  0.00000000000E+00 0. -1.
          4   -1    0    0  502    0 -0.00000000000E+00 -0.00000000000E+00 -0.39649405678E+03  0.39649609072E+03  0.12700000000E+01 0. -1.
         25    2    1    2    0    0  0.19188207229E+02 -0.14164500436E+02 -0.32355954431E+03  0.34768416604E+03  0.12499872092E+03 0.  0.
    9000005    1    3    3    0    0  0.66236333868E+02  0.19884556883E+02 -0.17436125324E+03  0.18757796821E+03  0.10000000000E+01 0.  0.
    9000005    1    3    3    0    0 -0.47048126639E+02 -0.34049057320E+02 -0.14919829107E+03  0.16010619783E+03  0.10000000000E+01 0.  0.
          4    1    1    2  501    0 -0.19188207229E+02  0.14164500436E+02 -0.58530508257E+02  0.63215928895E+02  0.12700000000E+01 0.  1.
<mgrwt>
<rscale>  1 0.12725369E+03</rscale>
<asrwt>0</asrwt>
<pdfrwt beam="1">  1       21 0.22160009E-02 0.12725369E+03</pdfrwt>
<pdfrwt beam="2">  1        4 0.61003543E-01 0.12725369E+03</pdfrwt>
<totfact> 0.10604297E+05</totfact>
</mgrwt>
</event>
<event>
 6    4  0.6277709E-003  0.1267068E+03  0.7818608E-02  0.1232426E+00
         21   -1    0    0  501  502  0.00000000000E+00  0.00000000000E+00  0.34803370999E+02  0.34803370999E+02  0.00000000000E+00 0.  1.
         -4   -1    0    0    0  501 -0.00000000000E+00 -0.00000000000E+00 -0.15784007279E+03  0.15784518199E+03  0.12700000000E+01 0.  1.
         25    2    1    2    0    0  0.94052166406E+01  0.18470237305E+02 -0.11210643622E+03  0.16918173873E+03  0.12499999964E+03 0.  0.
    9000005    1    3    3    0    0  0.43577483054E+02 -0.61456728793E+01 -0.11864708556E+03  0.12654997921E+03  0.10000000000E+01 0.  0.
    9000005    1    3    3    0    0 -0.34172266414E+02  0.24615910185E+02  0.65406493415E+01  0.42631759521E+02  0.10000000000E+01 0.  0.
         -4    1    1    2    0  502 -0.94052166406E+01 -0.18470237305E+02 -0.10930265566E+02  0.23466814260E+02  0.12700000000E+01 0. -1.
<mgrwt>
<rscale>  1 0.12670678E+03</rscale>
<asrwt>0</asrwt>
<pdfrwt beam="1">  1       21 0.53543649E-02 0.12670678E+03</pdfrwt>
<pdfrwt beam="2">  1       -4 0.24285263E-01 0.12670678E+03</pdfrwt>
<totfact> 0.15019533E+05</totfact>
</mgrwt>
</event>
<event>
 6    4  0.6277709E-003  0.1276944E+03  0.7818608E-02  0.1230917E+00
         21   -1    0    0  501  502  0.00000000000E+00  0.00000000000E+00  0.74173564203E+02  0.74173564203E+02  0.00000000000E+00 0. -1.
          4   -1    0    0  502    0 -0.00000000000E+00 -0.00000000000E+00 -0.82198266172E+02  0.82208076621E+02  0.12700000000E+01 0. -1.
         25    2    1    2    0    0  0.26009372858E+02  0.21242628778E+01 -0.16857031500E+02  0.12880224790E+03  0.12499943833E+03 0.  0.
    9000005    1    3    3    0    0 -0.13786369046E+02 -0.45004561889E+02  0.25908437143E+02  0.53737525785E+02  0.10000000000E+01 0.  0.
    9000005    1    3    3    0    0  0.39795741904E+02  0.47128824767E+02 -0.42765468643E+02  0.75064722113E+02  0.10000000000E+01 0.  0.
          4    1    1    2  501    0 -0.26009372858E+02 -0.21242628778E+01  0.88323295310E+01  0.27579392926E+02  0.12700000000E+01 0.  1.
<mgrwt>
<rscale>  1 0.12769440E+03</rscale>
<asrwt>0</asrwt>
<pdfrwt beam="1">  1       21 0.11411318E-01 0.12769440E+03</pdfrwt>
<pdfrwt beam="2">  1        4 0.12647478E-01 0.12769440E+03</pdfrwt>
<totfact> 0.12986565E+05</totfact>
</mgrwt>
</event>
<event>
 6    4  0.6277709E-003  0.1291857E+03  0.7818608E-02  0.1228669E+00
          4   -1    0    0  502    0 -0.00000000000E+00  0.00000000000E+00  0.57670438435E+02  0.57684420507E+02  0.12700000000E+01 0. -1.
         21   -1    0    0  501  502  0.00000000000E+00 -0.00000000000E+00 -0.19249005050E+03  0.19249005050E+03  0.00000000000E+00 0.  1.
         25    2    1    2    0    0 -0.21106910393E+02 -0.24864681128E+02 -0.19899904139E+02  0.13070938739E+03  0.12500073493E+03 0.  0.
    9000005    1    3    3    0    0 -0.37443756740E+02 -0.43803899162E+02  0.37039343773E+02  0.68510798329E+02  0.10000000000E+01 0.  0.
    9000005    1    3    3    0    0  0.16336846347E+02  0.18939218034E+02 -0.56939247912E+02  0.62198589060E+02  0.10000000000E+01 0.  0.
          4    1    1    2  501    0  0.21106910393E+02  0.24864681128E+02 -0.11491970792E+03  0.11946508362E+03  0.12700000000E+01 0.  1.
<mgrwt>
<rscale>  1 0.12918567E+03</rscale>
<asrwt>0</asrwt>
<pdfrwt beam="2">  1       21 0.29613854E-01 0.12918567E+03</pdfrwt>
<pdfrwt beam="1">  1        4 0.88737729E-02 0.12918567E+03</pdfrwt>
<totfact> 0.41045875E+04</totfact>
</mgrwt>
</event>
<event>
 6    4  0.6277709E-003  0.1267247E+03  0.7818608E-02  0.1232398E+00
         21   -1    0    0  501  502  0.00000000000E+00  0.00000000000E+00  0.86534792901E+02  0.86534792901E+02  0.00000000000E+00 0.  1.
          4   -1    0    0  502    0 -0.00000000000E+00 -0.00000000000E+00 -0.68603552137E+02  0.68615306353E+02  0.12700000000E+01 0.  1.
         25    2    1    2    0    0 -0.20201171949E+02 -0.50967980728E+01 -0.13539056351E+01  0.12673189258E+03  0.12500029935E+03 0.  0.
    9000005    1    3    3    0    0 -0.61339690427E+02 -0.34338028182E+02  0.18156778803E+02  0.72610787199E+02  0.10000000000E+01 0.  0.
    9000005    1    3    3    0    0  0.41138518478E+02  0.29241230109E+02 -0.19510684438E+02  0.54121105385E+02  0.10000000000E+01 0.  0.
          4    1    1    2  501    0  0.20201171949E+02  0.50967980728E+01  0.19285146399E+02  0.28418206670E+02  0.12700000000E+01 0. -1.
<mgrwt>
<rscale>  1 0.12672466E+03</rscale>
<asrwt>0</asrwt>
<pdfrwt beam="1">  1       21 0.13313045E-01 0.12672466E+03</pdfrwt>
<pdfrwt beam="2">  1        4 0.10556014E-01 0.12672466E+03</pdfrwt>
<totfact> 0.13424028E+05</totfact>
</mgrwt>
</event>
<event>
 6    4  0.6277709E-003  0.1283400E+03  0.7818608E-02  0.1229940E+00
          4   -1    0    0  502    0 -0.00000000000E+00  0.00000000000E+00  0.47524271845E+03  0.47524441537E+03  0.12700000000E+01 0.  1.
         21   -1    0    0  501  502  0.00000000000E+00 -0.00000000000E+00 -0.21373022699E+02  0.21373022699E+02  0.00000000000E+00 0. -1.
         25    2    1    2    0    0 -0.10623842329E+02 -0.27041523773E+02  0.44918669868E+03  0.46716148119E+03  0.12500819655E+03 0.  0.
    9000005    1    3    3    0    0 -0.18148246822E+01 -0.70735937883E+02  0.16553112290E+03  0.18002338499E+03  0.10000000000E+01 0.  0.
    9000005    1    3    3    0    0 -0.88090176471E+01  0.43694414110E+02  0.28365557579E+03  0.28713809620E+03  0.10000000000E+01 0.  0.
          4    1    1    2  501    0  0.10623842329E+02  0.27041523773E+02  0.46829970697E+01  0.29455956874E+02  0.12700000000E+01 0. -1.
<mgrwt>
<rscale>  1 0.12834001E+03</rscale>
<asrwt>0</asrwt>
<pdfrwt beam="2">  1       21 0.32881577E-02 0.12834001E+03</pdfrwt>
<pdfrwt beam="1">  1        4 0.73117289E-01 0.12834001E+03</pdfrwt>
<totfact> 0.37853874E+04</totfact>
</mgrwt>
</event>
<event>
 6    4  0.6277709E-003  0.1280860E+03  0.7818608E-02  0.1230324E+00
          4   -1    0    0  502    0 -0.00000000000E+00  0.00000000000E+00  0.77156650812E+03  0.77156755333E+03  0.12700000000E+01 0.  1.
         21   -1    0    0  501  502  0.00000000000E+00 -0.00000000000E+00 -0.93223089024E+01  0.93223089024E+01  0.00000000000E+00 0.  1.
         25    2    1    2    0    0 -0.10609302760E+02  0.25857950926E+02  0.71155773424E+03  0.72299408032E+03  0.12499936037E+03 0.  0.
    9000005    1    3    3    0    0 -0.33745884981E+02  0.63198799176E+02  0.57729273082E+03  0.58172224474E+03  0.10000000000E+01 0.  0.
    9000005    1    3    3    0    0  0.23136582221E+02 -0.37340848250E+02  0.13426500342E+03  0.14127183558E+03  0.10000000000E+01 0.  0.
          4    1    1    2  501    0  0.10609302760E+02 -0.25857950926E+02  0.50686464982E+02  0.57895781914E+02  0.12700000000E+01 0. -1.
<mgrwt>
<rscale>  1 0.12808603E+03</rscale>
<asrwt>0</asrwt>
<pdfrwt beam="2">  1       21 0.14342020E-02 0.12808603E+03</pdfrwt>
<pdfrwt beam="1">  1        4 0.11870922E+00 0.12808603E+03</pdfrwt>
<totfact> 0.48119099E+04</totfact>
</mgrwt>
</event>
<event>
 6    4  0.6277709E-003  0.1304507E+03  0.7818608E-02  0.1226788E+00
         21   -1    0    0  501  502  0.00000000000E+00  0.00000000000E+00  0.45072261504E+02  0.45072261504E+02  0.00000000000E+00 0.  1.
          4   -1    0    0  502    0 -0.00000000000E+00 -0.00000000000E+00 -0.21447248494E+03  0.21447624506E+03  0.12700000000E+01 0. -1.
         25    2    1    2    0    0 -0.35537104118E+02 -0.11340710692E+02 -0.17854158148E+03  0.22112097977E+03  0.12500357552E+03 0.  0.
    9000005    1    3    3    0    0 -0.46392505561E+02  0.43803322990E+01 -0.19209940591E+03  0.19767304731E+03  0.10000000000E+01 0.  0.
    9000005    1    3    3    0    0  0.10855401442E+02 -0.15721042991E+02  0.13557824436E+02  0.23447932460E+02  0.10000000000E+01 0.  0.
          4    1    1    2  501    0  0.35537104118E+02  0.11340710692E+02  0.91413580439E+01  0.38427526788E+02  0.12700000000E+01 0.  1.
<mgrwt>
<rscale>  1 0.13045072E+03</rscale>
<asrwt>0</asrwt>
<pdfrwt beam="1">  1       21 0.69341943E-02 0.13045072E+03</pdfrwt>
<pdfrwt beam="2">  1        4 0.32997432E-01 0.13045072E+03</pdfrwt>
<totfact> 0.54756867E+04</totfact>
</mgrwt>
</event>
<event>
 6    4  0.6277709E-003  0.1363213E+03  0.7818608E-02  0.1218366E+00
          4   -1    0    0  502    0 -0.00000000000E+00  0.00000000000E+00  0.53165540450E+02  0.53180706947E+02  0.12700000000E+01 0. -1.
         21   -1    0    0  501  502  0.00000000000E+00 -0.00000000000E+00 -0.36921055223E+03  0.36921055223E+03  0.00000000000E+00 0.  1.
         25    2    1    2    0    0 -0.27392704888E+02  0.46990262608E+02 -0.41486812459E+02  0.14249438035E+03  0.12500019105E+03 0.  0.
    9000005    1    3    3    0    0 -0.49795274378E+01 -0.21238917534E+02  0.32644973878E+02  0.39275712992E+02  0.10000000000E+01 0.  0.
    9000005    1    3    3    0    0 -0.22413177450E+02  0.68229180142E+02 -0.74131786338E+02  0.10321866736E+03  0.10000000000E+01 0.  0.
          4    1    1    2  501    0  0.27392704888E+02 -0.46990262608E+02 -0.27455819932E+03  0.27989687882E+03  0.12700000000E+01 0.  1.
<mgrwt>
<rscale>  1 0.13632129E+03</rscale>
<asrwt>0</asrwt>
<pdfrwt beam="2">  1       21 0.56801624E-01 0.13632129E+03</pdfrwt>
<pdfrwt beam="1">  1        4 0.81806485E-02 0.13632129E+03</pdfrwt>
<totfact> 0.12751643E+04</totfact>
</mgrwt>
</event>
<event>
 6    4  0.6277709E-003  0.1284159E+03  0.7818608E-02  0.1229825E+00
         21   -1    0    0  501  502  0.00000000000E+00  0.00000000000E+00  0.26502213749E+02  0.26502213749E+02  0.00000000000E+00 0. -1.
         -4   -1    0    0    0  501 -0.00000000000E+00 -0.00000000000E+00 -0.26526732425E+03  0.26527036437E+03  0.12700000000E+01 0. -1.
         25    2    1    2    0    0  0.47131696945E+01 -0.29061437010E+02 -0.22540114111E+03  0.25941535841E+03  0.12499549062E+03 0.  0.
    9000005    1    3    3    0    0  0.14947342692E+02 -0.61483342373E+02 -0.49736822545E+02  0.80488359157E+02  0.10000000000E+01 0.  0.
    9000005    1    3    3    0    0 -0.10234172997E+02  0.32421905363E+02 -0.17566431856E+03  0.17892699925E+03  0.10000000000E+01 0.  0.
         -4    1    1    2    0  502 -0.47131696945E+01  0.29061437010E+02 -0.13363969390E+02  0.32357219712E+02  0.12700000000E+01 0.  1.
<mgrwt>
<rscale>  1 0.12841594E+03</rscale>
<asrwt>0</asrwt>
<pdfrwt beam="1">  1       21 0.40772636E-02 0.12841594E+03</pdfrwt>
<pdfrwt beam="2">  1       -4 0.40812932E-01 0.12841594E+03</pdfrwt>
<totfact> 0.88505995E+04</totfact>
</mgrwt>
</event>
<event>
 6    4  0.6277709E-003  0.1300303E+03  0.7818608E-02  0.1227411E+00
         21   -1    0    0  501  502  0.00000000000E+00  0.00000000000E+00  0.49179639589E+02  0.49179639589E+02  0.00000000000E+00 0.  1.
         -4   -1    0    0    0  501 -0.00000000000E+00 -0.00000000000E+00 -0.61074271399E+03  0.61074403443E+03  0.12700000000E+01 0. -1.
         25    2    1    2    0    0 -0.74237812392E+01  0.35005391753E+02 -0.59613471115E+03  0.61015118215E+03  0.12500952467E+03 0.  0.
    9000005    1    3    3    0    0 -0.63006837809E+02  0.33658964972E+02 -0.26906007467E+03  0.27838302986E+03  0.10000000000E+01 0.  0.
    9000005    1    3    3    0    0  0.55583056570E+02  0.13464267812E+01 -0.32707463649E+03  0.33176815229E+03  0.10000000000E+01 0.  0.
         -4    1    1    2    0  502  0.74237812392E+01 -0.35005391753E+02  0.34571636748E+02  0.49772491872E+02  0.12700000000E+01 0.  1.
<mgrwt>
<rscale>  1 0.13003027E+03</rscale>
<asrwt>0</asrwt>
<pdfrwt beam="1">  1       21 0.75660980E-02 0.13003027E+03</pdfrwt>
<pdfrwt beam="2">  1       -4 0.93961785E-01 0.13003027E+03</pdfrwt>
<totfact> 0.53501581E+03</totfact>
</mgrwt>
</event>
<event>
 6    4  0.6277709E-003  0.1280597E+03  0.7818608E-02  0.1230363E+00
         21   -1    0    0  501  502  0.00000000000E+00  0.00000000000E+00  0.39990444807E+02  0.39990444807E+02  0.00000000000E+00 0. -1.
          4   -1    0    0  502    0 -0.00000000000E+00 -0.00000000000E+00 -0.34185732700E+03  0.34185968602E+03  0.12700000000E+01 0. -1.
         25    2    1    2    0    0 -0.27796029047E+02  0.17171930847E+01 -0.32261286475E+03  0.34709992687E+03  0.12499492291E+03 0.  0.
    9000005    1    3    3    0    0 -0.11278830557E+02 -0.50795936901E+02 -0.25324540972E+03  0.25853757323E+03  0.10000000000E+01 0.  0.
    9000005    1    3    3    0    0 -0.16517198489E+02  0.52513129985E+02 -0.69367455024E+02  0.88562353646E+02  0.10000000000E+01 0.  0.
          4    1    1    2  501    0  0.27796029047E+02 -0.17171930847E+01  0.20745982551E+02  0.34750203954E+02  0.12700000000E+01 0.  1.
<mgrwt>
<rscale>  1 0.12805975E+03</rscale>
<asrwt>0</asrwt>
<pdfrwt beam="1">  1       21 0.61523765E-02 0.12805975E+03</pdfrwt>
<pdfrwt beam="2">  1        4 0.52595164E-01 0.12805975E+03</pdfrwt>
<totfact> 0.26622928E+04</totfact>
</mgrwt>
</event>
<event>
 6    4  0.6277709E-003  0.1272582E+03  0.7818608E-02  0.1231582E+00
          4   -1    0    0  502    0 -0.00000000000E+00  0.00000000000E+00  0.88156707730E+02  0.88165855169E+02  0.12700000000E+01 0.  1.
         21   -1    0    0  501  502  0.00000000000E+00 -0.00000000000E+00 -0.16880831475E+03  0.16880831475E+03  0.00000000000E+00 0. -1.
         25    2    1    2    0    0 -0.21402434947E+02 -0.10522505141E+02  0.40456072568E+02  0.13353402130E+03  0.12500341476E+03 0.  0.
    9000005    1    3    3    0    0 -0.77957808719E+01 -0.63274629501E+02 -0.30116775213E+01  0.63831991504E+02  0.10000000000E+01 0.  0.
    9000005    1    3    3    0    0 -0.13606654075E+02  0.52752124361E+02  0.43467750089E+02  0.69702029795E+02  0.10000000000E+01 0.  0.
          4    1    1    2  501    0  0.21402434947E+02  0.10522505141E+02 -0.12110767959E+03  0.12344014862E+03  0.12700000000E+01 0. -1.
<mgrwt>
<rscale>  1 0.12725817E+03</rscale>
<asrwt>0</asrwt>
<pdfrwt beam="2">  1       21 0.25970510E-01 0.12725817E+03</pdfrwt>
<pdfrwt beam="1">  1        4 0.13563642E-01 0.12725817E+03</pdfrwt>
<totfact> 0.25643644E+04</totfact>
</mgrwt>
</event>
<event>
 6    4  0.6277709E-003  0.1271316E+03  0.7818608E-02  0.1231775E+00
         21   -1    0    0  501  502  0.00000000000E+00  0.00000000000E+00  0.23127989322E+02  0.23127989322E+02  0.00000000000E+00 0. -1.
          4   -1    0    0  502    0 -0.00000000000E+00 -0.00000000000E+00 -0.30433397137E+03  0.30433662124E+03  0.12700000000E+01 0. -1.
         25    2    1    2    0    0  0.10572829892E+02  0.20587802923E+02 -0.27576032693E+03  0.30365472983E+03  0.12500717851E+03 0.  0.
    9000005    1    3    3    0    0  0.90110204487E+00  0.16783876562E+02 -0.28747203589E+03  0.28796472339E+03  0.10000000000E+01 0.  0.
    9000005    1    3    3    0    0  0.96717278475E+01  0.38039263614E+01  0.11711708961E+02  0.15690006441E+02  0.10000000000E+01 0.  0.
          4    1    1    2  501    0 -0.10572829892E+02 -0.20587802923E+02 -0.54456551227E+01  0.23809880740E+02  0.12700000000E+01 0.  1.
<mgrwt>
<rscale>  1 0.12713157E+03</rscale>
<asrwt>0</asrwt>
<pdfrwt beam="1">  1       21 0.35581521E-02 0.12713157E+03</pdfrwt>
<pdfrwt beam="2">  1        4 0.46823499E-01 0.12713157E+03</pdfrwt>
<totfact> 0.84232734E+04</totfact>
</mgrwt>
</event>
<event>
 6    4  0.6277709E-003  0.1285714E+03  0.7818608E-02  0.1229591E+00
         -4   -1    0    0    0  501 -0.00000000000E+00  0.00000000000E+00  0.59072588689E+02  0.59086238960E+02  0.12700000000E+01 0. -1.
         21   -1    0    0  501  502  0.00000000000E+00 -0.00000000000E+00 -0.18419501905E+03  0.18419501905E+03  0.00000000000E+00 0. -1.
         25    2    1    2    0    0 -0.15701765473E+02 -0.25557031149E+02 -0.15358351124E+02  0.12948550558E+03  0.12502363747E+03 0.  0.
    9000005    1    3    3    0    0 -0.51274664577E+02 -0.18038643009E+02 -0.53855168611E+02  0.76523611096E+02  0.10000000000E+01 0.  0.
    9000005    1    3    3    0    0  0.35572899104E+02 -0.75183881396E+01  0.38496817487E+02  0.52961894486E+02  0.10000000000E+01 0.  0.
         -4    1    1    2    0  502  0.15701765473E+02  0.25557031149E+02 -0.10976407924E+03  0.11379575243E+03  0.12700000000E+01 0.  1.
<mgrwt>
<rscale>  1 0.12857145E+03</rscale>
<asrwt>0</asrwt>
<pdfrwt beam="2">  1       21 0.28337695E-01 0.12857145E+03</pdfrwt>
<pdfrwt beam="1">  1       -4 0.90894773E-02 0.12857145E+03</pdfrwt>
<totfact> 0.42892050E+04</totfact>
</mgrwt>
</event>
<event>
 6    4  0.6277709E-003  0.2195365E+03  0.7818608E-02  0.1134229E+00
          4   -1    0    0  502    0 -0.00000000000E+00  0.00000000000E+00  0.14421121596E+03  0.14421680799E+03  0.12700000000E+01 0.  1.
         21   -1    0    0  501  502  0.00000000000E+00 -0.00000000000E+00 -0.52318433036E+03  0.52318433036E+03  0.00000000000E+00 0. -1.
         25    2    1    2    0    0 -0.18041714672E+03 -0.46579926513E+01  0.28852430697E+02  0.22142430951E+03  0.12499687341E+03 0.  0.
    9000005    1    3    3    0    0 -0.97962812203E+02 -0.29433254860E+02  0.72023600285E+02  0.12510566760E+03  0.10000000000E+01 0.  0.
    9000005    1    3    3    0    0 -0.82454334512E+02  0.24775262209E+02 -0.43171169588E+02  0.96318641918E+02  0.10000000000E+01 0.  0.
          4    1    1    2  501    0  0.18041714672E+03  0.46579926513E+01 -0.40782554510E+03  0.44597682883E+03  0.12700000000E+01 0. -1.
<mgrwt>
<rscale>  1 0.21953647E+03</rscale>
<asrwt>0</asrwt>
<pdfrwt beam="2">  1       21 0.80489896E-01 0.21953647E+03</pdfrwt>
<pdfrwt beam="1">  1        4 0.22186890E-01 0.21953647E+03</pdfrwt>
<totfact> 0.10642590E+03</totfact>
</mgrwt>
</event>
<event>
 6    4  0.6277709E-003  0.1326098E+03  0.7818608E-02  0.1223634E+00
         -4   -1    0    0    0  501 -0.00000000000E+00  0.00000000000E+00  0.39567201858E+02  0.39587578391E+02  0.12700000000E+01 0.  1.
         21   -1    0    0  501  502  0.00000000000E+00 -0.00000000000E+00 -0.29327387363E+03  0.29327387363E+03  0.00000000000E+00 0. -1.
         25    2    1    2    0    0  0.44514226328E+01  0.44049162363E+02 -0.82863926542E+02  0.15637065802E+03  0.12500083400E+03 0.  0.
    9000005    1    3    3    0    0  0.35668117387E+02  0.76710512263E+01 -0.99213294599E+02  0.10571346863E+03  0.10000000000E+01 0.  0.
    9000005    1    3    3    0    0 -0.31216694754E+02  0.36378111136E+02  0.16349368057E+02  0.50657189392E+02  0.10000000000E+01 0.  0.
         -4    1    1    2    0  502 -0.44514226328E+01 -0.44049162363E+02 -0.17084274523E+03  0.17649079399E+03  0.12700000000E+01 0. -1.
<mgrwt>
<rscale>  1 0.13260977E+03</rscale>
<asrwt>0</asrwt>
<pdfrwt beam="2">  1       21 0.45119058E-01 0.13260977E+03</pdfrwt>
<pdfrwt beam="1">  1       -4 0.60890407E-02 0.13260977E+03</pdfrwt>
<totfact> 0.33274495E+04</totfact>
</mgrwt>
</event>
<event>
 6    4  0.6277709E-003  0.1280069E+03  0.7818608E-02  0.1230443E+00
         -4   -1    0    0    0  501 -0.00000000000E+00  0.00000000000E+00  0.15603747635E+04  0.15603752803E+04  0.12700000000E+01 0. -1.
         21   -1    0    0  501  502  0.00000000000E+00 -0.00000000000E+00 -0.18634984378E+02  0.18634984378E+02  0.00000000000E+00 0.  1.
         25    2    1    2    0    0 -0.14087720766E+02  0.23729263201E+02  0.15457975371E+04  0.15510885866E+04  0.12499694353E+03 0.  0.
    9000005    1    3    3    0    0  0.48673799376E+02  0.71819095576E+01  0.33976292755E+03  0.34330826600E+03  0.10000000000E+01 0.  0.
    9000005    1    3    3    0    0 -0.62761520142E+02  0.16547353644E+02  0.12060346096E+04  0.12077803206E+04  0.10000000000E+01 0.  0.
         -4    1    1    2    0  502  0.14087720766E+02 -0.23729263201E+02 -0.40577580020E+01  0.27921678110E+02  0.12700000000E+01 0.  1.
<mgrwt>
<rscale>  1 0.12800694E+03</rscale>
<asrwt>0</asrwt>
<pdfrwt beam="2">  1       21 0.28669219E-02 0.12800694E+03</pdfrwt>
<pdfrwt beam="1">  1       -4 0.24006092E+00 0.12800694E+03</pdfrwt>
<totfact> 0.23556323E+03</totfact>
</mgrwt>
</event>
<event>
 6    4  0.6277709E-003  0.1269335E+03  0.7818608E-02  0.1232078E+00
          4   -1    0    0  502    0 -0.00000000000E+00  0.00000000000E+00  0.14942017394E+03  0.14942557104E+03  0.12700000000E+01 0. -1.
         21   -1    0    0  501  502  0.00000000000E+00 -0.00000000000E+00 -0.37129199765E+02  0.37129199765E+02  0.00000000000E+00 0. -1.
         25    2    1    2    0    0 -0.21112875722E+02  0.61987874456E+01  0.95530062928E+02  0.15886506996E+03  0.12501175562E+03 0.  0.
    9000005    1    3    3    0    0 -0.64035314789E+02 -0.14900739357E+02  0.88891870732E+02  0.11056816113E+03  0.10000000000E+01 0.  0.
    9000005    1    3    3    0    0  0.42922439067E+02  0.21099526802E+02  0.66381921961E+01  0.48296908829E+02  0.10000000000E+01 0.  0.
          4    1    1    2  501    0  0.21112875722E+02 -0.61987874456E+01  0.16760911244E+02  0.27689700843E+02  0.12700000000E+01 0.  1.
<mgrwt>
<rscale>  1 0.12693352E+03</rscale>
<asrwt>0</asrwt>
<pdfrwt beam="2">  1       21 0.57121847E-02 0.12693352E+03</pdfrwt>
<pdfrwt beam="1">  1        4 0.22989805E-01 0.12693352E+03</pdfrwt>
<totfact> 0.14892312E+05</totfact>
</mgrwt>
</event>
<event>
 6    4  0.6277709E-003  0.1402996E+03  0.7818608E-02  0.1212926E+00
         -4   -1    0    0    0  501 -0.00000000000E+00  0.00000000000E+00  0.24247744438E+03  0.24248077024E+03  0.12700000000E+01 0. -1.
         21   -1    0    0  501  502  0.00000000000E+00 -0.00000000000E+00 -0.18054828298E+03  0.18054828298E+03  0.00000000000E+00 0.  1.
         25    2    1    2    0    0 -0.41963220092E+02 -0.47941326301E+02  0.21528152770E+03  0.25696327180E+03  0.12499881712E+03 0.  0.
    9000005    1    3    3    0    0  0.25532312260E+02  0.16726201006E+01  0.14606773868E+03  0.14829524911E+03  0.10000000000E+01 0.  0.
    9000005    1    3    3    0    0 -0.67495532352E+02 -0.49613946402E+02  0.69213789022E+02  0.10866802269E+03  0.10000000000E+01 0.  0.
         -4    1    1    2    0  502  0.41963220092E+02  0.47941326301E+02 -0.15335236629E+03  0.16606578141E+03  0.12700000000E+01 0.  1.
<mgrwt>
<rscale>  1 0.14029963E+03</rscale>
<asrwt>0</asrwt>
<pdfrwt beam="2">  1       21 0.27776659E-01 0.14029963E+03</pdfrwt>
<pdfrwt beam="1">  1       -4 0.37304822E-01 0.14029963E+03</pdfrwt>
<totfact> 0.35779257E+03</totfact>
</mgrwt>
</event>
<event>
 6    4  0.6277709E-003  0.1350403E+03  0.7818608E-02  0.1220163E+00
         21   -1    0    0  501  502  0.00000000000E+00  0.00000000000E+00  0.87694397518E+02  0.87694397518E+02  0.00000000000E+00 0.  1.
         -4   -1    0    0    0  501 -0.00000000000E+00 -0.00000000000E+00 -0.16317542889E+03  0.16318037104E+03  0.12700000000E+01 0. -1.
         25    2    1    2    0    0  0.40139536686E+02  0.31616840139E+02 -0.12183191484E+03  0.18187604187E+03  0.12500028859E+03 0.  0.
    9000005    1    3    3    0    0  0.45188955710E+02 -0.22922612979E+02 -0.26999081318E+01  0.50752117275E+02  0.10000000000E+01 0.  0.
    9000005    1    3    3    0    0 -0.50494190244E+01  0.54539453118E+02 -0.11913200671E+03  0.13112392460E+03  0.10000000000E+01 0.  0.
         -4    1    1    2    0  502 -0.40139536686E+02 -0.31616840139E+02  0.46350883473E+02  0.68998726687E+02  0.12700000000E+01 0.  1.
<mgrwt>
<rscale>  1 0.13504029E+03</rscale>
<asrwt>0</asrwt>
<pdfrwt beam="1">  1       21 0.13491446E-01 0.13504029E+03</pdfrwt>
<pdfrwt beam="2">  1       -4 0.25105000E-01 0.13504029E+03</pdfrwt>
<totfact> 0.28716542E+04</totfact>
</mgrwt>
</event>
<event>
 6    4  0.6277709E-003  0.1269225E+03  0.7818608E-02  0.1232095E+00
          4   -1    0    0  502    0 -0.00000000000E+00  0.00000000000E+00  0.10775383080E+02  0.10849966844E+02  0.12700000000E+01 0. -1.
         21   -1    0    0  501  502  0.00000000000E+00 -0.00000000000E+00 -0.51552721117E+03  0.51552721117E+03  0.00000000000E+00 0. -1.
         25    2    1    2    0    0 -0.19820650924E+02 -0.95418684585E+01 -0.41602857862E+03  0.43495872608E+03  0.12500163884E+03 0.  0.
    9000005    1    3    3    0    0 -0.23533605597E+02 -0.25428776102E+02 -0.41713785403E+03  0.41857549201E+03  0.10000000000E+01 0.  0.
    9000005    1    3    3    0    0  0.37129546725E+01  0.15886907644E+02  0.11092754083E+01  0.16383234077E+02  0.10000000000E+01 0.  0.
          4    1    1    2  501    0  0.19820650924E+02  0.95418684585E+01 -0.88723249470E+02  0.91418451930E+02  0.12700000000E+01 0.  1.
<mgrwt>
<rscale>  1 0.12692248E+03</rscale>
<asrwt>0</asrwt>
<pdfrwt beam="2">  1       21 0.79311874E-01 0.12692248E+03</pdfrwt>
<pdfrwt beam="1">  1        4 0.16636089E-02 0.12692248E+03</pdfrwt>
<totfact> 0.76735362E+04</totfact>
</mgrwt>
</event>
<event>
 6    4  0.6277709E-003  0.1431307E+03  0.7818608E-02  0.1209177E+00
          4   -1    0    0  502    0 -0.00000000000E+00  0.00000000000E+00  0.21417427334E+03  0.21417803870E+03  0.12700000000E+01 0.  1.
         21   -1    0    0  501  502  0.00000000000E+00 -0.00000000000E+00 -0.25077350423E+03  0.25077350423E+03  0.00000000000E+00 0. -1.
         25    2    1    2    0    0 -0.42548195910E+02  0.55238077816E+02  0.18427390819E+03  0.23333083859E+03  0.12499925112E+03 0.  0.
    9000005    1    3    3    0    0 -0.21505878134E+02  0.94797860687E+02  0.11217148266E+03  0.14843375191E+03  0.10000000000E+01 0.  0.
    9000005    1    3    3    0    0 -0.21042317777E+02 -0.39559782872E+02  0.72102425532E+02  0.84897086674E+02  0.10000000000E+01 0.  0.
          4    1    1    2  501    0  0.42548195910E+02 -0.55238077816E+02 -0.22087313907E+03  0.23162070434E+03  0.12700000000E+01 0. -1.
<mgrwt>
<rscale>  1 0.14313073E+03</rscale>
<asrwt>0</asrwt>
<pdfrwt beam="2">  1       21 0.38580539E-01 0.14313073E+03</pdfrwt>
<pdfrwt beam="1">  1        4 0.32950425E-01 0.14313073E+03</pdfrwt>
<totfact> 0.23954667E+03</totfact>
</mgrwt>
</event>
<event>
 6    4  0.6277709E-003  0.1267033E+03  0.7818608E-02  0.1232431E+00
         -4   -1    0    0    0  501 -0.00000000000E+00  0.00000000000E+00  0.86871545928E+01  0.87794962793E+01  0.12700000000E+01 0. -1.
         21   -1    0    0  501  502  0.00000000000E+00 -0.00000000000E+00 -0.63901216730E+03  0.63901216730E+03  0.00000000000E+00 0. -1.
         25    2    1    2    0    0 -0.16235551298E+02  0.12871136861E+02 -0.49891165525E+03  0.51474902865E+03  0.12499785384E+03 0.  0.
    9000005    1    3    3    0    0  0.49854466521E+02  0.28300867027E+02 -0.18969714915E+03  0.19817269061E+03  0.10000000000E+01 0.  0.
    9000005    1    3    3    0    0 -0.66090017818E+02 -0.15429730166E+02 -0.30921450610E+03  0.31657633804E+03  0.10000000000E+01 0.  0.
         -4    1    1    2    0  502  0.16235551298E+02 -0.12871136861E+02 -0.13141335746E+03  0.13304263493E+03  0.12700000000E+01 0.  1.
<mgrwt>
<rscale>  1 0.12670329E+03</rscale>
<asrwt>0</asrwt>
<pdfrwt beam="2">  1       21 0.98309568E-01 0.12670329E+03</pdfrwt>
<pdfrwt beam="1">  1       -4 0.13436856E-02 0.12670329E+03</pdfrwt>
<totfact> 0.65128201E+04</totfact>
</mgrwt>
</event>
<event>
 6    4  0.6277709E-003  0.1323517E+03  0.7818608E-02  0.1224007E+00
         21   -1    0    0  501  502  0.00000000000E+00  0.00000000000E+00  0.28163747791E+02  0.28163747791E+02  0.00000000000E+00 0. -1.
          4   -1    0    0  502    0 -0.00000000000E+00 -0.00000000000E+00 -0.47036000119E+03  0.47036171572E+03  0.12700000000E+01 0.  1.
         25    2    1    2    0    0 -0.40252361248E+02  0.16478524017E+02 -0.43466097779E+03  0.45436453487E+03  0.12500068240E+03 0.  0.
    9000005    1    3    3    0    0 -0.63463267030E+02  0.13655655374E+02 -0.42347950174E+03  0.42842730023E+03  0.10000000000E+01 0.  0.
    9000005    1    3    3    0    0  0.23210905783E+02  0.28228686425E+01 -0.11181476048E+02  0.25937234649E+02  0.10000000000E+01 0.  0.
          4    1    1    2  501    0  0.40252361248E+02 -0.16478524017E+02 -0.75352756101E+01  0.44160928639E+02  0.12700000000E+01 0. -1.
<mgrwt>
<rscale>  1 0.13235167E+03</rscale>
<asrwt>0</asrwt>
<pdfrwt beam="1">  1       21 0.43328844E-02 0.13235167E+03</pdfrwt>
<pdfrwt beam="2">  1        4 0.72365409E-01 0.13235167E+03</pdfrwt>
<totfact> 0.24599725E+04</totfact>
</mgrwt>
</event>
<event>
 6    4  0.6277709E-003  0.1274335E+03  0.7818608E-02  0.1231314E+00
          4   -1    0    0  502    0 -0.00000000000E+00  0.00000000000E+00  0.65163605486E+03  0.65163729243E+03  0.12700000000E+01 0.  1.
         21   -1    0    0  501  502  0.00000000000E+00 -0.00000000000E+00 -0.13538948547E+02  0.13538948547E+02  0.00000000000E+00 0.  1.
         25    2    1    2    0    0  0.19336478219E+02  0.15507067384E+02  0.62348611355E+03  0.63637584969E+03  0.12499967903E+03 0.  0.
    9000005    1    3    3    0    0 -0.38313875147E+02  0.29401975073E+01  0.70920156021E+02  0.80667628700E+02  0.10000000000E+01 0.  0.
    9000005    1    3    3    0    0  0.57650353366E+02  0.12566869876E+02  0.55256595753E+03  0.55570822099E+03  0.10000000000E+01 0.  0.
          4    1    1    2  501    0 -0.19336478219E+02 -0.15507067384E+02  0.14610992761E+02  0.28800391286E+02  0.12700000000E+01 0. -1.
<mgrwt>
<rscale>  1 0.12743347E+03</rscale>
<asrwt>0</asrwt>
<pdfrwt beam="2">  1       21 0.20829157E-02 0.12743347E+03</pdfrwt>
<pdfrwt beam="1">  1        4 0.10025635E+00 0.12743347E+03</pdfrwt>
<totfact> 0.39298293E+04</totfact>
</mgrwt>
</event>
<event>
 6    4  0.6277709E-003  0.1398024E+03  0.7818608E-02  0.1213595E+00
          4   -1    0    0  502    0 -0.00000000000E+00  0.00000000000E+00  0.31239827375E+03  0.31240085522E+03  0.12700000000E+01 0.  1.
         21   -1    0    0  501  502  0.00000000000E+00 -0.00000000000E+00 -0.35275163991E+02  0.35275163991E+02  0.00000000000E+00 0.  1.
         25    2    1    2    0    0  0.14549055787E+02 -0.60897524331E+02  0.14476357301E+03  0.20124909764E+03  0.12499809492E+03 0.  0.
    9000005    1    3    3    0    0  0.46062268982E+01 -0.84964709100E+01 -0.23128145339E+02  0.25086220341E+02  0.10000000000E+01 0.  0.
    9000005    1    3    3    0    0  0.99428288892E+01 -0.52401053421E+02  0.16789171835E+03  0.17616287730E+03  0.10000000000E+01 0.  0.
          4    1    1    2  501    0 -0.14549055787E+02  0.60897524331E+02  0.13235953675E+03  0.14642692157E+03  0.12700000000E+01 0. -1.
<mgrwt>
<rscale>  1 0.13980239E+03</rscale>
<asrwt>0</asrwt>
<pdfrwt beam="2">  1       21 0.54269485E-02 0.13980239E+03</pdfrwt>
<pdfrwt beam="1">  1        4 0.48063228E-01 0.13980239E+03</pdfrwt>
<totfact> 0.39972409E+04</totfact>
</mgrwt>
</event>
<event>
 6    4  0.6277709E-003  0.1266698E+03  0.7818608E-02  0.1232483E+00
         21   -1    0    0  501  502  0.00000000000E+00  0.00000000000E+00  0.13033141982E+04  0.13033141982E+04  0.00000000000E+00 0. -1.
         -4   -1    0    0    0  501 -0.00000000000E+00 -0.00000000000E+00 -0.61771198155E+01  0.63063229552E+01  0.12700000000E+01 0.  1.
         25    2    1    2    0    0  0.15957744816E+02 -0.12885364664E+02  0.65393454690E+03  0.66608979800E+03  0.12499818048E+03 0.  0.
    9000005    1    3    3    0    0 -0.39725344618E+02 -0.46595909312E+02  0.34105036261E+03  0.34650487962E+03  0.10000000000E+01 0.  0.
    9000005    1    3    3    0    0  0.55683089434E+02  0.33710544647E+02  0.31288418430E+03  0.31958491837E+03  0.10000000000E+01 0.  0.
         -4    1    1    2    0  502 -0.15957744816E+02  0.12885364664E+02  0.64320253144E+03  0.64353072312E+03  0.12700000000E+01 0. -1.
<mgrwt>
<rscale>  1 0.12666976E+03</rscale>
<asrwt>0</asrwt>
<pdfrwt beam="1">  1       21 0.20050966E+00 0.12666976E+03</pdfrwt>
<pdfrwt beam="2">  1       -4 0.96031346E-03 0.12666976E+03</pdfrwt>
<totfact> 0.17391783E+04</totfact>
</mgrwt>
</event>
<event>
 6    4  0.6277709E-003  0.1363155E+03  0.7818608E-02  0.1218374E+00
         -4   -1    0    0    0  501 -0.00000000000E+00  0.00000000000E+00  0.30900235635E+03  0.30900496619E+03  0.12700000000E+01 0.  1.
         21   -1    0    0  501  502  0.00000000000E+00 -0.00000000000E+00 -0.44197053144E+02  0.44197053144E+02  0.00000000000E+00 0. -1.
         25    2    1    2    0    0 -0.42762868925E+02  0.33587730118E+02  0.26589365315E+03  0.29879985046E+03  0.12500046909E+03 0.  0.
    9000005    1    3    3    0    0 -0.53164929528E+02 -0.27340549504E+02  0.19867571038E+03  0.20747783804E+03  0.10000000000E+01 0.  0.
    9000005    1    3    3    0    0  0.10402060604E+02  0.60928279622E+02  0.67217942770E+02  0.91322012421E+02  0.10000000000E+01 0.  0.
         -4    1    1    2    0  502  0.42762868925E+02 -0.33587730118E+02 -0.10883499465E+01  0.54402168879E+02  0.12700000000E+01 0. -1.
<mgrwt>
<rscale>  1 0.13631550E+03</rscale>
<asrwt>0</asrwt>
<pdfrwt beam="2">  1       21 0.67995468E-02 0.13631550E+03</pdfrwt>
<pdfrwt beam="1">  1       -4 0.47540427E-01 0.13631550E+03</pdfrwt>
<totfact> 0.27776349E+04</totfact>
</mgrwt>
</event>
<event>
 6    4  0.6277709E-003  0.1358660E+03  0.7818608E-02  0.1219002E+00
          4   -1    0    0  502    0 -0.00000000000E+00  0.00000000000E+00  0.41238100218E+02  0.41257651528E+02  0.12700000000E+01 0. -1.
         21   -1    0    0  501  502  0.00000000000E+00 -0.00000000000E+00 -0.44597535384E+03  0.44597535384E+03  0.00000000000E+00 0.  1.
         25    2    1    2    0    0  0.99987233918E+01  0.52288945192E+02 -0.78984376096E+02  0.15715625918E+03  0.12500179948E+03 0.  0.
    9000005    1    3    3    0    0  0.19830121840E+02 -0.34121256892E+02  0.28482864957E+00  0.39478792173E+02  0.10000000000E+01 0.  0.
    9000005    1    3    3    0    0 -0.98313984481E+01  0.86410202085E+02 -0.79269204745E+02  0.11767746700E+03  0.10000000000E+01 0.  0.
          4    1    1    2  501    0 -0.99987233918E+01 -0.52288945192E+02 -0.32575287753E+03  0.33007674619E+03  0.12700000000E+01 0.  1.
<mgrwt>
<rscale>  1 0.13586596E+03</rscale>
<asrwt>0</asrwt>
<pdfrwt beam="2">  1       21 0.68611595E-01 0.13586596E+03</pdfrwt>
<pdfrwt beam="1">  1        4 0.63459659E-02 0.13586596E+03</pdfrwt>
<totfact> 0.12918457E+04</totfact>
</mgrwt>
</event>
<event>
 6    4  0.6277709E-003  0.1397722E+03  0.7818608E-02  0.1213636E+00
          4   -1    0    0  502    0 -0.00000000000E+00  0.00000000000E+00  0.77729757834E+02  0.77740132190E+02  0.12700000000E+01 0. -1.
         21   -1    0    0  501  502  0.00000000000E+00 -0.00000000000E+00 -0.29254773661E+03  0.29254773661E+03  0.00000000000E+00 0.  1.
         25    2    1    2    0    0 -0.20510229278E+02  0.59076226489E+02  0.68739645756E+01  0.13994117208E+03  0.12500244083E+03 0.  0.
    9000005    1    3    3    0    0  0.36755719058E+02 -0.45346667309E+01 -0.29082625698E+02  0.47099312132E+02  0.10000000000E+01 0.  0.
    9000005    1    3    3    0    0 -0.57265948336E+02  0.63610893220E+02  0.35956590273E+02  0.92841859951E+02  0.10000000000E+01 0.  0.
          4    1    1    2  501    0  0.20510229278E+02 -0.59076226489E+02 -0.22169194335E+03  0.23034669672E+03  0.12700000000E+01 0.  1.
<mgrwt>
<rscale>  1 0.13977224E+03</rscale>
<asrwt>0</asrwt>
<pdfrwt beam="2">  1       21 0.45007343E-01 0.13977224E+03</pdfrwt>
<pdfrwt beam="1">  1        4 0.11959435E-01 0.13977224E+03</pdfrwt>
<totfact> 0.10911140E+04</totfact>
</mgrwt>
</event>
<event>
 6    4  0.6277709E-003  0.1267000E+03  0.7818608E-02  0.1232436E+00
         -4   -1    0    0    0  501 -0.00000000000E+00  0.00000000000E+00  0.10191829219E+03  0.10192620460E+03  0.12700000000E+01 0.  1.
         21   -1    0    0  501  502  0.00000000000E+00 -0.00000000000E+00 -0.87434642691E+02  0.87434642691E+02  0.00000000000E+00 0. -1.
         25    2    1    2    0    0  0.20046609935E+02  0.51538996504E+01  0.59366558080E+02  0.13991878388E+03  0.12499779444E+03 0.  0.
    9000005    1    3    3    0    0 -0.29936005905E+02 -0.45130451339E+02  0.14732531509E+02  0.56133497773E+02  0.10000000000E+01 0.  0.
    9000005    1    3    3    0    0  0.49982615840E+02  0.50284350989E+02  0.44634026571E+02  0.83785286110E+02  0.10000000000E+01 0.  0.
         -4    1    1    2    0  502 -0.20046609935E+02 -0.51538996504E+01 -0.44882908577E+02  0.49442063405E+02  0.12700000000E+01 0. -1.
<mgrwt>
<rscale>  1 0.12669995E+03</rscale>
<asrwt>0</asrwt>
<pdfrwt beam="2">  1       21 0.13451483E-01 0.12669995E+03</pdfrwt>
<pdfrwt beam="1">  1       -4 0.15681055E-01 0.12669995E+03</pdfrwt>
<totfact> 0.66735386E+04</totfact>
</mgrwt>
</event>
<event>
 6    4  0.6277709E-003  0.1272926E+03  0.7818608E-02  0.1231529E+00
         21   -1    0    0  501  502  0.00000000000E+00  0.00000000000E+00  0.24196055287E+04  0.24196055287E+04  0.00000000000E+00 0. -1.
         -4   -1    0    0    0  501 -0.00000000000E+00 -0.00000000000E+00 -0.27673277857E+01  0.30448321913E+01  0.12700000000E+01 0. -1.
         25    2    1    2    0    0  0.23998778209E+02  0.12725289613E+01  0.14684464153E+04  0.14739532793E+04  0.12500333711E+03 0.  0.
    9000005    1    3    3    0    0  0.74908413510E+02 -0.33802274027E+01  0.77267056576E+03  0.77630116549E+03  0.10000000000E+01 0.  0.
    9000005    1    3    3    0    0 -0.50909635301E+02  0.46527563640E+01  0.69577584954E+03  0.69765211381E+03  0.10000000000E+01 0.  0.
         -4    1    1    2    0  502 -0.23998778209E+02 -0.12725289613E+01  0.94839178566E+03  0.94869708163E+03  0.12700000000E+01 0.  1.
<mgrwt>
<rscale>  1 0.12729256E+03</rscale>
<asrwt>0</asrwt>
<pdfrwt beam="1">  1       21 0.37224539E+00 0.12729256E+03</pdfrwt>
<pdfrwt beam="2">  1       -4 0.44711680E-03 0.12729256E+03</pdfrwt>
<totfact> 0.55421784E+03</totfact>
</mgrwt>
</event>
<event>
 6    4  0.6277709E-003  0.1335308E+03  0.7818608E-02  0.1222309E+00
         -4   -1    0    0    0  501 -0.00000000000E+00  0.00000000000E+00  0.13100858147E+03  0.13101473703E+03  0.12700000000E+01 0.  1.
         21   -1    0    0  501  502  0.00000000000E+00 -0.00000000000E+00 -0.12204107863E+03  0.12204107863E+03  0.00000000000E+00 0. -1.
         25    2    1    2    0    0  0.11913904084E+01  0.46968782893E+02  0.88837521950E+02  0.16038263276E+03  0.12499199017E+03 0.  0.
    9000005    1    3    3    0    0 -0.13657929601E+02 -0.32819391338E+02 -0.54453011443E+01  0.35976419963E+02  0.10000000000E+01 0.  0.
    9000005    1    3    3    0    0  0.14849320010E+02  0.79788174231E+02  0.94282823094E+02  0.12440621280E+03  0.10000000000E+01 0.  0.
         -4    1    1    2    0  502 -0.11913904084E+01 -0.46968782893E+02 -0.79870019101E+02  0.92673182899E+02  0.12700000000E+01 0. -1.
<mgrwt>
<rscale>  1 0.13353083E+03</rscale>
<asrwt>0</asrwt>
<pdfrwt beam="2">  1       21 0.18775551E-01 0.13353083E+03</pdfrwt>
<pdfrwt beam="1">  1       -4 0.20156148E-01 0.13353083E+03</pdfrwt>
<totfact> 0.23503353E+04</totfact>
</mgrwt>
</event>
<event>
 6    4  0.6277709E-003  0.1270250E+03  0.7818608E-02  0.1231938E+00
         -4   -1    0    0    0  501 -0.00000000000E+00  0.00000000000E+00  0.39968055555E+03  0.39968257328E+03  0.12700000000E+01 0. -1.
         21   -1    0    0  501  502  0.00000000000E+00 -0.00000000000E+00 -0.16419385220E+03  0.16419385220E+03  0.00000000000E+00 0.  1.
         25    2    1    2    0    0  0.72432911215E+01  0.21419321358E+02  0.38873573679E+03  0.40896312151E+03  0.12499643634E+03 0.  0.
    9000005    1    3    3    0    0  0.31439304727E+01  0.73585319170E+02  0.20111924417E+03  0.21418364520E+03  0.10000000000E+01 0.  0.
    9000005    1    3    3    0    0  0.40993606487E+01 -0.52165997813E+02  0.18761649263E+03  0.19477947631E+03  0.10000000000E+01 0.  0.
         -4    1    1    2    0  502 -0.72432911215E+01 -0.21419321358E+02 -0.15324903344E+03  0.15491330396E+03  0.12700000000E+01 0.  1.
<mgrwt>
<rscale>  1 0.12702504E+03</rscale>
<asrwt>0</asrwt>
<pdfrwt beam="2">  1       21 0.25260593E-01 0.12702504E+03</pdfrwt>
<pdfrwt beam="1">  1       -4 0.61489849E-01 0.12702504E+03</pdfrwt>
<totfact> 0.15512021E+03</totfact>
</mgrwt>
</event>
<event>
 6    4  0.6277709E-003  0.1335275E+03  0.7818608E-02  0.1222313E+00
         21   -1    0    0  501  502  0.00000000000E+00  0.00000000000E+00  0.60174668682E+02  0.60174668682E+02  0.00000000000E+00 0.  1.
         -4   -1    0    0    0  501 -0.00000000000E+00 -0.00000000000E+00 -0.14185624069E+03  0.14186192556E+03  0.12700000000E+01 0.  1.
         25    2    1    2    0    0 -0.44694370506E+02  0.14376596726E+02 -0.40397956625E+02  0.13950481762E+03  0.12500130380E+03 0.  0.
    9000005    1    3    3    0    0  0.93035268431E+01 -0.16559050268E+02 -0.68589675005E+02  0.71177954978E+02  0.10000000000E+01 0.  0.
    9000005    1    3    3    0    0 -0.53997897349E+02  0.30935646994E+02  0.28191718380E+02  0.68326862640E+02  0.10000000000E+01 0.  0.
         -4    1    1    2    0  502  0.44694370506E+02 -0.14376596726E+02 -0.41283615388E+02  0.62531776625E+02  0.12700000000E+01 0. -1.
<mgrwt>
<rscale>  1 0.13352752E+03</rscale>
<asrwt>0</asrwt>
<pdfrwt beam="1">  1       21 0.92576415E-02 0.13352752E+03</pdfrwt>
<pdfrwt beam="2">  1       -4 0.21825505E-01 0.13352752E+03</pdfrwt>
<totfact> 0.72038584E+04</totfact>
</mgrwt>
</event>
<event>
 6    4  0.6277709E-003  0.1438893E+03  0.7818608E-02  0.1208189E+00
          4   -1    0    0  502    0 -0.00000000000E+00  0.00000000000E+00  0.12286206596E+03  0.12286862965E+03  0.12700000000E+01 0. -1.
         21   -1    0    0  501  502  0.00000000000E+00 -0.00000000000E+00 -0.27202131850E+03  0.27202131850E+03  0.00000000000E+00 0.  1.
         25    2    1    2    0    0  0.45063618748E+02 -0.55212800955E+02  0.73162186393E+02  0.16142128165E+03  0.12499976612E+03 0.  0.
    9000005    1    3    3    0    0  0.27630802562E+02  0.33853433919E+02  0.52543134618E+02  0.68346888984E+02  0.10000000000E+01 0.  0.
    9000005    1    3    3    0    0  0.17432816186E+02 -0.89066234874E+02  0.20619051775E+02  0.93074392670E+02  0.10000000000E+01 0.  0.
          4    1    1    2  501    0 -0.45063618748E+02  0.55212800955E+02 -0.22232143893E+03  0.23346866649E+03  0.12700000000E+01 0.  1.
<mgrwt>
<rscale>  1 0.14388928E+03</rscale>
<asrwt>0</asrwt>
<pdfrwt beam="2">  1       21 0.41849433E-01 0.14388928E+03</pdfrwt>
<pdfrwt beam="1">  1        4 0.18902589E-01 0.14388928E+03</pdfrwt>
<totfact> 0.56894461E+03</totfact>
</mgrwt>
</event>
<event>
 6    4  0.6277709E-003  0.1526840E+03  0.7818608E-02  0.1197213E+00
         21   -1    0    0  501  502  0.00000000000E+00  0.00000000000E+00  0.57564558000E+02  0.57564558000E+02  0.00000000000E+00 0. -1.
          4   -1    0    0  502    0 -0.00000000000E+00 -0.00000000000E+00 -0.27374625355E+03  0.27374919951E+03  0.12700000000E+01 0.  1.
         25    2    1    2    0    0  0.87196653771E+02 -0.91661740001E+01 -0.18108820506E+03  0.23686567045E+03  0.12500053061E+03 0.  0.
    9000005    1    3    3    0    0 -0.46128866513E+01  0.34429517765E+02 -0.10296469270E+03  0.10867105576E+03  0.10000000000E+01 0.  0.
    9000005    1    3    3    0    0  0.91809540423E+02 -0.43595691765E+02 -0.78123512364E+02  0.12819461470E+03  0.10000000000E+01 0.  0.
          4    1    1    2  501    0 -0.87196653771E+02  0.91661740001E+01 -0.35093490492E+02  0.94448087062E+02  0.12700000000E+01 0. -1.
<mgrwt>
<rscale>  1 0.15268401E+03</rscale>
<asrwt>0</asrwt>
<pdfrwt beam="1">  1       21 0.88560857E-02 0.15268401E+03</pdfrwt>
<pdfrwt beam="2">  1        4 0.42116113E-01 0.15268401E+03</pdfrwt>
<totfact> 0.22712890E+04</totfact>
</mgrwt>
</event>
<event>
 6    4  0.6277709E-003  0.1294870E+03  0.7818608E-02  0.1228219E+00
         21   -1    0    0  501  502  0.00000000000E+00  0.00000000000E+00  0.80071222547E+02  0.80071222547E+02  0.00000000000E+00 0. -1.
          4   -1    0    0  502    0 -0.00000000000E+00 -0.00000000000E+00 -0.20646924960E+03  0.20647315547E+03  0.12700000000E+01 0.  1.
         25    2    1    2    0    0 -0.21018847706E+01 -0.33724273793E+02 -0.18086271200E+03  0.22243697307E+03  0.12500056734E+03 0.  0.
    9000005    1    3    3    0    0 -0.64574037000E+00 -0.32164472394E+02  0.83161175065E+01  0.33243466658E+02  0.10000000000E+01 0.  0.
    9000005    1    3    3    0    0 -0.14561444006E+01 -0.15598013990E+01 -0.18917882950E+03  0.18919350641E+03  0.10000000000E+01 0.  0.
          4    1    1    2  501    0  0.21018847706E+01  0.33724273793E+02  0.54464684946E+02  0.64107404945E+02  0.12700000000E+01 0. -1.
<mgrwt>
<rscale>  1 0.12948701E+03</rscale>
<asrwt>0</asrwt>
<pdfrwt beam="1">  1       21 0.12318650E-01 0.12948701E+03</pdfrwt>
<pdfrwt beam="2">  1        4 0.31765575E-01 0.12948701E+03</pdfrwt>
<totfact> 0.21629020E+04</totfact>
</mgrwt>
</event>
<event>
 6    4  0.6277709E-003  0.1296230E+03  0.7818608E-02  0.1228016E+00
         -4   -1    0    0    0  501 -0.00000000000E+00  0.00000000000E+00  0.28512834172E+03  0.28513117009E+03  0.12700000000E+01 0. -1.
         21   -1    0    0  501  502  0.00000000000E+00 -0.00000000000E+00 -0.26845415413E+02  0.26845415413E+02  0.00000000000E+00 0.  1.
         25    2    1    2    0    0  0.33021410576E+02  0.93481501558E+01  0.24072564886E+03  0.27340622953E+03  0.12499730742E+03 0.  0.
    9000005    1    3    3    0    0  0.48663592169E+01  0.48326201164E+02  0.21176519163E+03  0.21726619515E+03  0.10000000000E+01 0.  0.
    9000005    1    3    3    0    0  0.28155051359E+02 -0.38978051008E+02  0.28960457232E+02  0.56140034383E+02  0.10000000000E+01 0.  0.
         -4    1    1    2    0  502 -0.33021410576E+02 -0.93481501558E+01  0.17557277454E+02  0.38570355966E+02  0.12700000000E+01 0.  1.
<mgrwt>
<rscale>  1 0.12962302E+03</rscale>
<asrwt>0</asrwt>
<pdfrwt beam="2">  1       21 0.41300641E-02 0.12962302E+03</pdfrwt>
<pdfrwt beam="1">  1       -4 0.43868425E-01 0.12962302E+03</pdfrwt>
<totfact> 0.75181324E+04</totfact>
</mgrwt>
</event>
<event>
 6    4  0.6277709E-003  0.1290813E+03  0.7818608E-02  0.1228825E+00
         21   -1    0    0  501  502  0.00000000000E+00  0.00000000000E+00  0.63562989943E+02  0.63562989943E+02  0.00000000000E+00 0. -1.
         -4   -1    0    0    0  501 -0.00000000000E+00 -0.00000000000E+00 -0.11583129086E+03  0.11583825293E+03  0.12700000000E+01 0. -1.
         25    2    1    2    0    0  0.17984683575E+02 -0.26719040870E+02 -0.65269798747E+02  0.14464483577E+03  0.12499850359E+03 0.  0.
    9000005    1    3    3    0    0  0.13773698032E+02  0.40065491069E+02  0.10389566897E+02  0.43633718984E+02  0.10000000000E+01 0.  0.
    9000005    1    3    3    0    0  0.42109855424E+01 -0.66784531939E+02 -0.75659365644E+02  0.10101111679E+03  0.10000000000E+01 0.  0.
         -4    1    1    2    0  502 -0.17984683575E+02  0.26719040870E+02  0.13001497835E+02  0.34756407096E+02  0.12700000000E+01 0.  1.
<mgrwt>
<rscale>  1 0.12908130E+03</rscale>
<asrwt>0</asrwt>
<pdfrwt beam="1">  1       21 0.97789215E-02 0.12908130E+03</pdfrwt>
<pdfrwt beam="2">  1       -4 0.17821710E-01 0.12908130E+03</pdfrwt>
<totfact> 0.93764498E+04</totfact>
</mgrwt>
</event>
<event>
 6    4  0.6277709E-003  0.1304744E+03  0.7818608E-02  0.1226754E+00
          4   -1    0    0  502    0 -0.00000000000E+00  0.00000000000E+00  0.53649916559E+03  0.53650066876E+03  0.12700000000E+01 0. -1.
         21   -1    0    0  501  502  0.00000000000E+00 -0.00000000000E+00 -0.23415188811E+02  0.23415188811E+02  0.00000000000E+00 0.  1.
         25    2    1    2    0    0 -0.35167412741E+02  0.12744960849E+02  0.50505654109E+03  0.52163748809E+03  0.12499751334E+03 0.  0.
    9000005    1    3    3    0    0  0.17449802273E+02  0.25352122324E+02  0.28309279800E+02  0.41828710577E+02  0.10000000000E+01 0.  0.
    9000005    1    3    3    0    0 -0.52617215014E+02 -0.12607161476E+02  0.47674726129E+03  0.47980877752E+03  0.10000000000E+01 0.  0.
          4    1    1    2  501    0  0.35167412741E+02 -0.12744960849E+02  0.80274356899E+01  0.38278369475E+02  0.12700000000E+01 0.  1.
<mgrwt>
<rscale>  1 0.13047436E+03</rscale>
<asrwt>0</asrwt>
<pdfrwt beam="2">  1       21 0.36023371E-02 0.13047436E+03</pdfrwt>
<pdfrwt beam="1">  1        4 0.82541089E-01 0.13047436E+03</pdfrwt>
<totfact> 0.25000386E+04</totfact>
</mgrwt>
</event>
<event>
 6    4  0.6277709E-003  0.1286340E+03  0.7818608E-02  0.1229497E+00
          4   -1    0    0  502    0 -0.00000000000E+00  0.00000000000E+00  0.57640827091E+03  0.57640967001E+03  0.12700000000E+01 0. -1.
         21   -1    0    0  501  502  0.00000000000E+00 -0.00000000000E+00 -0.54587735853E+02  0.54587735853E+02  0.00000000000E+00 0.  1.
         25    2    1    2    0    0  0.22973758559E+02  0.20064143764E+02  0.56424986117E+03  0.57872672516E+03  0.12496540776E+03 0.  0.
    9000005    1    3    3    0    0  0.71636517447E+02  0.29065675046E+02  0.29490501428E+03  0.30487140166E+03  0.10000000000E+01 0.  0.
    9000005    1    3    3    0    0 -0.48662758888E+02 -0.90015312823E+01  0.26934484688E+03  0.27385532350E+03  0.10000000000E+01 0.  0.
          4    1    1    2  501    0 -0.22973758559E+02 -0.20064143764E+02 -0.42429326106E+02  0.52270680703E+02  0.12700000000E+01 0.  1.
<mgrwt>
<rscale>  1 0.12863404E+03</rscale>
<asrwt>0</asrwt>
<pdfrwt beam="2">  1       21 0.83981136E-02 0.12863404E+03</pdfrwt>
<pdfrwt beam="1">  1        4 0.88679435E-01 0.12863404E+03</pdfrwt>
<totfact> 0.50905516E+03</totfact>
</mgrwt>
</event>
<event>
 6    4  0.6277709E-003  0.1312280E+03  0.7818608E-02  0.1225645E+00
         21   -1    0    0  501  502  0.00000000000E+00  0.00000000000E+00  0.11821375214E+03  0.11821375214E+03  0.00000000000E+00 0.  1.
         -4   -1    0    0    0  501 -0.00000000000E+00 -0.00000000000E+00 -0.82255196773E+02  0.82265000433E+02  0.12700000000E+01 0.  1.
         25    2    1    2    0    0 -0.10241963572E+02 -0.38609790036E+02 -0.18925416158E+02  0.13258562380E+03  0.12500065023E+03 0.  0.
    9000005    1    3    3    0    0 -0.36945841808E+01  0.25723761432E+01 -0.68013221051E+02  0.68169386891E+02  0.10000000000E+01 0.  0.
    9000005    1    3    3    0    0 -0.65473793915E+01 -0.41182166179E+02  0.49087804894E+02  0.64416236908E+02  0.10000000000E+01 0.  0.
         -4    1    1    2    0  502  0.10241963572E+02  0.38609790036E+02  0.54883971521E+02  0.67893128772E+02  0.12700000000E+01 0. -1.
<mgrwt>
<rscale>  1 0.13122796E+03</rscale>
<asrwt>0</asrwt>
<pdfrwt beam="1">  1       21 0.18186731E-01 0.13122796E+03</pdfrwt>
<pdfrwt beam="2">  1       -4 0.12655925E-01 0.13122796E+03</pdfrwt>
<totfact> 0.56331669E+04</totfact>
</mgrwt>
</event>
<event>
 6    4  0.6277709E-003  0.1316412E+03  0.7818608E-02  0.1225041E+00
          4   -1    0    0  502    0 -0.00000000000E+00  0.00000000000E+00  0.36048991421E+03  0.36049215130E+03  0.12700000000E+01 0. -1.
         21   -1    0    0  501  502  0.00000000000E+00 -0.00000000000E+00 -0.64259488610E+02  0.64259488610E+02  0.00000000000E+00 0.  1.
         25    2    1    2    0    0 -0.41299291701E+02 -0.11416604319E+01  0.33997253690E+03  0.36456924975E+03  0.12498990811E+03 0.  0.
    9000005    1    3    3    0    0 -0.28633657882E+01  0.54029963911E+02  0.84090893424E+02  0.99998571094E+02  0.10000000000E+01 0.  0.
    9000005    1    3    3    0    0 -0.38435925912E+02 -0.55171624343E+02  0.25588164348E+03  0.26457067865E+03  0.10000000000E+01 0.  0.
          4    1    1    2  501    0  0.41299291701E+02  0.11416604319E+01 -0.43742111307E+02  0.60182390158E+02  0.12700000000E+01 0.  1.
<mgrwt>
<rscale>  1 0.13164122E+03</rscale>
<asrwt>0</asrwt>
<pdfrwt beam="2">  1       21 0.98860754E-02 0.13164122E+03</pdfrwt>
<pdfrwt beam="1">  1        4 0.55461123E-01 0.13164122E+03</pdfrwt>
<totfact> 0.10574748E+04</totfact>
</mgrwt>
</event>
<event>
 6    4  0.6277709E-003  0.1266305E+03  0.7818608E-02  0.1232543E+00
         21   -1    0    0  501  502  0.00000000000E+00  0.00000000000E+00  0.37061173692E+03  0.37061173692E+03  0.00000000000E+00 0. -1.
         -4   -1    0    0    0  501 -0.00000000000E+00 -0.00000000000E+00 -0.15240696669E+02  0.15293519378E+02  0.12700000000E+01 0. -1.
         25    2    1    2    0    0 -0.11332818341E+02 -0.16786911174E+02  0.32969757513E+03  0.35317953446E+03  0.12500023744E+03 0.  0.
    9000005    1    3    3    0    0  0.33297340951E+02  0.30268265541E+02  0.22913494553E+03  0.23351381988E+03  0.10000000000E+01 0.  0.
    9000005    1    3    3    0    0 -0.44630159292E+02 -0.47055176715E+02  0.10056262960E+03  0.11966571458E+03  0.10000000000E+01 0.  0.
         -4    1    1    2    0  502  0.11332818341E+02  0.16786911174E+02  0.25673465123E+02  0.32725721837E+02  0.12700000000E+01 0.  1.
<mgrwt>
<rscale>  1 0.12663054E+03</rscale>
<asrwt>0</asrwt>
<pdfrwt beam="1">  1       21 0.57017183E-01 0.12663054E+03</pdfrwt>
<pdfrwt beam="2">  1       -4 0.23489535E-02 0.12663054E+03</pdfrwt>
<totfact> 0.92218020E+04</totfact>
</mgrwt>
</event>
<event>
 6    4  0.6277709E-003  0.1311487E+03  0.7818608E-02  0.1225761E+00
          4   -1    0    0  502    0 -0.00000000000E+00  0.00000000000E+00  0.51381582760E+02  0.51397275676E+02  0.12700000000E+01 0.  1.
         21   -1    0    0  501  502  0.00000000000E+00 -0.00000000000E+00 -0.15834252560E+03  0.15834252560E+03  0.00000000000E+00 0.  1.
         25    2    1    2    0    0 -0.21813525001E+02  0.33157468186E+02 -0.50114799395E+02  0.14039757392E+03  0.12499895230E+03 0.  0.
    9000005    1    3    3    0    0  0.31427297990E+02 -0.23873376477E+02  0.11340283290E+02  0.41075725051E+02  0.10000000000E+01 0.  0.
    9000005    1    3    3    0    0 -0.53240822991E+02  0.57030844663E+02 -0.61455082685E+02  0.99321848873E+02  0.10000000000E+01 0.  0.
          4    1    1    2  501    0  0.21813525001E+02 -0.33157468186E+02 -0.56846143445E+02  0.69342227352E+02  0.12700000000E+01 0. -1.
<mgrwt>
<rscale>  1 0.13114872E+03</rscale>
<asrwt>0</asrwt>
<pdfrwt beam="2">  1       21 0.24360388E-01 0.13114872E+03</pdfrwt>
<pdfrwt beam="1">  1        4 0.79064578E-02 0.13114872E+03</pdfrwt>
<totfact> 0.72259004E+04</totfact>
</mgrwt>
</event>
<event>
 6    4  0.6277709E-003  0.1273540E+03  0.7818608E-02  0.1231436E+00
         21   -1    0    0  501  502  0.00000000000E+00  0.00000000000E+00  0.18186263486E+03  0.18186263486E+03  0.00000000000E+00 0. -1.
          4   -1    0    0  502    0 -0.00000000000E+00 -0.00000000000E+00 -0.10474616826E+03  0.10475386706E+03  0.12700000000E+01 0.  1.
         25    2    1    2    0    0  0.27579455000E+01  0.24147213087E+02 -0.64616834185E+02  0.14280886786E+03  0.12501337255E+03 0.  0.
    9000005    1    3    3    0    0 -0.45018552698E+02  0.59099117818E+01 -0.77712616076E+02  0.90010265202E+02  0.10000000000E+01 0.  0.
    9000005    1    3    3    0    0  0.47776498198E+02  0.18237301305E+02  0.13095781891E+02  0.52798602655E+02  0.10000000000E+01 0.  0.
          4    1    1    2  501    0 -0.27579455000E+01 -0.24147213087E+02  0.14173330079E+03  0.14380763407E+03  0.12700000000E+01 0. -1.
<mgrwt>
<rscale>  1 0.12735398E+03</rscale>
<asrwt>0</asrwt>
<pdfrwt beam="1">  1       21 0.27978867E-01 0.12735398E+03</pdfrwt>
<pdfrwt beam="2">  1        4 0.16115728E-01 0.12735398E+03</pdfrwt>
<totfact> 0.16482201E+04</totfact>
</mgrwt>
</event>
<event>
 6    4  0.6277709E-003  0.1283422E+03  0.7818608E-02  0.1229937E+00
          4   -1    0    0  502    0 -0.00000000000E+00  0.00000000000E+00  0.21699940783E+02  0.21737072710E+02  0.12700000000E+01 0. -1.
         21   -1    0    0  501  502  0.00000000000E+00 -0.00000000000E+00 -0.10956061367E+04  0.10956061367E+04  0.00000000000E+00 0.  1.
         25    2    1    2    0    0  0.26136135582E+02  0.12796028344E+02 -0.17019159244E+03  0.21315930480E+03  0.12499950064E+03 0.  0.
    9000005    1    3    3    0    0 -0.50059943469E+02  0.68081529939E+01 -0.52869208422E+02  0.73133453948E+02  0.10000000000E+01 0.  0.
    9000005    1    3    3    0    0  0.76196079051E+02  0.59878753498E+01 -0.11732238402E+03  0.14002585085E+03  0.10000000000E+01 0.  0.
          4    1    1    2  501    0 -0.26136135582E+02 -0.12796028344E+02 -0.90371460349E+03  0.90418390463E+03  0.12700000000E+01 0.  1.
<mgrwt>
<rscale>  1 0.12834216E+03</rscale>
<asrwt>0</asrwt>
<pdfrwt beam="2">  1       21 0.16855473E+00 0.12834216E+03</pdfrwt>
<pdfrwt beam="1">  1        4 0.33413666E-02 0.12834216E+03</pdfrwt>
<totfact> 0.41714390E+03</totfact>
</mgrwt>
</event>
<event>
 6    4  0.6277709E-003  0.1317651E+03  0.7818608E-02  0.1224860E+00
         -4   -1    0    0    0  501 -0.00000000000E+00  0.00000000000E+00  0.34879825589E+03  0.34880056796E+03  0.12700000000E+01 0. -1.
         21   -1    0    0  501  502  0.00000000000E+00 -0.00000000000E+00 -0.21711173686E+02  0.21711173686E+02  0.00000000000E+00 0. -1.
         25    2    1    2    0    0 -0.38108846597E+01 -0.41518372144E+02  0.26071975240E+03  0.29212466725E+03  0.12499493533E+03 0.  0.
    9000005    1    3    3    0    0 -0.37449574145E+01 -0.85250177089E+02  0.14284473702E+03  0.16639482051E+03  0.10000000000E+01 0.  0.
    9000005    1    3    3    0    0 -0.65927245179E-01  0.43731804945E+02  0.11787501538E+03  0.12572984673E+03  0.10000000000E+01 0.  0.
         -4    1    1    2    0  502  0.38108846597E+01  0.41518372144E+02  0.66367329809E+02  0.78387074402E+02  0.12700000000E+01 0.  1.
<mgrwt>
<rscale>  1 0.13176506E+03</rscale>
<asrwt>0</asrwt>
<pdfrwt beam="2">  1       21 0.33401808E-02 0.13176506E+03</pdfrwt>
<pdfrwt beam="1">  1       -4 0.53664301E-01 0.13176506E+03</pdfrwt>
<totfact> 0.71195657E+04</totfact>
</mgrwt>
</event>
<event>
 6    4  0.6277709E-003  0.1592767E+03  0.7818608E-02  0.1189516E+00
         21   -1    0    0  501  502  0.00000000000E+00  0.00000000000E+00  0.33181351823E+03  0.33181351823E+03  0.00000000000E+00 0.  1.
          4   -1    0    0  502    0 -0.00000000000E+00 -0.00000000000E+00 -0.63490632789E+02  0.63503333392E+02  0.12700000000E+01 0. -1.
         25    2    1    2    0    0  0.36808678685E+02 -0.91593857850E+02  0.70403722327E+02  0.17414288921E+03  0.12499899248E+03 0.  0.
    9000005    1    3    3    0    0  0.58660496818E+01 -0.99854784327E+02  0.36513896505E+01  0.10009855712E+03  0.10000000000E+01 0.  0.
    9000005    1    3    3    0    0  0.30942629004E+02  0.82609264776E+01  0.66752332676E+02  0.74044332083E+02  0.10000000000E+01 0.  0.
          4    1    1    2  501    0 -0.36808678685E+02  0.91593857850E+02  0.19791916311E+03  0.22117396241E+03  0.12700000000E+01 0.  1.
<mgrwt>
<rscale>  1 0.15927668E+03</rscale>
<asrwt>0</asrwt>
<pdfrwt beam="1">  1       21 0.51048232E-01 0.15927668E+03</pdfrwt>
<pdfrwt beam="2">  1        4 0.97689538E-02 0.15927668E+03</pdfrwt>
<totfact> 0.11985295E+04</totfact>
</mgrwt>
</event>
<event>
 6    4  0.6277709E-003  0.1291477E+03  0.7818608E-02  0.1228726E+00
         21   -1    0    0  501  502  0.00000000000E+00  0.00000000000E+00  0.10595754564E+03  0.10595754564E+03  0.00000000000E+00 0. -1.
          4   -1    0    0  502    0 -0.00000000000E+00 -0.00000000000E+00 -0.30616598629E+03  0.30616862031E+03  0.12700000000E+01 0.  1.
         25    2    1    2    0    0 -0.12339823524E+02 -0.30032676024E+02 -0.28955690127E+03  0.31705254610E+03  0.12499954017E+03 0.  0.
    9000005    1    3    3    0    0 -0.20990865577E+02 -0.47514423622E+02 -0.37098800066E+02  0.63840095991E+02  0.10000000000E+01 0.  0.
    9000005    1    3    3    0    0  0.86510420525E+01  0.17481747598E+02 -0.25245810121E+03  0.25321245011E+03  0.10000000000E+01 0.  0.
          4    1    1    2  501    0  0.12339823524E+02  0.30032676024E+02  0.89348460626E+02  0.95073619842E+02  0.12700000000E+01 0. -1.
<mgrwt>
<rscale>  1 0.12914766E+03</rscale>
<asrwt>0</asrwt>
<pdfrwt beam="1">  1       21 0.16301161E-01 0.12914766E+03</pdfrwt>
<pdfrwt beam="2">  1        4 0.47103247E-01 0.12914766E+03</pdfrwt>
<totfact> 0.60498122E+03</totfact>
</mgrwt>
</event>
<event>
 6    4  0.6277709E-003  0.1324071E+03  0.7818608E-02  0.1223927E+00
         21   -1    0    0  501  502  0.00000000000E+00  0.00000000000E+00  0.46590888055E+03  0.46590888055E+03  0.00000000000E+00 0.  1.
          4   -1    0    0  502    0 -0.00000000000E+00 -0.00000000000E+00 -0.47880869154E+02  0.47897709037E+02  0.12700000000E+01 0. -1.
         25    2    1    2    0    0  0.19488463286E+02 -0.39074192613E+02  0.47434340081E+02  0.14064727395E+03  0.12500018528E+03 0.  0.
    9000005    1    3    3    0    0  0.52391319502E+02 -0.21373419178E+02 -0.22859642160E+02  0.61034716729E+02  0.10000000000E+01 0.  0.
    9000005    1    3    3    0    0 -0.32902856216E+02 -0.17700773435E+02  0.70293982241E+02  0.79612557218E+02  0.10000000000E+01 0.  0.
          4    1    1    2  501    0 -0.19488463286E+02  0.39074192613E+02  0.37059367131E+03  0.37315931564E+03  0.12700000000E+01 0.  1.
<mgrwt>
<rscale>  1 0.13240710E+03</rscale>
<asrwt>0</asrwt>
<pdfrwt beam="1">  1       21 0.71678286E-01 0.13240710E+03</pdfrwt>
<pdfrwt beam="2">  1        4 0.73677164E-02 0.13240710E+03</pdfrwt>
<totfact> 0.91776724E+03</totfact>
</mgrwt>
</event>
<event>
 6    4  0.6277709E-003  0.1315195E+03  0.7818608E-02  0.1225218E+00
          4   -1    0    0  502    0 -0.00000000000E+00  0.00000000000E+00  0.41818843282E+03  0.41819036125E+03  0.12700000000E+01 0. -1.
         21   -1    0    0  501  502  0.00000000000E+00 -0.00000000000E+00 -0.57216247796E+02  0.57216247796E+02  0.00000000000E+00 0.  1.
         25    2    1    2    0    0  0.18134722028E+01 -0.40840616154E+02  0.39865730562E+03  0.41979163064E+03  0.12500448482E+03 0.  0.
    9000005    1    3    3    0    0  0.22894811423E+02 -0.80373727007E+02  0.21319230151E+03  0.22898922640E+03  0.10000000000E+01 0.  0.
    9000005    1    3    3    0    0 -0.21081339220E+02  0.39533110853E+02  0.18546500411E+03  0.19080240424E+03  0.10000000000E+01 0.  0.
          4    1    1    2  501    0 -0.18134722028E+01  0.40840616154E+02 -0.37685120592E+02  0.55614978407E+02  0.12700000000E+01 0.  1.
<mgrwt>
<rscale>  1 0.13151945E+03</rscale>
<asrwt>0</asrwt>
<pdfrwt beam="2">  1       21 0.88024999E-02 0.13151945E+03</pdfrwt>
<pdfrwt beam="1">  1        4 0.64337912E-01 0.13151945E+03</pdfrwt>
<totfact> 0.94811267E+03</totfact>
</mgrwt>
</event>
<event>
 6    4  0.6277709E-003  0.1270422E+03  0.7818608E-02  0.1231912E+00
         21   -1    0    0  501  502  0.00000000000E+00  0.00000000000E+00  0.66851253980E+03  0.66851253980E+03  0.00000000000E+00 0. -1.
         -4   -1    0    0    0  501 -0.00000000000E+00 -0.00000000000E+00 -0.10665434328E+02  0.10740781601E+02  0.12700000000E+01 0. -1.
         25    2    1    2    0    0 -0.75222942825E+01  0.21331462891E+02  0.63302513110E+03  0.64564737651E+03  0.12501240727E+03 0.  0.
    9000005    1    3    3    0    0 -0.37413467772E+02 -0.40336033650E+02  0.35838379987E+03  0.36258338516E+03  0.10000000000E+01 0.  0.
    9000005    1    3    3    0    0  0.29891173489E+02  0.61667496541E+02  0.27464133123E+03  0.28306399135E+03  0.10000000000E+01 0.  0.
         -4    1    1    2    0  502  0.75222942825E+01 -0.21331462891E+02  0.24821974374E+02  0.33605944893E+02  0.12700000000E+01 0.  1.
<mgrwt>
<rscale>  1 0.12704219E+03</rscale>
<asrwt>0</asrwt>
<pdfrwt beam="1">  1       21 0.10284805E+00 0.12704219E+03</pdfrwt>
<pdfrwt beam="2">  1       -4 0.16467253E-02 0.12704219E+03</pdfrwt>
<totfact> 0.42998770E+04</totfact>
</mgrwt>
</event>
<event>
 6    4  0.6277709E-003  0.1343086E+03  0.7818608E-02  0.1221199E+00
         -4   -1    0    0    0  501 -0.00000000000E+00  0.00000000000E+00  0.16214233537E+02  0.16263894650E+02  0.12700000000E+01 0. -1.
         21   -1    0    0  501  502  0.00000000000E+00 -0.00000000000E+00 -0.10675352573E+04  0.10675352573E+04  0.00000000000E+00 0.  1.
         25    2    1    2    0    0 -0.33800858720E+02  0.35647446160E+02 -0.27622220864E+03  0.30714412907E+03  0.12500227600E+03 0.  0.
    9000005    1    3    3    0    0 -0.48231044064E+01 -0.33405166067E+02 -0.17967369476E+02  0.38249102238E+02  0.10000000000E+01 0.  0.
    9000005    1    3    3    0    0 -0.28977754313E+02  0.69052612228E+02 -0.25825483917E+03  0.26889502683E+03  0.10000000000E+01 0.  0.
         -4    1    1    2    0  502  0.33800858720E+02 -0.35647446160E+02 -0.77509881515E+03  0.77665502291E+03  0.12700000000E+01 0.  1.
<mgrwt>
<rscale>  1 0.13430863E+03</rscale>
<asrwt>0</asrwt>
<pdfrwt beam="2">  1       21 0.16423623E+00 0.13430863E+03</pdfrwt>
<pdfrwt beam="1">  1       -4 0.24983751E-02 0.13430863E+03</pdfrwt>
<totfact> 0.70536534E+03</totfact>
</mgrwt>
</event>
<event>
 6    4  0.6277709E-003  0.1348854E+03  0.7818608E-02  0.1220382E+00
          4   -1    0    0  502    0 -0.00000000000E+00  0.00000000000E+00  0.54581881094E+03  0.54582028844E+03  0.12700000000E+01 0. -1.
         21   -1    0    0  501  502  0.00000000000E+00 -0.00000000000E+00 -0.11603637226E+03  0.11603637226E+03  0.00000000000E+00 0.  1.
         25    2    1    2    0    0 -0.36381273853E+02 -0.35182597139E+02  0.53143993445E+03  0.54829050565E+03  0.12503064598E+03 0.  0.
    9000005    1    3    3    0    0 -0.77841441996E+02 -0.46743427710E+02  0.32746374046E+03  0.33982015750E+03  0.10000000000E+01 0.  0.
    9000005    1    3    3    0    0  0.41460168143E+02  0.11560830571E+02  0.20397619399E+03  0.20847034816E+03  0.10000000000E+01 0.  0.
          4    1    1    2  501    0  0.36381273853E+02  0.35182597139E+02 -0.10165749576E+03  0.11356615505E+03  0.12700000000E+01 0.  1.
<mgrwt>
<rscale>  1 0.13488541E+03</rscale>
<asrwt>0</asrwt>
<pdfrwt beam="2">  1       21 0.17851750E-01 0.13488541E+03</pdfrwt>
<pdfrwt beam="1">  1        4 0.83972772E-01 0.13488541E+03</pdfrwt>
<totfact> 0.15103845E+03</totfact>
</mgrwt>
</event>
<event>
 6    4  0.6277709E-003  0.1295242E+03  0.7818608E-02  0.1228163E+00
         21   -1    0    0  501  502  0.00000000000E+00  0.00000000000E+00  0.71687353208E+02  0.71687353208E+02  0.00000000000E+00 0. -1.
         -4   -1    0    0    0  501 -0.00000000000E+00 -0.00000000000E+00 -0.93257648568E+02  0.93266295715E+02  0.12700000000E+01 0. -1.
         25    2    1    2    0    0 -0.33946599217E+02  0.58737754545E+00 -0.18520489974E+02  0.13084161551E+03  0.12499521267E+03 0.  0.
    9000005    1    3    3    0    0 -0.21868335029E+02  0.50206710518E+02  0.28212368705E+02  0.61610677694E+02  0.10000000000E+01 0.  0.
    9000005    1    3    3    0    0 -0.12078264188E+02 -0.49619332972E+02 -0.46732858680E+02  0.69230937815E+02  0.10000000000E+01 0.  0.
         -4    1    1    2    0  502  0.33946599217E+02 -0.58737754545E+00 -0.30498053853E+01  0.34112033414E+02  0.12700000000E+01 0.  1.
<mgrwt>
<rscale>  1 0.12952421E+03</rscale>
<asrwt>0</asrwt>
<pdfrwt beam="1">  1       21 0.11028824E-01 0.12952421E+03</pdfrwt>
<pdfrwt beam="2">  1       -4 0.14348861E-01 0.12952421E+03</pdfrwt>
<totfact> 0.11113776E+05</totfact>
</mgrwt>
</event>
<event>
 6    4  0.6277709E-003  0.1278421E+03  0.7818608E-02  0.1230693E+00
         -4   -1    0    0    0  501 -0.00000000000E+00  0.00000000000E+00  0.17724482520E+03  0.17724937507E+03  0.12700000000E+01 0.  1.
         21   -1    0    0  501  502  0.00000000000E+00 -0.00000000000E+00 -0.35790882628E+02  0.35790882628E+02  0.00000000000E+00 0.  1.
         25    2    1    2    0    0  0.11798086002E+02 -0.24079747534E+02  0.13395241474E+03  0.18516706458E+03  0.12499825325E+03 0.  0.
    9000005    1    3    3    0    0 -0.53563200210E+02 -0.11123123764E+02  0.32056336469E+02  0.63414107317E+02  0.10000000000E+01 0.  0.
    9000005    1    3    3    0    0  0.65361286212E+02 -0.12956623771E+02  0.10189607827E+03  0.12175295726E+03  0.10000000000E+01 0.  0.
         -4    1    1    2    0  502 -0.11798086002E+02  0.24079747534E+02  0.75015278377E+01  0.27873193117E+02  0.12700000000E+01 0. -1.
<mgrwt>
<rscale>  1 0.12784206E+03</rscale>
<asrwt>0</asrwt>
<pdfrwt beam="2">  1       21 0.55062898E-02 0.12784206E+03</pdfrwt>
<pdfrwt beam="1">  1       -4 0.27270517E-01 0.12784206E+03</pdfrwt>
<totfact> 0.11577175E+05</totfact>
</mgrwt>
</event>
<event>
 6    4  0.6277709E-003  0.1372741E+03  0.7818608E-02  0.1217045E+00
          4   -1    0    0  502    0 -0.00000000000E+00  0.00000000000E+00  0.20669766112E+03  0.20670156267E+03  0.12700000000E+01 0.  1.
         21   -1    0    0  501  502  0.00000000000E+00 -0.00000000000E+00 -0.61045494571E+02  0.61045494571E+02  0.00000000000E+00 0. -1.
         25    2    1    2    0    0 -0.49458888841E+02 -0.27800283599E+02  0.15837537527E+03  0.20958753185E+03  0.12500054625E+03 0.  0.
    9000005    1    3    3    0    0 -0.17068002336E+02 -0.53517795392E+02  0.11962493189E+02  0.57441904309E+02  0.10000000000E+01 0.  0.
    9000005    1    3    3    0    0 -0.32390886505E+02  0.25717511793E+02  0.14641288208E+03  0.15214562754E+03  0.10000000000E+01 0.  0.
          4    1    1    2  501    0  0.49458888841E+02  0.27800283599E+02 -0.12723208724E+02  0.58159525392E+02  0.12700000000E+01 0. -1.
<mgrwt>
<rscale>  1 0.13727408E+03</rscale>
<asrwt>0</asrwt>
<pdfrwt beam="2">  1       21 0.93916146E-02 0.13727408E+03</pdfrwt>
<pdfrwt beam="1">  1        4 0.31800956E-01 0.13727408E+03</pdfrwt>
<totfact> 0.35012222E+04</totfact>
</mgrwt>
</event>
<event>
 6    4  0.6277709E-003  0.1333516E+03  0.7818608E-02  0.1222566E+00
         21   -1    0    0  501  502  0.00000000000E+00  0.00000000000E+00  0.18455016910E+03  0.18455016910E+03  0.00000000000E+00 0.  1.
         -4   -1    0    0    0  501 -0.00000000000E+00 -0.00000000000E+00 -0.51787982364E+02  0.51803552169E+02  0.12700000000E+01 0.  1.
         25    2    1    2    0    0 -0.37260815805E+02  0.27725474876E+02  0.51902619334E+02  0.14309626638E+03  0.12500235681E+03 0.  0.
    9000005    1    3    3    0    0  0.19557795009E+02 -0.39525092096E+02  0.26503915638E+02  0.51460643165E+02  0.10000000000E+01 0.  0.
    9000005    1    3    3    0    0 -0.56818610814E+02  0.67250566972E+02  0.25398703695E+02  0.91635623216E+02  0.10000000000E+01 0.  0.
         -4    1    1    2    0  502  0.37260815805E+02 -0.27725474876E+02  0.80859567404E+02  0.93257454889E+02  0.12700000000E+01 0. -1.
<mgrwt>
<rscale>  1 0.13335164E+03</rscale>
<asrwt>0</asrwt>
<pdfrwt beam="1">  1       21 0.28392333E-01 0.13335164E+03</pdfrwt>
<pdfrwt beam="2">  1       -4 0.79689158E-02 0.13335164E+03</pdfrwt>
<totfact> 0.53410547E+04</totfact>
</mgrwt>
</event>
<event>
 6    4  0.6277709E-003  0.1276876E+03  0.7818608E-02  0.1230928E+00
         21   -1    0    0  501  502  0.00000000000E+00  0.00000000000E+00  0.18513780403E+03  0.18513780403E+03  0.00000000000E+00 0. -1.
         -4   -1    0    0    0  501 -0.00000000000E+00 -0.00000000000E+00 -0.32241224126E+02  0.32266227439E+02  0.12700000000E+01 0. -1.
         25    2    1    2    0    0  0.26857871306E+01 -0.25872775303E+02  0.13490321144E+03  0.18574983485E+03  0.12501004255E+03 0.  0.
    9000005    1    3    3    0    0 -0.53359978424E+02  0.17460614855E+02  0.69260101737E+02  0.89163456983E+02  0.10000000000E+01 0.  0.
    9000005    1    3    3    0    0  0.56045765555E+02 -0.43333390158E+02  0.65643109701E+02  0.96586377872E+02  0.10000000000E+01 0.  0.
         -4    1    1    2    0  502 -0.26857871306E+01  0.25872775303E+02  0.17993368462E+02  0.31654196610E+02  0.12700000000E+01 0.  1.
<mgrwt>
<rscale>  1 0.12768761E+03</rscale>
<asrwt>0</asrwt>
<pdfrwt beam="1">  1       21 0.28482738E-01 0.12768761E+03</pdfrwt>
<pdfrwt beam="2">  1       -4 0.49624468E-02 0.12768761E+03</pdfrwt>
<totfact> 0.11421589E+05</totfact>
</mgrwt>
</event>
<event>
 6    4  0.6277709E-003  0.1455225E+03  0.7818608E-02  0.1206085E+00
         21   -1    0    0  501  502  0.00000000000E+00  0.00000000000E+00  0.14127364289E+03  0.14127364289E+03  0.00000000000E+00 0.  1.
         -4   -1    0    0    0  501 -0.00000000000E+00 -0.00000000000E+00 -0.90428654378E+02  0.90437572019E+02  0.12700000000E+01 0.  1.
         25    2    1    2    0    0 -0.59885875459E+02 -0.44352768863E+02  0.80015620296E+01  0.14574227704E+03  0.12499320036E+03 0.  0.
    9000005    1    3    3    0    0  0.32044830921E+02 -0.38982017510E+02 -0.11125467602E+02  0.51684087563E+02  0.10000000000E+01 0.  0.
    9000005    1    3    3    0    0 -0.91930706379E+02 -0.53707513537E+01  0.19127029632E+02  0.94058189479E+02  0.10000000000E+01 0.  0.
         -4    1    1    2    0  502  0.59885875459E+02  0.44352768863E+02  0.42843426482E+02  0.85968937867E+02  0.12700000000E+01 0. -1.
<mgrwt>
<rscale>  1 0.14552246E+03</rscale>
<asrwt>0</asrwt>
<pdfrwt beam="1">  1       21 0.21734407E-01 0.14552246E+03</pdfrwt>
<pdfrwt beam="2">  1       -4 0.13913226E-01 0.14552246E+03</pdfrwt>
<totfact> 0.34791013E+04</totfact>
</mgrwt>
</event>
<event>
 6    4  0.6277709E-003  0.1310691E+03  0.7818608E-02  0.1225878E+00
         -4   -1    0    0    0  501 -0.00000000000E+00  0.00000000000E+00  0.13344832215E+03  0.13345436518E+03  0.12700000000E+01 0. -1.
         21   -1    0    0  501  502  0.00000000000E+00 -0.00000000000E+00 -0.75713141913E+02  0.75713141913E+02  0.00000000000E+00 0. -1.
         25    2    1    2    0    0 -0.17055125548E+02  0.35543601388E+02  0.89341751745E+02  0.15862234739E+03  0.12499950232E+03 0.  0.
    9000005    1    3    3    0    0 -0.53600414202E+02 -0.21762389663E+02  0.19233872247E+02  0.60971697107E+02  0.10000000000E+01 0.  0.
    9000005    1    3    3    0    0  0.36545288655E+02  0.57305991051E+02  0.70107879498E+02  0.97650650284E+02  0.10000000000E+01 0.  0.
         -4    1    1    2    0  502  0.17055125548E+02 -0.35543601388E+02 -0.31606571504E+02  0.50545159702E+02  0.12700000000E+01 0.  1.
<mgrwt>
<rscale>  1 0.13106907E+03</rscale>
<asrwt>0</asrwt>
<pdfrwt beam="2">  1       21 0.11648176E-01 0.13106907E+03</pdfrwt>
<pdfrwt beam="1">  1       -4 0.20531795E-01 0.13106907E+03</pdfrwt>
<totfact> 0.53637084E+04</totfact>
</mgrwt>
</event>
<event>
 6    4  0.6277709E-003  0.1283134E+03  0.7818608E-02  0.1229980E+00
         21   -1    0    0  501  502  0.00000000000E+00  0.00000000000E+00  0.54026174154E+02  0.54026174154E+02  0.00000000000E+00 0. -1.
         -4   -1    0    0    0  501 -0.00000000000E+00 -0.00000000000E+00 -0.53807570632E+03  0.53807720509E+03  0.12700000000E+01 0.  1.
         25    2    1    2    0    0 -0.11343619980E+02  0.26739409194E+02 -0.52579839197E+03  0.54122849435E+03  0.12498264034E+03 0.  0.
    9000005    1    3    3    0    0 -0.32115934048E+02 -0.48995640409E+01 -0.30780256848E+02  0.44764530146E+02  0.10000000000E+01 0.  0.
    9000005    1    3    3    0    0  0.20772314068E+02  0.31638973234E+02 -0.49501813512E+03  0.49646396421E+03  0.10000000000E+01 0.  0.
         -4    1    1    2    0  502  0.11343619980E+02 -0.26739409194E+02  0.41748859797E+02  0.50874884890E+02  0.12700000000E+01 0. -1.
<mgrwt>
<rscale>  1 0.12831342E+03</rscale>
<asrwt>0</asrwt>
<pdfrwt beam="1">  1       21 0.83117193E-02 0.12831342E+03</pdfrwt>
<pdfrwt beam="2">  1       -4 0.82782140E-01 0.12831342E+03</pdfrwt>
<totfact> 0.60429607E+03</totfact>
</mgrwt>
</event>
<event>
 6    4  0.6277709E-003  0.1272207E+03  0.7818608E-02  0.1231639E+00
          4   -1    0    0  502    0 -0.00000000000E+00  0.00000000000E+00  0.20429422521E+03  0.20429817266E+03  0.12700000000E+01 0. -1.
         21   -1    0    0  501  502  0.00000000000E+00 -0.00000000000E+00 -0.34673222738E+02  0.34673222738E+02  0.00000000000E+00 0. -1.
         25    2    1    2    0    0  0.14123769588E+02 -0.18966844415E+02  0.17332254361E+03  0.21500190727E+03  0.12500357577E+03 0.  0.
    9000005    1    3    3    0    0  0.67832259464E+02 -0.23243255478E+02  0.81704776523E+02  0.10871124531E+03  0.10000000000E+01 0.  0.
    9000005    1    3    3    0    0 -0.53708489876E+02  0.42764110625E+01  0.91617767082E+02  0.10629066197E+03  0.10000000000E+01 0.  0.
          4    1    1    2  501    0 -0.14123769588E+02  0.18966844415E+02 -0.37015411337E+01  0.23969488130E+02  0.12700000000E+01 0.  1.
<mgrwt>
<rscale>  1 0.12722074E+03</rscale>
<asrwt>0</asrwt>
<pdfrwt beam="2">  1       21 0.53343421E-02 0.12722074E+03</pdfrwt>
<pdfrwt beam="1">  1        4 0.31431973E-01 0.12722074E+03</pdfrwt>
<totfact> 0.93426692E+04</totfact>
</mgrwt>
</event>
<event>
 6    4  0.6277709E-003  0.1275862E+03  0.7818608E-02  0.1231082E+00
         -4   -1    0    0    0  501 -0.00000000000E+00  0.00000000000E+00  0.91714935467E+02  0.91723728052E+02  0.12700000000E+01 0. -1.
         21   -1    0    0  501  502  0.00000000000E+00 -0.00000000000E+00 -0.13659530232E+03  0.13659530232E+03  0.00000000000E+00 0.  1.
         25    2    1    2    0    0  0.23783306981E+02  0.93537154977E+01  0.44673565769E+02  0.13518118934E+03  0.12500035515E+03 0.  0.
    9000005    1    3    3    0    0  0.12398839876E+02 -0.14335366019E+02 -0.41204515421E+02  0.45365692327E+02  0.10000000000E+01 0.  0.
    9000005    1    3    3    0    0  0.11384467104E+02  0.23689081516E+02  0.85878081190E+02  0.89815497010E+02  0.10000000000E+01 0.  0.
         -4    1    1    2    0  502 -0.23783306981E+02 -0.93537154977E+01 -0.89553932620E+02  0.93137841033E+02  0.12700000000E+01 0.  1.
<mgrwt>
<rscale>  1 0.12758615E+03</rscale>
<asrwt>0</asrwt>
<pdfrwt beam="2">  1       21 0.21014662E-01 0.12758615E+03</pdfrwt>
<pdfrwt beam="1">  1       -4 0.14111121E-01 0.12758615E+03</pdfrwt>
<totfact> 0.35637872E+04</totfact>
</mgrwt>
</event>
<event>
 6    4  0.6277709E-003  0.1270825E+03  0.7818608E-02  0.1231850E+00
          4   -1    0    0  502    0 -0.00000000000E+00  0.00000000000E+00  0.81395394370E+02  0.81405301575E+02  0.12700000000E+01 0. -1.
         21   -1    0    0  501  502  0.00000000000E+00 -0.00000000000E+00 -0.74007760300E+02  0.74007760300E+02  0.00000000000E+00 0. -1.
         25    2    1    2    0    0  0.39671525708E+00 -0.22887255240E+02 -0.87401100830E+01  0.12738270571E+03  0.12500392135E+03 0.  0.
    9000005    1    3    3    0    0  0.64927402815E+01 -0.31019095594E+02 -0.63874124783E+02  0.71310895273E+02  0.10000000000E+01 0.  0.
    9000005    1    3    3    0    0 -0.60960250245E+01  0.81318403538E+01  0.55134014700E+02  0.56071810436E+02  0.10000000000E+01 0.  0.
          4    1    1    2  501    0 -0.39671525708E+00  0.22887255240E+02  0.16127744152E+02  0.28030356167E+02  0.12700000000E+01 0.  1.
<mgrwt>
<rscale>  1 0.12708251E+03</rscale>
<asrwt>0</asrwt>
<pdfrwt beam="2">  1       21 0.11385809E-01 0.12708251E+03</pdfrwt>
<pdfrwt beam="1">  1        4 0.12523969E-01 0.12708251E+03</pdfrwt>
<totfact> 0.13249832E+05</totfact>
</mgrwt>
</event>
<event>
 6    4  0.6277709E-003  0.1404255E+03  0.7818608E-02  0.1212758E+00
          4   -1    0    0  502    0 -0.00000000000E+00  0.00000000000E+00  0.19626762661E+03  0.19627173550E+03  0.12700000000E+01 0.  1.
         21   -1    0    0  501  502  0.00000000000E+00 -0.00000000000E+00 -0.61102688050E+02  0.61102688050E+02  0.00000000000E+00 0.  1.
         25    2    1    2    0    0  0.55390198375E+02  0.32024850863E+02  0.13289449517E+03  0.19333980040E+03  0.12500266565E+03 0.  0.
    9000005    1    3    3    0    0  0.91194955957E+02  0.20986570429E+01  0.69838216966E+02  0.11488821046E+03  0.10000000000E+01 0.  0.
    9000005    1    3    3    0    0 -0.35804757582E+02  0.29926193820E+02  0.63056278209E+02  0.78451589937E+02  0.10000000000E+01 0.  0.
          4    1    1    2  501    0 -0.55390198375E+02 -0.32024850863E+02  0.22704433836E+01  0.64034623150E+02  0.12700000000E+01 0. -1.
<mgrwt>
<rscale>  1 0.14042554E+03</rscale>
<asrwt>0</asrwt>
<pdfrwt beam="2">  1       21 0.94004136E-02 0.14042554E+03</pdfrwt>
<pdfrwt beam="1">  1        4 0.30196351E-01 0.14042554E+03</pdfrwt>
<totfact> 0.38665310E+04</totfact>
</mgrwt>
</event>
<event>
 6    4  0.6277709E-003  0.1266974E+03  0.7818608E-02  0.1232440E+00
         21   -1    0    0  501  502  0.00000000000E+00  0.00000000000E+00  0.60654452648E+02  0.60654452648E+02  0.00000000000E+00 0. -1.
         -4   -1    0    0    0  501 -0.00000000000E+00 -0.00000000000E+00 -0.16983415012E+03  0.16983889851E+03  0.12700000000E+01 0. -1.
         25    2    1    2    0    0  0.85945640933E+01  0.18790478157E+02 -0.14286706347E+03  0.19095349622E+03  0.12500116517E+03 0.  0.
    9000005    1    3    3    0    0 -0.34422649120E+02 -0.16073396482E+02 -0.29655631779E+00  0.38004746974E+02  0.10000000000E+01 0.  0.
    9000005    1    3    3    0    0  0.43017213214E+02  0.34863874639E+02 -0.14257050715E+03  0.15294874925E+03  0.10000000000E+01 0.  0.
         -4    1    1    2    0  502 -0.85945640933E+01 -0.18790478157E+02  0.33687365991E+02  0.39539854941E+02  0.12700000000E+01 0.  1.
<mgrwt>
<rscale>  1 0.12669743E+03</rscale>
<asrwt>0</asrwt>
<pdfrwt beam="1">  1       21 0.93314542E-02 0.12669743E+03</pdfrwt>
<pdfrwt beam="2">  1       -4 0.26129719E-01 0.12669743E+03</pdfrwt>
<totfact> 0.50717166E+04</totfact>
</mgrwt>
</event>
<event>
 6    4  0.6277709E-003  0.1289774E+03  0.7818608E-02  0.1228981E+00
          4   -1    0    0  502    0 -0.00000000000E+00  0.00000000000E+00  0.93543387293E+03  0.93543473505E+03  0.12700000000E+01 0. -1.
         21   -1    0    0  501  502  0.00000000000E+00 -0.00000000000E+00 -0.81602688456E+01  0.81602688456E+01  0.00000000000E+00 0. -1.
         25    2    1    2    0    0 -0.89592884633E+01 -0.30452718494E+02  0.85464318614E+03  0.86432062326E+03  0.12501010864E+03 0.  0.
    9000005    1    3    3    0    0  0.38790054977E+02 -0.34154263289E+02  0.71148606685E+03  0.71336148297E+03  0.10000000000E+01 0.  0.
    9000005    1    3    3    0    0 -0.47749343441E+02  0.37015447955E+01  0.14315711929E+03  0.15095914029E+03  0.10000000000E+01 0.  0.
          4    1    1    2  501    0  0.89592884633E+01  0.30452718494E+02  0.72630417948E+02  0.79274380633E+02  0.12700000000E+01 0.  1.
<mgrwt>
<rscale>  1 0.12897738E+03</rscale>
<asrwt>0</asrwt>
<pdfrwt beam="2">  1       21 0.12554267E-02 0.12897738E+03</pdfrwt>
<pdfrwt beam="1">  1        4 0.14392049E+00 0.12897738E+03</pdfrwt>
<totfact> 0.37122099E+04</totfact>
</mgrwt>
</event>
<event>
 6    4  0.6277709E-003  0.1268650E+03  0.7818608E-02  0.1232183E+00
         21   -1    0    0  501  502  0.00000000000E+00  0.00000000000E+00  0.17444494416E+02  0.17444494416E+02  0.00000000000E+00 0. -1.
         -4   -1    0    0    0  501 -0.00000000000E+00 -0.00000000000E+00 -0.99171903096E+03  0.99171984414E+03  0.12700000000E+01 0.  1.
         25    2    1    2    0    0 -0.13018993329E+02 -0.17307114760E+02 -0.97881306325E+03  0.98700036930E+03  0.12500274313E+03 0.  0.
    9000005    1    3    3    0    0 -0.19738883897E+02  0.33682304400E+02 -0.11109959769E+03  0.11776349933E+03  0.10000000000E+01 0.  0.
    9000005    1    3    3    0    0  0.67198905681E+01 -0.50989419160E+02 -0.86771346557E+03  0.86923686997E+03  0.10000000000E+01 0.  0.
         -4    1    1    2    0  502  0.13018993329E+02  0.17307114760E+02  0.45385267108E+01  0.22163969259E+02  0.12700000000E+01 0. -1.
<mgrwt>
<rscale>  1 0.12686495E+03</rscale>
<asrwt>0</asrwt>
<pdfrwt beam="1">  1       21 0.26837682E-02 0.12686495E+03</pdfrwt>
<pdfrwt beam="2">  1       -4 0.15257578E+00 0.12686495E+03</pdfrwt>
<totfact> 0.94158926E+03</totfact>
</mgrwt>
</event>
<event>
 6    4  0.6277709E-003  0.1275217E+03  0.7818608E-02  0.1231180E+00
         21   -1    0    0  501  502  0.00000000000E+00  0.00000000000E+00  0.12451827130E+03  0.12451827130E+03  0.00000000000E+00 0. -1.
          4   -1    0    0  502    0 -0.00000000000E+00 -0.00000000000E+00 -0.73581428759E+02  0.73592387909E+02  0.12700000000E+01 0.  1.
         25    2    1    2    0    0 -0.11122718281E+02  0.22642889424E+02 -0.14140374234E+02  0.12830326457E+03  0.12500144884E+03 0.  0.
    9000005    1    3    3    0    0 -0.22999224986E+02  0.12102354734E+02  0.53142077771E+02  0.59165122918E+02  0.10000000000E+01 0.  0.
    9000005    1    3    3    0    0  0.11876506706E+02  0.10540534690E+02 -0.67282452005E+02  0.69138141650E+02  0.10000000000E+01 0.  0.
          4    1    1    2  501    0  0.11122718281E+02 -0.22642889424E+02  0.65077216773E+02  0.69807394640E+02  0.12700000000E+01 0. -1.
<mgrwt>
<rscale>  1 0.12752167E+03</rscale>
<asrwt>0</asrwt>
<pdfrwt beam="1">  1       21 0.19156657E-01 0.12752167E+03</pdfrwt>
<pdfrwt beam="2">  1        4 0.11321561E-01 0.12752167E+03</pdfrwt>
<totfact> 0.61715529E+04</totfact>
</mgrwt>
</event>
<event>
 6    4  0.6277709E-003  0.1278536E+03  0.7818608E-02  0.1230676E+00
         21   -1    0    0  501  502  0.00000000000E+00  0.00000000000E+00  0.12039911946E+03  0.12039911946E+03  0.00000000000E+00 0. -1.
         -4   -1    0    0    0  501 -0.00000000000E+00 -0.00000000000E+00 -0.13804110181E+03  0.13804694379E+03  0.12700000000E+01 0.  1.
         25    2    1    2    0    0  0.21687786563E+02  0.15836513120E+02 -0.10600541741E+03  0.16608338254E+03  0.12500154480E+03 0.  0.
    9000005    1    3    3    0    0  0.19428504869E+02  0.23804450790E+02 -0.13368483359E+03  0.13717417181E+03  0.10000000000E+01 0.  0.
    9000005    1    3    3    0    0  0.22592816940E+01 -0.79679376700E+01  0.27679416186E+02  0.28909210727E+02  0.10000000000E+01 0.  0.
         -4    1    1    2    0  502 -0.21687786563E+02 -0.15836513120E+02  0.88363435059E+02  0.92362680717E+02  0.12700000000E+01 0. -1.
<mgrwt>
<rscale>  1 0.12785359E+03</rscale>
<asrwt>0</asrwt>
<pdfrwt beam="1">  1       21 0.18522942E-01 0.12785359E+03</pdfrwt>
<pdfrwt beam="2">  1       -4 0.21238057E-01 0.12785359E+03</pdfrwt>
<totfact> 0.21826848E+04</totfact>
</mgrwt>
</event>
<event>
 6    4  0.6277709E-003  0.1267214E+03  0.7818608E-02  0.1232403E+00
         21   -1    0    0  501  502  0.00000000000E+00  0.00000000000E+00  0.49949058154E+02  0.49949058154E+02  0.00000000000E+00 0.  1.
          4   -1    0    0  502    0 -0.00000000000E+00 -0.00000000000E+00 -0.13602289782E+03  0.13602882647E+03  0.12700000000E+01 0.  1.
         25    2    1    2    0    0 -0.20821619720E+02  0.69513241549E+00 -0.99537961126E+02  0.16114004004E+03  0.12499713493E+03 0.  0.
    9000005    1    3    3    0    0  0.45928747156E+02 -0.22379972725E+02 -0.64512622752E+02  0.82299401509E+02  0.10000000000E+01 0.  0.
    9000005    1    3    3    0    0 -0.66750366876E+02  0.23075105141E+02 -0.35025338375E+02  0.78840638528E+02  0.10000000000E+01 0.  0.
          4    1    1    2  501    0  0.20821619720E+02 -0.69513241549E+00  0.13464121464E+02  0.24837844585E+02  0.12700000000E+01 0. -1.
<mgrwt>
<rscale>  1 0.12672137E+03</rscale>
<asrwt>0</asrwt>
<pdfrwt beam="1">  1       21 0.76844706E-02 0.12672137E+03</pdfrwt>
<pdfrwt beam="2">  1        4 0.20928297E-01 0.12672137E+03</pdfrwt>
<totfact> 0.10649821E+05</totfact>
</mgrwt>
</event>
<event>
 6    4  0.6277709E-003  0.1272360E+03  0.7818608E-02  0.1231616E+00
         21   -1    0    0  501  502  0.00000000000E+00  0.00000000000E+00  0.33983077288E+02  0.33983077288E+02  0.00000000000E+00 0.  1.
          4   -1    0    0  502    0 -0.00000000000E+00 -0.00000000000E+00 -0.22448562148E+03  0.22448921388E+03  0.12700000000E+01 0. -1.
         25    2    1    2    0    0  0.18622482626E+02 -0.14780758787E+02 -0.19633582669E+03  0.23395887089E+03  0.12499491484E+03 0.  0.
    9000005    1    3    3    0    0  0.54206674313E+02 -0.42965476520E+02 -0.16464772420E+03  0.17858966599E+03  0.10000000000E+01 0.  0.
    9000005    1    3    3    0    0 -0.35584191688E+02  0.28184717733E+02 -0.31688102484E+02  0.55369204896E+02  0.10000000000E+01 0.  0.
          4    1    1    2  501    0 -0.18622482626E+02  0.14780758787E+02  0.58332824976E+01  0.24513420287E+02  0.12700000000E+01 0.  1.
<mgrwt>
<rscale>  1 0.12723599E+03</rscale>
<asrwt>0</asrwt>
<pdfrwt beam="1">  1       21 0.52281656E-02 0.12723599E+03</pdfrwt>
<pdfrwt beam="2">  1        4 0.34538352E-01 0.12723599E+03</pdfrwt>
<totfact> 0.80713876E+04</totfact>
</mgrwt>
</event>
<event>
 6    4  0.6277709E-003  0.1391094E+03  0.7818608E-02  0.1214532E+00
         21   -1    0    0  501  502  0.00000000000E+00  0.00000000000E+00  0.13922121332E+03  0.13922121332E+03  0.00000000000E+00 0.  1.
         -4   -1    0    0    0  501 -0.00000000000E+00 -0.00000000000E+00 -0.16048327108E+03  0.16048829614E+03  0.12700000000E+01 0. -1.
         25    2    1    2    0    0  0.53310196101E+01 -0.60805457074E+02 -0.11993714523E+03  0.18367456142E+03  0.12500280928E+03 0.  0.
    9000005    1    3    3    0    0  0.25403063684E+02 -0.91388381591E+02 -0.56419218278E+02  0.11036883675E+03  0.10000000000E+01 0.  0.
    9000005    1    3    3    0    0 -0.20072044074E+02  0.30582924517E+02 -0.63517926948E+02  0.73305724668E+02  0.10000000000E+01 0.  0.
         -4    1    1    2    0  502 -0.53310196101E+01  0.60805457074E+02  0.98675087468E+02  0.11603494804E+03  0.12700000000E+01 0.  1.
<mgrwt>
<rscale>  1 0.13910940E+03</rscale>
<asrwt>0</asrwt>
<pdfrwt beam="1">  1       21 0.21418648E-01 0.13910940E+03</pdfrwt>
<pdfrwt beam="2">  1       -4 0.24690566E-01 0.13910940E+03</pdfrwt>
<totfact> 0.12772348E+04</totfact>
</mgrwt>
</event>
<event>
 6    4  0.6277709E-003  0.1296268E+03  0.7818608E-02  0.1228010E+00
         21   -1    0    0  501  502  0.00000000000E+00  0.00000000000E+00  0.99549359605E+02  0.99549359605E+02  0.00000000000E+00 0.  1.
         -4   -1    0    0    0  501 -0.00000000000E+00 -0.00000000000E+00 -0.68130150684E+02  0.68141986559E+02  0.12700000000E+01 0. -1.
         25    2    1    2    0    0  0.22851712582E+02  0.25610095710E+02  0.18243825042E+02  0.13090437278E+03  0.12500015956E+03 0.  0.
    9000005    1    3    3    0    0  0.21773657834E+01  0.69234987788E+02  0.37671209765E+02  0.78856480399E+02  0.10000000000E+01 0.  0.
    9000005    1    3    3    0    0  0.20674346798E+02 -0.43624892078E+02 -0.19427384723E+02  0.52047892383E+02  0.10000000000E+01 0.  0.
         -4    1    1    2    0  502 -0.22851712582E+02 -0.25610095710E+02  0.13175383879E+02  0.36786973381E+02  0.12700000000E+01 0.  1.
<mgrwt>
<rscale>  1 0.12962684E+03</rscale>
<asrwt>0</asrwt>
<pdfrwt beam="1">  1       21 0.15315286E-01 0.12962684E+03</pdfrwt>
<pdfrwt beam="2">  1       -4 0.10483095E-01 0.12962684E+03</pdfrwt>
<totfact> 0.10595812E+05</totfact>
</mgrwt>
</event>
<event>
 6    4  0.6277709E-003  0.1276411E+03  0.7818608E-02  0.1230998E+00
         21   -1    0    0  501  502  0.00000000000E+00  0.00000000000E+00  0.75749676785E+03  0.75749676785E+03  0.00000000000E+00 0.  1.
          4   -1    0    0  502    0 -0.00000000000E+00 -0.00000000000E+00 -0.77193951314E+01  0.78231682326E+01  0.12700000000E+01 0. -1.
         25    2    1    2    0    0 -0.17565608422E+02 -0.18779458560E+02  0.63225992431E+03  0.64501539650E+03  0.12502412237E+03 0.  0.
    9000005    1    3    3    0    0 -0.68962520467E+02 -0.28666658662E+02  0.40200961273E+03  0.40888914791E+03  0.10000000000E+01 0.  0.
    9000005    1    3    3    0    0  0.51396912045E+02  0.98872001021E+01  0.23025031158E+03  0.23612624859E+03  0.10000000000E+01 0.  0.
          4    1    1    2  501    0  0.17565608422E+02  0.18779458560E+02  0.11751744841E+03  0.12030453958E+03  0.12700000000E+01 0.  1.
<mgrwt>
<rscale>  1 0.12764110E+03</rscale>
<asrwt>0</asrwt>
<pdfrwt beam="1">  1       21 0.11653791E+00 0.12764110E+03</pdfrwt>
<pdfrwt beam="2">  1        4 0.11956643E-02 0.12764110E+03</pdfrwt>
<totfact> 0.51929796E+04</totfact>
</mgrwt>
</event>
<event>
 6    4  0.6277709E-003  0.1268566E+03  0.7818608E-02  0.1232196E+00
          4   -1    0    0  502    0 -0.00000000000E+00  0.00000000000E+00  0.17773037680E+03  0.17773491423E+03  0.12700000000E+01 0.  1.
         21   -1    0    0  501  502  0.00000000000E+00 -0.00000000000E+00 -0.49245094476E+02  0.49245094476E+02  0.00000000000E+00 0.  1.
         25    2    1    2    0    0  0.12325620060E+02  0.17776189847E+02  0.14999633691E+03  0.19644720331E+03  0.12499875506E+03 0.  0.
    9000005    1    3    3    0    0 -0.25202364953E+02  0.41099731067E+02  0.94808854267E+01  0.49145033131E+02  0.10000000000E+01 0.  0.
    9000005    1    3    3    0    0  0.37527985013E+02 -0.23323541220E+02  0.14051545149E+03  0.14730217018E+03  0.10000000000E+01 0.  0.
          4    1    1    2  501    0 -0.12325620060E+02 -0.17776189847E+02 -0.21511054593E+02  0.30532805391E+02  0.12700000000E+01 0. -1.
<mgrwt>
<rscale>  1 0.12685662E+03</rscale>
<asrwt>0</asrwt>
<pdfrwt beam="2">  1       21 0.75761685E-02 0.12685662E+03</pdfrwt>
<pdfrwt beam="1">  1        4 0.27344743E-01 0.12685662E+03</pdfrwt>
<totfact> 0.66832865E+04</totfact>
</mgrwt>
</event>
<event>
 6    4  0.6277709E-003  0.1269255E+03  0.7818608E-02  0.1232090E+00
          4   -1    0    0  502    0 -0.00000000000E+00  0.00000000000E+00  0.25112868539E+03  0.25113189667E+03  0.12700000000E+01 0.  1.
         21   -1    0    0  501  502  0.00000000000E+00 -0.00000000000E+00 -0.22771365973E+02  0.22771365973E+02  0.00000000000E+00 0.  1.
         25    2    1    2    0    0  0.20209187890E+02 -0.87115131145E+01  0.20922716795E+03  0.24471632496E+03  0.12500308060E+03 0.  0.
    9000005    1    3    3    0    0  0.34233792939E+02 -0.22591780649E+02  0.71151512061E+01  0.41640923484E+02  0.10000000000E+01 0.  0.
    9000005    1    3    3    0    0 -0.14024605050E+02  0.13880267535E+02  0.20211201674E+03  0.20307540148E+03  0.10000000000E+01 0.  0.
          4    1    1    2  501    0 -0.20209187890E+02  0.87115131145E+01  0.19130151462E+02  0.29186937675E+02  0.12700000000E+01 0. -1.
<mgrwt>
<rscale>  1 0.12692546E+03</rscale>
<asrwt>0</asrwt>
<pdfrwt beam="2">  1       21 0.35032873E-02 0.12692546E+03</pdfrwt>
<pdfrwt beam="1">  1        4 0.38638152E-01 0.12692546E+03</pdfrwt>
<totfact> 0.12648412E+05</totfact>
</mgrwt>
</event>
<event>
 6    4  0.6277709E-003  0.1411089E+03  0.7818608E-02  0.1211845E+00
         21   -1    0    0  501  502  0.00000000000E+00  0.00000000000E+00  0.14576936710E+03  0.14576936710E+03  0.00000000000E+00 0.  1.
         -4   -1    0    0    0  501 -0.00000000000E+00 -0.00000000000E+00 -0.99255128961E+02  0.99263253650E+02  0.12700000000E+01 0. -1.
         25    2    1    2    0    0  0.34622796204E+02 -0.55555561964E+02 -0.30068551935E+02  0.14427699997E+03  0.12500630554E+03 0.  0.
    9000005    1    3    3    0    0 -0.41010627313E+02 -0.37454409667E+02  0.10536685498E+02  0.56539597605E+02  0.10000000000E+01 0.  0.
    9000005    1    3    3    0    0  0.75633423517E+02 -0.18101152297E+02 -0.40605237433E+02  0.87737402369E+02  0.10000000000E+01 0.  0.
         -4    1    1    2    0  502 -0.34622796204E+02  0.55555561964E+02  0.76582790071E+02  0.10075562077E+03  0.12700000000E+01 0.  1.
<mgrwt>
<rscale>  1 0.14110895E+03</rscale>
<asrwt>0</asrwt>
<pdfrwt beam="1">  1       21 0.22426057E-01 0.14110895E+03</pdfrwt>
<pdfrwt beam="2">  1       -4 0.15271070E-01 0.14110895E+03</pdfrwt>
<totfact> 0.27805859E+04</totfact>
</mgrwt>
</event>
<event>
 6    4  0.6277709E-003  0.1316617E+03  0.7818608E-02  0.1225011E+00
         21   -1    0    0  501  502  0.00000000000E+00  0.00000000000E+00  0.37622863321E+02  0.37622863321E+02  0.00000000000E+00 0. -1.
         -4   -1    0    0    0  501 -0.00000000000E+00 -0.00000000000E+00 -0.28546184860E+03  0.28546467366E+03  0.12700000000E+01 0.  1.
         25    2    1    2    0    0  0.41339097294E+02 -0.14647616367E+01 -0.24902256979E+03  0.28168608454E+03  0.12499497377E+03 0.  0.
    9000005    1    3    3    0    0 -0.33586995634E+00 -0.53647520464E+02 -0.56554622286E+02  0.77958928690E+02  0.10000000000E+01 0.  0.
    9000005    1    3    3    0    0  0.41674967251E+02  0.52182758827E+02 -0.19246794751E+03  0.20372715585E+03  0.10000000000E+01 0.  0.
         -4    1    1    2    0  502 -0.41339097294E+02  0.14647616367E+01  0.11835845116E+01  0.41401452439E+02  0.12700000000E+01 0. -1.
<mgrwt>
<rscale>  1 0.13166173E+03</rscale>
<asrwt>0</asrwt>
<pdfrwt beam="1">  1       21 0.57881330E-02 0.13166173E+03</pdfrwt>
<pdfrwt beam="2">  1       -4 0.43919072E-01 0.13166173E+03</pdfrwt>
<totfact> 0.42659916E+04</totfact>
</mgrwt>
</event>
<event>
 6    4  0.6277709E-003  0.1337133E+03  0.7818608E-02  0.1222048E+00
          4   -1    0    0  502    0 -0.00000000000E+00  0.00000000000E+00  0.47339368923E+02  0.47356401362E+02  0.12700000000E+01 0.  1.
         21   -1    0    0  501  502  0.00000000000E+00 -0.00000000000E+00 -0.20452611694E+03  0.20452611694E+03  0.00000000000E+00 0.  1.
         25    2    1    2    0    0  0.27707124851E+02  0.38559732850E+02 -0.66109508535E+02  0.14916341484E+03  0.12499887776E+03 0.  0.
    9000005    1    3    3    0    0  0.70694920797E+02  0.51377856939E+02 -0.33084634033E+02  0.93450783941E+02  0.10000000000E+01 0.  0.
    9000005    1    3    3    0    0 -0.42987795946E+02 -0.12818124089E+02 -0.33024874503E+02  0.55712630897E+02  0.10000000000E+01 0.  0.
          4    1    1    2  501    0 -0.27707124851E+02 -0.38559732850E+02 -0.91077239482E+02  0.10271910347E+03  0.12700000000E+01 0. -1.
<mgrwt>
<rscale>  1 0.13371334E+03</rscale>
<asrwt>0</asrwt>
<pdfrwt beam="2">  1       21 0.31465557E-01 0.13371334E+03</pdfrwt>
<pdfrwt beam="1">  1        4 0.72845933E-02 0.13371334E+03</pdfrwt>
<totfact> 0.50812727E+04</totfact>
</mgrwt>
</event>
<event>
 6    4  0.6277709E-003  0.1288190E+03  0.7818608E-02  0.1229219E+00
          4   -1    0    0  502    0 -0.00000000000E+00  0.00000000000E+00  0.95122867906E+03  0.95122952686E+03  0.12700000000E+01 0. -1.
         21   -1    0    0  501  502  0.00000000000E+00 -0.00000000000E+00 -0.75904572541E+01  0.75904572541E+01  0.00000000000E+00 0. -1.
         25    2    1    2    0    0 -0.25135148332E+02 -0.18430559739E+02  0.85921504605E+03  0.86881805792E+03  0.12499144447E+03 0.  0.
    9000005    1    3    3    0    0 -0.29194578288E+02 -0.65388018329E+02  0.33962625624E+03  0.34709495858E+03  0.10000000000E+01 0.  0.
    9000005    1    3    3    0    0  0.40594299566E+01  0.46957458590E+02  0.51958878981E+03  0.52172309934E+03  0.10000000000E+01 0.  0.
          4    1    1    2  501    0  0.25135148332E+02  0.18430559739E+02  0.84423175754E+02  0.90001926192E+02  0.12700000000E+01 0.  1.
<mgrwt>
<rscale>  1 0.12881895E+03</rscale>
<asrwt>0</asrwt>
<pdfrwt beam="2">  1       21 0.11677634E-02 0.12881895E+03</pdfrwt>
<pdfrwt beam="1">  1        4 0.14635102E+00 0.12881895E+03</pdfrwt>
<totfact> 0.39909236E+04</totfact>
</mgrwt>
</event>
<event>
 6    4  0.6277709E-003  0.1284024E+03  0.7818608E-02  0.1229846E+00
         21   -1    0    0  501  502  0.00000000000E+00  0.00000000000E+00  0.12254121529E+02  0.12254121529E+02  0.00000000000E+00 0.  1.
         -4   -1    0    0    0  501 -0.00000000000E+00 -0.00000000000E+00 -0.52813987985E+03  0.52814140681E+03  0.12700000000E+01 0. -1.
         25    2    1    2    0    0 -0.29187938491E+02 -0.30162862883E+01 -0.37182839367E+03  0.39337454022E+03  0.12500456320E+03 0.  0.
    9000005    1    3    3    0    0 -0.35979952096E+02 -0.40590289633E+02 -0.33807994491E+03  0.34240499078E+03  0.10000000000E+01 0.  0.
    9000005    1    3    3    0    0  0.67920136048E+01  0.37574003345E+02 -0.33748448760E+02  0.50969549438E+02  0.10000000000E+01 0.  0.
         -4    1    1    2    0  502  0.29187938491E+02  0.30162862883E+01 -0.14405736466E+03  0.14702098812E+03  0.12700000000E+01 0.  1.
<mgrwt>
<rscale>  1 0.12840239E+03</rscale>
<asrwt>0</asrwt>
<pdfrwt beam="1">  1       21 0.18852493E-02 0.12840239E+03</pdfrwt>
<pdfrwt beam="2">  1       -4 0.81257477E-01 0.12840239E+03</pdfrwt>
<totfact> 0.74262802E+04</totfact>
</mgrwt>
</event>
<event>
 6    4  0.6277709E-003  0.1282766E+03  0.7818608E-02  0.1230036E+00
         -4   -1    0    0    0  501 -0.00000000000E+00  0.00000000000E+00  0.49555919647E+02  0.49572190511E+02  0.12700000000E+01 0. -1.
         21   -1    0    0  501  502  0.00000000000E+00 -0.00000000000E+00 -0.35238193767E+03  0.35238193767E+03  0.00000000000E+00 0.  1.
         25    2    1    2    0    0 -0.59822926325E+01 -0.28186048274E+02 -0.35529483937E+02  0.13310604622E+03  0.12499853666E+03 0.  0.
    9000005    1    3    3    0    0  0.37621336359E+02  0.56111497701E+01  0.29263596233E+02  0.48002166781E+02  0.10000000000E+01 0.  0.
    9000005    1    3    3    0    0 -0.43603628992E+02 -0.33797198044E+02 -0.64793080171E+02  0.85103879435E+02  0.10000000000E+01 0.  0.
         -4    1    1    2    0  502  0.59822926325E+01  0.28186048274E+02 -0.26729653408E+03  0.26884808196E+03  0.12700000000E+01 0.  1.
<mgrwt>
<rscale>  1 0.12827656E+03</rscale>
<asrwt>0</asrwt>
<pdfrwt beam="2">  1       21 0.54212603E-01 0.12827656E+03</pdfrwt>
<pdfrwt beam="1">  1       -4 0.76254156E-02 0.12827656E+03</pdfrwt>
<totfact> 0.15719557E+04</totfact>
</mgrwt>
</event>
<event>
 6    4  0.6277709E-003  0.1328562E+03  0.7818608E-02  0.1223278E+00
         21   -1    0    0  501  502  0.00000000000E+00  0.00000000000E+00  0.17235250553E+03  0.17235250553E+03  0.00000000000E+00 0. -1.
         -4   -1    0    0    0  501 -0.00000000000E+00 -0.00000000000E+00 -0.42659187743E+03  0.42659376788E+03  0.12700000000E+01 0.  1.
         25    2    1    2    0    0  0.42168142908E+02  0.15723157215E+02 -0.41304298791E+03  0.43388394789E+03  0.12500160170E+03 0.  0.
    9000005    1    3    3    0    0  0.64321910095E+01  0.36550371539E+02 -0.37755227697E+03  0.37937319962E+03  0.10000000000E+01 0.  0.
    9000005    1    3    3    0    0  0.35735951898E+02 -0.20827214324E+02 -0.35490710932E+02  0.54510748271E+02  0.10000000000E+01 0.  0.
         -4    1    1    2    0  502 -0.42168142908E+02 -0.15723157215E+02  0.15880361600E+03  0.16506232551E+03  0.12700000000E+01 0. -1.
<mgrwt>
<rscale>  1 0.13285620E+03</rscale>
<asrwt>0</asrwt>
<pdfrwt beam="1">  1       21 0.26515770E-01 0.13285620E+03</pdfrwt>
<pdfrwt beam="2">  1       -4 0.65630024E-01 0.13285620E+03</pdfrwt>
<totfact> 0.12347651E+03</totfact>
</mgrwt>
</event>
<event>
 6    4  0.6277709E-003  0.1343112E+03  0.7818608E-02  0.1221195E+00
          4   -1    0    0  502    0 -0.00000000000E+00  0.00000000000E+00  0.10749206870E+02  0.10823971006E+02  0.12700000000E+01 0.  1.
         21   -1    0    0  501  502  0.00000000000E+00 -0.00000000000E+00 -0.82395514059E+03  0.82395514059E+03  0.00000000000E+00 0.  1.
         25    2    1    2    0    0  0.20729216701E+02 -0.44579222441E+02 -0.49953508879E+03  0.51727632522E+03  0.12498993640E+03 0.  0.
    9000005    1    3    3    0    0 -0.38757634467E+02 -0.50645953496E+02 -0.35780673778E+03  0.36344714668E+03  0.10000000000E+01 0.  0.
    9000005    1    3    3    0    0  0.59486851168E+02  0.60667310552E+01 -0.14172835102E+03  0.15382917854E+03  0.10000000000E+01 0.  0.
          4    1    1    2  501    0 -0.20729216701E+02  0.44579222441E+02 -0.31367084492E+03  0.31750278637E+03  0.12700000000E+01 0. -1.
<mgrwt>
<rscale>  1 0.13431117E+03</rscale>
<asrwt>0</asrwt>
<pdfrwt beam="2">  1       21 0.12676233E+00 0.13431117E+03</pdfrwt>
<pdfrwt beam="1">  1        4 0.16595505E-02 0.13431117E+03</pdfrwt>
<totfact> 0.25778369E+04</totfact>
</mgrwt>
</event>
<event>
 6    4  0.6277709E-003  0.1375679E+03  0.7818608E-02  0.1216639E+00
         21   -1    0    0  501  502  0.00000000000E+00  0.00000000000E+00  0.85808598017E+02  0.85808598017E+02  0.00000000000E+00 0. -1.
          4   -1    0    0  502    0 -0.00000000000E+00 -0.00000000000E+00 -0.28725328112E+03  0.28725608856E+03  0.12700000000E+01 0.  1.
         25    2    1    2    0    0  0.54532812121E+02 -0.17637300438E+02 -0.25809474139E+03  0.29246850821E+03  0.12506010872E+03 0.  0.
    9000005    1    3    3    0    0 -0.45605420443E+01  0.47192230225E+02 -0.65799840165E+02  0.81108101340E+02  0.10000000000E+01 0.  0.
    9000005    1    3    3    0    0  0.59093354165E+02 -0.64829530662E+02 -0.19229490123E+03  0.21136040687E+03  0.10000000000E+01 0.  0.
          4    1    1    2  501    0 -0.54532812121E+02  0.17637300438E+02  0.56650058286E+02  0.80596178373E+02  0.12700000000E+01 0. -1.
<mgrwt>
<rscale>  1 0.13756792E+03</rscale>
<asrwt>0</asrwt>
<pdfrwt beam="1">  1       21 0.13201323E-01 0.13756792E+03</pdfrwt>
<pdfrwt beam="2">  1        4 0.44193750E-01 0.13756792E+03</pdfrwt>
<totfact> 0.10104555E+04</totfact>
</mgrwt>
</event>
<event>
 6    4  0.6277709E-003  0.1990823E+03  0.7818608E-02  0.1150516E+00
         21   -1    0    0  501  502  0.00000000000E+00  0.00000000000E+00  0.15221443040E+03  0.15221443040E+03  0.00000000000E+00 0. -1.
         -4   -1    0    0    0  501 -0.00000000000E+00 -0.00000000000E+00 -0.28689675034E+03  0.28689956127E+03  0.12700000000E+01 0.  1.
         25    2    1    2    0    0  0.14695786475E+03 -0.49110169254E+02 -0.18940108352E+03  0.27478450945E+03  0.12500133382E+03 0.  0.
    9000005    1    3    3    0    0  0.21029597707E+02 -0.67735920127E+02 -0.80147814501E+02  0.10702836551E+03  0.10000000000E+01 0.  0.
    9000005    1    3    3    0    0  0.12592826704E+03  0.18625750872E+02 -0.10925326902E+03  0.16775614394E+03  0.10000000000E+01 0.  0.
         -4    1    1    2    0  502 -0.14695786475E+03  0.49110169254E+02  0.54718763582E+02  0.16432948221E+03  0.12700000000E+01 0. -1.
<mgrwt>
<rscale>  1 0.19908228E+03</rscale>
<asrwt>0</asrwt>
<pdfrwt beam="1">  1       21 0.23417605E-01 0.19908228E+03</pdfrwt>
<pdfrwt beam="2">  1       -4 0.44138585E-01 0.19908228E+03</pdfrwt>
<totfact> 0.36078893E+03</totfact>
</mgrwt>
</event>
<event>
 6    4  0.6277709E-003  0.1271573E+03  0.7818608E-02  0.1231736E+00
         21   -1    0    0  501  502  0.00000000000E+00  0.00000000000E+00  0.73400728214E+01  0.73400728214E+01  0.00000000000E+00 0. -1.
          4   -1    0    0  502    0 -0.00000000000E+00 -0.00000000000E+00 -0.10161518412E+04  0.10161526349E+04  0.12700000000E+01 0.  1.
         25    2    1    2    0    0  0.24529493166E+01 -0.23179818624E+02 -0.96926413452E+03  0.97756941078E+03  0.12500267790E+03 0.  0.
    9000005    1    3    3    0    0  0.36339273170E+02 -0.26700338337E+02 -0.12979872718E+03  0.13741237360E+03  0.10000000000E+01 0.  0.
    9000005    1    3    3    0    0 -0.33886323853E+02  0.35205197132E+01 -0.83946540734E+03  0.84015703718E+03  0.10000000000E+01 0.  0.
          4    1    1    2  501    0 -0.24529493166E+01  0.23179818624E+02 -0.39547633886E+02  0.45923296896E+02  0.12700000000E+01 0. -1.
<mgrwt>
<rscale>  1 0.12715735E+03</rscale>
<asrwt>0</asrwt>
<pdfrwt beam="1">  1       21 0.11292421E-02 0.12715735E+03</pdfrwt>
<pdfrwt beam="2">  1        4 0.15633954E+00 0.12715735E+03</pdfrwt>
<totfact> 0.35511451E+04</totfact>
</mgrwt>
</event>
<event>
 6    4  0.6277709E-003  0.1266642E+03  0.7818608E-02  0.1232491E+00
          4   -1    0    0  502    0 -0.00000000000E+00  0.00000000000E+00  0.11906573126E+03  0.11907250422E+03  0.12700000000E+01 0.  1.
         21   -1    0    0  501  502  0.00000000000E+00 -0.00000000000E+00 -0.11142090022E+03  0.11142090022E+03  0.00000000000E+00 0. -1.
         25    2    1    2    0    0  0.84317472893E+01 -0.18644757202E+02  0.83635848693E+02  0.15178527908E+03  0.12500037770E+03 0.  0.
    9000005    1    3    3    0    0 -0.36176091044E+02  0.18326873293E+02  0.84608854014E+02  0.93830922544E+02  0.10000000000E+01 0.  0.
    9000005    1    3    3    0    0  0.44607838333E+02 -0.36971630494E+02 -0.97300532041E+00  0.57954356536E+02  0.10000000000E+01 0.  0.
          4    1    1    2  501    0 -0.84317472893E+01  0.18644757202E+02 -0.75991017650E+02  0.78708125355E+02  0.12700000000E+01 0. -1.
<mgrwt>
<rscale>  1 0.12666418E+03</rscale>
<asrwt>0</asrwt>
<pdfrwt beam="2">  1       21 0.17141677E-01 0.12666418E+03</pdfrwt>
<pdfrwt beam="1">  1        4 0.18318883E-01 0.12666418E+03</pdfrwt>
<totfact> 0.32754199E+04</totfact>
</mgrwt>
</event>
<event>
 6    4  0.6277709E-003  0.1354009E+03  0.7818608E-02  0.1219655E+00
         -4   -1    0    0    0  501 -0.00000000000E+00  0.00000000000E+00  0.17859607709E+03  0.17860059253E+03  0.12700000000E+01 0.  1.
         21   -1    0    0  501  502  0.00000000000E+00 -0.00000000000E+00 -0.49410590584E+02  0.49410590584E+02  0.00000000000E+00 0.  1.
         25    2    1    2    0    0 -0.16301509818E+02  0.49469795996E+02  0.99673627690E+02  0.16813161524E+03  0.12498163084E+03 0.  0.
    9000005    1    3    3    0    0 -0.50916209516E+02  0.75220686275E+02  0.78523796830E+02  0.12007330554E+03  0.10000000000E+01 0.  0.
    9000005    1    3    3    0    0  0.34614699698E+02 -0.25750890279E+02  0.21149830859E+02  0.48058309694E+02  0.10000000000E+01 0.  0.
         -4    1    1    2    0  502  0.16301509818E+02 -0.49469795996E+02  0.29511858815E+02  0.59879567875E+02  0.12700000000E+01 0. -1.
<mgrwt>
<rscale>  1 0.13540092E+03</rscale>
<asrwt>0</asrwt>
<pdfrwt beam="2">  1       21 0.76016294E-02 0.13540092E+03</pdfrwt>
<pdfrwt beam="1">  1       -4 0.27477922E-01 0.13540092E+03</pdfrwt>
<totfact> 0.66423490E+04</totfact>
</mgrwt>
</event>
<event>
 6    4  0.6277709E-003  0.1388804E+03  0.7818608E-02  0.1214843E+00
         -4   -1    0    0    0  501 -0.00000000000E+00  0.00000000000E+00  0.51292682710E+03  0.51292839935E+03  0.12700000000E+01 0.  1.
         21   -1    0    0  501  502  0.00000000000E+00 -0.00000000000E+00 -0.27430117144E+02  0.27430117144E+02  0.00000000000E+00 0. -1.
         25    2    1    2    0    0  0.56150705259E+02  0.22605106604E+02  0.44825862593E+03  0.46927982526E+03  0.12499546444E+03 0.  0.
    9000005    1    3    3    0    0  0.57629333782E+02 -0.40306974834E+02  0.16966379078E+03  0.18366435210E+03  0.10000000000E+01 0.  0.
    9000005    1    3    3    0    0 -0.14786285232E+01  0.62912081438E+02  0.27859483515E+03  0.28561547315E+03  0.10000000000E+01 0.  0.
         -4    1    1    2    0  502 -0.56150705259E+02 -0.22605106604E+02  0.37238084027E+02  0.71078691235E+02  0.12700000000E+01 0. -1.
<mgrwt>
<rscale>  1 0.13888038E+03</rscale>
<asrwt>0</asrwt>
<pdfrwt beam="2">  1       21 0.42200184E-02 0.13888038E+03</pdfrwt>
<pdfrwt beam="1">  1       -4 0.78914195E-01 0.13888038E+03</pdfrwt>
<totfact> 0.21379080E+04</totfact>
</mgrwt>
</event>
<event>
 6    4  0.6277709E-003  0.1306217E+03  0.7818608E-02  0.1226536E+00
          4   -1    0    0  502    0 -0.00000000000E+00  0.00000000000E+00  0.37712592385E+03  0.37712806226E+03  0.12700000000E+01 0. -1.
         21   -1    0    0  501  502  0.00000000000E+00 -0.00000000000E+00 -0.24744730316E+02  0.24744730316E+02  0.00000000000E+00 0. -1.
         25    2    1    2    0    0 -0.35476358522E+02  0.13367478867E+02  0.33610689672E+03  0.36059656282E+03  0.12499909438E+03 0.  0.
    9000005    1    3    3    0    0 -0.63219995539E+02  0.36229114375E+02  0.30325315489E+03  0.31188586456E+03  0.10000000000E+01 0.  0.
    9000005    1    3    3    0    0  0.27743637018E+02 -0.22861635508E+02  0.32853741828E+02  0.48710698262E+02  0.10000000000E+01 0.  0.
          4    1    1    2  501    0  0.35476358522E+02 -0.13367478867E+02  0.16274296819E+02  0.41276229748E+02  0.12700000000E+01 0.  1.
<mgrwt>
<rscale>  1 0.13062173E+03</rscale>
<asrwt>0</asrwt>
<pdfrwt beam="2">  1       21 0.38068819E-02 0.13062173E+03</pdfrwt>
<pdfrwt beam="1">  1        4 0.58022040E-01 0.13062173E+03</pdfrwt>
<totfact> 0.48725414E+04</totfact>
</mgrwt>
</event>
<event>
 6    4  0.6277709E-003  0.1336802E+03  0.7818608E-02  0.1222095E+00
         21   -1    0    0  501  502  0.00000000000E+00  0.00000000000E+00  0.97726095112E+02  0.97726095112E+02  0.00000000000E+00 0. -1.
         -4   -1    0    0    0  501 -0.00000000000E+00 -0.00000000000E+00 -0.10217239172E+03  0.10218028445E+03  0.12700000000E+01 0. -1.
         25    2    1    2    0    0 -0.83395473297E+01 -0.46647713688E+02 -0.41241768975E+02  0.13989740582E+03  0.12499937362E+03 0.  0.
    9000005    1    3    3    0    0  0.22869040399E+02 -0.14968787672E+02 -0.77707158739E+02  0.82379974098E+02  0.10000000000E+01 0.  0.
    9000005    1    3    3    0    0 -0.31208587729E+02 -0.31678926016E+02  0.36465389764E+02  0.57517431724E+02  0.10000000000E+01 0.  0.
         -4    1    1    2    0  502  0.83395473297E+01  0.46647713688E+02  0.36795472368E+02  0.60008973735E+02  0.12700000000E+01 0.  1.
<mgrwt>
<rscale>  1 0.13368022E+03</rscale>
<asrwt>0</asrwt>
<pdfrwt beam="1">  1       21 0.15034784E-01 0.13368022E+03</pdfrwt>
<pdfrwt beam="2">  1       -4 0.15720071E-01 0.13368022E+03</pdfrwt>
<totfact> 0.54786079E+04</totfact>
</mgrwt>
</event>
<event>
 6    4  0.6277709E-003  0.1527756E+03  0.7818608E-02  0.1197103E+00
          4   -1    0    0  502    0 -0.00000000000E+00  0.00000000000E+00  0.67104065417E+02  0.67116082242E+02  0.12700000000E+01 0. -1.
         21   -1    0    0  501  502  0.00000000000E+00 -0.00000000000E+00 -0.45553450076E+03  0.45553450076E+03  0.00000000000E+00 0.  1.
         25    2    1    2    0    0 -0.82424175625E+02  0.30358748800E+02 -0.32702624183E+02  0.15623649090E+03  0.12499992442E+03 0.  0.
    9000005    1    3    3    0    0  0.16551733861E+02 -0.31531370635E+02 -0.12555131611E+02  0.37773251882E+02  0.10000000000E+01 0.  0.
    9000005    1    3    3    0    0 -0.98975909486E+02  0.61890119435E+02 -0.20147492572E+02  0.11846323902E+03  0.10000000000E+01 0.  0.
          4    1    1    2  501    0  0.82424175625E+02 -0.30358748800E+02 -0.35572781116E+03  0.36641409209E+03  0.12700000000E+01 0.  1.
<mgrwt>
<rscale>  1 0.15277559E+03</rscale>
<asrwt>0</asrwt>
<pdfrwt beam="2">  1       21 0.70082231E-01 0.15277559E+03</pdfrwt>
<pdfrwt beam="1">  1        4 0.10324763E-01 0.15277559E+03</pdfrwt>
<totfact> 0.55354452E+03</totfact>
</mgrwt>
</event>
<event>
 6    4  0.6277709E-003  0.1272628E+03  0.7818608E-02  0.1231575E+00
         21   -1    0    0  501  502  0.00000000000E+00  0.00000000000E+00  0.19182773822E+03  0.19182773822E+03  0.00000000000E+00 0.  1.
          4   -1    0    0  502    0 -0.00000000000E+00 -0.00000000000E+00 -0.29901239978E+02  0.29928198279E+02  0.12700000000E+01 0.  1.
         25    2    1    2    0    0 -0.13210728147E+02  0.19900343155E+02  0.13073417601E+03  0.18244791108E+03  0.12500107394E+03 0.  0.
    9000005    1    3    3    0    0  0.16772043387E+01  0.72479896417E+02  0.70935086569E+02  0.10143438719E+03  0.10000000000E+01 0.  0.
    9000005    1    3    3    0    0 -0.14887932485E+02 -0.52579553262E+02  0.59799089441E+02  0.81013523889E+02  0.10000000000E+01 0.  0.
          4    1    1    2  501    0  0.13210728147E+02 -0.19900343155E+02  0.31192322230E+02  0.39308025414E+02  0.12700000000E+01 0. -1.
<mgrwt>
<rscale>  1 0.12726278E+03</rscale>
<asrwt>0</asrwt>
<pdfrwt beam="1">  1       21 0.29511959E-01 0.12726278E+03</pdfrwt>
<pdfrwt beam="2">  1        4 0.46025880E-02 0.12726278E+03</pdfrwt>
<totfact> 0.12030315E+05</totfact>
</mgrwt>
</event>
<event>
 6    4  0.6277709E-003  0.1323182E+03  0.7818608E-02  0.1224056E+00
         -4   -1    0    0    0  501 -0.00000000000E+00  0.00000000000E+00  0.90853005976E+02  0.90861881969E+02  0.12700000000E+01 0. -1.
         21   -1    0    0  501  502  0.00000000000E+00 -0.00000000000E+00 -0.85944271450E+02  0.85944271450E+02  0.00000000000E+00 0. -1.
         25    2    1    2    0    0  0.40747022146E+02  0.14925916249E+02  0.11824173355E+02  0.13284550074E+03  0.12500005281E+03 0.  0.
    9000005    1    3    3    0    0 -0.37518629363E+02  0.27135204613E+02 -0.15821419484E+02  0.48941640687E+02  0.10000000000E+01 0.  0.
    9000005    1    3    3    0    0  0.78265651509E+02 -0.12209288363E+02  0.27645592838E+02  0.83903860054E+02  0.10000000000E+01 0.  0.
         -4    1    1    2    0  502 -0.40747022146E+02 -0.14925916249E+02 -0.69154388284E+01  0.43960652677E+02  0.12700000000E+01 0.  1.
<mgrwt>
<rscale>  1 0.13231824E+03</rscale>
<asrwt>0</asrwt>
<pdfrwt beam="2">  1       21 0.13222196E-01 0.13231824E+03</pdfrwt>
<pdfrwt beam="1">  1       -4 0.13978790E-01 0.13231824E+03</pdfrwt>
<totfact> 0.84561973E+04</totfact>
</mgrwt>
</event>
<event>
 6    4  0.6277709E-003  0.1361120E+03  0.7818608E-02  0.1218658E+00
          4   -1    0    0  502    0 -0.00000000000E+00  0.00000000000E+00  0.11328702316E+03  0.11329414158E+03  0.12700000000E+01 0.  1.
         21   -1    0    0  501  502  0.00000000000E+00 -0.00000000000E+00 -0.81267492210E+02  0.81267492210E+02  0.00000000000E+00 0. -1.
         25    2    1    2    0    0  0.50894896056E+02  0.17625775185E+02  0.35207873700E+02  0.14059185683E+03  0.12500206975E+03 0.  0.
    9000005    1    3    3    0    0 -0.40029763696E+02  0.15515629757E+02  0.23311607416E+02  0.48862539727E+02  0.10000000000E+01 0.  0.
    9000005    1    3    3    0    0  0.90924659751E+02  0.21101454275E+01  0.11896266284E+02  0.91729317103E+02  0.10000000000E+01 0.  0.
          4    1    1    2  501    0 -0.50894896056E+02 -0.17625775185E+02 -0.31883427529E+01  0.53969776958E+02  0.12700000000E+01 0. -1.
<mgrwt>
<rscale>  1 0.13611200E+03</rscale>
<asrwt>0</asrwt>
<pdfrwt beam="2">  1       21 0.12502691E-01 0.13611200E+03</pdfrwt>
<pdfrwt beam="1">  1        4 0.17430084E-01 0.13611200E+03</pdfrwt>
<totfact> 0.63693426E+04</totfact>
</mgrwt>
</event>
<event>
 6    4  0.6277709E-003  0.1320644E+03  0.7818608E-02  0.1224424E+00
          4   -1    0    0  502    0 -0.00000000000E+00  0.00000000000E+00  0.64224141818E+02  0.64236697395E+02  0.12700000000E+01 0. -1.
         21   -1    0    0  501  502  0.00000000000E+00 -0.00000000000E+00 -0.16418728459E+03  0.16418728459E+03  0.00000000000E+00 0.  1.
         25    2    1    2    0    0 -0.28369599227E+02 -0.31800718777E+02 -0.14425653685E+02  0.13284995406E+03  0.12499956373E+03 0.  0.
    9000005    1    3    3    0    0  0.24983456513E+02 -0.13845456576E+02  0.43513708179E+02  0.52060662373E+02  0.10000000000E+01 0.  0.
    9000005    1    3    3    0    0 -0.53353055740E+02 -0.17955262202E+02 -0.57939361864E+02  0.80789291684E+02  0.10000000000E+01 0.  0.
          4    1    1    2  501    0  0.28369599227E+02  0.31800718777E+02 -0.85537489084E+02  0.95574027926E+02  0.12700000000E+01 0.  1.
<mgrwt>
<rscale>  1 0.13206442E+03</rscale>
<asrwt>0</asrwt>
<pdfrwt beam="2">  1       21 0.25259582E-01 0.13206442E+03</pdfrwt>
<pdfrwt beam="1">  1        4 0.98819811E-02 0.13206442E+03</pdfrwt>
<totfact> 0.46554898E+04</totfact>
</mgrwt>
</event>
<event>
 6    4  0.6277709E-003  0.1579346E+03  0.7818608E-02  0.1191048E+00
         21   -1    0    0  501  502  0.00000000000E+00  0.00000000000E+00  0.24290480122E+02  0.24290480122E+02  0.00000000000E+00 0.  1.
          4   -1    0    0  502    0 -0.00000000000E+00 -0.00000000000E+00 -0.71290513411E+03  0.71290626532E+03  0.12700000000E+01 0. -1.
         25    2    1    2    0    0  0.91626790531E+02 -0.30445899220E+02 -0.51331188768E+03  0.53705905710E+03  0.12498365996E+03 0.  0.
    9000005    1    3    3    0    0  0.11674206740E+03 -0.57572525012E+01 -0.32267541801E+03  0.34319423312E+03  0.10000000000E+01 0.  0.
    9000005    1    3    3    0    0 -0.25115276870E+02 -0.24688646718E+02 -0.19063646967E+03  0.19386482398E+03  0.10000000000E+01 0.  0.
          4    1    1    2  501    0 -0.91626790531E+02  0.30445899220E+02 -0.17530276631E+03  0.20013768835E+03  0.12700000000E+01 0.  1.
<mgrwt>
<rscale>  1 0.15793460E+03</rscale>
<asrwt>0</asrwt>
<pdfrwt beam="1">  1       21 0.37369976E-02 0.15793460E+03</pdfrwt>
<pdfrwt beam="2">  1        4 0.10968033E+00 0.15793460E+03</pdfrwt>
<totfact> 0.12503209E+04</totfact>
</mgrwt>
</event>
<event>
 6    4  0.6277709E-003  0.1293718E+03  0.7818608E-02  0.1228391E+00
         21   -1    0    0  501  502  0.00000000000E+00  0.00000000000E+00  0.70716217838E+03  0.70716217838E+03  0.00000000000E+00 0.  1.
          4   -1    0    0  502    0 -0.00000000000E+00 -0.00000000000E+00 -0.14492366962E+02  0.14547907072E+02  0.12700000000E+01 0. -1.
         25    2    1    2    0    0 -0.31791585334E+02 -0.10078623431E+02  0.28867404829E+03  0.31633806734E+03  0.12499913256E+03 0.  0.
    9000005    1    3    3    0    0  0.17173868219E+02  0.49127819066E+02  0.13016903855E+03  0.14019080909E+03  0.10000000000E+01 0.  0.
    9000005    1    3    3    0    0 -0.48965453552E+02 -0.59206442497E+02  0.15850500974E+03  0.17614725825E+03  0.10000000000E+01 0.  0.
          4    1    1    2  501    0  0.31791585334E+02  0.10078623431E+02  0.40399576312E+03  0.40537201811E+03  0.12700000000E+01 0.  1.
<mgrwt>
<rscale>  1 0.12937182E+03</rscale>
<asrwt>0</asrwt>
<pdfrwt beam="1">  1       21 0.10879415E+00 0.12937182E+03</pdfrwt>
<pdfrwt beam="2">  1        4 0.22339555E-02 0.12937182E+03</pdfrwt>
<totfact> 0.23590242E+04</totfact>
</mgrwt>
</event>
<event>
 6    4  0.6277709E-003  0.1278372E+03  0.7818608E-02  0.1230701E+00
          4   -1    0    0  502    0 -0.00000000000E+00  0.00000000000E+00  0.25948900776E+02  0.25979960575E+02  0.12700000000E+01 0. -1.
         21   -1    0    0  501  502  0.00000000000E+00 -0.00000000000E+00 -0.40079362146E+03  0.40079362146E+03  0.00000000000E+00 0.  1.
         25    2    1    2    0    0  0.44891690119E+01 -0.26425465521E+02 -0.13684896237E+03  0.18726982060E+03  0.12499555728E+03 0.  0.
    9000005    1    3    3    0    0  0.59838439298E+02  0.59954513038E+01 -0.44475054594E+02  0.74803841713E+02  0.10000000000E+01 0.  0.
    9000005    1    3    3    0    0 -0.55349270286E+02 -0.32420916824E+02 -0.92373907773E+02  0.11246597888E+03  0.10000000000E+01 0.  0.
          4    1    1    2  501    0 -0.44891690119E+01  0.26425465521E+02 -0.23799575832E+03  0.23950376144E+03  0.12700000000E+01 0.  1.
<mgrwt>
<rscale>  1 0.12783719E+03</rscale>
<asrwt>0</asrwt>
<pdfrwt beam="2">  1       21 0.61660558E-01 0.12783719E+03</pdfrwt>
<pdfrwt beam="1">  1        4 0.39946825E-02 0.12783719E+03</pdfrwt>
<totfact> 0.34044065E+04</totfact>
</mgrwt>
</event>
<event>
 6    4  0.6277709E-003  0.1319128E+03  0.7818608E-02  0.1224645E+00
         21   -1    0    0  501  502  0.00000000000E+00  0.00000000000E+00  0.49727438861E+01  0.49727438861E+01  0.00000000000E+00 0. -1.
          4   -1    0    0  502    0 -0.00000000000E+00 -0.00000000000E+00 -0.16255698123E+04  0.16255703084E+04  0.12700000000E+01 0. -1.
         25    2    1    2    0    0  0.32554546900E+02  0.26779542637E+02 -0.10247650538E+04  0.10332204050E+04  0.12499618949E+03 0.  0.
    9000005    1    3    3    0    0 -0.48050866150E+02  0.15597297715E+02 -0.39389979274E+03  0.39712744573E+03  0.10000000000E+01 0.  0.
    9000005    1    3    3    0    0  0.80605413049E+02  0.11182244922E+02 -0.63086526104E+03  0.63609295925E+03  0.10000000000E+01 0.  0.
          4    1    1    2  501    0 -0.32554546900E+02 -0.26779542637E+02 -0.59583201464E+03  0.59732264731E+03  0.12700000000E+01 0.  1.
<mgrwt>
<rscale>  1 0.13191281E+03</rscale>
<asrwt>0</asrwt>
<pdfrwt beam="1">  1       21 0.76503732E-03 0.13191281E+03</pdfrwt>
<pdfrwt beam="2">  1        4 0.25010024E+00 0.13191281E+03</pdfrwt>
<totfact> 0.17041647E+04</totfact>
</mgrwt>
</event>
<event>
 6    4  0.6277709E-003  0.1281518E+03  0.7818608E-02  0.1230224E+00
          4   -1    0    0  502    0 -0.00000000000E+00  0.00000000000E+00  0.44358402064E+02  0.44376578661E+02  0.12700000000E+01 0.  1.
         21   -1    0    0  501  502  0.00000000000E+00 -0.00000000000E+00 -0.32048909588E+03  0.32048909588E+03  0.00000000000E+00 0. -1.
         25    2    1    2    0    0 -0.28106806746E+02 -0.32384113866E+00 -0.50909438144E+02  0.13789359616E+03  0.12503109818E+03 0.  0.
    9000005    1    3    3    0    0 -0.32324980866E+02 -0.16987068324E+02 -0.88938452734E+02  0.96148391838E+02  0.10000000000E+01 0.  0.
    9000005    1    3    3    0    0  0.42181741208E+01  0.16663227186E+02  0.38029014590E+02  0.41745204322E+02  0.10000000000E+01 0.  0.
          4    1    1    2  501    0  0.28106806746E+02  0.32384113866E+00 -0.22522125567E+03  0.22697207838E+03  0.12700000000E+01 0. -1.
<mgrwt>
<rscale>  1 0.12815176E+03</rscale>
<asrwt>0</asrwt>
<pdfrwt beam="2">  1       21 0.49306012E-01 0.12815176E+03</pdfrwt>
<pdfrwt beam="1">  1        4 0.68259617E-02 0.12815176E+03</pdfrwt>
<totfact> 0.22952857E+04</totfact>
</mgrwt>
</event>
<event>
 6    4  0.6277709E-003  0.1267744E+03  0.7818608E-02  0.1232322E+00
         21   -1    0    0  501  502  0.00000000000E+00  0.00000000000E+00  0.64262009210E+01  0.64262009210E+01  0.00000000000E+00 0. -1.
         -4   -1    0    0    0  501 -0.00000000000E+00 -0.00000000000E+00 -0.14470157263E+04  0.14470162836E+04  0.12700000000E+01 0.  1.
         25    2    1    2    0    0  0.18325519716E+02 -0.10551110940E+02 -0.14129135676E+04  0.14185896202E+04  0.12499844149E+03 0.  0.
    9000005    1    3    3    0    0  0.45445923445E+02  0.45568589912E+02 -0.69379083742E+03  0.69677008721E+03  0.10000000000E+01 0.  0.
    9000005    1    3    3    0    0 -0.27120403729E+02 -0.56119700852E+02 -0.71912273016E+03  0.72181953296E+03  0.10000000000E+01 0.  0.
         -4    1    1    2    0  502 -0.18325519716E+02  0.10551110940E+02 -0.27675957793E+02  0.34852864369E+02  0.12700000000E+01 0. -1.
<mgrwt>
<rscale>  1 0.12677445E+03</rscale>
<asrwt>0</asrwt>
<pdfrwt beam="1">  1       21 0.98864529E-03 0.12677445E+03</pdfrwt>
<pdfrwt beam="2">  1       -4 0.22262773E+00 0.12677445E+03</pdfrwt>
<totfact> 0.16423757E+04</totfact>
</mgrwt>
</event>
<event>
 6    4  0.6277709E-003  0.1266834E+03  0.7818608E-02  0.1232462E+00
         21   -1    0    0  501  502  0.00000000000E+00  0.00000000000E+00  0.20877720166E+03  0.20877720166E+03  0.00000000000E+00 0. -1.
          4   -1    0    0  502    0 -0.00000000000E+00 -0.00000000000E+00 -0.27465743294E+02  0.27495089647E+02  0.12700000000E+01 0. -1.
         25    2    1    2    0    0  0.20467683168E+02  0.21122285773E+01  0.17208443822E+03  0.21368604849E+03  0.12500114350E+03 0.  0.
    9000005    1    3    3    0    0  0.47005043186E+02  0.30468658157E+02  0.16492602196E+03  0.17418210566E+03  0.10000000000E+01 0.  0.
    9000005    1    3    3    0    0 -0.26537360017E+02 -0.28356429580E+02  0.71584162608E+01  0.39503942823E+02  0.10000000000E+01 0.  0.
          4    1    1    2  501    0 -0.20467683168E+02 -0.21122285773E+01  0.92270201455E+01  0.22586242817E+02  0.12700000000E+01 0.  1.
<mgrwt>
<rscale>  1 0.12668336E+03</rscale>
<asrwt>0</asrwt>
<pdfrwt beam="1">  1       21 0.32119568E-01 0.12668336E+03</pdfrwt>
<pdfrwt beam="2">  1        4 0.42280536E-02 0.12668336E+03</pdfrwt>
<totfact> 0.11686121E+05</totfact>
</mgrwt>
</event>
<event>
 6    4  0.6277709E-003  0.1367719E+03  0.7818608E-02  0.1217740E+00
         21   -1    0    0  501  502  0.00000000000E+00  0.00000000000E+00  0.11768763252E+03  0.11768763252E+03  0.00000000000E+00 0.  1.
          4   -1    0    0  502    0 -0.00000000000E+00 -0.00000000000E+00 -0.22860605306E+03  0.22860958072E+03  0.12700000000E+01 0. -1.
         25    2    1    2    0    0 -0.27248945307E+02 -0.48346751302E+02 -0.19942659491E+03  0.24182126762E+03  0.12500658117E+03 0.  0.
    9000005    1    3    3    0    0 -0.20459749934E+02 -0.77304254049E+02 -0.19621801419E+03  0.21188925918E+03  0.10000000000E+01 0.  0.
    9000005    1    3    3    0    0 -0.67891953728E+01  0.28957502747E+02 -0.32085807143E+01  0.29932008442E+02  0.10000000000E+01 0.  0.
          4    1    1    2  501    0  0.27248945307E+02  0.48346751302E+02  0.88508174374E+02  0.10447594562E+03  0.12700000000E+01 0.  1.
<mgrwt>
<rscale>  1 0.13677192E+03</rscale>
<asrwt>0</asrwt>
<pdfrwt beam="1">  1       21 0.18105790E-01 0.13677192E+03</pdfrwt>
<pdfrwt beam="2">  1        4 0.35170960E-01 0.13677192E+03</pdfrwt>
<totfact> 0.89278443E+03</totfact>
</mgrwt>
</event>
<event>
 6    4  0.6277709E-003  0.1312566E+03  0.7818608E-02  0.1225603E+00
         -4   -1    0    0    0  501 -0.00000000000E+00  0.00000000000E+00  0.39332700791E+01  0.41332207193E+01  0.12700000000E+01 0. -1.
         21   -1    0    0  501  502  0.00000000000E+00 -0.00000000000E+00 -0.19239965536E+04  0.19239965536E+04  0.00000000000E+00 0.  1.
         25    2    1    2    0    0  0.35269069758E+02  0.18755602422E+02 -0.12491269535E+04  0.12560041523E+04  0.12503041544E+03 0.  0.
    9000005    1    3    3    0    0  0.37901017451E+02  0.41359390862E+02 -0.23440385543E+03  0.24102542144E+03  0.10000000000E+01 0.  0.
    9000005    1    3    3    0    0 -0.26319476930E+01 -0.22603788440E+02 -0.10147230981E+04  0.10149787309E+04  0.10000000000E+01 0.  0.
         -4    1    1    2    0  502 -0.35269069758E+02 -0.18755602422E+02 -0.67093632997E+03  0.67212562195E+03  0.12700000000E+01 0.  1.
<mgrwt>
<rscale>  1 0.13125656E+03</rscale>
<asrwt>0</asrwt>
<pdfrwt beam="2">  1       21 0.29599985E+00 0.13125656E+03</pdfrwt>
<pdfrwt beam="1">  1       -4 0.62053073E-03 0.13125656E+03</pdfrwt>
<totfact> 0.92970413E+03</totfact>
</mgrwt>
</event>
<event>
 6    4  0.6277709E-003  0.1353630E+03  0.7818608E-02  0.1219708E+00
         -4   -1    0    0    0  501 -0.00000000000E+00  0.00000000000E+00  0.46400017574E+03  0.46400191378E+03  0.12700000000E+01 0. -1.
         21   -1    0    0  501  502  0.00000000000E+00 -0.00000000000E+00 -0.62198402299E+03  0.62198402299E+03  0.00000000000E+00 0.  1.
         25    2    1    2    0    0 -0.51134613650E+02 -0.91408308033E+01  0.45300242343E+03  0.47279417284E+03  0.12499932295E+03 0.  0.
    9000005    1    3    3    0    0  0.18796929425E+02 -0.33690948484E+02  0.50683615105E+02  0.63704265208E+02  0.10000000000E+01 0.  0.
    9000005    1    3    3    0    0 -0.69931543075E+02  0.24550117680E+02  0.40231880832E+03  0.40908990763E+03  0.10000000000E+01 0.  0.
         -4    1    1    2    0  502  0.51134613650E+02  0.91408308033E+01 -0.61098627068E+03  0.61319176393E+03  0.12700000000E+01 0.  1.
<mgrwt>
<rscale>  1 0.13536297E+03</rscale>
<asrwt>0</asrwt>
<pdfrwt beam="2">  1       21 0.95689850E-01 0.13536297E+03</pdfrwt>
<pdfrwt beam="1">  1       -4 0.71384876E-01 0.13536297E+03</pdfrwt>
<totfact> 0.71219109E+01</totfact>
</mgrwt>
</event>
<event>
 6    4  0.6277709E-003  0.1289405E+03  0.7818608E-02  0.1229036E+00
         21   -1    0    0  501  502  0.00000000000E+00  0.00000000000E+00  0.14021101425E+02  0.14021101425E+02  0.00000000000E+00 0.  1.
          4   -1    0    0  502    0 -0.00000000000E+00 -0.00000000000E+00 -0.56269547651E+03  0.56269690970E+03  0.12700000000E+01 0. -1.
         25    2    1    2    0    0 -0.12588120640E+02 -0.29023833107E+02 -0.51328501699E+03  0.52923261089E+03  0.12499921635E+03 0.  0.
    9000005    1    3    3    0    0 -0.44659056830E+02  0.28912673338E+02 -0.33182931702E+03  0.33606854906E+03  0.10000000000E+01 0.  0.
    9000005    1    3    3    0    0  0.32070936190E+02 -0.57936506445E+02 -0.18145569998E+03  0.19316406183E+03  0.10000000000E+01 0.  0.
          4    1    1    2  501    0  0.12588120640E+02  0.29023833107E+02 -0.35389358094E+02  0.47485400238E+02  0.12700000000E+01 0.  1.
<mgrwt>
<rscale>  1 0.12894048E+03</rscale>
<asrwt>0</asrwt>
<pdfrwt beam="1">  1       21 0.21570924E-02 0.12894048E+03</pdfrwt>
<pdfrwt beam="2">  1        4 0.86573074E-01 0.12894048E+03</pdfrwt>
<totfact> 0.51918670E+04</totfact>
</mgrwt>
</event>
<event>
 6    4  0.6277709E-003  0.1266111E+03  0.7818608E-02  0.1232573E+00
         21   -1    0    0  501  502  0.00000000000E+00  0.00000000000E+00  0.50221973812E+03  0.50221973812E+03  0.00000000000E+00 0.  1.
          4   -1    0    0  502    0 -0.00000000000E+00 -0.00000000000E+00 -0.11689993672E+02  0.11758777660E+02  0.12700000000E+01 0.  1.
         25    2    1    2    0    0 -0.69502243755E+01  0.18892559882E+02  0.35386864531E+03  0.37583690961E+03  0.12500052021E+03 0.  0.
    9000005    1    3    3    0    0  0.51768934173E+02  0.21225138953E+02  0.25281533297E+03  0.25893458953E+03  0.10000000000E+01 0.  0.
    9000005    1    3    3    0    0 -0.58719158549E+02 -0.23325790706E+01  0.10105331234E+03  0.11690232008E+03  0.10000000000E+01 0.  0.
          4    1    1    2  501    0  0.69502243755E+01 -0.18892559882E+02  0.13666109914E+03  0.13814160617E+03  0.12700000000E+01 0. -1.
<mgrwt>
<rscale>  1 0.12661108E+03</rscale>
<asrwt>0</asrwt>
<pdfrwt beam="1">  1       21 0.77264558E-01 0.12661108E+03</pdfrwt>
<pdfrwt beam="2">  1        4 0.18038756E-02 0.12661108E+03</pdfrwt>
<totfact> 0.71835717E+04</totfact>
</mgrwt>
</event>
<event>
 6    4  0.6277709E-003  0.1271754E+03  0.7818608E-02  0.1231708E+00
         21   -1    0    0  501  502  0.00000000000E+00  0.00000000000E+00  0.95614514838E+03  0.95614514838E+03  0.00000000000E+00 0. -1.
         -4   -1    0    0    0  501 -0.00000000000E+00 -0.00000000000E+00 -0.17169397937E+02  0.17216304061E+02  0.12700000000E+01 0.  1.
         25    2    1    2    0    0 -0.23033422976E+02 -0.42769513233E+01  0.22082752100E+03  0.25483008692E+03  0.12499899312E+03 0.  0.
    9000005    1    3    3    0    0  0.19065701227E+02  0.77691090132E+01 -0.78046422106E+01  0.22040246328E+02  0.10000000000E+01 0.  0.
    9000005    1    3    3    0    0 -0.42099124203E+02 -0.12046060336E+02  0.22863216321E+03  0.23278984059E+03  0.10000000000E+01 0.  0.
         -4    1    1    2    0  502  0.23033422976E+02  0.42769513233E+01  0.71814822944E+03  0.71853136552E+03  0.12700000000E+01 0. -1.
<mgrwt>
<rscale>  1 0.12717539E+03</rscale>
<asrwt>0</asrwt>
<pdfrwt beam="1">  1       21 0.14709921E+00 0.12717539E+03</pdfrwt>
<pdfrwt beam="2">  1       -4 0.26451196E-02 0.12717539E+03</pdfrwt>
<totfact> 0.86010194E+03</totfact>
</mgrwt>
</event>
<event>
 6    4  0.6277709E-003  0.1282295E+03  0.7818608E-02  0.1230107E+00
         21   -1    0    0  501  502  0.00000000000E+00  0.00000000000E+00  0.20336336696E+03  0.20336336696E+03  0.00000000000E+00 0.  1.
         -4   -1    0    0    0  501 -0.00000000000E+00 -0.00000000000E+00 -0.31357067654E+02  0.31382775401E+02  0.12700000000E+01 0.  1.
         25    2    1    2    0    0  0.17010788590E+02  0.23018106911E+02  0.12133418794E+03  0.17653552525E+03  0.12499442523E+03 0.  0.
    9000005    1    3    3    0    0 -0.32443971388E+02  0.13295785177E+02  0.12114805071E+03  0.12612390485E+03  0.10000000000E+01 0.  0.
    9000005    1    3    3    0    0  0.49454759978E+02  0.97223217337E+01  0.18613722788E+00  0.50411620401E+02  0.10000000000E+01 0.  0.
         -4    1    1    2    0  502 -0.17010788590E+02 -0.23018106911E+02  0.50672111369E+02  0.58210617114E+02  0.12700000000E+01 0. -1.
<mgrwt>
<rscale>  1 0.12822951E+03</rscale>
<asrwt>0</asrwt>
<pdfrwt beam="1">  1       21 0.31286671E-01 0.12822951E+03</pdfrwt>
<pdfrwt beam="2">  1       -4 0.48264469E-02 0.12822951E+03</pdfrwt>
<totfact> 0.99708246E+04</totfact>
</mgrwt>
</event>
<event>
 6    4  0.6277709E-003  0.1272983E+03  0.7818608E-02  0.1231520E+00
         21   -1    0    0  501  502  0.00000000000E+00  0.00000000000E+00  0.19176594600E+02  0.19176594600E+02  0.00000000000E+00 0. -1.
          4   -1    0    0  502    0 -0.00000000000E+00 -0.00000000000E+00 -0.30814130904E+03  0.30814392617E+03  0.12700000000E+01 0. -1.
         25    2    1    2    0    0 -0.24072445245E+02 -0.24373009065E+00 -0.26107111434E+03  0.29045308459E+03  0.12500130230E+03 0.  0.
    9000005    1    3    3    0    0 -0.14639907900E+00  0.57450970155E+02 -0.77034212694E+02  0.96103617673E+02  0.10000000000E+01 0.  0.
    9000005    1    3    3    0    0 -0.23926046166E+02 -0.57694700246E+02 -0.18403690165E+03  0.19434946691E+03  0.10000000000E+01 0.  0.
          4    1    1    2  501    0  0.24072445245E+02  0.24373009065E+00 -0.27893600097E+02  0.36867436184E+02  0.12700000000E+01 0.  1.
<mgrwt>
<rscale>  1 0.12729834E+03</rscale>
<asrwt>0</asrwt>
<pdfrwt beam="1">  1       21 0.29502454E-02 0.12729834E+03</pdfrwt>
<pdfrwt beam="2">  1        4 0.47409790E-01 0.12729834E+03</pdfrwt>
<totfact> 0.11182226E+05</totfact>
</mgrwt>
</event>
<event>
 6    4  0.6277709E-003  0.1388022E+03  0.7818608E-02  0.1214950E+00
          4   -1    0    0  502    0 -0.00000000000E+00  0.00000000000E+00  0.23909571146E+03  0.23909908435E+03  0.12700000000E+01 0. -1.
         21   -1    0    0  501  502  0.00000000000E+00 -0.00000000000E+00 -0.12465894176E+03  0.12465894176E+03  0.00000000000E+00 0.  1.
         25    2    1    2    0    0 -0.29909977872E+02  0.52397366273E+02  0.20941000468E+03  0.25123416628E+03  0.12500386185E+03 0.  0.
    9000005    1    3    3    0    0 -0.28066671111E+02  0.86649007614E+02  0.19253384466E+03  0.21299312169E+03  0.10000000000E+01 0.  0.
    9000005    1    3    3    0    0 -0.18433067606E+01 -0.34251641341E+02  0.16876160025E+02  0.38241044593E+02  0.10000000000E+01 0.  0.
          4    1    1    2  501    0  0.29909977872E+02 -0.52397366273E+02 -0.94973234983E+02  0.11252385983E+03  0.12700000000E+01 0.  1.
<mgrwt>
<rscale>  1 0.13880222E+03</rscale>
<asrwt>0</asrwt>
<pdfrwt beam="2">  1       21 0.19178299E-01 0.13880222E+03</pdfrwt>
<pdfrwt beam="1">  1        4 0.36784713E-01 0.13880222E+03</pdfrwt>
<totfact> 0.73704805E+03</totfact>
</mgrwt>
</event>
<event>
 6    4  0.6277709E-003  0.1277809E+03  0.7818608E-02  0.1230786E+00
         21   -1    0    0  501  502  0.00000000000E+00  0.00000000000E+00  0.64306736521E+03  0.64306736521E+03  0.00000000000E+00 0.  1.
          4   -1    0    0  502    0 -0.00000000000E+00 -0.00000000000E+00 -0.25173684017E+02  0.25205699097E+02  0.12700000000E+01 0. -1.
         25    2    1    2    0    0  0.10212749350E+01  0.26529626845E+02  0.13963861050E+03  0.18927996451E+03  0.12499239706E+03 0.  0.
    9000005    1    3    3    0    0  0.25613912807E+02  0.69163293288E+02  0.10791796641E+03  0.13071695048E+03  0.10000000000E+01 0.  0.
    9000005    1    3    3    0    0 -0.24592637872E+02 -0.42633666443E+02  0.31720644085E+02  0.58563014037E+02  0.10000000000E+01 0.  0.
          4    1    1    2  501    0 -0.10212749350E+01 -0.26529626845E+02  0.47825507070E+03  0.47899309980E+03  0.12700000000E+01 0.  1.
<mgrwt>
<rscale>  1 0.12778092E+03</rscale>
<asrwt>0</asrwt>
<pdfrwt beam="1">  1       21 0.98933429E-01 0.12778092E+03</pdfrwt>
<pdfrwt beam="2">  1        4 0.38754341E-02 0.12778092E+03</pdfrwt>
<totfact> 0.12465774E+04</totfact>
</mgrwt>
</event>
<event>
 6    4  0.6277709E-003  0.1287287E+03  0.7818608E-02  0.1229354E+00
         -4   -1    0    0    0  501 -0.00000000000E+00  0.00000000000E+00  0.96876759762E+02  0.96885083898E+02  0.12700000000E+01 0. -1.
         21   -1    0    0  501  502  0.00000000000E+00 -0.00000000000E+00 -0.16676453197E+03  0.16676453197E+03  0.00000000000E+00 0.  1.
         25    2    1    2    0    0  0.83104912757E+01 -0.29614924508E+02  0.51328948611E+02  0.13858477539E+03  0.12499988394E+03 0.  0.
    9000005    1    3    3    0    0 -0.33666618358E+02  0.24805707866E+02  0.55759606969E+02  0.69705796773E+02  0.10000000000E+01 0.  0.
    9000005    1    3    3    0    0  0.41977109633E+02 -0.54420632375E+02 -0.44306583581E+01  0.68878978613E+02  0.10000000000E+01 0.  0.
         -4    1    1    2    0  502 -0.83104912757E+01  0.29614924508E+02 -0.12121672081E+03  0.12506484048E+03  0.12700000000E+01 0.  1.
<mgrwt>
<rscale>  1 0.12872870E+03</rscale>
<asrwt>0</asrwt>
<pdfrwt beam="2">  1       21 0.25656082E-01 0.12872870E+03</pdfrwt>
<pdfrwt beam="1">  1       -4 0.14905129E-01 0.12872870E+03</pdfrwt>
<totfact> 0.22307847E+04</totfact>
</mgrwt>
</event>
<event>
 6    4  0.6277709E-003  0.1313932E+03  0.7818608E-02  0.1225403E+00
         21   -1    0    0  501  502  0.00000000000E+00  0.00000000000E+00  0.76074587559E+02  0.76074587559E+02  0.00000000000E+00 0.  1.
         -4   -1    0    0    0  501 -0.00000000000E+00 -0.00000000000E+00 -0.30914185503E+03  0.30914446370E+03  0.12700000000E+01 0. -1.
         25    2    1    2    0    0 -0.35368646675E+02  0.19726720719E+02 -0.28823507307E+03  0.31677064476E+03  0.12499639737E+03 0.  0.
    9000005    1    3    3    0    0  0.20821782488E+02 -0.14521971233E+02 -0.48759673624E+01  0.25869080621E+02  0.10000000000E+01 0.  0.
    9000005    1    3    3    0    0 -0.56190429162E+02  0.34248691952E+02 -0.28335910571E+03  0.29090156414E+03  0.10000000000E+01 0.  0.
         -4    1    1    2    0  502  0.35368646675E+02 -0.19726720719E+02  0.55167805594E+02  0.68448406497E+02  0.12700000000E+01 0.  1.
<mgrwt>
<rscale>  1 0.13139324E+03</rscale>
<asrwt>0</asrwt>
<pdfrwt beam="1">  1       21 0.11703783E-01 0.13139324E+03</pdfrwt>
<pdfrwt beam="2">  1       -4 0.47561300E-01 0.13139324E+03</pdfrwt>
<totfact> 0.10757503E+04</totfact>
</mgrwt>
</event>
<event>
 6    4  0.6277709E-003  0.1327431E+03  0.7818608E-02  0.1223441E+00
         21   -1    0    0  501  502  0.00000000000E+00  0.00000000000E+00  0.58834217736E+01  0.58834217736E+01  0.00000000000E+00 0.  1.
          4   -1    0    0  502    0 -0.00000000000E+00 -0.00000000000E+00 -0.16067442628E+04  0.16067447648E+04  0.12700000000E+01 0. -1.
         25    2    1    2    0    0  0.18237389675E+02 -0.40778714192E+02 -0.14253270151E+04  0.14314949679E+04  0.12500094956E+03 0.  0.
    9000005    1    3    3    0    0  0.47205005909E+02 -0.86599620084E+01 -0.21075534158E+03  0.21615300490E+03  0.10000000000E+01 0.  0.
    9000005    1    3    3    0    0 -0.28967616234E+02 -0.32118752183E+02 -0.12145716735E+04  0.12153419630E+04  0.10000000000E+01 0.  0.
          4    1    1    2  501    0 -0.18237389675E+02  0.40778714192E+02 -0.17553382601E+03  0.18113321862E+03  0.12700000000E+01 0.  1.
<mgrwt>
<rscale>  1 0.13274315E+03</rscale>
<asrwt>0</asrwt>
<pdfrwt beam="1">  1       21 0.90514078E-03 0.13274315E+03</pdfrwt>
<pdfrwt beam="2">  1        4 0.24720229E+00 0.13274315E+03</pdfrwt>
<totfact> 0.13613043E+04</totfact>
</mgrwt>
</event>
<event>
 6    4  0.6277709E-003  0.1282648E+03  0.7818608E-02  0.1230053E+00
          4   -1    0    0  502    0 -0.00000000000E+00  0.00000000000E+00  0.40830883144E+02  0.40850629350E+02  0.12700000000E+01 0.  1.
         21   -1    0    0  501  502  0.00000000000E+00 -0.00000000000E+00 -0.30173527816E+03  0.30173527816E+03  0.00000000000E+00 0.  1.
         25    2    1    2    0    0 -0.44817946100E+01 -0.28389772381E+02 -0.63548766540E+02  0.14314438062E+03  0.12500320922E+03 0.  0.
    9000005    1    3    3    0    0  0.56291112707E+02 -0.35928329012E+02 -0.28857106070E+02  0.72754840156E+02  0.10000000000E+01 0.  0.
    9000005    1    3    3    0    0 -0.60772907317E+02  0.75385566310E+01 -0.34691660470E+02  0.70389540459E+02  0.10000000000E+01 0.  0.
          4    1    1    2  501    0  0.44817946100E+01  0.28389772381E+02 -0.19735562848E+03  0.19944152689E+03  0.12700000000E+01 0. -1.
<mgrwt>
<rscale>  1 0.12826484E+03</rscale>
<asrwt>0</asrwt>
<pdfrwt beam="2">  1       21 0.46420814E-01 0.12826484E+03</pdfrwt>
<pdfrwt beam="1">  1        4 0.62833986E-02 0.12826484E+03</pdfrwt>
<totfact> 0.29734669E+04</totfact>
</mgrwt>
</event>
<event>
 6    4  0.6277709E-003  0.1317852E+03  0.7818608E-02  0.1224831E+00
         21   -1    0    0  501  502  0.00000000000E+00  0.00000000000E+00  0.42897674956E+03  0.42897674956E+03  0.00000000000E+00 0.  1.
          4   -1    0    0  502    0 -0.00000000000E+00 -0.00000000000E+00 -0.17656837149E+02  0.17702451754E+02  0.12700000000E+01 0.  1.
         25    2    1    2    0    0  0.21902479028E+02  0.35532174880E+02  0.32786764646E+03  0.35336174511E+03  0.12500030110E+03 0.  0.
    9000005    1    3    3    0    0  0.50045729336E+02 -0.95881593203E+01  0.26998475664E+03  0.27475311944E+03  0.10000000000E+01 0.  0.
    9000005    1    3    3    0    0 -0.28143250308E+02  0.45120334201E+02  0.57882889815E+02  0.78608625670E+02  0.10000000000E+01 0.  0.
          4    1    1    2  501    0 -0.21902479028E+02 -0.35532174880E+02  0.83452265951E+02  0.93317456200E+02  0.12700000000E+01 0. -1.
<mgrwt>
<rscale>  1 0.13178516E+03</rscale>
<asrwt>0</asrwt>
<pdfrwt beam="1">  1       21 0.65996415E-01 0.13178516E+03</pdfrwt>
<pdfrwt beam="2">  1        4 0.27200902E-02 0.13178516E+03</pdfrwt>
<totfact> 0.54005983E+04</totfact>
</mgrwt>
</event>
<event>
 6    4  0.6277709E-003  0.1294538E+03  0.7818608E-02  0.1228268E+00
          4   -1    0    0  502    0 -0.00000000000E+00  0.00000000000E+00  0.68106930546E+03  0.68107048955E+03  0.12700000000E+01 0. -1.
         21   -1    0    0  501  502  0.00000000000E+00 -0.00000000000E+00 -0.90346666862E+02  0.90346666862E+02  0.00000000000E+00 0.  1.
         25    2    1    2    0    0 -0.26729826648E+02 -0.20439170152E+02  0.67151992045E+03  0.68388398005E+03  0.12500420515E+03 0.  0.
    9000005    1    3    3    0    0  0.73558332671E+01  0.35246337996E+02  0.68996727139E+02  0.77832904231E+02  0.10000000000E+01 0.  0.
    9000005    1    3    3    0    0 -0.34085659915E+02 -0.55685508148E+02  0.60252319331E+03  0.60605107582E+03  0.10000000000E+01 0.  0.
          4    1    1    2  501    0  0.26729826648E+02  0.20439170152E+02 -0.80797281852E+02  0.87533176361E+02  0.12700000000E+01 0.  1.
<mgrwt>
<rscale>  1 0.12945383E+03</rscale>
<asrwt>0</asrwt>
<pdfrwt beam="2">  1       21 0.13899488E-01 0.12945383E+03</pdfrwt>
<pdfrwt beam="1">  1        4 0.10478067E+00 0.12945383E+03</pdfrwt>
<totfact> 0.14321034E+03</totfact>
</mgrwt>
</event>
<event>
 6    4  0.6277709E-003  0.1428919E+03  0.7818608E-02  0.1209490E+00
         21   -1    0    0  501  502  0.00000000000E+00  0.00000000000E+00  0.31605936138E+02  0.31605936138E+02  0.00000000000E+00 0.  1.
          4   -1    0    0  502    0 -0.00000000000E+00 -0.00000000000E+00 -0.55573763686E+03  0.55573908799E+03  0.12700000000E+01 0. -1.
         25    2    1    2    0    0  0.42524428140E+02  0.54613315933E+02 -0.48951531260E+03  0.50994445248E+03  0.12500864801E+03 0.  0.
    9000005    1    3    3    0    0 -0.26119149814E+02  0.44111297422E+02 -0.83155331032E+02  0.97692505476E+02  0.10000000000E+01 0.  0.
    9000005    1    3    3    0    0  0.68643577954E+02  0.10502018511E+02 -0.40635998157E+03  0.41225194700E+03  0.10000000000E+01 0.  0.
          4    1    1    2  501    0 -0.42524428140E+02 -0.54613315933E+02 -0.34616388126E+02  0.77400571656E+02  0.12700000000E+01 0.  1.
<mgrwt>
<rscale>  1 0.14289193E+03</rscale>
<asrwt>0</asrwt>
<pdfrwt beam="1">  1       21 0.48624520E-02 0.14289193E+03</pdfrwt>
<pdfrwt beam="2">  1        4 0.85500168E-01 0.14289193E+03</pdfrwt>
<totfact> 0.14149918E+04</totfact>
</mgrwt>
</event>
<event>
 6    4  0.6277709E-003  0.1299666E+03  0.7818608E-02  0.1227505E+00
          4   -1    0    0  502    0 -0.00000000000E+00  0.00000000000E+00  0.79680549301E+02  0.79690669698E+02  0.12700000000E+01 0. -1.
         21   -1    0    0  501  502  0.00000000000E+00 -0.00000000000E+00 -0.21048656173E+03  0.21048656173E+03  0.00000000000E+00 0.  1.
         25    2    1    2    0    0  0.18204118681E+02  0.30587337163E+02  0.23274058300E+02  0.13203408037E+03  0.12499736580E+03 0.  0.
    9000005    1    3    3    0    0 -0.36541289805E+02 -0.12944441596E+02  0.44411816757E+02  0.58959595457E+02  0.10000000000E+01 0.  0.
    9000005    1    3    3    0    0  0.54745408486E+02  0.43531778759E+02 -0.21137758457E+02  0.73074484909E+02  0.10000000000E+01 0.  0.
          4    1    1    2  501    0 -0.18204118681E+02 -0.30587337163E+02 -0.15408007073E+03  0.15814315107E+03  0.12700000000E+01 0.  1.
<mgrwt>
<rscale>  1 0.12996660E+03</rscale>
<asrwt>0</asrwt>
<pdfrwt beam="2">  1       21 0.32382548E-01 0.12996660E+03</pdfrwt>
<pdfrwt beam="1">  1        4 0.12259619E-01 0.12996660E+03</pdfrwt>
<totfact> 0.20011004E+04</totfact>
</mgrwt>
</event>
<event>
 6    4  0.6277709E-003  0.1332523E+03  0.7818608E-02  0.1222708E+00
         21   -1    0    0  501  502  0.00000000000E+00  0.00000000000E+00  0.28133968522E+03  0.28133968522E+03  0.00000000000E+00 0. -1.
         -4   -1    0    0    0  501 -0.00000000000E+00 -0.00000000000E+00 -0.46205535917E+02  0.46222986159E+02  0.12700000000E+01 0.  1.
         25    2    1    2    0    0  0.17770427987E+02  0.42607050774E+02  0.59454538051E+02  0.14591441899E+03  0.12500010675E+03 0.  0.
    9000005    1    3    3    0    0  0.44488310981E+02 -0.14528625701E+02  0.67687435980E+02  0.82297507667E+02  0.10000000000E+01 0.  0.
    9000005    1    3    3    0    0 -0.26717882994E+02  0.57135676475E+02 -0.82328979284E+01  0.63616911323E+02  0.10000000000E+01 0.  0.
         -4    1    1    2    0  502 -0.17770427987E+02 -0.42607050774E+02  0.17567961125E+03  0.18164825239E+03  0.12700000000E+01 0. -1.
<mgrwt>
<rscale>  1 0.13325230E+03</rscale>
<asrwt>0</asrwt>
<pdfrwt beam="1">  1       21 0.43283027E-01 0.13325230E+03</pdfrwt>
<pdfrwt beam="2">  1       -4 0.71101070E-02 0.13325230E+03</pdfrwt>
<totfact> 0.28111460E+04</totfact>
</mgrwt>
</event>
<event>
 6    4  0.6277709E-003  0.1758013E+03  0.7818608E-02  0.1171930E+00
         21   -1    0    0  501  502  0.00000000000E+00  0.00000000000E+00  0.68743771949E+02  0.68743771949E+02  0.00000000000E+00 0.  1.
         -4   -1    0    0    0  501 -0.00000000000E+00 -0.00000000000E+00 -0.45887212864E+03  0.45887388610E+03  0.12700000000E+01 0. -1.
         25    2    1    2    0    0  0.62012402499E+02  0.10693866271E+03 -0.35961029823E+03  0.40028195827E+03  0.12499865548E+03 0.  0.
    9000005    1    3    3    0    0  0.64128532995E+02 -0.43116081115E+01 -0.12162426008E+03  0.13756641796E+03  0.10000000000E+01 0.  0.
    9000005    1    3    3    0    0 -0.21161304960E+01  0.11125027082E+03 -0.23798603815E+03  0.26271554031E+03  0.10000000000E+01 0.  0.
         -4    1    1    2    0  502 -0.62012402499E+02 -0.10693866271E+03 -0.30518058458E+02  0.12733569978E+03  0.12700000000E+01 0.  1.
<mgrwt>
<rscale>  1 0.17580125E+03</rscale>
<asrwt>0</asrwt>
<pdfrwt beam="1">  1       21 0.10575964E-01 0.17580125E+03</pdfrwt>
<pdfrwt beam="2">  1       -4 0.70596753E-01 0.17580125E+03</pdfrwt>
<totfact> 0.57527128E+03</totfact>
</mgrwt>
</event>
<event>
 6    4  0.6277709E-003  0.1404527E+03  0.7818608E-02  0.1212721E+00
         21   -1    0    0  501  502  0.00000000000E+00  0.00000000000E+00  0.34019040058E+03  0.34019040058E+03  0.00000000000E+00 0.  1.
          4   -1    0    0  502    0 -0.00000000000E+00 -0.00000000000E+00 -0.11419755301E+03  0.11420461468E+03  0.12700000000E+01 0.  1.
         25    2    1    2    0    0 -0.36268780229E+02  0.52750961274E+02 -0.66197851765E+02  0.15527111783E+03  0.12501550351E+03 0.  0.
    9000005    1    3    3    0    0  0.23760154362E+02 -0.21866078175E+02 -0.47886303304E+02  0.57764767412E+02  0.10000000000E+01 0.  0.
    9000005    1    3    3    0    0 -0.60028934592E+02  0.74617039448E+02 -0.18311548461E+02  0.97506350415E+02  0.10000000000E+01 0.  0.
          4    1    1    2  501    0  0.36268780229E+02 -0.52750961274E+02  0.29219069933E+03  0.29912389743E+03  0.12700000000E+01 0. -1.
<mgrwt>
<rscale>  1 0.14045271E+03</rscale>
<asrwt>0</asrwt>
<pdfrwt beam="1">  1       21 0.52336984E-01 0.14045271E+03</pdfrwt>
<pdfrwt beam="2">  1        4 0.17569580E-01 0.14045271E+03</pdfrwt>
<totfact> 0.40934661E+03</totfact>
</mgrwt>
</event>
<event>
 6    4  0.6277709E-003  0.1275597E+03  0.7818608E-02  0.1231122E+00
          4   -1    0    0  502    0 -0.00000000000E+00  0.00000000000E+00  0.18116353044E+03  0.18116798189E+03  0.12700000000E+01 0. -1.
         21   -1    0    0  501  502  0.00000000000E+00 -0.00000000000E+00 -0.34961789035E+02  0.34961789035E+02  0.00000000000E+00 0. -1.
         25    2    1    2    0    0 -0.18682741104E+02 -0.17202699782E+02  0.14106814530E+03  0.19018859894E+03  0.12500601527E+03 0.  0.
    9000005    1    3    3    0    0  0.18146927783E+02  0.48385801048E+02  0.48195505096E+02  0.70670385895E+02  0.10000000000E+01 0.  0.
    9000005    1    3    3    0    0 -0.36829668887E+02 -0.65588500830E+02  0.92872640205E+02  0.11951821305E+03  0.10000000000E+01 0.  0.
          4    1    1    2  501    0  0.18682741104E+02  0.17202699782E+02  0.51335961079E+01  0.25941171985E+02  0.12700000000E+01 0.  1.
<mgrwt>
<rscale>  1 0.12755972E+03</rscale>
<asrwt>0</asrwt>
<pdfrwt beam="2">  1       21 0.53787369E-02 0.12755972E+03</pdfrwt>
<pdfrwt beam="1">  1        4 0.27873428E-01 0.12755972E+03</pdfrwt>
<totfact> 0.11558278E+05</totfact>
</mgrwt>
</event>
<event>
 6    4  0.6277709E-003  0.1274003E+03  0.7818608E-02  0.1231365E+00
          4   -1    0    0  502    0 -0.00000000000E+00  0.00000000000E+00  0.16604846758E+03  0.16605332422E+03  0.12700000000E+01 0.  1.
         21   -1    0    0  501  502  0.00000000000E+00 -0.00000000000E+00 -0.10588341697E+03  0.10588341697E+03  0.00000000000E+00 0. -1.
         25    2    1    2    0    0 -0.34030334808E+01  0.24390021740E+02  0.13946281708E+03  0.18889336418E+03  0.12499748752E+03 0.  0.
    9000005    1    3    3    0    0  0.18001789550E+01 -0.25528931653E+02  0.13620098177E+03  0.13858814679E+03  0.10000000000E+01 0.  0.
    9000005    1    3    3    0    0 -0.52032124359E+01  0.49918953393E+02  0.32618353101E+01  0.50305217394E+02  0.10000000000E+01 0.  0.
          4    1    1    2  501    0  0.34030334808E+01 -0.24390021740E+02 -0.79297766472E+02  0.83043377008E+02  0.12700000000E+01 0. -1.
<mgrwt>
<rscale>  1 0.12740026E+03</rscale>
<asrwt>0</asrwt>
<pdfrwt beam="2">  1       21 0.16289756E-01 0.12740026E+03</pdfrwt>
<pdfrwt beam="1">  1        4 0.25546878E-01 0.12740026E+03</pdfrwt>
<totfact> 0.19676158E+04</totfact>
</mgrwt>
</event>
<event>
 6    4  0.6277709E-003  0.1268970E+03  0.7818608E-02  0.1232134E+00
         21   -1    0    0  501  502  0.00000000000E+00  0.00000000000E+00  0.16270020751E+04  0.16270020751E+04  0.00000000000E+00 0.  1.
          4   -1    0    0  502    0 -0.00000000000E+00 -0.00000000000E+00 -0.17838463649E+02  0.17883614997E+02  0.12700000000E+01 0. -1.
         25    2    1    2    0    0 -0.19671306736E+02  0.95396135446E+01  0.20870061201E+03  0.24425148009E+03  0.12499950215E+03 0.  0.
    9000005    1    3    3    0    0 -0.62746995794E+02  0.22475576762E+02  0.17722514515E+03  0.18934647899E+03  0.10000000000E+01 0.  0.
    9000005    1    3    3    0    0  0.43075689057E+02 -0.12935963218E+02  0.31475466861E+02  0.54905001104E+02  0.10000000000E+01 0.  0.
          4    1    1    2  501    0  0.19671306736E+02 -0.95396135446E+01  0.14004629994E+04  0.14006342100E+04  0.12700000000E+01 0.  1.
<mgrwt>
<rscale>  1 0.12689697E+03</rscale>
<asrwt>0</asrwt>
<pdfrwt beam="1">  1       21 0.25030790E+00 0.12689697E+03</pdfrwt>
<pdfrwt beam="2">  1        4 0.27478916E-02 0.12689697E+03</pdfrwt>
<totfact> 0.17625983E+03</totfact>
</mgrwt>
</event>
<event>
 6    4  0.6277709E-003  0.1353069E+03  0.7818608E-02  0.1219787E+00
          4   -1    0    0  502    0 -0.00000000000E+00  0.00000000000E+00  0.71128460745E+02  0.71139797779E+02  0.12700000000E+01 0.  1.
         21   -1    0    0  501  502  0.00000000000E+00 -0.00000000000E+00 -0.44519079378E+03  0.44519079378E+03  0.00000000000E+00 0. -1.
         25    2    1    2    0    0 -0.14879923042E+02  0.49566265074E+02  0.33855835247E+01  0.13534926740E+03  0.12501893963E+03 0.  0.
    9000005    1    3    3    0    0 -0.26300066183E+02  0.65169817338E+02 -0.44848725609E+02  0.83373897365E+02  0.10000000000E+01 0.  0.
    9000005    1    3    3    0    0  0.11420143141E+02 -0.15603552265E+02  0.48234309134E+02  0.51975370034E+02  0.10000000000E+01 0.  0.
          4    1    1    2  501    0  0.14879923042E+02 -0.49566265074E+02 -0.37744791656E+03  0.38098132416E+03  0.12700000000E+01 0. -1.
<mgrwt>
<rscale>  1 0.13530692E+03</rscale>
<asrwt>0</asrwt>
<pdfrwt beam="2">  1       21 0.68490892E-01 0.13530692E+03</pdfrwt>
<pdfrwt beam="1">  1        4 0.10943851E-01 0.13530692E+03</pdfrwt>
<totfact> 0.52397028E+03</totfact>
</mgrwt>
</event>
<event>
 6    4  0.6277709E-003  0.1305299E+03  0.7818608E-02  0.1226672E+00
         21   -1    0    0  501  502  0.00000000000E+00  0.00000000000E+00  0.30934456867E+03  0.30934456867E+03  0.00000000000E+00 0.  1.
         -4   -1    0    0    0  501 -0.00000000000E+00 -0.00000000000E+00 -0.23441717029E+02  0.23476094166E+02  0.12700000000E+01 0.  1.
         25    2    1    2    0    0 -0.19221295759E+02  0.32302163563E+02  0.19734627703E+03  0.23660856491E+03  0.12500068779E+03 0.  0.
    9000005    1    3    3    0    0 -0.69834706257E+02 -0.96501167739E+00  0.10093069427E+03  0.12274291218E+03  0.10000000000E+01 0.  0.
    9000005    1    3    3    0    0  0.50613410498E+02  0.33267175240E+02  0.96415582763E+02  0.11386565272E+03  0.10000000000E+01 0.  0.
         -4    1    1    2    0  502  0.19221295759E+02 -0.32302163563E+02  0.88556574612E+02  0.96212097932E+02  0.12700000000E+01 0. -1.
<mgrwt>
<rscale>  1 0.13052992E+03</rscale>
<asrwt>0</asrwt>
<pdfrwt beam="1">  1       21 0.47591469E-01 0.13052992E+03</pdfrwt>
<pdfrwt beam="2">  1       -4 0.36092631E-02 0.13052992E+03</pdfrwt>
<totfact> 0.68826459E+04</totfact>
</mgrwt>
</event>
<event>
 6    4  0.6277709E-003  0.1310224E+03  0.7818608E-02  0.1225946E+00
         -4   -1    0    0    0  501 -0.00000000000E+00  0.00000000000E+00  0.67924797168E+02  0.67936668820E+02  0.12700000000E+01 0. -1.
         21   -1    0    0  501  502  0.00000000000E+00 -0.00000000000E+00 -0.50282877148E+03  0.50282877148E+03  0.00000000000E+00 0.  1.
         25    2    1    2    0    0  0.15097327107E+02  0.36240140111E+02  0.30456804867E+01  0.13105782144E+03  0.12500239738E+03 0.  0.
    9000005    1    3    3    0    0  0.49748337731E+02  0.33392604853E+02 -0.42706616224E+02  0.73585448529E+02  0.10000000000E+01 0.  0.
    9000005    1    3    3    0    0 -0.34651010624E+02  0.28475352581E+01  0.45752296711E+02  0.57472372916E+02  0.10000000000E+01 0.  0.
         -4    1    1    2    0  502 -0.15097327107E+02 -0.36240140111E+02 -0.43794965480E+03  0.43970761886E+03  0.12700000000E+01 0.  1.
<mgrwt>
<rscale>  1 0.13102243E+03</rscale>
<asrwt>0</asrwt>
<pdfrwt beam="2">  1       21 0.77358270E-01 0.13102243E+03</pdfrwt>
<pdfrwt beam="1">  1       -4 0.10451006E-01 0.13102243E+03</pdfrwt>
<totfact> 0.43277957E+03</totfact>
</mgrwt>
</event>
<event>
 6    4  0.6277709E-003  0.1266614E+03  0.7818608E-02  0.1232495E+00
         -4   -1    0    0    0  501 -0.00000000000E+00  0.00000000000E+00  0.20824773645E+03  0.20825160897E+03  0.12700000000E+01 0. -1.
         21   -1    0    0  501  502  0.00000000000E+00 -0.00000000000E+00 -0.42922730171E+02  0.42922730171E+02  0.00000000000E+00 0. -1.
         25    2    1    2    0    0 -0.87333816236E+01  0.18499037397E+02  0.18404341037E+03  0.22341685563E+03  0.12499851255E+03 0.  0.
    9000005    1    3    3    0    0 -0.51686458438E+02 -0.79233218171E+00  0.24776460988E+02  0.57332284058E+02  0.10000000000E+01 0.  0.
    9000005    1    3    3    0    0  0.42953076815E+02  0.19291369579E+02  0.15926694938E+03  0.16608457157E+03  0.10000000000E+01 0.  0.
         -4    1    1    2    0  502  0.87333816236E+01 -0.18499037397E+02 -0.18718404089E+02  0.27757483511E+02  0.12700000000E+01 0.  1.
<mgrwt>
<rscale>  1 0.12666142E+03</rscale>
<asrwt>0</asrwt>
<pdfrwt beam="2">  1       21 0.66034971E-02 0.12666142E+03</pdfrwt>
<pdfrwt beam="1">  1       -4 0.32039856E-01 0.12666142E+03</pdfrwt>
<totfact> 0.62712301E+04</totfact>
</mgrwt>
</event>
<event>
 6    4  0.6277709E-003  0.1267251E+03  0.7818608E-02  0.1232398E+00
         21   -1    0    0  501  502  0.00000000000E+00  0.00000000000E+00  0.95458917295E+02  0.95458917295E+02  0.00000000000E+00 0.  1.
         -4   -1    0    0    0  501 -0.00000000000E+00 -0.00000000000E+00 -0.57472977059E+02  0.57487007158E+02  0.12700000000E+01 0.  1.
         25    2    1    2    0    0 -0.48220745834E+01 -0.20273293926E+02  0.27901103262E+02  0.12976024597E+03  0.12499996408E+03 0.  0.
    9000005    1    3    3    0    0 -0.57791471741E+02 -0.39753227905E+02  0.18348752697E+02  0.72511034060E+02  0.10000000000E+01 0.  0.
    9000005    1    3    3    0    0  0.52969397157E+02  0.19479933979E+02  0.95523505649E+01  0.57249211910E+02  0.10000000000E+01 0.  0.
         -4    1    1    2    0  502  0.48220745834E+01  0.20273293926E+02  0.10084836975E+02  0.23185678483E+02  0.12700000000E+01 0. -1.
<mgrwt>
<rscale>  1 0.12672510E+03</rscale>
<asrwt>0</asrwt>
<pdfrwt beam="1">  1       21 0.14685987E-01 0.12672510E+03</pdfrwt>
<pdfrwt beam="2">  1       -4 0.88437256E-02 0.12672510E+03</pdfrwt>
<totfact> 0.15152377E+05</totfact>
</mgrwt>
</event>
<event>
 6    4  0.6277709E-003  0.1281192E+03  0.7818608E-02  0.1230273E+00
         21   -1    0    0  501  502  0.00000000000E+00  0.00000000000E+00  0.24515027976E+03  0.24515027976E+03  0.00000000000E+00 0. -1.
         -4   -1    0    0    0  501 -0.00000000000E+00 -0.00000000000E+00 -0.37200926982E+02  0.37222598892E+02  0.12700000000E+01 0. -1.
         25    2    1    2    0    0 -0.12383293309E+02 -0.25240257014E+02  0.79286633237E+02  0.15066819071E+03  0.12499646776E+03 0.  0.
    9000005    1    3    3    0    0 -0.25055841907E+02 -0.46029432829E+02  0.10368758606E+03  0.11618355909E+03  0.10000000000E+01 0.  0.
    9000005    1    3    3    0    0  0.12672548598E+02  0.20789175814E+02 -0.24400952822E+02  0.34484631615E+02  0.10000000000E+01 0.  0.
         -4    1    1    2    0  502  0.12383293309E+02  0.25240257014E+02  0.12866271954E+03  0.13170468794E+03  0.12700000000E+01 0.  1.
<mgrwt>
<rscale>  1 0.12811922E+03</rscale>
<asrwt>0</asrwt>
<pdfrwt beam="1">  1       21 0.37715427E-01 0.12811922E+03</pdfrwt>
<pdfrwt beam="2">  1       -4 0.57251398E-02 0.12811922E+03</pdfrwt>
<totfact> 0.52505694E+04</totfact>
</mgrwt>
</event>
<event>
 6    4  0.6277709E-003  0.1415717E+03  0.7818608E-02  0.1211230E+00
         21   -1    0    0  501  502  0.00000000000E+00  0.00000000000E+00  0.64625318703E+03  0.64625318703E+03  0.00000000000E+00 0.  1.
         -4   -1    0    0    0  501 -0.00000000000E+00 -0.00000000000E+00 -0.16844449763E+02  0.16892258222E+02  0.12700000000E+01 0. -1.
         25    2    1    2    0    0 -0.49324250916E+02  0.44559204143E+02  0.45394189766E+03  0.47550581963E+03  0.12499653454E+03 0.  0.
    9000005    1    3    3    0    0  0.29058167565E+02  0.54987915301E+02  0.21508307782E+03  0.22389680278E+03  0.10000000000E+01 0.  0.
    9000005    1    3    3    0    0 -0.78382418481E+02 -0.10428711158E+02  0.23885881985E+03  0.25160901685E+03  0.10000000000E+01 0.  0.
         -4    1    1    2    0  502  0.49324250916E+02 -0.44559204143E+02  0.17546683960E+03  0.18763962562E+03  0.12700000000E+01 0.  1.
<mgrwt>
<rscale>  1 0.14157167E+03</rscale>
<asrwt>0</asrwt>
<pdfrwt beam="1">  1       21 0.99423548E-01 0.14157167E+03</pdfrwt>
<pdfrwt beam="2">  1       -4 0.25952279E-02 0.14157167E+03</pdfrwt>
<totfact> 0.23301274E+04</totfact>
</mgrwt>
</event>
<event>
 6    4  0.6277709E-003  0.1276758E+03  0.7818608E-02  0.1230946E+00
         21   -1    0    0  501  502  0.00000000000E+00  0.00000000000E+00  0.22514592982E+03  0.22514592982E+03  0.00000000000E+00 0.  1.
          4   -1    0    0  502    0 -0.00000000000E+00 -0.00000000000E+00 -0.28762935217E+02  0.28790959385E+02  0.12700000000E+01 0.  1.
         25    2    1    2    0    0  0.11231441543E+02 -0.23408817318E+02  0.12804630802E+03  0.18082304893E+03  0.12500799982E+03 0.  0.
    9000005    1    3    3    0    0  0.26720706055E+02 -0.36533470561E+02  0.14652038601E+03  0.15335551545E+03  0.10000000000E+01 0.  0.
    9000005    1    3    3    0    0 -0.15489264513E+02  0.13124653243E+02 -0.18474077985E+02  0.27467533477E+02  0.10000000000E+01 0.  0.
          4    1    1    2  501    0 -0.11231441543E+02  0.23408817318E+02  0.68336686577E+02  0.73113840274E+02  0.12700000000E+01 0. -1.
<mgrwt>
<rscale>  1 0.12767583E+03</rscale>
<asrwt>0</asrwt>
<pdfrwt beam="1">  1       21 0.34637834E-01 0.12767583E+03</pdfrwt>
<pdfrwt beam="2">  1        4 0.44274983E-02 0.12767583E+03</pdfrwt>
<totfact> 0.93807602E+04</totfact>
</mgrwt>
</event>
<event>
 6    4  0.6277709E-003  0.1271503E+03  0.7818608E-02  0.1231747E+00
         21   -1    0    0  501  502  0.00000000000E+00  0.00000000000E+00  0.11866440307E+02  0.11866440307E+02  0.00000000000E+00 0.  1.
         -4   -1    0    0    0  501 -0.00000000000E+00 -0.00000000000E+00 -0.62455957674E+03  0.62456086797E+03  0.12700000000E+01 0.  1.
         25    2    1    2    0    0 -0.19459837999E+01  0.23229661995E+02 -0.59111939366E+03  0.60463983705E+03  0.12499516369E+03 0.  0.
    9000005    1    3    3    0    0  0.58782549754E+02  0.17392231792E+02 -0.37869812394E+03  0.38362891830E+03  0.10000000000E+01 0.  0.
    9000005    1    3    3    0    0 -0.60728533554E+02  0.58374302026E+01 -0.21242126972E+03  0.22101091875E+03  0.10000000000E+01 0.  0.
         -4    1    1    2    0  502  0.19459837999E+01 -0.23229661995E+02 -0.21573742774E+02  0.31787471221E+02  0.12700000000E+01 0. -1.
<mgrwt>
<rscale>  1 0.12715029E+03</rscale>
<asrwt>0</asrwt>
<pdfrwt beam="1">  1       21 0.18256055E-02 0.12715029E+03</pdfrwt>
<pdfrwt beam="2">  1       -4 0.96091454E-01 0.12715029E+03</pdfrwt>
<totfact> 0.53561160E+04</totfact>
</mgrwt>
</event>
<event>
 6    4  0.6277709E-003  0.1289652E+03  0.7818608E-02  0.1228999E+00
         21   -1    0    0  501  502  0.00000000000E+00  0.00000000000E+00  0.80504528239E+02  0.80504528239E+02  0.00000000000E+00 0.  1.
          4   -1    0    0  502    0 -0.00000000000E+00 -0.00000000000E+00 -0.92704670204E+02  0.92713368926E+02  0.12700000000E+01 0.  1.
         25    2    1    2    0    0  0.47139993869E+01 -0.31349587254E+02 -0.35607153206E+02  0.13379050204E+03  0.12500804240E+03 0.  0.
    9000005    1    3    3    0    0 -0.30978462810E+02  0.10514060709E+02 -0.63992991668E+02  0.71877072932E+02  0.10000000000E+01 0.  0.
    9000005    1    3    3    0    0  0.35692462197E+02 -0.41863647963E+02  0.28385838462E+02  0.61913429106E+02  0.10000000000E+01 0.  0.
          4    1    1    2  501    0 -0.47139993869E+01  0.31349587254E+02  0.23407011241E+02  0.39427395126E+02  0.12700000000E+01 0. -1.
<mgrwt>
<rscale>  1 0.12896522E+03</rscale>
<asrwt>0</asrwt>
<pdfrwt beam="1">  1       21 0.12385312E-01 0.12896522E+03</pdfrwt>
<pdfrwt beam="2">  1        4 0.14263697E-01 0.12896522E+03</pdfrwt>
<totfact> 0.91411827E+04</totfact>
</mgrwt>
</event>
<event>
 6    4  0.6277709E-003  0.1277598E+03  0.7818608E-02  0.1230818E+00
          4   -1    0    0  502    0 -0.00000000000E+00  0.00000000000E+00  0.10201167165E+03  0.10201957681E+03  0.12700000000E+01 0. -1.
         21   -1    0    0  501  502  0.00000000000E+00 -0.00000000000E+00 -0.67794108466E+02  0.67794108466E+02  0.00000000000E+00 0. -1.
         25    2    1    2    0    0 -0.25918949820E+02  0.50811052568E+01  0.52011694284E+02  0.13794122707E+03  0.12499982477E+03 0.  0.
    9000005    1    3    3    0    0 -0.95127388891E+00 -0.20733995082E+02 -0.36731052215E+02  0.42201583749E+02  0.10000000000E+01 0.  0.
    9000005    1    3    3    0    0 -0.24967675931E+02  0.25815100339E+02  0.88742746500E+02  0.95739643321E+02  0.10000000000E+01 0.  0.
          4    1    1    2  501    0  0.25918949820E+02 -0.50811052568E+01 -0.17794131102E+02  0.31872458205E+02  0.12700000000E+01 0.  1.
<mgrwt>
<rscale>  1 0.12775980E+03</rscale>
<asrwt>0</asrwt>
<pdfrwt beam="2">  1       21 0.10429863E-01 0.12775980E+03</pdfrwt>
<pdfrwt beam="1">  1        4 0.15695626E-01 0.12775980E+03</pdfrwt>
<totfact> 0.10463294E+05</totfact>
</mgrwt>
</event>
<event>
 6    4  0.6277709E-003  0.1433533E+03  0.7818608E-02  0.1208887E+00
         21   -1    0    0  501  502  0.00000000000E+00  0.00000000000E+00  0.15403687354E+02  0.15403687354E+02  0.00000000000E+00 0.  1.
         -4   -1    0    0    0  501 -0.00000000000E+00 -0.00000000000E+00 -0.17525751789E+04  0.17525756391E+04  0.12700000000E+01 0. -1.
         25    2    1    2    0    0  0.63567452780E+01  0.69891416227E+02 -0.16492847853E+04  0.16555030876E+04  0.12499980635E+03 0.  0.
    9000005    1    3    3    0    0 -0.52411688765E+02  0.19715673757E+02 -0.10121867410E+04  0.10137350204E+04  0.10000000000E+01 0.  0.
    9000005    1    3    3    0    0  0.58768434043E+02  0.50175742470E+02 -0.63709804436E+03  0.64176806722E+03  0.10000000000E+01 0.  0.
         -4    1    1    2    0  502 -0.63567452780E+01 -0.69891416227E+02 -0.87886706242E+02  0.11247623885E+03  0.12700000000E+01 0.  1.
<mgrwt>
<rscale>  1 0.14335330E+03</rscale>
<asrwt>0</asrwt>
<pdfrwt beam="1">  1       21 0.23697980E-02 0.14335330E+03</pdfrwt>
<pdfrwt beam="2">  1       -4 0.26963102E+00 0.14335330E+03</pdfrwt>
<totfact> 0.21783912E+03</totfact>
</mgrwt>
</event>
<event>
 6    4  0.6277709E-003  0.1279659E+03  0.7818608E-02  0.1230506E+00
         21   -1    0    0  501  502  0.00000000000E+00  0.00000000000E+00  0.35975130074E+02  0.35975130074E+02  0.00000000000E+00 0.  1.
          4   -1    0    0  502    0 -0.00000000000E+00 -0.00000000000E+00 -0.22407582854E+03  0.22407942751E+03  0.12700000000E+01 0. -1.
         25    2    1    2    0    0  0.26346531694E+02  0.76005687455E+01 -0.19358966005E+03  0.23206080870E+03  0.12499341614E+03 0.  0.
    9000005    1    3    3    0    0 -0.20802073655E+01  0.22465802085E+01 -0.20191715493E+03  0.20194284300E+03  0.10000000000E+01 0.  0.
    9000005    1    3    3    0    0  0.28426739060E+02  0.53539885369E+01  0.83274948769E+01  0.30117965698E+02  0.10000000000E+01 0.  0.
          4    1    1    2  501    0 -0.26346531694E+02 -0.76005687455E+01  0.54889615865E+01  0.27993748889E+02  0.12700000000E+01 0.  1.
<mgrwt>
<rscale>  1 0.12796586E+03</rscale>
<asrwt>0</asrwt>
<pdfrwt beam="1">  1       21 0.55346354E-02 0.12796586E+03</pdfrwt>
<pdfrwt beam="2">  1        4 0.34475206E-01 0.12796586E+03</pdfrwt>
<totfact> 0.73643688E+04</totfact>
</mgrwt>
</event>
<event>
 6    4  0.6277709E-003  0.1333712E+03  0.7818608E-02  0.1222537E+00
         -4   -1    0    0    0  501 -0.00000000000E+00  0.00000000000E+00  0.15773676700E+03  0.15774187955E+03  0.12700000000E+01 0. -1.
         21   -1    0    0  501  502  0.00000000000E+00 -0.00000000000E+00 -0.53804473839E+02  0.53804473839E+02  0.00000000000E+00 0. -1.
         25    2    1    2    0    0 -0.45074342731E+02 -0.11984857380E+02  0.95735174247E+02  0.16417401085E+03  0.12495018636E+03 0.  0.
    9000005    1    3    3    0    0  0.14628180263E+02  0.42261111820E+02  0.88274527661E+01  0.45595056227E+02  0.10000000000E+01 0.  0.
    9000005    1    3    3    0    0 -0.59702522993E+02 -0.54245969200E+02  0.86907721481E+02  0.11857895462E+03  0.10000000000E+01 0.  0.
         -4    1    1    2    0  502  0.45074342731E+02  0.11984857380E+02  0.81971189121E+01  0.47372342537E+02  0.12700000000E+01 0.  1.
<mgrwt>
<rscale>  1 0.13337122E+03</rscale>
<asrwt>0</asrwt>
<pdfrwt beam="2">  1       21 0.82776115E-02 0.13337122E+03</pdfrwt>
<pdfrwt beam="1">  1       -4 0.24268741E-01 0.13337122E+03</pdfrwt>
<totfact> 0.72047814E+04</totfact>
</mgrwt>
</event>
<event>
 6    4  0.6277709E-003  0.1279220E+03  0.7818608E-02  0.1230572E+00
          4   -1    0    0  502    0 -0.00000000000E+00  0.00000000000E+00  0.71857131169E+02  0.71868353257E+02  0.12700000000E+01 0.  1.
         21   -1    0    0  501  502  0.00000000000E+00 -0.00000000000E+00 -0.85753242501E+02  0.85753242501E+02  0.00000000000E+00 0.  1.
         25    2    1    2    0    0  0.91023773262E+01  0.25622148028E+02 -0.20644121191E+02  0.12957705476E+03  0.12499874255E+03 0.  0.
    9000005    1    3    3    0    0  0.62281751294E+02  0.25977691087E+01 -0.32668371832E+02  0.70384568384E+02  0.10000000000E+01 0.  0.
    9000005    1    3    3    0    0 -0.53179373967E+02  0.23024378919E+02  0.12024250641E+02  0.59192486378E+02  0.10000000000E+01 0.  0.
          4    1    1    2  501    0 -0.91023773262E+01 -0.25622148028E+02  0.67480098594E+01  0.28044540995E+02  0.12700000000E+01 0. -1.
<mgrwt>
<rscale>  1 0.12792198E+03</rscale>
<asrwt>0</asrwt>
<pdfrwt beam="2">  1       21 0.13192807E-01 0.12792198E+03</pdfrwt>
<pdfrwt beam="1">  1        4 0.11056530E-01 0.12792198E+03</pdfrwt>
<totfact> 0.12631373E+05</totfact>
</mgrwt>
</event>
<event>
 6    4  0.6277709E-003  0.1281051E+03  0.7818608E-02  0.1230295E+00
         21   -1    0    0  501  502  0.00000000000E+00  0.00000000000E+00  0.14510507034E+02  0.14510507034E+02  0.00000000000E+00 0.  1.
          4   -1    0    0  502    0 -0.00000000000E+00 -0.00000000000E+00 -0.66852960200E+03  0.66853080830E+03  0.12700000000E+01 0. -1.
         25    2    1    2    0    0  0.10120216036E+02  0.26143448884E+02 -0.63798819286E+03  0.65072256823E+03  0.12500011154E+03 0.  0.
    9000005    1    3    3    0    0 -0.15161555293E+02  0.73047016943E+02 -0.35399128326E+03  0.36176866651E+03  0.10000000000E+01 0.  0.
    9000005    1    3    3    0    0  0.25281771329E+02 -0.46903568059E+02 -0.28399690959E+03  0.28895390171E+03  0.10000000000E+01 0.  0.
          4    1    1    2  501    0 -0.10120216036E+02 -0.26143448884E+02 -0.16030902106E+02  0.32318747106E+02  0.12700000000E+01 0.  1.
<mgrwt>
<rscale>  1 0.12810514E+03</rscale>
<asrwt>0</asrwt>
<pdfrwt beam="1">  1       21 0.22323860E-02 0.12810514E+03</pdfrwt>
<pdfrwt beam="2">  1        4 0.10285506E+00 0.12810514E+03</pdfrwt>
<totfact> 0.33125570E+04</totfact>
</mgrwt>
</event>
<event>
 6    4  0.6277709E-003  0.1279430E+03  0.7818608E-02  0.1230540E+00
         21   -1    0    0  501  502  0.00000000000E+00  0.00000000000E+00  0.73591623368E+03  0.73591623368E+03  0.00000000000E+00 0. -1.
          4   -1    0    0  502    0 -0.00000000000E+00 -0.00000000000E+00 -0.97414458564E+01  0.98238825000E+01  0.12700000000E+01 0.  1.
         25    2    1    2    0    0 -0.13179157874E+02 -0.24192828643E+02  0.43956553642E+03  0.45780703532E+03  0.12494173692E+03 0.  0.
    9000005    1    3    3    0    0 -0.24410775450E+02  0.44219519590E+02  0.26872746766E+03  0.27343500827E+03  0.10000000000E+01 0.  0.
    9000005    1    3    3    0    0  0.11231617575E+02 -0.68412348233E+02  0.17083806875E+03  0.18437202705E+03  0.10000000000E+01 0.  0.
          4    1    1    2  501    0  0.13179157874E+02  0.24192828643E+02  0.28660925141E+03  0.28793308086E+03  0.12700000000E+01 0. -1.
<mgrwt>
<rscale>  1 0.12794304E+03</rscale>
<asrwt>0</asrwt>
<pdfrwt beam="1">  1       21 0.11321784E+00 0.12794304E+03</pdfrwt>
<pdfrwt beam="2">  1        4 0.15051101E-02 0.12794304E+03</pdfrwt>
<totfact> 0.39266316E+04</totfact>
</mgrwt>
</event>
<event>
 6    4  0.6277709E-003  0.1417632E+03  0.7818608E-02  0.1210976E+00
         21   -1    0    0  501  502  0.00000000000E+00  0.00000000000E+00  0.31197833935E+02  0.31197833935E+02  0.00000000000E+00 0. -1.
         -4   -1    0    0    0  501 -0.00000000000E+00 -0.00000000000E+00 -0.45760755063E+03  0.45760931295E+03  0.12700000000E+01 0.  1.
         25    2    1    2    0    0  0.65709457800E+02  0.12397468455E+02 -0.38469341015E+03  0.40998270143E+03  0.12500146237E+03 0.  0.
    9000005    1    3    3    0    0  0.89643887305E+02  0.44672143689E+02 -0.29900939736E+03  0.31533989069E+03  0.10000000000E+01 0.  0.
    9000005    1    3    3    0    0 -0.23934429505E+02 -0.32274675235E+02 -0.85684012786E+02  0.94642810737E+02  0.10000000000E+01 0.  0.
         -4    1    1    2    0  502 -0.65709457800E+02 -0.12397468455E+02 -0.41716306552E+02  0.78824445452E+02  0.12700000000E+01 0. -1.
<mgrwt>
<rscale>  1 0.14176317E+03</rscale>
<asrwt>0</asrwt>
<pdfrwt beam="1">  1       21 0.47996668E-02 0.14176317E+03</pdfrwt>
<pdfrwt beam="2">  1       -4 0.70403286E-01 0.14176317E+03</pdfrwt>
<totfact> 0.22160888E+04</totfact>
</mgrwt>
</event>
<event>
 6    4  0.6277709E-003  0.1279225E+03  0.7818608E-02  0.1230571E+00
         -4   -1    0    0    0  501 -0.00000000000E+00  0.00000000000E+00  0.46270579680E+03  0.46270753970E+03  0.12700000000E+01 0.  1.
         21   -1    0    0  501  502  0.00000000000E+00 -0.00000000000E+00 -0.95629431775E+02  0.95629431775E+02  0.00000000000E+00 0. -1.
         25    2    1    2    0    0 -0.23474176487E+02 -0.13749243340E+02  0.45168659177E+03  0.46945175322E+03  0.12499637098E+03 0.  0.
    9000005    1    3    3    0    0  0.39841527484E+02  0.56097513296E+01  0.31510764022E+03  0.31766750156E+03  0.10000000000E+01 0.  0.
    9000005    1    3    3    0    0 -0.63315703971E+02 -0.19358994670E+02  0.13657895155E+03  0.15178425166E+03  0.10000000000E+01 0.  0.
         -4    1    1    2    0  502  0.23474176487E+02  0.13749243340E+02 -0.84610226747E+02  0.88885218255E+02  0.12700000000E+01 0. -1.
<mgrwt>
<rscale>  1 0.12792252E+03</rscale>
<asrwt>0</asrwt>
<pdfrwt beam="2">  1       21 0.14712220E-01 0.12792252E+03</pdfrwt>
<pdfrwt beam="1">  1       -4 0.71186289E-01 0.12792252E+03</pdfrwt>
<totfact> 0.30748918E+03</totfact>
</mgrwt>
</event>
<event>
 6    4  0.6277709E-003  0.2082143E+03  0.7818608E-02  0.1142988E+00
         21   -1    0    0  501  502  0.00000000000E+00  0.00000000000E+00  0.21318199102E+03  0.21318199102E+03  0.00000000000E+00 0.  1.
         -4   -1    0    0    0  501 -0.00000000000E+00 -0.00000000000E+00 -0.18156851182E+03  0.18157295334E+03  0.12700000000E+01 0. -1.
         25    2    1    2    0    0 -0.59779720781E+02  0.15541846355E+03 -0.42460106461E+02  0.21249956633E+03  0.12499876488E+03 0.  0.
    9000005    1    3    3    0    0 -0.37156413865E+02  0.60690727581E+02  0.42808304477E+02  0.83051275955E+02  0.10000000000E+01 0.  0.
    9000005    1    3    3    0    0 -0.22623306915E+02  0.94727735967E+02 -0.85268410937E+02  0.12944829037E+03  0.10000000000E+01 0.  0.
         -4    1    1    2    0  502  0.59779720781E+02 -0.15541846355E+03  0.74073585657E+02  0.18225537803E+03  0.12700000000E+01 0.  1.
<mgrwt>
<rscale>  1 0.20821432E+03</rscale>
<asrwt>0</asrwt>
<pdfrwt beam="1">  1       21 0.32797229E-01 0.20821432E+03</pdfrwt>
<pdfrwt beam="2">  1       -4 0.27934250E-01 0.20821432E+03</pdfrwt>
<totfact> 0.45914589E+03</totfact>
</mgrwt>
</event>
<event>
 6    4  0.6277709E-003  0.1287826E+03  0.7818608E-02  0.1229273E+00
          4   -1    0    0  502    0 -0.00000000000E+00  0.00000000000E+00  0.99074811242E+01  0.99885475534E+01  0.12700000000E+01 0. -1.
         21   -1    0    0  501  502  0.00000000000E+00 -0.00000000000E+00 -0.11750983016E+04  0.11750983016E+04  0.00000000000E+00 0.  1.
         25    2    1    2    0    0 -0.27094590410E+02 -0.15020778335E+02 -0.42114669449E+03  0.44039697080E+03  0.12500085198E+03 0.  0.
    9000005    1    3    3    0    0 -0.22358470156E+02 -0.69318405209E+02 -0.20784619063E+03  0.22024073521E+03  0.10000000000E+01 0.  0.
    9000005    1    3    3    0    0 -0.47361202544E+01  0.54297626875E+02 -0.21330050387E+03  0.22015623559E+03  0.10000000000E+01 0.  0.
          4    1    1    2  501    0  0.27094590410E+02  0.15020778335E+02 -0.74404412601E+03  0.74468987838E+03  0.12700000000E+01 0.  1.
<mgrwt>
<rscale>  1 0.12878258E+03</rscale>
<asrwt>0</asrwt>
<pdfrwt beam="2">  1       21 0.18078428E+00 0.12878258E+03</pdfrwt>
<pdfrwt beam="1">  1        4 0.15305171E-02 0.12878258E+03</pdfrwt>
<totfact> 0.11526750E+04</totfact>
</mgrwt>
</event>
<event>
 6    4  0.6277709E-003  0.1329531E+03  0.7818608E-02  0.1223139E+00
         21   -1    0    0  501  502  0.00000000000E+00  0.00000000000E+00  0.16145352429E+02  0.16145352429E+02  0.00000000000E+00 0. -1.
          4   -1    0    0  502    0 -0.00000000000E+00 -0.00000000000E+00 -0.52203173094E+03  0.52203327577E+03  0.12700000000E+01 0. -1.
         25    2    1    2    0    0  0.44878085901E+02  0.57100373353E+01 -0.42713760524E+03  0.44735115817E+03  0.12501950961E+03 0.  0.
    9000005    1    3    3    0    0 -0.16038535214E+01  0.59650059281E+02 -0.15624429683E+03  0.16725424422E+03  0.10000000000E+01 0.  0.
    9000005    1    3    3    0    0  0.46481939423E+02 -0.53940021945E+02 -0.27089330841E+03  0.28009691394E+03  0.10000000000E+01 0.  0.
          4    1    1    2  501    0 -0.44878085901E+02 -0.57100373353E+01 -0.78748773274E+02  0.90827470033E+02  0.12700000000E+01 0.  1.
<mgrwt>
<rscale>  1 0.13295309E+03</rscale>
<asrwt>0</asrwt>
<pdfrwt beam="1">  1       21 0.24839004E-02 0.13295309E+03</pdfrwt>
<pdfrwt beam="2">  1        4 0.80316536E-01 0.13295309E+03</pdfrwt>
<totfact> 0.48996785E+04</totfact>
</mgrwt>
</event>
<event>
 6    4  0.6277709E-003  0.1268110E+03  0.7818608E-02  0.1232266E+00
         -4   -1    0    0    0  501 -0.00000000000E+00  0.00000000000E+00  0.62406441629E+03  0.62406570854E+03  0.12700000000E+01 0.  1.
         21   -1    0    0  501  502  0.00000000000E+00 -0.00000000000E+00 -0.24942372551E+02  0.24942372551E+02  0.00000000000E+00 0.  1.
         25    2    1    2    0    0  0.19839352766E+02 -0.79703280006E+01  0.61133748995E+03  0.62435131584E+03  0.12499565161E+03 0.  0.
    9000005    1    3    3    0    0 -0.43034998027E+02 -0.23475875511E+02  0.13494947616E+03  0.14358094895E+03  0.10000000000E+01 0.  0.
    9000005    1    3    3    0    0  0.62874350793E+02  0.15505547511E+02  0.47638801379E+03  0.48077036689E+03  0.10000000000E+01 0.  0.
         -4    1    1    2    0  502 -0.19839352766E+02  0.79703280006E+01 -0.12215446214E+02  0.24656765254E+02  0.12700000000E+01 0. -1.
<mgrwt>
<rscale>  1 0.12681104E+03</rscale>
<asrwt>0</asrwt>
<pdfrwt beam="2">  1       21 0.38372886E-02 0.12681104E+03</pdfrwt>
<pdfrwt beam="1">  1       -4 0.96012485E-01 0.12681104E+03</pdfrwt>
<totfact> 0.15967021E+04</totfact>
</mgrwt>
</event>
<event>
 6    4  0.6277709E-003  0.1270065E+03  0.7818608E-02  0.1231966E+00
         -4   -1    0    0    0  501 -0.00000000000E+00  0.00000000000E+00  0.65330794925E+02  0.65343137861E+02  0.12700000000E+01 0.  1.
         21   -1    0    0  501  502  0.00000000000E+00 -0.00000000000E+00 -0.11146047722E+03  0.11146047722E+03  0.00000000000E+00 0. -1.
         25    2    1    2    0    0  0.89112162881E+01 -0.20641927804E+02 -0.17284099122E+01  0.12701822718E+03  0.12500057470E+03 0.  0.
    9000005    1    3    3    0    0  0.48624085137E+02  0.30372951006E+02  0.16814521940E+02  0.59754045523E+02  0.10000000000E+01 0.  0.
    9000005    1    3    3    0    0 -0.39712868849E+02 -0.51014878811E+02 -0.18542931852E+02  0.67264181657E+02  0.10000000000E+01 0.  0.
         -4    1    1    2    0  502 -0.89112162881E+01  0.20641927804E+02 -0.44401272383E+02  0.49785387901E+02  0.12700000000E+01 0. -1.
<mgrwt>
<rscale>  1 0.12700647E+03</rscale>
<asrwt>0</asrwt>
<pdfrwt beam="2">  1       21 0.17147766E-01 0.12700647E+03</pdfrwt>
<pdfrwt beam="1">  1       -4 0.10052397E-01 0.12700647E+03</pdfrwt>
<totfact> 0.92384534E+04</totfact>
</mgrwt>
</event>
<event>
 6    4  0.6277709E-003  0.1284007E+03  0.7818608E-02  0.1229848E+00
         21   -1    0    0  501  502  0.00000000000E+00  0.00000000000E+00  0.37106259899E+02  0.37106259899E+02  0.00000000000E+00 0.  1.
          4   -1    0    0  502    0 -0.00000000000E+00 -0.00000000000E+00 -0.16877031050E+03  0.16877508882E+03  0.12700000000E+01 0.  1.
         25    2    1    2    0    0  0.28998035210E+02 -0.45362331343E+01 -0.10052058938E+03  0.16306789833E+03  0.12500114848E+03 0.  0.
    9000005    1    3    3    0    0  0.56289107538E+02 -0.47889443179E+02 -0.76857537632E+02  0.10662993710E+03  0.10000000000E+01 0.  0.
    9000005    1    3    3    0    0 -0.27291072328E+02  0.43353210045E+02 -0.23663051743E+02  0.56437961230E+02  0.10000000000E+01 0.  0.
          4    1    1    2  501    0 -0.28998035210E+02  0.45362331343E+01 -0.31143461229E+02  0.42813450392E+02  0.12700000000E+01 0. -1.
<mgrwt>
<rscale>  1 0.12840074E+03</rscale>
<asrwt>0</asrwt>
<pdfrwt beam="1">  1       21 0.57086554E-02 0.12840074E+03</pdfrwt>
<pdfrwt beam="2">  1        4 0.25966702E-01 0.12840074E+03</pdfrwt>
<totfact> 0.11938442E+05</totfact>
</mgrwt>
</event>
<event>
 6    4  0.6277709E-003  0.1314158E+03  0.7818608E-02  0.1225370E+00
          4   -1    0    0  502    0 -0.00000000000E+00  0.00000000000E+00  0.24295751174E+02  0.24328921577E+02  0.12700000000E+01 0. -1.
         21   -1    0    0  501  502  0.00000000000E+00 -0.00000000000E+00 -0.41967165041E+03  0.41967165041E+03  0.00000000000E+00 0.  1.
         25    2    1    2    0    0 -0.34716218080E+02 -0.20974541551E+02 -0.16933834781E+03  0.21434923899E+03  0.12499989211E+03 0.  0.
    9000005    1    3    3    0    0  0.66244024280E+01  0.48152188634E+02 -0.83593669941E+02  0.96702728152E+02  0.10000000000E+01 0.  0.
    9000005    1    3    3    0    0 -0.41340620508E+02 -0.69126730185E+02 -0.85744677865E+02  0.11764651084E+03  0.10000000000E+01 0.  0.
          4    1    1    2  501    0  0.34716218080E+02  0.20974541551E+02 -0.22603755143E+03  0.22965133300E+03  0.12700000000E+01 0.  1.
<mgrwt>
<rscale>  1 0.13141583E+03</rscale>
<asrwt>0</asrwt>
<pdfrwt beam="2">  1       21 0.64564870E-01 0.13141583E+03</pdfrwt>
<pdfrwt beam="1">  1        4 0.37405072E-02 0.13141583E+03</pdfrwt>
<totfact> 0.34327093E+04</totfact>
</mgrwt>
</event>
<event>
 6    4  0.6277709E-003  0.1339637E+03  0.7818608E-02  0.1221690E+00
          4   -1    0    0  502    0 -0.00000000000E+00  0.00000000000E+00  0.51916216751E+03  0.51916372088E+03  0.12700000000E+01 0. -1.
         21   -1    0    0  501  502  0.00000000000E+00 -0.00000000000E+00 -0.45196368822E+02  0.45196368822E+02  0.00000000000E+00 0. -1.
         25    2    1    2    0    0 -0.47516875143E+02  0.79989603165E+01  0.49423559621E+03  0.51206941767E+03  0.12499770864E+03 0.  0.
    9000005    1    3    3    0    0 -0.91018932718E-01  0.61388279177E+02  0.19542846480E+03  0.20484582974E+03  0.10000000000E+01 0.  0.
    9000005    1    3    3    0    0 -0.47425856210E+02 -0.53389318861E+02  0.29880713140E+03  0.30722358794E+03  0.10000000000E+01 0.  0.
          4    1    1    2  501    0  0.47516875143E+02 -0.79989603165E+01 -0.20269797519E+02  0.52290672026E+02  0.12700000000E+01 0.  1.
<mgrwt>
<rscale>  1 0.13396367E+03</rscale>
<asrwt>0</asrwt>
<pdfrwt beam="2">  1       21 0.69532879E-02 0.13396367E+03</pdfrwt>
<pdfrwt beam="1">  1        4 0.79872591E-01 0.13396367E+03</pdfrwt>
<totfact> 0.89242563E+03</totfact>
</mgrwt>
</event>
<event>
 6    4  0.6277709E-003  0.1294400E+03  0.7818608E-02  0.1228289E+00
          4   -1    0    0  502    0 -0.00000000000E+00  0.00000000000E+00  0.87087370328E+02  0.87096630076E+02  0.12700000000E+01 0. -1.
         21   -1    0    0  501  502  0.00000000000E+00 -0.00000000000E+00 -0.87864926014E+02  0.87864926014E+02  0.00000000000E+00 0.  1.
         25    2    1    2    0    0 -0.20251070937E+01 -0.33554783794E+02  0.25926563801E+02  0.13201103256E+03  0.12499880572E+03 0.  0.
    9000005    1    3    3    0    0 -0.74603659453E+01  0.46298542208E+02 -0.27448224886E+01  0.46986658970E+02  0.10000000000E+01 0.  0.
    9000005    1    3    3    0    0  0.54352588515E+01 -0.79853326002E+02  0.28671386289E+02  0.85024373588E+02  0.10000000000E+01 0.  0.
          4    1    1    2  501    0  0.20251070937E+01  0.33554783794E+02 -0.26704119487E+02  0.42950523533E+02  0.12700000000E+01 0.  1.
<mgrwt>
<rscale>  1 0.12944005E+03</rscale>
<asrwt>0</asrwt>
<pdfrwt beam="2">  1       21 0.13517681E-01 0.12944005E+03</pdfrwt>
<pdfrwt beam="1">  1        4 0.13399475E-01 0.12944005E+03</pdfrwt>
<totfact> 0.87197670E+04</totfact>
</mgrwt>
</event>
<event>
 6    4  0.6277709E-003  0.1271643E+03  0.7818608E-02  0.1231725E+00
         21   -1    0    0  501  502  0.00000000000E+00  0.00000000000E+00  0.60716687990E+02  0.60716687990E+02  0.00000000000E+00 0. -1.
          4   -1    0    0  502    0 -0.00000000000E+00 -0.00000000000E+00 -0.93938008171E+02  0.93946592696E+02  0.12700000000E+01 0. -1.
         25    2    1    2    0    0 -0.13631374748E+02  0.19062099425E+02 -0.32172293967E+02  0.13117091239E+03  0.12498629424E+03 0.  0.
    9000005    1    3    3    0    0 -0.52964127331E+02  0.32390726728E+02 -0.55713344083E+02  0.83422626852E+02  0.10000000000E+01 0.  0.
    9000005    1    3    3    0    0  0.39332752583E+02 -0.13328627303E+02  0.23541050116E+02  0.47748285541E+02  0.10000000000E+01 0.  0.
          4    1    1    2  501    0  0.13631374748E+02 -0.19062099425E+02 -0.10490262144E+01  0.23492368293E+02  0.12700000000E+01 0.  1.
<mgrwt>
<rscale>  1 0.12716427E+03</rscale>
<asrwt>0</asrwt>
<pdfrwt beam="1">  1       21 0.93410289E-02 0.12716427E+03</pdfrwt>
<pdfrwt beam="2">  1        4 0.14453683E-01 0.12716427E+03</pdfrwt>
<totfact> 0.14638250E+05</totfact>
</mgrwt>
</event>
<event>
 6    4  0.6277709E-003  0.1382441E+03  0.7818608E-02  0.1215711E+00
         21   -1    0    0  501  502  0.00000000000E+00  0.00000000000E+00  0.26696055287E+03  0.26696055287E+03  0.00000000000E+00 0. -1.
          4   -1    0    0  502    0 -0.00000000000E+00 -0.00000000000E+00 -0.55809640587E+02  0.55824088729E+02  0.12700000000E+01 0.  1.
         25    2    1    2    0    0  0.59035707591E+02  0.10547927324E+01  0.43330656160E+02  0.14487573619E+03  0.12500042326E+03 0.  0.
    9000005    1    3    3    0    0 -0.26816534758E+01 -0.54458506684E+02  0.10131137087E+02  0.55466748186E+02  0.10000000000E+01 0.  0.
    9000005    1    3    3    0    0  0.61717361067E+02  0.55513299417E+02  0.33199519073E+02  0.89408988004E+02  0.10000000000E+01 0.  0.
          4    1    1    2  501    0 -0.59035707591E+02 -0.10547927324E+01  0.16782025613E+03  0.17790890541E+03  0.12700000000E+01 0. -1.
<mgrwt>
<rscale>  1 0.13824411E+03</rscale>
<asrwt>0</asrwt>
<pdfrwt beam="1">  1       21 0.41070853E-01 0.13824411E+03</pdfrwt>
<pdfrwt beam="2">  1        4 0.85874425E-02 0.13824411E+03</pdfrwt>
<totfact> 0.22945592E+04</totfact>
</mgrwt>
</event>
<event>
 6    4  0.6277709E-003  0.1347999E+03  0.7818608E-02  0.1220502E+00
         -4   -1    0    0    0  501 -0.00000000000E+00  0.00000000000E+00  0.76416252890E+02  0.76426805545E+02  0.12700000000E+01 0. -1.
         21   -1    0    0  501  502  0.00000000000E+00 -0.00000000000E+00 -0.11445003098E+03  0.11445003098E+03  0.00000000000E+00 0.  1.
         25    2    1    2    0    0 -0.20080685999E+02 -0.46280980035E+02 -0.15772934646E+02  0.13571959662E+03  0.12500344146E+03 0.  0.
    9000005    1    3    3    0    0 -0.28901465131E+01  0.26076514180E+02 -0.47959443827E+02  0.54675824556E+02  0.10000000000E+01 0.  0.
    9000005    1    3    3    0    0 -0.17190539486E+02 -0.72357494215E+02  0.32186509181E+02  0.81043772063E+02  0.10000000000E+01 0.  0.
         -4    1    1    2    0  502  0.20080685999E+02  0.46280980035E+02 -0.22260843444E+02  0.55157239906E+02  0.12700000000E+01 0.  1.
<mgrwt>
<rscale>  1 0.13479994E+03</rscale>
<asrwt>0</asrwt>
<pdfrwt beam="2">  1       21 0.17607697E-01 0.13479994E+03</pdfrwt>
<pdfrwt beam="1">  1       -4 0.11757700E-01 0.13479994E+03</pdfrwt>
<totfact> 0.68021862E+04</totfact>
</mgrwt>
</event>
<event>
 6    4  0.6277709E-003  0.1272231E+03  0.7818608E-02  0.1231635E+00
         21   -1    0    0  501  502  0.00000000000E+00  0.00000000000E+00  0.41645552587E+03  0.41645552587E+03  0.00000000000E+00 0.  1.
          4   -1    0    0  502    0 -0.00000000000E+00 -0.00000000000E+00 -0.14550553866E+02  0.14605872716E+02  0.12700000000E+01 0.  1.
         25    2    1    2    0    0 -0.13933490911E+02  0.19131324668E+02  0.29008400407E+03  0.31675614271E+03  0.12500229906E+03 0.  0.
    9000005    1    3    3    0    0  0.32126833345E+02 -0.67262963819E+01  0.14060671227E+02  0.35722247398E+02  0.10000000000E+01 0.  0.
    9000005    1    3    3    0    0 -0.46060324257E+02  0.25857621050E+02  0.27602333285E+03  0.28103389531E+03  0.10000000000E+01 0.  0.
          4    1    1    2  501    0  0.13933490911E+02 -0.19131324668E+02  0.11182096793E+03  0.11430525587E+03  0.12700000000E+01 0. -1.
<mgrwt>
<rscale>  1 0.12722313E+03</rscale>
<asrwt>0</asrwt>
<pdfrwt beam="1">  1       21 0.64070072E-01 0.12722313E+03</pdfrwt>
<pdfrwt beam="2">  1        4 0.22429513E-02 0.12722313E+03</pdfrwt>
<totfact> 0.77342305E+04</totfact>
</mgrwt>
</event>
<event>
 6    4  0.6277709E-003  0.1693409E+03  0.7818608E-02  0.1178537E+00
          4   -1    0    0  502    0 -0.00000000000E+00  0.00000000000E+00  0.13675619380E+03  0.13676209067E+03  0.12700000000E+01 0.  1.
         21   -1    0    0  501  502  0.00000000000E+00 -0.00000000000E+00 -0.49320567128E+03  0.49320567128E+03  0.00000000000E+00 0. -1.
         25    2    1    2    0    0  0.21578220603E+02  0.11218967891E+03  0.73860893334E+02  0.18474784799E+03  0.12499676842E+03 0.  0.
    9000005    1    3    3    0    0 -0.39834622366E+02  0.83229515619E+02  0.12302978549E+02  0.93093032448E+02  0.10000000000E+01 0.  0.
    9000005    1    3    3    0    0  0.61412842969E+02  0.28960163290E+02  0.61557914785E+02  0.91654815542E+02  0.10000000000E+01 0.  0.
          4    1    1    2  501    0 -0.21578220603E+02 -0.11218967891E+03 -0.43031037081E+03  0.44521991396E+03  0.12700000000E+01 0. -1.
<mgrwt>
<rscale>  1 0.16934089E+03</rscale>
<asrwt>0</asrwt>
<pdfrwt beam="2">  1       21 0.75877793E-01 0.16934089E+03</pdfrwt>
<pdfrwt beam="1">  1        4 0.21039995E-01 0.16934089E+03</pdfrwt>
<totfact> 0.13390397E+03</totfact>
</mgrwt>
</event>
<event>
 6    4  0.6277709E-003  0.1276446E+03  0.7818608E-02  0.1230993E+00
         21   -1    0    0  501  502  0.00000000000E+00  0.00000000000E+00  0.79926348270E+03  0.79926348270E+03  0.00000000000E+00 0. -1.
          4   -1    0    0  502    0 -0.00000000000E+00 -0.00000000000E+00 -0.98268039247E+01  0.99085304347E+01  0.12700000000E+01 0. -1.
         25    2    1    2    0    0  0.23469454191E+02 -0.10589433590E+02  0.42324522886E+03  0.44207428462E+03  0.12502079024E+03 0.  0.
    9000005    1    3    3    0    0  0.73631362830E+02 -0.49715919193E+01  0.29875553890E+03  0.30773717088E+03  0.10000000000E+01 0.  0.
    9000005    1    3    3    0    0 -0.50161908639E+02 -0.56178416705E+01  0.12448968995E+03  0.13433711374E+03  0.10000000000E+01 0.  0.
          4    1    1    2  501    0 -0.23469454191E+02  0.10589433590E+02  0.36619144992E+03  0.36709772851E+03  0.12700000000E+01 0.  1.
<mgrwt>
<rscale>  1 0.12764462E+03</rscale>
<asrwt>0</asrwt>
<pdfrwt beam="1">  1       21 0.12296356E+00 0.12764462E+03</pdfrwt>
<pdfrwt beam="2">  1        4 0.15181809E-02 0.12764462E+03</pdfrwt>
<totfact> 0.31710418E+04</totfact>
</mgrwt>
</event>
<event>
 6    4  0.6277709E-003  0.1437367E+03  0.7818608E-02  0.1208388E+00
          4   -1    0    0  502    0 -0.00000000000E+00  0.00000000000E+00  0.14792246918E+03  0.14792792092E+03  0.12700000000E+01 0. -1.
         21   -1    0    0  501  502  0.00000000000E+00 -0.00000000000E+00 -0.16584158399E+03  0.16584158399E+03  0.00000000000E+00 0.  1.
         25    2    1    2    0    0 -0.57790268809E+02 -0.41176664034E+02  0.10072713581E+03  0.17551691537E+03  0.12499999545E+03 0.  0.
    9000005    1    3    3    0    0 -0.36289489412E+02  0.42627956702E+02  0.28604740477E+02  0.62875280613E+02  0.10000000000E+01 0.  0.
    9000005    1    3    3    0    0 -0.21500779397E+02 -0.83804620737E+02  0.72122395331E+02  0.11264163475E+03  0.10000000000E+01 0.  0.
          4    1    1    2  501    0  0.57790268809E+02  0.41176664034E+02 -0.11864625062E+03  0.13825258955E+03  0.12700000000E+01 0.  1.
<mgrwt>
<rscale>  1 0.14373667E+03</rscale>
<asrwt>0</asrwt>
<pdfrwt beam="2">  1       21 0.25514090E-01 0.14373667E+03</pdfrwt>
<pdfrwt beam="1">  1        4 0.22758096E-01 0.14373667E+03</pdfrwt>
<totfact> 0.10701210E+04</totfact>
</mgrwt>
</event>
<event>
 6    4  0.6277709E-003  0.1400381E+03  0.7818608E-02  0.1213278E+00
         -4   -1    0    0    0  501 -0.00000000000E+00  0.00000000000E+00  0.25047809050E+04  0.25047812269E+04  0.12700000000E+01 0.  1.
         21   -1    0    0  501  502  0.00000000000E+00 -0.00000000000E+00 -0.57394332256E+01  0.57394332256E+01  0.00000000000E+00 0. -1.
         25    2    1    2    0    0 -0.55385430598E+02  0.30292209504E+02  0.22205383413E+04  0.22249497050E+04  0.12500200234E+03 0.  0.
    9000005    1    3    3    0    0  0.10820672706E+02 -0.20506828332E+02  0.95728967270E+02  0.98502041302E+02  0.10000000000E+01 0.  0.
    9000005    1    3    3    0    0 -0.66206103305E+02  0.50799037836E+02  0.21248093741E+04  0.21264476637E+04  0.10000000000E+01 0.  0.
         -4    1    1    2    0  502  0.55385430598E+02 -0.30292209504E+02  0.27850313039E+03  0.28557095513E+03  0.12700000000E+01 0. -1.
<mgrwt>
<rscale>  1 0.14003808E+03</rscale>
<asrwt>0</asrwt>
<pdfrwt beam="2">  1       21 0.88299173E-03 0.14003808E+03</pdfrwt>
<pdfrwt beam="1">  1       -4 0.38536087E+00 0.14003808E+03</pdfrwt>
<totfact> 0.21435754E+03</totfact>
</mgrwt>
</event>
<event>
 6    4  0.6277709E-003  0.1901702E+03  0.7818608E-02  0.1158308E+00
         -4   -1    0    0    0  501 -0.00000000000E+00  0.00000000000E+00  0.38377429957E+03  0.38377640093E+03  0.12700000000E+01 0.  1.
         21   -1    0    0  501  502  0.00000000000E+00 -0.00000000000E+00 -0.91758865101E+02  0.91758865101E+02  0.00000000000E+00 0. -1.
         25    2    1    2    0    0 -0.75137899798E+02 -0.12204240538E+03  0.27042131144E+03  0.33059399604E+03  0.12499860735E+03 0.  0.
    9000005    1    3    3    0    0 -0.47499454335E+02 -0.11714616324E+03  0.10951313476E+03  0.16725294739E+03  0.10000000000E+01 0.  0.
    9000005    1    3    3    0    0 -0.27638445462E+02 -0.48962421448E+01  0.16090817667E+03  0.16334104865E+03  0.10000000000E+01 0.  0.
         -4    1    1    2    0  502  0.75137899798E+02  0.12204240538E+03  0.21594123031E+02  0.14494126999E+03  0.12700000000E+01 0. -1.
<mgrwt>
<rscale>  1 0.19017020E+03</rscale>
<asrwt>0</asrwt>
<pdfrwt beam="2">  1       21 0.14116749E-01 0.19017020E+03</pdfrwt>
<pdfrwt beam="1">  1       -4 0.59043037E-01 0.19017020E+03</pdfrwt>
<totfact> 0.50517234E+03</totfact>
</mgrwt>
</event>
<event>
 6    4  0.6277709E-003  0.1592163E+03  0.7818608E-02  0.1189584E+00
         -4   -1    0    0    0  501 -0.00000000000E+00  0.00000000000E+00  0.12136761675E+03  0.12137426126E+03  0.12700000000E+01 0.  1.
         21   -1    0    0  501  502  0.00000000000E+00 -0.00000000000E+00 -0.14393325070E+03  0.14393325070E+03  0.00000000000E+00 0. -1.
         25    2    1    2    0    0  0.80050197149E+02  0.57598768976E+02  0.14658801620E+02  0.15988965885E+03  0.12499668112E+03 0.  0.
    9000005    1    3    3    0    0  0.10733903870E+03  0.27672747143E+02  0.32650819949E+02  0.11556178523E+03  0.10000000000E+01 0.  0.
    9000005    1    3    3    0    0 -0.27288841547E+02  0.29926021833E+02 -0.17992018329E+02  0.44327873615E+02  0.10000000000E+01 0.  0.
         -4    1    1    2    0  502 -0.80050197149E+02 -0.57598768976E+02 -0.37224435563E+02  0.10541785311E+03  0.12700000000E+01 0. -1.
<mgrwt>
<rscale>  1 0.15921628E+03</rscale>
<asrwt>0</asrwt>
<pdfrwt beam="2">  1       21 0.22143577E-01 0.15921628E+03</pdfrwt>
<pdfrwt beam="1">  1       -4 0.18672883E-01 0.15921628E+03</pdfrwt>
<totfact> 0.20176735E+04</totfact>
</mgrwt>
</event>
<event>
 6    4  0.6277709E-003  0.1378375E+03  0.7818608E-02  0.1216269E+00
         -4   -1    0    0    0  501 -0.00000000000E+00  0.00000000000E+00  0.22318641848E+02  0.22354746116E+02  0.12700000000E+01 0. -1.
         21   -1    0    0  501  502  0.00000000000E+00 -0.00000000000E+00 -0.44028131658E+03  0.44028131658E+03  0.00000000000E+00 0.  1.
         25    2    1    2    0    0  0.34495213848E+02  0.46731572678E+02 -0.32486935583E+03  0.35290120685E+03  0.12500161509E+03 0.  0.
    9000005    1    3    3    0    0  0.17259068393E+02  0.73458024617E+02 -0.97384025583E+02  0.12320148238E+03  0.10000000000E+01 0.  0.
    9000005    1    3    3    0    0  0.17236145455E+02 -0.26726451939E+02 -0.22748533024E+03  0.22969972447E+03  0.10000000000E+01 0.  0.
         -4    1    1    2    0  502 -0.34495213848E+02 -0.46731572678E+02 -0.93093318908E+02  0.10973485585E+03  0.12700000000E+01 0.  1.
<mgrwt>
<rscale>  1 0.13783745E+03</rscale>
<asrwt>0</asrwt>
<pdfrwt beam="2">  1       21 0.67735582E-01 0.13783745E+03</pdfrwt>
<pdfrwt beam="1">  1       -4 0.34365556E-02 0.13783745E+03</pdfrwt>
<totfact> 0.35540580E+04</totfact>
</mgrwt>
</event>
<event>
 6    4  0.6277709E-003  0.1267168E+03  0.7818608E-02  0.1232410E+00
          4   -1    0    0  502    0 -0.00000000000E+00  0.00000000000E+00  0.67909614107E+01  0.69086942964E+01  0.12700000000E+01 0. -1.
         21   -1    0    0  501  502  0.00000000000E+00 -0.00000000000E+00 -0.12791227877E+04  0.12791227877E+04  0.00000000000E+00 0.  1.
         25    2    1    2    0    0 -0.17364151820E+02 -0.11375288835E+02 -0.59329590638E+03  0.60667715295E+03  0.12500489759E+03 0.  0.
    9000005    1    3    3    0    0 -0.20140357929E+00 -0.35635228773E+02 -0.56335009331E+03  0.56447695943E+03  0.10000000000E+01 0.  0.
    9000005    1    3    3    0    0 -0.17162748241E+02  0.24259939937E+02 -0.29945813067E+02  0.42200193521E+02  0.10000000000E+01 0.  0.
          4    1    1    2  501    0  0.17364151820E+02  0.11375288835E+02 -0.67903591987E+03  0.67935432901E+03  0.12700000000E+01 0.  1.
<mgrwt>
<rscale>  1 0.12671675E+03</rscale>
<asrwt>0</asrwt>
<pdfrwt beam="2">  1       21 0.19678815E+00 0.12671675E+03</pdfrwt>
<pdfrwt beam="1">  1        4 0.10538680E-02 0.12671675E+03</pdfrwt>
<totfact> 0.15962322E+04</totfact>
</mgrwt>
</event>
<event>
 6    4  0.6277709E-003  0.1269359E+03  0.7818608E-02  0.1232074E+00
         -4   -1    0    0    0  501 -0.00000000000E+00  0.00000000000E+00  0.56486383599E+03  0.56486526368E+03  0.12700000000E+01 0. -1.
         21   -1    0    0  501  502  0.00000000000E+00 -0.00000000000E+00 -0.12277226129E+02  0.12277226129E+02  0.00000000000E+00 0. -1.
         25    2    1    2    0    0  0.14342711465E+02 -0.16787873283E+02  0.53197668224E+03  0.54691124640E+03  0.12500069971E+03 0.  0.
    9000005    1    3    3    0    0 -0.11041561937E+02 -0.66079407841E+02  0.36104692159E+03  0.36721149740E+03  0.10000000000E+01 0.  0.
    9000005    1    3    3    0    0  0.25384273402E+02  0.49291534558E+02  0.17092976065E+03  0.17969974900E+03  0.10000000000E+01 0.  0.
         -4    1    1    2    0  502 -0.14342711465E+02  0.16787873283E+02  0.20609927622E+02  0.30231243410E+02  0.12700000000E+01 0.  1.
<mgrwt>
<rscale>  1 0.12693589E+03</rscale>
<asrwt>0</asrwt>
<pdfrwt beam="2">  1       21 0.18888045E-02 0.12693589E+03</pdfrwt>
<pdfrwt beam="1">  1       -4 0.86907271E-01 0.12693589E+03</pdfrwt>
<totfact> 0.63638285E+04</totfact>
</mgrwt>
</event>
<event>
 6    4  0.6277709E-003  0.1269738E+03  0.7818608E-02  0.1232016E+00
         21   -1    0    0  501  502  0.00000000000E+00  0.00000000000E+00  0.36056733785E+02  0.36056733785E+02  0.00000000000E+00 0. -1.
          4   -1    0    0  502    0 -0.00000000000E+00 -0.00000000000E+00 -0.16301715826E+03  0.16302210521E+03  0.12700000000E+01 0. -1.
         25    2    1    2    0    0 -0.18736682323E+02 -0.12104291851E+02 -0.12222046050E+03  0.17623902060E+03  0.12499909708E+03 0.  0.
    9000005    1    3    3    0    0 -0.31243515071E+02 -0.44696387600E+02 -0.12954188765E+03  0.14055612742E+03  0.10000000000E+01 0.  0.
    9000005    1    3    3    0    0  0.12506832748E+02  0.32592095749E+02  0.73214271466E+01  0.35682893186E+02  0.10000000000E+01 0.  0.
          4    1    1    2  501    0  0.18736682323E+02  0.12104291851E+02 -0.47399639708E+01  0.22839818391E+02  0.12700000000E+01 0.  1.
<mgrwt>
<rscale>  1 0.12697382E+03</rscale>
<asrwt>0</asrwt>
<pdfrwt beam="1">  1       21 0.55471898E-02 0.12697382E+03</pdfrwt>
<pdfrwt beam="2">  1        4 0.25081664E-01 0.12697382E+03</pdfrwt>
<totfact> 0.13338172E+05</totfact>
</mgrwt>
</event>
<event>
 6    4  0.6277709E-003  0.1511963E+03  0.7818608E-02  0.1199011E+00
          4   -1    0    0  502    0 -0.00000000000E+00  0.00000000000E+00  0.19899622376E+03  0.19900027631E+03  0.12700000000E+01 0. -1.
         21   -1    0    0  501  502  0.00000000000E+00 -0.00000000000E+00 -0.75039813707E+02  0.75039813707E+02  0.00000000000E+00 0.  1.
         25    2    1    2    0    0 -0.78809110987E+02 -0.32005913818E+02  0.11194260123E+03  0.18812618546E+03  0.12500024477E+03 0.  0.
    9000005    1    3    3    0    0 -0.10306998153E+02  0.33798753703E+02 -0.68660219756E+01  0.36010168294E+02  0.10000000000E+01 0.  0.
    9000005    1    3    3    0    0 -0.68502112834E+02 -0.65804667520E+02  0.11880862321E+03  0.15211601717E+03  0.10000000000E+01 0.  0.
          4    1    1    2  501    0  0.78809110987E+02  0.32005913818E+02  0.12013808823E+02  0.85913904557E+02  0.12700000000E+01 0.  1.
<mgrwt>
<rscale>  1 0.15119628E+03</rscale>
<asrwt>0</asrwt>
<pdfrwt beam="2">  1       21 0.11544587E-01 0.15119628E+03</pdfrwt>
<pdfrwt beam="1">  1        4 0.30615942E-01 0.15119628E+03</pdfrwt>
<totfact> 0.26450176E+04</totfact>
</mgrwt>
</event>
<event>
 6    4  0.6277709E-003  0.1504047E+03  0.7818608E-02  0.1199977E+00
          4   -1    0    0  502    0 -0.00000000000E+00  0.00000000000E+00  0.31688170131E+03  0.31688424625E+03  0.12700000000E+01 0.  1.
         21   -1    0    0  501  502  0.00000000000E+00 -0.00000000000E+00 -0.53357388583E+02  0.53357388583E+02  0.00000000000E+00 0. -1.
         25    2    1    2    0    0 -0.21349769263E+02 -0.80876351768E+02  0.24018418283E+03  0.28339020142E+03  0.12499907062E+03 0.  0.
    9000005    1    3    3    0    0 -0.65473169874E+02 -0.27533929061E+02  0.17256778207E+03  0.18661589598E+03  0.10000000000E+01 0.  0.
    9000005    1    3    3    0    0  0.44123400611E+02 -0.53342422707E+02  0.67616400761E+02  0.96774305441E+02  0.10000000000E+01 0.  0.
          4    1    1    2  501    0  0.21349769263E+02  0.80876351768E+02  0.23340129892E+02  0.86851433416E+02  0.12700000000E+01 0. -1.
<mgrwt>
<rscale>  1 0.15040467E+03</rscale>
<asrwt>0</asrwt>
<pdfrwt beam="2">  1       21 0.82088292E-02 0.15040467E+03</pdfrwt>
<pdfrwt beam="1">  1        4 0.48752388E-01 0.15040467E+03</pdfrwt>
<totfact> 0.19281449E+04</totfact>
</mgrwt>
</event>
<event>
 6    4  0.6277709E-003  0.1379879E+03  0.7818608E-02  0.1216062E+00
         -4   -1    0    0    0  501 -0.00000000000E+00  0.00000000000E+00  0.75417211256E+02  0.75427903680E+02  0.12700000000E+01 0.  1.
         21   -1    0    0  501  502  0.00000000000E+00 -0.00000000000E+00 -0.18314913486E+03  0.18314913486E+03  0.00000000000E+00 0. -1.
         25    2    1    2    0    0  0.56271183921E+02  0.15808043475E+02 -0.22842093445E+01  0.13800683608E+03  0.12499731523E+03 0.  0.
    9000005    1    3    3    0    0  0.31295264892E+02 -0.20886073022E+02  0.54308754621E+02  0.66076186931E+02  0.10000000000E+01 0.  0.
    9000005    1    3    3    0    0  0.24975919029E+02  0.36694116497E+02 -0.56592963965E+02  0.71930649151E+02  0.10000000000E+01 0.  0.
         -4    1    1    2    0  502 -0.56271183921E+02 -0.15808043475E+02 -0.10544771426E+03  0.12057020246E+03  0.12700000000E+01 0. -1.
<mgrwt>
<rscale>  1 0.13798793E+03</rscale>
<asrwt>0</asrwt>
<pdfrwt beam="2">  1       21 0.28176790E-01 0.13798793E+03</pdfrwt>
<pdfrwt beam="1">  1       -4 0.11603809E-01 0.13798793E+03</pdfrwt>
<totfact> 0.28930548E+04</totfact>
</mgrwt>
</event>
<event>
 6    4  0.6277709E-003  0.1302142E+03  0.7818608E-02  0.1227138E+00
          4   -1    0    0  502    0 -0.00000000000E+00  0.00000000000E+00  0.69310153850E+01  0.70464086077E+01  0.12700000000E+01 0.  1.
         21   -1    0    0  501  502  0.00000000000E+00 -0.00000000000E+00 -0.10657210261E+04  0.10657210261E+04  0.00000000000E+00 0. -1.
         25    2    1    2    0    0  0.31507338060E+02  0.18359494917E+02 -0.69020423953E+03  0.70237997943E+03  0.12500383929E+03 0.  0.
    9000005    1    3    3    0    0  0.67991307971E+02  0.20843996634E+01 -0.59840615635E+03  0.60226081612E+03  0.10000000000E+01 0.  0.
    9000005    1    3    3    0    0 -0.36483969911E+02  0.16275095253E+02 -0.91798083183E+02  0.10011916331E+03  0.10000000000E+01 0.  0.
          4    1    1    2  501    0 -0.31507338060E+02 -0.18359494917E+02 -0.36858577115E+03  0.37038745525E+03  0.12700000000E+01 0. -1.
<mgrwt>
<rscale>  1 0.13021422E+03</rscale>
<asrwt>0</asrwt>
<pdfrwt beam="2">  1       21 0.16395698E+00 0.13021422E+03</pdfrwt>
<pdfrwt beam="1">  1        4 0.10752453E-02 0.13021422E+03</pdfrwt>
<totfact> 0.25686751E+04</totfact>
</mgrwt>
</event>
<event>
 6    4  0.6277709E-003  0.1278404E+03  0.7818608E-02  0.1230696E+00
         -4   -1    0    0    0  501 -0.00000000000E+00  0.00000000000E+00  0.17150539203E+03  0.17151009415E+03  0.12700000000E+01 0.  1.
         21   -1    0    0  501  502  0.00000000000E+00 -0.00000000000E+00 -0.38560099343E+02  0.38560099343E+02  0.00000000000E+00 0. -1.
         25    2    1    2    0    0 -0.10907911637E+02  0.24472014633E+02  0.13120893103E+03  0.18319102147E+03  0.12500121892E+03 0.  0.
    9000005    1    3    3    0    0 -0.40529675935E+02  0.19440625897E+02 -0.35665805427E+01  0.45103359780E+02  0.10000000000E+01 0.  0.
    9000005    1    3    3    0    0  0.29621764299E+02  0.50313887366E+01  0.13477551157E+03  0.13808766169E+03  0.10000000000E+01 0.  0.
         -4    1    1    2    0  502  0.10907911637E+02 -0.24472014633E+02  0.17363616556E+01  0.26879172016E+02  0.12700000000E+01 0. -1.
<mgrwt>
<rscale>  1 0.12784040E+03</rscale>
<asrwt>0</asrwt>
<pdfrwt beam="2">  1       21 0.59323231E-02 0.12784040E+03</pdfrwt>
<pdfrwt beam="1">  1       -4 0.26387415E-01 0.12784040E+03</pdfrwt>
<totfact> 0.10851069E+05</totfact>
</mgrwt>
</event>
<event>
 6    4  0.6277709E-003  0.1329022E+03  0.7818608E-02  0.1223212E+00
         21   -1    0    0  501  502  0.00000000000E+00  0.00000000000E+00  0.13392939231E+03  0.13392939231E+03  0.00000000000E+00 0. -1.
          4   -1    0    0  502    0 -0.00000000000E+00 -0.00000000000E+00 -0.71208768078E+02  0.71220092328E+02  0.12700000000E+01 0.  1.
         25    2    1    2    0    0  0.23715675452E+01  0.45077254039E+02  0.65304858781E+01  0.13306253913E+03  0.12500163563E+03 0.  0.
    9000005    1    3    3    0    0 -0.12979898118E+02  0.84409932890E+02  0.21811205592E+02  0.88148983063E+02  0.10000000000E+01 0.  0.
    9000005    1    3    3    0    0  0.15351465663E+02 -0.39332678852E+02 -0.15280719714E+02  0.44913556067E+02  0.10000000000E+01 0.  0.
          4    1    1    2  501    0 -0.23715675452E+01 -0.45077254039E+02  0.56190138355E+02  0.72086945508E+02  0.12700000000E+01 0. -1.
<mgrwt>
<rscale>  1 0.13290219E+03</rscale>
<asrwt>0</asrwt>
<pdfrwt beam="1">  1       21 0.20604522E-01 0.13290219E+03</pdfrwt>
<pdfrwt beam="2">  1        4 0.10956529E-01 0.13290219E+03</pdfrwt>
<totfact> 0.57322745E+04</totfact>
</mgrwt>
</event>
<event>
 6    4  0.6277709E-003  0.1294968E+03  0.7818608E-02  0.1228204E+00
         21   -1    0    0  501  502  0.00000000000E+00  0.00000000000E+00  0.21614327608E+02  0.21614327608E+02  0.00000000000E+00 0. -1.
          4   -1    0    0  502    0 -0.00000000000E+00 -0.00000000000E+00 -0.59257900710E+03  0.59258036801E+03  0.12700000000E+01 0.  1.
         25    2    1    2    0    0  0.32278596716E+02  0.10080759217E+02 -0.56522730391E+03  0.57987181854E+03  0.12500356531E+03 0.  0.
    9000005    1    3    3    0    0  0.51722894312E+02 -0.15344932904E+02 -0.10073724979E+03  0.11427912433E+03  0.10000000000E+01 0.  0.
    9000005    1    3    3    0    0 -0.19444297596E+02  0.25425692121E+02 -0.46449005412E+03  0.46559269421E+03  0.10000000000E+01 0.  0.
          4    1    1    2  501    0 -0.32278596716E+02 -0.10080759217E+02 -0.57373755795E+01  0.34322877078E+02  0.12700000000E+01 0. -1.
<mgrwt>
<rscale>  1 0.12949680E+03</rscale>
<asrwt>0</asrwt>
<pdfrwt beam="1">  1       21 0.33252812E-02 0.12949680E+03</pdfrwt>
<pdfrwt beam="2">  1        4 0.91168975E-01 0.12949680E+03</pdfrwt>
<totfact> 0.22811055E+04</totfact>
</mgrwt>
</event>
<event>
 6    4  0.6277709E-003  0.1363008E+03  0.7818608E-02  0.1218395E+00
         -4   -1    0    0    0  501 -0.00000000000E+00  0.00000000000E+00  0.70496105242E+02  0.70507543953E+02  0.12700000000E+01 0. -1.
         21   -1    0    0  501  502  0.00000000000E+00 -0.00000000000E+00 -0.18817781830E+03  0.18817781830E+03  0.00000000000E+00 0.  1.
         25    2    1    2    0    0  0.54338309244E+02 -0.28908247133E+00 -0.83120401700E+01  0.13655398353E+03  0.12500065995E+03 0.  0.
    9000005    1    3    3    0    0  0.91285039837E+02 -0.19683752083E+02 -0.13987077559E+02  0.94430116662E+02  0.10000000000E+01 0.  0.
    9000005    1    3    3    0    0 -0.36946730593E+02  0.19394669611E+02  0.56750373889E+01  0.42123866872E+02  0.10000000000E+01 0.  0.
         -4    1    1    2    0  502 -0.54338309244E+02  0.28908247133E+00 -0.10936967289E+03  0.12213137872E+03  0.12700000000E+01 0.  1.
<mgrwt>
<rscale>  1 0.13630077E+03</rscale>
<asrwt>0</asrwt>
<pdfrwt beam="2">  1       21 0.28950433E-01 0.13630077E+03</pdfrwt>
<pdfrwt beam="1">  1       -4 0.10846764E-01 0.13630077E+03</pdfrwt>
<totfact> 0.30765582E+04</totfact>
</mgrwt>
</event>
<event>
 6    4  0.6277709E-003  0.1282836E+03  0.7818608E-02  0.1230025E+00
         21   -1    0    0  501  502  0.00000000000E+00  0.00000000000E+00  0.47761310363E+02  0.47761310363E+02  0.00000000000E+00 0.  1.
         -4   -1    0    0    0  501 -0.00000000000E+00 -0.00000000000E+00 -0.13900055741E+03  0.13900635906E+03  0.12700000000E+01 0.  1.
         25    2    1    2    0    0 -0.34763074107E+01 -0.28767579137E+02 -0.91818658096E+02  0.15775720683E+03  0.12496804396E+03 0.  0.
    9000005    1    3    3    0    0 -0.15868306545E+02  0.43708294602E+02 -0.64047051942E+02  0.79153288195E+02  0.10000000000E+01 0.  0.
    9000005    1    3    3    0    0  0.12391999135E+02 -0.72475873739E+02 -0.27771606154E+02  0.78603918637E+02  0.10000000000E+01 0.  0.
         -4    1    1    2    0  502  0.34763074107E+01  0.28767579137E+02  0.57941105285E+00  0.29010462591E+02  0.12700000000E+01 0. -1.
<mgrwt>
<rscale>  1 0.12828355E+03</rscale>
<asrwt>0</asrwt>
<pdfrwt beam="1">  1       21 0.73478938E-02 0.12828355E+03</pdfrwt>
<pdfrwt beam="2">  1       -4 0.21386447E-01 0.12828355E+03</pdfrwt>
<totfact> 0.11079563E+05</totfact>
</mgrwt>
</event>
<event>
 6    4  0.6277709E-003  0.1477482E+03  0.7818608E-02  0.1203268E+00
         21   -1    0    0  501  502  0.00000000000E+00  0.00000000000E+00  0.10212553377E+02  0.10212553377E+02  0.00000000000E+00 0.  1.
          4   -1    0    0  502    0 -0.00000000000E+00 -0.00000000000E+00 -0.15421542323E+04  0.15421547552E+04  0.12700000000E+01 0. -1.
         25    2    1    2    0    0  0.15745775180E+02  0.77179784306E+02 -0.12773263711E+04  0.12858429824E+04  0.12499947501E+03 0.  0.
    9000005    1    3    3    0    0  0.70827038909E+02  0.42794944677E+02 -0.73221852579E+03  0.73688048301E+03  0.10000000000E+01 0.  0.
    9000005    1    3    3    0    0 -0.55081263729E+02  0.34384839629E+02 -0.54510784528E+03  0.54896249944E+03  0.10000000000E+01 0.  0.
          4    1    1    2  501    0 -0.15745775180E+02 -0.77179784306E+02 -0.25461530785E+03  0.26652432615E+03  0.12700000000E+01 0.  1.
<mgrwt>
<rscale>  1 0.14774815E+03</rscale>
<asrwt>0</asrwt>
<pdfrwt beam="1">  1       21 0.15711616E-02 0.14774815E+03</pdfrwt>
<pdfrwt beam="2">  1        4 0.23726068E+00 0.14774815E+03</pdfrwt>
<totfact> 0.65218888E+03</totfact>
</mgrwt>
</event>
<event>
 6    4  0.6277709E-003  0.1300946E+03  0.7818608E-02  0.1227315E+00
         -4   -1    0    0    0  501 -0.00000000000E+00  0.00000000000E+00  0.39295645411E+03  0.39295850637E+03  0.12700000000E+01 0. -1.
         21   -1    0    0  501  502  0.00000000000E+00 -0.00000000000E+00 -0.26577856246E+02  0.26577856246E+02  0.00000000000E+00 0.  1.
         25    2    1    2    0    0  0.30480754661E+02  0.19226819155E+02  0.36017012150E+03  0.38294531100E+03  0.12500339121E+03 0.  0.
    9000005    1    3    3    0    0  0.53004530590E+02  0.38961324420E+02  0.91984938558E+02  0.11309152924E+03  0.10000000000E+01 0.  0.
    9000005    1    3    3    0    0 -0.22523775929E+02 -0.19734505265E+02  0.26818518295E+03  0.26985378176E+03  0.10000000000E+01 0.  0.
         -4    1    1    2    0  502 -0.30480754661E+02 -0.19226819155E+02  0.62084763614E+01  0.36591051614E+02  0.12700000000E+01 0.  1.
<mgrwt>
<rscale>  1 0.13009456E+03</rscale>
<asrwt>0</asrwt>
<pdfrwt beam="2">  1       21 0.40889012E-02 0.13009456E+03</pdfrwt>
<pdfrwt beam="1">  1       -4 0.60457327E-01 0.13009456E+03</pdfrwt>
<totfact> 0.39683626E+04</totfact>
</mgrwt>
</event>
<event>
 6    4  0.6277709E-003  0.1380211E+03  0.7818608E-02  0.1216017E+00
         -4   -1    0    0    0  501 -0.00000000000E+00  0.00000000000E+00  0.19082442899E+04  0.19082447125E+04  0.12700000000E+01 0.  1.
         21   -1    0    0  501  502  0.00000000000E+00 -0.00000000000E+00 -0.72457691725E+01  0.72457691725E+01  0.00000000000E+00 0. -1.
         25    2    1    2    0    0  0.56368158339E+02  0.15736607744E+02  0.17138994951E+04  0.17194479649E+04  0.12499925840E+03 0.  0.
    9000005    1    3    3    0    0 -0.11669270147E+02 -0.18897014262E+02  0.11704558770E+04  0.11706670018E+04  0.10000000000E+01 0.  0.
    9000005    1    3    3    0    0  0.68037428486E+02  0.34633622006E+02  0.54344361803E+03  0.54878096307E+03  0.10000000000E+01 0.  0.
         -4    1    1    2    0  502 -0.56368158339E+02 -0.15736607744E+02  0.18709902570E+03  0.19604251686E+03  0.12700000000E+01 0. -1.
<mgrwt>
<rscale>  1 0.13802110E+03</rscale>
<asrwt>0</asrwt>
<pdfrwt beam="2">  1       21 0.11147352E-02 0.13802110E+03</pdfrwt>
<pdfrwt beam="1">  1       -4 0.29358424E+00 0.13802110E+03</pdfrwt>
<totfact> 0.53151357E+03</totfact>
</mgrwt>
</event>
<event>
 6    4  0.6277709E-003  0.1281369E+03  0.7818608E-02  0.1230247E+00
         21   -1    0    0  501  502  0.00000000000E+00  0.00000000000E+00  0.97942226835E+01  0.97942226835E+01  0.00000000000E+00 0. -1.
          4   -1    0    0  502    0 -0.00000000000E+00 -0.00000000000E+00 -0.91260421122E+03  0.91260509490E+03  0.12700000000E+01 0.  1.
         25    2    1    2    0    0  0.62496153441E+01  0.27478154976E+02 -0.86886780497E+03  0.87826552760E+03  0.12499987108E+03 0.  0.
    9000005    1    3    3    0    0  0.57610415762E+02 -0.15901165281E+02 -0.46739024102E+03  0.47119682137E+03  0.10000000000E+01 0.  0.
    9000005    1    3    3    0    0 -0.51360800418E+02  0.43379320257E+02 -0.40147756394E+03  0.40706870623E+03  0.10000000000E+01 0.  0.
          4    1    1    2  501    0 -0.62496153441E+01 -0.27478154976E+02 -0.33942183574E+02  0.44133789986E+02  0.12700000000E+01 0. -1.
<mgrwt>
<rscale>  1 0.12813694E+03</rscale>
<asrwt>0</asrwt>
<pdfrwt beam="1">  1       21 0.15068034E-02 0.12813694E+03</pdfrwt>
<pdfrwt beam="2">  1        4 0.14040706E+00 0.12813694E+03</pdfrwt>
<totfact> 0.29512455E+04</totfact>
</mgrwt>
</event>
<event>
 6    4  0.6277709E-003  0.1974204E+03  0.7818608E-02  0.1151934E+00
         -4   -1    0    0    0  501 -0.00000000000E+00  0.00000000000E+00  0.15054093712E+03  0.15054629403E+03  0.12700000000E+01 0.  1.
         21   -1    0    0  501  502  0.00000000000E+00 -0.00000000000E+00 -0.38279821888E+03  0.38279821888E+03  0.00000000000E+00 0. -1.
         25    2    1    2    0    0  0.35718761818E+02 -0.14857291824E+03  0.57618376717E+02  0.20565677701E+03  0.12500036246E+03 0.  0.
    9000005    1    3    3    0    0  0.56409267141E+02 -0.13624257417E+03  0.47349505522E+01  0.14753800932E+03  0.10000000000E+01 0.  0.
    9000005    1    3    3    0    0 -0.20690505323E+02 -0.12330344067E+02  0.52883426165E+02  0.58118767694E+02  0.10000000000E+01 0.  0.
         -4    1    1    2    0  502 -0.35718761818E+02  0.14857291824E+03 -0.28987565848E+03  0.32768773590E+03  0.12700000000E+01 0. -1.
<mgrwt>
<rscale>  1 0.19742045E+03</rscale>
<asrwt>0</asrwt>
<pdfrwt beam="2">  1       21 0.58892033E-01 0.19742045E+03</pdfrwt>
<pdfrwt beam="1">  1       -4 0.23160719E-01 0.19742045E+03</pdfrwt>
<totfact> 0.19576221E+03</totfact>
</mgrwt>
</event>
<event>
 6    4  0.6277709E-003  0.1334559E+03  0.7818608E-02  0.1222416E+00
         21   -1    0    0  501  502  0.00000000000E+00  0.00000000000E+00  0.31802329067E+02  0.31802329067E+02  0.00000000000E+00 0. -1.
         -4   -1    0    0    0  501 -0.00000000000E+00 -0.00000000000E+00 -0.42768267485E+03  0.42768456047E+03  0.12700000000E+01 0.  1.
         25    2    1    2    0    0 -0.14169034345E+02 -0.44549470488E+02 -0.39018336706E+03  0.41237547562E+03  0.12500022442E+03 0.  0.
    9000005    1    3    3    0    0  0.15112647845E+02 -0.83098505844E+02 -0.26587529781E+03  0.27897029911E+03  0.10000000000E+01 0.  0.
    9000005    1    3    3    0    0 -0.29281682189E+02  0.38549035356E+02 -0.12430806925E+03  0.13340517651E+03  0.10000000000E+01 0.  0.
         -4    1    1    2    0  502  0.14169034345E+02  0.44549470488E+02 -0.56969787186E+01  0.47111413920E+02  0.12700000000E+01 0. -1.
<mgrwt>
<rscale>  1 0.13345588E+03</rscale>
<asrwt>0</asrwt>
<pdfrwt beam="1">  1       21 0.48926657E-02 0.13345588E+03</pdfrwt>
<pdfrwt beam="2">  1       -4 0.65799435E-01 0.13345588E+03</pdfrwt>
<totfact> 0.24652224E+04</totfact>
</mgrwt>
</event>
<event>
 6    4  0.6277709E-003  0.1493659E+03  0.7818608E-02  0.1201254E+00
          4   -1    0    0  502    0 -0.00000000000E+00  0.00000000000E+00  0.15794034575E+03  0.15794545171E+03  0.12700000000E+01 0.  1.
         21   -1    0    0  501  502  0.00000000000E+00 -0.00000000000E+00 -0.12024242604E+03  0.12024242604E+03  0.00000000000E+00 0. -1.
         25    2    1    2    0    0 -0.64563050828E+02 -0.50159650048E+02  0.96184479122E+02  0.17765594970E+03  0.12500321762E+03 0.  0.
    9000005    1    3    3    0    0 -0.65163144736E+02 -0.85136125321E+02  0.46457583346E+02  0.11684905783E+03  0.10000000000E+01 0.  0.
    9000005    1    3    3    0    0  0.60009390783E+00  0.34976475272E+02  0.49726895776E+02  0.60806891868E+02  0.10000000000E+01 0.  0.
          4    1    1    2  501    0  0.64563050828E+02  0.50159650048E+02 -0.58486559413E+02  0.10053192805E+03  0.12700000000E+01 0. -1.
<mgrwt>
<rscale>  1 0.14936593E+03</rscale>
<asrwt>0</asrwt>
<pdfrwt beam="2">  1       21 0.18498835E-01 0.14936593E+03</pdfrwt>
<pdfrwt beam="1">  1        4 0.24299423E-01 0.14936593E+03</pdfrwt>
<totfact> 0.17367470E+04</totfact>
</mgrwt>
</event>
<event>
 6    4  0.6277709E-003  0.1806839E+03  0.7818608E-02  0.1167143E+00
         -4   -1    0    0    0  501 -0.00000000000E+00  0.00000000000E+00  0.19430950197E+03  0.19431365227E+03  0.12700000000E+01 0.  1.
         21   -1    0    0  501  502  0.00000000000E+00 -0.00000000000E+00 -0.16861902602E+03  0.16861902602E+03  0.00000000000E+00 0. -1.
         25    2    1    2    0    0 -0.50360702015E+02  0.12035801591E+03  0.10623288590E+03  0.20959988662E+03  0.12499773647E+03 0.  0.
    9000005    1    3    3    0    0 -0.18529367291E+02  0.16749205903E+02 -0.27692705414E+02  0.37306290136E+02  0.10000000000E+01 0.  0.
    9000005    1    3    3    0    0 -0.31831334724E+02  0.10360881000E+03  0.13392559131E+03  0.17229359648E+03  0.10000000000E+01 0.  0.
         -4    1    1    2    0  502  0.50360702015E+02 -0.12035801591E+03 -0.80542409941E+02  0.15333279167E+03  0.12700000000E+01 0. -1.
<mgrwt>
<rscale>  1 0.18068394E+03</rscale>
<asrwt>0</asrwt>
<pdfrwt beam="2">  1       21 0.25941388E-01 0.18068394E+03</pdfrwt>
<pdfrwt beam="1">  1       -4 0.29894457E-01 0.18068394E+03</pdfrwt>
<totfact> 0.63308799E+03</totfact>
</mgrwt>
</event>
<event>
 6    4  0.6277709E-003  0.1315867E+03  0.7818608E-02  0.1225120E+00
         -4   -1    0    0    0  501 -0.00000000000E+00  0.00000000000E+00  0.20613040913E+02  0.20652127147E+02  0.12700000000E+01 0.  1.
         21   -1    0    0  501  502  0.00000000000E+00 -0.00000000000E+00 -0.95627401953E+03  0.95627401953E+03  0.00000000000E+00 0. -1.
         25    2    1    2    0    0 -0.30586524680E+02 -0.27471330084E+02 -0.19571411996E+03  0.23583696446E+03  0.12499939033E+03 0.  0.
    9000005    1    3    3    0    0 -0.54511954986E+02 -0.10100465142E+02 -0.19852241066E+03  0.20612064468E+03  0.10000000000E+01 0.  0.
    9000005    1    3    3    0    0  0.23925430306E+02 -0.17370864942E+02  0.28082906964E+01  0.29716319772E+02  0.10000000000E+01 0.  0.
         -4    1    1    2    0  502  0.30586524680E+02  0.27471330084E+02 -0.73994685866E+03  0.74108918222E+03  0.12700000000E+01 0. -1.
<mgrwt>
<rscale>  1 0.13158669E+03</rscale>
<asrwt>0</asrwt>
<pdfrwt beam="2">  1       21 0.14711900E+00 0.13158669E+03</pdfrwt>
<pdfrwt beam="1">  1       -4 0.31743102E-02 0.13158669E+03</pdfrwt>
<totfact> 0.64752090E+03</totfact>
</mgrwt>
</event>
<event>
 6    4  0.6277709E-003  0.1275887E+03  0.7818608E-02  0.1231078E+00
         21   -1    0    0  501  502  0.00000000000E+00  0.00000000000E+00  0.82634007982E+01  0.82634007982E+01  0.00000000000E+00 0.  1.
         -4   -1    0    0    0  501 -0.00000000000E+00 -0.00000000000E+00 -0.75615621234E+03  0.75615727885E+03  0.12700000000E+01 0.  1.
         25    2    1    2    0    0 -0.14741737241E+02  0.20911592683E+02 -0.67977869448E+03  0.69164871136E+03  0.12499701170E+03 0.  0.
    9000005    1    3    3    0    0 -0.42906649740E+02  0.32287033339E+02 -0.63651662486E+03  0.63877840198E+03  0.10000000000E+01 0.  0.
    9000005    1    3    3    0    0  0.28164912499E+02 -0.11375440656E+02 -0.43262069616E+02  0.52870309377E+02  0.10000000000E+01 0.  0.
         -4    1    1    2    0  502  0.14741737241E+02 -0.20911592683E+02 -0.68114117065E+02  0.72771968291E+02  0.12700000000E+01 0. -1.
<mgrwt>
<rscale>  1 0.12758866E+03</rscale>
<asrwt>0</asrwt>
<pdfrwt beam="1">  1       21 0.12712921E-02 0.12758866E+03</pdfrwt>
<pdfrwt beam="2">  1       -4 0.11633935E+00 0.12758866E+03</pdfrwt>
<totfact> 0.61127064E+04</totfact>
</mgrwt>
</event>
<event>
 6    4  0.6277709E-003  0.1379377E+03  0.7818608E-02  0.1216131E+00
          4   -1    0    0  502    0 -0.00000000000E+00  0.00000000000E+00  0.19844996169E+02  0.19885592094E+02  0.12700000000E+01 0.  1.
         21   -1    0    0  501  502  0.00000000000E+00 -0.00000000000E+00 -0.61967862926E+03  0.61967862926E+03  0.00000000000E+00 0.  1.
         25    2    1    2    0    0  0.18937918372E+02 -0.55164908104E+02 -0.53433306846E+03  0.55185020477E+03  0.12500003447E+03 0.  0.
    9000005    1    3    3    0    0  0.37988970032E+02 -0.89982426220E+02 -0.40150806472E+03  0.41321873737E+03  0.10000000000E+01 0.  0.
    9000005    1    3    3    0    0 -0.19051051659E+02  0.34817518115E+02 -0.13282500374E+03  0.13863146741E+03  0.10000000000E+01 0.  0.
          4    1    1    2  501    0 -0.18937918372E+02  0.55164908104E+02 -0.65500564632E+02  0.87714016585E+02  0.12700000000E+01 0. -1.
<mgrwt>
<rscale>  1 0.13793774E+03</rscale>
<asrwt>0</asrwt>
<pdfrwt beam="2">  1       21 0.95335156E-01 0.13793774E+03</pdfrwt>
<pdfrwt beam="1">  1        4 0.30562998E-02 0.13793774E+03</pdfrwt>
<totfact> 0.19862007E+04</totfact>
</mgrwt>
</event>
<event>
 6    4  0.6277709E-003  0.1292353E+03  0.7818608E-02  0.1228595E+00
         21   -1    0    0  501  502  0.00000000000E+00  0.00000000000E+00  0.78403375923E+01  0.78403375923E+01  0.00000000000E+00 0.  1.
         -4   -1    0    0    0  501 -0.00000000000E+00 -0.00000000000E+00 -0.83872791957E+03  0.83872888109E+03  0.12700000000E+01 0.  1.
         25    2    1    2    0    0  0.31002423849E+02  0.10648911471E+02 -0.67679428718E+03  0.68902269856E+03  0.12500888916E+03 0.  0.
    9000005    1    3    3    0    0  0.72415173316E+01  0.15579305584E+02 -0.65822443864E+03  0.65844936476E+03  0.10000000000E+01 0.  0.
    9000005    1    3    3    0    0  0.23760906517E+02 -0.49303941132E+01 -0.18569848547E+02  0.30573333800E+02  0.10000000000E+01 0.  0.
         -4    1    1    2    0  502 -0.31002423849E+02 -0.10648911471E+02 -0.15409329479E+03  0.15754652012E+03  0.12700000000E+01 0. -1.
<mgrwt>
<rscale>  1 0.12923534E+03</rscale>
<asrwt>0</asrwt>
<pdfrwt beam="1">  1       21 0.12062053E-02 0.12923534E+03</pdfrwt>
<pdfrwt beam="2">  1       -4 0.12904311E+00 0.12923534E+03</pdfrwt>
<totfact> 0.51832844E+04</totfact>
</mgrwt>
</event>
<event>
 6    4  0.6277709E-003  0.1337607E+03  0.7818608E-02  0.1221980E+00
         -4   -1    0    0    0  501 -0.00000000000E+00  0.00000000000E+00  0.36910610904E+03  0.36910829391E+03  0.12700000000E+01 0.  1.
         21   -1    0    0  501  502  0.00000000000E+00 -0.00000000000E+00 -0.27030976884E+02  0.27030976884E+02  0.00000000000E+00 0. -1.
         25    2    1    2    0    0 -0.43224560085E+02 -0.19990503170E+02  0.31285906142E+03  0.34025390150E+03  0.12499576938E+03 0.  0.
    9000005    1    3    3    0    0  0.43006398264E+02 -0.84220358248E+00  0.74219827459E+02  0.85789523758E+02  0.10000000000E+01 0.  0.
    9000005    1    3    3    0    0 -0.86230958349E+02 -0.19148299587E+02  0.23863923396E+03  0.25446437775E+03  0.10000000000E+01 0.  0.
         -4    1    1    2    0  502  0.43224560085E+02  0.19990503170E+02  0.29216070736E+02  0.55885369291E+02  0.12700000000E+01 0. -1.
<mgrwt>
<rscale>  1 0.13376070E+03</rscale>
<asrwt>0</asrwt>
<pdfrwt beam="2">  1       21 0.41586121E-02 0.13376070E+03</pdfrwt>
<pdfrwt beam="1">  1       -4 0.56788014E-01 0.13376070E+03</pdfrwt>
<totfact> 0.44132510E+04</totfact>
</mgrwt>
</event>
<event>
 6    4  0.6277709E-003  0.1273875E+03  0.7818608E-02  0.1231385E+00
         21   -1    0    0  501  502  0.00000000000E+00  0.00000000000E+00  0.22255861509E+03  0.22255861509E+03  0.00000000000E+00 0.  1.
         -4   -1    0    0    0  501 -0.00000000000E+00 -0.00000000000E+00 -0.32290528976E+02  0.32315494140E+02  0.12700000000E+01 0. -1.
         25    2    1    2    0    0  0.24433039040E+02  0.23422509855E+01  0.10183381716E+03  0.16308798631E+03  0.12500042169E+03 0.  0.
    9000005    1    3    3    0    0  0.40758053910E+02 -0.44497873796E+02  0.95639415981E+02  0.11308924626E+03  0.10000000000E+01 0.  0.
    9000005    1    3    3    0    0 -0.16325014870E+02  0.46840124782E+02  0.61944011827E+01  0.49998740045E+02  0.10000000000E+01 0.  0.
         -4    1    1    2    0  502 -0.24433039040E+02 -0.23422509855E+01  0.88434268952E+02  0.91786122924E+02  0.12700000000E+01 0.  1.
<mgrwt>
<rscale>  1 0.12738746E+03</rscale>
<asrwt>0</asrwt>
<pdfrwt beam="1">  1       21 0.34239786E-01 0.12738746E+03</pdfrwt>
<pdfrwt beam="2">  1       -4 0.49699730E-02 0.12738746E+03</pdfrwt>
<totfact> 0.79733424E+04</totfact>
</mgrwt>
</event>
<event>
 6    4  0.6277709E-003  0.1334386E+03  0.7818608E-02  0.1222441E+00
         21   -1    0    0  501  502  0.00000000000E+00  0.00000000000E+00  0.81297042141E+02  0.81297042141E+02  0.00000000000E+00 0. -1.
          4   -1    0    0  502    0 -0.00000000000E+00 -0.00000000000E+00 -0.11134725618E+03  0.11135449860E+03  0.12700000000E+01 0.  1.
         25    2    1    2    0    0  0.42631832904E+02 -0.19051943919E+02 -0.49125781276E+02  0.14219423295E+03  0.12500163100E+03 0.  0.
    9000005    1    3    3    0    0  0.34129866083E+01 -0.68007502704E+02 -0.39492949870E+02  0.78723325584E+02  0.10000000000E+01 0.  0.
    9000005    1    3    3    0    0  0.39218846296E+02  0.48955558785E+02 -0.96328314059E+01  0.63470907364E+02  0.10000000000E+01 0.  0.
          4    1    1    2  501    0 -0.42631832904E+02  0.19051943919E+02  0.19075567241E+02  0.50457307790E+02  0.12700000000E+01 0. -1.
<mgrwt>
<rscale>  1 0.13343859E+03</rscale>
<asrwt>0</asrwt>
<pdfrwt beam="1">  1       21 0.12507237E-01 0.13343859E+03</pdfrwt>
<pdfrwt beam="2">  1        4 0.17131667E-01 0.13343859E+03</pdfrwt>
<totfact> 0.65468486E+04</totfact>
</mgrwt>
</event>
<event>
 6    4  0.6277709E-003  0.1304443E+03  0.7818608E-02  0.1226798E+00
          4   -1    0    0  502    0 -0.00000000000E+00  0.00000000000E+00  0.60683244862E+03  0.60683377757E+03  0.12700000000E+01 0.  1.
         21   -1    0    0  501  502  0.00000000000E+00 -0.00000000000E+00 -0.11729256691E+02  0.11729256691E+02  0.00000000000E+00 0.  1.
         25    2    1    2    0    0 -0.21259556628E+02  0.30639785669E+02  0.48856311539E+03  0.50567740177E+03  0.12499980691E+03 0.  0.
    9000005    1    3    3    0    0  0.23935703126E+02  0.25330687913E+02  0.43045410976E+03  0.43186375426E+03  0.10000000000E+01 0.  0.
    9000005    1    3    3    0    0 -0.45195259754E+02  0.53090977562E+01  0.58109005624E+02  0.73813647504E+02  0.10000000000E+01 0.  0.
          4    1    1    2  501    0  0.21259556628E+02 -0.30639785669E+02  0.10654007654E+03  0.11288563249E+03  0.12700000000E+01 0. -1.
<mgrwt>
<rscale>  1 0.13044431E+03</rscale>
<asrwt>0</asrwt>
<pdfrwt beam="2">  1       21 0.18045015E-02 0.13044431E+03</pdfrwt>
<pdfrwt beam="1">  1        4 0.93364204E-01 0.13044431E+03</pdfrwt>
<totfact> 0.58480691E+04</totfact>
</mgrwt>
</event>
<event>
 6    4  0.6277709E-003  0.1345679E+03  0.7818608E-02  0.1220831E+00
         21   -1    0    0  501  502  0.00000000000E+00  0.00000000000E+00  0.29357004737E+03  0.29357004737E+03  0.00000000000E+00 0. -1.
          4   -1    0    0  502    0 -0.00000000000E+00 -0.00000000000E+00 -0.75634757685E+02  0.75645419360E+02  0.12700000000E+01 0.  1.
         25    2    1    2    0    0 -0.32962559487E+02 -0.37376349916E+02 -0.10904256582E+02  0.13500899223E+03  0.12500001324E+03 0.  0.
    9000005    1    3    3    0    0  0.24693155685E+02 -0.63764098717E+02 -0.19258598996E+02  0.71045801130E+02  0.10000000000E+01 0.  0.
    9000005    1    3    3    0    0 -0.57655715173E+02  0.26387748801E+02  0.83543424145E+01  0.63963191103E+02  0.10000000000E+01 0.  0.
          4    1    1    2  501    0  0.32962559487E+02  0.37376349916E+02  0.22883954627E+03  0.23420647450E+03  0.12700000000E+01 0. -1.
<mgrwt>
<rscale>  1 0.13456792E+03</rscale>
<asrwt>0</asrwt>
<pdfrwt beam="1">  1       21 0.45164622E-01 0.13456792E+03</pdfrwt>
<pdfrwt beam="2">  1        4 0.11637148E-01 0.13456792E+03</pdfrwt>
<totfact> 0.11319675E+04</totfact>
</mgrwt>
</event>
<event>
 6    4  0.6277709E-003  0.1305078E+03  0.7818608E-02  0.1226704E+00
         21   -1    0    0  501  502  0.00000000000E+00  0.00000000000E+00  0.47335469423E+02  0.47335469423E+02  0.00000000000E+00 0.  1.
         -4   -1    0    0    0  501 -0.00000000000E+00 -0.00000000000E+00 -0.19300492167E+03  0.19300910002E+03  0.12700000000E+01 0.  1.
         25    2    1    2    0    0  0.53396864686E+01 -0.37131152464E+02 -0.15403524827E+03  0.20188895636E+03  0.12500023302E+03 0.  0.
    9000005    1    3    3    0    0  0.40725009097E+02 -0.64330234646E+02 -0.13132337842E+03  0.15180163100E+03  0.10000000000E+01 0.  0.
    9000005    1    3    3    0    0 -0.35385322628E+02  0.27199082183E+02 -0.22711869854E+02  0.50087325356E+02  0.10000000000E+01 0.  0.
         -4    1    1    2    0  502 -0.53396864686E+01  0.37131152464E+02  0.83657960192E+01  0.38455613087E+02  0.12700000000E+01 0. -1.
<mgrwt>
<rscale>  1 0.13050783E+03</rscale>
<asrwt>0</asrwt>
<pdfrwt beam="1">  1       21 0.72823800E-02 0.13050783E+03</pdfrwt>
<pdfrwt beam="2">  1       -4 0.29694696E-01 0.13050783E+03</pdfrwt>
<totfact> 0.61518478E+04</totfact>
</mgrwt>
</event>
<event>
 6    4  0.6277709E-003  0.1268500E+03  0.7818608E-02  0.1232206E+00
         21   -1    0    0  501  502  0.00000000000E+00  0.00000000000E+00  0.84313132185E+02  0.84313132185E+02  0.00000000000E+00 0.  1.
         -4   -1    0    0    0  501 -0.00000000000E+00 -0.00000000000E+00 -0.66313603787E+02  0.66325763826E+02  0.12700000000E+01 0.  1.
         25    2    1    2    0    0  0.19171860687E+02  0.99562020320E+01  0.88951847631E+01  0.12716149892E+03  0.12499694514E+03 0.  0.
    9000005    1    3    3    0    0 -0.11409379838E+02  0.24466708056E+01 -0.54833556902E+02  0.56070305054E+02  0.10000000000E+01 0.  0.
    9000005    1    3    3    0    0  0.30581240525E+02  0.75095312264E+01  0.63728741665E+02  0.71091193868E+02  0.10000000000E+01 0.  0.
         -4    1    1    2    0  502 -0.19171860687E+02 -0.99562020320E+01  0.91043436357E+01  0.23477397090E+02  0.12700000000E+01 0. -1.
<mgrwt>
<rscale>  1 0.12685000E+03</rscale>
<asrwt>0</asrwt>
<pdfrwt beam="1">  1       21 0.12971251E-01 0.12685000E+03</pdfrwt>
<pdfrwt beam="2">  1       -4 0.10203764E-01 0.12685000E+03</pdfrwt>
<totfact> 0.14892401E+05</totfact>
</mgrwt>
</event>
<event>
 6    4  0.6277709E-003  0.1291724E+03  0.7818608E-02  0.1228689E+00
         21   -1    0    0  501  502  0.00000000000E+00  0.00000000000E+00  0.45152747115E+02  0.45152747115E+02  0.00000000000E+00 0. -1.
          4   -1    0    0  502    0 -0.00000000000E+00 -0.00000000000E+00 -0.18993997820E+03  0.18994422397E+03  0.12700000000E+01 0. -1.
         25    2    1    2    0    0  0.17477041569E+02 -0.27471332323E+02 -0.15422472715E+03  0.20117352325E+03  0.12500159563E+03 0.  0.
    9000005    1    3    3    0    0  0.28469345984E+02  0.23666290373E+02 -0.14293355338E+03  0.14765364081E+03  0.10000000000E+01 0.  0.
    9000005    1    3    3    0    0 -0.10992304415E+02 -0.51137622696E+02 -0.11291173764E+02  0.53519882439E+02  0.10000000000E+01 0.  0.
          4    1    1    2  501    0 -0.17477041569E+02  0.27471332323E+02  0.94374960575E+01  0.33923447841E+02  0.12700000000E+01 0.  1.
<mgrwt>
<rscale>  1 0.12917244E+03</rscale>
<asrwt>0</asrwt>
<pdfrwt beam="1">  1       21 0.69465765E-02 0.12917244E+03</pdfrwt>
<pdfrwt beam="2">  1        4 0.29223236E-01 0.12917244E+03</pdfrwt>
<totfact> 0.68643570E+04</totfact>
</mgrwt>
</event>
<event>
 6    4  0.6277709E-003  0.1292595E+03  0.7818608E-02  0.1228559E+00
         21   -1    0    0  501  502  0.00000000000E+00  0.00000000000E+00  0.10550767819E+04  0.10550767819E+04  0.00000000000E+00 0.  1.
          4   -1    0    0  502    0 -0.00000000000E+00 -0.00000000000E+00 -0.34193210572E+02  0.34216787535E+02  0.12700000000E+01 0. -1.
         25    2    1    2    0    0 -0.24110176497E+02  0.22249437284E+02  0.89242105826E+02  0.15707376101E+03  0.12502669666E+03 0.  0.
    9000005    1    3    3    0    0  0.47980399039E+02  0.24916514435E+02  0.21764923526E+02  0.58289478293E+02  0.10000000000E+01 0.  0.
    9000005    1    3    3    0    0 -0.72090575536E+02 -0.26670771509E+01  0.67477182300E+02  0.98784282722E+02  0.10000000000E+01 0.  0.
          4    1    1    2  501    0  0.24110176497E+02 -0.22249437284E+02  0.93164146553E+03  0.93221980845E+03  0.12700000000E+01 0.  1.
<mgrwt>
<rscale>  1 0.12925948E+03</rscale>
<asrwt>0</asrwt>
<pdfrwt beam="1">  1       21 0.16231948E+00 0.12925948E+03</pdfrwt>
<pdfrwt beam="2">  1        4 0.52623672E-02 0.12925948E+03</pdfrwt>
<totfact> 0.22406088E+03</totfact>
</mgrwt>
</event>
<event>
 6    4  0.6277709E-003  0.1268792E+03  0.7818608E-02  0.1232161E+00
         21   -1    0    0  501  502  0.00000000000E+00  0.00000000000E+00  0.12785173466E+03  0.12785173466E+03  0.00000000000E+00 0. -1.
          4   -1    0    0  502    0 -0.00000000000E+00 -0.00000000000E+00 -0.48721285160E+02  0.48737834663E+02  0.12700000000E+01 0. -1.
         25    2    1    2    0    0  0.79857607611E+01 -0.20224801653E+02  0.86540185941E+02  0.15358235152E+03  0.12500207973E+03 0.  0.
    9000005    1    3    3    0    0 -0.11473942647E+02 -0.63842851623E+02  0.83463940987E+02  0.10571088169E+03  0.10000000000E+01 0.  0.
    9000005    1    3    3    0    0  0.19459703408E+02  0.43618049970E+02  0.30762449531E+01  0.47871469822E+02  0.10000000000E+01 0.  0.
          4    1    1    2  501    0 -0.79857607611E+01  0.20224801653E+02 -0.74097364454E+01  0.23007217803E+02  0.12700000000E+01 0.  1.
<mgrwt>
<rscale>  1 0.12687921E+03</rscale>
<asrwt>0</asrwt>
<pdfrwt beam="1">  1       21 0.19669497E-01 0.12687921E+03</pdfrwt>
<pdfrwt beam="2">  1        4 0.74973406E-02 0.12687921E+03</pdfrwt>
<totfact> 0.11702891E+05</totfact>
</mgrwt>
</event>
<event>
 6    4  0.6277709E-003  0.1293099E+03  0.7818608E-02  0.1228483E+00
         21   -1    0    0  501  502  0.00000000000E+00  0.00000000000E+00  0.33680512279E+03  0.33680512279E+03  0.00000000000E+00 0.  1.
          4   -1    0    0  502    0 -0.00000000000E+00 -0.00000000000E+00 -0.45005514673E+02  0.45023430023E+02  0.12700000000E+01 0. -1.
         25    2    1    2    0    0  0.11855119307E+02 -0.30922249727E+02  0.51393119593E+02  0.13914847121E+03  0.12499725964E+03 0.  0.
    9000005    1    3    3    0    0  0.35502849341E+02 -0.72844886735E+02  0.29270297112E+02  0.86166003318E+02  0.10000000000E+01 0.  0.
    9000005    1    3    3    0    0 -0.23647730034E+02  0.41922637008E+02  0.22122822480E+02  0.52982467892E+02  0.10000000000E+01 0.  0.
          4    1    1    2  501    0 -0.11855119307E+02  0.30922249727E+02  0.24040648852E+03  0.24268008160E+03  0.12700000000E+01 0.  1.
<mgrwt>
<rscale>  1 0.12930988E+03</rscale>
<asrwt>0</asrwt>
<pdfrwt beam="1">  1       21 0.51816171E-01 0.12930988E+03</pdfrwt>
<pdfrwt beam="2">  1        4 0.69254878E-02 0.12930988E+03</pdfrwt>
<totfact> 0.20246282E+04</totfact>
</mgrwt>
</event>
<event>
 6    4  0.6277709E-003  0.1343331E+03  0.7818608E-02  0.1221164E+00
         21   -1    0    0  501  502  0.00000000000E+00  0.00000000000E+00  0.49290622611E+03  0.49290622611E+03  0.00000000000E+00 0. -1.
         -4   -1    0    0    0  501 -0.00000000000E+00 -0.00000000000E+00 -0.36929488106E+02  0.36951319215E+02  0.12700000000E+01 0.  1.
         25    2    1    2    0    0 -0.30184435266E+02  0.38838641646E+02  0.92581843026E+02  0.16314648357E+03  0.12500334886E+03 0.  0.
    9000005    1    3    3    0    0  0.18713439162E+02 -0.33588226171E+02  0.57052784985E+02  0.68806845714E+02  0.10000000000E+01 0.  0.
    9000005    1    3    3    0    0 -0.48897874428E+02  0.72426867818E+02  0.35529058042E+02  0.94339637856E+02  0.10000000000E+01 0.  0.
         -4    1    1    2    0  502  0.30184435266E+02 -0.38838641646E+02  0.36339489497E+03  0.36671106175E+03  0.12700000000E+01 0. -1.
<mgrwt>
<rscale>  1 0.13433308E+03</rscale>
<asrwt>0</asrwt>
<pdfrwt beam="1">  1       21 0.75831722E-01 0.13433308E+03</pdfrwt>
<pdfrwt beam="2">  1       -4 0.56832652E-02 0.13433308E+03</pdfrwt>
<totfact> 0.12397178E+04</totfact>
</mgrwt>
</event>
<event>
 6    4  0.6277709E-003  0.1344243E+03  0.7818608E-02  0.1221035E+00
         21   -1    0    0  501  502  0.00000000000E+00  0.00000000000E+00  0.15402695366E+02  0.15402695366E+02  0.00000000000E+00 0.  1.
          4   -1    0    0  502    0 -0.00000000000E+00 -0.00000000000E+00 -0.56766658673E+03  0.56766800737E+03  0.12700000000E+01 0. -1.
         25    2    1    2    0    0 -0.42267520304E+02  0.25671013258E+02 -0.44675789865E+03  0.46654314551E+03  0.12499736966E+03 0.  0.
    9000005    1    3    3    0    0 -0.42818856964E+02 -0.42448562318E+02 -0.14219293790E+03  0.15445117851E+03  0.10000000000E+01 0.  0.
    9000005    1    3    3    0    0  0.55133666090E+00  0.68119575577E+02 -0.30456496075E+03  0.31209196700E+03  0.10000000000E+01 0.  0.
          4    1    1    2  501    0  0.42267520304E+02 -0.25671013258E+02 -0.10550599272E+03  0.11652755723E+03  0.12700000000E+01 0.  1.
<mgrwt>
<rscale>  1 0.13442428E+03</rscale>
<asrwt>0</asrwt>
<pdfrwt beam="1">  1       21 0.23696453E-02 0.13442428E+03</pdfrwt>
<pdfrwt beam="2">  1        4 0.87337463E-01 0.13442428E+03</pdfrwt>
<totfact> 0.43946839E+04</totfact>
</mgrwt>
</event>
<event>
 6    4  0.6277709E-003  0.1284915E+03  0.7818608E-02  0.1229711E+00
         21   -1    0    0  501  502  0.00000000000E+00  0.00000000000E+00  0.41342206341E+02  0.41342206341E+02  0.00000000000E+00 0.  1.
          4   -1    0    0  502    0 -0.00000000000E+00 -0.00000000000E+00 -0.15721328885E+03  0.15721841842E+03  0.12700000000E+01 0.  1.
         25    2    1    2    0    0 -0.15836222458E+02  0.25222398325E+02 -0.10768323206E+03  0.16764769682E+03  0.12499246563E+03 0.  0.
    9000005    1    3    3    0    0  0.69480612125E+01  0.62154719564E+02 -0.10734559285E+03  0.12423993329E+03  0.10000000000E+01 0.  0.
    9000005    1    3    3    0    0 -0.22784283670E+02 -0.36932321239E+02 -0.33763920737E+00  0.43407763530E+02  0.10000000000E+01 0.  0.
          4    1    1    2  501    0  0.15836222458E+02 -0.25222398325E+02 -0.81878504474E+01  0.30912927942E+02  0.12700000000E+01 0. -1.
<mgrwt>
<rscale>  1 0.12849152E+03</rscale>
<asrwt>0</asrwt>
<pdfrwt beam="1">  1       21 0.63603395E-02 0.12849152E+03</pdfrwt>
<pdfrwt beam="2">  1        4 0.24188555E-01 0.12849152E+03</pdfrwt>
<totfact> 0.11329295E+05</totfact>
</mgrwt>
</event>
<event>
 6    4  0.6277709E-003  0.1271181E+03  0.7818608E-02  0.1231796E+00
         -4   -1    0    0    0  501 -0.00000000000E+00  0.00000000000E+00  0.86180729863E+01  0.87111469966E+01  0.12700000000E+01 0.  1.
         21   -1    0    0  501  502  0.00000000000E+00 -0.00000000000E+00 -0.14608046771E+04  0.14608046771E+04  0.00000000000E+00 0. -1.
         25    2    1    2    0    0  0.37908763093E+01  0.22808739685E+02 -0.46513051113E+03  0.48218814144E+03  0.12499760802E+03 0.  0.
    9000005    1    3    3    0    0  0.63202223427E+02  0.24156733992E+02 -0.24402739895E+03  0.25323593798E+03  0.10000000000E+01 0.  0.
    9000005    1    3    3    0    0 -0.59411347118E+02 -0.13479943070E+01 -0.22110311218E+03  0.22895220346E+03  0.10000000000E+01 0.  0.
         -4    1    1    2    0  502 -0.37908763093E+01 -0.22808739685E+02 -0.98705609301E+03  0.98732768269E+03  0.12700000000E+01 0. -1.
<mgrwt>
<rscale>  1 0.12711810E+03</rscale>
<asrwt>0</asrwt>
<pdfrwt beam="2">  1       21 0.22473916E+00 0.12711810E+03</pdfrwt>
<pdfrwt beam="1">  1       -4 0.13330595E-02 0.12711810E+03</pdfrwt>
<totfact> 0.75466889E+03</totfact>
</mgrwt>
</event>
<event>
 6    4  0.6277709E-003  0.1330097E+03  0.7818608E-02  0.1223057E+00
         21   -1    0    0  501  502  0.00000000000E+00  0.00000000000E+00  0.52580668856E+03  0.52580668856E+03  0.00000000000E+00 0. -1.
          4   -1    0    0  502    0 -0.00000000000E+00 -0.00000000000E+00 -0.15186231617E+02  0.15239243115E+02  0.12700000000E+01 0. -1.
         25    2    1    2    0    0  0.27473135375E+02  0.36214385307E+02  0.39563878469E+03  0.41739864006E+03  0.12500128759E+03 0.  0.
    9000005    1    3    3    0    0  0.65372781028E+02  0.24036893257E+02  0.34984672204E+03  0.35671431379E+03  0.10000000000E+01 0.  0.
    9000005    1    3    3    0    0 -0.37899645653E+02  0.12177492050E+02  0.45792062648E+02  0.60684326270E+02  0.10000000000E+01 0.  0.
          4    1    1    2  501    0 -0.27473135375E+02 -0.36214385307E+02  0.11498167225E+03  0.12364729162E+03  0.12700000000E+01 0.  1.
<mgrwt>
<rscale>  1 0.13300969E+03</rscale>
<asrwt>0</asrwt>
<pdfrwt beam="1">  1       21 0.80893323E-01 0.13300969E+03</pdfrwt>
<pdfrwt beam="2">  1        4 0.23405395E-02 0.13300969E+03</pdfrwt>
<totfact> 0.43639016E+04</totfact>
</mgrwt>
</event>
<event>
 6    4  0.6277709E-003  0.1288350E+03  0.7818608E-02  0.1229195E+00
         21   -1    0    0  501  502  0.00000000000E+00  0.00000000000E+00  0.80022525767E+01  0.80022525767E+01  0.00000000000E+00 0. -1.
         -4   -1    0    0    0  501 -0.00000000000E+00 -0.00000000000E+00 -0.11197991845E+04  0.11197999047E+04  0.12700000000E+01 0. -1.
         25    2    1    2    0    0 -0.77585227209E+01 -0.30327921245E+02 -0.10558401273E+04  0.10636713973E+04  0.12497395588E+03 0.  0.
    9000005    1    3    3    0    0  0.39059613003E+01  0.13116610792E+02 -0.92875338343E+03  0.92885475142E+03  0.10000000000E+01 0.  0.
    9000005    1    3    3    0    0 -0.11664484021E+02 -0.43444532038E+02 -0.12708674385E+03  0.13481664591E+03  0.10000000000E+01 0.  0.
         -4    1    1    2    0  502  0.77585227209E+01  0.30327921245E+02 -0.55956804657E+02  0.64130759931E+02  0.12700000000E+01 0.  1.
<mgrwt>
<rscale>  1 0.12883504E+03</rscale>
<asrwt>0</asrwt>
<pdfrwt beam="1">  1       21 0.12311155E-02 0.12883504E+03</pdfrwt>
<pdfrwt beam="2">  1       -4 0.17228464E+00 0.12883504E+03</pdfrwt>
<totfact> 0.24043935E+04</totfact>
</mgrwt>
</event>
<event>
 6    4  0.6277709E-003  0.1277955E+03  0.7818608E-02  0.1230764E+00
          4   -1    0    0  502    0 -0.00000000000E+00  0.00000000000E+00  0.11228689370E+03  0.11229407552E+03  0.12700000000E+01 0.  1.
         21   -1    0    0  501  502  0.00000000000E+00 -0.00000000000E+00 -0.66736175571E+02  0.66736175571E+02  0.00000000000E+00 0.  1.
         25    2    1    2    0    0  0.25631863259E+02 -0.71225052025E+01  0.67492062023E+02  0.14452289004E+03  0.12499585919E+03 0.  0.
    9000005    1    3    3    0    0  0.31624613656E+02 -0.50123762720E+02  0.79779694622E+02  0.99389674776E+02  0.10000000000E+01 0.  0.
    9000005    1    3    3    0    0 -0.59927503971E+01  0.43001257517E+02 -0.12287632598E+02  0.45133215266E+02  0.10000000000E+01 0.  0.
          4    1    1    2  501    0 -0.25631863259E+02  0.71225052025E+01 -0.21941343896E+02  0.34507361047E+02  0.12700000000E+01 0. -1.
<mgrwt>
<rscale>  1 0.12779549E+03</rscale>
<asrwt>0</asrwt>
<pdfrwt beam="2">  1       21 0.10267104E-01 0.12779549E+03</pdfrwt>
<pdfrwt beam="1">  1        4 0.17276389E-01 0.12779549E+03</pdfrwt>
<totfact> 0.90848703E+04</totfact>
</mgrwt>
</event>
<event>
 6    4  0.6277709E-003  0.1343556E+03  0.7818608E-02  0.1221132E+00
         21   -1    0    0  501  502  0.00000000000E+00  0.00000000000E+00  0.34023153476E+02  0.34023153476E+02  0.00000000000E+00 0. -1.
          4   -1    0    0  502    0 -0.00000000000E+00 -0.00000000000E+00 -0.37600379802E+03  0.37600594280E+03  0.12700000000E+01 0. -1.
         25    2    1    2    0    0 -0.48184257623E+02  0.10231470684E+02 -0.33413226813E+03  0.36013304846E+03  0.12500013727E+03 0.  0.
    9000005    1    3    3    0    0  0.39091103894E+02 -0.11657955904E+02 -0.14589218348E+03  0.15149109393E+03  0.10000000000E+01 0.  0.
    9000005    1    3    3    0    0 -0.87275361517E+02  0.21889426588E+02 -0.18824008465E+03  0.20864195453E+03  0.10000000000E+01 0.  0.
          4    1    1    2  501    0  0.48184257623E+02 -0.10231470684E+02 -0.78483764126E+01  0.49896047813E+02  0.12700000000E+01 0.  1.
<mgrwt>
<rscale>  1 0.13435565E+03</rscale>
<asrwt>0</asrwt>
<pdfrwt beam="1">  1       21 0.52343313E-02 0.13435565E+03</pdfrwt>
<pdfrwt beam="2">  1        4 0.57848727E-01 0.13435565E+03</pdfrwt>
<totfact> 0.28896584E+04</totfact>
</mgrwt>
</event>
<event>
 6    4  0.6277709E-003  0.1371820E+03  0.7818608E-02  0.1217172E+00
         21   -1    0    0  501  502  0.00000000000E+00  0.00000000000E+00  0.10864076290E+04  0.10864076290E+04  0.00000000000E+00 0. -1.
         -4   -1    0    0    0  501 -0.00000000000E+00 -0.00000000000E+00 -0.73881244890E+02  0.73892159574E+02  0.12700000000E+01 0.  1.
         25    2    1    2    0    0  0.30350954814E+02 -0.47678395685E+02 -0.87491432097E+01  0.13746073697E+03  0.12499798730E+03 0.  0.
    9000005    1    3    3    0    0  0.44054585544E+02 -0.85601563365E+02 -0.11858850568E+02  0.97005497240E+02  0.10000000000E+01 0.  0.
    9000005    1    3    3    0    0 -0.13703630730E+02  0.37923167681E+02  0.31097073581E+01  0.40455239734E+02  0.10000000000E+01 0.  0.
         -4    1    1    2    0  502 -0.30350954814E+02  0.47678395685E+02  0.10212755273E+04  0.10228390516E+04  0.12700000000E+01 0. -1.
<mgrwt>
<rscale>  1 0.13718202E+03</rscale>
<asrwt>0</asrwt>
<pdfrwt beam="1">  1       21 0.16713962E+00 0.13718202E+03</pdfrwt>
<pdfrwt beam="2">  1       -4 0.11367243E-01 0.13718202E+03</pdfrwt>
<totfact> 0.57949842E+02</totfact>
</mgrwt>
</event>
<event>
 6    4  0.6277709E-003  0.1311853E+03  0.7818608E-02  0.1225707E+00
         21   -1    0    0  501  502  0.00000000000E+00  0.00000000000E+00  0.17370052234E+04  0.17370052234E+04  0.00000000000E+00 0.  1.
          4   -1    0    0  502    0 -0.00000000000E+00 -0.00000000000E+00 -0.19705479842E+02  0.19746362597E+02  0.12700000000E+01 0. -1.
         25    2    1    2    0    0 -0.35567848038E+02 -0.17867412514E+02  0.20157513482E+03  0.24050390878E+03  0.12500111565E+03 0.  0.
    9000005    1    3    3    0    0 -0.55777502299E+02 -0.41830062345E+02  0.50210689147E+02  0.85924368972E+02  0.10000000000E+01 0.  0.
    9000005    1    3    3    0    0  0.20209654261E+02  0.23962649831E+02  0.15136444567E+03  0.15457953981E+03  0.10000000000E+01 0.  0.
          4    1    1    2  501    0  0.35567848038E+02  0.17867412514E+02  0.15157246088E+04  0.15162476772E+04  0.12700000000E+01 0.  1.
<mgrwt>
<rscale>  1 0.13118535E+03</rscale>
<asrwt>0</asrwt>
<pdfrwt beam="1">  1       21 0.26723145E+00 0.13118535E+03</pdfrwt>
<pdfrwt beam="2">  1        4 0.30347942E-02 0.13118535E+03</pdfrwt>
<totfact> 0.12069157E+03</totfact>
</mgrwt>
</event>
<event>
 6    4  0.6277709E-003  0.1271138E+03  0.7818608E-02  0.1231802E+00
          4   -1    0    0  502    0 -0.00000000000E+00  0.00000000000E+00  0.46852821486E+02  0.46870030736E+02  0.12700000000E+01 0.  1.
         21   -1    0    0  501  502  0.00000000000E+00 -0.00000000000E+00 -0.13879244352E+03  0.13879244352E+03  0.00000000000E+00 0.  1.
         25    2    1    2    0    0  0.19504665440E+02  0.12355403395E+02 -0.47746526749E+02  0.13578531979E+03  0.12499933714E+03 0.  0.
    9000005    1    3    3    0    0  0.45203986484E+02  0.39958401245E+02  0.15355914555E+02  0.62264583319E+02  0.10000000000E+01 0.  0.
    9000005    1    3    3    0    0 -0.25699321044E+02 -0.27602997851E+02 -0.63102441304E+02  0.73520736469E+02  0.10000000000E+01 0.  0.
          4    1    1    2  501    0 -0.19504665440E+02 -0.12355403395E+02 -0.44193095286E+02  0.49877154469E+02  0.12700000000E+01 0. -1.
<mgrwt>
<rscale>  1 0.12711382E+03</rscale>
<asrwt>0</asrwt>
<pdfrwt beam="2">  1       21 0.21352684E-01 0.12711382E+03</pdfrwt>
<pdfrwt beam="1">  1        4 0.72098971E-02 0.12711382E+03</pdfrwt>
<totfact> 0.10721879E+05</totfact>
</mgrwt>
</event>
<event>
 6    4  0.6277709E-003  0.1266101E+03  0.7818608E-02  0.1232574E+00
         -4   -1    0    0    0  501 -0.00000000000E+00  0.00000000000E+00  0.15792335698E+03  0.15792846348E+03  0.12700000000E+01 0.  1.
         21   -1    0    0  501  502  0.00000000000E+00 -0.00000000000E+00 -0.18524918353E+03  0.18524918353E+03  0.00000000000E+00 0. -1.
         25    2    1    2    0    0  0.78494618778E+01  0.18506603019E+02  0.13181263397E+03  0.18276950842E+03  0.12500405724E+03 0.  0.
    9000005    1    3    3    0    0 -0.37843880433E+01 -0.40953999925E+02  0.40182080257E+01  0.41336396777E+02  0.10000000000E+01 0.  0.
    9000005    1    3    3    0    0  0.11633849921E+02  0.59460602944E+02  0.12779442595E+03  0.14143311165E+03  0.10000000000E+01 0.  0.
         -4    1    1    2    0  502 -0.78494618778E+01 -0.18506603019E+02 -0.15913846053E+03  0.16040813860E+03  0.12700000000E+01 0. -1.
<mgrwt>
<rscale>  1 0.12661012E+03</rscale>
<asrwt>0</asrwt>
<pdfrwt beam="2">  1       21 0.28499874E-01 0.12661012E+03</pdfrwt>
<pdfrwt beam="1">  1       -4 0.24296629E-01 0.12661012E+03</pdfrwt>
<totfact> 0.76104964E+03</totfact>
</mgrwt>
</event>
<event>
 6    4  0.6277709E-003  0.1279196E+03  0.7818608E-02  0.1230576E+00
         -4   -1    0    0    0  501 -0.00000000000E+00  0.00000000000E+00  0.17936548510E+03  0.17936998117E+03  0.12700000000E+01 0.  1.
         21   -1    0    0  501  502  0.00000000000E+00 -0.00000000000E+00 -0.47461531183E+02  0.47461531183E+02  0.00000000000E+00 0.  1.
         25    2    1    2    0    0  0.14060550458E+01  0.27081751820E+02  0.14772283472E+03  0.19541100691E+03  0.12501210922E+03 0.  0.
    9000005    1    3    3    0    0  0.45144292502E+02  0.49319211010E+02  0.42299461038E+02  0.79124181666E+02  0.10000000000E+01 0.  0.
    9000005    1    3    3    0    0 -0.43738237456E+02 -0.22237459190E+02  0.10542337368E+03  0.11628682524E+03  0.10000000000E+01 0.  0.
         -4    1    1    2    0  502 -0.14060550458E+01 -0.27081751820E+02 -0.15818880803E+02  0.31420505443E+02  0.12700000000E+01 0. -1.
<mgrwt>
<rscale>  1 0.12791961E+03</rscale>
<asrwt>0</asrwt>
<pdfrwt beam="2">  1       21 0.73017742E-02 0.12791961E+03</pdfrwt>
<pdfrwt beam="1">  1       -4 0.27596342E-01 0.12791961E+03</pdfrwt>
<totfact> 0.70074499E+04</totfact>
</mgrwt>
</event>
<event>
 6    4  0.6277709E-003  0.1301129E+03  0.7818608E-02  0.1227288E+00
          4   -1    0    0  502    0 -0.00000000000E+00  0.00000000000E+00  0.28078861496E+03  0.28079148703E+03  0.12700000000E+01 0.  1.
         21   -1    0    0  501  502  0.00000000000E+00 -0.00000000000E+00 -0.26326854300E+02  0.26326854300E+02  0.00000000000E+00 0. -1.
         25    2    1    2    0    0 -0.13511920032E+02 -0.33482515799E+02  0.22734751954E+03  0.26194704714E+03  0.12500284005E+03 0.  0.
    9000005    1    3    3    0    0  0.13594752833E+02 -0.75003545452E+02  0.10355005052E+03  0.12858445512E+03  0.10000000000E+01 0.  0.
    9000005    1    3    3    0    0 -0.27106672865E+02  0.41521029653E+02  0.12379746902E+03  0.13336259203E+03  0.10000000000E+01 0.  0.
          4    1    1    2  501    0  0.13511920032E+02  0.33482515799E+02  0.27114241122E+02  0.45171294190E+02  0.12700000000E+01 0. -1.
<mgrwt>
<rscale>  1 0.13011288E+03</rscale>
<asrwt>0</asrwt>
<pdfrwt beam="2">  1       21 0.40502855E-02 0.13011288E+03</pdfrwt>
<pdfrwt beam="1">  1        4 0.43200824E-01 0.13011288E+03</pdfrwt>
<totfact> 0.80111353E+04</totfact>
</mgrwt>
</event>
<event>
 6    4  0.6277709E-003  0.1363496E+03  0.7818608E-02  0.1218327E+00
         21   -1    0    0  501  502  0.00000000000E+00  0.00000000000E+00  0.45165118374E+02  0.45165118374E+02  0.00000000000E+00 0. -1.
          4   -1    0    0  502    0 -0.00000000000E+00 -0.00000000000E+00 -0.22198289840E+03  0.22198653131E+03  0.12700000000E+01 0. -1.
         25    2    1    2    0    0  0.51858510852E+02  0.16658928254E+02 -0.85879480257E+02  0.16114121480E+03  0.12499752374E+03 0.  0.
    9000005    1    3    3    0    0  0.74779441749E+02  0.47327342642E+02 -0.30107040373E+02  0.93484095705E+02  0.10000000000E+01 0.  0.
    9000005    1    3    3    0    0 -0.22920930897E+02 -0.30668414388E+02 -0.55772439883E+02  0.67657119099E+02  0.10000000000E+01 0.  0.
          4    1    1    2  501    0 -0.51858510852E+02 -0.16658928254E+02 -0.90938299774E+02  0.10601043488E+03  0.12700000000E+01 0.  1.
<mgrwt>
<rscale>  1 0.13634957E+03</rscale>
<asrwt>0</asrwt>
<pdfrwt beam="1">  1       21 0.69484798E-02 0.13634957E+03</pdfrwt>
<pdfrwt beam="2">  1        4 0.34152868E-01 0.13634957E+03</pdfrwt>
<totfact> 0.51364191E+04</totfact>
</mgrwt>
</event>
<event>
 6    4  0.6277709E-003  0.1294796E+03  0.7818608E-02  0.1228230E+00
          4   -1    0    0  502    0 -0.00000000000E+00  0.00000000000E+00  0.76993763240E+03  0.76993867982E+03  0.12700000000E+01 0. -1.
         21   -1    0    0  501  502  0.00000000000E+00 -0.00000000000E+00 -0.11002997733E+02  0.11002997733E+02  0.00000000000E+00 0. -1.
         25    2    1    2    0    0  0.25360292410E+02 -0.22270601477E+02  0.70855471757E+03  0.72028796318E+03  0.12500335188E+03 0.  0.
    9000005    1    3    3    0    0  0.28326182723E+01  0.28838155944E+02  0.57219748630E+03  0.57293160699E+03  0.10000000000E+01 0.  0.
    9000005    1    3    3    0    0  0.22527674138E+02 -0.51108757421E+02  0.13635723127E+03  0.14735635618E+03  0.10000000000E+01 0.  0.
          4    1    1    2  501    0 -0.25360292410E+02  0.22270601477E+02  0.50379917090E+02  0.60653714373E+02  0.12700000000E+01 0.  1.
<mgrwt>
<rscale>  1 0.12947958E+03</rscale>
<asrwt>0</asrwt>
<pdfrwt beam="2">  1       21 0.16927695E-02 0.12947958E+03</pdfrwt>
<pdfrwt beam="1">  1        4 0.11845762E+00 0.12947958E+03</pdfrwt>
<totfact> 0.37155892E+04</totfact>
</mgrwt>
</event>
<event>
 6    4  0.6277709E-003  0.1289722E+03  0.7818608E-02  0.1228989E+00
         -4   -1    0    0    0  501 -0.00000000000E+00  0.00000000000E+00  0.11420797034E+04  0.11420804095E+04  0.12700000000E+01 0. -1.
         21   -1    0    0  501  502  0.00000000000E+00 -0.00000000000E+00 -0.56657177993E+01  0.56657177993E+01  0.00000000000E+00 0. -1.
         25    2    1    2    0    0 -0.13574513793E+02  0.28715629589E+02  0.89305027366E+03  0.90231515129E+03  0.12499994462E+03 0.  0.
    9000005    1    3    3    0    0 -0.11105490472E+02 -0.36525446973E+02  0.10798307189E+03  0.11453726036E+03  0.10000000000E+01 0.  0.
    9000005    1    3    3    0    0 -0.24690233206E+01  0.65241076562E+02  0.78506720177E+03  0.78777789093E+03  0.10000000000E+01 0.  0.
         -4    1    1    2    0  502  0.13574513793E+02 -0.28715629589E+02  0.24336371194E+03  0.24543097603E+03  0.12700000000E+01 0.  1.
<mgrwt>
<rscale>  1 0.12897225E+03</rscale>
<asrwt>0</asrwt>
<pdfrwt beam="2">  1       21 0.87164980E-03 0.12897225E+03</pdfrwt>
<pdfrwt beam="1">  1       -4 0.17571539E+00 0.12897225E+03</pdfrwt>
<totfact> 0.39324977E+04</totfact>
</mgrwt>
</event>
<event>
 6    4  0.6277709E-003  0.1391435E+03  0.7818608E-02  0.1214486E+00
          4   -1    0    0  502    0 -0.00000000000E+00  0.00000000000E+00  0.53508868234E+02  0.53523937446E+02  0.12700000000E+01 0. -1.
         21   -1    0    0  501  502  0.00000000000E+00 -0.00000000000E+00 -0.24287147424E+03  0.24287147424E+03  0.00000000000E+00 0.  1.
         25    2    1    2    0    0  0.59382108521E+02  0.14466216744E+02 -0.56562887758E+02  0.15020073221E+03  0.12500157378E+03 0.  0.
    9000005    1    3    3    0    0 -0.58874998180E+01 -0.23258353919E+02 -0.69655442984E+02  0.73678317153E+02  0.10000000000E+01 0.  0.
    9000005    1    3    3    0    0  0.65269608339E+02  0.37724570663E+02  0.13092555226E+02  0.76522415062E+02  0.10000000000E+01 0.  0.
          4    1    1    2  501    0 -0.59382108521E+02 -0.14466216744E+02 -0.13279971825E+03  0.14619467948E+03  0.12700000000E+01 0.  1.
<mgrwt>
<rscale>  1 0.13914345E+03</rscale>
<asrwt>0</asrwt>
<pdfrwt beam="2">  1       21 0.37364842E-01 0.13914345E+03</pdfrwt>
<pdfrwt beam="1">  1        4 0.82335482E-02 0.13914345E+03</pdfrwt>
<totfact> 0.29743098E+04</totfact>
</mgrwt>
</event>
<event>
 6    4  0.6277709E-003  0.1377988E+03  0.7818608E-02  0.1216322E+00
         21   -1    0    0  501  502  0.00000000000E+00  0.00000000000E+00  0.98387549218E+01  0.98387549218E+01  0.00000000000E+00 0.  1.
          4   -1    0    0  502    0 -0.00000000000E+00 -0.00000000000E+00 -0.10782501546E+04  0.10782509025E+04  0.12700000000E+01 0.  1.
         25    2    1    2    0    0  0.41179028632E+02 -0.40835527237E+02 -0.88671385256E+03  0.89735721602E+03  0.12500105653E+03 0.  0.
    9000005    1    3    3    0    0  0.39114096545E+02  0.26112910976E+02 -0.63951516213E+03  0.64124288632E+03  0.10000000000E+01 0.  0.
    9000005    1    3    3    0    0  0.20649320875E+01 -0.66948438213E+02 -0.24719869043E+03  0.25611432970E+03  0.10000000000E+01 0.  0.
          4    1    1    2  501    0 -0.41179028632E+02  0.40835527237E+02 -0.18169754707E+03  0.19073244139E+03  0.12700000000E+01 0. -1.
<mgrwt>
<rscale>  1 0.13779883E+03</rscale>
<asrwt>0</asrwt>
<pdfrwt beam="1">  1       21 0.15136546E-02 0.13779883E+03</pdfrwt>
<pdfrwt beam="2">  1        4 0.16589100E+00 0.13779883E+03</pdfrwt>
<totfact> 0.19257685E+04</totfact>
</mgrwt>
</event>
<event>
 6    4  0.6277709E-003  0.1281869E+03  0.7818608E-02  0.1230171E+00
          4   -1    0    0  502    0 -0.00000000000E+00  0.00000000000E+00  0.15248489698E+03  0.15249018561E+03  0.12700000000E+01 0. -1.
         21   -1    0    0  501  502  0.00000000000E+00 -0.00000000000E+00 -0.48638889661E+02  0.48638889661E+02  0.00000000000E+00 0. -1.
         25    2    1    2    0    0  0.25546661518E+02 -0.12457874533E+02  0.11336898569E+03  0.17112689919E+03  0.12499623257E+03 0.  0.
    9000005    1    3    3    0    0  0.70606073038E+02 -0.30958886758E+02  0.84958181744E+02  0.11472821303E+03  0.10000000000E+01 0.  0.
    9000005    1    3    3    0    0 -0.45059411519E+02  0.18501012225E+02  0.28410803948E+02  0.56398686162E+02  0.10000000000E+01 0.  0.
          4    1    1    2  501    0 -0.25546661518E+02  0.12457874533E+02 -0.95229783709E+01  0.30002176082E+02  0.12700000000E+01 0.  1.
<mgrwt>
<rscale>  1 0.12818693E+03</rscale>
<asrwt>0</asrwt>
<pdfrwt beam="2">  1       21 0.74829062E-02 0.12818693E+03</pdfrwt>
<pdfrwt beam="1">  1        4 0.23460897E-01 0.12818693E+03</pdfrwt>
<totfact> 0.90725057E+04</totfact>
</mgrwt>
</event>
<event>
 6    4  0.6277709E-003  0.1368152E+03  0.7818608E-02  0.1217680E+00
         -4   -1    0    0    0  501 -0.00000000000E+00  0.00000000000E+00  0.81928777840E+03  0.81928876273E+03  0.12700000000E+01 0. -1.
         21   -1    0    0  501  502  0.00000000000E+00 -0.00000000000E+00 -0.23185103349E+02  0.23185103349E+02  0.00000000000E+00 0.  1.
         25    2    1    2    0    0  0.38717355431E+02  0.39974999856E+02  0.76804771946E+03  0.78013826102E+03  0.12498549001E+03 0.  0.
    9000005    1    3    3    0    0 -0.19633313511E+02  0.62733243595E+02  0.52699588293E+03  0.53108058473E+03  0.10000000000E+01 0.  0.
    9000005    1    3    3    0    0  0.58350668942E+02 -0.22758243738E+02  0.24105183653E+03  0.24905767629E+03  0.10000000000E+01 0.  0.
         -4    1    1    2    0  502 -0.38717355431E+02 -0.39974999856E+02  0.28054955592E+02  0.62335605061E+02  0.12700000000E+01 0.  1.
<mgrwt>
<rscale>  1 0.13681523E+03</rscale>
<asrwt>0</asrwt>
<pdfrwt beam="2">  1       21 0.35669396E-02 0.13681523E+03</pdfrwt>
<pdfrwt beam="1">  1       -4 0.12604700E+00 0.13681523E+03</pdfrwt>
<totfact> 0.95568858E+03</totfact>
</mgrwt>
</event>
<event>
 6    4  0.6277709E-003  0.1408761E+03  0.7818608E-02  0.1212155E+00
         21   -1    0    0  501  502  0.00000000000E+00  0.00000000000E+00  0.13352948192E+02  0.13352948192E+02  0.00000000000E+00 0.  1.
          4   -1    0    0  502    0 -0.00000000000E+00 -0.00000000000E+00 -0.85562783225E+03  0.85562877477E+03  0.12700000000E+01 0. -1.
         25    2    1    2    0    0 -0.54971221712E+02 -0.34624295745E+02 -0.67468230097E+03  0.68923310996E+03  0.12500158218E+03 0.  0.
    9000005    1    3    3    0    0 -0.74138813034E+02  0.15795196169E+02 -0.51811297019E+03  0.52362973722E+03  0.10000000000E+01 0.  0.
    9000005    1    3    3    0    0  0.19167591322E+02 -0.50419491914E+02 -0.15656933078E+03  0.16560337274E+03  0.10000000000E+01 0.  0.
          4    1    1    2  501    0  0.54971221712E+02  0.34624295745E+02 -0.16759258308E+03  0.17974861300E+03  0.12700000000E+01 0.  1.
<mgrwt>
<rscale>  1 0.14087609E+03</rscale>
<asrwt>0</asrwt>
<pdfrwt beam="1">  1       21 0.20542995E-02 0.14087609E+03</pdfrwt>
<pdfrwt beam="2">  1        4 0.13163978E+00 0.14087609E+03</pdfrwt>
<totfact> 0.21255796E+04</totfact>
</mgrwt>
</event>
<event>
 6    4  0.6277709E-003  0.1357307E+03  0.7818608E-02  0.1219192E+00
          4   -1    0    0  502    0 -0.00000000000E+00  0.00000000000E+00  0.15745070882E+02  0.15796207048E+02  0.12700000000E+01 0. -1.
         21   -1    0    0  501  502  0.00000000000E+00 -0.00000000000E+00 -0.73069304754E+03  0.73069304754E+03  0.00000000000E+00 0.  1.
         25    2    1    2    0    0  0.47572060312E+02  0.22975297058E+02 -0.31408624448E+03  0.34215930712E+03  0.12502742610E+03 0.  0.
    9000005    1    3    3    0    0  0.15028242660E+02 -0.32921732266E+02 -0.20652734790E+02  0.41680019040E+02  0.10000000000E+01 0.  0.
    9000005    1    3    3    0    0  0.32543817652E+02  0.55897029324E+02 -0.29343350969E+03  0.30047928808E+03  0.10000000000E+01 0.  0.
          4    1    1    2  501    0 -0.47572060312E+02 -0.22975297058E+02 -0.40086173218E+03  0.40432994747E+03  0.12700000000E+01 0.  1.
<mgrwt>
<rscale>  1 0.13573070E+03</rscale>
<asrwt>0</asrwt>
<pdfrwt beam="2">  1       21 0.11241434E+00 0.13573070E+03</pdfrwt>
<pdfrwt beam="1">  1        4 0.24263364E-02 0.13573070E+03</pdfrwt>
<totfact> 0.19261745E+04</totfact>
</mgrwt>
</event>
<event>
 6    4  0.6277709E-003  0.1366570E+03  0.7818608E-02  0.1217899E+00
         21   -1    0    0  501  502  0.00000000000E+00  0.00000000000E+00  0.47470524086E+03  0.47470524086E+03  0.00000000000E+00 0. -1.
          4   -1    0    0  502    0 -0.00000000000E+00 -0.00000000000E+00 -0.10423830687E+03  0.10424604318E+03  0.12700000000E+01 0.  1.
         25    2    1    2    0    0 -0.49521717001E+02 -0.24420220270E+02 -0.56900598794E+02  0.14802974990E+03  0.12500552427E+03 0.  0.
    9000005    1    3    3    0    0 -0.24637355991E+02 -0.69891383618E+02 -0.43982071790E+01  0.74243848503E+02  0.10000000000E+01 0.  0.
    9000005    1    3    3    0    0 -0.24884361011E+02  0.45471163348E+02 -0.52502391615E+02  0.73785901393E+02  0.10000000000E+01 0.  0.
          4    1    1    2  501    0  0.49521717001E+02  0.24420220270E+02  0.42736753278E+03  0.43092153414E+03  0.12700000000E+01 0. -1.
<mgrwt>
<rscale>  1 0.13665697E+03</rscale>
<asrwt>0</asrwt>
<pdfrwt beam="1">  1       21 0.73031574E-01 0.13665697E+03</pdfrwt>
<pdfrwt beam="2">  1        4 0.16037389E-01 0.13665697E+03</pdfrwt>
<totfact> 0.23550466E+03</totfact>
</mgrwt>
</event>
<event>
 6    4  0.6277709E-003  0.1381140E+03  0.7818608E-02  0.1215889E+00
         -4   -1    0    0    0  501 -0.00000000000E+00  0.00000000000E+00  0.11048083268E+02  0.11120838273E+02  0.12700000000E+01 0.  1.
         21   -1    0    0  501  502  0.00000000000E+00 -0.00000000000E+00 -0.11549314166E+04  0.11549314166E+04  0.00000000000E+00 0. -1.
         25    2    1    2    0    0 -0.53319168444E+02 -0.24655391118E+02 -0.47720894342E+03  0.49679357761E+03  0.12499864413E+03 0.  0.
    9000005    1    3    3    0    0 -0.20007902364E+02 -0.50129720914E+02 -0.43106803669E+03  0.43443521650E+03  0.10000000000E+01 0.  0.
    9000005    1    3    3    0    0 -0.33311266080E+02  0.25474329795E+02 -0.46140906733E+02  0.62358361112E+02  0.10000000000E+01 0.  0.
         -4    1    1    2    0  502  0.53319168444E+02  0.24655391118E+02 -0.66667438995E+03  0.66925867731E+03  0.12700000000E+01 0. -1.
<mgrwt>
<rscale>  1 0.13811402E+03</rscale>
<asrwt>0</asrwt>
<pdfrwt beam="2">  1       21 0.17768167E+00 0.13811402E+03</pdfrwt>
<pdfrwt beam="1">  1       -4 0.17053562E-02 0.13811402E+03</pdfrwt>
<totfact> 0.10275353E+04</totfact>
</mgrwt>
</event>
<event>
 6    4  0.6277709E-003  0.1267446E+03  0.7818608E-02  0.1232368E+00
         -4   -1    0    0    0  501 -0.00000000000E+00  0.00000000000E+00  0.34270440796E+03  0.34270676115E+03  0.12700000000E+01 0. -1.
         21   -1    0    0  501  502  0.00000000000E+00 -0.00000000000E+00 -0.16160223625E+02  0.16160223625E+02  0.00000000000E+00 0. -1.
         25    2    1    2    0    0  0.15971299434E+02  0.13561966346E+02  0.29379151782E+03  0.31996506450E+03  0.12500070889E+03 0.  0.
    9000005    1    3    3    0    0  0.66895086460E+02  0.15872680614E+02  0.21826705851E+03  0.22884143728E+03  0.10000000000E+01 0.  0.
    9000005    1    3    3    0    0 -0.50923787026E+02 -0.23107142677E+01  0.75524459304E+02  0.91123627225E+02  0.10000000000E+01 0.  0.
         -4    1    1    2    0  502 -0.15971299434E+02 -0.13561966346E+02  0.32752666522E+02  0.38901920275E+02  0.12700000000E+01 0.  1.
<mgrwt>
<rscale>  1 0.12674457E+03</rscale>
<asrwt>0</asrwt>
<pdfrwt beam="2">  1       21 0.24861885E-02 0.12674457E+03</pdfrwt>
<pdfrwt beam="1">  1       -4 0.52727769E-01 0.12674457E+03</pdfrwt>
<totfact> 0.11902253E+05</totfact>
</mgrwt>
</event>
<event>
 6    4  0.6277709E-003  0.1272541E+03  0.7818608E-02  0.1231588E+00
         -4   -1    0    0    0  501 -0.00000000000E+00  0.00000000000E+00  0.15711261798E+02  0.15762507646E+02  0.12700000000E+01 0.  1.
         21   -1    0    0  501  502  0.00000000000E+00 -0.00000000000E+00 -0.39560992481E+03  0.39560992481E+03  0.00000000000E+00 0.  1.
         25    2    1    2    0    0  0.15103863291E+02 -0.18444217192E+02 -0.26436616380E+03  0.29339918503E+03  0.12500118951E+03 0.  0.
    9000005    1    3    3    0    0 -0.41800287103E+02 -0.47523143933E+02 -0.13540987416E+03  0.14947423601E+03  0.10000000000E+01 0.  0.
    9000005    1    3    3    0    0  0.56904150393E+02  0.29078926741E+02 -0.12895628964E+03  0.14392494902E+03  0.10000000000E+01 0.  0.
         -4    1    1    2    0  502 -0.15103863291E+02  0.18444217192E+02 -0.11553249921E+03  0.11797324742E+03  0.12700000000E+01 0. -1.
<mgrwt>
<rscale>  1 0.12725413E+03</rscale>
<asrwt>0</asrwt>
<pdfrwt beam="2">  1       21 0.60863064E-01 0.12725413E+03</pdfrwt>
<pdfrwt beam="1">  1       -4 0.24212161E-02 0.12725413E+03</pdfrwt>
<totfact> 0.76681181E+04</totfact>
</mgrwt>
</event>
<event>
 6    4  0.6277709E-003  0.1309205E+03  0.7818608E-02  0.1226096E+00
          4   -1    0    0  502    0 -0.00000000000E+00  0.00000000000E+00  0.35733684485E+02  0.35756245704E+02  0.12700000000E+01 0. -1.
         21   -1    0    0  501  502  0.00000000000E+00 -0.00000000000E+00 -0.20676656647E+03  0.20676656647E+03  0.00000000000E+00 0. -1.
         25    2    1    2    0    0  0.46716122500E+01  0.38628960623E+02 -0.11477278407E+03  0.17410620544E+03  0.12500463291E+03 0.  0.
    9000005    1    3    3    0    0  0.33723549067E+02 -0.28707841955E+02 -0.83194360461E+02  0.94253485686E+02  0.10000000000E+01 0.  0.
    9000005    1    3    3    0    0 -0.29051936817E+02  0.67336802578E+02 -0.31578423610E+02  0.79852719753E+02  0.10000000000E+01 0.  0.
          4    1    1    2  501    0 -0.46716122500E+01 -0.38628960623E+02 -0.56260097911E+02  0.68416606732E+02  0.12700000000E+01 0.  1.
<mgrwt>
<rscale>  1 0.13092051E+03</rscale>
<asrwt>0</asrwt>
<pdfrwt beam="2">  1       21 0.31810240E-01 0.13092051E+03</pdfrwt>
<pdfrwt beam="1">  1        4 0.54995256E-02 0.13092051E+03</pdfrwt>
<totfact> 0.78467409E+04</totfact>
</mgrwt>
</event>
<event>
 6    4  0.6277709E-003  0.1322961E+03  0.7818608E-02  0.1224088E+00
         21   -1    0    0  501  502  0.00000000000E+00  0.00000000000E+00  0.43367556585E+03  0.43367556585E+03  0.00000000000E+00 0.  1.
          4   -1    0    0  502    0 -0.00000000000E+00 -0.00000000000E+00 -0.23455547296E+02  0.23489904192E+02  0.12700000000E+01 0.  1.
         25    2    1    2    0    0 -0.33770597553E+02  0.27148929307E+02  0.18279696143E+03  0.22564791685E+03  0.12499894260E+03 0.  0.
    9000005    1    3    3    0    0 -0.71016523567E+02  0.43912050684E+02  0.82656198408E+02  0.11749324215E+03  0.10000000000E+01 0.  0.
    9000005    1    3    3    0    0  0.37245926014E+02 -0.16763121376E+02  0.10014076302E+03  0.10815467471E+03  0.10000000000E+01 0.  0.
          4    1    1    2  501    0  0.33770597553E+02 -0.27148929307E+02  0.22742305713E+03  0.23151755319E+03  0.12700000000E+01 0. -1.
<mgrwt>
<rscale>  1 0.13229608E+03</rscale>
<asrwt>0</asrwt>
<pdfrwt beam="1">  1       21 0.66719312E-01 0.13229608E+03</pdfrwt>
<pdfrwt beam="2">  1        4 0.36113319E-02 0.13229608E+03</pdfrwt>
<totfact> 0.33829019E+04</totfact>
</mgrwt>
</event>
<event>
 6    4  0.6277709E-003  0.1295634E+03  0.7818608E-02  0.1228105E+00
         21   -1    0    0  501  502  0.00000000000E+00  0.00000000000E+00  0.26038399068E+02  0.26038399068E+02  0.00000000000E+00 0.  1.
          4   -1    0    0  502    0 -0.00000000000E+00 -0.00000000000E+00 -0.25849593028E+03  0.25849905004E+03  0.12700000000E+01 0. -1.
         25    2    1    2    0    0  0.30262219495E+02 -0.15473693129E+02 -0.19283406253E+03  0.23231801519E+03  0.12502578696E+03 0.  0.
    9000005    1    3    3    0    0  0.26833304522E+02 -0.26902983379E+02  0.10885394204E+01  0.38026065591E+02  0.10000000000E+01 0.  0.
    9000005    1    3    3    0    0  0.34289149734E+01  0.11429290250E+02 -0.19392260195E+03  0.19429194960E+03  0.10000000000E+01 0.  0.
          4    1    1    2  501    0 -0.30262219495E+02  0.15473693129E+02 -0.39623468681E+02  0.52219433912E+02  0.12700000000E+01 0.  1.
<mgrwt>
<rscale>  1 0.12956344E+03</rscale>
<asrwt>0</asrwt>
<pdfrwt beam="1">  1       21 0.40059075E-02 0.12956344E+03</pdfrwt>
<pdfrwt beam="2">  1        4 0.39771228E-01 0.12956344E+03</pdfrwt>
<totfact> 0.96024010E+04</totfact>
</mgrwt>
</event>
<event>
 6    4  0.6277709E-003  0.1272590E+03  0.7818608E-02  0.1231581E+00
         21   -1    0    0  501  502  0.00000000000E+00  0.00000000000E+00  0.35336449085E+02  0.35336449085E+02  0.00000000000E+00 0.  1.
         -4   -1    0    0    0  501 -0.00000000000E+00 -0.00000000000E+00 -0.21039776637E+03  0.21040159932E+03  0.12700000000E+01 0. -1.
         25    2    1    2    0    0 -0.18042003378E+02 -0.15641122926E+02 -0.18084868090E+03  0.22113591252E+03  0.12499875125E+03 0.  0.
    9000005    1    3    3    0    0 -0.30619254903E+02  0.24094008367E+02 -0.17469994920E+03  0.17899478278E+03  0.10000000000E+01 0.  0.
    9000005    1    3    3    0    0  0.12577251524E+02 -0.39735131294E+02 -0.61487316928E+01  0.42141129746E+02  0.10000000000E+01 0.  0.
         -4    1    1    2    0  502  0.18042003378E+02  0.15641122926E+02  0.57873636059E+01  0.24602135879E+02  0.12700000000E+01 0.  1.
<mgrwt>
<rscale>  1 0.12725897E+03</rscale>
<asrwt>0</asrwt>
<pdfrwt beam="1">  1       21 0.54363767E-02 0.12725897E+03</pdfrwt>
<pdfrwt beam="2">  1       -4 0.32370938E-01 0.12725897E+03</pdfrwt>
<totfact> 0.85565095E+04</totfact>
</mgrwt>
</event>
<event>
 6    4  0.6277709E-003  0.1307964E+03  0.7818608E-02  0.1226279E+00
         21   -1    0    0  501  502  0.00000000000E+00  0.00000000000E+00  0.58668835609E+02  0.58668835609E+02  0.00000000000E+00 0.  1.
         -4   -1    0    0    0  501 -0.00000000000E+00 -0.00000000000E+00 -0.12551553517E+03  0.12552196011E+03  0.12700000000E+01 0.  1.
         25    2    1    2    0    0 -0.12680545550E+02  0.36395290111E+02 -0.63748453112E+02  0.14550455257E+03  0.12498918420E+03 0.  0.
    9000005    1    3    3    0    0 -0.34972980140E+02 -0.26163936295E+02 -0.65880965894E+02  0.79050379945E+02  0.10000000000E+01 0.  0.
    9000005    1    3    3    0    0  0.22292434590E+02  0.62559226406E+02  0.21325127817E+01  0.66454172624E+02  0.10000000000E+01 0.  0.
         -4    1    1    2    0  502  0.12680545550E+02 -0.36395290111E+02 -0.30982464482E+01  0.38686243146E+02  0.12700000000E+01 0. -1.
<mgrwt>
<rscale>  1 0.13079644E+03</rscale>
<asrwt>0</asrwt>
<pdfrwt beam="1">  1       21 0.90259748E-02 0.13079644E+03</pdfrwt>
<pdfrwt beam="2">  1       -4 0.19311634E-01 0.13079644E+03</pdfrwt>
<totfact> 0.93612659E+04</totfact>
</mgrwt>
</event>
<event>
 6    4  0.6277709E-003  0.1276403E+03  0.7818608E-02  0.1231000E+00
          4   -1    0    0  502    0 -0.00000000000E+00  0.00000000000E+00  0.49656476474E+03  0.49656638879E+03  0.12700000000E+01 0.  1.
         21   -1    0    0  501  502  0.00000000000E+00 -0.00000000000E+00 -0.12377041346E+02  0.12377041346E+02  0.00000000000E+00 0.  1.
         25    2    1    2    0    0  0.15219323369E+02 -0.20869160621E+02  0.43542524964E+03  0.45374794649E+03  0.12499960501E+03 0.  0.
    9000005    1    3    3    0    0 -0.40116637642E+02  0.31828807161E+02  0.17509274767E+03  0.18243050147E+03  0.10000000000E+01 0.  0.
    9000005    1    3    3    0    0  0.55335961011E+02 -0.52697967781E+02  0.26033250197E+03  0.27131744502E+03  0.10000000000E+01 0.  0.
          4    1    1    2  501    0 -0.15219323369E+02  0.20869160621E+02  0.48762473752E+02  0.55195483649E+02  0.12700000000E+01 0. -1.
<mgrwt>
<rscale>  1 0.12764032E+03</rscale>
<asrwt>0</asrwt>
<pdfrwt beam="2">  1       21 0.19041606E-02 0.12764032E+03</pdfrwt>
<pdfrwt beam="1">  1        4 0.76399701E-01 0.12764032E+03</pdfrwt>
<totfact> 0.83630022E+04</totfact>
</mgrwt>
</event>
<event>
 6    4  0.6277709E-003  0.1274217E+03  0.7818608E-02  0.1231332E+00
         -4   -1    0    0    0  501 -0.00000000000E+00  0.00000000000E+00  0.49204358318E+02  0.49220745397E+02  0.12700000000E+01 0.  1.
         21   -1    0    0  501  502  0.00000000000E+00 -0.00000000000E+00 -0.18840267059E+03  0.18840267059E+03  0.00000000000E+00 0. -1.
         25    2    1    2    0    0 -0.29191281678E+01 -0.24570580716E+02 -0.37318231618E+02  0.13277400741E+03  0.12499620748E+03 0.  0.
    9000005    1    3    3    0    0 -0.28251319901E+02 -0.62150938464E+02  0.79142810734E+01  0.68735086186E+02  0.10000000000E+01 0.  0.
    9000005    1    3    3    0    0  0.25332191733E+02  0.37580357748E+02 -0.45232512691E+02  0.64038921219E+02  0.10000000000E+01 0.  0.
         -4    1    1    2    0  502  0.29191281678E+01  0.24570580716E+02 -0.10188008066E+03  0.10484940858E+03  0.12700000000E+01 0. -1.
<mgrwt>
<rscale>  1 0.12742169E+03</rscale>
<asrwt>0</asrwt>
<pdfrwt beam="2">  1       21 0.28985026E-01 0.12742169E+03</pdfrwt>
<pdfrwt beam="1">  1       -4 0.75714911E-02 0.12742169E+03</pdfrwt>
<totfact> 0.55558496E+04</totfact>
</mgrwt>
</event>
<event>
 6    4  0.6277709E-003  0.1348699E+03  0.7818608E-02  0.1220404E+00
         21   -1    0    0  501  502  0.00000000000E+00  0.00000000000E+00  0.10354274929E+03  0.10354274929E+03  0.00000000000E+00 0.  1.
          4   -1    0    0  502    0 -0.00000000000E+00 -0.00000000000E+00 -0.89254333141E+02  0.89263368100E+02  0.12700000000E+01 0.  1.
         25    2    1    2    0    0  0.46730087395E+02  0.19538444524E+02  0.32908584693E+02  0.13882671892E+03  0.12499772421E+03 0.  0.
    9000005    1    3    3    0    0 -0.37162233217E+01  0.18157620396E+02 -0.43475584548E+02  0.47271936136E+02  0.10000000000E+01 0.  0.
    9000005    1    3    3    0    0  0.50446310717E+02  0.13808241283E+01  0.76384169241E+02  0.91554782785E+02  0.10000000000E+01 0.  0.
          4    1    1    2  501    0 -0.46730087395E+02 -0.19538444524E+02 -0.18620168544E+02  0.53979398468E+02  0.12700000000E+01 0. -1.
<mgrwt>
<rscale>  1 0.13486987E+03</rscale>
<asrwt>0</asrwt>
<pdfrwt beam="1">  1       21 0.15929654E-01 0.13486987E+03</pdfrwt>
<pdfrwt beam="2">  1        4 0.13732730E-01 0.13486987E+03</pdfrwt>
<totfact> 0.62512940E+04</totfact>
</mgrwt>
</event>
<event>
 6    4  0.6277709E-003  0.1274424E+03  0.7818608E-02  0.1231301E+00
         21   -1    0    0  501  502  0.00000000000E+00  0.00000000000E+00  0.15815696908E+03  0.15815696908E+03  0.00000000000E+00 0. -1.
         -4   -1    0    0    0  501 -0.00000000000E+00 -0.00000000000E+00 -0.36661850487E+02  0.36683840872E+02  0.12700000000E+01 0. -1.
         25    2    1    2    0    0 -0.21523972422E+02  0.12380129598E+02  0.10270871442E+03  0.16367847886E+03  0.12500006170E+03 0.  0.
    9000005    1    3    3    0    0 -0.72831419084E+02  0.16532824519E+02  0.49296244090E+02  0.89492287789E+02  0.10000000000E+01 0.  0.
    9000005    1    3    3    0    0  0.51307446663E+02 -0.41526949210E+01  0.53412470333E+02  0.74186191069E+02  0.10000000000E+01 0.  0.
         -4    1    1    2    0  502  0.21523972422E+02 -0.12380129598E+02  0.18786404172E+02  0.31162331097E+02  0.12700000000E+01 0.  1.
<mgrwt>
<rscale>  1 0.12744240E+03</rscale>
<asrwt>0</asrwt>
<pdfrwt beam="1">  1       21 0.24331841E-01 0.12744240E+03</pdfrwt>
<pdfrwt beam="2">  1       -4 0.56423686E-02 0.12744240E+03</pdfrwt>
<totfact> 0.12524188E+05</totfact>
</mgrwt>
</event>
<event>
 6    4  0.6277709E-003  0.1313653E+03  0.7818608E-02  0.1225444E+00
         21   -1    0    0  501  502  0.00000000000E+00  0.00000000000E+00  0.91469758220E+02  0.91469758220E+02  0.00000000000E+00 0.  1.
          4   -1    0    0  502    0 -0.00000000000E+00 -0.00000000000E+00 -0.42850135989E+03  0.42850324191E+03  0.12700000000E+01 0. -1.
         25    2    1    2    0    0  0.96761470751E+01  0.39298425837E+02 -0.41327136274E+03  0.43364740622E+03  0.12497543585E+03 0.  0.
    9000005    1    3    3    0    0  0.42355823203E+02  0.67461135325E+01 -0.43813822768E+02  0.61320281087E+02  0.10000000000E+01 0.  0.
    9000005    1    3    3    0    0 -0.32679676128E+02  0.32552312304E+02 -0.36945753997E+03  0.37232712513E+03  0.10000000000E+01 0.  0.
          4    1    1    2  501    0 -0.96761470751E+01 -0.39298425837E+02  0.76239761071E+02  0.86325593908E+02  0.12700000000E+01 0.  1.
<mgrwt>
<rscale>  1 0.13136534E+03</rscale>
<asrwt>0</asrwt>
<pdfrwt beam="1">  1       21 0.14072271E-01 0.13136534E+03</pdfrwt>
<pdfrwt beam="2">  1        4 0.65924109E-01 0.13136534E+03</pdfrwt>
<totfact> 0.39349156E+03</totfact>
</mgrwt>
</event>
<event>
 6    4  0.6277709E-003  0.1301772E+03  0.7818608E-02  0.1227193E+00
          4   -1    0    0  502    0 -0.00000000000E+00  0.00000000000E+00  0.16918201000E+03  0.16918677669E+03  0.12700000000E+01 0.  1.
         21   -1    0    0  501  502  0.00000000000E+00 -0.00000000000E+00 -0.41393485064E+02  0.41393485064E+02  0.00000000000E+00 0.  1.
         25    2    1    2    0    0  0.24938052612E+02 -0.26443023702E+02  0.10818752738E+03  0.16926498642E+03  0.12499981831E+03 0.  0.
    9000005    1    3    3    0    0  0.71161514233E+02  0.10572439836E+01  0.84510278179E+02  0.11049011716E+03  0.10000000000E+01 0.  0.
    9000005    1    3    3    0    0 -0.46223461621E+02 -0.27500267685E+02  0.23677249201E+02  0.58774869261E+02  0.10000000000E+01 0.  0.
          4    1    1    2  501    0 -0.24938052612E+02  0.26443023702E+02  0.19600997558E+02  0.41315275333E+02  0.12700000000E+01 0. -1.
<mgrwt>
<rscale>  1 0.13017717E+03</rscale>
<asrwt>0</asrwt>
<pdfrwt beam="2">  1       21 0.63682286E-02 0.13017717E+03</pdfrwt>
<pdfrwt beam="1">  1        4 0.26029866E-01 0.13017717E+03</pdfrwt>
<totfact> 0.98931139E+04</totfact>
</mgrwt>
</event>
<event>
 6    4  0.6277709E-003  0.1380091E+03  0.7818608E-02  0.1216033E+00
         21   -1    0    0  501  502  0.00000000000E+00  0.00000000000E+00  0.10572915193E+03  0.10572915193E+03  0.00000000000E+00 0. -1.
          4   -1    0    0  502    0 -0.00000000000E+00 -0.00000000000E+00 -0.11582231550E+03  0.11582927811E+03  0.12700000000E+01 0.  1.
         25    2    1    2    0    0  0.25020821349E+02 -0.52885562414E+02 -0.54208185739E+02  0.14827355921E+03  0.12499438686E+03 0.  0.
    9000005    1    3    3    0    0  0.30690107449E+02 -0.11456448718E+01 -0.83195091048E+02  0.88688321508E+02  0.10000000000E+01 0.  0.
    9000005    1    3    3    0    0 -0.56692861004E+01 -0.51739917542E+02  0.28986905310E+02  0.59585237698E+02  0.10000000000E+01 0.  0.
          4    1    1    2  501    0 -0.25020821349E+02  0.52885562414E+02  0.44115022163E+02  0.73284870834E+02  0.12700000000E+01 0. -1.
<mgrwt>
<rscale>  1 0.13800913E+03</rscale>
<asrwt>0</asrwt>
<pdfrwt beam="1">  1       21 0.16266023E-01 0.13800913E+03</pdfrwt>
<pdfrwt beam="2">  1        4 0.17819940E-01 0.13800913E+03</pdfrwt>
<totfact> 0.38213772E+04</totfact>
</mgrwt>
</event>
<event>
 6    4  0.6277709E-003  0.1353260E+03  0.7818608E-02  0.1219760E+00
         21   -1    0    0  501  502  0.00000000000E+00  0.00000000000E+00  0.31636192782E+04  0.31636192782E+04  0.00000000000E+00 0.  1.
         -4   -1    0    0    0  501 -0.00000000000E+00 -0.00000000000E+00 -0.26483909699E+01  0.29371541889E+01  0.12700000000E+01 0. -1.
         25    2    1    2    0    0 -0.49535033782E+02 -0.15288486651E+02  0.21472831462E+04  0.21515431780E+04  0.12500271755E+03 0.  0.
    9000005    1    3    3    0    0  0.18573026444E+02 -0.34984548578E+02  0.26702613689E+03  0.26994968741E+03  0.10000000000E+01 0.  0.
    9000005    1    3    3    0    0 -0.68108060226E+02  0.19696061927E+02  0.18802570094E+04  0.18815934906E+04  0.10000000000E+01 0.  0.
         -4    1    1    2    0  502  0.49535033782E+02  0.15288486651E+02  0.10136877410E+04  0.10150132543E+04  0.12700000000E+01 0.  1.
<mgrwt>
<rscale>  1 0.13532604E+03</rscale>
<asrwt>0</asrwt>
<pdfrwt beam="1">  1       21 0.48670779E+00 0.13532604E+03</pdfrwt>
<pdfrwt beam="2">  1       -4 0.42967946E-03 0.13532604E+03</pdfrwt>
<totfact> 0.10875890E+03</totfact>
</mgrwt>
</event>
<event>
 6    4  0.6277709E-003  0.1279821E+03  0.7818608E-02  0.1230481E+00
         -4   -1    0    0    0  501 -0.00000000000E+00  0.00000000000E+00  0.55427437404E+03  0.55427582901E+03  0.12700000000E+01 0. -1.
         21   -1    0    0  501  502  0.00000000000E+00 -0.00000000000E+00 -0.17483659518E+02  0.17483659518E+02  0.00000000000E+00 0. -1.
         25    2    1    2    0    0 -0.26525269611E+02 -0.70822494093E+01  0.52741427880E+03  0.54272022835E+03  0.12500270633E+03 0.  0.
    9000005    1    3    3    0    0 -0.58014341865E+02 -0.48689123929E+02  0.31954360120E+03  0.32839824560E+03  0.10000000000E+01 0.  0.
    9000005    1    3    3    0    0  0.31489072254E+02  0.41606874520E+02  0.20787067761E+03  0.21432198274E+03  0.10000000000E+01 0.  0.
         -4    1    1    2    0  502  0.26525269611E+02  0.70822494093E+01  0.93764357220E+01  0.29039260174E+02  0.12700000000E+01 0.  1.
<mgrwt>
<rscale>  1 0.12798213E+03</rscale>
<asrwt>0</asrwt>
<pdfrwt beam="2">  1       21 0.26897942E-02 0.12798213E+03</pdfrwt>
<pdfrwt beam="1">  1       -4 0.85276627E-01 0.12798213E+03</pdfrwt>
<totfact> 0.37478674E+04</totfact>
</mgrwt>
</event>
<event>
 6    4  0.6277709E-003  0.1267369E+03  0.7818608E-02  0.1232379E+00
         21   -1    0    0  501  502  0.00000000000E+00  0.00000000000E+00  0.10269741418E+03  0.10269741418E+03  0.00000000000E+00 0.  1.
         -4   -1    0    0    0  501 -0.00000000000E+00 -0.00000000000E+00 -0.78987259032E+02  0.78997468247E+02  0.12700000000E+01 0. -1.
         25    2    1    2    0    0 -0.72443551727E+01 -0.19628828402E+02 -0.24537562510E+02  0.12909044587E+03  0.12499791860E+03 0.  0.
    9000005    1    3    3    0    0  0.46633062796E+02 -0.40803066599E+02  0.83057381724E+01  0.62526139144E+02  0.10000000000E+01 0.  0.
    9000005    1    3    3    0    0 -0.53877417969E+02  0.21174238197E+02 -0.32843300682E+02  0.66564306726E+02  0.10000000000E+01 0.  0.
         -4    1    1    2    0  502  0.72443551727E+01  0.19628828402E+02  0.48247717659E+02  0.52604436558E+02  0.12700000000E+01 0.  1.
<mgrwt>
<rscale>  1 0.12673694E+03</rscale>
<asrwt>0</asrwt>
<pdfrwt beam="1">  1       21 0.15799602E-01 0.12673694E+03</pdfrwt>
<pdfrwt beam="2">  1       -4 0.12153275E-01 0.12673694E+03</pdfrwt>
<totfact> 0.77665400E+04</totfact>
</mgrwt>
</event>
<event>
 6    4  0.6277709E-003  0.1312304E+03  0.7818608E-02  0.1225641E+00
         21   -1    0    0  501  502  0.00000000000E+00  0.00000000000E+00  0.52550141719E+02  0.52550141719E+02  0.00000000000E+00 0. -1.
          4   -1    0    0  502    0 -0.00000000000E+00 -0.00000000000E+00 -0.37750946129E+03  0.37751159752E+03  0.12700000000E+01 0.  1.
         25    2    1    2    0    0 -0.16824726786E+02  0.36232371685E+02 -0.35602465532E+03  0.37944035863E+03  0.12500229747E+03 0.  0.
    9000005    1    3    3    0    0 -0.22752315892E+01 -0.43545863415E+02 -0.73120989352E+02  0.85141634840E+02  0.10000000000E+01 0.  0.
    9000005    1    3    3    0    0 -0.14549495196E+02  0.79778235101E+02 -0.28290366597E+03  0.29429872379E+03  0.10000000000E+01 0.  0.
          4    1    1    2  501    0  0.16824726786E+02 -0.36232371685E+02  0.31065335752E+02  0.50621380608E+02  0.12700000000E+01 0. -1.
<mgrwt>
<rscale>  1 0.13123045E+03</rscale>
<asrwt>0</asrwt>
<pdfrwt beam="1">  1       21 0.80846373E-02 0.13123045E+03</pdfrwt>
<pdfrwt beam="2">  1        4 0.58079723E-01 0.13123045E+03</pdfrwt>
<totfact> 0.13622604E+04</totfact>
</mgrwt>
</event>
<event>
 6    4  0.6277709E-003  0.1362536E+03  0.7818608E-02  0.1218461E+00
         -4   -1    0    0    0  501 -0.00000000000E+00  0.00000000000E+00  0.10477475193E+03  0.10478244864E+03  0.12700000000E+01 0. -1.
         21   -1    0    0  501  502  0.00000000000E+00 -0.00000000000E+00 -0.13703762237E+03  0.13703762237E+03  0.00000000000E+00 0.  1.
         25    2    1    2    0    0  0.50376677438E+02 -0.20056047098E+02  0.48420424157E+02  0.14460144326E+03  0.12499994105E+03 0.  0.
    9000005    1    3    3    0    0  0.54473907693E+02 -0.89016439709E+01 -0.31658895654E+02  0.63639072579E+02  0.10000000000E+01 0.  0.
    9000005    1    3    3    0    0 -0.40972302547E+01 -0.11154403127E+02  0.80079319811E+02  0.80962370681E+02  0.10000000000E+01 0.  0.
         -4    1    1    2    0  502 -0.50376677438E+02  0.20056047098E+02 -0.80683294598E+02  0.97218627752E+02  0.12700000000E+01 0.  1.
<mgrwt>
<rscale>  1 0.13625359E+03</rscale>
<asrwt>0</asrwt>
<pdfrwt beam="2">  1       21 0.21082711E-01 0.13625359E+03</pdfrwt>
<pdfrwt beam="1">  1       -4 0.16120237E-01 0.13625359E+03</pdfrwt>
<totfact> 0.28279067E+04</totfact>
</mgrwt>
</event>
<event>
 6    4  0.6277709E-003  0.1279608E+03  0.7818608E-02  0.1230513E+00
         -4   -1    0    0    0  501 -0.00000000000E+00  0.00000000000E+00  0.38791561888E+02  0.38812345635E+02  0.12700000000E+01 0. -1.
         21   -1    0    0  501  502  0.00000000000E+00 -0.00000000000E+00 -0.19915291758E+03  0.19915291758E+03  0.00000000000E+00 0.  1.
         25    2    1    2    0    0  0.12751015471E+02  0.24214983901E+02 -0.75011707066E+02  0.14832638069E+03  0.12500002068E+03 0.  0.
    9000005    1    3    3    0    0 -0.48948992818E+02  0.28375865177E+02 -0.64132200424E+02  0.85528549348E+02  0.10000000000E+01 0.  0.
    9000005    1    3    3    0    0  0.61700008289E+02 -0.41608812760E+01 -0.10879506643E+02  0.62797831337E+02  0.10000000000E+01 0.  0.
         -4    1    1    2    0  502 -0.12751015471E+02 -0.24214983901E+02 -0.85349648629E+02  0.89638882534E+02  0.12700000000E+01 0.  1.
<mgrwt>
<rscale>  1 0.12796077E+03</rscale>
<asrwt>0</asrwt>
<pdfrwt beam="2">  1       21 0.30638911E-01 0.12796077E+03</pdfrwt>
<pdfrwt beam="1">  1       -4 0.59698427E-02 0.12796077E+03</pdfrwt>
<totfact> 0.73675096E+04</totfact>
</mgrwt>
</event>
<event>
 6    4  0.6277709E-003  0.1287484E+03  0.7818608E-02  0.1229325E+00
         21   -1    0    0  501  502  0.00000000000E+00  0.00000000000E+00  0.54967936759E+01  0.54967936759E+01  0.00000000000E+00 0.  1.
         -4   -1    0    0    0  501 -0.00000000000E+00 -0.00000000000E+00 -0.15030150481E+04  0.15030155846E+04  0.12700000000E+01 0.  1.
         25    2    1    2    0    0  0.10138025010E+02 -0.29109161758E+02 -0.14070618452E+04  0.14129399047E+04  0.12500406066E+03 0.  0.
    9000005    1    3    3    0    0 -0.38781218579E+02  0.31527680854E+02 -0.47316297916E+03  0.47579636655E+03  0.10000000000E+01 0.  0.
    9000005    1    3    3    0    0  0.48919243588E+02 -0.60636842612E+02 -0.93389886602E+03  0.93714353812E+03  0.10000000000E+01 0.  0.
         -4    1    1    2    0  502 -0.10138025010E+02  0.29109161758E+02 -0.90456409232E+02  0.95572473654E+02  0.12700000000E+01 0. -1.
<mgrwt>
<rscale>  1 0.12874835E+03</rscale>
<asrwt>0</asrwt>
<pdfrwt beam="1">  1       21 0.84566011E-03 0.12874835E+03</pdfrwt>
<pdfrwt beam="2">  1       -4 0.23124454E+00 0.12874835E+03</pdfrwt>
<totfact> 0.18704364E+04</totfact>
</mgrwt>
</event>
<event>
 6    4  0.6277709E-003  0.1325929E+03  0.7818608E-02  0.1223658E+00
          4   -1    0    0  502    0 -0.00000000000E+00  0.00000000000E+00  0.83700057148E+03  0.83700153498E+03  0.12700000000E+01 0.  1.
         21   -1    0    0  501  502  0.00000000000E+00 -0.00000000000E+00 -0.18434097717E+02  0.18434097717E+02  0.00000000000E+00 0. -1.
         25    2    1    2    0    0  0.10335992432E+02 -0.43009973779E+02  0.79365146516E+03  0.80465117506E+03  0.12499669912E+03 0.  0.
    9000005    1    3    3    0    0 -0.79700884154E+01 -0.56686317959E+02  0.14940945831E+03  0.16000327242E+03  0.10000000000E+01 0.  0.
    9000005    1    3    3    0    0  0.18306080847E+02  0.13676344180E+02  0.64424200684E+03  0.64464790263E+03  0.10000000000E+01 0.  0.
          4    1    1    2  501    0 -0.10335992432E+02  0.43009973779E+02  0.24915008609E+02  0.50784457643E+02  0.12700000000E+01 0. -1.
<mgrwt>
<rscale>  1 0.13259286E+03</rscale>
<asrwt>0</asrwt>
<pdfrwt beam="2">  1       21 0.28360157E-02 0.13259286E+03</pdfrwt>
<pdfrwt beam="1">  1        4 0.12877273E+00 0.13259286E+03</pdfrwt>
<totfact> 0.13193780E+04</totfact>
</mgrwt>
</event>
<event>
 6    4  0.6277709E-003  0.1286633E+03  0.7818608E-02  0.1229453E+00
          4   -1    0    0  502    0 -0.00000000000E+00  0.00000000000E+00  0.65391287397E+03  0.65391410724E+03  0.12700000000E+01 0.  1.
         21   -1    0    0  501  502  0.00000000000E+00 -0.00000000000E+00 -0.42699273547E+02  0.42699273547E+02  0.00000000000E+00 0.  1.
         25    2    1    2    0    0 -0.30407893594E+02 -0.23858592224E+01  0.64110495904E+03  0.65388822968E+03  0.12499566431E+03 0.  0.
    9000005    1    3    3    0    0  0.27544529890E+02  0.41970757881E+02  0.35900914290E+03  0.36250353147E+03  0.10000000000E+01 0.  0.
    9000005    1    3    3    0    0 -0.57952423484E+02 -0.44356617104E+02  0.28209581614E+03  0.29138469821E+03  0.10000000000E+01 0.  0.
          4    1    1    2  501    0  0.30407893594E+02  0.23858592224E+01 -0.29891358613E+02  0.42725151103E+02  0.12700000000E+01 0. -1.
<mgrwt>
<rscale>  1 0.12866331E+03</rscale>
<asrwt>0</asrwt>
<pdfrwt beam="2">  1       21 0.65691195E-02 0.12866331E+03</pdfrwt>
<pdfrwt beam="1">  1        4 0.10060352E+00 0.12866331E+03</pdfrwt>
<totfact> 0.58208105E+03</totfact>
</mgrwt>
</event>
<event>
 6    4  0.6277709E-003  0.1266188E+03  0.7818608E-02  0.1232561E+00
         21   -1    0    0  501  502  0.00000000000E+00  0.00000000000E+00  0.50594271412E+01  0.50594271412E+01  0.00000000000E+00 0.  1.
         -4   -1    0    0    0  501 -0.00000000000E+00 -0.00000000000E+00 -0.10689244176E+04  0.10689251720E+04  0.12700000000E+01 0.  1.
         25    2    1    2    0    0 -0.16304530298E+02  0.11626970511E+02 -0.94354787688E+03  0.95200572859E+03  0.12502514612E+03 0.  0.
    9000005    1    3    3    0    0 -0.37886727969E+01 -0.49811638696E+02 -0.64558225193E+03  0.64751293223E+03  0.10000000000E+01 0.  0.
    9000005    1    3    3    0    0 -0.12515857501E+02  0.61438609206E+02 -0.29796562494E+03  0.30449279636E+03  0.10000000000E+01 0.  0.
         -4    1    1    2    0  502  0.16304530298E+02 -0.11626970511E+02 -0.12031711353E+03  0.12197887055E+03  0.12700000000E+01 0. -1.
<mgrwt>
<rscale>  1 0.12661876E+03</rscale>
<asrwt>0</asrwt>
<pdfrwt beam="1">  1       21 0.77837268E-03 0.12661876E+03</pdfrwt>
<pdfrwt beam="2">  1       -4 0.16446238E+00 0.12661876E+03</pdfrwt>
<totfact> 0.55841163E+04</totfact>
</mgrwt>
</event>
<event>
 6    4  0.6277709E-003  0.1352494E+03  0.7818608E-02  0.1219868E+00
          4   -1    0    0  502    0 -0.00000000000E+00  0.00000000000E+00  0.49084317830E+03  0.49084482128E+03  0.12700000000E+01 0.  1.
         21   -1    0    0  501  502  0.00000000000E+00 -0.00000000000E+00 -0.19769896343E+02  0.19769896343E+02  0.00000000000E+00 0. -1.
         25    2    1    2    0    0 -0.34098015768E+02  0.38793386932E+02  0.40343396515E+03  0.42550131312E+03  0.12499920673E+03 0.  0.
    9000005    1    3    3    0    0  0.37632271723E+02  0.38824215838E+02  0.99822445324E+02  0.11352985599E+03  0.10000000000E+01 0.  0.
    9000005    1    3    3    0    0 -0.71730287491E+02 -0.30828906223E-01  0.30361151982E+03  0.31197145713E+03  0.10000000000E+01 0.  0.
          4    1    1    2  501    0  0.34098015768E+02 -0.38793386932E+02  0.67639316805E+02  0.85113404507E+02  0.12700000000E+01 0. -1.
<mgrwt>
<rscale>  1 0.13524941E+03</rscale>
<asrwt>0</asrwt>
<pdfrwt beam="2">  1       21 0.30415229E-02 0.13524941E+03</pdfrwt>
<pdfrwt beam="1">  1        4 0.75517590E-01 0.13524941E+03</pdfrwt>
<totfact> 0.40372677E+04</totfact>
</mgrwt>
</event>
<event>
 6    4  0.6277709E-003  0.1267170E+03  0.7818608E-02  0.1232410E+00
          4   -1    0    0  502    0 -0.00000000000E+00  0.00000000000E+00  0.92952606517E+02  0.92961282038E+02  0.12700000000E+01 0.  1.
         21   -1    0    0  501  502  0.00000000000E+00 -0.00000000000E+00 -0.65904648070E+02  0.65904648070E+02  0.00000000000E+00 0. -1.
         25    2    1    2    0    0 -0.19710588507E+02  0.66892329288E+01  0.41674863996E+02  0.13339413389E+03  0.12499579006E+03 0.  0.
    9000005    1    3    3    0    0  0.36968643136E+02 -0.39222495437E+01 -0.25323035292E+02  0.44992451959E+02  0.10000000000E+01 0.  0.
    9000005    1    3    3    0    0 -0.56679231643E+02  0.10611482473E+02  0.66997899288E+02  0.88401681935E+02  0.10000000000E+01 0.  0.
          4    1    1    2  501    0  0.19710588507E+02 -0.66892329288E+01 -0.14626905550E+02  0.25471796215E+02  0.12700000000E+01 0. -1.
<mgrwt>
<rscale>  1 0.12671701E+03</rscale>
<asrwt>0</asrwt>
<pdfrwt beam="2">  1       21 0.10139177E-01 0.12671701E+03</pdfrwt>
<pdfrwt beam="1">  1        4 0.14302010E-01 0.12671701E+03</pdfrwt>
<totfact> 0.12913979E+05</totfact>
</mgrwt>
</event>
<event>
 6    4  0.6277709E-003  0.1293919E+03  0.7818608E-02  0.1228361E+00
          4   -1    0    0  502    0 -0.00000000000E+00  0.00000000000E+00  0.14505547655E+03  0.14506103604E+03  0.12700000000E+01 0. -1.
         21   -1    0    0  501  502  0.00000000000E+00 -0.00000000000E+00 -0.49702465354E+02  0.49702465354E+02  0.00000000000E+00 0. -1.
         25    2    1    2    0    0  0.16829375381E+02  0.28880414929E+02  0.96308327195E+02  0.16129961383E+03  0.12499986117E+03 0.  0.
    9000005    1    3    3    0    0 -0.45888121076E+02  0.34525487570E+02  0.16742413474E+02  0.59825056263E+02  0.10000000000E+01 0.  0.
    9000005    1    3    3    0    0  0.62717496458E+02 -0.56450726412E+01  0.79565913720E+02  0.10147455757E+03  0.10000000000E+01 0.  0.
          4    1    1    2  501    0 -0.16829375381E+02 -0.28880414929E+02 -0.95531600138E+00  0.33463887564E+02  0.12700000000E+01 0.  1.
<mgrwt>
<rscale>  1 0.12939193E+03</rscale>
<asrwt>0</asrwt>
<pdfrwt beam="2">  1       21 0.76465332E-02 0.12939193E+03</pdfrwt>
<pdfrwt beam="1">  1        4 0.22317903E-01 0.12939193E+03</pdfrwt>
<totfact> 0.95884813E+04</totfact>
</mgrwt>
</event>
<event>
 6    4  0.6277709E-003  0.1303179E+03  0.7818608E-02  0.1226985E+00
         21   -1    0    0  501  502  0.00000000000E+00  0.00000000000E+00  0.10472561827E+04  0.10472561827E+04  0.00000000000E+00 0.  1.
         -4   -1    0    0    0  501 -0.00000000000E+00 -0.00000000000E+00 -0.12246254647E+02  0.12311931322E+02  0.12700000000E+01 0. -1.
         25    2    1    2    0    0  0.66406066960E+01 -0.36253538257E+02  0.34850326310E+03  0.37207161903E+03  0.12499739440E+03 0.  0.
    9000005    1    3    3    0    0  0.15499746511E+02  0.39092575813E+02  0.56907458511E+02  0.70766732719E+02  0.10000000000E+01 0.  0.
    9000005    1    3    3    0    0 -0.88591398147E+01 -0.75346114070E+02  0.29159580458E+03  0.30130488631E+03  0.10000000000E+01 0.  0.
         -4    1    1    2    0  502 -0.66406066960E+01  0.36253538257E+02  0.68650666492E+03  0.68749649495E+03  0.12700000000E+01 0.  1.
<mgrwt>
<rscale>  1 0.13031794E+03</rscale>
<asrwt>0</asrwt>
<pdfrwt beam="1">  1       21 0.16111627E+00 0.13031794E+03</pdfrwt>
<pdfrwt beam="2">  1       -4 0.18891513E-02 0.13031794E+03</pdfrwt>
<totfact> 0.11419268E+04</totfact>
</mgrwt>
</event>
<event>
 6    4  0.6277709E-003  0.1279439E+03  0.7818608E-02  0.1230539E+00
         21   -1    0    0  501  502  0.00000000000E+00  0.00000000000E+00  0.49374303459E+03  0.49374303459E+03  0.00000000000E+00 0.  1.
          4   -1    0    0  502    0 -0.00000000000E+00 -0.00000000000E+00 -0.16075914951E+02  0.16126002032E+02  0.12700000000E+01 0. -1.
         25    2    1    2    0    0 -0.22071633796E+02 -0.16046024436E+02  0.25264189414E+03  0.28319173973E+03  0.12500001142E+03 0.  0.
    9000005    1    3    3    0    0 -0.41982721927E+01 -0.24628116906E+02  0.26060522092E+03  0.26180193048E+03  0.10000000000E+01 0.  0.
    9000005    1    3    3    0    0 -0.17873361603E+02  0.85820924703E+01 -0.79633267789E+01  0.21389809245E+02  0.10000000000E+01 0.  0.
          4    1    1    2  501    0  0.22071633796E+02  0.16046024436E+02  0.22502522549E+03  0.22667729689E+03  0.12700000000E+01 0.  1.
<mgrwt>
<rscale>  1 0.12794387E+03</rscale>
<asrwt>0</asrwt>
<pdfrwt beam="1">  1       21 0.75960455E-01 0.12794387E+03</pdfrwt>
<pdfrwt beam="2">  1        4 0.24771966E-02 0.12794387E+03</pdfrwt>
<totfact> 0.45794775E+04</totfact>
</mgrwt>
</event>
<event>
 6    4  0.6277709E-003  0.1352070E+03  0.7818608E-02  0.1219928E+00
         21   -1    0    0  501  502  0.00000000000E+00  0.00000000000E+00  0.26557970378E+03  0.26557970378E+03  0.00000000000E+00 0.  1.
          4   -1    0    0  502    0 -0.00000000000E+00 -0.00000000000E+00 -0.34183049719E+02  0.34206633685E+02  0.12700000000E+01 0. -1.
         25    2    1    2    0    0 -0.35179624577E+02  0.37666810404E+02  0.13857427211E+03  0.19360723367E+03  0.12499814978E+03 0.  0.
    9000005    1    3    3    0    0  0.89077593104E+00  0.75437317665E+02  0.49157334847E+02  0.90050130192E+02  0.10000000000E+01 0.  0.
    9000005    1    3    3    0    0 -0.36070400508E+02 -0.37770507261E+02  0.89416937261E+02  0.10355710348E+03  0.10000000000E+01 0.  0.
          4    1    1    2  501    0  0.35179624577E+02 -0.37666810404E+02  0.92822381957E+02  0.10617910380E+03  0.12700000000E+01 0.  1.
<mgrwt>
<rscale>  1 0.13520700E+03</rscale>
<asrwt>0</asrwt>
<pdfrwt beam="1">  1       21 0.40858415E-01 0.13520700E+03</pdfrwt>
<pdfrwt beam="2">  1        4 0.52609786E-02 0.13520700E+03</pdfrwt>
<totfact> 0.51618854E+04</totfact>
</mgrwt>
</event>
<event>
 6    4  0.6277709E-003  0.1315737E+03  0.7818608E-02  0.1225139E+00
          4   -1    0    0  502    0 -0.00000000000E+00  0.00000000000E+00  0.12798963776E+04  0.12798970076E+04  0.12700000000E+01 0. -1.
         21   -1    0    0  501  502  0.00000000000E+00 -0.00000000000E+00 -0.58847500322E+01  0.58847500322E+01  0.00000000000E+00 0.  1.
         25    2    1    2    0    0  0.27956172656E+02  0.30097152577E+02  0.10232995145E+04  0.10317235700E+04  0.12499696973E+03 0.  0.
    9000005    1    3    3    0    0 -0.12540150514E+02 -0.43718318552E+02  0.44635219447E+03  0.44866449409E+03  0.10000000000E+01 0.  0.
    9000005    1    3    3    0    0  0.40496323170E+02  0.73815471129E+02  0.57694732002E+03  0.58305907595E+03  0.10000000000E+01 0.  0.
          4    1    1    2  501    0 -0.27956172656E+02 -0.30097152577E+02  0.25071211303E+03  0.25405818764E+03  0.12700000000E+01 0.  1.
<mgrwt>
<rscale>  1 0.13157366E+03</rscale>
<asrwt>0</asrwt>
<pdfrwt beam="2">  1       21 0.90534718E-03 0.13157366E+03</pdfrwt>
<pdfrwt beam="1">  1        4 0.19691750E+00 0.13157366E+03</pdfrwt>
<totfact> 0.27117815E+04</totfact>
</mgrwt>
</event>
<event>
 6    4  0.6277709E-003  0.1298834E+03  0.7818608E-02  0.1227629E+00
         -4   -1    0    0    0  501 -0.00000000000E+00  0.00000000000E+00  0.48301566584E+03  0.48301733545E+03  0.12700000000E+01 0.  1.
         21   -1    0    0  501  502  0.00000000000E+00 -0.00000000000E+00 -0.28720929728E+02  0.28720929728E+02  0.00000000000E+00 0. -1.
         25    2    1    2    0    0 -0.31324650314E+02 -0.16243357071E+02  0.45816396559E+03  0.47621835241E+03  0.12499847774E+03 0.  0.
    9000005    1    3    3    0    0 -0.75559661091E+02 -0.23571260871E+01  0.35720426915E+03  0.36511738979E+03  0.10000000000E+01 0.  0.
    9000005    1    3    3    0    0  0.44235010777E+02 -0.13886230984E+02  0.10095969644E+03  0.11110096262E+03  0.10000000000E+01 0.  0.
         -4    1    1    2    0  502  0.31324650314E+02  0.16243357071E+02 -0.38692294821E+01  0.35519912768E+02  0.12700000000E+01 0. -1.
<mgrwt>
<rscale>  1 0.12988341E+03</rscale>
<asrwt>0</asrwt>
<pdfrwt beam="2">  1       21 0.44186049E-02 0.12988341E+03</pdfrwt>
<pdfrwt beam="1">  1       -4 0.74312385E-01 0.12988341E+03</pdfrwt>
<totfact> 0.22423479E+04</totfact>
</mgrwt>
</event>
<event>
 6    4  0.6277709E-003  0.1332281E+03  0.7818608E-02  0.1222743E+00
         21   -1    0    0  501  502  0.00000000000E+00  0.00000000000E+00  0.18334049884E+02  0.18334049884E+02  0.00000000000E+00 0.  1.
          4   -1    0    0  502    0 -0.00000000000E+00 -0.00000000000E+00 -0.78686411397E+03  0.78686513886E+03  0.12700000000E+01 0. -1.
         25    2    1    2    0    0  0.10873972801E+01  0.46087517319E+02 -0.73791276532E+03  0.74984330767E+03  0.12499798060E+03 0.  0.
    9000005    1    3    3    0    0  0.40440632023E+02  0.27079986729E+02 -0.10856940098E+03  0.11898355025E+03  0.10000000000E+01 0.  0.
    9000005    1    3    3    0    0 -0.39353234743E+02  0.19007530590E+02 -0.62934336433E+03  0.63085975742E+03  0.10000000000E+01 0.  0.
          4    1    1    2  501    0 -0.10873972801E+01 -0.46087517319E+02 -0.30617298767E+02  0.55355881072E+02  0.12700000000E+01 0.  1.
<mgrwt>
<rscale>  1 0.13322814E+03</rscale>
<asrwt>0</asrwt>
<pdfrwt beam="1">  1       21 0.28206226E-02 0.13322814E+03</pdfrwt>
<pdfrwt beam="2">  1        4 0.12105950E+00 0.13322814E+03</pdfrwt>
<totfact> 0.15471858E+04</totfact>
</mgrwt>
</event>
<event>
 6    4  0.6277709E-003  0.1268438E+03  0.7818608E-02  0.1232216E+00
         -4   -1    0    0    0  501 -0.00000000000E+00  0.00000000000E+00  0.54716606007E+01  0.56171140036E+01  0.12700000000E+01 0. -1.
         21   -1    0    0  501  502  0.00000000000E+00 -0.00000000000E+00 -0.99620827872E+03  0.99620827872E+03  0.00000000000E+00 0. -1.
         25    2    1    2    0    0  0.21360248981E+02 -0.28342074856E+01 -0.82660916552E+03  0.83628468303E+03  0.12500026233E+03 0.  0.
    9000005    1    3    3    0    0  0.50453944918E+02 -0.12620788645E+02 -0.77104505702E+03  0.77279775156E+03  0.10000000000E+01 0.  0.
    9000005    1    3    3    0    0 -0.29093695937E+02  0.97865811591E+01 -0.55564108501E+02  0.63486931471E+02  0.10000000000E+01 0.  0.
         -4    1    1    2    0  502 -0.21360248981E+02  0.28342074856E+01 -0.16412745260E+03  0.16554070969E+03  0.12700000000E+01 0.  1.
<mgrwt>
<rscale>  1 0.12684384E+03</rscale>
<asrwt>0</asrwt>
<pdfrwt beam="2">  1       21 0.15326283E+00 0.12684384E+03</pdfrwt>
<pdfrwt beam="1">  1       -4 0.85304485E-03 0.12684384E+03</pdfrwt>
<totfact> 0.43382681E+04</totfact>
</mgrwt>
</event>
<event>
 6    4  0.6277709E-003  0.1270198E+03  0.7818608E-02  0.1231946E+00
          4   -1    0    0  502    0 -0.00000000000E+00  0.00000000000E+00  0.17144029493E+03  0.17144499884E+03  0.12700000000E+01 0. -1.
         21   -1    0    0  501  502  0.00000000000E+00 -0.00000000000E+00 -0.35484575761E+02  0.35484575761E+02  0.00000000000E+00 0. -1.
         25    2    1    2    0    0 -0.16404535119E+02  0.15498636070E+02  0.13337043508E+03  0.18417846284E+03  0.12499886691E+03 0.  0.
    9000005    1    3    3    0    0  0.31723418166E+02  0.53109379128E+02  0.90179206561E+02  0.10936302258E+03  0.10000000000E+01 0.  0.
    9000005    1    3    3    0    0 -0.48127953285E+02 -0.37610743058E+02  0.43191228518E+02  0.74815440262E+02  0.10000000000E+01 0.  0.
          4    1    1    2  501    0  0.16404535119E+02 -0.15498636070E+02  0.25852840939E+01  0.22751111761E+02  0.12700000000E+01 0.  1.
<mgrwt>
<rscale>  1 0.12701981E+03</rscale>
<asrwt>0</asrwt>
<pdfrwt beam="2">  1       21 0.54591656E-02 0.12701981E+03</pdfrwt>
<pdfrwt beam="1">  1        4 0.26377539E-01 0.12701981E+03</pdfrwt>
<totfact> 0.12484367E+05</totfact>
</mgrwt>
</event>
<event>
 6    4  0.6277709E-003  0.1284135E+03  0.7818608E-02  0.1229829E+00
          4   -1    0    0  502    0 -0.00000000000E+00  0.00000000000E+00  0.59725628887E+02  0.59739129939E+02  0.12700000000E+01 0.  1.
         21   -1    0    0  501  502  0.00000000000E+00 -0.00000000000E+00 -0.10498714070E+03  0.10498714070E+03  0.00000000000E+00 0. -1.
         25    2    1    2    0    0 -0.28341706422E+02 -0.78283561079E+01 -0.31409967442E+02  0.13219914867E+03  0.12500197347E+03 0.  0.
    9000005    1    3    3    0    0 -0.70380962534E+02 -0.15186970963E+02 -0.47845884794E+02  0.86454338619E+02  0.10000000000E+01 0.  0.
    9000005    1    3    3    0    0  0.42039256112E+02  0.73586148551E+01  0.16435917352E+02  0.45744810047E+02  0.10000000000E+01 0.  0.
          4    1    1    2  501    0  0.28341706422E+02  0.78283561079E+01 -0.13851544367E+02  0.32527121969E+02  0.12700000000E+01 0. -1.
<mgrwt>
<rscale>  1 0.12841351E+03</rscale>
<asrwt>0</asrwt>
<pdfrwt beam="2">  1       21 0.16151868E-01 0.12841351E+03</pdfrwt>
<pdfrwt beam="1">  1        4 0.91901878E-02 0.12841351E+03</pdfrwt>
<totfact> 0.11990443E+05</totfact>
</mgrwt>
</event>
<event>
 6    4  0.6277709E-003  0.1537286E+03  0.7818608E-02  0.1195965E+00
         -4   -1    0    0    0  501 -0.00000000000E+00  0.00000000000E+00  0.11452645389E+03  0.11453349528E+03  0.12700000000E+01 0.  1.
         21   -1    0    0  501  502  0.00000000000E+00 -0.00000000000E+00 -0.12921321856E+03  0.12921321856E+03  0.00000000000E+00 0. -1.
         25    2    1    2    0    0 -0.80090310863E+02  0.39914746491E+02 -0.62522430186E+01  0.15385567459E+03  0.12499933272E+03 0.  0.
    9000005    1    3    3    0    0 -0.10548845725E+02 -0.40434414827E+02 -0.20639411949E+02  0.46617650886E+02  0.10000000000E+01 0.  0.
    9000005    1    3    3    0    0 -0.69541465138E+02  0.80349161318E+02  0.14387168931E+02  0.10723802370E+03  0.10000000000E+01 0.  0.
         -4    1    1    2    0  502  0.80090310863E+02 -0.39914746491E+02 -0.84345216524E+01  0.89891039248E+02  0.12700000000E+01 0. -1.
<mgrwt>
<rscale>  1 0.15372859E+03</rscale>
<asrwt>0</asrwt>
<pdfrwt beam="2">  1       21 0.19878957E-01 0.15372859E+03</pdfrwt>
<pdfrwt beam="1">  1       -4 0.17620476E-01 0.15372859E+03</pdfrwt>
<totfact> 0.27278871E+04</totfact>
</mgrwt>
</event>
<event>
 6    4  0.6277709E-003  0.1282177E+03  0.7818608E-02  0.1230124E+00
          4   -1    0    0  502    0 -0.00000000000E+00  0.00000000000E+00  0.41297105940E+03  0.41297301220E+03  0.12700000000E+01 0.  1.
         21   -1    0    0  501  502  0.00000000000E+00 -0.00000000000E+00 -0.14922909055E+02  0.14922909055E+02  0.00000000000E+00 0.  1.
         25    2    1    2    0    0  0.28008071516E+02  0.55008126121E+01  0.33394988764E+03  0.35771820975E+03  0.12500031649E+03 0.  0.
    9000005    1    3    3    0    0  0.50135215851E+02 -0.39438394029E+02  0.10114766049E+03  0.11958585206E+03  0.10000000000E+01 0.  0.
    9000005    1    3    3    0    0 -0.22127144335E+02  0.44939206641E+02  0.23280222715E+03  0.23813235768E+03  0.10000000000E+01 0.  0.
          4    1    1    2  501    0 -0.28008071516E+02 -0.55008126121E+01  0.64098262713E+02  0.70177711506E+02  0.12700000000E+01 0. -1.
<mgrwt>
<rscale>  1 0.12821774E+03</rscale>
<asrwt>0</asrwt>
<pdfrwt beam="2">  1       21 0.22958325E-02 0.12821774E+03</pdfrwt>
<pdfrwt beam="1">  1        4 0.63538307E-01 0.12821774E+03</pdfrwt>
<totfact> 0.91991886E+04</totfact>
</mgrwt>
</event>
<event>
 6    4  0.6277709E-003  0.1272096E+03  0.7818608E-02  0.1231656E+00
          4   -1    0    0  502    0 -0.00000000000E+00  0.00000000000E+00  0.22234870127E+02  0.22271110201E+02  0.12700000000E+01 0.  1.
         21   -1    0    0  501  502  0.00000000000E+00 -0.00000000000E+00 -0.28657102987E+03  0.28657102987E+03  0.00000000000E+00 0.  1.
         25    2    1    2    0    0  0.14092394364E+02 -0.19027464365E+02 -0.17460281405E+03  0.21602874552E+03  0.12498654422E+03 0.  0.
    9000005    1    3    3    0    0 -0.46230435837E+02  0.27833883127E+01 -0.23656889937E+02  0.52015852292E+02  0.10000000000E+01 0.  0.
    9000005    1    3    3    0    0  0.60322830201E+02 -0.21810852678E+02 -0.15094592411E+03  0.16401289322E+03  0.10000000000E+01 0.  0.
          4    1    1    2  501    0 -0.14092394364E+02  0.19027464365E+02 -0.89733345698E+02  0.92813394557E+02  0.12700000000E+01 0. -1.
<mgrwt>
<rscale>  1 0.12720958E+03</rscale>
<asrwt>0</asrwt>
<pdfrwt beam="2">  1       21 0.44087847E-01 0.12720958E+03</pdfrwt>
<pdfrwt beam="1">  1        4 0.34237537E-02 0.12720958E+03</pdfrwt>
<totfact> 0.87130871E+04</totfact>
</mgrwt>
</event>
<event>
 6    4  0.6277709E-003  0.1485147E+03  0.7818608E-02  0.1202310E+00
         -4   -1    0    0    0  501 -0.00000000000E+00  0.00000000000E+00  0.97302754228E+03  0.97302837109E+03  0.12700000000E+01 0. -1.
         21   -1    0    0  501  502  0.00000000000E+00 -0.00000000000E+00 -0.13443283866E+02  0.13443283866E+02  0.00000000000E+00 0. -1.
         25    2    1    2    0    0  0.76895323905E+02  0.22778855757E+02  0.62960122383E+03  0.64688045495E+03  0.12499941933E+03 0.  0.
    9000005    1    3    3    0    0 -0.95119156757E-01 -0.44093182759E+02  0.14048675408E+03  0.14724722709E+03  0.10000000000E+01 0.  0.
    9000005    1    3    3    0    0  0.76990443062E+02  0.66872038516E+02  0.48911446975E+03  0.49963322786E+03  0.10000000000E+01 0.  0.
         -4    1    1    2    0  502 -0.76895323905E+02 -0.22778855757E+02  0.32998303458E+03  0.33959120001E+03  0.12700000000E+01 0.  1.
<mgrwt>
<rscale>  1 0.14851472E+03</rscale>
<asrwt>0</asrwt>
<pdfrwt beam="2">  1       21 0.20681983E-02 0.14851472E+03</pdfrwt>
<pdfrwt beam="1">  1       -4 0.14970117E+00 0.14851472E+03</pdfrwt>
<totfact> 0.15315398E+04</totfact>
</mgrwt>
</event>
<event>
 6    4  0.6277709E-003  0.1364367E+03  0.7818608E-02  0.1218206E+00
          4   -1    0    0  502    0 -0.00000000000E+00  0.00000000000E+00  0.27220085062E+03  0.27220381330E+03  0.12700000000E+01 0.  1.
         21   -1    0    0  501  502  0.00000000000E+00 -0.00000000000E+00 -0.53175142507E+02  0.53175142507E+02  0.00000000000E+00 0. -1.
         25    2    1    2    0    0 -0.47879732559E+02  0.26416105120E+02  0.23201664450E+03  0.26915923749E+03  0.12499876959E+03 0.  0.
    9000005    1    3    3    0    0 -0.51962060335E+02 -0.19264991791E+02  0.21196887215E+03  0.21909586573E+03  0.10000000000E+01 0.  0.
    9000005    1    3    3    0    0  0.40823277758E+01  0.45681096910E+02  0.20047772355E+02  0.50063371754E+02  0.10000000000E+01 0.  0.
          4    1    1    2  501    0  0.47879732559E+02 -0.26416105120E+02 -0.12990936393E+02  0.56219718320E+02  0.12700000000E+01 0. -1.
<mgrwt>
<rscale>  1 0.13643670E+03</rscale>
<asrwt>0</asrwt>
<pdfrwt beam="2">  1       21 0.81807913E-02 0.13643670E+03</pdfrwt>
<pdfrwt beam="1">  1        4 0.41878448E-01 0.13643670E+03</pdfrwt>
<totfact> 0.26051103E+04</totfact>
</mgrwt>
</event>
<event>
 6    4  0.6277709E-003  0.1294563E+03  0.7818608E-02  0.1228265E+00
         -4   -1    0    0    0  501 -0.00000000000E+00  0.00000000000E+00  0.11754056908E+03  0.11754742991E+03  0.12700000000E+01 0.  1.
         21   -1    0    0  501  502  0.00000000000E+00 -0.00000000000E+00 -0.82905319549E+02  0.82905319549E+02  0.00000000000E+00 0. -1.
         25    2    1    2    0    0 -0.14140113172E+02  0.30562449354E+02  0.73617039744E+02  0.14892412654E+03  0.12499968326E+03 0.  0.
    9000005    1    3    3    0    0  0.27613350682E+02  0.67846269337E+02  0.37478861188E+02  0.82287778162E+02  0.10000000000E+01 0.  0.
    9000005    1    3    3    0    0 -0.41753463854E+02 -0.37283819984E+02  0.36138178557E+02  0.66636348383E+02  0.10000000000E+01 0.  0.
         -4    1    1    2    0  502  0.14140113172E+02 -0.30562449354E+02 -0.38981790217E+02  0.51528622915E+02  0.12700000000E+01 0. -1.
<mgrwt>
<rscale>  1 0.12945627E+03</rscale>
<asrwt>0</asrwt>
<pdfrwt beam="2">  1       21 0.12754665E-01 0.12945627E+03</pdfrwt>
<pdfrwt beam="1">  1       -4 0.18084440E-01 0.12945627E+03</pdfrwt>
<totfact> 0.57217995E+04</totfact>
</mgrwt>
</event>
<event>
 6    4  0.6277709E-003  0.1279236E+03  0.7818608E-02  0.1230570E+00
          4   -1    0    0  502    0 -0.00000000000E+00  0.00000000000E+00  0.10105297121E+03  0.10106095137E+03  0.12700000000E+01 0.  1.
         21   -1    0    0  501  502  0.00000000000E+00 -0.00000000000E+00 -0.59581411374E+02  0.59581411374E+02  0.00000000000E+00 0.  1.
         25    2    1    2    0    0  0.11774241345E+02 -0.24507147961E+02  0.32561453567E+02  0.13200260097E+03  0.12500082137E+03 0.  0.
    9000005    1    3    3    0    0  0.24131310904E+02 -0.60745105497E+02  0.56864936178E+02  0.86642420178E+02  0.10000000000E+01 0.  0.
    9000005    1    3    3    0    0 -0.12357069560E+02  0.36237957536E+02 -0.24303482611E+02  0.45360180792E+02  0.10000000000E+01 0.  0.
          4    1    1    2  501    0 -0.11774241345E+02  0.24507147961E+02  0.89101062721E+01  0.28639761770E+02  0.12700000000E+01 0. -1.
<mgrwt>
<rscale>  1 0.12792356E+03</rscale>
<asrwt>0</asrwt>
<pdfrwt beam="2">  1       21 0.91663710E-02 0.12792356E+03</pdfrwt>
<pdfrwt beam="1">  1        4 0.15548266E-01 0.12792356E+03</pdfrwt>
<totfact> 0.13331010E+05</totfact>
</mgrwt>
</event>
<event>
 6    4  0.6277709E-003  0.1720472E+03  0.7818608E-02  0.1175730E+00
         21   -1    0    0  501  502  0.00000000000E+00  0.00000000000E+00  0.23808157077E+03  0.23808157077E+03  0.00000000000E+00 0.  1.
         -4   -1    0    0    0  501 -0.00000000000E+00 -0.00000000000E+00 -0.12181093227E+03  0.12181755260E+03  0.12700000000E+01 0. -1.
         25    2    1    2    0    0 -0.52884870948E+02  0.10572640173E+03 -0.26996153064E+02  0.17415233857E+03  0.12500145260E+03 0.  0.
    9000005    1    3    3    0    0 -0.16434335854E+02 -0.85522974988E+01 -0.48821229263E+02  0.52227785845E+02  0.10000000000E+01 0.  0.
    9000005    1    3    3    0    0 -0.36450535094E+02  0.11427869923E+03  0.21825076200E+02  0.12192455273E+03  0.10000000000E+01 0.  0.
         -4    1    1    2    0  502  0.52884870948E+02 -0.10572640173E+03  0.14326679156E+03  0.18574678480E+03  0.12700000000E+01 0.  1.
<mgrwt>
<rscale>  1 0.17204722E+03</rscale>
<asrwt>0</asrwt>
<pdfrwt beam="1">  1       21 0.36627934E-01 0.17204722E+03</pdfrwt>
<pdfrwt beam="2">  1       -4 0.18740913E-01 0.17204722E+03</pdfrwt>
<totfact> 0.76245905E+03</totfact>
</mgrwt>
</event>
<event>
 6    4  0.6277709E-003  0.1302892E+03  0.7818608E-02  0.1227027E+00
         -4   -1    0    0    0  501 -0.00000000000E+00  0.00000000000E+00  0.60833165052E+02  0.60846420357E+02  0.12700000000E+01 0. -1.
         21   -1    0    0  501  502  0.00000000000E+00 -0.00000000000E+00 -0.11846036370E+03  0.11846036370E+03  0.00000000000E+00 0. -1.
         25    2    1    2    0    0  0.29151362006E+02  0.22394301861E+02 -0.31079083743E+02  0.13394466365E+03  0.12499582718E+03 0.  0.
    9000005    1    3    3    0    0 -0.36466417362E+02  0.29589154539E+02  0.19418875391E+02  0.50827260235E+02  0.10000000000E+01 0.  0.
    9000005    1    3    3    0    0  0.65617779368E+02 -0.71948526782E+01 -0.50497959134E+02  0.83117403418E+02  0.10000000000E+01 0.  0.
         -4    1    1    2    0  502 -0.29151362006E+02 -0.22394301861E+02 -0.26548114907E+02  0.45362120406E+02  0.12700000000E+01 0.  1.
<mgrwt>
<rscale>  1 0.13028915E+03</rscale>
<asrwt>0</asrwt>
<pdfrwt beam="2">  1       21 0.18224671E-01 0.13028915E+03</pdfrwt>
<pdfrwt beam="1">  1       -4 0.93604918E-02 0.13028915E+03</pdfrwt>
<totfact> 0.93492555E+04</totfact>
</mgrwt>
</event>
<event>
 6    4  0.6277709E-003  0.1391501E+03  0.7818608E-02  0.1214477E+00
          4   -1    0    0  502    0 -0.00000000000E+00  0.00000000000E+00  0.47381956537E+02  0.47398973673E+02  0.12700000000E+01 0. -1.
         21   -1    0    0  501  502  0.00000000000E+00 -0.00000000000E+00 -0.21233176995E+03  0.21233176995E+03  0.00000000000E+00 0. -1.
         25    2    1    2    0    0 -0.41837224556E+01 -0.60994099312E+02 -0.12131931954E+03  0.18461072911E+03  0.12499984130E+03 0.  0.
    9000005    1    3    3    0    0 -0.61807426495E+02 -0.14844706811E+02 -0.41712670552E+02  0.76035979476E+02  0.10000000000E+01 0.  0.
    9000005    1    3    3    0    0  0.57623704039E+02 -0.46149392501E+02 -0.79606648989E+02  0.10857474964E+03  0.10000000000E+01 0.  0.
          4    1    1    2  501    0  0.41837224556E+01  0.60994099312E+02 -0.43630493871E+02  0.75120014510E+02  0.12700000000E+01 0.  1.
<mgrwt>
<rscale>  1 0.13915008E+03</rscale>
<asrwt>0</asrwt>
<pdfrwt beam="2">  1       21 0.32666426E-01 0.13915008E+03</pdfrwt>
<pdfrwt beam="1">  1        4 0.72911330E-02 0.13915008E+03</pdfrwt>
<totfact> 0.47375462E+04</totfact>
</mgrwt>
</event>
<event>
 6    4  0.6277709E-003  0.1269675E+03  0.7818608E-02  0.1232026E+00
         21   -1    0    0  501  502  0.00000000000E+00  0.00000000000E+00  0.25116617860E+03  0.25116617860E+03  0.00000000000E+00 0.  1.
          4   -1    0    0  502    0 -0.00000000000E+00 -0.00000000000E+00 -0.25467016067E+02  0.25498662854E+02  0.12700000000E+01 0.  1.
         25    2    1    2    0    0 -0.18059782077E+02 -0.13023024849E+02  0.14402155313E+03  0.19199725803E+03  0.12499993768E+03 0.  0.
    9000005    1    3    3    0    0 -0.24920037109E+02 -0.37857528585E+02 -0.35570240499E+00  0.45335717092E+02  0.10000000000E+01 0.  0.
    9000005    1    3    3    0    0  0.68602550322E+01  0.24834503735E+02  0.14437725554E+03  0.14666154094E+03  0.10000000000E+01 0.  0.
          4    1    1    2  501    0  0.18059782077E+02  0.13023024849E+02  0.81677609403E+02  0.84667583423E+02  0.12700000000E+01 0. -1.
<mgrwt>
<rscale>  1 0.12696747E+03</rscale>
<asrwt>0</asrwt>
<pdfrwt beam="1">  1       21 0.38640949E-01 0.12696747E+03</pdfrwt>
<pdfrwt beam="2">  1        4 0.39206840E-02 0.12696747E+03</pdfrwt>
<totfact> 0.91635684E+04</totfact>
</mgrwt>
</event>
<event>
 6    4  0.6277709E-003  0.1302362E+03  0.7818608E-02  0.1227106E+00
         -4   -1    0    0    0  501 -0.00000000000E+00  0.00000000000E+00  0.14867571941E+02  0.14921715566E+02  0.12700000000E+01 0. -1.
         21   -1    0    0  501  502  0.00000000000E+00 -0.00000000000E+00 -0.52631614953E+03  0.52631614953E+03  0.00000000000E+00 0. -1.
         25    2    1    2    0    0  0.15064159416E+02  0.33307438516E+02 -0.30605261342E+03  0.33261037564E+03  0.12500058177E+03 0.  0.
    9000005    1    3    3    0    0 -0.48705139064E+02 -0.11734997604E+02 -0.91985710153E+02  0.10474861151E+03  0.10000000000E+01 0.  0.
    9000005    1    3    3    0    0  0.63769298480E+02  0.45042436120E+02 -0.21406690326E+03  0.22786176413E+03  0.10000000000E+01 0.  0.
         -4    1    1    2    0  502 -0.15064159416E+02 -0.33307438516E+02 -0.20539596417E+03  0.20862748946E+03  0.12700000000E+01 0.  1.
<mgrwt>
<rscale>  1 0.13023617E+03</rscale>
<asrwt>0</asrwt>
<pdfrwt beam="2">  1       21 0.80971712E-01 0.13023617E+03</pdfrwt>
<pdfrwt beam="1">  1       -4 0.22916016E-02 0.13023617E+03</pdfrwt>
<totfact> 0.44899303E+04</totfact>
</mgrwt>
</event>
<event>
 6    4  0.6277709E-003  0.1301915E+03  0.7818608E-02  0.1227172E+00
         -4   -1    0    0    0  501 -0.00000000000E+00  0.00000000000E+00  0.20766414722E+03  0.20766803062E+03  0.12700000000E+01 0.  1.
         21   -1    0    0  501  502  0.00000000000E+00 -0.00000000000E+00 -0.40673266367E+02  0.40673266367E+02  0.00000000000E+00 0. -1.
         25    2    1    2    0    0  0.34850405102E+02  0.10480848934E+02  0.16722094339E+03  0.21192612489E+03  0.12500175828E+03 0.  0.
    9000005    1    3    3    0    0 -0.33190826253E+01  0.58626407687E+02  0.12274365666E+03  0.13607011883E+03  0.10000000000E+01 0.  0.
    9000005    1    3    3    0    0  0.38169487728E+02 -0.48145558753E+02  0.44477286731E+02  0.75856006064E+02  0.10000000000E+01 0.  0.
         -4    1    1    2    0  502 -0.34850405102E+02 -0.10480848934E+02 -0.23006253074E+00  0.36415172098E+02  0.12700000000E+01 0. -1.
<mgrwt>
<rscale>  1 0.13019155E+03</rscale>
<asrwt>0</asrwt>
<pdfrwt beam="2">  1       21 0.62574257E-02 0.13019155E+03</pdfrwt>
<pdfrwt beam="1">  1       -4 0.31950154E-01 0.13019155E+03</pdfrwt>
<totfact> 0.69359962E+04</totfact>
</mgrwt>
</event>
<event>
 6    4  0.6277709E-003  0.1303853E+03  0.7818608E-02  0.1226885E+00
          4   -1    0    0  502    0 -0.00000000000E+00  0.00000000000E+00  0.78600973369E+03  0.78601075969E+03  0.12700000000E+01 0.  1.
         21   -1    0    0  501  502  0.00000000000E+00 -0.00000000000E+00 -0.89904247750E+01  0.89904247750E+01  0.00000000000E+00 0.  1.
         25    2    1    2    0    0  0.12572310522E+01 -0.37066159524E+02  0.63197221083E+03  0.64528226658E+03  0.12499938995E+03 0.  0.
    9000005    1    3    3    0    0  0.24926186423E+02  0.79678266420E+01  0.25079048828E+02  0.36259615567E+02  0.10000000000E+01 0.  0.
    9000005    1    3    3    0    0 -0.23668955371E+02 -0.45033986166E+02  0.60689316201E+03  0.60902265101E+03  0.10000000000E+01 0.  0.
          4    1    1    2  501    0 -0.12572310522E+01  0.37066159524E+02  0.14504709808E+03  0.14971891789E+03  0.12700000000E+01 0. -1.
<mgrwt>
<rscale>  1 0.13038531E+03</rscale>
<asrwt>0</asrwt>
<pdfrwt beam="2">  1       21 0.13831429E-02 0.13038531E+03</pdfrwt>
<pdfrwt beam="1">  1        4 0.12093150E+00 0.13038531E+03</pdfrwt>
<totfact> 0.48871720E+04</totfact>
</mgrwt>
</event>
<event>
 6    4  0.6277709E-003  0.1270365E+03  0.7818608E-02  0.1231920E+00
         21   -1    0    0  501  502  0.00000000000E+00  0.00000000000E+00  0.16488606958E+03  0.16488606958E+03  0.00000000000E+00 0. -1.
         -4   -1    0    0    0  501 -0.00000000000E+00 -0.00000000000E+00 -0.37833079315E+02  0.37854389315E+02  0.12700000000E+01 0. -1.
         25    2    1    2    0    0 -0.21683862182E+02 -0.65467621209E+01  0.78988185377E+02  0.14959078023E+03  0.12500087250E+03 0.  0.
    9000005    1    3    3    0    0  0.37396893015E+02  0.24598150448E+02 -0.17468395947E+01  0.44806785884E+02  0.10000000000E+01 0.  0.
    9000005    1    3    3    0    0 -0.59080755197E+02 -0.31144912569E+02  0.80735024972E+02  0.10478399434E+03  0.10000000000E+01 0.  0.
         -4    1    1    2    0  502  0.21683862182E+02  0.65467621209E+01  0.48064804883E+02  0.53149678662E+02  0.12700000000E+01 0.  1.
<mgrwt>
<rscale>  1 0.12703648E+03</rscale>
<asrwt>0</asrwt>
<pdfrwt beam="1">  1       21 0.25367087E-01 0.12703648E+03</pdfrwt>
<pdfrwt beam="2">  1       -4 0.58224893E-02 0.12703648E+03</pdfrwt>
<totfact> 0.10997940E+05</totfact>
</mgrwt>
</event>
<event>
 6    4  0.6277709E-003  0.1597577E+03  0.7818608E-02  0.1188971E+00
         21   -1    0    0  501  502  0.00000000000E+00  0.00000000000E+00  0.14349407783E+03  0.14349407783E+03  0.00000000000E+00 0.  1.
         -4   -1    0    0    0  501 -0.00000000000E+00 -0.00000000000E+00 -0.11866271074E+03  0.11866950670E+03  0.12700000000E+01 0. -1.
         25    2    1    2    0    0 -0.61427499779E+02  0.78260463509E+02  0.60153807847E+00  0.15975882198E+03  0.12499792589E+03 0.  0.
    9000005    1    3    3    0    0  0.31911273645E+02 -0.69047621551E+01 -0.60741797256E+01  0.33225002414E+02  0.10000000000E+01 0.  0.
    9000005    1    3    3    0    0 -0.93338773424E+02  0.85165225664E+02  0.66757178040E+01  0.12653381957E+03  0.10000000000E+01 0.  0.
         -4    1    1    2    0  502  0.61427499779E+02 -0.78260463509E+02  0.24229829005E+02  0.10240476254E+03  0.12700000000E+01 0.  1.
<mgrwt>
<rscale>  1 0.15975769E+03</rscale>
<asrwt>0</asrwt>
<pdfrwt beam="1">  1       21 0.22076012E-01 0.15975769E+03</pdfrwt>
<pdfrwt beam="2">  1       -4 0.18256757E-01 0.15975769E+03</pdfrwt>
<totfact> 0.21134284E+04</totfact>
</mgrwt>
</event>
<event>
 6    4  0.6277709E-003  0.1297737E+03  0.7818608E-02  0.1227792E+00
          4   -1    0    0  502    0 -0.00000000000E+00  0.00000000000E+00  0.47375505453E+01  0.49048226440E+01  0.12700000000E+01 0. -1.
         21   -1    0    0  501  502  0.00000000000E+00 -0.00000000000E+00 -0.14084139046E+04  0.14084139046E+04  0.00000000000E+00 0. -1.
         25    2    1    2    0    0 -0.22144313770E+02  0.26965736792E+02 -0.10833698850E+04  0.10911148033E+04  0.12499473845E+03 0.  0.
    9000005    1    3    3    0    0 -0.25895266763E+02 -0.47914702371E+02 -0.49404366560E+03  0.49703775215E+03  0.10000000000E+01 0.  0.
    9000005    1    3    3    0    0  0.37509529928E+01  0.74880439163E+02 -0.58932621938E+03  0.59407705112E+03  0.10000000000E+01 0.  0.
          4    1    1    2  501    0  0.22144313770E+02 -0.26965736792E+02 -0.32030646909E+03  0.32220392399E+03  0.12700000000E+01 0.  1.
<mgrwt>
<rscale>  1 0.12977367E+03</rscale>
<asrwt>0</asrwt>
<pdfrwt beam="2">  1       21 0.21667916E+00 0.12977367E+03</pdfrwt>
<pdfrwt beam="1">  1        4 0.74176471E-03 0.12977367E+03</pdfrwt>
<totfact> 0.20373536E+04</totfact>
</mgrwt>
</event>
<event>
 6    4  0.6277709E-003  0.1373204E+03  0.7818608E-02  0.1216981E+00
         -4   -1    0    0    0  501 -0.00000000000E+00  0.00000000000E+00  0.23589724535E+02  0.23623886294E+02  0.12700000000E+01 0. -1.
         21   -1    0    0  501  502  0.00000000000E+00 -0.00000000000E+00 -0.48807575581E+03  0.48807575581E+03  0.00000000000E+00 0.  1.
         25    2    1    2    0    0  0.50959308692E+02 -0.25161841852E+02 -0.20978769949E+03  0.25073446715E+03  0.12500769868E+03 0.  0.
    9000005    1    3    3    0    0  0.51036470390E+02 -0.13726878923E-01 -0.21828225154E+03  0.22417150317E+03  0.10000000000E+01 0.  0.
    9000005    1    3    3    0    0 -0.77161697908E-01 -0.25148114973E+02  0.84945520451E+01  0.26562963974E+02  0.10000000000E+01 0.  0.
         -4    1    1    2    0  502 -0.50959308692E+02  0.25161841852E+02 -0.25469833179E+03  0.26096517496E+03  0.12700000000E+01 0.  1.
<mgrwt>
<rscale>  1 0.13732041E+03</rscale>
<asrwt>0</asrwt>
<pdfrwt beam="2">  1       21 0.75088571E-01 0.13732041E+03</pdfrwt>
<pdfrwt beam="1">  1       -4 0.36319436E-02 0.13732041E+03</pdfrwt>
<totfact> 0.25975563E+04</totfact>
</mgrwt>
</event>
<event>
 6    4  0.6277709E-003  0.1277157E+03  0.7818608E-02  0.1230885E+00
         21   -1    0    0  501  502  0.00000000000E+00  0.00000000000E+00  0.24506790685E+02  0.24506790685E+02  0.00000000000E+00 0.  1.
          4   -1    0    0  502    0 -0.00000000000E+00 -0.00000000000E+00 -0.24534529830E+03  0.24534858527E+03  0.12700000000E+01 0.  1.
         25    2    1    2    0    0  0.62409310463E+01 -0.25430483042E+02 -0.19458102261E+03  0.23275110253E+03  0.12500257070E+03 0.  0.
    9000005    1    3    3    0    0  0.60757935330E+02 -0.77144675390E+01 -0.56875188313E+02  0.83587240417E+02  0.10000000000E+01 0.  0.
    9000005    1    3    3    0    0 -0.54517004283E+02 -0.17716015503E+02 -0.13770583430E+03  0.14916386211E+03  0.10000000000E+01 0.  0.
          4    1    1    2  501    0 -0.62409310463E+01  0.25430483042E+02 -0.26257485002E+02  0.37104273429E+02  0.12700000000E+01 0. -1.
<mgrwt>
<rscale>  1 0.12771571E+03</rscale>
<asrwt>0</asrwt>
<pdfrwt beam="1">  1       21 0.37702754E-02 0.12771571E+03</pdfrwt>
<pdfrwt beam="2">  1        4 0.37748216E-01 0.12771571E+03</pdfrwt>
<totfact> 0.11734487E+05</totfact>
</mgrwt>
</event>
<event>
 6    4  0.6277709E-003  0.1346549E+03  0.7818608E-02  0.1220708E+00
         21   -1    0    0  501  502  0.00000000000E+00  0.00000000000E+00  0.27065034891E+03  0.27065034891E+03  0.00000000000E+00 0.  1.
          4   -1    0    0  502    0 -0.00000000000E+00 -0.00000000000E+00 -0.87066045888E+02  0.87075307904E+02  0.12700000000E+01 0. -1.
         25    2    1    2    0    0  0.25989916294E+02 -0.42695511920E+02 -0.30344397248E+02  0.13803158729E+03  0.12503421195E+03 0.  0.
    9000005    1    3    3    0    0  0.30083448455E+02  0.55040190275E+01 -0.69403712240E+02  0.75849742050E+02  0.10000000000E+01 0.  0.
    9000005    1    3    3    0    0 -0.40935321607E+01 -0.48199530948E+02  0.39059314992E+02  0.62181845235E+02  0.10000000000E+01 0.  0.
          4    1    1    2  501    0 -0.25989916294E+02  0.42695511920E+02  0.21392870027E+03  0.21969406953E+03  0.12700000000E+01 0.  1.
<mgrwt>
<rscale>  1 0.13465488E+03</rscale>
<asrwt>0</asrwt>
<pdfrwt beam="1">  1       21 0.41638515E-01 0.13465488E+03</pdfrwt>
<pdfrwt beam="2">  1        4 0.13395718E-01 0.13465488E+03</pdfrwt>
<totfact> 0.10481231E+04</totfact>
</mgrwt>
</event>
<event>
 6    4  0.6277709E-003  0.1287205E+03  0.7818608E-02  0.1229367E+00
          4   -1    0    0  502    0 -0.00000000000E+00  0.00000000000E+00  0.29814098343E+03  0.29814368835E+03  0.12700000000E+01 0.  1.
         21   -1    0    0  501  502  0.00000000000E+00 -0.00000000000E+00 -0.23170528228E+02  0.23170528228E+02  0.00000000000E+00 0.  1.
         25    2    1    2    0    0 -0.25335489613E+02  0.17400787844E+02  0.25183066045E+03  0.28282087361E+03  0.12499716219E+03 0.  0.
    9000005    1    3    3    0    0 -0.74228567472E+02 -0.58782004987E+01  0.15103052370E+03  0.16839136723E+03  0.10000000000E+01 0.  0.
    9000005    1    3    3    0    0  0.48893077859E+02  0.23278988343E+02  0.10080013675E+03  0.11442950637E+03  0.10000000000E+01 0.  0.
          4    1    1    2  501    0  0.25335489613E+02 -0.17400787844E+02  0.23139794760E+02  0.38493342970E+02  0.12700000000E+01 0. -1.
<mgrwt>
<rscale>  1 0.12872049E+03</rscale>
<asrwt>0</asrwt>
<pdfrwt beam="2">  1       21 0.35646969E-02 0.12872049E+03</pdfrwt>
<pdfrwt beam="1">  1        4 0.45870726E-01 0.12872049E+03</pdfrwt>
<totfact> 0.87679454E+04</totfact>
</mgrwt>
</event>
<event>
 6    4  0.6277709E-003  0.1484238E+03  0.7818608E-02  0.1202423E+00
         21   -1    0    0  501  502  0.00000000000E+00  0.00000000000E+00  0.67873370050E+02  0.67873370050E+02  0.00000000000E+00 0.  1.
          4   -1    0    0  502    0 -0.00000000000E+00 -0.00000000000E+00 -0.50275149942E+03  0.50275310349E+03  0.12700000000E+01 0. -1.
         25    2    1    2    0    0  0.68593855015E+02 -0.41238642772E+02 -0.46266917112E+03  0.48589337785E+03  0.12499548044E+03 0.  0.
    9000005    1    3    3    0    0  0.67231876688E+02 -0.66123148189E+02 -0.19030644839E+03  0.21239100798E+03  0.10000000000E+01 0.  0.
    9000005    1    3    3    0    0  0.13619783271E+01  0.24884505417E+02 -0.27236272273E+03  0.27350236987E+03  0.10000000000E+01 0.  0.
          4    1    1    2  501    0 -0.68593855015E+02  0.41238642772E+02  0.27791041751E+02  0.84733095690E+02  0.12700000000E+01 0.  1.
<mgrwt>
<rscale>  1 0.14842376E+03</rscale>
<asrwt>0</asrwt>
<pdfrwt beam="1">  1       21 0.10442057E-01 0.14842376E+03</pdfrwt>
<pdfrwt beam="2">  1        4 0.77347420E-01 0.14842376E+03</pdfrwt>
<totfact> 0.47677352E+03</totfact>
</mgrwt>
</event>
<event>
 6    4  0.6277709E-003  0.1284170E+03  0.7818608E-02  0.1229824E+00
         21   -1    0    0  501  502  0.00000000000E+00  0.00000000000E+00  0.14233383527E+04  0.14233383527E+04  0.00000000000E+00 0.  1.
          4   -1    0    0  502    0 -0.00000000000E+00 -0.00000000000E+00 -0.97010129739E+01  0.97837903044E+01  0.12700000000E+01 0. -1.
         25    2    1    2    0    0 -0.26065106044E+01  0.29333482352E+02  0.42339588878E+03  0.44244207802E+03  0.12499466662E+03 0.  0.
    9000005    1    3    3    0    0 -0.32631138549E+02  0.58185477730E+02  0.13016609444E+03  0.14626877029E+03  0.10000000000E+01 0.  0.
    9000005    1    3    3    0    0  0.30024627945E+02 -0.28851995378E+02  0.29322979435E+03  0.29617330773E+03  0.10000000000E+01 0.  0.
          4    1    1    2  501    0  0.26065106044E+01 -0.29333482352E+02  0.99024145096E+03  0.99068006500E+03  0.12700000000E+01 0.  1.
<mgrwt>
<rscale>  1 0.12841695E+03</rscale>
<asrwt>0</asrwt>
<pdfrwt beam="1">  1       21 0.21897497E+00 0.12841695E+03</pdfrwt>
<pdfrwt beam="2">  1        4 0.14988757E-02 0.12841695E+03</pdfrwt>
<totfact> 0.68364282E+03</totfact>
</mgrwt>
</event>
<event>
 6    4  0.6277709E-003  0.1282210E+03  0.7818608E-02  0.1230120E+00
         21   -1    0    0  501  502  0.00000000000E+00  0.00000000000E+00  0.19219999777E+02  0.19219999777E+02  0.00000000000E+00 0.  1.
         -4   -1    0    0    0  501 -0.00000000000E+00 -0.00000000000E+00 -0.34048626289E+03  0.34048863141E+03  0.12700000000E+01 0.  1.
         25    2    1    2    0    0 -0.14564959949E+02 -0.24567188092E+02 -0.22158563989E+03  0.25600942995E+03  0.12499979053E+03 0.  0.
    9000005    1    3    3    0    0  0.96123394386E+01 -0.55892541272E+00  0.14522622079E+02  0.17453252395E+02  0.10000000000E+01 0.  0.
    9000005    1    3    3    0    0 -0.24177299388E+02 -0.24008262680E+02 -0.23610826197E+03  0.23855617756E+03  0.10000000000E+01 0.  0.
         -4    1    1    2    0  502  0.14564959949E+02  0.24567188092E+02 -0.99680623227E+02  0.10369920123E+03  0.12700000000E+01 0. -1.
<mgrwt>
<rscale>  1 0.12822103E+03</rscale>
<asrwt>0</asrwt>
<pdfrwt beam="1">  1       21 0.29569233E-02 0.12822103E+03</pdfrwt>
<pdfrwt beam="2">  1       -4 0.52385907E-01 0.12822103E+03</pdfrwt>
<totfact> 0.91044038E+04</totfact>
</mgrwt>
</event>
<event>
 6    4  0.6277709E-003  0.1699561E+03  0.7818608E-02  0.1177894E+00
         21   -1    0    0  501  502  0.00000000000E+00  0.00000000000E+00  0.55650834935E+02  0.55650834935E+02  0.00000000000E+00 0.  1.
         -4   -1    0    0    0  501 -0.00000000000E+00 -0.00000000000E+00 -0.53374334462E+03  0.53374485555E+03  0.12700000000E+01 0. -1.
         25    2    1    2    0    0 -0.53382262770E+02 -0.10203588377E+03 -0.43398038903E+03  0.46607302572E+03  0.12499639869E+03 0.  0.
    9000005    1    3    3    0    0 -0.21160356971E+02 -0.47631405941E+02 -0.36606961642E+02  0.63699145832E+02  0.10000000000E+01 0.  0.
    9000005    1    3    3    0    0 -0.32221905799E+02 -0.54404477831E+02 -0.39737342739E+03  0.40237387989E+03  0.10000000000E+01 0.  0.
         -4    1    1    2    0  502  0.53382262770E+02  0.10203588377E+03 -0.44112120649E+02  0.12332266476E+03  0.12700000000E+01 0.  1.
<mgrwt>
<rscale>  1 0.16995613E+03</rscale>
<asrwt>0</asrwt>
<pdfrwt beam="1">  1       21 0.85616670E-02 0.16995613E+03</pdfrwt>
<pdfrwt beam="2">  1       -4 0.82115591E-01 0.16995613E+03</pdfrwt>
<totfact> 0.59646346E+03</totfact>
</mgrwt>
</event>
<event>
 6    4  0.6277709E-003  0.1277867E+03  0.7818608E-02  0.1230777E+00
          4   -1    0    0  502    0 -0.00000000000E+00  0.00000000000E+00  0.25110198701E+03  0.25110519863E+03  0.12700000000E+01 0. -1.
         21   -1    0    0  501  502  0.00000000000E+00 -0.00000000000E+00 -0.23944798018E+02  0.23944798018E+02  0.00000000000E+00 0. -1.
         25    2    1    2    0    0  0.20463498522E+02 -0.16906406588E+02  0.19742788525E+03  0.23517486961E+03  0.12499947226E+03 0.  0.
    9000005    1    3    3    0    0  0.12870956554E+02 -0.45678656378E+02  0.19974799021E+03  0.20531064455E+03  0.10000000000E+01 0.  0.
    9000005    1    3    3    0    0  0.75925419674E+01  0.28772249789E+02 -0.23201049616E+01  0.29864225061E+02  0.10000000000E+01 0.  0.
          4    1    1    2  501    0 -0.20463498522E+02  0.16906406588E+02  0.29729303737E+02  0.39875127037E+02  0.12700000000E+01 0.  1.
<mgrwt>
<rscale>  1 0.12778673E+03</rscale>
<asrwt>0</asrwt>
<pdfrwt beam="2">  1       21 0.36838153E-02 0.12778673E+03</pdfrwt>
<pdfrwt beam="1">  1        4 0.38633911E-01 0.12778673E+03</pdfrwt>
<totfact> 0.11655216E+05</totfact>
</mgrwt>
</event>
<event>
 6    4  0.6277709E-003  0.1349521E+03  0.7818608E-02  0.1220287E+00
          4   -1    0    0  502    0 -0.00000000000E+00  0.00000000000E+00  0.86231764543E+02  0.86241116159E+02  0.12700000000E+01 0. -1.
         21   -1    0    0  501  502  0.00000000000E+00 -0.00000000000E+00 -0.10154600443E+03  0.10154600443E+03  0.00000000000E+00 0. -1.
         25    2    1    2    0    0  0.48604034850E+02  0.14925514273E+02 -0.10174984884E+01  0.13495594707E+03  0.12500779643E+03 0.  0.
    9000005    1    3    3    0    0  0.34676191129E+02  0.12050995781E+02  0.61065157594E+02  0.71257408053E+02  0.10000000000E+01 0.  0.
    9000005    1    3    3    0    0  0.13927843721E+02  0.28745184912E+01 -0.62082656082E+02  0.63698539022E+02  0.10000000000E+01 0.  0.
          4    1    1    2  501    0 -0.48604034850E+02 -0.14925514273E+02 -0.14296741395E+02  0.52831173511E+02  0.12700000000E+01 0.  1.
<mgrwt>
<rscale>  1 0.13495211E+03</rscale>
<asrwt>0</asrwt>
<pdfrwt beam="2">  1       21 0.15622462E-01 0.13495211E+03</pdfrwt>
<pdfrwt beam="1">  1        4 0.13267756E-01 0.13495211E+03</pdfrwt>
<totfact> 0.68736545E+04</totfact>
</mgrwt>
</event>
<event>
 6    4  0.6277709E-003  0.1285724E+03  0.7818608E-02  0.1229589E+00
         21   -1    0    0  501  502  0.00000000000E+00  0.00000000000E+00  0.25267023432E+02  0.25267023432E+02  0.00000000000E+00 0.  1.
          4   -1    0    0  502    0 -0.00000000000E+00 -0.00000000000E+00 -0.59168764936E+03  0.59168901233E+03  0.12700000000E+01 0. -1.
         25    2    1    2    0    0 -0.29359249278E+02  0.66556634168E+01 -0.57203524529E+03  0.58630639915E+03  0.12499843382E+03 0.  0.
    9000005    1    3    3    0    0 -0.22077071383E+02 -0.79905157619E+01 -0.56918892452E+03  0.56967383406E+03  0.10000000000E+01 0.  0.
    9000005    1    3    3    0    0 -0.72821778949E+01  0.14646179179E+02 -0.28463207726E+01  0.16632565087E+02  0.10000000000E+01 0.  0.
          4    1    1    2  501    0  0.29359249278E+02 -0.66556634168E+01  0.56146193593E+01  0.30649636608E+02  0.12700000000E+01 0.  1.
<mgrwt>
<rscale>  1 0.12857244E+03</rscale>
<asrwt>0</asrwt>
<pdfrwt beam="1">  1       21 0.38872348E-02 0.12857244E+03</pdfrwt>
<pdfrwt beam="2">  1        4 0.91031418E-01 0.12857244E+03</pdfrwt>
<totfact> 0.17667521E+04</totfact>
</mgrwt>
</event>
<event>
 6    4  0.6277709E-003  0.1375732E+03  0.7818608E-02  0.1216632E+00
         21   -1    0    0  501  502  0.00000000000E+00  0.00000000000E+00  0.20674206276E+04  0.20674206276E+04  0.00000000000E+00 0. -1.
          4   -1    0    0  502    0 -0.00000000000E+00 -0.00000000000E+00 -0.95442425869E+01  0.96283678034E+01  0.12700000000E+01 0.  1.
         25    2    1    2    0    0 -0.56181528141E+02  0.12051440544E+02  0.51367805104E+03  0.53178147524E+03  0.12499918386E+03 0.  0.
    9000005    1    3    3    0    0 -0.50828656067E+02 -0.51913980382E+02  0.29959010020E+03  0.30827559387E+03  0.10000000000E+01 0.  0.
    9000005    1    3    3    0    0 -0.53528720741E+01  0.63965420926E+02  0.21408795084E+03  0.22350588138E+03  0.10000000000E+01 0.  0.
          4    1    1    2  501    0  0.56181528141E+02 -0.12051440544E+02  0.15441983340E+04  0.15452675202E+04  0.12700000000E+01 0. -1.
<mgrwt>
<rscale>  1 0.13757324E+03</rscale>
<asrwt>0</asrwt>
<pdfrwt beam="1">  1       21 0.31806436E+00 0.13757324E+03</pdfrwt>
<pdfrwt beam="2">  1        4 0.14748478E-02 0.13757324E+03</pdfrwt>
<totfact> 0.18942588E+03</totfact>
</mgrwt>
</event>
<event>
 6    4  0.6277709E-003  0.1317234E+03  0.7818608E-02  0.1224921E+00
          4   -1    0    0  502    0 -0.00000000000E+00  0.00000000000E+00  0.61329373048E+02  0.61342521129E+02  0.12700000000E+01 0. -1.
         21   -1    0    0  501  502  0.00000000000E+00 -0.00000000000E+00 -0.49795552179E+03  0.49795552179E+03  0.00000000000E+00 0.  1.
         25    2    1    2    0    0 -0.37329763904E+02  0.18243558168E+02 -0.11588142049E+02  0.13223217128E+03  0.12499889358E+03 0.  0.
    9000005    1    3    3    0    0 -0.46237391646E+02 -0.45879168616E+02 -0.16802229867E+02  0.67276366040E+02  0.10000000000E+01 0.  0.
    9000005    1    3    3    0    0  0.89076277415E+01  0.64122726784E+02  0.52140878176E+01  0.64955805237E+02  0.10000000000E+01 0.  0.
          4    1    1    2  501    0  0.37329763904E+02 -0.18243558168E+02 -0.42503800669E+03  0.42706587164E+03  0.12700000000E+01 0.  1.
<mgrwt>
<rscale>  1 0.13172343E+03</rscale>
<asrwt>0</asrwt>
<pdfrwt beam="2">  1       21 0.76608541E-01 0.13172343E+03</pdfrwt>
<pdfrwt beam="1">  1        4 0.94364242E-02 0.13172343E+03</pdfrwt>
<totfact> 0.52530922E+03</totfact>
</mgrwt>
</event>
<event>
 6    4  0.6277709E-003  0.1293891E+03  0.7818608E-02  0.1228365E+00
         -4   -1    0    0    0  501 -0.00000000000E+00  0.00000000000E+00  0.98425573736E+02  0.98433766895E+02  0.12700000000E+01 0.  1.
         21   -1    0    0  501  502  0.00000000000E+00 -0.00000000000E+00 -0.10839164499E+03  0.10839164499E+03  0.00000000000E+00 0.  1.
         25    2    1    2    0    0  0.30129380282E+02 -0.14377436364E+02  0.49567582022E+02  0.13855858975E+03  0.12500818922E+03 0.  0.
    9000005    1    3    3    0    0  0.60595101615E+02  0.33864328975E+02  0.12576693252E+02  0.70553046212E+02  0.10000000000E+01 0.  0.
    9000005    1    3    3    0    0 -0.30465721334E+02 -0.48241765339E+02  0.36990888770E+02  0.68005543534E+02  0.10000000000E+01 0.  0.
         -4    1    1    2    0  502 -0.30129380282E+02  0.14377436364E+02 -0.59533653280E+02  0.68266822143E+02  0.12700000000E+01 0. -1.
<mgrwt>
<rscale>  1 0.12938909E+03</rscale>
<asrwt>0</asrwt>
<pdfrwt beam="2">  1       21 0.16675638E-01 0.12938909E+03</pdfrwt>
<pdfrwt beam="1">  1       -4 0.15143599E-01 0.12938909E+03</pdfrwt>
<totfact> 0.48286460E+04</totfact>
</mgrwt>
</event>
<event>
 6    4  0.6277709E-003  0.1327734E+03  0.7818608E-02  0.1223398E+00
          4   -1    0    0  502    0 -0.00000000000E+00  0.00000000000E+00  0.18164662313E+03  0.18165106274E+03  0.12700000000E+01 0.  1.
         21   -1    0    0  501  502  0.00000000000E+00 -0.00000000000E+00 -0.57264735827E+02  0.57264735827E+02  0.00000000000E+00 0.  1.
         25    2    1    2    0    0 -0.14123210831E+02  0.42473796283E+02  0.13860014256E+03  0.19193431139E+03  0.12500116767E+03 0.  0.
    9000005    1    3    3    0    0  0.10742940632E+02  0.14389682775E+02  0.15126521379E+03  0.15233068846E+03  0.10000000000E+01 0.  0.
    9000005    1    3    3    0    0 -0.24866151463E+02  0.28084113508E+02 -0.12665071233E+02  0.39603622934E+02  0.10000000000E+01 0.  0.
          4    1    1    2  501    0  0.14123210831E+02 -0.42473796283E+02 -0.14218255250E+02  0.46981487176E+02  0.12700000000E+01 0. -1.
<mgrwt>
<rscale>  1 0.13277342E+03</rscale>
<asrwt>0</asrwt>
<pdfrwt beam="2">  1       21 0.88099594E-02 0.13277342E+03</pdfrwt>
<pdfrwt beam="1">  1        4 0.27947059E-01 0.13277342E+03</pdfrwt>
<totfact> 0.49751382E+04</totfact>
</mgrwt>
</event>
<event>
 6    4  0.6277709E-003  0.1386463E+03  0.7818608E-02  0.1215162E+00
         21   -1    0    0  501  502  0.00000000000E+00  0.00000000000E+00  0.31288557185E+02  0.31288557185E+02  0.00000000000E+00 0. -1.
         -4   -1    0    0    0  501 -0.00000000000E+00 -0.00000000000E+00 -0.36299280512E+03  0.36299502678E+03  0.12700000000E+01 0.  1.
         25    2    1    2    0    0  0.27491158645E+02  0.53396046622E+02 -0.28913511526E+03  0.32065855049E+03  0.12496355278E+03 0.  0.
    9000005    1    3    3    0    0  0.41512457833E+02 -0.21681785043E+02 -0.45397377978E+02  0.65232705641E+02  0.10000000000E+01 0.  0.
    9000005    1    3    3    0    0 -0.14021299188E+02  0.75077831665E+02 -0.24373773729E+03  0.25542584485E+03  0.10000000000E+01 0.  0.
         -4    1    1    2    0  502 -0.27491158645E+02 -0.53396046622E+02 -0.42569132670E+02  0.73625033479E+02  0.12700000000E+01 0. -1.
<mgrwt>
<rscale>  1 0.13864628E+03</rscale>
<asrwt>0</asrwt>
<pdfrwt beam="1">  1       21 0.48136243E-02 0.13864628E+03</pdfrwt>
<pdfrwt beam="2">  1       -4 0.55847200E-01 0.13864628E+03</pdfrwt>
<totfact> 0.35928095E+04</totfact>
</mgrwt>
</event>
<event>
 6    4  0.6277709E-003  0.1340170E+03  0.7818608E-02  0.1221614E+00
         -4   -1    0    0    0  501 -0.00000000000E+00  0.00000000000E+00  0.14276206051E+03  0.14276770931E+03  0.12700000000E+01 0. -1.
         21   -1    0    0  501  502  0.00000000000E+00 -0.00000000000E+00 -0.64291414048E+02  0.64291414048E+02  0.00000000000E+00 0. -1.
         25    2    1    2    0    0  0.16171807630E+02  0.45524439787E+02  0.84384018984E+02  0.15837049168E+03  0.12500619183E+03 0.  0.
    9000005    1    3    3    0    0 -0.47540066566E+02 -0.10908879711E+02  0.27620704158E+02  0.56062151973E+02  0.10000000000E+01 0.  0.
    9000005    1    3    3    0    0  0.63711874197E+02  0.56433319498E+02  0.56763314826E+02  0.10230833971E+03  0.10000000000E+01 0.  0.
         -4    1    1    2    0  502 -0.16171807630E+02 -0.45524439787E+02 -0.59133725232E+01  0.48688631676E+02  0.12700000000E+01 0.  1.
<mgrwt>
<rscale>  1 0.13401698E+03</rscale>
<asrwt>0</asrwt>
<pdfrwt beam="2">  1       21 0.98909868E-02 0.13401698E+03</pdfrwt>
<pdfrwt beam="1">  1       -4 0.21964793E-01 0.13401698E+03</pdfrwt>
<totfact> 0.63469975E+04</totfact>
</mgrwt>
</event>
<event>
 6    4  0.6277709E-003  0.1315542E+03  0.7818608E-02  0.1225168E+00
         -4   -1    0    0    0  501 -0.00000000000E+00  0.00000000000E+00  0.20487827494E+02  0.20527152151E+02  0.12700000000E+01 0.  1.
         21   -1    0    0  501  502  0.00000000000E+00 -0.00000000000E+00 -0.43205147424E+03  0.43205147424E+03  0.00000000000E+00 0. -1.
         25    2    1    2    0    0  0.22564118083E+01 -0.40946629744E+02 -0.21721584791E+03  0.25394731543E+03  0.12499918620E+03 0.  0.
    9000005    1    3    3    0    0  0.43332669974E+02 -0.23002701124E+01 -0.18277158343E+03  0.18785489943E+03  0.10000000000E+01 0.  0.
    9000005    1    3    3    0    0 -0.41076258166E+02 -0.38646359631E+02 -0.34444264484E+02  0.66092416006E+02  0.10000000000E+01 0.  0.
         -4    1    1    2    0  502 -0.22564118083E+01  0.40946629744E+02 -0.19434779883E+03  0.19863131096E+03  0.12700000000E+01 0. -1.
<mgrwt>
<rscale>  1 0.13155423E+03</rscale>
<asrwt>0</asrwt>
<pdfrwt beam="2">  1       21 0.66469451E-01 0.13155423E+03</pdfrwt>
<pdfrwt beam="1">  1       -4 0.31551423E-02 0.13155423E+03</pdfrwt>
<totfact> 0.42159346E+04</totfact>
</mgrwt>
</event>
<event>
 6    4  0.6277709E-003  0.1281184E+03  0.7818608E-02  0.1230275E+00
         -4   -1    0    0    0  501 -0.00000000000E+00  0.00000000000E+00  0.21354299945E+03  0.21354677594E+03  0.12700000000E+01 0. -1.
         21   -1    0    0  501  502  0.00000000000E+00 -0.00000000000E+00 -0.28961484028E+02  0.28961484028E+02  0.00000000000E+00 0. -1.
         25    2    1    2    0    0  0.17086505235E+02 -0.22297250780E+02  0.13977230049E+03  0.18960651429E+03  0.12500087288E+03 0.  0.
    9000005    1    3    3    0    0  0.30952498916E+02  0.44180117918E+02  0.91715968810E+02  0.10640845334E+03  0.10000000000E+01 0.  0.
    9000005    1    3    3    0    0 -0.13865993681E+02 -0.66477368698E+02  0.48056331685E+02  0.83198060943E+02  0.10000000000E+01 0.  0.
         -4    1    1    2    0  502 -0.17086505235E+02  0.22297250780E+02  0.44809214929E+02  0.52901745681E+02  0.12700000000E+01 0.  1.
<mgrwt>
<rscale>  1 0.12811844E+03</rscale>
<asrwt>0</asrwt>
<pdfrwt beam="2">  1       21 0.44556131E-02 0.12811844E+03</pdfrwt>
<pdfrwt beam="1">  1       -4 0.32855200E-01 0.12811844E+03</pdfrwt>
<totfact> 0.11624937E+05</totfact>
</mgrwt>
</event>
<event>
 6    4  0.6277709E-003  0.1267155E+03  0.7818608E-02  0.1232412E+00
         -4   -1    0    0    0  501 -0.00000000000E+00  0.00000000000E+00  0.22461879311E+02  0.22497753714E+02  0.12700000000E+01 0.  1.
         21   -1    0    0  501  502  0.00000000000E+00 -0.00000000000E+00 -0.24746404606E+03  0.24746404606E+03  0.00000000000E+00 0.  1.
         25    2    1    2    0    0  0.16454095701E+02  0.12700462624E+02 -0.17744146670E+03  0.21804193744E+03  0.12499909343E+03 0.  0.
    9000005    1    3    3    0    0  0.22750887123E+02 -0.12604628305E+02  0.10668866143E+02  0.28130130187E+02  0.10000000000E+01 0.  0.
    9000005    1    3    3    0    0 -0.62967914214E+01  0.25305090930E+02 -0.18811033284E+03  0.18991180725E+03  0.10000000000E+01 0.  0.
         -4    1    1    2    0  502 -0.16454095701E+02 -0.12700462624E+02 -0.47560700046E+02  0.51919862337E+02  0.12700000000E+01 0. -1.
<mgrwt>
<rscale>  1 0.12671548E+03</rscale>
<asrwt>0</asrwt>
<pdfrwt beam="2">  1       21 0.38071391E-01 0.12671548E+03</pdfrwt>
<pdfrwt beam="1">  1       -4 0.34586840E-02 0.12671548E+03</pdfrwt>
<totfact> 0.11501738E+05</totfact>
</mgrwt>
</event>
<event>
 6    4  0.6277709E-003  0.1283101E+03  0.7818608E-02  0.1229985E+00
         21   -1    0    0  501  502  0.00000000000E+00  0.00000000000E+00  0.86844061611E+01  0.86844061611E+01  0.00000000000E+00 0.  1.
          4   -1    0    0  502    0 -0.00000000000E+00 -0.00000000000E+00 -0.71430939720E+03  0.71431052619E+03  0.12700000000E+01 0.  1.
         25    2    1    2    0    0 -0.26056332357E+01 -0.28918130791E+02 -0.56243378911E+03  0.57688408120E+03  0.12498171227E+03 0.  0.
    9000005    1    3    3    0    0  0.56632879674E+02  0.43739655865E+01 -0.32448367263E+03  0.32941928972E+03  0.10000000000E+01 0.  0.
    9000005    1    3    3    0    0 -0.59238512910E+02 -0.33292096378E+02 -0.23795011647E+03  0.24746479148E+03  0.10000000000E+01 0.  0.
          4    1    1    2  501    0  0.26056332357E+01  0.28918130791E+02 -0.14319120193E+03  0.14611085115E+03  0.12700000000E+01 0. -1.
<mgrwt>
<rscale>  1 0.12831008E+03</rscale>
<asrwt>0</asrwt>
<pdfrwt beam="1">  1       21 0.13360626E-02 0.12831008E+03</pdfrwt>
<pdfrwt beam="2">  1        4 0.10990097E+00 0.12831008E+03</pdfrwt>
<totfact> 0.64669917E+04</totfact>
</mgrwt>
</event>
<event>
 6    4  0.6277709E-003  0.1305137E+03  0.7818608E-02  0.1226695E+00
         21   -1    0    0  501  502  0.00000000000E+00  0.00000000000E+00  0.74050526539E+02  0.74050526539E+02  0.00000000000E+00 0. -1.
          4   -1    0    0  502    0 -0.00000000000E+00 -0.00000000000E+00 -0.84833166005E+03  0.84833261068E+03  0.12700000000E+01 0.  1.
         25    2    1    2    0    0 -0.32806872208E+02 -0.18243760262E+02 -0.83817059035E+03  0.84827105152E+03  0.12499885062E+03 0.  0.
    9000005    1    3    3    0    0 -0.34776148821E+02  0.27086910602E+02 -0.72499829840E+03  0.72633780979E+03  0.10000000000E+01 0.  0.
    9000005    1    3    3    0    0  0.19692766128E+01 -0.45330670863E+02 -0.11317229196E+03  0.12193324173E+03  0.10000000000E+01 0.  0.
          4    1    1    2  501    0  0.32806872208E+02  0.18243760262E+02  0.63889456838E+02  0.74112085706E+02  0.12700000000E+01 0. -1.
<mgrwt>
<rscale>  1 0.13051375E+03</rscale>
<asrwt>0</asrwt>
<pdfrwt beam="1">  1       21 0.11392388E-01 0.13051375E+03</pdfrwt>
<pdfrwt beam="2">  1        4 0.13051348E+00 0.13051375E+03</pdfrwt>
<totfact> 0.12080485E+03</totfact>
</mgrwt>
</event>
<event>
 6    4  0.6277709E-003  0.1273356E+03  0.7818608E-02  0.1231464E+00
         -4   -1    0    0    0  501 -0.00000000000E+00  0.00000000000E+00  0.20179234117E+03  0.20179633757E+03  0.12700000000E+01 0. -1.
         21   -1    0    0  501  502  0.00000000000E+00 -0.00000000000E+00 -0.26632175052E+03  0.26632175052E+03  0.00000000000E+00 0.  1.
         25    2    1    2    0    0 -0.58243659428E+01 -0.23584365366E+02  0.18104567360E+03  0.22134110416E+03  0.12499681168E+03 0.  0.
    9000005    1    3    3    0    0  0.15277830466E+02 -0.52413869943E+02  0.22908288983E+02  0.59214994472E+02  0.10000000000E+01 0.  0.
    9000005    1    3    3    0    0 -0.21102196409E+02  0.28829504577E+02  0.15813738462E+03  0.16212610969E+03  0.10000000000E+01 0.  0.
         -4    1    1    2    0  502  0.58243659428E+01  0.23584365366E+02 -0.24557508296E+03  0.24677698393E+03  0.12700000000E+01 0.  1.
<mgrwt>
<rscale>  1 0.12733557E+03</rscale>
<asrwt>0</asrwt>
<pdfrwt beam="2">  1       21 0.40972577E-01 0.12733557E+03</pdfrwt>
<pdfrwt beam="1">  1       -4 0.31045516E-01 0.12733557E+03</pdfrwt>
<totfact> 0.23667194E+03</totfact>
</mgrwt>
</event>
<event>
 6    4  0.6277709E-003  0.1293832E+03  0.7818608E-02  0.1228374E+00
         21   -1    0    0  501  502  0.00000000000E+00  0.00000000000E+00  0.67078909892E+03  0.67078909892E+03  0.00000000000E+00 0. -1.
         -4   -1    0    0    0  501 -0.00000000000E+00 -0.00000000000E+00 -0.10116835771E+02  0.10196237837E+02  0.12700000000E+01 0. -1.
         25    2    1    2    0    0  0.52972402070E+00  0.33389472541E+02  0.56563603709E+03  0.58024490471E+03  0.12499954204E+03 0.  0.
    9000005    1    3    3    0    0 -0.34023246113E+02  0.66062651406E+02  0.24264950551E+03  0.25377477753E+03  0.10000000000E+01 0.  0.
    9000005    1    3    3    0    0  0.34552970133E+02 -0.32673178865E+02  0.32298653158E+03  0.32647012719E+03  0.10000000000E+01 0.  0.
         -4    1    1    2    0  502 -0.52972402070E+00 -0.33389472541E+02  0.95036226057E+02  0.10074043204E+03  0.12700000000E+01 0.  1.
<mgrwt>
<rscale>  1 0.12938324E+03</rscale>
<asrwt>0</asrwt>
<pdfrwt beam="1">  1       21 0.10319829E+00 0.12938324E+03</pdfrwt>
<pdfrwt beam="2">  1       -4 0.15626371E-02 0.12938324E+03</pdfrwt>
<totfact> 0.46287041E+04</totfact>
</mgrwt>
</event>
<event>
 6    4  0.6277709E-003  0.1303165E+03  0.7818608E-02  0.1226987E+00
         21   -1    0    0  501  502  0.00000000000E+00  0.00000000000E+00  0.63692262220E+02  0.63692262220E+02  0.00000000000E+00 0. -1.
          4   -1    0    0  502    0 -0.00000000000E+00 -0.00000000000E+00 -0.14635360855E+03  0.14635911873E+03  0.12700000000E+01 0. -1.
         25    2    1    2    0    0  0.37800281537E+00  0.36847118854E+02 -0.10463847571E+03  0.16712749285E+03  0.12499814083E+03 0.  0.
    9000005    1    3    3    0    0 -0.67322963358E+01  0.71301737597E+02 -0.11026449153E+03  0.13148581555E+03  0.10000000000E+01 0.  0.
    9000005    1    3    3    0    0  0.71102991512E+01 -0.34454618743E+02  0.56260158127E+01  0.35641677299E+02  0.10000000000E+01 0.  0.
          4    1    1    2  501    0 -0.37800281537E+00 -0.36847118854E+02  0.21977129385E+02  0.42923888104E+02  0.12700000000E+01 0.  1.
<mgrwt>
<rscale>  1 0.13031649E+03</rscale>
<asrwt>0</asrwt>
<pdfrwt beam="1">  1       21 0.97988097E-02 0.13031649E+03</pdfrwt>
<pdfrwt beam="2">  1        4 0.22517337E-01 0.13031649E+03</pdfrwt>
<totfact> 0.61442660E+04</totfact>
</mgrwt>
</event>
<event>
 6    4  0.6277709E-003  0.1267773E+03  0.7818608E-02  0.1232317E+00
         21   -1    0    0  501  502  0.00000000000E+00  0.00000000000E+00  0.12679279303E+03  0.12679279303E+03  0.00000000000E+00 0.  1.
         -4   -1    0    0    0  501 -0.00000000000E+00 -0.00000000000E+00 -0.68646032503E+02  0.68657779446E+02  0.12700000000E+01 0. -1.
         25    2    1    2    0    0 -0.13681795927E+02  0.16105170469E+02 -0.69800266731E+01  0.12696933879E+03  0.12500369661E+03 0.  0.
    9000005    1    3    3    0    0 -0.22247079149E+02  0.23942665701E+02 -0.62340645100E+02  0.70395595054E+02  0.10000000000E+01 0.  0.
    9000005    1    3    3    0    0  0.85652832225E+01 -0.78374952317E+01  0.55360618427E+02  0.56573743740E+02  0.10000000000E+01 0.  0.
         -4    1    1    2    0  502  0.13681795927E+02 -0.16105170469E+02  0.65126787199E+02  0.68481233681E+02  0.12700000000E+01 0.  1.
<mgrwt>
<rscale>  1 0.12677733E+03</rscale>
<asrwt>0</asrwt>
<pdfrwt beam="1">  1       21 0.19506584E-01 0.12677733E+03</pdfrwt>
<pdfrwt beam="2">  1       -4 0.10562321E-01 0.12677733E+03</pdfrwt>
<totfact> 0.67092832E+04</totfact>
</mgrwt>
</event>
<event>
 6    4  0.6277709E-003  0.1303111E+03  0.7818608E-02  0.1226995E+00
         21   -1    0    0  501  502  0.00000000000E+00  0.00000000000E+00  0.21585690961E+02  0.21585690961E+02  0.00000000000E+00 0. -1.
          4   -1    0    0  502    0 -0.00000000000E+00 -0.00000000000E+00 -0.32925144845E+03  0.32925389778E+03  0.12700000000E+01 0. -1.
         25    2    1    2    0    0  0.17150452652E+02  0.32581777753E+02 -0.21920175912E+03  0.25501056300E+03  0.12500106309E+03 0.  0.
    9000005    1    3    3    0    0  0.54500830792E+02  0.37375944880E+02 -0.53360887839E+02  0.84945195060E+02  0.10000000000E+01 0.  0.
    9000005    1    3    3    0    0 -0.37350378140E+02 -0.47941671272E+01 -0.16584087128E+03  0.17006536794E+03  0.10000000000E+01 0.  0.
          4    1    1    2  501    0 -0.17150452652E+02 -0.32581777753E+02 -0.88463998361E+02  0.95829025737E+02  0.12700000000E+01 0.  1.
<mgrwt>
<rscale>  1 0.13031107E+03</rscale>
<asrwt>0</asrwt>
<pdfrwt beam="1">  1       21 0.33208758E-02 0.13031107E+03</pdfrwt>
<pdfrwt beam="2">  1        4 0.50657127E-01 0.13031107E+03</pdfrwt>
<totfact> 0.80767768E+04</totfact>
</mgrwt>
</event>
<event>
 6    4  0.6277709E-003  0.1282648E+03  0.7818608E-02  0.1230053E+00
         21   -1    0    0  501  502  0.00000000000E+00  0.00000000000E+00  0.96153512459E+02  0.96153512459E+02  0.00000000000E+00 0. -1.
          4   -1    0    0  502    0 -0.00000000000E+00 -0.00000000000E+00 -0.66429699565E+02  0.66441838358E+02  0.12700000000E+01 0. -1.
         25    2    1    2    0    0  0.23730766959E+01  0.28647291886E+02  0.35842200111E+02  0.13317858030E+03  0.12500228845E+03 0.  0.
    9000005    1    3    3    0    0 -0.22316029072E+02  0.59797744457E+02  0.59204102123E+02  0.87062627481E+02  0.10000000000E+01 0.  0.
    9000005    1    3    3    0    0  0.24689105768E+02 -0.31150452571E+02 -0.23361902011E+02  0.46115952821E+02  0.10000000000E+01 0.  0.
          4    1    1    2  501    0 -0.23730766959E+01 -0.28647291886E+02 -0.61183872177E+01  0.29416770516E+02  0.12700000000E+01 0.  1.
<mgrwt>
<rscale>  1 0.12826485E+03</rscale>
<asrwt>0</asrwt>
<pdfrwt beam="1">  1       21 0.14792848E-01 0.12826485E+03</pdfrwt>
<pdfrwt beam="2">  1        4 0.10221533E-01 0.12826485E+03</pdfrwt>
<totfact> 0.11753954E+05</totfact>
</mgrwt>
</event>
<event>
 6    4  0.6277709E-003  0.1297799E+03  0.7818608E-02  0.1227783E+00
          4   -1    0    0  502    0 -0.00000000000E+00  0.00000000000E+00  0.21630634078E+03  0.21631006902E+03  0.12700000000E+01 0. -1.
         21   -1    0    0  501  502  0.00000000000E+00 -0.00000000000E+00 -0.60108752198E+02  0.60108752198E+02  0.00000000000E+00 0.  1.
         25    2    1    2    0    0 -0.12465576384E+02  0.32455758488E+02  0.18855872170E+03  0.22890437404E+03  0.12503621105E+03 0.  0.
    9000005    1    3    3    0    0 -0.50649004689E+02 -0.52387460939E+01  0.16042016065E+03  0.16831040990E+03  0.10000000000E+01 0.  0.
    9000005    1    3    3    0    0  0.38183428305E+02  0.37694504582E+02  0.28138561046E+02  0.60593964143E+02  0.10000000000E+01 0.  0.
          4    1    1    2  501    0  0.12465576384E+02 -0.32455758488E+02 -0.32361133121E+02  0.47514447176E+02  0.12700000000E+01 0.  1.
<mgrwt>
<rscale>  1 0.12977989E+03</rscale>
<asrwt>0</asrwt>
<pdfrwt beam="2">  1       21 0.92475004E-02 0.12977989E+03</pdfrwt>
<pdfrwt beam="1">  1        4 0.33279217E-01 0.12977989E+03</pdfrwt>
<totfact> 0.32767057E+04</totfact>
</mgrwt>
</event>
<event>
 6    4  0.6277709E-003  0.1728886E+03  0.7818608E-02  0.1174869E+00
         21   -1    0    0  501  502  0.00000000000E+00  0.00000000000E+00  0.42065359819E+02  0.42065359819E+02  0.00000000000E+00 0. -1.
         -4   -1    0    0    0  501 -0.00000000000E+00 -0.00000000000E+00 -0.51592257309E+03  0.51592413621E+03  0.12700000000E+01 0.  1.
         25    2    1    2    0    0 -0.97598192064E+02 -0.68853652389E+02 -0.24534033886E+03  0.30013719851E+03  0.12499689404E+03 0.  0.
    9000005    1    3    3    0    0 -0.89172649878E+02 -0.88776587863E+02 -0.12323826485E+03  0.17612982133E+03  0.10000000000E+01 0.  0.
    9000005    1    3    3    0    0 -0.84255421862E+01  0.19922935474E+02 -0.12210207401E+03  0.12400737718E+03  0.10000000000E+01 0.  0.
         -4    1    1    2    0  502  0.97598192064E+02  0.68853652389E+02 -0.22851687442E+03  0.25785229752E+03  0.12700000000E+01 0. -1.
<mgrwt>
<rscale>  1 0.17288857E+03</rscale>
<asrwt>0</asrwt>
<pdfrwt beam="1">  1       21 0.64715936E-02 0.17288857E+03</pdfrwt>
<pdfrwt beam="2">  1       -4 0.79374301E-01 0.17288857E+03</pdfrwt>
<totfact> 0.10447831E+04</totfact>
</mgrwt>
</event>
<event>
 6    4  0.6277709E-003  0.1273144E+03  0.7818608E-02  0.1231496E+00
         21   -1    0    0  501  502  0.00000000000E+00  0.00000000000E+00  0.22598117278E+03  0.22598117278E+03  0.00000000000E+00 0. -1.
          4   -1    0    0  502    0 -0.00000000000E+00 -0.00000000000E+00 -0.25850267936E+02  0.25881446103E+02  0.12700000000E+01 0. -1.
         25    2    1    2    0    0  0.24028423562E+02  0.26884908726E+01  0.15442571665E+03  0.20014057087E+03  0.12499741208E+03 0.  0.
    9000005    1    3    3    0    0  0.46883001579E+02  0.31798278109E+02  0.19021320510E+02  0.59765851133E+02  0.10000000000E+01 0.  0.
    9000005    1    3    3    0    0 -0.22854578017E+02 -0.29109787236E+02  0.13540439614E+03  0.14037471974E+03  0.10000000000E+01 0.  0.
          4    1    1    2  501    0 -0.24028423562E+02 -0.26884908726E+01  0.45705188193E+02  0.51722048005E+02  0.12700000000E+01 0.  1.
<mgrwt>
<rscale>  1 0.12731436E+03</rscale>
<asrwt>0</asrwt>
<pdfrwt beam="1">  1       21 0.34766333E-01 0.12731436E+03</pdfrwt>
<pdfrwt beam="2">  1        4 0.39796373E-02 0.12731436E+03</pdfrwt>
<totfact> 0.11029936E+05</totfact>
</mgrwt>
</event>
<event>
 6    4  0.6277709E-003  0.1290202E+03  0.7818608E-02  0.1228917E+00
         -4   -1    0    0    0  501 -0.00000000000E+00  0.00000000000E+00  0.25557527993E+03  0.25557843534E+03  0.12700000000E+01 0. -1.
         21   -1    0    0  501  502  0.00000000000E+00 -0.00000000000E+00 -0.37159426331E+02  0.37159426331E+02  0.00000000000E+00 0.  1.
         25    2    1    2    0    0 -0.27269599159E+02  0.16649325386E+02  0.22567114558E+03  0.25994939974E+03  0.12500157360E+03 0.  0.
    9000005    1    3    3    0    0 -0.17769168238E+02 -0.53994665417E+02  0.85228639873E+02  0.10245041868E+03  0.10000000000E+01 0.  0.
    9000005    1    3    3    0    0 -0.95004309205E+01  0.70643990803E+02  0.14044250571E+03  0.15749898106E+03  0.10000000000E+01 0.  0.
         -4    1    1    2    0  502  0.27269599159E+02 -0.16649325386E+02 -0.72552919848E+01  0.32788461932E+02  0.12700000000E+01 0.  1.
<mgrwt>
<rscale>  1 0.12902025E+03</rscale>
<asrwt>0</asrwt>
<pdfrwt beam="2">  1       21 0.57168350E-02 0.12902025E+03</pdfrwt>
<pdfrwt beam="1">  1       -4 0.39321185E-01 0.12902025E+03</pdfrwt>
<totfact> 0.54068567E+04</totfact>
</mgrwt>
</event>
<event>
 6    4  0.6277709E-003  0.1332109E+03  0.7818608E-02  0.1222768E+00
          4   -1    0    0  502    0 -0.00000000000E+00  0.00000000000E+00  0.34043010958E+03  0.34043247848E+03  0.12700000000E+01 0.  1.
         21   -1    0    0  501  502  0.00000000000E+00 -0.00000000000E+00 -0.74020052011E+02  0.74020052011E+02  0.00000000000E+00 0. -1.
         25    2    1    2    0    0 -0.96166508099E+01  0.45021116134E+02  0.31831312702E+03  0.34506288869E+03  0.12500307777E+03 0.  0.
    9000005    1    3    3    0    0  0.84587810562E-01  0.59966146551E+02  0.55718812979E+02  0.81862885406E+02  0.10000000000E+01 0.  0.
    9000005    1    3    3    0    0 -0.97012386205E+01 -0.14945030417E+02  0.26259431404E+03  0.26320000329E+03  0.10000000000E+01 0.  0.
          4    1    1    2  501    0  0.96166508099E+01 -0.45021116134E+02 -0.51903069452E+02  0.69389641801E+02  0.12700000000E+01 0. -1.
<mgrwt>
<rscale>  1 0.13321092E+03</rscale>
<asrwt>0</asrwt>
<pdfrwt beam="2">  1       21 0.11387700E-01 0.13321092E+03</pdfrwt>
<pdfrwt beam="1">  1        4 0.52374883E-01 0.13321092E+03</pdfrwt>
<totfact> 0.92906397E+03</totfact>
</mgrwt>
</event>
<event>
 6    4  0.6277709E-003  0.2416417E+03  0.7818608E-02  0.1118704E+00
         21   -1    0    0  501  502  0.00000000000E+00  0.00000000000E+00  0.17813846057E+04  0.17813846057E+04  0.00000000000E+00 0. -1.
          4   -1    0    0  502    0 -0.00000000000E+00 -0.00000000000E+00 -0.30895062959E+02  0.30921154818E+02  0.12700000000E+01 0.  1.
         25    2    1    2    0    0  0.88093031939E+00  0.20679760006E+03  0.67096822395E+03  0.71315430869E+03  0.12499874809E+03 0.  0.
    9000005    1    3    3    0    0  0.46423594319E+02  0.13053486818E+03  0.51853968085E+03  0.53672982266E+03  0.10000000000E+01 0.  0.
    9000005    1    3    3    0    0 -0.45542663999E+02  0.76262731885E+02  0.15242854310E+03  0.17642448603E+03  0.10000000000E+01 0.  0.
          4    1    1    2  501    0 -0.88093031939E+00 -0.20679760006E+03  0.10795213188E+04  0.10991514518E+04  0.12700000000E+01 0. -1.
<mgrwt>
<rscale>  1 0.24164170E+03</rscale>
<asrwt>0</asrwt>
<pdfrwt beam="1">  1       21 0.27405909E+00 0.24164170E+03</pdfrwt>
<pdfrwt beam="2">  1        4 0.47551299E-02 0.24164170E+03</pdfrwt>
<totfact> 0.51403170E+02</totfact>
</mgrwt>
</event>
<event>
 6    4  0.6277709E-003  0.1331241E+03  0.7818608E-02  0.1222892E+00
         21   -1    0    0  501  502  0.00000000000E+00  0.00000000000E+00  0.75984348247E+03  0.75984348247E+03  0.00000000000E+00 0. -1.
         -4   -1    0    0    0  501 -0.00000000000E+00 -0.00000000000E+00 -0.10521075903E+02  0.10597449606E+02  0.12700000000E+01 0.  1.
         25    2    1    2    0    0  0.24172727740E+02  0.38890231360E+02  0.57367127221E+03  0.58891488777E+03  0.12500098245E+03 0.  0.
    9000005    1    3    3    0    0 -0.30850505741E+02 -0.28094185964E+02  0.26634561208E+03  0.26959603495E+03  0.10000000000E+01 0.  0.
    9000005    1    3    3    0    0  0.55023233480E+02  0.66984417324E+02  0.30732566013E+03  0.31931885282E+03  0.10000000000E+01 0.  0.
         -4    1    1    2    0  502 -0.24172727740E+02 -0.38890231360E+02  0.17565113436E+03  0.18152604431E+03  0.12700000000E+01 0. -1.
<mgrwt>
<rscale>  1 0.13312406E+03</rscale>
<asrwt>0</asrwt>
<pdfrwt beam="1">  1       21 0.11689895E+00 0.13312406E+03</pdfrwt>
<pdfrwt beam="2">  1       -4 0.16245842E-02 0.13312406E+03</pdfrwt>
<totfact> 0.32464848E+04</totfact>
</mgrwt>
</event>
<event>
 6    4  0.6277709E-003  0.1273102E+03  0.7818608E-02  0.1231502E+00
         21   -1    0    0  501  502  0.00000000000E+00  0.00000000000E+00  0.13449499209E+02  0.13449499209E+02  0.00000000000E+00 0. -1.
         -4   -1    0    0    0  501 -0.00000000000E+00 -0.00000000000E+00 -0.44968883454E+03  0.44969062789E+03  0.12700000000E+01 0.  1.
         25    2    1    2    0    0 -0.99384973997E+00  0.24039915437E+02 -0.39871085602E+03  0.41854298671E+03  0.12501591795E+03 0.  0.
    9000005    1    3    3    0    0  0.48693112332E+02  0.89138143572E+01 -0.69930669339E+02  0.85684151330E+02  0.10000000000E+01 0.  0.
    9000005    1    3    3    0    0 -0.49686962072E+02  0.15126101080E+02 -0.32878018668E+03  0.33285883538E+03  0.10000000000E+01 0.  0.
         -4    1    1    2    0  502  0.99384973997E+00 -0.24039915437E+02 -0.37528479310E+02  0.44597140389E+02  0.12700000000E+01 0. -1.
<mgrwt>
<rscale>  1 0.12731019E+03</rscale>
<asrwt>0</asrwt>
<pdfrwt beam="1">  1       21 0.20691538E-02 0.12731019E+03</pdfrwt>
<pdfrwt beam="2">  1       -4 0.69187645E-01 0.12731019E+03</pdfrwt>
<totfact> 0.90661459E+04</totfact>
</mgrwt>
</event>
<event>
 6    4  0.6277709E-003  0.1269787E+03  0.7818608E-02  0.1232009E+00
         21   -1    0    0  501  502  0.00000000000E+00  0.00000000000E+00  0.21149252833E+02  0.21149252833E+02  0.00000000000E+00 0.  1.
         -4   -1    0    0    0  501 -0.00000000000E+00 -0.00000000000E+00 -0.26755106549E+03  0.26755407966E+03  0.12700000000E+01 0.  1.
         25    2    1    2    0    0  0.19725266750E+02  0.10402196952E+02 -0.22096915793E+03  0.25485477749E+03  0.12500518790E+03 0.  0.
    9000005    1    3    3    0    0  0.13190414911E+02 -0.53475554510E+02 -0.14652931949E+03  0.15654220979E+03  0.10000000000E+01 0.  0.
    9000005    1    3    3    0    0  0.65348518395E+01  0.63877751461E+02 -0.74439838446E+02  0.98312567702E+02  0.10000000000E+01 0.  0.
         -4    1    1    2    0  502 -0.19725266750E+02 -0.10402196952E+02 -0.25432654722E+02  0.33848555006E+02  0.12700000000E+01 0. -1.
<mgrwt>
<rscale>  1 0.12697869E+03</rscale>
<asrwt>0</asrwt>
<pdfrwt beam="1">  1       21 0.32537313E-02 0.12697869E+03</pdfrwt>
<pdfrwt beam="2">  1       -4 0.41164867E-01 0.12697869E+03</pdfrwt>
<totfact> 0.12615875E+05</totfact>
</mgrwt>
</event>
<event>
 6    4  0.6277709E-003  0.1314396E+03  0.7818608E-02  0.1225335E+00
          4   -1    0    0  502    0 -0.00000000000E+00  0.00000000000E+00  0.42555475166E+03  0.42555664671E+03  0.12700000000E+01 0. -1.
         21   -1    0    0  501  502  0.00000000000E+00 -0.00000000000E+00 -0.19687950882E+02  0.19687950882E+02  0.00000000000E+00 0. -1.
         25    2    1    2    0    0 -0.22560607022E+02 -0.33738722897E+02  0.36361989076E+03  0.38664684406E+03  0.12501629758E+03 0.  0.
    9000005    1    3    3    0    0 -0.31657013391E+02  0.14522904120E+02  0.21338083410E+02  0.40858231050E+02  0.10000000000E+01 0.  0.
    9000005    1    3    3    0    0  0.90964063691E+01 -0.48261627016E+02  0.34228180735E+03  0.34578861301E+03  0.10000000000E+01 0.  0.
          4    1    1    2  501    0  0.22560607022E+02  0.33738722897E+02  0.42246910019E+02  0.58597753524E+02  0.12700000000E+01 0.  1.
<mgrwt>
<rscale>  1 0.13143956E+03</rscale>
<asrwt>0</asrwt>
<pdfrwt beam="2">  1       21 0.30289158E-02 0.13143956E+03</pdfrwt>
<pdfrwt beam="1">  1        4 0.65473252E-01 0.13143956E+03</pdfrwt>
<totfact> 0.55116222E+04</totfact>
</mgrwt>
</event>
<event>
 6    4  0.6277709E-003  0.2213839E+03  0.7818608E-02  0.1132855E+00
         -4   -1    0    0    0  501 -0.00000000000E+00  0.00000000000E+00  0.30483536209E+03  0.30483800760E+03  0.12700000000E+01 0.  1.
         21   -1    0    0  501  502  0.00000000000E+00 -0.00000000000E+00 -0.13484086490E+03  0.13484086490E+03  0.00000000000E+00 0. -1.
         25    2    1    2    0    0  0.15774739636E+03  0.92212235647E+02  0.75058203798E+02  0.23376177714E+03  0.12499398798E+03 0.  0.
    9000005    1    3    3    0    0 -0.73561838087E+01  0.50537977982E+02  0.18603488418E+02  0.54362583089E+02  0.10000000000E+01 0.  0.
    9000005    1    3    3    0    0  0.16510358017E+03  0.41674257665E+02  0.56454715380E+02  0.17939919405E+03  0.10000000000E+01 0.  0.
         -4    1    1    2    0  502 -0.15774739636E+03 -0.92212235647E+02  0.94936293394E+02  0.20591709537E+03  0.12700000000E+01 0. -1.
<mgrwt>
<rscale>  1 0.22138391E+03</rscale>
<asrwt>0</asrwt>
<pdfrwt beam="2">  1       21 0.20744749E-01 0.22138391E+03</pdfrwt>
<pdfrwt beam="1">  1       -4 0.46898411E-01 0.22138391E+03</pdfrwt>
<totfact> 0.40255458E+03</totfact>
</mgrwt>
</event>
<event>
 6    4  0.6277709E-003  0.1293637E+03  0.7818608E-02  0.1228403E+00
          4   -1    0    0  502    0 -0.00000000000E+00  0.00000000000E+00  0.14527429633E+03  0.14527984745E+03  0.12700000000E+01 0. -1.
         21   -1    0    0  501  502  0.00000000000E+00 -0.00000000000E+00 -0.88881561839E+02  0.88881561839E+02  0.00000000000E+00 0. -1.
         25    2    1    2    0    0 -0.32489428786E+02  0.73209994642E+01  0.11081976761E+03  0.17034076333E+03  0.12500317893E+03 0.  0.
    9000005    1    3    3    0    0 -0.13359909897E+02 -0.37744460907E+02 -0.88695105163E+01  0.41021942158E+02  0.10000000000E+01 0.  0.
    9000005    1    3    3    0    0 -0.19129518890E+02  0.45065460371E+02  0.11968927813E+03  0.12931882117E+03  0.10000000000E+01 0.  0.
          4    1    1    2  501    0  0.32489428786E+02 -0.73209994642E+01 -0.54427033118E+02  0.63820645955E+02  0.12700000000E+01 0.  1.
<mgrwt>
<rscale>  1 0.12936365E+03</rscale>
<asrwt>0</asrwt>
<pdfrwt beam="2">  1       21 0.13674086E-01 0.12936365E+03</pdfrwt>
<pdfrwt beam="1">  1        4 0.22351017E-01 0.12936365E+03</pdfrwt>
<totfact> 0.34522298E+04</totfact>
</mgrwt>
</event>
<event>
 6    4  0.6277709E-003  0.1297792E+03  0.7818608E-02  0.1227784E+00
         21   -1    0    0  501  502  0.00000000000E+00  0.00000000000E+00  0.33458159783E+01  0.33458159783E+01  0.00000000000E+00 0. -1.
         -4   -1    0    0    0  501 -0.00000000000E+00 -0.00000000000E+00 -0.24020287323E+04  0.24020290681E+04  0.12700000000E+01 0.  1.
         25    2    1    2    0    0  0.30608465581E+02 -0.16637627421E+02 -0.21864221657E+04  0.21902704257E+04  0.12501584875E+03 0.  0.
    9000005    1    3    3    0    0  0.66858390726E+02 -0.40507980123E+02 -0.99879359653E+03  0.10018485860E+04  0.10000000000E+01 0.  0.
    9000005    1    3    3    0    0 -0.36249925146E+02  0.23870352702E+02 -0.11876285692E+04  0.11884218397E+04  0.10000000000E+01 0.  0.
         -4    1    1    2    0  502 -0.30608465581E+02  0.16637627421E+02 -0.21226075067E+03  0.21510445832E+03  0.12700000000E+01 0. -1.
<mgrwt>
<rscale>  1 0.12977924E+03</rscale>
<asrwt>0</asrwt>
<pdfrwt beam="1">  1       21 0.51474138E-03 0.12977924E+03</pdfrwt>
<pdfrwt beam="2">  1       -4 0.36956112E+00 0.12977924E+03</pdfrwt>
<totfact> 0.62553134E+03</totfact>
</mgrwt>
</event>
<event>
 6    4  0.6277709E-003  0.1408516E+03  0.7818608E-02  0.1212188E+00
         21   -1    0    0  501  502  0.00000000000E+00  0.00000000000E+00  0.19996914943E+03  0.19996914943E+03  0.00000000000E+00 0. -1.
          4   -1    0    0  502    0 -0.00000000000E+00 -0.00000000000E+00 -0.53511336831E+02  0.53526405347E+02  0.12700000000E+01 0.  1.
         25    2    1    2    0    0 -0.48450509832E+02 -0.43189713651E+02  0.87618370601E+02  0.16587993914E+03  0.12500548818E+03 0.  0.
    9000005    1    3    3    0    0 -0.15378850202E+02 -0.83789757110E+02  0.71089048822E+02  0.11095893516E+03  0.10000000000E+01 0.  0.
    9000005    1    3    3    0    0 -0.33071659630E+02  0.40600043459E+02  0.16529321778E+02  0.54921003979E+02  0.10000000000E+01 0.  0.
          4    1    1    2  501    0  0.48450509832E+02  0.43189713651E+02  0.58839441995E+02  0.87615615632E+02  0.12700000000E+01 0. -1.
<mgrwt>
<rscale>  1 0.14085161E+03</rscale>
<asrwt>0</asrwt>
<pdfrwt beam="1">  1       21 0.30764484E-01 0.14085161E+03</pdfrwt>
<pdfrwt beam="2">  1        4 0.82339828E-02 0.14085161E+03</pdfrwt>
<totfact> 0.43595743E+04</totfact>
</mgrwt>
</event>
<event>
 6    4  0.6277709E-003  0.1308449E+03  0.7818608E-02  0.1226207E+00
         21   -1    0    0  501  502  0.00000000000E+00  0.00000000000E+00  0.41709941724E+02  0.41709941724E+02  0.00000000000E+00 0.  1.
         -4   -1    0    0    0  501 -0.00000000000E+00 -0.00000000000E+00 -0.43039829817E+03  0.43040017190E+03  0.12700000000E+01 0. -1.
         25    2    1    2    0    0  0.24791940779E+02  0.29663186545E+02 -0.40829219674E+03  0.42874574555E+03  0.12500340575E+03 0.  0.
    9000005    1    3    3    0    0  0.12142849273E+02 -0.47447169994E+02 -0.11052087111E+03  0.12089063520E+03  0.10000000000E+01 0.  0.
    9000005    1    3    3    0    0  0.12649091506E+02  0.77110356539E+02 -0.29777132563E+03  0.30785511035E+03  0.10000000000E+01 0.  0.
         -4    1    1    2    0  502 -0.24791940779E+02 -0.29663186545E+02  0.19603840293E+02  0.43364368067E+02  0.12700000000E+01 0.  1.
<mgrwt>
<rscale>  1 0.13084493E+03</rscale>
<asrwt>0</asrwt>
<pdfrwt beam="1">  1       21 0.64169137E-02 0.13084493E+03</pdfrwt>
<pdfrwt beam="2">  1       -4 0.66216759E-01 0.13084493E+03</pdfrwt>
<totfact> 0.15344396E+04</totfact>
</mgrwt>
</event>
<event>
 6    4  0.6277709E-003  0.1282575E+03  0.7818608E-02  0.1230064E+00
         21   -1    0    0  501  502  0.00000000000E+00  0.00000000000E+00  0.75154142134E+02  0.75154142134E+02  0.00000000000E+00 0.  1.
         -4   -1    0    0    0  501 -0.00000000000E+00 -0.00000000000E+00 -0.11889559027E+03  0.11890237292E+03  0.12700000000E+01 0.  1.
         25    2    1    2    0    0  0.27473472633E+02  0.83856098531E+01 -0.77389459103E+02  0.14979692070E+03  0.12499951567E+03 0.  0.
    9000005    1    3    3    0    0  0.22043347435E+02  0.32251760084E+02 -0.10550331840E+03  0.11250793478E+03  0.10000000000E+01 0.  0.
    9000005    1    3    3    0    0  0.54301251980E+01 -0.23866150231E+02  0.28113859295E+02  0.37288985921E+02  0.10000000000E+01 0.  0.
         -4    1    1    2    0  502 -0.27473472633E+02 -0.83856098531E+01  0.33648010963E+02  0.44259594359E+02  0.12700000000E+01 0. -1.
<mgrwt>
<rscale>  1 0.12825751E+03</rscale>
<asrwt>0</asrwt>
<pdfrwt beam="1">  1       21 0.11562176E-01 0.12825751E+03</pdfrwt>
<pdfrwt beam="2">  1       -4 0.18292976E-01 0.12825751E+03</pdfrwt>
<totfact> 0.66639147E+04</totfact>
</mgrwt>
</event>
<event>
 6    4  0.6277709E-003  0.1287962E+03  0.7818608E-02  0.1229253E+00
         -4   -1    0    0    0  501 -0.00000000000E+00  0.00000000000E+00  0.53403994158E+03  0.53404145167E+03  0.12700000000E+01 0. -1.
         21   -1    0    0  501  502  0.00000000000E+00 -0.00000000000E+00 -0.11973269004E+02  0.11973269004E+02  0.00000000000E+00 0. -1.
         25    2    1    2    0    0 -0.23289317221E+02 -0.20525611739E+02  0.42673037148E+03  0.44574350726E+03  0.12499908513E+03 0.  0.
    9000005    1    3    3    0    0  0.25937555784E+01 -0.43400959916E+02  0.45468267774E+02  0.62918473154E+02  0.10000000000E+01 0.  0.
    9000005    1    3    3    0    0 -0.25883072800E+02  0.22875348177E+02  0.38126210371E+03  0.38282503410E+03  0.10000000000E+01 0.  0.
         -4    1    1    2    0  502  0.23289317221E+02  0.20525611739E+02  0.95336301094E+02  0.10027121342E+03  0.12700000000E+01 0.  1.
<mgrwt>
<rscale>  1 0.12879621E+03</rscale>
<asrwt>0</asrwt>
<pdfrwt beam="2">  1       21 0.18420418E-02 0.12879621E+03</pdfrwt>
<pdfrwt beam="1">  1       -4 0.82165269E-01 0.12879621E+03</pdfrwt>
<totfact> 0.75243556E+04</totfact>
</mgrwt>
</event>
<event>
 6    4  0.6277709E-003  0.1453309E+03  0.7818608E-02  0.1206331E+00
         21   -1    0    0  501  502  0.00000000000E+00  0.00000000000E+00  0.19173731734E+04  0.19173731734E+04  0.00000000000E+00 0.  1.
          4   -1    0    0  502    0 -0.00000000000E+00 -0.00000000000E+00 -0.22025618666E+02  0.22062202465E+02  0.12700000000E+01 0. -1.
         25    2    1    2    0    0  0.66063997029E+02 -0.33598215656E+02  0.22760674916E+03  0.27004797347E+03  0.12501113516E+03 0.  0.
    9000005    1    3    3    0    0  0.73998896313E+02 -0.71801831598E+02  0.18811941958E+03  0.21452565277E+03  0.10000000000E+01 0.  0.
    9000005    1    3    3    0    0 -0.79348992839E+01  0.38203615942E+02  0.39487329581E+02  0.55522320693E+02  0.10000000000E+01 0.  0.
          4    1    1    2  501    0 -0.66063997029E+02  0.33598215656E+02  0.16677408056E+04  0.16693874024E+04  0.12700000000E+01 0.  1.
<mgrwt>
<rscale>  1 0.14533092E+03</rscale>
<asrwt>0</asrwt>
<pdfrwt beam="1">  1       21 0.29498036E+00 0.14533092E+03</pdfrwt>
<pdfrwt beam="2">  1        4 0.33914047E-02 0.14533092E+03</pdfrwt>
<totfact> 0.70132234E+02</totfact>
</mgrwt>
</event>
<event>
 6    4  0.6277709E-003  0.1290339E+03  0.7818608E-02  0.1228896E+00
         21   -1    0    0  501  502  0.00000000000E+00  0.00000000000E+00  0.32814901893E+02  0.32814901893E+02  0.00000000000E+00 0.  1.
          4   -1    0    0  502    0 -0.00000000000E+00 -0.00000000000E+00 -0.32895838145E+03  0.32896083296E+03  0.12700000000E+01 0.  1.
         25    2    1    2    0    0 -0.40791604938E+01  0.31749999828E+02 -0.30271854232E+03  0.32907181476E+03  0.12500016545E+03 0.  0.
    9000005    1    3    3    0    0 -0.64344856737E+02  0.11129453122E+02 -0.15629661621E+03  0.16939231846E+03  0.10000000000E+01 0.  0.
    9000005    1    3    3    0    0  0.60265696243E+02  0.20620546706E+02 -0.14642192612E+03  0.15967949630E+03  0.10000000000E+01 0.  0.
          4    1    1    2  501    0  0.40791604938E+01 -0.31749999828E+02  0.65750627711E+01  0.32703920099E+02  0.12700000000E+01 0. -1.
<mgrwt>
<rscale>  1 0.12903388E+03</rscale>
<asrwt>0</asrwt>
<pdfrwt beam="1">  1       21 0.50484462E-02 0.12903388E+03</pdfrwt>
<pdfrwt beam="2">  1        4 0.50611063E-01 0.12903388E+03</pdfrwt>
<totfact> 0.40258242E+04</totfact>
</mgrwt>
</event>
<event>
 6    4  0.6277709E-003  0.1314963E+03  0.7818608E-02  0.1225252E+00
         -4   -1    0    0    0  501 -0.00000000000E+00  0.00000000000E+00  0.13007083938E+03  0.13007703931E+03  0.12700000000E+01 0.  1.
         21   -1    0    0  501  502  0.00000000000E+00 -0.00000000000E+00 -0.57486903205E+02  0.57486903205E+02  0.00000000000E+00 0.  1.
         25    2    1    2    0    0  0.30190771810E+02  0.27476077364E+02  0.61963117619E+02  0.14536403474E+03  0.12499942848E+03 0.  0.
    9000005    1    3    3    0    0  0.76754780674E+02  0.34783821045E+02  0.42112042866E+02  0.94210587076E+02  0.10000000000E+01 0.  0.
    9000005    1    3    3    0    0 -0.46564008864E+02 -0.73077436813E+01  0.19851074753E+02  0.51153447665E+02  0.10000000000E+01 0.  0.
         -4    1    1    2    0  502 -0.30190771810E+02 -0.27476077364E+02  0.10620818555E+02  0.42199907779E+02  0.12700000000E+01 0. -1.
<mgrwt>
<rscale>  1 0.13149629E+03</rscale>
<asrwt>0</asrwt>
<pdfrwt beam="2">  1       21 0.88441390E-02 0.13149629E+03</pdfrwt>
<pdfrwt beam="1">  1       -4 0.20012454E-01 0.13149629E+03</pdfrwt>
<totfact> 0.91041206E+04</totfact>
</mgrwt>
</event>
<event>
 6    4  0.6277709E-003  0.1291410E+03  0.7818608E-02  0.1228736E+00
         21   -1    0    0  501  502  0.00000000000E+00  0.00000000000E+00  0.57332421615E+01  0.57332421615E+01  0.00000000000E+00 0. -1.
         -4   -1    0    0    0  501 -0.00000000000E+00 -0.00000000000E+00 -0.11735138010E+04  0.11735144882E+04  0.12700000000E+01 0. -1.
         25    2    1    2    0    0  0.97721873585E+01 -0.30934489134E+02 -0.10048074303E+04  0.10130722454E+04  0.12499985699E+03 0.  0.
    9000005    1    3    3    0    0 -0.55004591279E+01  0.43093612036E+02 -0.19701145975E+03  0.20174694477E+03  0.10000000000E+01 0.  0.
    9000005    1    3    3    0    0  0.15272646486E+02 -0.74028101170E+02 -0.80779597054E+03  0.81132530067E+03  0.10000000000E+01 0.  0.
         -4    1    1    2    0  502 -0.97721873585E+01  0.30934489134E+02 -0.16297312857E+03  0.16617548495E+03  0.12700000000E+01 0.  1.
<mgrwt>
<rscale>  1 0.12914102E+03</rscale>
<asrwt>0</asrwt>
<pdfrwt beam="1">  1       21 0.88203702E-03 0.12914102E+03</pdfrwt>
<pdfrwt beam="2">  1       -4 0.18055151E+00 0.12914102E+03</pdfrwt>
<totfact> 0.35869649E+04</totfact>
</mgrwt>
</event>
<event>
 6    4  0.6277709E-003  0.1286843E+03  0.7818608E-02  0.1229421E+00
         21   -1    0    0  501  502  0.00000000000E+00  0.00000000000E+00  0.15906588767E+04  0.15906588767E+04  0.00000000000E+00 0. -1.
          4   -1    0    0  502    0 -0.00000000000E+00 -0.00000000000E+00 -0.19271476690E+02  0.19313278174E+02  0.12700000000E+01 0.  1.
         25    2    1    2    0    0  0.18685535484E+02 -0.24206854415E+02  0.19737861045E+03  0.23562253133E+03  0.12499816147E+03 0.  0.
    9000005    1    3    3    0    0  0.36133833931E+02 -0.22357502768E+02  0.54040969755E+01  0.42845258182E+02  0.10000000000E+01 0.  0.
    9000005    1    3    3    0    0 -0.17448298447E+02 -0.18493516466E+01  0.19197451347E+03  0.19277727315E+03  0.10000000000E+01 0.  0.
          4    1    1    2  501    0 -0.18685535484E+02  0.24206854415E+02  0.13740087896E+04  0.13743496236E+04  0.12700000000E+01 0. -1.
<mgrwt>
<rscale>  1 0.12868435E+03</rscale>
<asrwt>0</asrwt>
<pdfrwt beam="1">  1       21 0.24471665E+00 0.12868435E+03</pdfrwt>
<pdfrwt beam="2">  1        4 0.29680983E-02 0.12868435E+03</pdfrwt>
<totfact> 0.16819593E+03</totfact>
</mgrwt>
</event>
<event>
 6    4  0.6277709E-003  0.1309841E+03  0.7818608E-02  0.1226003E+00
         21   -1    0    0  501  502  0.00000000000E+00  0.00000000000E+00  0.11711532361E+03  0.11711532361E+03  0.00000000000E+00 0.  1.
         -4   -1    0    0    0  501 -0.00000000000E+00 -0.00000000000E+00 -0.61758222324E+02  0.61771279124E+02  0.12700000000E+01 0.  1.
         25    2    1    2    0    0 -0.15236125098E+02  0.35971087485E+02  0.41072958945E+02  0.13727280375E+03  0.12502310207E+03 0.  0.
    9000005    1    3    3    0    0  0.39425100902E+02  0.59535042411E+02  0.24068021204E+02  0.75359335856E+02  0.10000000000E+01 0.  0.
    9000005    1    3    3    0    0 -0.54661226000E+02 -0.23563954926E+02  0.17004937740E+02  0.61913467898E+02  0.10000000000E+01 0.  0.
         -4    1    1    2    0  502  0.15236125098E+02 -0.35971087485E+02  0.14284142337E+02  0.41613798975E+02  0.12700000000E+01 0. -1.
<mgrwt>
<rscale>  1 0.13098410E+03</rscale>
<asrwt>0</asrwt>
<pdfrwt beam="1">  1       21 0.18017742E-01 0.13098410E+03</pdfrwt>
<pdfrwt beam="2">  1       -4 0.95027990E-02 0.13098410E+03</pdfrwt>
<totfact> 0.93152648E+04</totfact>
</mgrwt>
</event>
<event>
 6    4  0.6277709E-003  0.1310007E+03  0.7818608E-02  0.1225978E+00
         21   -1    0    0  501  502  0.00000000000E+00  0.00000000000E+00  0.21283148669E+04  0.21283148669E+04  0.00000000000E+00 0. -1.
         -4   -1    0    0    0  501 -0.00000000000E+00 -0.00000000000E+00 -0.35154671980E+01  0.37378348840E+01  0.12700000000E+01 0. -1.
         25    2    1    2    0    0  0.34718325659E+02  0.18163792569E+02  0.13741112798E+04  0.13803416191E+04  0.12500356307E+03 0.  0.
    9000005    1    3    3    0    0 -0.37445730355E+02  0.89360815704E+00  0.86908422553E+03  0.86989158653E+03  0.10000000000E+01 0.  0.
    9000005    1    3    3    0    0  0.72164056014E+02  0.17270184412E+02  0.50502705423E+03  0.51045003258E+03  0.10000000000E+01 0.  0.
         -4    1    1    2    0  502 -0.34718325659E+02 -0.18163792569E+02  0.75068811999E+03  0.75171108272E+03  0.12700000000E+01 0.  1.
<mgrwt>
<rscale>  1 0.13100067E+03</rscale>
<asrwt>0</asrwt>
<pdfrwt beam="1">  1       21 0.32743206E+00 0.13100067E+03</pdfrwt>
<pdfrwt beam="2">  1       -4 0.55797716E-03 0.13100067E+03</pdfrwt>
<totfact> 0.72364718E+03</totfact>
</mgrwt>
</event>
<event>
 6    4  0.6277709E-003  0.1521053E+03  0.7818608E-02  0.1197910E+00
         21   -1    0    0  501  502  0.00000000000E+00  0.00000000000E+00  0.36666140580E+03  0.36666140580E+03  0.00000000000E+00 0. -1.
         -4   -1    0    0    0  501 -0.00000000000E+00 -0.00000000000E+00 -0.38961563287E+02  0.38982256397E+02  0.12700000000E+01 0.  1.
         25    2    1    2    0    0  0.52455749173E+02 -0.68986803599E+02  0.19884382743E+03  0.25034952124E+03  0.12500092154E+03 0.  0.
    9000005    1    3    3    0    0  0.39805187410E+02 -0.10571118707E+03  0.14103740069E+03  0.18069824684E+03  0.10000000000E+01 0.  0.
    9000005    1    3    3    0    0  0.12650561763E+02  0.36724383468E+02  0.57806426737E+02  0.69651274404E+02  0.10000000000E+01 0.  0.
         -4    1    1    2    0  502 -0.52455749173E+02  0.68986803599E+02  0.12885601508E+03  0.15529414096E+03  0.12700000000E+01 0. -1.
<mgrwt>
<rscale>  1 0.15210528E+03</rscale>
<asrwt>0</asrwt>
<pdfrwt beam="1">  1       21 0.56409445E-01 0.15210528E+03</pdfrwt>
<pdfrwt beam="2">  1       -4 0.59958479E-02 0.15210528E+03</pdfrwt>
<totfact> 0.21750666E+04</totfact>
</mgrwt>
</event>
<event>
 6    4  0.6277709E-003  0.1272725E+03  0.7818608E-02  0.1231560E+00
         -4   -1    0    0    0  501 -0.00000000000E+00  0.00000000000E+00  0.24764283618E+03  0.24764609267E+03  0.12700000000E+01 0.  1.
         21   -1    0    0  501  502  0.00000000000E+00 -0.00000000000E+00 -0.23774251448E+02  0.23774251448E+02  0.00000000000E+00 0.  1.
         25    2    1    2    0    0  0.17080766324E+02 -0.16451005611E+02  0.20405032662E+03  0.24048873538E+03  0.12504362395E+03 0.  0.
    9000005    1    3    3    0    0 -0.16006687380E+02  0.75148942549E+01 -0.11487711114E+02  0.21110546729E+02  0.10000000000E+01 0.  0.
    9000005    1    3    3    0    0  0.33087453704E+02 -0.23965899866E+02  0.21553803773E+03  0.21937818866E+03  0.10000000000E+01 0.  0.
         -4    1    1    2    0  502 -0.17080766324E+02  0.16451005611E+02  0.19818258118E+02  0.30931608730E+02  0.12700000000E+01 0. -1.
<mgrwt>
<rscale>  1 0.12727253E+03</rscale>
<asrwt>0</asrwt>
<pdfrwt beam="2">  1       21 0.36575773E-02 0.12727253E+03</pdfrwt>
<pdfrwt beam="1">  1       -4 0.38101756E-01 0.12727253E+03</pdfrwt>
<totfact> 0.12110192E+05</totfact>
</mgrwt>
</event>
<event>
 6    4  0.6277709E-003  0.1269831E+03  0.7818608E-02  0.1232002E+00
         21   -1    0    0  501  502  0.00000000000E+00  0.00000000000E+00  0.68537958424E+02  0.68537958424E+02  0.00000000000E+00 0.  1.
          4   -1    0    0  502    0 -0.00000000000E+00 -0.00000000000E+00 -0.20694969477E+03  0.20695359158E+03  0.12700000000E+01 0. -1.
         25    2    1    2    0    0  0.65765694638E+01  0.21362708354E+02 -0.18466127017E+03  0.22410819810E+03  0.12500033272E+03 0.  0.
    9000005    1    3    3    0    0  0.61914874204E+02  0.33131465326E+02 -0.10798597838E+03  0.12881427393E+03  0.10000000000E+01 0.  0.
    9000005    1    3    3    0    0 -0.55338304740E+02 -0.11768756972E+02 -0.76675291790E+02  0.95293924167E+02  0.10000000000E+01 0.  0.
          4    1    1    2  501    0 -0.65765694638E+01 -0.21362708354E+02  0.46249533819E+02  0.51383351902E+02  0.12700000000E+01 0.  1.
<mgrwt>
<rscale>  1 0.12698307E+03</rscale>
<asrwt>0</asrwt>
<pdfrwt beam="1">  1       21 0.10544301E-01 0.12698307E+03</pdfrwt>
<pdfrwt beam="2">  1        4 0.31839620E-01 0.12698307E+03</pdfrwt>
<totfact> 0.28272569E+04</totfact>
</mgrwt>
</event>
<event>
 6    4  0.6277709E-003  0.1267087E+03  0.7818608E-02  0.1232423E+00
         21   -1    0    0  501  502  0.00000000000E+00  0.00000000000E+00  0.83615708123E+02  0.83615708123E+02  0.00000000000E+00 0. -1.
         -4   -1    0    0    0  501 -0.00000000000E+00 -0.00000000000E+00 -0.10348095496E+03  0.10348874789E+03  0.12700000000E+01 0. -1.
         25    2    1    2    0    0 -0.18101489933E+02 -0.10102813856E+02 -0.61298572889E+02  0.14075724258E+03  0.12500142205E+03 0.  0.
    9000005    1    3    3    0    0  0.79229690336E+01  0.33193176431E+02 -0.79922296073E+02  0.86908767161E+02  0.10000000000E+01 0.  0.
    9000005    1    3    3    0    0 -0.26024458967E+02 -0.43295990287E+02  0.18623723184E+02  0.53848475416E+02  0.10000000000E+01 0.  0.
         -4    1    1    2    0  502  0.18101489933E+02  0.10102813856E+02  0.41433326050E+02  0.46347213435E+02  0.12700000000E+01 0.  1.
<mgrwt>
<rscale>  1 0.12670867E+03</rscale>
<asrwt>0</asrwt>
<pdfrwt beam="1">  1       21 0.12863955E-01 0.12670867E+03</pdfrwt>
<pdfrwt beam="2">  1       -4 0.15921488E-01 0.12670867E+03</pdfrwt>
<totfact> 0.70367553E+04</totfact>
</mgrwt>
</event>
<event>
 6    4  0.6277709E-003  0.1273509E+03  0.7818608E-02  0.1231440E+00
         21   -1    0    0  501  502  0.00000000000E+00  0.00000000000E+00  0.13897311121E+04  0.13897311121E+04  0.00000000000E+00 0. -1.
         -4   -1    0    0    0  501 -0.00000000000E+00 -0.00000000000E+00 -0.15912517882E+02  0.15963117658E+02  0.12700000000E+01 0.  1.
         25    2    1    2    0    0 -0.16122415065E+02  0.18270530833E+02  0.24070642564E+03  0.27231938266E+03  0.12499807303E+03 0.  0.
    9000005    1    3    3    0    0  0.83631370493E+01 -0.36611745718E+02  0.18024133924E+02  0.41668109983E+02  0.10000000000E+01 0.  0.
    9000005    1    3    3    0    0 -0.24485552114E+02  0.54882276551E+02  0.22268229172E+03  0.23065127268E+03  0.10000000000E+01 0.  0.
         -4    1    1    2    0  502  0.16122415065E+02 -0.18270530833E+02  0.11331121686E+04  0.11333748471E+04  0.12700000000E+01 0. -1.
<mgrwt>
<rscale>  1 0.12735094E+03</rscale>
<asrwt>0</asrwt>
<pdfrwt beam="1">  1       21 0.21380469E+00 0.12735094E+03</pdfrwt>
<pdfrwt beam="2">  1       -4 0.24520177E-02 0.12735094E+03</pdfrwt>
<totfact> 0.34487668E+03</totfact>
</mgrwt>
</event>
<event>
 6    4  0.6277709E-003  0.1273528E+03  0.7818608E-02  0.1231437E+00
         21   -1    0    0  501  502  0.00000000000E+00  0.00000000000E+00  0.37890378587E+02  0.37890378587E+02  0.00000000000E+00 0.  1.
          4   -1    0    0  502    0 -0.00000000000E+00 -0.00000000000E+00 -0.17231138476E+03  0.17231606489E+03  0.12700000000E+01 0.  1.
         25    2    1    2    0    0  0.24152661660E+02  0.32852700415E+01 -0.13526579074E+03  0.18578369536E+03  0.12499841300E+03 0.  0.
    9000005    1    3    3    0    0 -0.47118862445E+02 -0.10971648838E+02 -0.83628277871E+02  0.96619113720E+02  0.10000000000E+01 0.  0.
    9000005    1    3    3    0    0  0.71271524105E+02  0.14256918880E+02 -0.51637512869E+02  0.89164581642E+02  0.10000000000E+01 0.  0.
          4    1    1    2  501    0 -0.24152661660E+02 -0.32852700415E+01  0.84478456285E+00  0.24422748114E+02  0.12700000000E+01 0. -1.
<mgrwt>
<rscale>  1 0.12735285E+03</rscale>
<asrwt>0</asrwt>
<pdfrwt beam="1">  1       21 0.58292891E-02 0.12735285E+03</pdfrwt>
<pdfrwt beam="2">  1        4 0.26511440E-01 0.12735285E+03</pdfrwt>
<totfact> 0.11074600E+05</totfact>
</mgrwt>
</event>
<event>
 6    4  0.6277709E-003  0.1317402E+03  0.7818608E-02  0.1224896E+00
         -4   -1    0    0    0  501 -0.00000000000E+00  0.00000000000E+00  0.23013058369E+03  0.23013408798E+03  0.12700000000E+01 0.  1.
         21   -1    0    0  501  502  0.00000000000E+00 -0.00000000000E+00 -0.52369063224E+02  0.52369063224E+02  0.00000000000E+00 0. -1.
         25    2    1    2    0    0 -0.37276448812E+02 -0.18467775375E+02  0.19672886731E+03  0.23676514174E+03  0.12499957098E+03 0.  0.
    9000005    1    3    3    0    0 -0.48074015306E+02  0.45798017681E+02  0.93423958524E+02  0.11461939364E+03  0.10000000000E+01 0.  0.
    9000005    1    3    3    0    0  0.10797566494E+02 -0.64265793056E+02  0.10330490879E+03  0.12214574810E+03  0.10000000000E+01 0.  0.
         -4    1    1    2    0  502  0.37276448812E+02  0.18467775375E+02 -0.18967346847E+02  0.45738009464E+02  0.12700000000E+01 0. -1.
<mgrwt>
<rscale>  1 0.13174022E+03</rscale>
<asrwt>0</asrwt>
<pdfrwt beam="2">  1       21 0.80567791E-02 0.13174022E+03</pdfrwt>
<pdfrwt beam="1">  1       -4 0.35406159E-01 0.13174022E+03</pdfrwt>
<totfact> 0.37001605E+04</totfact>
</mgrwt>
</event>
<event>
 6    4  0.6277709E-003  0.1288795E+03  0.7818608E-02  0.1229128E+00
         -4   -1    0    0    0  501 -0.00000000000E+00  0.00000000000E+00  0.63497726862E+02  0.63510426047E+02  0.12700000000E+01 0.  1.
         21   -1    0    0  501  502  0.00000000000E+00 -0.00000000000E+00 -0.19567716318E+03  0.19567716318E+03  0.00000000000E+00 0. -1.
         25    2    1    2    0    0 -0.23572030432E+02 -0.20634649993E+02 -0.58356261496E+01  0.12901155200E+03  0.12501398569E+03 0.  0.
    9000005    1    3    3    0    0 -0.35137914553E+02  0.47018530026E+02  0.71892798019E+01  0.59144745743E+02  0.10000000000E+01 0.  0.
    9000005    1    3    3    0    0  0.11565884121E+02 -0.67653180019E+02 -0.13024905952E+02  0.69866806262E+02  0.10000000000E+01 0.  0.
         -4    1    1    2    0  502  0.23572030432E+02  0.20634649993E+02 -0.12634381017E+03  0.13017603722E+03  0.12700000000E+01 0. -1.
<mgrwt>
<rscale>  1 0.12887950E+03</rscale>
<asrwt>0</asrwt>
<pdfrwt beam="2">  1       21 0.30104179E-01 0.12887950E+03</pdfrwt>
<pdfrwt beam="1">  1       -4 0.97701749E-02 0.12887950E+03</pdfrwt>
<totfact> 0.33841346E+04</totfact>
</mgrwt>
</event>
<event>
 6    4  0.6277709E-003  0.1304020E+03  0.7818608E-02  0.1226861E+00
         21   -1    0    0  501  502  0.00000000000E+00  0.00000000000E+00  0.29737852207E+03  0.29737852207E+03  0.00000000000E+00 0. -1.
          4   -1    0    0  502    0 -0.00000000000E+00 -0.00000000000E+00 -0.26802536740E+02  0.26832608440E+02  0.12700000000E+01 0. -1.
         25    2    1    2    0    0 -0.35645480343E+02 -0.10394249282E+02  0.15365984410E+03  0.20153416582E+03  0.12500412639E+03 0.  0.
    9000005    1    3    3    0    0 -0.64121961940E+02  0.49987052305E+01  0.15632194206E+03  0.16903893819E+03  0.10000000000E+01 0.  0.
    9000005    1    3    3    0    0  0.28476481597E+02 -0.15392954512E+02 -0.26620979543E+01  0.32495227623E+02  0.10000000000E+01 0.  0.
          4    1    1    2  501    0  0.35645480343E+02  0.10394249282E+02  0.11691614123E+03  0.12267696469E+03  0.12700000000E+01 0.  1.
<mgrwt>
<rscale>  1 0.13040196E+03</rscale>
<asrwt>0</asrwt>
<pdfrwt beam="1">  1       21 0.45750540E-01 0.13040196E+03</pdfrwt>
<pdfrwt beam="2">  1        4 0.41259892E-02 0.13040196E+03</pdfrwt>
<totfact> 0.60347857E+04</totfact>
</mgrwt>
</event>
<event>
 6    4  0.6277709E-003  0.1290151E+03  0.7818608E-02  0.1228924E+00
         21   -1    0    0  501  502  0.00000000000E+00  0.00000000000E+00  0.93165250803E+03  0.93165250803E+03  0.00000000000E+00 0.  1.
         -4   -1    0    0    0  501 -0.00000000000E+00 -0.00000000000E+00 -0.96918652770E+01  0.97747200752E+01  0.12700000000E+01 0. -1.
         25    2    1    2    0    0 -0.95725717544E+01 -0.30511360137E+02  0.44315070529E+03  0.46154896611E+03  0.12498929268E+03 0.  0.
    9000005    1    3    3    0    0  0.18598584065E+02 -0.60369016188E+02  0.38623081651E+03  0.39136372988E+03  0.10000000000E+01 0.  0.
    9000005    1    3    3    0    0 -0.28171155819E+02  0.29857656051E+02  0.56919888783E+02  0.70185236226E+02  0.10000000000E+01 0.  0.
         -4    1    1    2    0  502  0.95725717544E+01  0.30511360137E+02  0.47880993746E+03  0.47987826199E+03  0.12700000000E+01 0.  1.
<mgrwt>
<rscale>  1 0.12901512E+03</rscale>
<asrwt>0</asrwt>
<pdfrwt beam="1">  1       21 0.14333108E+00 0.12901512E+03</pdfrwt>
<pdfrwt beam="2">  1       -4 0.14974970E-02 0.12901512E+03</pdfrwt>
<totfact> 0.22080122E+04</totfact>
</mgrwt>
</event>
<event>
 6    4  0.6277709E-003  0.1422925E+03  0.7818608E-02  0.1210277E+00
         21   -1    0    0  501  502  0.00000000000E+00  0.00000000000E+00  0.28498792975E+03  0.28498792975E+03  0.00000000000E+00 0. -1.
         -4   -1    0    0    0  501 -0.00000000000E+00 -0.00000000000E+00 -0.11619482587E+03  0.11620176616E+03  0.12700000000E+01 0.  1.
         25    2    1    2    0    0  0.33256347848E+02 -0.59284598441E+02 -0.65925818302E+02  0.15682268993E+03  0.12500597695E+03 0.  0.
    9000005    1    3    3    0    0 -0.15798223658E+02 -0.23548429746E+02 -0.87824043477E+02  0.92293959862E+02  0.10000000000E+01 0.  0.
    9000005    1    3    3    0    0  0.49054571506E+02 -0.35736168696E+02  0.21898225176E+02  0.64528730070E+02  0.10000000000E+01 0.  0.
         -4    1    1    2    0  502 -0.33256347848E+02  0.59284598441E+02  0.23471892218E+03  0.24436700599E+03  0.12700000000E+01 0. -1.
<mgrwt>
<rscale>  1 0.14229245E+03</rscale>
<asrwt>0</asrwt>
<pdfrwt beam="1">  1       21 0.43844297E-01 0.14229245E+03</pdfrwt>
<pdfrwt beam="2">  1       -4 0.17876879E-01 0.14229245E+03</pdfrwt>
<totfact> 0.57158721E+03</totfact>
</mgrwt>
</event>
<event>
 6    4  0.6277709E-003  0.1379815E+03  0.7818608E-02  0.1216071E+00
         -4   -1    0    0    0  501 -0.00000000000E+00  0.00000000000E+00  0.71127926516E+03  0.71128039896E+03  0.12700000000E+01 0. -1.
         21   -1    0    0  501  502  0.00000000000E+00 -0.00000000000E+00 -0.60874198930E+03  0.60874198930E+03  0.00000000000E+00 0.  1.
         25    2    1    2    0    0  0.42442080230E+02 -0.40156550010E+02  0.70315638664E+03  0.71656666676E+03  0.12500002065E+03 0.  0.
    9000005    1    3    3    0    0 -0.39097644757E+02 -0.16214334311E+01  0.11368757588E+03  0.12023776354E+03  0.10000000000E+01 0.  0.
    9000005    1    3    3    0    0  0.81539724987E+02 -0.38535116579E+02  0.58946881076E+03  0.59632890322E+03  0.10000000000E+01 0.  0.
         -4    1    1    2    0  502 -0.42442080230E+02  0.40156550010E+02 -0.60061911078E+03  0.60345572150E+03  0.12700000000E+01 0.  1.
<mgrwt>
<rscale>  1 0.13798146E+03</rscale>
<asrwt>0</asrwt>
<pdfrwt beam="2">  1       21 0.93652614E-01 0.13798146E+03</pdfrwt>
<pdfrwt beam="1">  1       -4 0.10942777E+00 0.13798146E+03</pdfrwt>
<totfact> 0.28521042E+01</totfact>
</mgrwt>
</event>
<event>
 6    4  0.6277709E-003  0.1266784E+03  0.7818608E-02  0.1232469E+00
          4   -1    0    0  502    0 -0.00000000000E+00  0.00000000000E+00  0.62536566293E+03  0.62536695249E+03  0.12700000000E+01 0. -1.
         21   -1    0    0  501  502  0.00000000000E+00 -0.00000000000E+00 -0.20047638437E+02  0.20047638437E+02  0.00000000000E+00 0.  1.
         25    2    1    2    0    0  0.76943633047E+01  0.19101075083E+02  0.61101674454E+03  0.62401032485E+03  0.12499347629E+03 0.  0.
    9000005    1    3    3    0    0  0.56941827319E+02  0.43460431454E+02  0.33423408791E+03  0.34182540327E+03  0.10000000000E+01 0.  0.
    9000005    1    3    3    0    0 -0.49247464014E+02 -0.24359356372E+02  0.27678265663E+03  0.28218492158E+03  0.10000000000E+01 0.  0.
          4    1    1    2  501    0 -0.76943633047E+01 -0.19101075083E+02 -0.56987200536E+01  0.21404266075E+02  0.12700000000E+01 0.  1.
<mgrwt>
<rscale>  1 0.12667843E+03</rscale>
<asrwt>0</asrwt>
<pdfrwt beam="2">  1       21 0.30842525E-02 0.12667843E+03</pdfrwt>
<pdfrwt beam="1">  1        4 0.96213281E-01 0.12667843E+03</pdfrwt>
<totfact> 0.22780587E+04</totfact>
</mgrwt>
</event>
<event>
 6    4  0.6277709E-003  0.1485544E+03  0.7818608E-02  0.1202261E+00
         -4   -1    0    0    0  501 -0.00000000000E+00  0.00000000000E+00  0.79531336006E+03  0.79531437406E+03  0.12700000000E+01 0. -1.
         21   -1    0    0  501  502  0.00000000000E+00 -0.00000000000E+00 -0.77520534031E+02  0.77520534031E+02  0.00000000000E+00 0.  1.
         25    2    1    2    0    0 -0.77524908107E+02  0.20813772149E+02  0.76527737651E+03  0.77956261895E+03  0.12500035750E+03 0.  0.
    9000005    1    3    3    0    0 -0.90863001050E+01  0.21609034244E+02  0.60278137522E+03  0.60323784490E+03  0.10000000000E+01 0.  0.
    9000005    1    3    3    0    0 -0.68438608002E+02 -0.79526209462E+00  0.16249600129E+03  0.17632477405E+03  0.10000000000E+01 0.  0.
         -4    1    1    2    0  502  0.77524908107E+02 -0.20813772149E+02 -0.47484550481E+02  0.93272289146E+02  0.12700000000E+01 0.  1.
<mgrwt>
<rscale>  1 0.14855441E+03</rscale>
<asrwt>0</asrwt>
<pdfrwt beam="2">  1       21 0.11926237E-01 0.14855441E+03</pdfrwt>
<pdfrwt beam="1">  1       -4 0.12235677E+00 0.14855441E+03</pdfrwt>
<totfact> 0.13097891E+03</totfact>
</mgrwt>
</event>
<event>
 6    4  0.6277709E-003  0.1267377E+03  0.7818608E-02  0.1232378E+00
          4   -1    0    0  502    0 -0.00000000000E+00  0.00000000000E+00  0.27342492202E+03  0.27342787144E+03  0.12700000000E+01 0. -1.
         21   -1    0    0  501  502  0.00000000000E+00 -0.00000000000E+00 -0.75247098837E+02  0.75247098837E+02  0.00000000000E+00 0.  1.
         25    2    1    2    0    0 -0.11048280442E+02  0.17706858899E+02  0.25683468274E+03  0.28640268571E+03  0.12500738688E+03 0.  0.
    9000005    1    3    3    0    0 -0.59793322532E+02 -0.17231868729E+02  0.16852083246E+03  0.17964534420E+03  0.10000000000E+01 0.  0.
    9000005    1    3    3    0    0  0.48745042090E+02  0.34938727628E+02  0.88313850279E+02  0.10675734152E+03  0.10000000000E+01 0.  0.
          4    1    1    2  501    0  0.11048280442E+02 -0.17706858899E+02 -0.58656859552E+02  0.62272284568E+02  0.12700000000E+01 0.  1.
<mgrwt>
<rscale>  1 0.12673770E+03</rscale>
<asrwt>0</asrwt>
<pdfrwt beam="2">  1       21 0.11576477E-01 0.12673770E+03</pdfrwt>
<pdfrwt beam="1">  1        4 0.42066423E-01 0.12673770E+03</pdfrwt>
<totfact> 0.13969832E+04</totfact>
</mgrwt>
</event>
<event>
 6    4  0.6277709E-003  0.1535372E+03  0.7818608E-02  0.1196193E+00
         21   -1    0    0  501  502  0.00000000000E+00  0.00000000000E+00  0.54951237638E+03  0.54951237638E+03  0.00000000000E+00 0.  1.
          4   -1    0    0  502    0 -0.00000000000E+00 -0.00000000000E+00 -0.34636630772E+02  0.34659906105E+02  0.12700000000E+01 0. -1.
         25    2    1    2    0    0 -0.97480188824E+01  0.88621994871E+02  0.17505154852E+03  0.23284482886E+03  0.12499915135E+03 0.  0.
    9000005    1    3    3    0    0  0.33935060402E+02  0.59936970519E+02  0.16609691772E+03  0.17981438995E+03  0.10000000000E+01 0.  0.
    9000005    1    3    3    0    0 -0.43683079285E+02  0.28685024351E+02  0.89546308096E+01  0.53030438908E+02  0.10000000000E+01 0.  0.
          4    1    1    2  501    0  0.97480188824E+01 -0.88621994871E+02  0.33982419708E+03  0.35132745362E+03  0.12700000000E+01 0.  1.
<mgrwt>
<rscale>  1 0.15353719E+03</rscale>
<asrwt>0</asrwt>
<pdfrwt beam="1">  1       21 0.84540360E-01 0.15353719E+03</pdfrwt>
<pdfrwt beam="2">  1        4 0.53306161E-02 0.15353719E+03</pdfrwt>
<totfact> 0.10872267E+04</totfact>
</mgrwt>
</event>
<event>
 6    4  0.6277709E-003  0.1388251E+03  0.7818608E-02  0.1214919E+00
         21   -1    0    0  501  502  0.00000000000E+00  0.00000000000E+00  0.79228790766E+02  0.79228790766E+02  0.00000000000E+00 0.  1.
          4   -1    0    0  502    0 -0.00000000000E+00 -0.00000000000E+00 -0.15698422676E+03  0.15698936382E+03  0.12700000000E+01 0. -1.
         25    2    1    2    0    0  0.50703045882E+02  0.32845185739E+02 -0.10078631192E+03  0.17155255915E+03  0.12499117885E+03 0.  0.
    9000005    1    3    3    0    0 -0.39511345101E+02  0.28051556382E+02 -0.34161499516E+02  0.59296241503E+02  0.10000000000E+01 0.  0.
    9000005    1    3    3    0    0  0.90214390984E+02  0.47936293571E+01 -0.66624812404E+02  0.11225631764E+03  0.10000000000E+01 0.  0.
          4    1    1    2  501    0 -0.50703045882E+02 -0.32845185739E+02  0.23030875922E+02  0.64665595441E+02  0.12700000000E+01 0.  1.
<mgrwt>
<rscale>  1 0.13882507E+03</rscale>
<asrwt>0</asrwt>
<pdfrwt beam="1">  1       21 0.12189045E-01 0.13882507E+03</pdfrwt>
<pdfrwt beam="2">  1        4 0.24152597E-01 0.13882507E+03</pdfrwt>
<totfact> 0.37068866E+04</totfact>
</mgrwt>
</event>
<event>
 6    4  0.6277709E-003  0.1363599E+03  0.7818608E-02  0.1218313E+00
          4   -1    0    0  502    0 -0.00000000000E+00  0.00000000000E+00  0.13812190974E+04  0.13812196813E+04  0.12700000000E+01 0.  1.
         21   -1    0    0  501  502  0.00000000000E+00 -0.00000000000E+00 -0.24519374007E+02  0.24519374007E+02  0.00000000000E+00 0. -1.
         25    2    1    2    0    0  0.53256433922E+02 -0.11513488925E+02  0.13425143975E+04  0.13494216996E+04  0.12500083049E+03 0.  0.
    9000005    1    3    3    0    0  0.81172655526E+02 -0.25268933542E+01  0.12435268790E+04  0.12461763454E+04  0.10000000000E+01 0.  0.
    9000005    1    3    3    0    0 -0.27916221604E+02 -0.89865955706E+01  0.98987518566E+02  0.10324535418E+03  0.10000000000E+01 0.  0.
          4    1    1    2  501    0 -0.53256433922E+02  0.11513488925E+02  0.14185325888E+02  0.56317355689E+02  0.12700000000E+01 0. -1.
<mgrwt>
<rscale>  1 0.13635988E+03</rscale>
<asrwt>0</asrwt>
<pdfrwt beam="2">  1       21 0.37722125E-02 0.13635988E+03</pdfrwt>
<pdfrwt beam="1">  1        4 0.21249776E+00 0.13635988E+03</pdfrwt>
<totfact> 0.21860008E+03</totfact>
</mgrwt>
</event>
<event>
 6    4  0.6277709E-003  0.1269221E+03  0.7818608E-02  0.1232096E+00
         -4   -1    0    0    0  501 -0.00000000000E+00  0.00000000000E+00  0.21263255899E+03  0.21263635165E+03  0.12700000000E+01 0.  1.
         21   -1    0    0  501  502  0.00000000000E+00 -0.00000000000E+00 -0.26135638805E+02  0.26135638805E+02  0.00000000000E+00 0.  1.
         25    2    1    2    0    0  0.14608609538E+02 -0.16466312634E+02  0.16231358960E+03  0.20604589533E+03  0.12499863474E+03 0.  0.
    9000005    1    3    3    0    0  0.66809565974E+02  0.76333705665E+01  0.68386612715E+02  0.95914103502E+02  0.10000000000E+01 0.  0.
    9000005    1    3    3    0    0 -0.52200956435E+02 -0.24099683200E+02  0.93926976888E+02  0.11013179182E+03  0.10000000000E+01 0.  0.
         -4    1    1    2    0  502 -0.14608609538E+02  0.16466312634E+02  0.24183330584E+02  0.32726095131E+02  0.12700000000E+01 0. -1.
<mgrwt>
<rscale>  1 0.12692206E+03</rscale>
<asrwt>0</asrwt>
<pdfrwt beam="2">  1       21 0.40208677E-02 0.12692206E+03</pdfrwt>
<pdfrwt beam="1">  1       -4 0.32715365E-01 0.12692206E+03</pdfrwt>
<totfact> 0.13885173E+05</totfact>
</mgrwt>
</event>
<event>
 6    4  0.6277709E-003  0.1281975E+03  0.7818608E-02  0.1230155E+00
         -4   -1    0    0    0  501 -0.00000000000E+00  0.00000000000E+00  0.15731131844E+03  0.15731644482E+03  0.12700000000E+01 0.  1.
         21   -1    0    0  501  502  0.00000000000E+00 -0.00000000000E+00 -0.40440749247E+02  0.40440749247E+02  0.00000000000E+00 0.  1.
         25    2    1    2    0    0  0.17549021863E+02  0.22409072871E+02  0.10880552453E+03  0.16814651084E+03  0.12499788889E+03 0.  0.
    9000005    1    3    3    0    0  0.66144921637E+02 -0.94606367477E+01  0.76767824706E+02  0.10177894289E+03  0.10000000000E+01 0.  0.
    9000005    1    3    3    0    0 -0.48595899774E+02  0.31869709619E+02  0.32037699823E+02  0.66367567953E+02  0.10000000000E+01 0.  0.
         -4    1    1    2    0  502 -0.17549021863E+02 -0.22409072871E+02  0.80650446676E+01  0.29610683220E+02  0.12700000000E+01 0. -1.
<mgrwt>
<rscale>  1 0.12819753E+03</rscale>
<asrwt>0</asrwt>
<pdfrwt beam="2">  1       21 0.62216539E-02 0.12819753E+03</pdfrwt>
<pdfrwt beam="1">  1       -4 0.24203669E-01 0.12819753E+03</pdfrwt>
<totfact> 0.11744508E+05</totfact>
</mgrwt>
</event>
<event>
 6    4  0.6277709E-003  0.1282585E+03  0.7818608E-02  0.1230063E+00
         21   -1    0    0  501  502  0.00000000000E+00  0.00000000000E+00  0.18947471540E+02  0.18947471540E+02  0.00000000000E+00 0. -1.
          4   -1    0    0  502    0 -0.00000000000E+00 -0.00000000000E+00 -0.32826586566E+03  0.32826832235E+03  0.12700000000E+01 0. -1.
         25    2    1    2    0    0  0.23316953297E+02 -0.16746256513E+02 -0.23872436664E+03  0.27099737725E+03  0.12500455125E+03 0.  0.
    9000005    1    3    3    0    0 -0.65547045856E+01  0.29232909663E+02 -0.20377456444E+03  0.20596747382E+03  0.10000000000E+01 0.  0.
    9000005    1    3    3    0    0  0.29871657882E+02 -0.45979166175E+02 -0.34949802198E+02  0.65029903433E+02  0.10000000000E+01 0.  0.
          4    1    1    2  501    0 -0.23316953297E+02  0.16746256513E+02 -0.70594027484E+02  0.76218416637E+02  0.12700000000E+01 0.  1.
<mgrwt>
<rscale>  1 0.12825855E+03</rscale>
<asrwt>0</asrwt>
<pdfrwt beam="1">  1       21 0.29149960E-02 0.12825855E+03</pdfrwt>
<pdfrwt beam="2">  1        4 0.50505898E-01 0.12825855E+03</pdfrwt>
<totfact> 0.10043254E+05</totfact>
</mgrwt>
</event>
<event>
 6    4  0.6277709E-003  0.1321437E+03  0.7818608E-02  0.1224309E+00
          4   -1    0    0  502    0 -0.00000000000E+00  0.00000000000E+00  0.19764645769E+02  0.19805406393E+02  0.12700000000E+01 0.  1.
         21   -1    0    0  501  502  0.00000000000E+00 -0.00000000000E+00 -0.75215885798E+03  0.75215885798E+03  0.00000000000E+00 0. -1.
         25    2    1    2    0    0  0.39557470221E+02 -0.16559434157E+02 -0.21204936651E+03  0.24985375915E+03  0.12499183500E+03 0.  0.
    9000005    1    3    3    0    0  0.17248070731E+02 -0.65991437198E+02 -0.16309804752E+03  0.17678896694E+03  0.10000000000E+01 0.  0.
    9000005    1    3    3    0    0  0.22309399490E+02  0.49432003041E+02 -0.48951318982E+02  0.73064792208E+02  0.10000000000E+01 0.  0.
          4    1    1    2  501    0 -0.39557470221E+02  0.16559434157E+02 -0.52034484570E+03  0.52211050522E+03  0.12700000000E+01 0. -1.
<mgrwt>
<rscale>  1 0.13214374E+03</rscale>
<asrwt>0</asrwt>
<pdfrwt beam="2">  1       21 0.11571675E+00 0.13214374E+03</pdfrwt>
<pdfrwt beam="1">  1        4 0.30439327E-02 0.13214374E+03</pdfrwt>
<totfact> 0.12592766E+04</totfact>
</mgrwt>
</event>
<event>
 6    4  0.6277709E-003  0.1275337E+03  0.7818608E-02  0.1231162E+00
         21   -1    0    0  501  502  0.00000000000E+00  0.00000000000E+00  0.54859841690E+02  0.54859841690E+02  0.00000000000E+00 0.  1.
          4   -1    0    0  502    0 -0.00000000000E+00 -0.00000000000E+00 -0.23125046784E+03  0.23125395515E+03  0.12700000000E+01 0.  1.
         25    2    1    2    0    0 -0.10604381073E+02  0.22969122009E+02 -0.20898998372E+03  0.24482984745E+03  0.12499922976E+03 0.  0.
    9000005    1    3    3    0    0 -0.52342501479E+01 -0.32130890048E+02 -0.43832460344E+01  0.32863419111E+02  0.10000000000E+01 0.  0.
    9000005    1    3    3    0    0 -0.53701309246E+01  0.55100012058E+02 -0.20460673768E+03  0.21196642833E+03  0.10000000000E+01 0.  0.
          4    1    1    2  501    0  0.10604381073E+02 -0.22969122009E+02  0.32599357572E+02  0.41283949398E+02  0.12700000000E+01 0. -1.
<mgrwt>
<rscale>  1 0.12753369E+03</rscale>
<asrwt>0</asrwt>
<pdfrwt beam="1">  1       21 0.84399756E-02 0.12753369E+03</pdfrwt>
<pdfrwt beam="2">  1        4 0.35578394E-01 0.12753369E+03</pdfrwt>
<totfact> 0.33695044E+04</totfact>
</mgrwt>
</event>
<event>
 6    4  0.6277709E-003  0.1292514E+03  0.7818608E-02  0.1228571E+00
         21   -1    0    0  501  502  0.00000000000E+00  0.00000000000E+00  0.44684333937E+03  0.44684333937E+03  0.00000000000E+00 0.  1.
         -4   -1    0    0    0  501 -0.00000000000E+00 -0.00000000000E+00 -0.17464106022E+02  0.17510222704E+02  0.12700000000E+01 0.  1.
         25    2    1    2    0    0  0.16583589779E+02  0.28387575911E+02  0.39957675970E+03  0.41996133019E+03  0.12500024819E+03 0.  0.
    9000005    1    3    3    0    0 -0.41632618907E+02 -0.68796947309E+01  0.58381792134E+02  0.72041923971E+02  0.10000000000E+01 0.  0.
    9000005    1    3    3    0    0  0.58216208686E+02  0.35267270642E+02  0.34119496756E+03  0.34791940622E+03  0.10000000000E+01 0.  0.
         -4    1    1    2    0  502 -0.16583589779E+02 -0.28387575911E+02  0.29802473649E+02  0.44392231884E+02  0.12700000000E+01 0. -1.
<mgrwt>
<rscale>  1 0.12925143E+03</rscale>
<asrwt>0</asrwt>
<pdfrwt beam="1">  1       21 0.68745121E-01 0.12925143E+03</pdfrwt>
<pdfrwt beam="2">  1       -4 0.26904721E-02 0.12925143E+03</pdfrwt>
<totfact> 0.50183338E+04</totfact>
</mgrwt>
</event>
<event>
 6    4  0.6277709E-003  0.1304158E+03  0.7818608E-02  0.1226840E+00
         21   -1    0    0  501  502  0.00000000000E+00  0.00000000000E+00  0.18715416190E+02  0.18715416190E+02  0.00000000000E+00 0. -1.
         -4   -1    0    0    0  501 -0.00000000000E+00 -0.00000000000E+00 -0.38981697553E+03  0.38981904432E+03  0.12700000000E+01 0. -1.
         25    2    1    2    0    0 -0.13715786203E+02 -0.34572219836E+02 -0.31787408792E+03  0.34358726819E+03  0.12499965567E+03 0.  0.
    9000005    1    3    3    0    0 -0.48535411138E+01  0.22327354032E+02 -0.25109568451E+01  0.23008096481E+02  0.10000000000E+01 0.  0.
    9000005    1    3    3    0    0 -0.88622450887E+01 -0.56899573868E+02 -0.31536313107E+03  0.32057917171E+03  0.10000000000E+01 0.  0.
         -4    1    1    2    0  502  0.13715786203E+02  0.34572219836E+02 -0.53227471419E+02  0.64947192312E+02  0.12700000000E+01 0.  1.
<mgrwt>
<rscale>  1 0.13041578E+03</rscale>
<asrwt>0</asrwt>
<pdfrwt beam="1">  1       21 0.28792949E-02 0.13041578E+03</pdfrwt>
<pdfrwt beam="2">  1       -4 0.59975313E-01 0.13041578E+03</pdfrwt>
<totfact> 0.72012186E+04</totfact>
</mgrwt>
</event>
<event>
 6    4  0.6277709E-003  0.1318948E+03  0.7818608E-02  0.1224671E+00
          4   -1    0    0  502    0 -0.00000000000E+00  0.00000000000E+00  0.49444086055E+03  0.49444249159E+03  0.12700000000E+01 0.  1.
         21   -1    0    0  501  502  0.00000000000E+00 -0.00000000000E+00 -0.16079300317E+02  0.16079300317E+02  0.00000000000E+00 0.  1.
         25    2    1    2    0    0  0.42093588108E+01 -0.41850435409E+02  0.30824389755E+03  0.33527679282E+03  0.12500819885E+03 0.  0.
    9000005    1    3    3    0    0  0.39972648069E+02 -0.15874274095E+02  0.27893164557E+03  0.28222981429E+03  0.10000000000E+01 0.  0.
    9000005    1    3    3    0    0 -0.35763289258E+02 -0.25976161315E+02  0.29312251976E+02  0.53046978529E+02  0.10000000000E+01 0.  0.
          4    1    1    2  501    0 -0.42093588108E+01  0.41850435409E+02  0.17011766269E+03  0.17524499909E+03  0.12700000000E+01 0. -1.
<mgrwt>
<rscale>  1 0.13189476E+03</rscale>
<asrwt>0</asrwt>
<pdfrwt beam="2">  1       21 0.24737389E-02 0.13189476E+03</pdfrwt>
<pdfrwt beam="1">  1        4 0.76071797E-01 0.13189476E+03</pdfrwt>
<totfact> 0.55525318E+04</totfact>
</mgrwt>
</event>
<event>
 6    4  0.6277709E-003  0.1328543E+03  0.7818608E-02  0.1223281E+00
         21   -1    0    0  501  502  0.00000000000E+00  0.00000000000E+00  0.20118516969E+03  0.20118516969E+03  0.00000000000E+00 0.  1.
         -4   -1    0    0    0  501 -0.00000000000E+00 -0.00000000000E+00 -0.50140670707E+02  0.50156751877E+02  0.12700000000E+01 0.  1.
         25    2    1    2    0    0 -0.22296563118E+02 -0.39078216742E+02  0.52216993275E+02  0.14274757303E+03  0.12500404580E+03 0.  0.
    9000005    1    3    3    0    0 -0.70972637241E+02 -0.12921624971E+01  0.32166397972E+02  0.77938835502E+02  0.10000000000E+01 0.  0.
    9000005    1    3    3    0    0  0.48676074123E+02 -0.37786054245E+02  0.20050595303E+02  0.64808737524E+02  0.10000000000E+01 0.  0.
         -4    1    1    2    0  502  0.22296563118E+02  0.39078216742E+02  0.98827505706E+02  0.10859434854E+03  0.12700000000E+01 0. -1.
<mgrwt>
<rscale>  1 0.13285426E+03</rscale>
<asrwt>0</asrwt>
<pdfrwt beam="1">  1       21 0.30951564E-01 0.13285426E+03</pdfrwt>
<pdfrwt beam="2">  1       -4 0.77154948E-02 0.13285426E+03</pdfrwt>
<totfact> 0.47686127E+04</totfact>
</mgrwt>
</event>
<event>
 6    4  0.6277709E-003  0.1365839E+03  0.7818608E-02  0.1218001E+00
         21   -1    0    0  501  502  0.00000000000E+00  0.00000000000E+00  0.74383117557E+02  0.74383117557E+02  0.00000000000E+00 0.  1.
         -4   -1    0    0    0  501 -0.00000000000E+00 -0.00000000000E+00 -0.26435901757E+03  0.26436206813E+03  0.12700000000E+01 0. -1.
         25    2    1    2    0    0 -0.20958157779E+02  0.50904000680E+02 -0.23217513589E+03  0.26937047797E+03  0.12499879603E+03 0.  0.
    9000005    1    3    3    0    0 -0.33659661193E+02 -0.18691212083E+02 -0.15638339509E+02  0.41567918680E+02  0.10000000000E+01 0.  0.
    9000005    1    3    3    0    0  0.12701503414E+02  0.69595212763E+02 -0.21653679639E+03  0.22780255929E+03  0.10000000000E+01 0.  0.
         -4    1    1    2    0  502  0.20958157779E+02 -0.50904000680E+02  0.42199235886E+02  0.69374707726E+02  0.12700000000E+01 0.  1.
<mgrwt>
<rscale>  1 0.13658390E+03</rscale>
<asrwt>0</asrwt>
<pdfrwt beam="1">  1       21 0.11443556E-01 0.13658390E+03</pdfrwt>
<pdfrwt beam="2">  1       -4 0.40671687E-01 0.13658390E+03</pdfrwt>
<totfact> 0.15351988E+04</totfact>
</mgrwt>
</event>
<event>
 6    4  0.6277709E-003  0.1291650E+03  0.7818608E-02  0.1228700E+00
          4   -1    0    0  502    0 -0.00000000000E+00  0.00000000000E+00  0.37036551703E+02  0.37058319742E+02  0.12700000000E+01 0.  1.
         21   -1    0    0  501  502  0.00000000000E+00 -0.00000000000E+00 -0.37324825011E+03  0.37324825011E+03  0.00000000000E+00 0. -1.
         25    2    1    2    0    0  0.32507655406E+02  0.13134089543E+01 -0.79782111505E+02  0.15181823619E+03  0.12500047528E+03 0.  0.
    9000005    1    3    3    0    0  0.18191661082E+02  0.58384934706E+02 -0.12489787464E+02  0.62423808955E+02  0.10000000000E+01 0.  0.
    9000005    1    3    3    0    0  0.14315994323E+02 -0.57071525751E+02 -0.67292324041E+02  0.89394427231E+02  0.10000000000E+01 0.  0.
          4    1    1    2  501    0 -0.32507655406E+02 -0.13134089543E+01 -0.25642958690E+03  0.25848833366E+03  0.12700000000E+01 0. -1.
<mgrwt>
<rscale>  1 0.12916498E+03</rscale>
<asrwt>0</asrwt>
<pdfrwt beam="2">  1       21 0.57422806E-01 0.12916498E+03</pdfrwt>
<pdfrwt beam="1">  1        4 0.56997719E-02 0.12916498E+03</pdfrwt>
<totfact> 0.22426935E+04</totfact>
</mgrwt>
</event>
<event>
 6    4  0.6277709E-003  0.1421864E+03  0.7818608E-02  0.1210417E+00
         21   -1    0    0  501  502  0.00000000000E+00  0.00000000000E+00  0.32762384486E+02  0.32762384486E+02  0.00000000000E+00 0.  1.
          4   -1    0    0  502    0 -0.00000000000E+00 -0.00000000000E+00 -0.33743823783E+03  0.33744062774E+03  0.12700000000E+01 0. -1.
         25    2    1    2    0    0 -0.39776282526E+01 -0.67646356787E+02 -0.21586618511E+03  0.25848631167E+03  0.12500044932E+03 0.  0.
    9000005    1    3    3    0    0 -0.97216771299E+01  0.25544164512E+02 -0.49066436470E+01  0.27786516491E+02  0.10000000000E+01 0.  0.
    9000005    1    3    3    0    0  0.57440488773E+01 -0.93190521298E+02 -0.21095954147E+03  0.23069979517E+03  0.10000000000E+01 0.  0.
          4    1    1    2  501    0  0.39776282526E+01  0.67646356787E+02 -0.88809668226E+02  0.11171670056E+03  0.12700000000E+01 0.  1.
<mgrwt>
<rscale>  1 0.14218637E+03</rscale>
<asrwt>0</asrwt>
<pdfrwt beam="1">  1       21 0.50403669E-02 0.14218637E+03</pdfrwt>
<pdfrwt beam="2">  1        4 0.51915652E-01 0.14218637E+03</pdfrwt>
<totfact> 0.38771152E+04</totfact>
</mgrwt>
</event>
<event>
 6    4  0.6277709E-003  0.1346359E+03  0.7818608E-02  0.1220735E+00
         -4   -1    0    0    0  501 -0.00000000000E+00  0.00000000000E+00  0.21267722722E+02  0.21305607942E+02  0.12700000000E+01 0. -1.
         21   -1    0    0  501  502  0.00000000000E+00 -0.00000000000E+00 -0.41500837551E+03  0.41500837551E+03  0.00000000000E+00 0. -1.
         25    2    1    2    0    0  0.49379062560E+02 -0.79190565483E+01 -0.32037792246E+03  0.34751811431E+03  0.12500329314E+03 0.  0.
    9000005    1    3    3    0    0 -0.18771696441E+02  0.22323927564E+02 -0.14321501037E+02  0.32509071366E+02  0.10000000000E+01 0.  0.
    9000005    1    3    3    0    0  0.68150759001E+02 -0.30242984112E+02 -0.30605642142E+03  0.31500904294E+03  0.10000000000E+01 0.  0.
         -4    1    1    2    0  502 -0.49379062560E+02  0.79190565483E+01 -0.73362730324E+02  0.88795869141E+02  0.12700000000E+01 0.  1.
<mgrwt>
<rscale>  1 0.13463590E+03</rscale>
<asrwt>0</asrwt>
<pdfrwt beam="2">  1       21 0.63847443E-01 0.13463590E+03</pdfrwt>
<pdfrwt beam="1">  1       -4 0.32750210E-02 0.13463590E+03</pdfrwt>
<totfact> 0.43464031E+04</totfact>
</mgrwt>
</event>
<event>
 6    4  0.6277709E-003  0.1278859E+03  0.7818608E-02  0.1230627E+00
         -4   -1    0    0    0  501 -0.00000000000E+00  0.00000000000E+00  0.17858758002E+03  0.17859209568E+03  0.12700000000E+01 0.  1.
         21   -1    0    0  501  502  0.00000000000E+00 -0.00000000000E+00 -0.40121204666E+02  0.40121204666E+02  0.00000000000E+00 0.  1.
         25    2    1    2    0    0  0.63108940171E+01  0.26278738735E+02  0.14237377676E+03  0.19137687449E+03  0.12499766513E+03 0.  0.
    9000005    1    3    3    0    0 -0.39045029254E+02 -0.34438221087E+02  0.56322661455E+02  0.76705590242E+02  0.10000000000E+01 0.  0.
    9000005    1    3    3    0    0  0.45355923271E+02  0.60716959822E+02  0.86051115306E+02  0.11467128425E+03  0.10000000000E+01 0.  0.
         -4    1    1    2    0  502 -0.63108940171E+01 -0.26278738735E+02 -0.39074014022E+01  0.27336425855E+02  0.12700000000E+01 0. -1.
<mgrwt>
<rscale>  1 0.12788595E+03</rscale>
<asrwt>0</asrwt>
<pdfrwt beam="2">  1       21 0.61724932E-02 0.12788595E+03</pdfrwt>
<pdfrwt beam="1">  1       -4 0.27476905E-01 0.12788595E+03</pdfrwt>
<totfact> 0.94094781E+04</totfact>
</mgrwt>
</event>
<event>
 6    4  0.6277709E-003  0.1266802E+03  0.7818608E-02  0.1232466E+00
         21   -1    0    0  501  502  0.00000000000E+00  0.00000000000E+00  0.18143504652E+02  0.18143504652E+02  0.00000000000E+00 0.  1.
          4   -1    0    0  502    0 -0.00000000000E+00 -0.00000000000E+00 -0.55720805085E+03  0.55720949815E+03  0.12700000000E+01 0. -1.
         25    2    1    2    0    0  0.12920366567E+02 -0.16013176185E+02 -0.54005569374E+03  0.55471437501E+03  0.12499811128E+03 0.  0.
    9000005    1    3    3    0    0  0.27216044673E+02  0.17010336356E+02 -0.31821985570E+02  0.45207337858E+02  0.10000000000E+01 0.  0.
    9000005    1    3    3    0    0 -0.14295678107E+02 -0.33023512541E+02 -0.50823370817E+03  0.50950703715E+03  0.10000000000E+01 0.  0.
          4    1    1    2  501    0 -0.12920366567E+02  0.16013176185E+02  0.99114753878E+00  0.20638627793E+02  0.12700000000E+01 0.  1.
<mgrwt>
<rscale>  1 0.12668025E+03</rscale>
<asrwt>0</asrwt>
<pdfrwt beam="1">  1       21 0.27913082E-02 0.12668025E+03</pdfrwt>
<pdfrwt beam="2">  1        4 0.85727852E-01 0.12668025E+03</pdfrwt>
<totfact> 0.34819484E+04</totfact>
</mgrwt>
</event>
<event>
 6    4  0.6277709E-003  0.1269650E+03  0.7818608E-02  0.1232030E+00
          4   -1    0    0  502    0 -0.00000000000E+00  0.00000000000E+00  0.14173794210E+03  0.14174363171E+03  0.12700000000E+01 0.  1.
         21   -1    0    0  501  502  0.00000000000E+00 -0.00000000000E+00 -0.47467208531E+02  0.47467208531E+02  0.00000000000E+00 0. -1.
         25    2    1    2    0    0 -0.70115383918E+01  0.21022935152E+02  0.10481141377E+03  0.16463759642E+03  0.12501591989E+03 0.  0.
    9000005    1    3    3    0    0 -0.50722999399E+02  0.14138226382E+02  0.20007552959E+01  0.52704033384E+02  0.10000000000E+01 0.  0.
    9000005    1    3    3    0    0  0.43711461007E+02  0.68847087701E+01  0.10281065847E+03  0.11193356303E+03  0.10000000000E+01 0.  0.
          4    1    1    2  501    0  0.70115383918E+01 -0.21022935152E+02 -0.10540680197E+02  0.24573243824E+02  0.12700000000E+01 0. -1.
<mgrwt>
<rscale>  1 0.12696498E+03</rscale>
<asrwt>0</asrwt>
<pdfrwt beam="2">  1       21 0.73026476E-02 0.12696498E+03</pdfrwt>
<pdfrwt beam="1">  1        4 0.21807582E-01 0.12696498E+03</pdfrwt>
<totfact> 0.10792280E+05</totfact>
</mgrwt>
</event>
<event>
 6    4  0.6277709E-003  0.1289520E+03  0.7818608E-02  0.1229019E+00
         -4   -1    0    0    0  501 -0.00000000000E+00  0.00000000000E+00  0.28673078446E+04  0.28673081259E+04  0.12700000000E+01 0. -1.
         21   -1    0    0  501  502  0.00000000000E+00 -0.00000000000E+00 -0.22651487701E+01  0.22651487701E+01  0.00000000000E+00 0. -1.
         25    2    1    2    0    0  0.22232022541E+01  0.31621851520E+02  0.23847749639E+04  0.23882588334E+04  0.12499497046E+03 0.  0.
    9000005    1    3    3    0    0  0.34982851171E+02 -0.28017525966E+02  0.43658320074E+03  0.43887888170E+03  0.10000000000E+01 0.  0.
    9000005    1    3    3    0    0 -0.32759648917E+02  0.59639377485E+02  0.19481917632E+04  0.19493799517E+04  0.10000000000E+01 0.  0.
         -4    1    1    2    0  502 -0.22232022541E+01 -0.31621851520E+02  0.48026773197E+03  0.48131444129E+03  0.12700000000E+01 0.  1.
<mgrwt>
<rscale>  1 0.12895203E+03</rscale>
<asrwt>0</asrwt>
<pdfrwt beam="2">  1       21 0.34848672E-03 0.12895203E+03</pdfrwt>
<pdfrwt beam="1">  1       -4 0.44114879E+00 0.12895203E+03</pdfrwt>
<totfact> 0.38227769E+03</totfact>
</mgrwt>
</event>
<event>
 6    4  0.6277709E-003  0.1271954E+03  0.7818608E-02  0.1231678E+00
         21   -1    0    0  501  502  0.00000000000E+00  0.00000000000E+00  0.19358483063E+03  0.19358483063E+03  0.00000000000E+00 0. -1.
          4   -1    0    0  502    0 -0.00000000000E+00 -0.00000000000E+00 -0.54102351838E+02  0.54117255791E+02  0.12700000000E+01 0.  1.
         25    2    1    2    0    0  0.30168983117E+01  0.23333003878E+02  0.23496895012E+02  0.12934753733E+03  0.12500060237E+03 0.  0.
    9000005    1    3    3    0    0  0.50717794501E+02  0.50993219619E+02  0.10533346882E+02  0.72694941520E+02  0.10000000000E+01 0.  0.
    9000005    1    3    3    0    0 -0.47700896189E+02 -0.27660215740E+02  0.12963548130E+02  0.56652595811E+02  0.10000000000E+01 0.  0.
          4    1    1    2  501    0 -0.30168983117E+01 -0.23333003878E+02  0.11598558378E+03  0.11835454909E+03  0.12700000000E+01 0. -1.
<mgrwt>
<rscale>  1 0.12719545E+03</rscale>
<asrwt>0</asrwt>
<pdfrwt beam="1">  1       21 0.29782281E-01 0.12719545E+03</pdfrwt>
<pdfrwt beam="2">  1        4 0.83249058E-02 0.12719545E+03</pdfrwt>
<totfact> 0.45068078E+04</totfact>
</mgrwt>
</event>
<event>
 6    4  0.6277709E-003  0.1270252E+03  0.7818608E-02  0.1231938E+00
         -4   -1    0    0    0  501 -0.00000000000E+00  0.00000000000E+00  0.14794824834E+02  0.14849233713E+02  0.12700000000E+01 0. -1.
         21   -1    0    0  501  502  0.00000000000E+00 -0.00000000000E+00 -0.56699432614E+03  0.56699432614E+03  0.00000000000E+00 0. -1.
         25    2    1    2    0    0 -0.22576566796E+02  0.53273419623E+00 -0.26623077802E+03  0.29498173114E+03  0.12500163746E+03 0.  0.
    9000005    1    3    3    0    0 -0.10050127649E+02  0.62636052051E+02 -0.14184266381E+03  0.15538539622E+03  0.10000000000E+01 0.  0.
    9000005    1    3    3    0    0 -0.12526439147E+02 -0.62103317855E+02 -0.12438811422E+03  0.13959633492E+03  0.10000000000E+01 0.  0.
         -4    1    1    2    0  502  0.22576566796E+02 -0.53273419623E+00 -0.28596872329E+03  0.28686182871E+03  0.12700000000E+01 0.  1.
<mgrwt>
<rscale>  1 0.12702517E+03</rscale>
<asrwt>0</asrwt>
<pdfrwt beam="2">  1       21 0.87229896E-01 0.12702517E+03</pdfrwt>
<pdfrwt beam="1">  1       -4 0.22804216E-02 0.12702517E+03</pdfrwt>
<totfact> 0.38154499E+04</totfact>
</mgrwt>
</event>
<event>
 6    4  0.6277709E-003  0.1400115E+03  0.7818608E-02  0.1213313E+00
         21   -1    0    0  501  502  0.00000000000E+00  0.00000000000E+00  0.34867265234E+02  0.34867265234E+02  0.00000000000E+00 0. -1.
         -4   -1    0    0    0  501 -0.00000000000E+00 -0.00000000000E+00 -0.30286788210E+03  0.30287054480E+03  0.12700000000E+01 0. -1.
         25    2    1    2    0    0 -0.50722710036E+02  0.37492989395E+02 -0.20756827290E+03  0.25037535434E+03  0.12499885031E+03 0.  0.
    9000005    1    3    3    0    0  0.16327249317E+02 -0.11449934159E+02 -0.14513060982E+03  0.14649769271E+03  0.10000000000E+01 0.  0.
    9000005    1    3    3    0    0 -0.67049959353E+02  0.48942923554E+02 -0.62437663082E+02  0.10387766163E+03  0.10000000000E+01 0.  0.
         -4    1    1    2    0  502  0.50722710036E+02 -0.37492989395E+02 -0.60432343960E+02  0.87362455687E+02  0.12700000000E+01 0.  1.
<mgrwt>
<rscale>  1 0.14001154E+03</rscale>
<asrwt>0</asrwt>
<pdfrwt beam="1">  1       21 0.53641950E-02 0.14001154E+03</pdfrwt>
<pdfrwt beam="2">  1       -4 0.46597040E-01 0.14001154E+03</pdfrwt>
<totfact> 0.43406587E+04</totfact>
</mgrwt>
</event>
<event>
 6    4  0.6277709E-003  0.1275016E+03  0.7818608E-02  0.1231211E+00
          4   -1    0    0  502    0 -0.00000000000E+00  0.00000000000E+00  0.29302245678E+03  0.29302520895E+03  0.12700000000E+01 0.  1.
         21   -1    0    0  501  502  0.00000000000E+00 -0.00000000000E+00 -0.20421597010E+02  0.20421597010E+02  0.00000000000E+00 0.  1.
         25    2    1    2    0    0  0.18165928662E+02  0.17378518261E+02  0.24430416425E+03  0.27557425998E+03  0.12499853693E+03 0.  0.
    9000005    1    3    3    0    0  0.14541117702E+02 -0.28331590917E+02  0.54097509269E+01  0.32317000990E+02  0.10000000000E+01 0.  0.
    9000005    1    3    3    0    0  0.36248109609E+01  0.45710109178E+02  0.23889441332E+03  0.24325725899E+03  0.10000000000E+01 0.  0.
          4    1    1    2  501    0 -0.18165928662E+02 -0.17378518261E+02  0.28296695521E+02  0.37872545973E+02  0.12700000000E+01 0. -1.
<mgrwt>
<rscale>  1 0.12750156E+03</rscale>
<asrwt>0</asrwt>
<pdfrwt beam="2">  1       21 0.31417844E-02 0.12750156E+03</pdfrwt>
<pdfrwt beam="1">  1        4 0.45083624E-01 0.12750156E+03</pdfrwt>
<totfact> 0.11161170E+05</totfact>
</mgrwt>
</event>
<event>
 6    4  0.6277709E-003  0.1270283E+03  0.7818608E-02  0.1231933E+00
         21   -1    0    0  501  502  0.00000000000E+00  0.00000000000E+00  0.71749960763E+03  0.71749960763E+03  0.00000000000E+00 0. -1.
          4   -1    0    0  502    0 -0.00000000000E+00 -0.00000000000E+00 -0.10204158295E+02  0.10282886098E+02  0.12700000000E+01 0. -1.
         25    2    1    2    0    0 -0.20098433091E+02 -0.10407162228E+02  0.40076524919E+03  0.42041523370E+03  0.12499571084E+03 0.  0.
    9000005    1    3    3    0    0 -0.67867975340E+02 -0.16724576478E+01  0.31126915960E+03  0.31858805519E+03  0.10000000000E+01 0.  0.
    9000005    1    3    3    0    0  0.47769542249E+02 -0.87347045804E+01  0.89496089593E+02  0.10182717851E+03  0.10000000000E+01 0.  0.
          4    1    1    2  501    0  0.20098433091E+02  0.10407162228E+02  0.30653020014E+03  0.30736726003E+03  0.12700000000E+01 0.  1.
<mgrwt>
<rscale>  1 0.12702828E+03</rscale>
<asrwt>0</asrwt>
<pdfrwt beam="1">  1       21 0.11038452E+00 0.12702828E+03</pdfrwt>
<pdfrwt beam="2">  1        4 0.15760135E-02 0.12702828E+03</pdfrwt>
<totfact> 0.38870381E+04</totfact>
</mgrwt>
</event>
<event>
 6    4  0.6277709E-003  0.1373656E+03  0.7818608E-02  0.1216918E+00
          4   -1    0    0  502    0 -0.00000000000E+00  0.00000000000E+00  0.25265945547E+02  0.25297843868E+02  0.12700000000E+01 0. -1.
         21   -1    0    0  501  502  0.00000000000E+00 -0.00000000000E+00 -0.49827148873E+03  0.49827148873E+03  0.00000000000E+00 0. -1.
         25    2    1    2    0    0 -0.56833380479E+02 -0.38635052841E+01 -0.18750206911E+03  0.23243567529E+03  0.12499742964E+03 0.  0.
    9000005    1    3    3    0    0 -0.38206939881E+02 -0.61027546965E+02 -0.69912394268E+02  0.10036371165E+03  0.10000000000E+01 0.  0.
    9000005    1    3    3    0    0 -0.18626440598E+02  0.57164041681E+02 -0.11758967485E+03  0.13207196365E+03  0.10000000000E+01 0.  0.
          4    1    1    2  501    0  0.56833380479E+02  0.38635052841E+01 -0.28550347406E+03  0.29113365730E+03  0.12700000000E+01 0.  1.
<mgrwt>
<rscale>  1 0.13736563E+03</rscale>
<asrwt>0</asrwt>
<pdfrwt beam="2">  1       21 0.76657151E-01 0.13736563E+03</pdfrwt>
<pdfrwt beam="1">  1        4 0.38896468E-02 0.13736563E+03</pdfrwt>
<totfact> 0.22260283E+04</totfact>
</mgrwt>
</event>
<event>
 6    4  0.6277709E-003  0.1419552E+03  0.7818608E-02  0.1210722E+00
         21   -1    0    0  501  502  0.00000000000E+00  0.00000000000E+00  0.27355281944E+03  0.27355281944E+03  0.00000000000E+00 0.  1.
          4   -1    0    0  502    0 -0.00000000000E+00 -0.00000000000E+00 -0.11563038048E+03  0.11563735465E+03  0.12700000000E+01 0. -1.
         25    2    1    2    0    0 -0.65182665190E+02  0.16741759047E+02 -0.65144313761E+02  0.15618919682E+03  0.12498886851E+03 0.  0.
    9000005    1    3    3    0    0 -0.26222850447E+02  0.59258145442E+01  0.37334565519E+02  0.46017637337E+02  0.10000000000E+01 0.  0.
    9000005    1    3    3    0    0 -0.38959814743E+02  0.10815944503E+02 -0.10247887928E+03  0.11017155948E+03  0.10000000000E+01 0.  0.
          4    1    1    2  501    0  0.65182665190E+02 -0.16741759047E+02  0.22306675273E+03  0.23300097727E+03  0.12700000000E+01 0.  1.
<mgrwt>
<rscale>  1 0.14195522E+03</rscale>
<asrwt>0</asrwt>
<pdfrwt beam="1">  1       21 0.42085049E-01 0.14195522E+03</pdfrwt>
<pdfrwt beam="2">  1        4 0.17790053E-01 0.14195522E+03</pdfrwt>
<totfact> 0.62629767E+03</totfact>
</mgrwt>
</event>
<event>
 6    4  0.6277709E-003  0.1324978E+03  0.7818608E-02  0.1223796E+00
         21   -1    0    0  501  502  0.00000000000E+00  0.00000000000E+00  0.61146909224E+02  0.61146909224E+02  0.00000000000E+00 0. -1.
          4   -1    0    0  502    0 -0.00000000000E+00 -0.00000000000E+00 -0.14605185871E+03  0.14605738027E+03  0.12700000000E+01 0.  1.
         25    2    1    2    0    0  0.64830994692E+00 -0.43938185922E+02 -0.93816258355E+02  0.16234886827E+03  0.12499872082E+03 0.  0.
    9000005    1    3    3    0    0  0.60004409292E+02 -0.12681434568E+02 -0.24989685086E+02  0.66233165997E+02  0.10000000000E+01 0.  0.
    9000005    1    3    3    0    0 -0.59356099345E+02 -0.31256751354E+02 -0.68826573269E+02  0.96115702269E+02  0.10000000000E+01 0.  0.
          4    1    1    2  501    0 -0.64830994692E+00  0.43938185922E+02  0.89113088719E+01  0.44855421230E+02  0.12700000000E+01 0. -1.
<mgrwt>
<rscale>  1 0.13249779E+03</rscale>
<asrwt>0</asrwt>
<pdfrwt beam="1">  1       21 0.94072170E-02 0.13249779E+03</pdfrwt>
<pdfrwt beam="2">  1        4 0.22470956E-01 0.13249779E+03</pdfrwt>
<totfact> 0.66371501E+04</totfact>
</mgrwt>
</event>
<event>
 6    4  0.6277709E-003  0.1322292E+03  0.7818608E-02  0.1224185E+00
         21   -1    0    0  501  502  0.00000000000E+00  0.00000000000E+00  0.40618931439E+02  0.40618931439E+02  0.00000000000E+00 0. -1.
         -4   -1    0    0    0  501 -0.00000000000E+00 -0.00000000000E+00 -0.18936069313E+03  0.18936495189E+03  0.12700000000E+01 0. -1.
         25    2    1    2    0    0 -0.31976696555E+02 -0.28936956318E+02 -0.11412651810E+03  0.17466946791E+03  0.12499881729E+03 0.  0.
    9000005    1    3    3    0    0  0.81898308393E+01 -0.42782642078E+02 -0.12366352686E+03  0.13111481864E+03  0.10000000000E+01 0.  0.
    9000005    1    3    3    0    0 -0.40166527394E+02  0.13845685761E+02  0.95370087592E+01  0.43554649271E+02  0.10000000000E+01 0.  0.
         -4    1    1    2    0  502  0.31976696555E+02  0.28936956318E+02 -0.34615243593E+02  0.55314415413E+02  0.12700000000E+01 0.  1.
<mgrwt>
<rscale>  1 0.13222920E+03</rscale>
<asrwt>0</asrwt>
<pdfrwt beam="1">  1       21 0.62490664E-02 0.13222920E+03</pdfrwt>
<pdfrwt beam="2">  1       -4 0.29134269E-01 0.13222920E+03</pdfrwt>
<totfact> 0.82963248E+04</totfact>
</mgrwt>
</event>
<event>
 6    4  0.6277709E-003  0.1310485E+03  0.7818608E-02  0.1225908E+00
         -4   -1    0    0    0  501 -0.00000000000E+00  0.00000000000E+00  0.11537054904E+03  0.11537753891E+03  0.12700000000E+01 0.  1.
         21   -1    0    0  501  502  0.00000000000E+00 -0.00000000000E+00 -0.62942218897E+02  0.62942218897E+02  0.00000000000E+00 0.  1.
         25    2    1    2    0    0 -0.36679360165E+02  0.14302774216E+02  0.40318534830E+02  0.13711047663E+03  0.12499501486E+03 0.  0.
    9000005    1    3    3    0    0 -0.24544566084E+02 -0.48604645385E+02  0.47978254386E+02  0.72579337081E+02  0.10000000000E+01 0.  0.
    9000005    1    3    3    0    0 -0.12134794081E+02  0.62907419601E+02 -0.76597195561E+01  0.64531139552E+02  0.10000000000E+01 0.  0.
         -4    1    1    2    0  502  0.36679360165E+02 -0.14302774216E+02  0.12109795311E+02  0.41209281174E+02  0.12700000000E+01 0. -1.
<mgrwt>
<rscale>  1 0.13104846E+03</rscale>
<asrwt>0</asrwt>
<pdfrwt beam="2">  1       21 0.96834184E-02 0.13104846E+03</pdfrwt>
<pdfrwt beam="1">  1       -4 0.17750838E-01 0.13104846E+03</pdfrwt>
<totfact> 0.96269080E+04</totfact>
</mgrwt>
</event>
<event>
 6    4  0.6277709E-003  0.1283642E+03  0.7818608E-02  0.1229903E+00
         21   -1    0    0  501  502  0.00000000000E+00  0.00000000000E+00  0.41822627827E+02  0.41822627827E+02  0.00000000000E+00 0. -1.
          4   -1    0    0  502    0 -0.00000000000E+00 -0.00000000000E+00 -0.27476625444E+03  0.27476918946E+03  0.12700000000E+01 0.  1.
         25    2    1    2    0    0 -0.52337254654E+01 -0.28715734291E+02 -0.25123051088E+03  0.28212432080E+03  0.12500151002E+03 0.  0.
    9000005    1    3    3    0    0 -0.11339792085E+02  0.21052349591E+02 -0.22357682232E+03  0.22485414781E+03  0.10000000000E+01 0.  0.
    9000005    1    3    3    0    0  0.61060666195E+01 -0.49768083882E+02 -0.27653688562E+02  0.57270172987E+02  0.10000000000E+01 0.  0.
          4    1    1    2  501    0  0.52337254654E+01  0.28715734291E+02  0.18286884273E+02  0.34467496494E+02  0.12700000000E+01 0. -1.
<mgrwt>
<rscale>  1 0.12836418E+03</rscale>
<asrwt>0</asrwt>
<pdfrwt beam="1">  1       21 0.64342505E-02 0.12836418E+03</pdfrwt>
<pdfrwt beam="2">  1        4 0.42273440E-01 0.12836418E+03</pdfrwt>
<totfact> 0.38332929E+04</totfact>
</mgrwt>
</event>
<event>
 6    4  0.6277709E-003  0.1314186E+03  0.7818608E-02  0.1225366E+00
          4   -1    0    0  502    0 -0.00000000000E+00  0.00000000000E+00  0.37353012806E+03  0.37353228705E+03  0.12700000000E+01 0.  1.
         21   -1    0    0  501  502  0.00000000000E+00 -0.00000000000E+00 -0.29933650923E+02  0.29933650923E+02  0.00000000000E+00 0. -1.
         25    2    1    2    0    0 -0.10035346010E+02 -0.39317076771E+02  0.33779165913E+03  0.36245557944E+03  0.12499720554E+03 0.  0.
    9000005    1    3    3    0    0 -0.58229696154E+02  0.67620389172E+01  0.21350803972E+03  0.22141162053E+03  0.10000000000E+01 0.  0.
    9000005    1    3    3    0    0  0.48194350144E+02 -0.46079115688E+02  0.12428361941E+03  0.14104395890E+03  0.10000000000E+01 0.  0.
          4    1    1    2  501    0  0.10035346010E+02  0.39317076771E+02  0.58048180099E+01  0.41010358539E+02  0.12700000000E+01 0. -1.
<mgrwt>
<rscale>  1 0.13141858E+03</rscale>
<asrwt>0</asrwt>
<pdfrwt beam="2">  1       21 0.46051773E-02 0.13141858E+03</pdfrwt>
<pdfrwt beam="1">  1        4 0.57468409E-01 0.13141858E+03</pdfrwt>
<totfact> 0.36230962E+04</totfact>
</mgrwt>
</event>
<event>
 6    4  0.6277709E-003  0.1289220E+03  0.7818608E-02  0.1229064E+00
         21   -1    0    0  501  502  0.00000000000E+00  0.00000000000E+00  0.19589880109E+03  0.19589880109E+03  0.00000000000E+00 0.  1.
         -4   -1    0    0    0  501 -0.00000000000E+00 -0.00000000000E+00 -0.33027276164E+02  0.33051684841E+02  0.12700000000E+01 0.  1.
         25    2    1    2    0    0 -0.31245810637E+02 -0.45153886076E+01  0.13691245217E+03  0.18805824003E+03  0.12499677062E+03 0.  0.
    9000005    1    3    3    0    0  0.19869557575E+02 -0.54125437060E+02  0.59711912533E+02  0.83011292927E+02  0.10000000000E+01 0.  0.
    9000005    1    3    3    0    0 -0.51115368213E+02  0.49610048452E+02  0.77200539635E+02  0.10504694710E+03  0.10000000000E+01 0.  0.
         -4    1    1    2    0  502  0.31245810637E+02  0.45153886076E+01  0.25959072756E+02  0.40892245903E+02  0.12700000000E+01 0. -1.
<mgrwt>
<rscale>  1 0.12892200E+03</rscale>
<asrwt>0</asrwt>
<pdfrwt beam="1">  1       21 0.30138276E-01 0.12892200E+03</pdfrwt>
<pdfrwt beam="2">  1       -4 0.50833138E-02 0.12892200E+03</pdfrwt>
<totfact> 0.98697069E+04</totfact>
</mgrwt>
</event>
<event>
 6    4  0.6277709E-003  0.1330990E+03  0.7818608E-02  0.1222928E+00
          4   -1    0    0  502    0 -0.00000000000E+00  0.00000000000E+00  0.14963603617E+03  0.14964142548E+03  0.12700000000E+01 0. -1.
         21   -1    0    0  501  502  0.00000000000E+00 -0.00000000000E+00 -0.61935997288E+02  0.61935997288E+02  0.00000000000E+00 0. -1.
         25    2    1    2    0    0  0.43149529379E+01 -0.45522396654E+02  0.97256324458E+02  0.16484581772E+03  0.12499777421E+03 0.  0.
    9000005    1    3    3    0    0  0.29166023349E+02 -0.48140613210E+02  0.11903993584E+03  0.13168022586E+03  0.10000000000E+01 0.  0.
    9000005    1    3    3    0    0 -0.24851070411E+02  0.26182165559E+01 -0.21783611383E+02  0.33165591860E+02  0.10000000000E+01 0.  0.
          4    1    1    2  501    0 -0.43149529379E+01  0.45522396654E+02 -0.95562855805E+01  0.46731605045E+02  0.12700000000E+01 0.  1.
<mgrwt>
<rscale>  1 0.13309903E+03</rscale>
<asrwt>0</asrwt>
<pdfrwt beam="2">  1       21 0.95286150E-02 0.13309903E+03</pdfrwt>
<pdfrwt beam="1">  1        4 0.23022345E-01 0.13309903E+03</pdfrwt>
<totfact> 0.62130634E+04</totfact>
</mgrwt>
</event>
<event>
 6    4  0.6277709E-003  0.1290767E+03  0.7818608E-02  0.1228832E+00
          4   -1    0    0  502    0 -0.00000000000E+00  0.00000000000E+00  0.97928534994E+03  0.97928617344E+03  0.12700000000E+01 0.  1.
         21   -1    0    0  501  502  0.00000000000E+00 -0.00000000000E+00 -0.11638709441E+02  0.11638709441E+02  0.00000000000E+00 0. -1.
         25    2    1    2    0    0 -0.96632221169E+01 -0.30725981436E+02  0.93890951189E+03  0.94774040353E+03  0.12499334850E+03 0.  0.
    9000005    1    3    3    0    0  0.54415163088E+02  0.54659257974E+01  0.34970076363E+03  0.35395269515E+03  0.10000000000E+01 0.  0.
    9000005    1    3    3    0    0 -0.64078385205E+02 -0.36191907233E+02  0.58920874825E+03  0.59378770837E+03  0.10000000000E+01 0.  0.
          4    1    1    2  501    0  0.96632221169E+01  0.30725981436E+02  0.28737128610E+02  0.43184479360E+02  0.12700000000E+01 0. -1.
<mgrwt>
<rscale>  1 0.12907673E+03</rscale>
<asrwt>0</asrwt>
<pdfrwt beam="2">  1       21 0.17905715E-02 0.12907673E+03</pdfrwt>
<pdfrwt beam="1">  1        4 0.15066461E+00 0.12907673E+03</pdfrwt>
<totfact> 0.18754596E+04</totfact>
</mgrwt>
</event>
<event>
 6    4  0.6277709E-003  0.1344660E+03  0.7818608E-02  0.1220976E+00
         -4   -1    0    0    0  501 -0.00000000000E+00  0.00000000000E+00  0.16928192381E+02  0.16975764999E+02  0.12700000000E+01 0.  1.
         21   -1    0    0  501  502  0.00000000000E+00 -0.00000000000E+00 -0.81124377996E+03  0.81124377996E+03  0.00000000000E+00 0. -1.
         25    2    1    2    0    0 -0.49352594637E+02 -0.39549749198E+01 -0.27060616361E+03  0.30217344994E+03  0.12501910912E+03 0.  0.
    9000005    1    3    3    0    0 -0.59783191681E+02  0.46379743048E+02 -0.20693031343E+03  0.22033217012E+03  0.10000000000E+01 0.  0.
    9000005    1    3    3    0    0  0.10430597044E+02 -0.50334717968E+02 -0.63675850173E+02  0.81841279822E+02  0.10000000000E+01 0.  0.
         -4    1    1    2    0  502  0.49352594637E+02  0.39549749198E+01 -0.52370942397E+03  0.52604609502E+03  0.12700000000E+01 0. -1.
<mgrwt>
<rscale>  1 0.13446597E+03</rscale>
<asrwt>0</asrwt>
<pdfrwt beam="2">  1       21 0.12480673E+00 0.13446597E+03</pdfrwt>
<pdfrwt beam="1">  1       -4 0.26080733E-02 0.13446597E+03</pdfrwt>
<totfact> 0.13338942E+04</totfact>
</mgrwt>
</event>
<event>
 6    4  0.6277709E-003  0.1268090E+03  0.7818608E-02  0.1232269E+00
          4   -1    0    0  502    0 -0.00000000000E+00  0.00000000000E+00  0.32926644580E+03  0.32926889502E+03  0.12700000000E+01 0. -1.
         21   -1    0    0  501  502  0.00000000000E+00 -0.00000000000E+00 -0.18862465097E+02  0.18862465097E+02  0.00000000000E+00 0. -1.
         25    2    1    2    0    0 -0.93181392366E+01 -0.19233066647E+02  0.29682787080E+03  0.32278057647E+03  0.12499510827E+03 0.  0.
    9000005    1    3    3    0    0  0.42872746517E+02  0.18966759316E+02  0.54156334452E+02  0.71636016878E+02  0.10000000000E+01 0.  0.
    9000005    1    3    3    0    0 -0.52190885753E+02 -0.38199825964E+02  0.24267153635E+03  0.25114455959E+03  0.10000000000E+01 0.  0.
          4    1    1    2  501    0  0.93181392366E+01  0.19233066647E+02  0.13576109898E+02  0.25350783646E+02  0.12700000000E+01 0.  1.
<mgrwt>
<rscale>  1 0.12680897E+03</rscale>
<asrwt>0</asrwt>
<pdfrwt beam="2">  1       21 0.29019180E-02 0.12680897E+03</pdfrwt>
<pdfrwt beam="1">  1        4 0.50659849E-01 0.12680897E+03</pdfrwt>
<totfact> 0.10037701E+05</totfact>
</mgrwt>
</event>
<event>
 6    4  0.6277709E-003  0.1274561E+03  0.7818608E-02  0.1231280E+00
         -4   -1    0    0    0  501 -0.00000000000E+00  0.00000000000E+00  0.10693723162E+03  0.10694477270E+03  0.12700000000E+01 0. -1.
         21   -1    0    0  501  502  0.00000000000E+00 -0.00000000000E+00 -0.10162376856E+03  0.10162376856E+03  0.00000000000E+00 0.  1.
         25    2    1    2    0    0 -0.24200113819E+02 -0.58876698094E+01  0.65585762068E+02  0.14334068607E+03  0.12499899973E+03 0.  0.
    9000005    1    3    3    0    0 -0.33726014813E+02 -0.24110729438E+02  0.97164353108E+02  0.10564413313E+03  0.10000000000E+01 0.  0.
    9000005    1    3    3    0    0  0.95259009936E+01  0.18223059628E+02 -0.31578591040E+02  0.37696552946E+02  0.10000000000E+01 0.  0.
         -4    1    1    2    0  502  0.24200113819E+02  0.58876698094E+01 -0.60272299008E+02  0.65227855188E+02  0.12700000000E+01 0.  1.
<mgrwt>
<rscale>  1 0.12745611E+03</rscale>
<asrwt>0</asrwt>
<pdfrwt beam="2">  1       21 0.15634426E-01 0.12745611E+03</pdfrwt>
<pdfrwt beam="1">  1       -4 0.16453072E-01 0.12745611E+03</pdfrwt>
<totfact> 0.46845462E+04</totfact>
</mgrwt>
</event>
<event>
 6    4  0.6277709E-003  0.1320603E+03  0.7818608E-02  0.1224430E+00
         21   -1    0    0  501  502  0.00000000000E+00  0.00000000000E+00  0.22016206332E+03  0.22016206332E+03  0.00000000000E+00 0.  1.
         -4   -1    0    0    0  501 -0.00000000000E+00 -0.00000000000E+00 -0.39426977411E+02  0.39447426377E+02  0.12700000000E+01 0.  1.
         25    2    1    2    0    0  0.42560250303E+02  0.19267434883E+01  0.91332215349E+02  0.16056619911E+03  0.12499937395E+03 0.  0.
    9000005    1    3    3    0    0  0.10182850198E+02 -0.51570538763E+02  0.81893660590E+02  0.97317945680E+02  0.10000000000E+01 0.  0.
    9000005    1    3    3    0    0  0.32377400105E+02  0.53497282251E+02  0.94385547587E+01  0.63248253428E+02  0.10000000000E+01 0.  0.
         -4    1    1    2    0  502 -0.42560250303E+02 -0.19267434883E+01  0.89402870560E+02  0.99043290589E+02  0.12700000000E+01 0. -1.
<mgrwt>
<rscale>  1 0.13206033E+03</rscale>
<asrwt>0</asrwt>
<pdfrwt beam="1">  1       21 0.33871086E-01 0.13206033E+03</pdfrwt>
<pdfrwt beam="2">  1       -4 0.60675437E-02 0.13206033E+03</pdfrwt>
<totfact> 0.59267870E+04</totfact>
</mgrwt>
</event>
<event>
 6    4  0.6277709E-003  0.1342371E+03  0.7818608E-02  0.1221301E+00
         21   -1    0    0  501  502  0.00000000000E+00  0.00000000000E+00  0.52636580197E+02  0.52636580197E+02  0.00000000000E+00 0. -1.
          4   -1    0    0  502    0 -0.00000000000E+00 -0.00000000000E+00 -0.17428091548E+03  0.17428554272E+03  0.12700000000E+01 0.  1.
         25    2    1    2    0    0  0.45863816345E+02 -0.17057494917E+02 -0.11643088745E+03  0.17769569992E+03  0.12500064974E+03 0.  0.
    9000005    1    3    3    0    0  0.35890658667E+01  0.27805438912E+02  0.15514203296E+02  0.32057983885E+02  0.10000000000E+01 0.  0.
    9000005    1    3    3    0    0  0.42274750479E+02 -0.44862933829E+02 -0.13194509075E+03  0.14563771603E+03  0.10000000000E+01 0.  0.
          4    1    1    2  501    0 -0.45863816345E+02  0.17057494917E+02 -0.52134478327E+01  0.49226422995E+02  0.12700000000E+01 0. -1.
<mgrwt>
<rscale>  1 0.13423714E+03</rscale>
<asrwt>0</asrwt>
<pdfrwt beam="1">  1       21 0.80979356E-02 0.13423714E+03</pdfrwt>
<pdfrwt beam="2">  1        4 0.26813982E-01 0.13423714E+03</pdfrwt>
<totfact> 0.62274117E+04</totfact>
</mgrwt>
</event>
<event>
 6    4  0.6277709E-003  0.1278745E+03  0.7818608E-02  0.1230644E+00
         21   -1    0    0  501  502  0.00000000000E+00  0.00000000000E+00  0.52331328247E+03  0.52331328247E+03  0.00000000000E+00 0. -1.
          4   -1    0    0  502    0 -0.00000000000E+00 -0.00000000000E+00 -0.17044858875E+02  0.17092106776E+02  0.12700000000E+01 0.  1.
         25    2    1    2    0    0  0.23100122545E+02 -0.14115801176E+02  0.23289181809E+03  0.26568871184E+03  0.12497608237E+03 0.  0.
    9000005    1    3    3    0    0  0.29929199847E+02  0.50896494932E+02  0.80254149347E+02  0.99639041983E+02  0.10000000000E+01 0.  0.
    9000005    1    3    3    0    0 -0.68290773018E+01 -0.65012296108E+02  0.15263766874E+03  0.16604966986E+03  0.10000000000E+01 0.  0.
          4    1    1    2  501    0 -0.23100122545E+02  0.14115801176E+02  0.27337660551E+03  0.27471667741E+03  0.12700000000E+01 0. -1.
<mgrwt>
<rscale>  1 0.12787452E+03</rscale>
<asrwt>0</asrwt>
<pdfrwt beam="1">  1       21 0.80509723E-01 0.12787452E+03</pdfrwt>
<pdfrwt beam="2">  1        4 0.26260394E-02 0.12787452E+03</pdfrwt>
<totfact> 0.36748908E+04</totfact>
</mgrwt>
</event>
<event>
 6    4  0.6277709E-003  0.1270734E+03  0.7818608E-02  0.1231864E+00
         21   -1    0    0  501  502  0.00000000000E+00  0.00000000000E+00  0.38627773039E+02  0.38627773039E+02  0.00000000000E+00 0.  1.
          4   -1    0    0  502    0 -0.00000000000E+00 -0.00000000000E+00 -0.17721862007E+03  0.17722317061E+03  0.12700000000E+01 0. -1.
         25    2    1    2    0    0  0.75357897445E+01 -0.21590911379E+02 -0.14427018418E+03  0.19225383892E+03  0.12499878781E+03 0.  0.
    9000005    1    3    3    0    0  0.22595001777E+02  0.25372241687E+02  0.56238752956E+01  0.34451599772E+02  0.10000000000E+01 0.  0.
    9000005    1    3    3    0    0 -0.15059212032E+02 -0.46963153066E+02 -0.14989405948E+03  0.15780223914E+03  0.10000000000E+01 0.  0.
          4    1    1    2  501    0 -0.75357897445E+01  0.21590911379E+02  0.56793371454E+01  0.23597104731E+02  0.12700000000E+01 0.  1.
<mgrwt>
<rscale>  1 0.12707341E+03</rscale>
<asrwt>0</asrwt>
<pdfrwt beam="1">  1       21 0.59427343E-02 0.12707341E+03</pdfrwt>
<pdfrwt beam="2">  1        4 0.27266359E-01 0.12707341E+03</pdfrwt>
<totfact> 0.10170206E+05</totfact>
</mgrwt>
</event>
<event>
 6    4  0.6277709E-003  0.1370034E+03  0.7818608E-02  0.1217419E+00
          4   -1    0    0  502    0 -0.00000000000E+00  0.00000000000E+00  0.20842222479E+03  0.20842609407E+03  0.12700000000E+01 0. -1.
         21   -1    0    0  501  502  0.00000000000E+00 -0.00000000000E+00 -0.53097129583E+02  0.53097129583E+02  0.00000000000E+00 0.  1.
         25    2    1    2    0    0  0.43209794951E+02 -0.35743903460E+02  0.15301111554E+03  0.20538339451E+03  0.12500089698E+03 0.  0.
    9000005    1    3    3    0    0  0.54701108449E+02  0.25619551338E+02  0.12094289016E+03  0.13519155061E+03  0.10000000000E+01 0.  0.
    9000005    1    3    3    0    0 -0.11491313498E+02 -0.61363454798E+02  0.32068225386E+02  0.70191843900E+02  0.10000000000E+01 0.  0.
          4    1    1    2  501    0 -0.43209794951E+02  0.35743903460E+02  0.23139796689E+01  0.56139829143E+02  0.12700000000E+01 0.  1.
<mgrwt>
<rscale>  1 0.13700342E+03</rscale>
<asrwt>0</asrwt>
<pdfrwt beam="2">  1       21 0.81687893E-02 0.13700342E+03</pdfrwt>
<pdfrwt beam="1">  1        4 0.32066423E-01 0.13700342E+03</pdfrwt>
<totfact> 0.43898696E+04</totfact>
</mgrwt>
</event>
<event>
 6    4  0.6277709E-003  0.1284482E+03  0.7818608E-02  0.1229777E+00
         -4   -1    0    0    0  501 -0.00000000000E+00  0.00000000000E+00  0.12913884861E+04  0.12913891106E+04  0.12700000000E+01 0. -1.
         21   -1    0    0  501  502  0.00000000000E+00 -0.00000000000E+00 -0.53584753005E+01  0.53584753005E+01  0.00000000000E+00 0.  1.
         25    2    1    2    0    0 -0.94524066243E+01  0.28014073407E+02  0.11689307193E+04  0.11759668206E+04  0.12499920105E+03 0.  0.
    9000005    1    3    3    0    0 -0.42782578567E+02  0.47597406721E+02  0.10229653859E+04  0.10249658740E+04  0.10000000000E+01 0.  0.
    9000005    1    3    3    0    0  0.33330171942E+02 -0.19583333314E+02  0.14596533343E+03  0.15100094659E+03  0.10000000000E+01 0.  0.
         -4    1    1    2    0  502  0.94524066243E+01 -0.28014073407E+02  0.11709929154E+03  0.12078076535E+03  0.12700000000E+01 0.  1.
<mgrwt>
<rscale>  1 0.12844819E+03</rscale>
<asrwt>0</asrwt>
<pdfrwt beam="2">  1       21 0.82438184E-03 0.12844819E+03</pdfrwt>
<pdfrwt beam="1">  1       -4 0.19868653E+00 0.12844819E+03</pdfrwt>
<totfact> 0.30544779E+04</totfact>
</mgrwt>
</event>
<event>
 6    4  0.6277709E-003  0.1323366E+03  0.7818608E-02  0.1224029E+00
         21   -1    0    0  501  502  0.00000000000E+00  0.00000000000E+00  0.14615747060E+02  0.14615747060E+02  0.00000000000E+00 0.  1.
         -4   -1    0    0    0  501 -0.00000000000E+00 -0.00000000000E+00 -0.59851097517E+03  0.59851232260E+03  0.12700000000E+01 0. -1.
         25    2    1    2    0    0  0.22982296252E+02  0.36893700110E+02 -0.51439343991E+03  0.53114366558E+03  0.12499460553E+03 0.  0.
    9000005    1    3    3    0    0  0.40863558962E+02 -0.28260212992E+02 -0.10445052641E+03  0.11566928095E+03  0.10000000000E+01 0.  0.
    9000005    1    3    3    0    0 -0.17881262709E+02  0.65153913101E+02 -0.40994291351E+03  0.41547438463E+03  0.10000000000E+01 0.  0.
         -4    1    1    2    0  502 -0.22982296252E+02 -0.36893700110E+02 -0.69501788197E+02  0.81984404075E+02  0.12700000000E+01 0.  1.
<mgrwt>
<rscale>  1 0.13233663E+03</rscale>
<asrwt>0</asrwt>
<pdfrwt beam="1">  1       21 0.22485767E-02 0.13233663E+03</pdfrwt>
<pdfrwt beam="2">  1       -4 0.92082952E-01 0.13233663E+03</pdfrwt>
<totfact> 0.42383966E+04</totfact>
</mgrwt>
</event>
<event>
 6    4  0.6277709E-003  0.1276526E+03  0.7818608E-02  0.1230981E+00
         21   -1    0    0  501  502  0.00000000000E+00  0.00000000000E+00  0.29857876904E+03  0.29857876904E+03  0.00000000000E+00 0.  1.
          4   -1    0    0  502    0 -0.00000000000E+00 -0.00000000000E+00 -0.25677795747E+02  0.25709183076E+02  0.12700000000E+01 0.  1.
         25    2    1    2    0    0  0.25419187036E+02  0.50159193747E+01  0.14242859418E+03  0.19126183014E+03  0.12499555477E+03 0.  0.
    9000005    1    3    3    0    0  0.38231840283E+02 -0.53471581919E+02  0.57466801431E+02  0.87317334768E+02  0.10000000000E+01 0.  0.
    9000005    1    3    3    0    0 -0.12812653247E+02  0.58487501293E+02  0.84961792745E+02  0.10394449537E+03  0.10000000000E+01 0.  0.
          4    1    1    2  501    0 -0.25419187036E+02 -0.50159193747E+01  0.13047237912E+03  0.13302612198E+03  0.12700000000E+01 0. -1.
<mgrwt>
<rscale>  1 0.12765259E+03</rscale>
<asrwt>0</asrwt>
<pdfrwt beam="1">  1       21 0.45935193E-01 0.12765259E+03</pdfrwt>
<pdfrwt beam="2">  1        4 0.39530525E-02 0.12765259E+03</pdfrwt>
<totfact> 0.63904766E+04</totfact>
</mgrwt>
</event>
<event>
 6    4  0.6277709E-003  0.1299873E+03  0.7818608E-02  0.1227475E+00
          4   -1    0    0  502    0 -0.00000000000E+00  0.00000000000E+00  0.41600381552E+02  0.41619762677E+02  0.12700000000E+01 0. -1.
         21   -1    0    0  501  502  0.00000000000E+00 -0.00000000000E+00 -0.26352354701E+03  0.26352354701E+03  0.00000000000E+00 0.  1.
         25    2    1    2    0    0  0.31872321825E+02  0.15984407045E+02 -0.67142774226E+02  0.14630399284E+03  0.12500144008E+03 0.  0.
    9000005    1    3    3    0    0  0.46503552564E+02  0.20458596110E+01  0.24390669506E+02  0.52561113968E+02  0.10000000000E+01 0.  0.
    9000005    1    3    3    0    0 -0.14631230740E+02  0.13938547434E+02 -0.91533443732E+02  0.93742878870E+02  0.10000000000E+01 0.  0.
          4    1    1    2  501    0 -0.31872321825E+02 -0.15984407045E+02 -0.15478039124E+03  0.15883931685E+03  0.12700000000E+01 0.  1.
<mgrwt>
<rscale>  1 0.12998733E+03</rscale>
<asrwt>0</asrwt>
<pdfrwt beam="2">  1       21 0.40542084E-01 0.12998733E+03</pdfrwt>
<pdfrwt beam="1">  1        4 0.64017849E-02 0.12998733E+03</pdfrwt>
<totfact> 0.37980233E+04</totfact>
</mgrwt>
</event>
<event>
 6    4  0.6277709E-003  0.1386605E+03  0.7818608E-02  0.1215143E+00
         -4   -1    0    0    0  501 -0.00000000000E+00  0.00000000000E+00  0.45018438183E+03  0.45018617321E+03  0.12700000000E+01 0. -1.
         21   -1    0    0  501  502  0.00000000000E+00 -0.00000000000E+00 -0.66945226043E+02  0.66945226043E+02  0.00000000000E+00 0.  1.
         25    2    1    2    0    0  0.40484459673E+02 -0.44310236351E+02  0.42298542286E+03  0.44513301617E+03  0.12499738239E+03 0.  0.
    9000005    1    3    3    0    0  0.53373635839E+02  0.11778294432E+02  0.33861051094E+03  0.34299497277E+03  0.10000000000E+01 0.  0.
    9000005    1    3    3    0    0 -0.12889176166E+02 -0.56088530783E+02  0.84374911922E+02  0.10213804340E+03  0.10000000000E+01 0.  0.
         -4    1    1    2    0  502 -0.40484459673E+02  0.44310236351E+02 -0.39746267074E+02  0.71998383085E+02  0.12700000000E+01 0.  1.
<mgrwt>
<rscale>  1 0.13866050E+03</rscale>
<asrwt>0</asrwt>
<pdfrwt beam="2">  1       21 0.10299266E-01 0.13866050E+03</pdfrwt>
<pdfrwt beam="1">  1       -4 0.69260198E-01 0.13866050E+03</pdfrwt>
<totfact> 0.61825589E+03</totfact>
</mgrwt>
</event>
<event>
 6    4  0.6277709E-003  0.1399376E+03  0.7818608E-02  0.1213413E+00
         21   -1    0    0  501  502  0.00000000000E+00  0.00000000000E+00  0.70514106174E+02  0.70514106174E+02  0.00000000000E+00 0. -1.
         -4   -1    0    0    0  501 -0.00000000000E+00 -0.00000000000E+00 -0.16958476376E+03  0.16958951913E+03  0.12700000000E+01 0.  1.
         25    2    1    2    0    0 -0.46049851100E+02  0.42825711483E+02 -0.10774289411E+03  0.17660991746E+03  0.12501160491E+03 0.  0.
    9000005    1    3    3    0    0 -0.82903571625E+02  0.56231348083E+02 -0.70341632561E+02  0.12240879040E+03  0.10000000000E+01 0.  0.
    9000005    1    3    3    0    0  0.36853720525E+02 -0.13405636601E+02 -0.37401261545E+02  0.54201127058E+02  0.10000000000E+01 0.  0.
         -4    1    1    2    0  502  0.46049851100E+02 -0.42825711483E+02  0.86722365197E+01  0.63493707850E+02  0.12700000000E+01 0. -1.
<mgrwt>
<rscale>  1 0.13993760E+03</rscale>
<asrwt>0</asrwt>
<pdfrwt beam="1">  1       21 0.10848324E-01 0.13993760E+03</pdfrwt>
<pdfrwt beam="2">  1       -4 0.26091209E-01 0.13993760E+03</pdfrwt>
<totfact> 0.39535402E+04</totfact>
</mgrwt>
</event>
<event>
 6    4  0.6277709E-003  0.1270142E+03  0.7818608E-02  0.1231955E+00
          4   -1    0    0  502    0 -0.00000000000E+00  0.00000000000E+00  0.22647241752E+04  0.22647245312E+04  0.12700000000E+01 0. -1.
         21   -1    0    0  501  502  0.00000000000E+00 -0.00000000000E+00 -0.27566949965E+01  0.27566949965E+01  0.00000000000E+00 0. -1.
         25    2    1    2    0    0  0.76812709811E+01  0.21184173935E+02  0.21129691202E+04  0.21167831993E+04  0.12499935537E+03 0.  0.
    9000005    1    3    3    0    0  0.62535023943E+01 -0.42235107845E+02  0.14857344553E+04  0.14863481364E+04  0.10000000000E+01 0.  0.
    9000005    1    3    3    0    0  0.14277685868E+01  0.63419281780E+02  0.62723466483E+03  0.63043506294E+03  0.10000000000E+01 0.  0.
          4    1    1    2  501    0 -0.76812709811E+01 -0.21184173935E+02  0.14899835998E+03  0.15069802695E+03  0.12700000000E+01 0.  1.
<mgrwt>
<rscale>  1 0.12701421E+03</rscale>
<asrwt>0</asrwt>
<pdfrwt beam="2">  1       21 0.42410874E-03 0.12701421E+03</pdfrwt>
<pdfrwt beam="1">  1        4 0.34844015E+00 0.12701421E+03</pdfrwt>
<totfact> 0.11363960E+04</totfact>
</mgrwt>
</event>
<event>
 6    4  0.6277709E-003  0.1372277E+03  0.7818608E-02  0.1217109E+00
         21   -1    0    0  501  502  0.00000000000E+00  0.00000000000E+00  0.58836959513E+02  0.58836959513E+02  0.00000000000E+00 0.  1.
          4   -1    0    0  502    0 -0.00000000000E+00 -0.00000000000E+00 -0.25489031237E+03  0.25489347627E+03  0.12700000000E+01 0.  1.
         25    2    1    2    0    0  0.51533091318E+02  0.23468931780E+02 -0.21408398632E+03  0.25428998741E+03  0.12499997696E+03 0.  0.
    9000005    1    3    3    0    0  0.38263587780E+02  0.18390325283E+02 -0.22944501603E+03  0.23334164136E+03  0.10000000000E+01 0.  0.
    9000005    1    3    3    0    0  0.13269503538E+02  0.50786064973E+01  0.15361029714E+02  0.20948346044E+02  0.10000000000E+01 0.  0.
          4    1    1    2  501    0 -0.51533091318E+02 -0.23468931780E+02  0.18030633453E+02  0.59440448370E+02  0.12700000000E+01 0. -1.
<mgrwt>
<rscale>  1 0.13722771E+03</rscale>
<asrwt>0</asrwt>
<pdfrwt beam="1">  1       21 0.90518399E-02 0.13722771E+03</pdfrwt>
<pdfrwt beam="2">  1        4 0.39215192E-01 0.13722771E+03</pdfrwt>
<totfact> 0.24897192E+04</totfact>
</mgrwt>
</event>
<event>
 6    4  0.6277709E-003  0.1369866E+03  0.7818608E-02  0.1217442E+00
          4   -1    0    0  502    0 -0.00000000000E+00  0.00000000000E+00  0.13694782794E+03  0.13695371655E+03  0.12700000000E+01 0. -1.
         21   -1    0    0  501  502  0.00000000000E+00 -0.00000000000E+00 -0.10963926853E+03  0.10963926853E+03  0.00000000000E+00 0.  1.
         25    2    1    2    0    0 -0.23235470052E+02 -0.50917278682E+02  0.88943520624E+02  0.16332872095E+03  0.12503145560E+03 0.  0.
    9000005    1    3    3    0    0 -0.40172082556E+02 -0.19266978606E+02  0.11207672758E+03  0.12061179688E+03  0.10000000000E+01 0.  0.
    9000005    1    3    3    0    0  0.16936612504E+02 -0.31650300077E+02 -0.23133206957E+02  0.42716924072E+02  0.10000000000E+01 0.  0.
          4    1    1    2  501    0  0.23235470052E+02  0.50917278682E+02 -0.61634961211E+02  0.83264264126E+02  0.12700000000E+01 0.  1.
<mgrwt>
<rscale>  1 0.13698657E+03</rscale>
<asrwt>0</asrwt>
<pdfrwt beam="2">  1       21 0.16867580E-01 0.13698657E+03</pdfrwt>
<pdfrwt beam="1">  1        4 0.21069915E-01 0.13698657E+03</pdfrwt>
<totfact> 0.26466454E+04</totfact>
</mgrwt>
</event>
<event>
 6    4  0.6277709E-003  0.1268389E+03  0.7818608E-02  0.1232223E+00
         -4   -1    0    0    0  501 -0.00000000000E+00  0.00000000000E+00  0.20616077749E+03  0.20616468920E+03  0.12700000000E+01 0.  1.
         21   -1    0    0  501  502  0.00000000000E+00 -0.00000000000E+00 -0.34400914345E+02  0.34400914345E+02  0.00000000000E+00 0.  1.
         25    2    1    2    0    0  0.11391474181E+01  0.21477274243E+02  0.17760046748E+03  0.21824304714E+03  0.12500212241E+03 0.  0.
    9000005    1    3    3    0    0 -0.38848930680E+02 -0.37365768291E+02  0.58872038527E+02  0.79827044135E+02  0.10000000000E+01 0.  0.
    9000005    1    3    3    0    0  0.39988078099E+02  0.58843042534E+02  0.11872842896E+03  0.13841600300E+03  0.10000000000E+01 0.  0.
         -4    1    1    2    0  502 -0.11391474181E+01 -0.21477274243E+02 -0.58406043386E+01  0.22322556413E+02  0.12700000000E+01 0. -1.
<mgrwt>
<rscale>  1 0.12683888E+03</rscale>
<asrwt>0</asrwt>
<pdfrwt beam="2">  1       21 0.52924485E-02 0.12683888E+03</pdfrwt>
<pdfrwt beam="1">  1       -4 0.31719146E-01 0.12683888E+03</pdfrwt>
<totfact> 0.93012512E+04</totfact>
</mgrwt>
</event>
<event>
 6    4  0.6277709E-003  0.1275834E+03  0.7818608E-02  0.1231086E+00
         21   -1    0    0  501  502  0.00000000000E+00  0.00000000000E+00  0.14560954744E+03  0.14560954744E+03  0.00000000000E+00 0. -1.
         -4   -1    0    0    0  501 -0.00000000000E+00 -0.00000000000E+00 -0.86167313026E+02  0.86176671635E+02  0.12700000000E+01 0.  1.
         25    2    1    2    0    0 -0.15525121752E+02  0.20288662133E+02 -0.36331520059E+02  0.13265557718E+03  0.12499945436E+03 0.  0.
    9000005    1    3    3    0    0 -0.12374514904E+02  0.72447874501E+02 -0.10152454119E+02  0.74201721432E+02  0.10000000000E+01 0.  0.
    9000005    1    3    3    0    0 -0.31506068480E+01 -0.52159212368E+02 -0.26179065940E+02  0.58453855748E+02  0.10000000000E+01 0.  0.
         -4    1    1    2    0  502  0.15525121752E+02 -0.20288662133E+02  0.95773754478E+02  0.99130641899E+02  0.12700000000E+01 0. -1.
<mgrwt>
<rscale>  1 0.12758340E+03</rscale>
<asrwt>0</asrwt>
<pdfrwt beam="1">  1       21 0.22401469E-01 0.12758340E+03</pdfrwt>
<pdfrwt beam="2">  1       -4 0.13257656E-01 0.12758340E+03</pdfrwt>
<totfact> 0.35241238E+04</totfact>
</mgrwt>
</event>
<event>
 6    4  0.6277709E-003  0.1265931E+03  0.7818608E-02  0.1232600E+00
         21   -1    0    0  501  502  0.00000000000E+00  0.00000000000E+00  0.37320251929E+02  0.37320251929E+02  0.00000000000E+00 0.  1.
          4   -1    0    0  502    0 -0.00000000000E+00 -0.00000000000E+00 -0.15458485711E+03  0.15459007390E+03  0.12700000000E+01 0.  1.
         25    2    1    2    0    0  0.19493633318E+02 -0.45028632052E+01 -0.11619515598E+03  0.17183461566E+03  0.12500217338E+03 0.  0.
    9000005    1    3    3    0    0 -0.94664967603E+01  0.43842835635E+02 -0.24990728783E+01  0.44933886574E+02  0.10000000000E+01 0.  0.
    9000005    1    3    3    0    0  0.28960130078E+02 -0.48345698840E+02 -0.11369608310E+03  0.12690072909E+03  0.10000000000E+01 0.  0.
          4    1    1    2  501    0 -0.19493633318E+02  0.45028632052E+01 -0.10694491995E+01  0.20075710163E+02  0.12700000000E+01 0. -1.
<mgrwt>
<rscale>  1 0.12659313E+03</rscale>
<asrwt>0</asrwt>
<pdfrwt beam="1">  1       21 0.57415772E-02 0.12659313E+03</pdfrwt>
<pdfrwt beam="2">  1        4 0.23784349E-01 0.12659313E+03</pdfrwt>
<totfact> 0.13868459E+05</totfact>
</mgrwt>
</event>
<event>
 6    4  0.6277709E-003  0.1776726E+03  0.7818608E-02  0.1170075E+00
         21   -1    0    0  501  502  0.00000000000E+00  0.00000000000E+00  0.15679963974E+03  0.15679963974E+03  0.00000000000E+00 0.  1.
         -4   -1    0    0    0  501 -0.00000000000E+00 -0.00000000000E+00 -0.48621001179E+03  0.48621167044E+03  0.12700000000E+01 0. -1.
         25    2    1    2    0    0  0.11485063064E+03 -0.52429662322E+02 -0.44040976685E+03  0.47489820719E+03  0.12501202983E+03 0.  0.
    9000005    1    3    3    0    0  0.12255344627E+03 -0.81613537269E+02 -0.35604344891E+03  0.38528957184E+03  0.10000000000E+01 0.  0.
    9000005    1    3    3    0    0 -0.77028156285E+01  0.29183874947E+02 -0.84366317943E+02  0.89608635347E+02  0.10000000000E+01 0.  0.
         -4    1    1    2    0  502 -0.11485063064E+03  0.52429662322E+02  0.11099939480E+03  0.16811310298E+03  0.12700000000E+01 0.  1.
<mgrwt>
<rscale>  1 0.17767258E+03</rscale>
<asrwt>0</asrwt>
<pdfrwt beam="1">  1       21 0.24123022E-01 0.17767258E+03</pdfrwt>
<pdfrwt beam="2">  1       -4 0.74802062E-01 0.17767258E+03</pdfrwt>
<totfact> 0.11224933E+03</totfact>
</mgrwt>
</event>
<event>
 6    4  0.6277709E-003  0.1315804E+03  0.7818608E-02  0.1225129E+00
         -4   -1    0    0    0  501 -0.00000000000E+00  0.00000000000E+00  0.17615274942E+03  0.17615732749E+03  0.12700000000E+01 0.  1.
         21   -1    0    0  501  502  0.00000000000E+00 -0.00000000000E+00 -0.69067633878E+02  0.69067633878E+02  0.00000000000E+00 0.  1.
         25    2    1    2    0    0 -0.34926750612E+02  0.21646787739E+02  0.14031911445E+03  0.19236124118E+03  0.12499972760E+03 0.  0.
    9000005    1    3    3    0    0  0.24091404946E+02 -0.22555405937E+02  0.10600121333E+03  0.11102431877E+03  0.10000000000E+01 0.  0.
    9000005    1    3    3    0    0 -0.59018155558E+02  0.44202193676E+02  0.34317901119E+02  0.81336922418E+02  0.10000000000E+01 0.  0.
         -4    1    1    2    0  502  0.34926750612E+02 -0.21646787739E+02 -0.33233998912E+02  0.52863720181E+02  0.12700000000E+01 0. -1.
<mgrwt>
<rscale>  1 0.13158037E+03</rscale>
<asrwt>0</asrwt>
<pdfrwt beam="2">  1       21 0.10625790E-01 0.13158037E+03</pdfrwt>
<pdfrwt beam="1">  1       -4 0.27101673E-01 0.13158037E+03</pdfrwt>
<totfact> 0.37938241E+04</totfact>
</mgrwt>
</event>
<event>
 6    4  0.6277709E-003  0.1303729E+03  0.7818608E-02  0.1226903E+00
         21   -1    0    0  501  502  0.00000000000E+00  0.00000000000E+00  0.21286119731E+03  0.21286119731E+03  0.00000000000E+00 0.  1.
         -4   -1    0    0    0  501 -0.00000000000E+00 -0.00000000000E+00 -0.33624515926E+02  0.33648491367E+02  0.12700000000E+01 0.  1.
         25    2    1    2    0    0 -0.15120099532E+02 -0.33819122208E+02  0.12355639388E+03  0.17961979591E+03  0.12499895272E+03 0.  0.
    9000005    1    3    3    0    0 -0.97198513618E+01  0.92757456577E+01  0.13421374786E+03  0.13488826888E+03  0.10000000000E+01 0.  0.
    9000005    1    3    3    0    0 -0.54002481704E+01 -0.43094867865E+02 -0.10657353983E+02  0.44731527031E+02  0.10000000000E+01 0.  0.
         -4    1    1    2    0  502  0.15120099532E+02  0.33819122208E+02  0.55680287506E+02  0.66889892760E+02  0.12700000000E+01 0. -1.
<mgrwt>
<rscale>  1 0.13037288E+03</rscale>
<asrwt>0</asrwt>
<pdfrwt beam="1">  1       21 0.32747876E-01 0.13037288E+03</pdfrwt>
<pdfrwt beam="2">  1       -4 0.51751383E-02 0.13037288E+03</pdfrwt>
<totfact> 0.81748537E+04</totfact>
</mgrwt>
</event>
<event>
 6    4  0.6277709E-003  0.1269583E+03  0.7818608E-02  0.1232040E+00
         21   -1    0    0  501  502  0.00000000000E+00  0.00000000000E+00  0.11563033508E+04  0.11563033508E+04  0.00000000000E+00 0.  1.
         -4   -1    0    0    0  501 -0.00000000000E+00 -0.00000000000E+00 -0.12661316328E+02  0.12724850929E+02  0.12700000000E+01 0. -1.
         25    2    1    2    0    0 -0.74673421567E+00  0.22198096875E+02  0.30866891462E+03  0.33375876203E+03  0.12500039705E+03 0.  0.
    9000005    1    3    3    0    0 -0.58393726384E+01 -0.32302984094E+02  0.16970748067E+02  0.36967382165E+02  0.10000000000E+01 0.  0.
    9000005    1    3    3    0    0  0.50926384228E+01  0.54501080969E+02  0.29169816656E+03  0.29679137987E+03  0.10000000000E+01 0.  0.
         -4    1    1    2    0  502  0.74673421567E+00 -0.22198096875E+02  0.83497311985E+03  0.83526943969E+03  0.12700000000E+01 0.  1.
<mgrwt>
<rscale>  1 0.12695831E+03</rscale>
<asrwt>0</asrwt>
<pdfrwt beam="1">  1       21 0.17789274E+00 0.12695831E+03</pdfrwt>
<pdfrwt beam="2">  1       -4 0.19528367E-02 0.12695831E+03</pdfrwt>
<totfact> 0.82962743E+03</totfact>
</mgrwt>
</event>
<event>
 6    4  0.6277709E-003  0.1277202E+03  0.7818608E-02  0.1230878E+00
         -4   -1    0    0    0  501 -0.00000000000E+00  0.00000000000E+00  0.15673200506E+03  0.15673715039E+03  0.12700000000E+01 0.  1.
         21   -1    0    0  501  502  0.00000000000E+00 -0.00000000000E+00 -0.42914801080E+02  0.42914801080E+02  0.00000000000E+00 0. -1.
         25    2    1    2    0    0 -0.15624798793E+02 -0.21049437433E+02  0.11700612605E+03  0.17321343264E+03  0.12500098624E+03 0.  0.
    9000005    1    3    3    0    0 -0.57811337483E+02  0.12336767935E+02  0.20234702115E+02  0.62488316942E+02  0.10000000000E+01 0.  0.
    9000005    1    3    3    0    0  0.42186538690E+02 -0.33386205368E+02  0.96771423940E+02  0.11072511570E+03  0.10000000000E+01 0.  0.
         -4    1    1    2    0  502  0.15624798793E+02  0.21049437433E+02 -0.31889220713E+01  0.26438518823E+02  0.12700000000E+01 0. -1.
<mgrwt>
<rscale>  1 0.12772024E+03</rscale>
<asrwt>0</asrwt>
<pdfrwt beam="2">  1       21 0.66022772E-02 0.12772024E+03</pdfrwt>
<pdfrwt beam="1">  1       -4 0.24114457E-01 0.12772024E+03</pdfrwt>
<totfact> 0.10681953E+05</totfact>
</mgrwt>
</event>
<event>
 6    4  0.6277709E-003  0.1342493E+03  0.7818608E-02  0.1221283E+00
         21   -1    0    0  501  502  0.00000000000E+00  0.00000000000E+00  0.39141954412E+02  0.39141954412E+02  0.00000000000E+00 0.  1.
         -4   -1    0    0    0  501 -0.00000000000E+00 -0.00000000000E+00 -0.22251808061E+03  0.22252170478E+03  0.12700000000E+01 0. -1.
         25    2    1    2    0    0 -0.42949264439E+02  0.23534558931E+02 -0.15496952737E+03  0.20503272651E+03  0.12499739896E+03 0.  0.
    9000005    1    3    3    0    0  0.13595130591E+01  0.52703999337E+02 -0.14045243364E+03  0.15002481774E+03  0.10000000000E+01 0.  0.
    9000005    1    3    3    0    0 -0.44308777498E+02 -0.29169440405E+02 -0.14517093726E+02  0.55007908769E+02  0.10000000000E+01 0.  0.
         -4    1    1    2    0  502  0.42949264439E+02 -0.23534558931E+02 -0.28406598836E+02  0.56630932690E+02  0.12700000000E+01 0.  1.
<mgrwt>
<rscale>  1 0.13424926E+03</rscale>
<asrwt>0</asrwt>
<pdfrwt beam="1">  1       21 0.60218391E-02 0.13424926E+03</pdfrwt>
<pdfrwt beam="2">  1       -4 0.34235415E-01 0.13424926E+03</pdfrwt>
<totfact> 0.65131177E+04</totfact>
</mgrwt>
</event>
<event>
 6    4  0.6277709E-003  0.1268388E+03  0.7818608E-02  0.1232223E+00
         21   -1    0    0  501  502  0.00000000000E+00  0.00000000000E+00  0.34316438974E+03  0.34316438974E+03  0.00000000000E+00 0. -1.
          4   -1    0    0  502    0 -0.00000000000E+00 -0.00000000000E+00 -0.24380708550E+02  0.24413763524E+02  0.12700000000E+01 0.  1.
         25    2    1    2    0    0  0.70921399473E+01  0.20341352083E+02  0.14578640863E+03  0.19324015319E+03  0.12499604319E+03 0.  0.
    9000005    1    3    3    0    0  0.10580643028E+02  0.52724958915E+02  0.11427359078E+02  0.54985960344E+02  0.10000000000E+01 0.  0.
    9000005    1    3    3    0    0 -0.34885030804E+01 -0.32383606832E+02  0.13435904955E+03  0.13825419285E+03  0.10000000000E+01 0.  0.
          4    1    1    2  501    0 -0.70921399473E+01 -0.20341352083E+02  0.17299727256E+03  0.17433800007E+03  0.12700000000E+01 0. -1.
<mgrwt>
<rscale>  1 0.12683879E+03</rscale>
<asrwt>0</asrwt>
<pdfrwt beam="1">  1       21 0.52794518E-01 0.12683879E+03</pdfrwt>
<pdfrwt beam="2">  1        4 0.37536020E-02 0.12683879E+03</pdfrwt>
<totfact> 0.52051120E+04</totfact>
</mgrwt>
</event>
<event>
 6    4  0.6277709E-003  0.1267489E+03  0.7818608E-02  0.1232361E+00
         21   -1    0    0  501  502  0.00000000000E+00  0.00000000000E+00  0.27026657685E+02  0.27026657685E+02  0.00000000000E+00 0.  1.
         -4   -1    0    0    0  501 -0.00000000000E+00 -0.00000000000E+00 -0.27003924063E+03  0.27004222703E+03  0.12700000000E+01 0.  1.
         25    2    1    2    0    0 -0.16930126180E+02  0.12392598280E+02 -0.24511268621E+03  0.27594475164E+03  0.12500028540E+03 0.  0.
    9000005    1    3    3    0    0 -0.20930630857E+02 -0.56312565405E+01 -0.25435160780E+03  0.25527542527E+03  0.10000000000E+01 0.  0.
    9000005    1    3    3    0    0  0.40005046769E+01  0.18023854820E+02  0.92389215876E+01  0.20669326364E+02  0.10000000000E+01 0.  0.
         -4    1    1    2    0  502  0.16930126180E+02 -0.12392598280E+02  0.21001032660E+01  0.21124133079E+02  0.12700000000E+01 0. -1.
<mgrwt>
<rscale>  1 0.12674887E+03</rscale>
<asrwt>0</asrwt>
<pdfrwt beam="1">  1       21 0.41579472E-02 0.12674887E+03</pdfrwt>
<pdfrwt beam="2">  1       -4 0.41547024E-01 0.12674887E+03</pdfrwt>
<totfact> 0.82549521E+04</totfact>
</mgrwt>
</event>
<event>
 6    4  0.6277709E-003  0.2234565E+03  0.7818608E-02  0.1131332E+00
         -4   -1    0    0    0  501 -0.00000000000E+00  0.00000000000E+00  0.11156617791E+04  0.11156625020E+04  0.12700000000E+01 0. -1.
         21   -1    0    0  501  502  0.00000000000E+00 -0.00000000000E+00 -0.64867899436E+02  0.64867899436E+02  0.00000000000E+00 0.  1.
         25    2    1    2    0    0  0.13987467114E+03  0.12142134094E+03  0.93669488532E+03  0.96297981171E+03  0.12499897563E+03 0.  0.
    9000005    1    3    3    0    0  0.11899339875E+03  0.93866414336E+02  0.89953499009E+03  0.91221408182E+03  0.10000000000E+01 0.  0.
    9000005    1    3    3    0    0  0.20881272391E+02  0.27554926605E+02  0.37159895232E+02  0.50765729883E+02  0.10000000000E+01 0.  0.
         -4    1    1    2    0  502 -0.13987467114E+03 -0.12142134094E+03  0.11409899437E+03  0.21755058970E+03  0.12700000000E+01 0.  1.
<mgrwt>
<rscale>  1 0.22345650E+03</rscale>
<asrwt>0</asrwt>
<pdfrwt beam="2">  1       21 0.99796776E-02 0.22345650E+03</pdfrwt>
<pdfrwt beam="1">  1       -4 0.17164127E+00 0.22345650E+03</pdfrwt>
<totfact> 0.76184954E+02</totfact>
</mgrwt>
</event>
<event>
 6    4  0.6277709E-003  0.1539324E+03  0.7818608E-02  0.1195722E+00
         -4   -1    0    0    0  501 -0.00000000000E+00  0.00000000000E+00  0.10780721405E+03  0.10781469427E+03  0.12700000000E+01 0. -1.
         21   -1    0    0  501  502  0.00000000000E+00 -0.00000000000E+00 -0.16109052572E+03  0.16109052572E+03  0.00000000000E+00 0.  1.
         25    2    1    2    0    0 -0.50549305074E+02 -0.74263272370E+02  0.16956473044E+02  0.15486353409E+03  0.12499970539E+03 0.  0.
    9000005    1    3    3    0    0 -0.58881975744E+02 -0.10564999843E+03  0.82910653223E+01  0.12123840563E+03  0.10000000000E+01 0.  0.
    9000005    1    3    3    0    0  0.83326706703E+01  0.31386726058E+02  0.86654077215E+01  0.33625128463E+02  0.10000000000E+01 0.  0.
         -4    1    1    2    0  502  0.50549305074E+02  0.74263272370E+02 -0.70239784717E+02  0.11404168590E+03  0.12700000000E+01 0.  1.
<mgrwt>
<rscale>  1 0.15393243E+03</rscale>
<asrwt>0</asrwt>
<pdfrwt beam="2">  1       21 0.24783158E-01 0.15393243E+03</pdfrwt>
<pdfrwt beam="1">  1       -4 0.16586686E-01 0.15393243E+03</pdfrwt>
<totfact> 0.20080810E+04</totfact>
</mgrwt>
</event>
<event>
 6    4  0.6277709E-003  0.1391372E+03  0.7818608E-02  0.1214495E+00
          4   -1    0    0  502    0 -0.00000000000E+00  0.00000000000E+00  0.60770941547E+02  0.60784210421E+02  0.12700000000E+01 0. -1.
         21   -1    0    0  501  502  0.00000000000E+00 -0.00000000000E+00 -0.15260200805E+04  0.15260200805E+04  0.00000000000E+00 0.  1.
         25    2    1    2    0    0 -0.38785102160E+01  0.60987120326E+02 -0.20355360220E+02  0.14061823221E+03  0.12499869941E+03 0.  0.
    9000005    1    3    3    0    0 -0.90124194110E+01  0.58373581976E+02  0.45461865721E+02  0.74541800429E+02  0.10000000000E+01 0.  0.
    9000005    1    3    3    0    0  0.51339091951E+01  0.26135383502E+01 -0.65817225941E+02  0.66076431781E+02  0.10000000000E+01 0.  0.
          4    1    1    2  501    0  0.38785102160E+01 -0.60987120326E+02 -0.14448937787E+04  0.14461860587E+04  0.12700000000E+01 0.  1.
<mgrwt>
<rscale>  1 0.13913715E+03</rscale>
<asrwt>0</asrwt>
<pdfrwt beam="2">  1       21 0.23477230E+00 0.13913715E+03</pdfrwt>
<pdfrwt beam="1">  1        4 0.93504378E-02 0.13913715E+03</pdfrwt>
<totfact> 0.30006541E+02</totfact>
</mgrwt>
</event>
<event>
 6    4  0.6277709E-003  0.1443463E+03  0.7818608E-02  0.1207597E+00
         -4   -1    0    0    0  501 -0.00000000000E+00  0.00000000000E+00  0.35343659412E+03  0.35343887585E+03  0.12700000000E+01 0.  1.
         21   -1    0    0  501  502  0.00000000000E+00 -0.00000000000E+00 -0.65989994961E+02  0.65989994961E+02  0.00000000000E+00 0. -1.
         25    2    1    2    0    0 -0.36002725134E+00  0.72167130311E+02  0.31152293393E+03  0.34334006012E+03  0.12501053637E+03 0.  0.
    9000005    1    3    3    0    0 -0.57279981579E+02  0.69265847869E+01  0.12001012120E+03  0.13316306941E+03  0.10000000000E+01 0.  0.
    9000005    1    3    3    0    0  0.56919954328E+02  0.65240545524E+02  0.19151281273E+03  0.21017699070E+03  0.10000000000E+01 0.  0.
         -4    1    1    2    0  502  0.36002725134E+00 -0.72167130311E+02 -0.24076334769E+02  0.76088810694E+02  0.12700000000E+01 0. -1.
<mgrwt>
<rscale>  1 0.14434631E+03</rscale>
<asrwt>0</asrwt>
<pdfrwt beam="2">  1       21 0.10152307E-01 0.14434631E+03</pdfrwt>
<pdfrwt beam="1">  1       -4 0.54375975E-01 0.14434631E+03</pdfrwt>
<totfact> 0.10599327E+04</totfact>
</mgrwt>
</event>
<event>
 6    4  0.6277709E-003  0.1478638E+03  0.7818608E-02  0.1203123E+00
         -4   -1    0    0    0  501 -0.00000000000E+00  0.00000000000E+00  0.99588269138E+02  0.99596366650E+02  0.12700000000E+01 0.  1.
         21   -1    0    0  501  502  0.00000000000E+00 -0.00000000000E+00 -0.13786306427E+03  0.13786306427E+03  0.00000000000E+00 0.  1.
         25    2    1    2    0    0  0.77588576713E+02 -0.14783840632E+02 -0.53054771599E+02  0.15709395460E+03  0.12500061041E+03 0.  0.
    9000005    1    3    3    0    0  0.25367773075E+01 -0.42485123293E+02  0.21535949074E+02  0.47709726921E+02  0.10000000000E+01 0.  0.
    9000005    1    3    3    0    0  0.75051799405E+02  0.27701282661E+02 -0.74590720673E+02  0.10938422768E+03  0.10000000000E+01 0.  0.
         -4    1    1    2    0  502 -0.77588576713E+02  0.14783840632E+02  0.14779976462E+02  0.80365476322E+02  0.12700000000E+01 0. -1.
<mgrwt>
<rscale>  1 0.14786379E+03</rscale>
<asrwt>0</asrwt>
<pdfrwt beam="2">  1       21 0.21209702E-01 0.14786379E+03</pdfrwt>
<pdfrwt beam="1">  1       -4 0.15322345E-01 0.14786379E+03</pdfrwt>
<totfact> 0.30825883E+04</totfact>
</mgrwt>
</event>
<event>
 6    4  0.6277709E-003  0.1393479E+03  0.7818608E-02  0.1214209E+00
         21   -1    0    0  501  502  0.00000000000E+00  0.00000000000E+00  0.69976936009E+03  0.69976936009E+03  0.00000000000E+00 0. -1.
          4   -1    0    0  502    0 -0.00000000000E+00 -0.00000000000E+00 -0.21862901504E+02  0.21899757126E+02  0.12700000000E+01 0.  1.
         25    2    1    2    0    0  0.45493883619E+02 -0.41503923736E+02  0.22544554031E+03  0.26503494789E+03  0.12500225127E+03 0.  0.
    9000005    1    3    3    0    0 -0.21016344703E+02 -0.25477388507E+02  0.17974064777E+03  0.18275252263E+03  0.10000000000E+01 0.  0.
    9000005    1    3    3    0    0  0.66510228322E+02 -0.16026535229E+02  0.45704892546E+02  0.82282425253E+02  0.10000000000E+01 0.  0.
          4    1    1    2  501    0 -0.45493883619E+02  0.41503923736E+02  0.45246091827E+03  0.45663416933E+03  0.12700000000E+01 0. -1.
<mgrwt>
<rscale>  1 0.13934788E+03</rscale>
<asrwt>0</asrwt>
<pdfrwt beam="1">  1       21 0.10765681E+00 0.13934788E+03</pdfrwt>
<pdfrwt beam="2">  1        4 0.33664475E-02 0.13934788E+03</pdfrwt>
<totfact> 0.12823847E+04</totfact>
</mgrwt>
</event>
<event>
 6    4  0.6277709E-003  0.1317525E+03  0.7818608E-02  0.1224878E+00
         -4   -1    0    0    0  501 -0.00000000000E+00  0.00000000000E+00  0.30010291600E+03  0.30010560324E+03  0.12700000000E+01 0. -1.
         21   -1    0    0  501  502  0.00000000000E+00 -0.00000000000E+00 -0.25924184896E+02  0.25924184896E+02  0.00000000000E+00 0. -1.
         25    2    1    2    0    0 -0.81234245007E+01  0.40836479410E+02  0.23166555694E+03  0.26651011950E+03  0.12500042179E+03 0.  0.
    9000005    1    3    3    0    0  0.48279074249E+02  0.55312518797E+02  0.12435057513E+03  0.14441055806E+03  0.10000000000E+01 0.  0.
    9000005    1    3    3    0    0 -0.56402498750E+02 -0.14476039387E+02  0.10731498181E+03  0.12209956143E+03  0.10000000000E+01 0.  0.
         -4    1    1    2    0  502  0.81234245007E+01 -0.40836479410E+02  0.42513174170E+02  0.59519668633E+02  0.12700000000E+01 0.  1.
<mgrwt>
<rscale>  1 0.13175247E+03</rscale>
<asrwt>0</asrwt>
<pdfrwt beam="2">  1       21 0.39883364E-02 0.13175247E+03</pdfrwt>
<pdfrwt beam="1">  1       -4 0.46172276E-01 0.13175247E+03</pdfrwt>
<totfact> 0.72082795E+04</totfact>
</mgrwt>
</event>
<event>
 6    4  0.6277709E-003  0.1272328E+03  0.7818608E-02  0.1231620E+00
         21   -1    0    0  501  502  0.00000000000E+00  0.00000000000E+00  0.28944429025E+02  0.28944429025E+02  0.00000000000E+00 0. -1.
         -4   -1    0    0    0  501 -0.00000000000E+00 -0.00000000000E+00 -0.21693662354E+03  0.21694034095E+03  0.12700000000E+01 0. -1.
         25    2    1    2    0    0  0.94104991662E+01 -0.21783168474E+02 -0.12416813574E+03  0.17778053147E+03  0.12500051006E+03 0.  0.
    9000005    1    3    3    0    0 -0.34608683205E+02  0.78955496809E+01  0.70686136014E+01  0.36208644771E+02  0.10000000000E+01 0.  0.
    9000005    1    3    3    0    0  0.44019182371E+02 -0.29678718155E+02 -0.13123674934E+03  0.14157188670E+03  0.10000000000E+01 0.  0.
         -4    1    1    2    0  502 -0.94104991662E+01  0.21783168474E+02 -0.63824058781E+02  0.68104238507E+02  0.12700000000E+01 0.  1.
<mgrwt>
<rscale>  1 0.12723282E+03</rscale>
<asrwt>0</asrwt>
<pdfrwt beam="1">  1       21 0.44529892E-02 0.12723282E+03</pdfrwt>
<pdfrwt beam="2">  1       -4 0.33377294E-01 0.12723282E+03</pdfrwt>
<totfact> 0.11278857E+05</totfact>
</mgrwt>
</event>
<event>
 6    4  0.6277709E-003  0.1301281E+03  0.7818608E-02  0.1227266E+00
          4   -1    0    0  502    0 -0.00000000000E+00  0.00000000000E+00  0.32863000439E+03  0.32863245836E+03  0.12700000000E+01 0. -1.
         21   -1    0    0  501  502  0.00000000000E+00 -0.00000000000E+00 -0.22325664406E+02  0.22325664406E+02  0.00000000000E+00 0. -1.
         25    2    1    2    0    0 -0.34779399385E+02 -0.99791515103E+01  0.26981296591E+03  0.29955361548E+03  0.12499656752E+03 0.  0.
    9000005    1    3    3    0    0 -0.74970648276E+02  0.22000540191E+02  0.14825531786E+03  0.16758657806E+03  0.10000000000E+01 0.  0.
    9000005    1    3    3    0    0  0.40191248891E+02 -0.31979691701E+02  0.12155764804E+03  0.13196703742E+03  0.10000000000E+01 0.  0.
          4    1    1    2  501    0  0.34779399385E+02  0.99791515103E+01  0.36491374083E+02  0.51404507282E+02  0.12700000000E+01 0.  1.
<mgrwt>
<rscale>  1 0.13012814E+03</rscale>
<asrwt>0</asrwt>
<pdfrwt beam="2">  1       21 0.34347178E-02 0.13012814E+03</pdfrwt>
<pdfrwt beam="1">  1        4 0.50561426E-01 0.13012814E+03</pdfrwt>
<totfact> 0.76680936E+04</totfact>
</mgrwt>
</event>
<event>
 6    4  0.6277709E-003  0.1285874E+03  0.7818608E-02  0.1229567E+00
         -4   -1    0    0    0  501 -0.00000000000E+00  0.00000000000E+00  0.16506219105E+02  0.16555004354E+02  0.12700000000E+01 0.  1.
         21   -1    0    0  501  502  0.00000000000E+00 -0.00000000000E+00 -0.85735030164E+03  0.85735030164E+03  0.00000000000E+00 0. -1.
         25    2    1    2    0    0  0.24609545830E+02  0.17547028873E+02 -0.23980189630E+03  0.27210230625E+03  0.12498474959E+03 0.  0.
    9000005    1    3    3    0    0  0.51050544192E+02  0.52688041162E+02 -0.19903526878E+03  0.21212785287E+03  0.10000000000E+01 0.  0.
    9000005    1    3    3    0    0 -0.26440998362E+02 -0.35141012289E+02 -0.40766627520E+02  0.59974453382E+02  0.10000000000E+01 0.  0.
         -4    1    1    2    0  502 -0.24609545830E+02 -0.17547028873E+02 -0.60104218623E+03  0.60180299974E+03  0.12700000000E+01 0. -1.
<mgrwt>
<rscale>  1 0.12858739E+03</rscale>
<asrwt>0</asrwt>
<pdfrwt beam="2">  1       21 0.13190007E+00 0.12858739E+03</pdfrwt>
<pdfrwt beam="1">  1       -4 0.25432429E-02 0.12858739E+03</pdfrwt>
<totfact> 0.12061665E+04</totfact>
</mgrwt>
</event>
<event>
 6    4  0.6277709E-003  0.1335619E+03  0.7818608E-02  0.1222264E+00
         -4   -1    0    0    0  501 -0.00000000000E+00  0.00000000000E+00  0.27431442124E+03  0.27431736110E+03  0.12700000000E+01 0.  1.
         21   -1    0    0  501  502  0.00000000000E+00 -0.00000000000E+00 -0.30293181857E+02  0.30293181857E+02  0.00000000000E+00 0.  1.
         25    2    1    2    0    0  0.59038394687E+01  0.46689985963E+02  0.19751683784E+03  0.23843590754E+03  0.12499588258E+03 0.  0.
    9000005    1    3    3    0    0 -0.33639637788E+02  0.58804056871E+02  0.18208480693E+03  0.19428180371E+03  0.10000000000E+01 0.  0.
    9000005    1    3    3    0    0  0.39543477256E+02 -0.12114070907E+02  0.15432030910E+02  0.44154103835E+02  0.10000000000E+01 0.  0.
         -4    1    1    2    0  502 -0.59038394687E+01 -0.46689985963E+02  0.46504401539E+02  0.66174635414E+02  0.12700000000E+01 0. -1.
<mgrwt>
<rscale>  1 0.13356190E+03</rscale>
<asrwt>0</asrwt>
<pdfrwt beam="2">  1       21 0.46604897E-02 0.13356190E+03</pdfrwt>
<pdfrwt beam="1">  1       -4 0.42204491E-01 0.13356190E+03</pdfrwt>
<totfact> 0.66633232E+04</totfact>
</mgrwt>
</event>
<event>
 6    4  0.6277709E-003  0.1289234E+03  0.7818608E-02  0.1229062E+00
          4   -1    0    0  502    0 -0.00000000000E+00  0.00000000000E+00  0.50814613235E+02  0.50830481192E+02  0.12700000000E+01 0.  1.
         21   -1    0    0  501  502  0.00000000000E+00 -0.00000000000E+00 -0.37106232428E+03  0.37106232428E+03  0.00000000000E+00 0. -1.
         25    2    1    2    0    0  0.53396981252E+01  0.31095109153E+02 -0.33221378504E+02  0.13313486764E+03  0.12500325917E+03 0.  0.
    9000005    1    3    3    0    0 -0.29380614853E+02 -0.20258365761E+02  0.28477398594E+02  0.45668196189E+02  0.10000000000E+01 0.  0.
    9000005    1    3    3    0    0  0.34720312978E+02  0.51353474914E+02 -0.61698777098E+02  0.87466671450E+02  0.10000000000E+01 0.  0.
          4    1    1    2  501    0 -0.53396981252E+01 -0.31095109153E+02 -0.28702633254E+03  0.28875793783E+03  0.12700000000E+01 0. -1.
<mgrwt>
<rscale>  1 0.12892336E+03</rscale>
<asrwt>0</asrwt>
<pdfrwt beam="2">  1       21 0.57086511E-01 0.12892336E+03</pdfrwt>
<pdfrwt beam="1">  1        4 0.78190206E-02 0.12892336E+03</pdfrwt>
<totfact> 0.13539916E+04</totfact>
</mgrwt>
</event>
<event>
 6    4  0.6277709E-003  0.1273928E+03  0.7818608E-02  0.1231376E+00
         21   -1    0    0  501  502  0.00000000000E+00  0.00000000000E+00  0.11954272351E+02  0.11954272351E+02  0.00000000000E+00 0.  1.
         -4   -1    0    0    0  501 -0.00000000000E+00 -0.00000000000E+00 -0.96505679732E+03  0.96505763297E+03  0.12700000000E+01 0. -1.
         25    2    1    2    0    0  0.17226628436E+02  0.17510149047E+02 -0.94102784089E+03  0.94961166914E+03  0.12500225114E+03 0.  0.
    9000005    1    3    3    0    0  0.24334121972E+02 -0.43259215257E+02 -0.20029123294E+03  0.20635185289E+03  0.10000000000E+01 0.  0.
    9000005    1    3    3    0    0 -0.71074935357E+01  0.60769364303E+02 -0.74073660795E+03  0.74325981626E+03  0.10000000000E+01 0.  0.
         -4    1    1    2    0  502 -0.17226628436E+02 -0.17510149047E+02 -0.12074684073E+02  0.27400236174E+02  0.12700000000E+01 0.  1.
<mgrwt>
<rscale>  1 0.12739280E+03</rscale>
<asrwt>0</asrwt>
<pdfrwt beam="1">  1       21 0.18391186E-02 0.12739280E+03</pdfrwt>
<pdfrwt beam="2">  1       -4 0.14847555E+00 0.12739280E+03</pdfrwt>
<totfact> 0.18618997E+04</totfact>
</mgrwt>
</event>
<event>
 6    4  0.6277709E-003  0.1425303E+03  0.7818608E-02  0.1209964E+00
          4   -1    0    0  502    0 -0.00000000000E+00  0.00000000000E+00  0.15828342283E+03  0.15828851772E+03  0.12700000000E+01 0. -1.
         21   -1    0    0  501  502  0.00000000000E+00 -0.00000000000E+00 -0.18084973931E+03  0.18084973931E+03  0.00000000000E+00 0.  1.
         25    2    1    2    0    0  0.62781274024E+02 -0.27159451887E+02  0.11654524175E+03  0.18411321799E+03  0.12504303047E+03 0.  0.
    9000005    1    3    3    0    0 -0.26568546968E+02 -0.26113064907E+02  0.18335843576E-01  0.37266341154E+02  0.10000000000E+01 0.  0.
    9000005    1    3    3    0    0  0.89349820991E+02 -0.10463869796E+01  0.11652690591E+03  0.14684687684E+03  0.10000000000E+01 0.  0.
          4    1    1    2  501    0 -0.62781274024E+02  0.27159451887E+02 -0.13911155823E+03  0.15502503904E+03  0.12700000000E+01 0.  1.
<mgrwt>
<rscale>  1 0.14253029E+03</rscale>
<asrwt>0</asrwt>
<pdfrwt beam="2">  1       21 0.27823037E-01 0.14253029E+03</pdfrwt>
<pdfrwt beam="1">  1        4 0.24352031E-01 0.14253029E+03</pdfrwt>
<totfact> 0.80061880E+03</totfact>
</mgrwt>
</event>
<event>
 6    4  0.6277709E-003  0.1372983E+03  0.7818608E-02  0.1217011E+00
         -4   -1    0    0    0  501 -0.00000000000E+00  0.00000000000E+00  0.50773999014E+03  0.50774157845E+03  0.12700000000E+01 0.  1.
         21   -1    0    0  501  502  0.00000000000E+00 -0.00000000000E+00 -0.25352097581E+02  0.25352097581E+02  0.00000000000E+00 0.  1.
         25    2    1    2    0    0 -0.10926159928E+02 -0.55737163445E+02  0.44345038168E+03  0.46421875307E+03  0.12499918931E+03 0.  0.
    9000005    1    3    3    0    0 -0.39677714847E+02 -0.75527142202E+02  0.18877856278E+03  0.20716422478E+03  0.10000000000E+01 0.  0.
    9000005    1    3    3    0    0  0.28751554918E+02  0.19789978757E+02  0.25467181890E+03  0.25705452828E+03  0.10000000000E+01 0.  0.
         -4    1    1    2    0  502  0.10926159928E+02  0.55737163445E+02  0.38937510874E+02  0.68874922960E+02  0.12700000000E+01 0. -1.
<mgrwt>
<rscale>  1 0.13729825E+03</rscale>
<asrwt>0</asrwt>
<pdfrwt beam="2">  1       21 0.39003231E-02 0.13729825E+03</pdfrwt>
<pdfrwt beam="1">  1       -4 0.78116406E-01 0.13729825E+03</pdfrwt>
<totfact> 0.24896710E+04</totfact>
</mgrwt>
</event>
<event>
 6    4  0.6277709E-003  0.1617901E+03  0.7818608E-02  0.1186690E+00
         -4   -1    0    0    0  501 -0.00000000000E+00  0.00000000000E+00  0.21204813228E+03  0.21205193539E+03  0.12700000000E+01 0. -1.
         21   -1    0    0  501  502  0.00000000000E+00 -0.00000000000E+00 -0.14115710933E+03  0.14115710933E+03  0.00000000000E+00 0.  1.
         25    2    1    2    0    0  0.25178012991E+02  0.99590193813E+02  0.15225063352E+03  0.22216272400E+03  0.12499552587E+03 0.  0.
    9000005    1    3    3    0    0  0.47635183331E+02  0.93783590985E+02  0.48479978947E+02  0.11582651246E+03  0.10000000000E+01 0.  0.
    9000005    1    3    3    0    0 -0.22457170340E+02  0.58066028279E+01  0.10377065457E+03  0.10633621155E+03  0.10000000000E+01 0.  0.
         -4    1    1    2    0  502 -0.25178012991E+02 -0.99590193813E+02 -0.81359610570E+02  0.13104632072E+03  0.12700000000E+01 0.  1.
<mgrwt>
<rscale>  1 0.16179005E+03</rscale>
<asrwt>0</asrwt>
<pdfrwt beam="2">  1       21 0.21716478E-01 0.16179005E+03</pdfrwt>
<pdfrwt beam="1">  1       -4 0.32623522E-01 0.16179005E+03</pdfrwt>
<totfact> 0.74569551E+03</totfact>
</mgrwt>
</event>
<event>
 6    4  0.6277709E-003  0.1371221E+03  0.7818608E-02  0.1217255E+00
         21   -1    0    0  501  502  0.00000000000E+00  0.00000000000E+00  0.27407985741E+03  0.27407985741E+03  0.00000000000E+00 0. -1.
         -4   -1    0    0    0  501 -0.00000000000E+00 -0.00000000000E+00 -0.11899105892E+03  0.11899783613E+03  0.12700000000E+01 0.  1.
         25    2    1    2    0    0  0.56079253706E+02  0.57314123539E+01 -0.74922635150E+02  0.15625581050E+03  0.12499898109E+03 0.  0.
    9000005    1    3    3    0    0 -0.32308068160E+02  0.30921383330E+02 -0.18496782834E+02  0.48405311594E+02  0.10000000000E+01 0.  0.
    9000005    1    3    3    0    0  0.88387321866E+02 -0.25189970976E+02 -0.56425852316E+02  0.10785049890E+03  0.10000000000E+01 0.  0.
         -4    1    1    2    0  502 -0.56079253706E+02 -0.57314123539E+01  0.23001143364E+03  0.23682188304E+03  0.12700000000E+01 0. -1.
<mgrwt>
<rscale>  1 0.13712212E+03</rscale>
<asrwt>0</asrwt>
<pdfrwt beam="1">  1       21 0.42166132E-01 0.13712212E+03</pdfrwt>
<pdfrwt beam="2">  1       -4 0.18307064E-01 0.13712212E+03</pdfrwt>
<totfact> 0.59159244E+03</totfact>
</mgrwt>
</event>
<event>
 6    4  0.6277709E-003  0.1292575E+03  0.7818608E-02  0.1228562E+00
          4   -1    0    0  502    0 -0.00000000000E+00  0.00000000000E+00  0.15139592335E+03  0.15140125002E+03  0.12700000000E+01 0. -1.
         21   -1    0    0  501  502  0.00000000000E+00 -0.00000000000E+00 -0.57352064133E+02  0.57352064133E+02  0.00000000000E+00 0. -1.
         25    2    1    2    0    0 -0.31766378204E+02 -0.85000701806E+01  0.11220600717E+03  0.17116567661E+03  0.12500458723E+03 0.  0.
    9000005    1    3    3    0    0  0.14910804495E+02 -0.53777398804E+02  0.22079957666E+02  0.60023872278E+02  0.10000000000E+01 0.  0.
    9000005    1    3    3    0    0 -0.46677182699E+02  0.45277328623E+02  0.90126049502E+02  0.11114180433E+03  0.10000000000E+01 0.  0.
          4    1    1    2  501    0  0.31766378204E+02  0.85000701806E+01 -0.18162147953E+02  0.37587637536E+02  0.12700000000E+01 0.  1.
<mgrwt>
<rscale>  1 0.12925750E+03</rscale>
<asrwt>0</asrwt>
<pdfrwt beam="2">  1       21 0.88233945E-02 0.12925750E+03</pdfrwt>
<pdfrwt beam="1">  1        4 0.23293172E-01 0.12925750E+03</pdfrwt>
<totfact> 0.69252587E+04</totfact>
</mgrwt>
</event>
<event>
 6    4  0.6277709E-003  0.1312545E+03  0.7818608E-02  0.1225606E+00
         21   -1    0    0  501  502  0.00000000000E+00  0.00000000000E+00  0.33320962375E+02  0.33320962375E+02  0.00000000000E+00 0. -1.
          4   -1    0    0  502    0 -0.00000000000E+00 -0.00000000000E+00 -0.87855279461E+03  0.87855371254E+03  0.12700000000E+01 0.  1.
         25    2    1    2    0    0  0.14759247497E+02  0.37215684989E+02 -0.85941646206E+03  0.86938162584E+03  0.12499965395E+03 0.  0.
    9000005    1    3    3    0    0  0.96001977007E+01  0.83286205445E+02 -0.60380082312E+03  0.60959428296E+03  0.10000000000E+01 0.  0.
    9000005    1    3    3    0    0  0.51590497962E+01 -0.46070520456E+02 -0.25561563895E+03  0.25978734288E+03  0.10000000000E+01 0.  0.
          4    1    1    2  501    0 -0.14759247497E+02 -0.37215684989E+02  0.14184629832E+02  0.42493049071E+02  0.12700000000E+01 0. -1.
<mgrwt>
<rscale>  1 0.13125455E+03</rscale>
<asrwt>0</asrwt>
<pdfrwt beam="1">  1       21 0.51263023E-02 0.13125455E+03</pdfrwt>
<pdfrwt beam="2">  1        4 0.13516389E+00 0.13125455E+03</pdfrwt>
<totfact> 0.43842456E+03</totfact>
</mgrwt>
</event>
<event>
 6    4  0.6277709E-003  0.1318076E+03  0.7818608E-02  0.1224798E+00
         21   -1    0    0  501  502  0.00000000000E+00  0.00000000000E+00  0.49479128359E+02  0.49479128359E+02  0.00000000000E+00 0. -1.
          4   -1    0    0  502    0 -0.00000000000E+00 -0.00000000000E+00 -0.23188515184E+03  0.23188862961E+03  0.12700000000E+01 0.  1.
         25    2    1    2    0    0  0.32589560229E+02 -0.26203823191E+02 -0.19702627673E+03  0.23704976511E+03  0.12499807052E+03 0.  0.
    9000005    1    3    3    0    0 -0.20697588238E+02 -0.53741326772E+01  0.90017246569E+01  0.23222887584E+02  0.10000000000E+01 0.  0.
    9000005    1    3    3    0    0  0.53287148468E+02 -0.20829690513E+02 -0.20602800139E+03  0.21382687753E+03  0.10000000000E+01 0.  0.
          4    1    1    2  501    0 -0.32589560229E+02  0.26203823191E+02  0.14620253250E+02  0.44317992857E+02  0.12700000000E+01 0. -1.
<mgrwt>
<rscale>  1 0.13180758E+03</rscale>
<asrwt>0</asrwt>
<pdfrwt beam="1">  1       21 0.76121737E-02 0.13180758E+03</pdfrwt>
<pdfrwt beam="2">  1        4 0.35676159E-01 0.13180758E+03</pdfrwt>
<totfact> 0.40210775E+04</totfact>
</mgrwt>
</event>
<event>
 6    4  0.6277709E-003  0.1272127E+03  0.7818608E-02  0.1231651E+00
         21   -1    0    0  501  502  0.00000000000E+00  0.00000000000E+00  0.15980066791E+03  0.15980066791E+03  0.00000000000E+00 0.  1.
         -4   -1    0    0    0  501 -0.00000000000E+00 -0.00000000000E+00 -0.47942892670E+02  0.47959710775E+02  0.12700000000E+01 0.  1.
         25    2    1    2    0    0  0.18515455044E+02  0.14683594539E+02  0.41942699874E+02  0.13394872183E+03  0.12499855992E+03 0.  0.
    9000005    1    3    3    0    0  0.53867742064E+02  0.49944173159E+02  0.40713907311E+02  0.83992715852E+02  0.10000000000E+01 0.  0.
    9000005    1    3    3    0    0 -0.35352287020E+02 -0.35260578620E+02  0.12287925622E+01  0.49956005979E+02  0.10000000000E+01 0.  0.
         -4    1    1    2    0  502 -0.18515455044E+02 -0.14683594539E+02  0.69915075363E+02  0.73811656850E+02  0.12700000000E+01 0. -1.
<mgrwt>
<rscale>  1 0.12721270E+03</rscale>
<asrwt>0</asrwt>
<pdfrwt beam="1">  1       21 0.24584718E-01 0.12721270E+03</pdfrwt>
<pdfrwt beam="2">  1       -4 0.73775116E-02 0.12721270E+03</pdfrwt>
<totfact> 0.79302312E+04</totfact>
</mgrwt>
</event>
<event>
 6    4  0.6277709E-003  0.1329976E+03  0.7818608E-02  0.1223074E+00
          4   -1    0    0  502    0 -0.00000000000E+00  0.00000000000E+00  0.90899542083E+02  0.90908413532E+02  0.12700000000E+01 0.  1.
         21   -1    0    0  501  502  0.00000000000E+00 -0.00000000000E+00 -0.12954365875E+03  0.12954365875E+03  0.00000000000E+00 0. -1.
         25    2    1    2    0    0 -0.32718213539E+02  0.31503910981E+02  0.31686742852E+02  0.13672023482E+03  0.12500158012E+03 0.  0.
    9000005    1    3    3    0    0 -0.59566964776E+02  0.58051868761E+02 -0.59555300381E+01  0.83394910500E+02  0.10000000000E+01 0.  0.
    9000005    1    3    3    0    0  0.26848751238E+02 -0.26547957780E+02  0.37642272890E+02  0.53325324319E+02  0.10000000000E+01 0.  0.
          4    1    1    2  501    0  0.32718213539E+02 -0.31503910981E+02 -0.70330859517E+02  0.83731837461E+02  0.12700000000E+01 0. -1.
<mgrwt>
<rscale>  1 0.13299764E+03</rscale>
<asrwt>0</asrwt>
<pdfrwt beam="2">  1       21 0.19929794E-01 0.13299764E+03</pdfrwt>
<pdfrwt beam="1">  1        4 0.13985706E-01 0.13299764E+03</pdfrwt>
<totfact> 0.40121593E+04</totfact>
</mgrwt>
</event>
<event>
 6    4  0.6277709E-003  0.1361566E+03  0.7818608E-02  0.1218596E+00
         21   -1    0    0  501  502  0.00000000000E+00  0.00000000000E+00  0.17834419848E+04  0.17834419848E+04  0.00000000000E+00 0. -1.
          4   -1    0    0  502    0 -0.00000000000E+00 -0.00000000000E+00 -0.55951744735E+01  0.57374974849E+01  0.12700000000E+01 0.  1.
         25    2    1    2    0    0 -0.53961434302E+02  0.11999306976E+01  0.96718049279E+03  0.97671731854E+03  0.12500135392E+03 0.  0.
    9000005    1    3    3    0    0  0.80061032060E+01 -0.51257051363E+02  0.48259748248E+03  0.48537893764E+03  0.10000000000E+01 0.  0.
    9000005    1    3    3    0    0 -0.61967537508E+02  0.52456982061E+02  0.48458301031E+03  0.49133838090E+03  0.10000000000E+01 0.  0.
          4    1    1    2  501    0  0.53961434302E+02 -0.11999306976E+01  0.81066631753E+03  0.81246216374E+03  0.12700000000E+01 0. -1.
<mgrwt>
<rscale>  1 0.13615658E+03</rscale>
<asrwt>0</asrwt>
<pdfrwt beam="1">  1       21 0.27437524E+00 0.13615658E+03</pdfrwt>
<pdfrwt beam="2">  1        4 0.87178020E-03 0.13615658E+03</pdfrwt>
<totfact> 0.74036305E+03</totfact>
</mgrwt>
</event>
<event>
 6    4  0.6277709E-003  0.1273368E+03  0.7818608E-02  0.1231462E+00
         21   -1    0    0  501  502  0.00000000000E+00  0.00000000000E+00  0.55782265145E+02  0.55782265145E+02  0.00000000000E+00 0. -1.
          4   -1    0    0  502    0 -0.00000000000E+00 -0.00000000000E+00 -0.11013076400E+03  0.11013808641E+03  0.12700000000E+01 0. -1.
         25    2    1    2    0    0  0.82363025327E+01 -0.22857305363E+02 -0.28626020238E+02  0.13051481677E+03  0.12499750107E+03 0.  0.
    9000005    1    3    3    0    0  0.26617836429E+02  0.45165201243E+02  0.45396316129E+01  0.52630911778E+02  0.10000000000E+01 0.  0.
    9000005    1    3    3    0    0 -0.18381533896E+02 -0.68022506605E+02 -0.33165651851E+02  0.77883904987E+02  0.10000000000E+01 0.  0.
          4    1    1    2  501    0 -0.82363025327E+01  0.22857305363E+02 -0.25722478614E+02  0.35405534792E+02  0.12700000000E+01 0.  1.
<mgrwt>
<rscale>  1 0.12733683E+03</rscale>
<asrwt>0</asrwt>
<pdfrwt beam="1">  1       21 0.85818870E-02 0.12733683E+03</pdfrwt>
<pdfrwt beam="2">  1        4 0.16944870E-01 0.12733683E+03</pdfrwt>
<totfact> 0.12839916E+05</totfact>
</mgrwt>
</event>
<event>
 6    4  0.6277709E-003  0.1329231E+03  0.7818608E-02  0.1223182E+00
          4   -1    0    0  502    0 -0.00000000000E+00  0.00000000000E+00  0.50806775896E+03  0.50806934624E+03  0.12700000000E+01 0.  1.
         21   -1    0    0  501  502  0.00000000000E+00 -0.00000000000E+00 -0.20057594993E+02  0.20057594993E+02  0.00000000000E+00 0. -1.
         25    2    1    2    0    0  0.12944822068E+02 -0.43312180576E+02  0.44945786235E+03  0.46870130482E+03  0.12500011880E+03 0.  0.
    9000005    1    3    3    0    0 -0.24760228660E+02 -0.77790893898E+02  0.26448548803E+03  0.27679968475E+03  0.10000000000E+01 0.  0.
    9000005    1    3    3    0    0  0.37705050728E+02  0.34478713323E+02  0.18497237432E+03  0.19190162007E+03  0.10000000000E+01 0.  0.
          4    1    1    2  501    0 -0.12944822068E+02  0.43312180576E+02  0.38552301613E+02  0.59425636423E+02  0.12700000000E+01 0. -1.
<mgrwt>
<rscale>  1 0.13292307E+03</rscale>
<asrwt>0</asrwt>
<pdfrwt beam="2">  1       21 0.30857842E-02 0.13292307E+03</pdfrwt>
<pdfrwt beam="1">  1        4 0.78167476E-01 0.13292307E+03</pdfrwt>
<totfact> 0.36476889E+04</totfact>
</mgrwt>
</event>
<event>
 6    4  0.6277709E-003  0.1280910E+03  0.7818608E-02  0.1230316E+00
          4   -1    0    0  502    0 -0.00000000000E+00  0.00000000000E+00  0.16321234731E+03  0.16321728834E+03  0.12700000000E+01 0.  1.
         21   -1    0    0  501  502  0.00000000000E+00 -0.00000000000E+00 -0.68175225562E+02  0.68175225562E+02  0.00000000000E+00 0. -1.
         25    2    1    2    0    0 -0.24722899030E+01  0.27846771941E+02  0.13272285704E+03  0.18445231291E+03  0.12500297609E+03 0.  0.
    9000005    1    3    3    0    0 -0.20778572951E+02  0.68232531971E+02  0.40279532017E+02  0.81919888993E+02  0.10000000000E+01 0.  0.
    9000005    1    3    3    0    0  0.18306283048E+02 -0.40385760030E+02  0.92443325025E+02  0.10253242392E+03  0.10000000000E+01 0.  0.
          4    1    1    2  501    0  0.24722899030E+01 -0.27846771941E+02 -0.37685735296E+02  0.46940200998E+02  0.12700000000E+01 0. -1.
<mgrwt>
<rscale>  1 0.12809098E+03</rscale>
<asrwt>0</asrwt>
<pdfrwt beam="2">  1       21 0.10488496E-01 0.12809098E+03</pdfrwt>
<pdfrwt beam="1">  1        4 0.25110882E-01 0.12809098E+03</pdfrwt>
<totfact> 0.44564153E+04</totfact>
</mgrwt>
</event>
<event>
 6    4  0.6277709E-003  0.1286522E+03  0.7818608E-02  0.1229469E+00
         -4   -1    0    0    0  501 -0.00000000000E+00  0.00000000000E+00  0.22339526172E+04  0.22339529782E+04  0.12700000000E+01 0. -1.
         21   -1    0    0  501  502  0.00000000000E+00 -0.00000000000E+00 -0.48897090702E+01  0.48897090702E+01  0.00000000000E+00 0.  1.
         25    2    1    2    0    0  0.30315113784E+02 -0.28404170579E+01  0.21538737455E+04  0.21577125623E+04  0.12499726432E+03 0.  0.
    9000005    1    3    3    0    0  0.69821847591E+02 -0.45071061132E+01  0.74382047536E+03  0.74710461381E+03  0.10000000000E+01 0.  0.
    9000005    1    3    3    0    0 -0.39506733807E+02  0.16666890554E+01  0.14100532701E+04  0.14106079485E+04  0.10000000000E+01 0.  0.
         -4    1    1    2    0  502 -0.30315113784E+02  0.28404170579E+01  0.75189162727E+02  0.81130125011E+02  0.12700000000E+01 0.  1.
<mgrwt>
<rscale>  1 0.12865221E+03</rscale>
<asrwt>0</asrwt>
<pdfrwt beam="2">  1       21 0.75226472E-03 0.12865221E+03</pdfrwt>
<pdfrwt beam="1">  1       -4 0.34369692E+00 0.12865221E+03</pdfrwt>
<totfact> 0.49971485E+03</totfact>
</mgrwt>
</event>
<event>
 6    4  0.6277709E-003  0.1339367E+03  0.7818608E-02  0.1221729E+00
         21   -1    0    0  501  502  0.00000000000E+00  0.00000000000E+00  0.28046210770E+03  0.28046210770E+03  0.00000000000E+00 0.  1.
          4   -1    0    0  502    0 -0.00000000000E+00 -0.00000000000E+00 -0.98827566667E+02  0.98835726503E+02  0.12700000000E+01 0. -1.
         25    2    1    2    0    0 -0.47915584766E+02  0.42719850440E+01 -0.49813423776E+02  0.14290002027E+03  0.12499954194E+03 0.  0.
    9000005    1    3    3    0    0 -0.86684684066E+02  0.12293614721E+02 -0.54324002582E+02  0.10304108244E+03  0.10000000000E+01 0.  0.
    9000005    1    3    3    0    0  0.38769099300E+02 -0.80216296768E+01  0.45105788058E+01  0.39858937823E+02  0.10000000000E+01 0.  0.
          4    1    1    2  501    0  0.47915584766E+02 -0.42719850440E+01  0.23144796481E+03  0.23639781394E+03  0.12700000000E+01 0.  1.
<mgrwt>
<rscale>  1 0.13393670E+03</rscale>
<asrwt>0</asrwt>
<pdfrwt beam="1">  1       21 0.43148016E-01 0.13393670E+03</pdfrwt>
<pdfrwt beam="2">  1        4 0.15205090E-01 0.13393670E+03</pdfrwt>
<totfact> 0.78242805E+03</totfact>
</mgrwt>
</event>
<event>
 6    4  0.6277709E-003  0.1302266E+03  0.7818608E-02  0.1227120E+00
          4   -1    0    0  502    0 -0.00000000000E+00  0.00000000000E+00  0.33206994369E+03  0.33207237224E+03  0.12700000000E+01 0. -1.
         21   -1    0    0  501  502  0.00000000000E+00 -0.00000000000E+00 -0.30616485551E+02  0.30616485551E+02  0.00000000000E+00 0.  1.
         25    2    1    2    0    0 -0.27505634612E+02 -0.24030972740E+02  0.29891887707E+03  0.32605438512E+03  0.12499967761E+03 0.  0.
    9000005    1    3    3    0    0 -0.15264253093E+01 -0.73518287789E+02  0.15187701978E+03  0.16874506733E+03  0.10000000000E+01 0.  0.
    9000005    1    3    3    0    0 -0.25979209302E+02  0.49487315049E+02  0.14704185729E+03  0.15730931779E+03  0.10000000000E+01 0.  0.
          4    1    1    2  501    0  0.27505634612E+02  0.24030972740E+02  0.25345810709E+01  0.36634472665E+02  0.12700000000E+01 0.  1.
<mgrwt>
<rscale>  1 0.13022660E+03</rscale>
<asrwt>0</asrwt>
<pdfrwt beam="2">  1       21 0.47102288E-02 0.13022660E+03</pdfrwt>
<pdfrwt beam="1">  1        4 0.51089894E-01 0.13022660E+03</pdfrwt>
<totfact> 0.44417222E+04</totfact>
</mgrwt>
</event>
<event>
 6    4  0.6277709E-003  0.1272723E+03  0.7818608E-02  0.1231560E+00
         21   -1    0    0  501  502  0.00000000000E+00  0.00000000000E+00  0.53919839243E+02  0.53919839243E+02  0.00000000000E+00 0.  1.
         -4   -1    0    0    0  501 -0.00000000000E+00 -0.00000000000E+00 -0.85358315989E+03  0.85358410467E+03  0.12700000000E+01 0. -1.
         25    2    1    2    0    0 -0.23494285626E+02 -0.47696491139E+01 -0.84589212891E+03  0.85541319019E+03  0.12499400458E+03 0.  0.
    9000005    1    3    3    0    0 -0.35489878366E+02  0.26843882483E+01 -0.62785953332E+02  0.72179036724E+02  0.10000000000E+01 0.  0.
    9000005    1    3    3    0    0  0.11995592740E+02 -0.74540373621E+01 -0.78310617558E+03  0.78323415346E+03  0.10000000000E+01 0.  0.
         -4    1    1    2    0  502  0.23494285626E+02  0.47696491139E+01  0.46228808268E+02  0.52090753724E+02  0.12700000000E+01 0.  1.
<mgrwt>
<rscale>  1 0.12727228E+03</rscale>
<asrwt>0</asrwt>
<pdfrwt beam="1">  1       21 0.82953604E-02 0.12727228E+03</pdfrwt>
<pdfrwt beam="2">  1       -4 0.13132170E+00 0.12727228E+03</pdfrwt>
<totfact> 0.20680627E+03</totfact>
</mgrwt>
</event>
<event>
 6    4  0.6277709E-003  0.1289579E+03  0.7818608E-02  0.1229010E+00
         21   -1    0    0  501  502  0.00000000000E+00  0.00000000000E+00  0.11949189238E+03  0.11949189238E+03  0.00000000000E+00 0. -1.
         -4   -1    0    0    0  501 -0.00000000000E+00 -0.00000000000E+00 -0.54466397436E+02  0.54481201801E+02  0.12700000000E+01 0. -1.
         25    2    1    2    0    0  0.31504526952E+02 -0.36033998156E+01  0.58343734455E+02  0.14154195896E+03  0.12499846034E+03 0.  0.
    9000005    1    3    3    0    0  0.36035613390E+02 -0.44805721341E+02  0.76975696626E+02  0.96085253646E+02  0.10000000000E+01 0.  0.
    9000005    1    3    3    0    0 -0.45310864384E+01  0.41202321525E+02 -0.18631962171E+02  0.45456705311E+02  0.10000000000E+01 0.  0.
         -4    1    1    2    0  502 -0.31504526952E+02  0.36033998156E+01  0.66817604892E+01  0.32431135224E+02  0.12700000000E+01 0.  1.
<mgrwt>
<rscale>  1 0.12895788E+03</rscale>
<asrwt>0</asrwt>
<pdfrwt beam="1">  1       21 0.18383368E-01 0.12895788E+03</pdfrwt>
<pdfrwt beam="2">  1       -4 0.83811037E-02 0.12895788E+03</pdfrwt>
<totfact> 0.11048263E+05</totfact>
</mgrwt>
</event>
<event>
 6    4  0.6277709E-003  0.1382338E+03  0.7818608E-02  0.1215725E+00
         -4   -1    0    0    0  501 -0.00000000000E+00  0.00000000000E+00  0.36725237544E+02  0.36747189996E+02  0.12700000000E+01 0. -1.
         21   -1    0    0  501  502  0.00000000000E+00 -0.00000000000E+00 -0.28269971867E+03  0.28269971867E+03  0.00000000000E+00 0. -1.
         25    2    1    2    0    0 -0.58989817525E+02 -0.20714768166E+01 -0.13223626232E+03  0.19129822586E+03  0.12499797021E+03 0.  0.
    9000005    1    3    3    0    0 -0.68805678996E+02 -0.52648120475E+02 -0.80168534314E+02  0.11804253448E+03  0.10000000000E+01 0.  0.
    9000005    1    3    3    0    0  0.98158614700E+01  0.50576643659E+02 -0.52067728006E+02  0.73255691382E+02  0.10000000000E+01 0.  0.
         -4    1    1    2    0  502  0.58989817525E+02  0.20714768166E+01 -0.11373821880E+03  0.12814868280E+03  0.12700000000E+01 0.  1.
<mgrwt>
<rscale>  1 0.13823380E+03</rscale>
<asrwt>0</asrwt>
<pdfrwt beam="2">  1       21 0.43492266E-01 0.13823380E+03</pdfrwt>
<pdfrwt beam="1">  1       -4 0.56519445E-02 0.13823380E+03</pdfrwt>
<totfact> 0.40624445E+04</totfact>
</mgrwt>
</event>
<event>
 6    4  0.6277709E-003  0.1269801E+03  0.7818608E-02  0.1232007E+00
         -4   -1    0    0    0  501 -0.00000000000E+00  0.00000000000E+00  0.13112837126E+04  0.13112843276E+04  0.12700000000E+01 0. -1.
         21   -1    0    0  501  502  0.00000000000E+00 -0.00000000000E+00 -0.44340303694E+01  0.44340303694E+01  0.00000000000E+00 0. -1.
         25    2    1    2    0    0 -0.18595802022E+02 -0.12374088441E+02  0.99547100444E+03  0.10035369751E+04  0.12500007137E+03 0.  0.
    9000005    1    3    3    0    0 -0.69527513043E+02 -0.21356005558E+02  0.67642394321E+03  0.68032382363E+03  0.10000000000E+01 0.  0.
    9000005    1    3    3    0    0  0.50931711021E+02  0.89819171167E+01  0.31904706122E+03  0.32321315149E+03  0.10000000000E+01 0.  0.
         -4    1    1    2    0  502  0.18595802022E+02  0.12374088441E+02  0.31137867778E+03  0.31218138284E+03  0.12700000000E+01 0.  1.
<mgrwt>
<rscale>  1 0.12698008E+03</rscale>
<asrwt>0</asrwt>
<pdfrwt beam="2">  1       21 0.68215957E-03 0.12698008E+03</pdfrwt>
<pdfrwt beam="1">  1       -4 0.20174968E+00 0.12698008E+03</pdfrwt>
<totfact> 0.39252683E+04</totfact>
</mgrwt>
</event>
<event>
 6    4  0.6277709E-003  0.1267536E+03  0.7818608E-02  0.1232354E+00
         21   -1    0    0  501  502  0.00000000000E+00  0.00000000000E+00  0.73026701100E+02  0.73026701100E+02  0.00000000000E+00 0.  1.
         -4   -1    0    0    0  501 -0.00000000000E+00 -0.00000000000E+00 -0.17154332487E+03  0.17154802595E+03  0.12700000000E+01 0. -1.
         25    2    1    2    0    0  0.16821992383E+02 -0.12584950288E+02 -0.14557462632E+03  0.19302447093E+03  0.12500045658E+03 0.  0.
    9000005    1    3    3    0    0 -0.93116713278E+01 -0.25412579629E+02 -0.15875742330E+03  0.16105100397E+03  0.10000000000E+01 0.  0.
    9000005    1    3    3    0    0  0.26133663711E+02  0.12827629341E+02  0.13182796973E+02  0.31973466961E+02  0.10000000000E+01 0.  0.
         -4    1    1    2    0  502 -0.16821992383E+02  0.12584950288E+02  0.47058002557E+02  0.51550256121E+02  0.12700000000E+01 0.  1.
<mgrwt>
<rscale>  1 0.12675360E+03</rscale>
<asrwt>0</asrwt>
<pdfrwt beam="1">  1       21 0.11234877E-01 0.12675360E+03</pdfrwt>
<pdfrwt beam="2">  1       -4 0.26392492E-01 0.12675360E+03</pdfrwt>
<totfact> 0.35968547E+04</totfact>
</mgrwt>
</event>
<event>
 6    4  0.6277709E-003  0.1273917E+03  0.7818608E-02  0.1231378E+00
         21   -1    0    0  501  502  0.00000000000E+00  0.00000000000E+00  0.71142279722E+02  0.71142279722E+02  0.00000000000E+00 0. -1.
         -4   -1    0    0    0  501 -0.00000000000E+00 -0.00000000000E+00 -0.18197206519E+03  0.18197649686E+03  0.12700000000E+01 0.  1.
         25    2    1    2    0    0 -0.19821173685E+02 -0.14506883057E+02 -0.15616918927E+03  0.20153774306E+03  0.12500127045E+03 0.  0.
    9000005    1    3    3    0    0 -0.39738284299E+02  0.30125392871E+02 -0.14907630404E+02  0.52056776494E+02  0.10000000000E+01 0.  0.
    9000005    1    3    3    0    0  0.19917110615E+02 -0.44632275928E+02 -0.14126155887E+03  0.14948096656E+03  0.10000000000E+01 0.  0.
         -4    1    1    2    0  502  0.19821173685E+02  0.14506883057E+02  0.45339403805E+02  0.51581033527E+02  0.12700000000E+01 0. -1.
<mgrwt>
<rscale>  1 0.12739170E+03</rscale>
<asrwt>0</asrwt>
<pdfrwt beam="1">  1       21 0.10944966E-01 0.12739170E+03</pdfrwt>
<pdfrwt beam="2">  1       -4 0.27996915E-01 0.12739170E+03</pdfrwt>
<totfact> 0.33761994E+04</totfact>
</mgrwt>
</event>
<event>
 6    4  0.6277709E-003  0.1865847E+03  0.7818608E-02  0.1161578E+00
         21   -1    0    0  501  502  0.00000000000E+00  0.00000000000E+00  0.12669882528E+04  0.12669882528E+04  0.00000000000E+00 0. -1.
         -4   -1    0    0    0  501 -0.00000000000E+00 -0.00000000000E+00 -0.30168970057E+02  0.30195689333E+02  0.12700000000E+01 0.  1.
         25    2    1    2    0    0  0.98630329372E+02 -0.97269578142E+02  0.32377247410E+03  0.37368765065E+03  0.12499813023E+03 0.  0.
    9000005    1    3    3    0    0  0.54736861520E+02 -0.19675612072E+02  0.25372096374E+03  0.26030478513E+03  0.10000000000E+01 0.  0.
    9000005    1    3    3    0    0  0.43893467851E+02 -0.77593966071E+02  0.70051510358E+02  0.11338286552E+03  0.10000000000E+01 0.  0.
         -4    1    1    2    0  502 -0.98630329372E+02  0.97269578142E+02  0.91304680863E+03  0.92349629147E+03  0.12700000000E+01 0. -1.
<mgrwt>
<rscale>  1 0.18658469E+03</rscale>
<asrwt>0</asrwt>
<pdfrwt beam="1">  1       21 0.19492123E+00 0.18658469E+03</pdfrwt>
<pdfrwt beam="2">  1       -4 0.46434853E-02 0.18658469E+03</pdfrwt>
<totfact> 0.16429579E+03</totfact>
</mgrwt>
</event>
<event>
 6    4  0.6277709E-003  0.1277695E+03  0.7818608E-02  0.1230803E+00
          4   -1    0    0  502    0 -0.00000000000E+00  0.00000000000E+00  0.61998316221E+03  0.61998446297E+03  0.12700000000E+01 0. -1.
         21   -1    0    0  501  502  0.00000000000E+00 -0.00000000000E+00 -0.11835060176E+02  0.11835060176E+02  0.00000000000E+00 0. -1.
         25    2    1    2    0    0  0.20530144480E+02  0.16706902621E+02  0.57675180371E+03  0.59073488033E+03  0.12499779326E+03 0.  0.
    9000005    1    3    3    0    0  0.29446730352E+02  0.50370136453E+02  0.12847840056E+03  0.14110974447E+03  0.10000000000E+01 0.  0.
    9000005    1    3    3    0    0 -0.89165858721E+01 -0.33663233832E+02  0.44827340316E+03  0.44962513586E+03  0.10000000000E+01 0.  0.
          4    1    1    2  501    0 -0.20530144480E+02 -0.16706902621E+02  0.31396298324E+02  0.41084642825E+02  0.12700000000E+01 0.  1.
<mgrwt>
<rscale>  1 0.12776954E+03</rscale>
<asrwt>0</asrwt>
<pdfrwt beam="2">  1       21 0.18207790E-02 0.12776954E+03</pdfrwt>
<pdfrwt beam="1">  1        4 0.95387341E-01 0.12776954E+03</pdfrwt>
<totfact> 0.54737485E+04</totfact>
</mgrwt>
</event>
<event>
 6    4  0.6277709E-003  0.1302956E+03  0.7818608E-02  0.1227018E+00
         21   -1    0    0  501  502  0.00000000000E+00  0.00000000000E+00  0.13675708828E+03  0.13675708828E+03  0.00000000000E+00 0.  1.
         -4   -1    0    0    0  501 -0.00000000000E+00 -0.00000000000E+00 -0.69551586382E+02  0.69563180406E+02  0.12700000000E+01 0. -1.
         25    2    1    2    0    0 -0.19061383790E+02  0.31446252469E+02  0.67988400696E+00  0.13029741763E+03  0.12499900661E+03 0.  0.
    9000005    1    3    3    0    0 -0.12700300958E+02  0.13568573256E+02  0.62714390656E+02  0.65417876914E+02  0.10000000000E+01 0.  0.
    9000005    1    3    3    0    0 -0.63610828326E+01  0.17877679212E+02 -0.62034506649E+02  0.64879540720E+02  0.10000000000E+01 0.  0.
         -4    1    1    2    0  502  0.19061383790E+02 -0.31446252469E+02  0.66525617892E+02  0.76022851053E+02  0.12700000000E+01 0.  1.
<mgrwt>
<rscale>  1 0.13029564E+03</rscale>
<asrwt>0</asrwt>
<pdfrwt beam="1">  1       21 0.21039552E-01 0.13029564E+03</pdfrwt>
<pdfrwt beam="2">  1       -4 0.10701590E-01 0.13029564E+03</pdfrwt>
<totfact> 0.57245749E+04</totfact>
</mgrwt>
</event>
<event>
 6    4  0.6277709E-003  0.1265974E+03  0.7818608E-02  0.1232594E+00
          4   -1    0    0  502    0 -0.00000000000E+00  0.00000000000E+00  0.22421915374E+03  0.22422275042E+03  0.12700000000E+01 0.  1.
         21   -1    0    0  501  502  0.00000000000E+00 -0.00000000000E+00 -0.11854578625E+03  0.11854578625E+03  0.00000000000E+00 0. -1.
         25    2    1    2    0    0  0.17685973732E+02 -0.94053660728E+01  0.20527009299E+03  0.24116944608E+03  0.12500254423E+03 0.  0.
    9000005    1    3    3    0    0 -0.18000476925E+02 -0.47267567823E+01 -0.11187607312E+02  0.21737570162E+02  0.10000000000E+01 0.  0.
    9000005    1    3    3    0    0  0.35686450656E+02 -0.46786092905E+01  0.21645770031E+03  0.21943187591E+03  0.10000000000E+01 0.  0.
          4    1    1    2  501    0 -0.17685973732E+02  0.94053660728E+01 -0.99596725498E+02  0.10159909059E+03  0.12700000000E+01 0. -1.
<mgrwt>
<rscale>  1 0.12659736E+03</rscale>
<asrwt>0</asrwt>
<pdfrwt beam="2">  1       21 0.18237813E-01 0.12659736E+03</pdfrwt>
<pdfrwt beam="1">  1        4 0.34496054E-01 0.12659736E+03</pdfrwt>
<totfact> 0.90862840E+03</totfact>
</mgrwt>
</event>
<event>
 6    4  0.6277709E-003  0.1754819E+03  0.7818608E-02  0.1172249E+00
          4   -1    0    0  502    0 -0.00000000000E+00  0.00000000000E+00  0.37586028941E+02  0.37607478931E+02  0.12700000000E+01 0.  1.
         21   -1    0    0  501  502  0.00000000000E+00 -0.00000000000E+00 -0.61305086279E+03  0.61305086279E+03  0.00000000000E+00 0. -1.
         25    2    1    2    0    0 -0.12293756967E+03  0.74552143334E+01 -0.27864783193E+03  0.32930001868E+03  0.12499864722E+03 0.  0.
    9000005    1    3    3    0    0 -0.63142639855E+02 -0.37582147475E+01 -0.24288803713E+02  0.67764763201E+02  0.10000000000E+01 0.  0.
    9000005    1    3    3    0    0 -0.59794929819E+02  0.11213429081E+02 -0.25435902821E+03  0.26153525548E+03  0.10000000000E+01 0.  0.
          4    1    1    2  501    0  0.12293756967E+03 -0.74552143334E+01 -0.29681700192E+03  0.32135832304E+03  0.12700000000E+01 0. -1.
<mgrwt>
<rscale>  1 0.17548187E+03</rscale>
<asrwt>0</asrwt>
<pdfrwt beam="2">  1       21 0.94315515E-01 0.17548187E+03</pdfrwt>
<pdfrwt beam="1">  1        4 0.57842174E-02 0.17548187E+03</pdfrwt>
<totfact> 0.74513463E+03</totfact>
</mgrwt>
</event>
<event>
 6    4  0.6277709E-003  0.1277472E+03  0.7818608E-02  0.1230837E+00
         -4   -1    0    0    0  501 -0.00000000000E+00  0.00000000000E+00  0.79322520796E+02  0.79332686866E+02  0.12700000000E+01 0.  1.
         21   -1    0    0  501  502  0.00000000000E+00 -0.00000000000E+00 -0.11935519685E+03  0.11935519685E+03  0.00000000000E+00 0. -1.
         25    2    1    2    0    0 -0.19216391819E+02  0.18019859476E+02  0.23506942929E+02  0.12989194539E+03  0.12500142423E+03 0.  0.
    9000005    1    3    3    0    0 -0.19859225918E+02  0.68788095690E+01 -0.50674546188E+02  0.54869085162E+02  0.10000000000E+01 0.  0.
    9000005    1    3    3    0    0  0.64283409932E+00  0.11141049907E+02  0.74181489117E+02  0.75022860225E+02  0.10000000000E+01 0.  0.
         -4    1    1    2    0  502  0.19216391819E+02 -0.18019859476E+02 -0.63539618982E+02  0.68795938328E+02  0.12700000000E+01 0. -1.
<mgrwt>
<rscale>  1 0.12774718E+03</rscale>
<asrwt>0</asrwt>
<pdfrwt beam="2">  1       21 0.18362338E-01 0.12774718E+03</pdfrwt>
<pdfrwt beam="1">  1       -4 0.12204766E-01 0.12774718E+03</pdfrwt>
<totfact> 0.58701768E+04</totfact>
</mgrwt>
</event>
<event>
 6    4  0.6277709E-003  0.1309564E+03  0.7818608E-02  0.1226044E+00
          4   -1    0    0  502    0 -0.00000000000E+00  0.00000000000E+00  0.10944108728E+03  0.10944845584E+03  0.12700000000E+01 0.  1.
         21   -1    0    0  501  502  0.00000000000E+00 -0.00000000000E+00 -0.88098715945E+02  0.88098715945E+02  0.00000000000E+00 0. -1.
         25    2    1    2    0    0 -0.31577118160E+02  0.22912038074E+02  0.58705743759E+02  0.14351282735E+03  0.12500996513E+03 0.  0.
    9000005    1    3    3    0    0 -0.15140039170E+02 -0.18044176573E+02  0.87624617965E+02  0.90740766846E+02  0.10000000000E+01 0.  0.
    9000005    1    3    3    0    0 -0.16437078990E+02  0.40956214647E+02 -0.28918874207E+02  0.52772060499E+02  0.10000000000E+01 0.  0.
          4    1    1    2  501    0  0.31577118160E+02 -0.22912038074E+02 -0.37363372423E+02  0.54034344438E+02  0.12700000000E+01 0. -1.
<mgrwt>
<rscale>  1 0.13095636E+03</rscale>
<asrwt>0</asrwt>
<pdfrwt beam="2">  1       21 0.13553649E-01 0.13095636E+03</pdfrwt>
<pdfrwt beam="1">  1        4 0.16838361E-01 0.13095636E+03</pdfrwt>
<totfact> 0.58343942E+04</totfact>
</mgrwt>
</event>
<event>
 6    4  0.6277709E-003  0.1574513E+03  0.7818608E-02  0.1191605E+00
         21   -1    0    0  501  502  0.00000000000E+00  0.00000000000E+00  0.19938350195E+03  0.19938350195E+03  0.00000000000E+00 0. -1.
         -4   -1    0    0    0  501 -0.00000000000E+00 -0.00000000000E+00 -0.16290335767E+03  0.16290830808E+03  0.12700000000E+01 0.  1.
         25    2    1    2    0    0 -0.27627478607E+01 -0.95697732839E+02 -0.10659140757E+03  0.19013847519E+03  0.12500089093E+03 0.  0.
    9000005    1    3    3    0    0  0.87312316578E+01 -0.86520033271E+02 -0.45996944130E+01  0.87086782879E+02  0.10000000000E+01 0.  0.
    9000005    1    3    3    0    0 -0.11493979518E+02 -0.91776995679E+01 -0.10199171316E+03  0.10305169231E+03  0.10000000000E+01 0.  0.
         -4    1    1    2    0  502  0.27627478607E+01  0.95697732839E+02  0.14307155185E+03  0.17215333484E+03  0.12700000000E+01 0. -1.
<mgrwt>
<rscale>  1 0.15745130E+03</rscale>
<asrwt>0</asrwt>
<pdfrwt beam="1">  1       21 0.30674385E-01 0.15745130E+03</pdfrwt>
<pdfrwt beam="2">  1       -4 0.25062747E-01 0.15745130E+03</pdfrwt>
<totfact> 0.63311699E+03</totfact>
</mgrwt>
</event>
<event>
 6    4  0.6277709E-003  0.1318572E+03  0.7818608E-02  0.1224726E+00
          4   -1    0    0  502    0 -0.00000000000E+00  0.00000000000E+00  0.40553864335E+03  0.40554063193E+03  0.12700000000E+01 0. -1.
         21   -1    0    0  501  502  0.00000000000E+00 -0.00000000000E+00 -0.54679591241E+02  0.54679591241E+02  0.00000000000E+00 0.  1.
         25    2    1    2    0    0  0.40269737113E+02  0.11706449115E+02  0.38447582571E+03  0.40645784743E+03  0.12501051358E+03 0.  0.
    9000005    1    3    3    0    0  0.48539425372E+02 -0.35150454409E+02  0.32401993138E+03  0.32951714097E+03  0.10000000000E+01 0.  0.
    9000005    1    3    3    0    0 -0.82696882585E+01  0.46856903524E+02  0.60455894332E+02  0.76940706464E+02  0.10000000000E+01 0.  0.
          4    1    1    2  501    0 -0.40269737113E+02 -0.11706449115E+02 -0.33616773603E+02  0.53762375743E+02  0.12700000000E+01 0.  1.
<mgrwt>
<rscale>  1 0.13185720E+03</rscale>
<asrwt>0</asrwt>
<pdfrwt beam="2">  1       21 0.84122451E-02 0.13185720E+03</pdfrwt>
<pdfrwt beam="1">  1        4 0.62391846E-01 0.13185720E+03</pdfrwt>
<totfact> 0.10948304E+04</totfact>
</mgrwt>
</event>
<event>
 6    4  0.6277709E-003  0.1290038E+03  0.7818608E-02  0.1228942E+00
         21   -1    0    0  501  502  0.00000000000E+00  0.00000000000E+00  0.29026396488E+02  0.29026396488E+02  0.00000000000E+00 0.  1.
          4   -1    0    0  502    0 -0.00000000000E+00 -0.00000000000E+00 -0.23670409582E+03  0.23670750279E+03  0.12700000000E+01 0.  1.
         25    2    1    2    0    0 -0.36810883334E+01 -0.31666197814E+02 -0.13694149342E+03  0.18813543137E+03  0.12500267765E+03 0.  0.
    9000005    1    3    3    0    0 -0.40105385553E+02  0.34681506275E+02 -0.50390739756E+02  0.73153779677E+02  0.10000000000E+01 0.  0.
    9000005    1    3    3    0    0  0.36424297220E+02 -0.66347704089E+02 -0.86550753664E+02  0.11498165169E+03  0.10000000000E+01 0.  0.
          4    1    1    2  501    0  0.36810883334E+01  0.31666197814E+02 -0.70736205907E+02  0.77598467907E+02  0.12700000000E+01 0. -1.
<mgrwt>
<rscale>  1 0.12900375E+03</rscale>
<asrwt>0</asrwt>
<pdfrwt beam="1">  1       21 0.44655996E-02 0.12900375E+03</pdfrwt>
<pdfrwt beam="2">  1        4 0.36418412E-01 0.12900375E+03</pdfrwt>
<totfact> 0.95092864E+04</totfact>
</mgrwt>
</event>
<event>
 6    4  0.6277709E-003  0.1298392E+03  0.7818608E-02  0.1227694E+00
         21   -1    0    0  501  502  0.00000000000E+00  0.00000000000E+00  0.29874899763E+03  0.29874899763E+03  0.00000000000E+00 0.  1.
          4   -1    0    0  502    0 -0.00000000000E+00 -0.00000000000E+00 -0.34579993078E+02  0.34603306508E+02  0.12700000000E+01 0. -1.
         25    2    1    2    0    0 -0.34766552601E+02  0.49738636315E+01  0.95804300621E+02  0.16135887715E+03  0.12499908286E+03 0.  0.
    9000005    1    3    3    0    0 -0.73956124263E+02  0.33613065567E+02  0.57847866534E+02  0.99733255013E+02  0.10000000000E+01 0.  0.
    9000005    1    3    3    0    0  0.39189571663E+02 -0.28639201935E+02  0.37956434087E+02  0.61625622132E+02  0.10000000000E+01 0.  0.
          4    1    1    2  501    0  0.34766552601E+02 -0.49738636315E+01  0.16836470393E+03  0.17199342699E+03  0.12700000000E+01 0.  1.
<mgrwt>
<rscale>  1 0.12983922E+03</rscale>
<asrwt>0</asrwt>
<pdfrwt beam="1">  1       21 0.45961383E-01 0.12983922E+03</pdfrwt>
<pdfrwt beam="2">  1        4 0.53220001E-02 0.12983922E+03</pdfrwt>
<totfact> 0.39759804E+04</totfact>
</mgrwt>
</event>
<event>
 6    4  0.6277709E-003  0.1319245E+03  0.7818608E-02  0.1224628E+00
         21   -1    0    0  501  502  0.00000000000E+00  0.00000000000E+00  0.12440369009E+04  0.12440369009E+04  0.00000000000E+00 0.  1.
          4   -1    0    0  502    0 -0.00000000000E+00 -0.00000000000E+00 -0.22774374062E+02  0.22809756989E+02  0.12700000000E+01 0. -1.
         25    2    1    2    0    0  0.30179532100E+02 -0.29477734405E+02  0.17215420588E+03  0.21688969544E+03  0.12499731359E+03 0.  0.
    9000005    1    3    3    0    0  0.74743336739E+02 -0.16638514098E+02  0.66202399814E+02  0.10122827806E+03  0.10000000000E+01 0.  0.
    9000005    1    3    3    0    0 -0.44563804640E+02 -0.12839220307E+02  0.10595180607E+03  0.11566141738E+03  0.10000000000E+01 0.  0.
          4    1    1    2  501    0 -0.30179532100E+02  0.29477734405E+02  0.10491083209E+04  0.10499569624E+04  0.12700000000E+01 0.  1.
<mgrwt>
<rscale>  1 0.13192448E+03</rscale>
<asrwt>0</asrwt>
<pdfrwt beam="1">  1       21 0.19139024E+00 0.13192448E+03</pdfrwt>
<pdfrwt beam="2">  1        4 0.35065225E-02 0.13192448E+03</pdfrwt>
<totfact> 0.27216467E+03</totfact>
</mgrwt>
</event>
<event>
 6    4  0.6277709E-003  0.1267362E+03  0.7818608E-02  0.1232381E+00
         21   -1    0    0  501  502  0.00000000000E+00  0.00000000000E+00  0.26341813329E+03  0.26341813329E+03  0.00000000000E+00 0. -1.
         -4   -1    0    0    0  501 -0.00000000000E+00 -0.00000000000E+00 -0.33446134476E+02  0.33470237696E+02  0.12700000000E+01 0.  1.
         25    2    1    2    0    0  0.13940852682E+02  0.15700847621E+02  0.90236637132E+02  0.15557861126E+03  0.12498475752E+03 0.  0.
    9000005    1    3    3    0    0  0.37983493916E+01  0.29660909431E+02  0.11862623037E+03  0.12234124218E+03  0.10000000000E+01 0.  0.
    9000005    1    3    3    0    0  0.10142503290E+02 -0.13960061811E+02 -0.28389593241E+02  0.33237369077E+02  0.10000000000E+01 0.  0.
         -4    1    1    2    0  502 -0.13940852682E+02 -0.15700847621E+02  0.13973536168E+03  0.14130975972E+03  0.12700000000E+01 0. -1.
<mgrwt>
<rscale>  1 0.12673616E+03</rscale>
<asrwt>0</asrwt>
<pdfrwt beam="1">  1       21 0.40525865E-01 0.12673616E+03</pdfrwt>
<pdfrwt beam="2">  1       -4 0.51476489E-02 0.12673616E+03</pdfrwt>
<totfact> 0.53948103E+04</totfact>
</mgrwt>
</event>
<event>
 6    4  0.6277709E-003  0.1269024E+03  0.7818608E-02  0.1232126E+00
         21   -1    0    0  501  502  0.00000000000E+00  0.00000000000E+00  0.26680977668E+02  0.26680977668E+02  0.00000000000E+00 0. -1.
          4   -1    0    0  502    0 -0.00000000000E+00 -0.00000000000E+00 -0.23140103799E+03  0.23140452304E+03  0.12700000000E+01 0. -1.
         25    2    1    2    0    0 -0.30684413984E+00 -0.21887195980E+02 -0.19795552483E+03  0.23513957860E+03  0.12500035244E+03 0.  0.
    9000005    1    3    3    0    0 -0.51319047562E+02  0.19536273309E+02 -0.54628783587E+02  0.77463634137E+02  0.10000000000E+01 0.  0.
    9000005    1    3    3    0    0  0.51012203422E+02 -0.41423469289E+02 -0.14332674124E+03  0.15767594446E+03  0.10000000000E+01 0.  0.
          4    1    1    2  501    0  0.30684413984E+00  0.21887195980E+02 -0.67645354964E+01  0.22945922115E+02  0.12700000000E+01 0.  1.
<mgrwt>
<rscale>  1 0.12690245E+03</rscale>
<asrwt>0</asrwt>
<pdfrwt beam="1">  1       21 0.41047656E-02 0.12690245E+03</pdfrwt>
<pdfrwt beam="2">  1        4 0.35602754E-01 0.12690245E+03</pdfrwt>
<totfact> 0.11404987E+05</totfact>
</mgrwt>
</event>
<event>
 6    4  0.6277709E-003  0.1291526E+03  0.7818608E-02  0.1228719E+00
         -4   -1    0    0    0  501 -0.00000000000E+00  0.00000000000E+00  0.44060910298E+03  0.44061093328E+03  0.12700000000E+01 0.  1.
         21   -1    0    0  501  502  0.00000000000E+00 -0.00000000000E+00 -0.52088879357E+02  0.52088879357E+02  0.00000000000E+00 0. -1.
         25    2    1    2    0    0 -0.16061603667E+02 -0.28240362595E+02  0.42479037997E+03  0.44399015925E+03  0.12499960561E+03 0.  0.
    9000005    1    3    3    0    0 -0.67750116810E+02 -0.17996366731E+02  0.17152332384E+03  0.18529759352E+03  0.10000000000E+01 0.  0.
    9000005    1    3    3    0    0  0.51688513143E+02 -0.10243995864E+02  0.25326705613E+03  0.25869256573E+03  0.10000000000E+01 0.  0.
         -4    1    1    2    0  502  0.16061603667E+02  0.28240362595E+02 -0.36270156349E+02  0.48709653390E+02  0.12700000000E+01 0. -1.
<mgrwt>
<rscale>  1 0.12915260E+03</rscale>
<asrwt>0</asrwt>
<pdfrwt beam="2">  1       21 0.80136740E-02 0.12915260E+03</pdfrwt>
<pdfrwt beam="1">  1       -4 0.67787345E-01 0.12915260E+03</pdfrwt>
<totfact> 0.99597836E+03</totfact>
</mgrwt>
</event>
<event>
 6    4  0.6277709E-003  0.1287888E+03  0.7818608E-02  0.1229264E+00
         21   -1    0    0  501  502  0.00000000000E+00  0.00000000000E+00  0.16107067054E+03  0.16107067054E+03  0.00000000000E+00 0. -1.
         -4   -1    0    0    0  501 -0.00000000000E+00 -0.00000000000E+00 -0.46609680151E+02  0.46626979141E+02  0.12700000000E+01 0. -1.
         25    2    1    2    0    0  0.15783792031E+02  0.26623322211E+02  0.53778312235E+02  0.13956594117E+03  0.12501446193E+03 0.  0.
    9000005    1    3    3    0    0 -0.12384679547E+02 -0.37231683820E+02  0.57555076724E+02  0.69664664101E+02  0.10000000000E+01 0.  0.
    9000005    1    3    3    0    0  0.28168471578E+02  0.63855006031E+02 -0.37767644887E+01  0.69901277072E+02  0.10000000000E+01 0.  0.
         -4    1    1    2    0  502 -0.15783792031E+02 -0.26623322211E+02  0.60682678158E+02  0.68131708513E+02  0.12700000000E+01 0.  1.
<mgrwt>
<rscale>  1 0.12878876E+03</rscale>
<asrwt>0</asrwt>
<pdfrwt beam="1">  1       21 0.24780103E-01 0.12878876E+03</pdfrwt>
<pdfrwt beam="2">  1       -4 0.71724359E-02 0.12878876E+03</pdfrwt>
<totfact> 0.81963525E+04</totfact>
</mgrwt>
</event>
<event>
 6    4  0.6277709E-003  0.1273627E+03  0.7818608E-02  0.1231422E+00
         21   -1    0    0  501  502  0.00000000000E+00  0.00000000000E+00  0.18194038008E+03  0.18194038008E+03  0.00000000000E+00 0.  1.
         -4   -1    0    0    0  501 -0.00000000000E+00 -0.00000000000E+00 -0.61755367138E+02  0.61768424541E+02  0.12700000000E+01 0.  1.
         25    2    1    2    0    0  0.23511272967E+02  0.65945203707E+01  0.66128030811E+01  0.12753424885E+03  0.12499995124E+03 0.  0.
    9000005    1    3    3    0    0 -0.27089042872E+02  0.47269941307E+02  0.25143116663E+02  0.60011998054E+02  0.10000000000E+01 0.  0.
    9000005    1    3    3    0    0  0.50600315839E+02 -0.40675420936E+02 -0.18530313582E+02  0.67522250798E+02  0.10000000000E+01 0.  0.
         -4    1    1    2    0  502 -0.23511272967E+02 -0.65945203707E+01  0.11357220986E+03  0.11617455577E+03  0.12700000000E+01 0. -1.
<mgrwt>
<rscale>  1 0.12736269E+03</rscale>
<asrwt>0</asrwt>
<pdfrwt beam="1">  1       21 0.27990828E-01 0.12736269E+03</pdfrwt>
<pdfrwt beam="2">  1       -4 0.95021711E-02 0.12736269E+03</pdfrwt>
<totfact> 0.40726749E+04</totfact>
</mgrwt>
</event>
<event>
 6    4  0.6277709E-003  0.1292325E+03  0.7818608E-02  0.1228599E+00
          4   -1    0    0  502    0 -0.00000000000E+00  0.00000000000E+00  0.59055084170E+03  0.59055220729E+03  0.12700000000E+01 0.  1.
         21   -1    0    0  501  502  0.00000000000E+00 -0.00000000000E+00 -0.16811588281E+03  0.16811588281E+03  0.00000000000E+00 0. -1.
         25    2    1    2    0    0  0.87302062889E+01 -0.31634145012E+02  0.58178682322E+03  0.59596724438E+03  0.12499645222E+03 0.  0.
    9000005    1    3    3    0    0 -0.49675617984E+02 -0.21822423740E+02  0.42346320508E+03  0.42692618947E+03  0.10000000000E+01 0.  0.
    9000005    1    3    3    0    0  0.58405824272E+02 -0.98117212720E+01  0.15832361814E+03  0.16904105491E+03  0.10000000000E+01 0.  0.
          4    1    1    2  501    0 -0.87302062889E+01  0.31634145012E+02 -0.15935186433E+03  0.16270084572E+03  0.12700000000E+01 0. -1.
<mgrwt>
<rscale>  1 0.12923254E+03</rscale>
<asrwt>0</asrwt>
<pdfrwt beam="2">  1       21 0.25863982E-01 0.12923254E+03</pdfrwt>
<pdfrwt beam="1">  1        4 0.90854449E-01 0.12923254E+03</pdfrwt>
<totfact> 0.63339229E+02</totfact>
</mgrwt>
</event>
<event>
 6    4  0.6277709E-003  0.1310675E+03  0.7818608E-02  0.1225880E+00
         -4   -1    0    0    0  501 -0.00000000000E+00  0.00000000000E+00  0.51596875104E+02  0.51612502560E+02  0.12700000000E+01 0.  1.
         21   -1    0    0  501  502  0.00000000000E+00 -0.00000000000E+00 -0.19787595623E+03  0.19787595623E+03  0.00000000000E+00 0. -1.
         25    2    1    2    0    0 -0.35471596422E+02  0.17127109410E+02 -0.41402165575E+02  0.13745117774E+03  0.12500845939E+03 0.  0.
    9000005    1    3    3    0    0  0.13693432057E+02 -0.34295972087E+02 -0.53765219849E+02  0.65233600608E+02  0.10000000000E+01 0.  0.
    9000005    1    3    3    0    0 -0.49165028478E+02  0.51423081496E+02  0.12363054274E+02  0.72217577132E+02  0.10000000000E+01 0.  0.
         -4    1    1    2    0  502  0.35471596422E+02 -0.17127109410E+02 -0.10487691556E+03  0.11203728105E+03  0.12700000000E+01 0. -1.
<mgrwt>
<rscale>  1 0.13106749E+03</rscale>
<asrwt>0</asrwt>
<pdfrwt beam="2">  1       21 0.30442455E-01 0.13106749E+03</pdfrwt>
<pdfrwt beam="1">  1       -4 0.79394965E-02 0.13106749E+03</pdfrwt>
<totfact> 0.46893198E+04</totfact>
</mgrwt>
</event>
<event>
 6    4  0.6277709E-003  0.1343957E+03  0.7818608E-02  0.1221075E+00
         21   -1    0    0  501  502  0.00000000000E+00  0.00000000000E+00  0.65098785850E+02  0.65098785850E+02  0.00000000000E+00 0.  1.
          4   -1    0    0  502    0 -0.00000000000E+00 -0.00000000000E+00 -0.40895986746E+03  0.40896183941E+03  0.12700000000E+01 0. -1.
         25    2    1    2    0    0 -0.21037641683E+02  0.44653493200E+02 -0.38626283095E+03  0.40897577242E+03  0.12500276410E+03 0.  0.
    9000005    1    3    3    0    0 -0.41778649671E+01  0.52555508132E+02 -0.38674475216E+03  0.39032299357E+03  0.10000000000E+01 0.  0.
    9000005    1    3    3    0    0 -0.16859776716E+02 -0.79020149321E+01  0.48192120515E+00  0.18652778853E+02  0.10000000000E+01 0.  0.
          4    1    1    2  501    0  0.21037641683E+02 -0.44653493200E+02  0.42401749335E+02  0.65084852840E+02  0.12700000000E+01 0.  1.
<mgrwt>
<rscale>  1 0.13439571E+03</rscale>
<asrwt>0</asrwt>
<pdfrwt beam="1">  1       21 0.10015198E-01 0.13439571E+03</pdfrwt>
<pdfrwt beam="2">  1        4 0.62918007E-01 0.13439571E+03</pdfrwt>
<totfact> 0.79522280E+03</totfact>
</mgrwt>
</event>
<event>
 6    4  0.6277709E-003  0.1291295E+03  0.7818608E-02  0.1228753E+00
         21   -1    0    0  501  502  0.00000000000E+00  0.00000000000E+00  0.69090460585E+02  0.69090460585E+02  0.00000000000E+00 0. -1.
         -4   -1    0    0    0  501 -0.00000000000E+00 -0.00000000000E+00 -0.58956672743E+03  0.58956809530E+03  0.12700000000E+01 0.  1.
         25    2    1    2    0    0  0.14360768928E+02  0.29045767222E+02 -0.57820352386E+03  0.59244724733E+03  0.12499815031E+03 0.  0.
    9000005    1    3    3    0    0  0.55770651798E+02  0.50716561877E+02 -0.44351043262E+03  0.44987224753E+03  0.10000000000E+01 0.  0.
    9000005    1    3    3    0    0 -0.41409882870E+02 -0.21670794655E+02 -0.13469309124E+03  0.14257499980E+03  0.10000000000E+01 0.  0.
         -4    1    1    2    0  502 -0.14360768928E+02 -0.29045767222E+02  0.57727257018E+02  0.66211308555E+02  0.12700000000E+01 0. -1.
<mgrwt>
<rscale>  1 0.12912949E+03</rscale>
<asrwt>0</asrwt>
<pdfrwt beam="1">  1       21 0.10629302E-01 0.12912949E+03</pdfrwt>
<pdfrwt beam="2">  1       -4 0.90703572E-01 0.12912949E+03</pdfrwt>
<totfact> 0.32096459E+03</totfact>
</mgrwt>
</event>
<event>
 6    4  0.6277709E-003  0.1313836E+03  0.7818608E-02  0.1225417E+00
         21   -1    0    0  501  502  0.00000000000E+00  0.00000000000E+00  0.23438351352E+02  0.23438351352E+02  0.00000000000E+00 0. -1.
          4   -1    0    0  502    0 -0.00000000000E+00 -0.00000000000E+00 -0.32394930035E+03  0.32395178977E+03  0.12700000000E+01 0. -1.
         25    2    1    2    0    0  0.18286870792E+02 -0.36086778572E+02 -0.20293686536E+03  0.24175406808E+03  0.12499997152E+03 0.  0.
    9000005    1    3    3    0    0  0.51942528780E+02 -0.46848686735E+02 -0.53160030087E+02  0.87862475174E+02  0.10000000000E+01 0.  0.
    9000005    1    3    3    0    0 -0.33655657988E+02  0.10761908163E+02 -0.14977683528E+03  0.15389159291E+03  0.10000000000E+01 0.  0.
          4    1    1    2  501    0 -0.18286870792E+02  0.36086778572E+02 -0.97574083635E+02  0.10563607304E+03  0.12700000000E+01 0.  1.
<mgrwt>
<rscale>  1 0.13138363E+03</rscale>
<asrwt>0</asrwt>
<pdfrwt beam="1">  1       21 0.36059002E-02 0.13138363E+03</pdfrwt>
<pdfrwt beam="2">  1        4 0.49841192E-01 0.13138363E+03</pdfrwt>
<totfact> 0.72959118E+04</totfact>
</mgrwt>
</event>
<event>
 6    4  0.6277709E-003  0.1272190E+03  0.7818608E-02  0.1231642E+00
         -4   -1    0    0    0  501 -0.00000000000E+00  0.00000000000E+00  0.31554132609E+03  0.31554388185E+03  0.12700000000E+01 0. -1.
         21   -1    0    0  501  502  0.00000000000E+00 -0.00000000000E+00 -0.25403672862E+02  0.25403672862E+02  0.00000000000E+00 0. -1.
         25    2    1    2    0    0 -0.11804700951E+02 -0.20476082718E+02  0.29064982241E+03  0.31727275492E+03  0.12500424320E+03 0.  0.
    9000005    1    3    3    0    0 -0.27009267522E+02  0.46571248199E+01  0.24027814376E+01  0.27531122431E+02  0.10000000000E+01 0.  0.
    9000005    1    3    3    0    0  0.15204566571E+02 -0.25133207538E+02  0.28824704097E+03  0.28974163249E+03  0.10000000000E+01 0.  0.
         -4    1    1    2    0  502  0.11804700951E+02  0.20476082718E+02 -0.51216918036E+00  0.23674799794E+02  0.12700000000E+01 0.  1.
<mgrwt>
<rscale>  1 0.12721903E+03</rscale>
<asrwt>0</asrwt>
<pdfrwt beam="2">  1       21 0.39082576E-02 0.12721903E+03</pdfrwt>
<pdfrwt beam="1">  1       -4 0.48547455E-01 0.12721903E+03</pdfrwt>
<totfact> 0.67044125E+04</totfact>
</mgrwt>
</event>
<event>
 6    4  0.6277709E-003  0.1345394E+03  0.7818608E-02  0.1220871E+00
         21   -1    0    0  501  502  0.00000000000E+00  0.00000000000E+00  0.11220184557E+03  0.11220184557E+03  0.00000000000E+00 0.  1.
         -4   -1    0    0    0  501 -0.00000000000E+00 -0.00000000000E+00 -0.77945399188E+02  0.77955744846E+02  0.12700000000E+01 0. -1.
         25    2    1    2    0    0  0.47338307430E+02  0.15329740510E+02  0.39210717657E+02  0.14013685473E+03  0.12499976552E+03 0.  0.
    9000005    1    3    3    0    0  0.48108743036E+02 -0.16954756766E+02 -0.33182887170E+02  0.60860651775E+02  0.10000000000E+01 0.  0.
    9000005    1    3    3    0    0 -0.77043560560E+00  0.32284497275E+02  0.72393604827E+02  0.79276202956E+02  0.10000000000E+01 0.  0.
         -4    1    1    2    0  502 -0.47338307430E+02 -0.15329740510E+02 -0.49542712761E+01  0.50020735684E+02  0.12700000000E+01 0.  1.
<mgrwt>
<rscale>  1 0.13453943E+03</rscale>
<asrwt>0</asrwt>
<pdfrwt beam="1">  1       21 0.17261822E-01 0.13453943E+03</pdfrwt>
<pdfrwt beam="2">  1       -4 0.11992949E-01 0.13453943E+03</pdfrwt>
<totfact> 0.68169608E+04</totfact>
</mgrwt>
</event>
<event>
 6    4  0.6277709E-003  0.1405779E+03  0.7818608E-02  0.1212554E+00
         -4   -1    0    0    0  501 -0.00000000000E+00  0.00000000000E+00  0.48995027503E+03  0.48995192102E+03  0.12700000000E+01 0. -1.
         21   -1    0    0  501  502  0.00000000000E+00 -0.00000000000E+00 -0.21512241934E+02  0.21512241934E+02  0.00000000000E+00 0.  1.
         25    2    1    2    0    0 -0.46500981750E+02  0.44423288112E+02  0.33641444272E+03  0.36460500883E+03  0.12500546134E+03 0.  0.
    9000005    1    3    3    0    0  0.25914145643E+02  0.45337725619E+02  0.63385162515E+02  0.82132400036E+02  0.10000000000E+01 0.  0.
    9000005    1    3    3    0    0 -0.72415127394E+02 -0.91443750691E+00  0.27302928020E+03  0.28247260879E+03  0.10000000000E+01 0.  0.
         -4    1    1    2    0  502  0.46500981750E+02 -0.44423288112E+02  0.13202359038E+03  0.14685915412E+03  0.12700000000E+01 0.  1.
<mgrwt>
<rscale>  1 0.14057786E+03</rscale>
<asrwt>0</asrwt>
<pdfrwt beam="2">  1       21 0.33095761E-02 0.14057786E+03</pdfrwt>
<pdfrwt beam="1">  1       -4 0.75379967E-01 0.14057786E+03</pdfrwt>
<totfact> 0.35433182E+04</totfact>
</mgrwt>
</event>
<event>
 6    4  0.6277709E-003  0.1346364E+03  0.7818608E-02  0.1220734E+00
         21   -1    0    0  501  502  0.00000000000E+00  0.00000000000E+00  0.68754540889E+02  0.68754540889E+02  0.00000000000E+00 0. -1.
         -4   -1    0    0    0  501 -0.00000000000E+00 -0.00000000000E+00 -0.14037010011E+03  0.14037584516E+03  0.12700000000E+01 0. -1.
         25    2    1    2    0    0  0.45189746703E+01  0.49807246807E+02 -0.82540121792E+02  0.15792353169E+03  0.12500314871E+03 0.  0.
    9000005    1    3    3    0    0  0.31714076465E+02  0.74933446953E+02 -0.88703699350E+02  0.12037504059E+03  0.10000000000E+01 0.  0.
    9000005    1    3    3    0    0 -0.27195101795E+02 -0.25126200147E+02  0.61635775580E+01  0.37548491098E+02  0.10000000000E+01 0.  0.
         -4    1    1    2    0  502 -0.45189746703E+01 -0.49807246807E+02  0.10924562571E+02  0.51206854364E+02  0.12700000000E+01 0.  1.
<mgrwt>
<rscale>  1 0.13463644E+03</rscale>
<asrwt>0</asrwt>
<pdfrwt beam="1">  1       21 0.10577622E-01 0.13463644E+03</pdfrwt>
<pdfrwt beam="2">  1       -4 0.21596744E-01 0.13463644E+03</pdfrwt>
<totfact> 0.58213054E+04</totfact>
</mgrwt>
</event>
<event>
 6    4  0.6277709E-003  0.1281239E+03  0.7818608E-02  0.1230266E+00
          4   -1    0    0  502    0 -0.00000000000E+00  0.00000000000E+00  0.52131700777E+02  0.52147167957E+02  0.12700000000E+01 0. -1.
         21   -1    0    0  501  502  0.00000000000E+00 -0.00000000000E+00 -0.17670912842E+03  0.17670912842E+03  0.00000000000E+00 0.  1.
         25    2    1    2    0    0 -0.76453788796E+01 -0.27056324668E+02 -0.31949996158E+02  0.13204746162E+03  0.12500093337E+03 0.  0.
    9000005    1    3    3    0    0 -0.64126565608E+02 -0.29174369734E+02 -0.89759733070E+01  0.71027659140E+02  0.10000000000E+01 0.  0.
    9000005    1    3    3    0    0  0.56481186729E+02  0.21180450656E+01 -0.22974022851E+02  0.61019802484E+02  0.10000000000E+01 0.  0.
          4    1    1    2  501    0  0.76453788796E+01  0.27056324668E+02 -0.92627431490E+02  0.96808834758E+02  0.12700000000E+01 0.  1.
<mgrwt>
<rscale>  1 0.12812388E+03</rscale>
<asrwt>0</asrwt>
<pdfrwt beam="2">  1       21 0.27186020E-01 0.12812388E+03</pdfrwt>
<pdfrwt beam="1">  1        4 0.80218026E-02 0.12812388E+03</pdfrwt>
<totfact> 0.57130603E+04</totfact>
</mgrwt>
</event>
<event>
 6    4  0.6277709E-003  0.1270468E+03  0.7818608E-02  0.1231905E+00
         21   -1    0    0  501  502  0.00000000000E+00  0.00000000000E+00  0.43386278701E+03  0.43386278701E+03  0.00000000000E+00 0.  1.
          4   -1    0    0  502    0 -0.00000000000E+00 -0.00000000000E+00 -0.20997218296E+02  0.21035590702E+02  0.12700000000E+01 0. -1.
         25    2    1    2    0    0  0.22591402154E+02 -0.22613896279E+01  0.17665454107E+03  0.21759530606E+03  0.12500162001E+03 0.  0.
    9000005    1    3    3    0    0 -0.65566395795E+01  0.32923526017E+02  0.16769405390E+03  0.17102410298E+03  0.10000000000E+01 0.  0.
    9000005    1    3    3    0    0  0.29148041733E+02 -0.35184915645E+02  0.89604871721E+01  0.46571203079E+02  0.10000000000E+01 0.  0.
          4    1    1    2  501    0 -0.22591402154E+02  0.22613896279E+01  0.23621102764E+03  0.23730307165E+03  0.12700000000E+01 0.  1.
<mgrwt>
<rscale>  1 0.12704680E+03</rscale>
<asrwt>0</asrwt>
<pdfrwt beam="1">  1       21 0.66748114E-01 0.12704680E+03</pdfrwt>
<pdfrwt beam="2">  1        4 0.32334363E-02 0.12704680E+03</pdfrwt>
<totfact> 0.40060226E+04</totfact>
</mgrwt>
</event>
<event>
 6    4  0.6277709E-003  0.1292861E+03  0.7818608E-02  0.1228519E+00
         21   -1    0    0  501  502  0.00000000000E+00  0.00000000000E+00  0.61185853248E+02  0.61185853248E+02  0.00000000000E+00 0. -1.
         -4   -1    0    0    0  501 -0.00000000000E+00 -0.00000000000E+00 -0.38875175443E+03  0.38875382888E+03  0.12700000000E+01 0.  1.
         25    2    1    2    0    0  0.20719375269E+02  0.25695904812E+02 -0.37242670006E+03  0.39422903493E+03  0.12500125212E+03 0.  0.
    9000005    1    3    3    0    0  0.53005309190E+02 -0.32605404335E+02 -0.16447613397E+03  0.17585810712E+03  0.10000000000E+01 0.  0.
    9000005    1    3    3    0    0 -0.32285933920E+02  0.58301309148E+02 -0.20795056609E+03  0.21837092781E+03  0.10000000000E+01 0.  0.
         -4    1    1    2    0  502 -0.20719375269E+02 -0.25695904812E+02  0.44860798875E+02  0.55710647200E+02  0.12700000000E+01 0. -1.
<mgrwt>
<rscale>  1 0.12928606E+03</rscale>
<asrwt>0</asrwt>
<pdfrwt beam="1">  1       21 0.94132081E-02 0.12928606E+03</pdfrwt>
<pdfrwt beam="2">  1       -4 0.59809136E-01 0.12928606E+03</pdfrwt>
<totfact> 0.98263906E+03</totfact>
</mgrwt>
</event>
<event>
 6    4  0.6277709E-003  0.1297976E+03  0.7818608E-02  0.1227756E+00
          4   -1    0    0  502    0 -0.00000000000E+00  0.00000000000E+00  0.67768297076E+03  0.67768416077E+03  0.12700000000E+01 0.  1.
         21   -1    0    0  501  502  0.00000000000E+00 -0.00000000000E+00 -0.11261765741E+02  0.11261765741E+02  0.00000000000E+00 0.  1.
         25    2    1    2    0    0  0.32153905785E+02  0.13959791527E+02  0.40783607307E+03  0.42799261114E+03  0.12497465047E+03 0.  0.
    9000005    1    3    3    0    0  0.53141673519E+02  0.15072478657E+02  0.68490119878E+02  0.87994963482E+02  0.10000000000E+01 0.  0.
    9000005    1    3    3    0    0 -0.20987767734E+02 -0.11126871305E+01  0.33934595319E+03  0.33999764766E+03  0.10000000000E+01 0.  0.
          4    1    1    2  501    0 -0.32153905785E+02 -0.13959791527E+02  0.25858513195E+03  0.26095331537E+03  0.12700000000E+01 0. -1.
<mgrwt>
<rscale>  1 0.12979758E+03</rscale>
<asrwt>0</asrwt>
<pdfrwt beam="2">  1       21 0.17325799E-02 0.12979758E+03</pdfrwt>
<pdfrwt beam="1">  1        4 0.10426449E+00 0.12979758E+03</pdfrwt>
<totfact> 0.48376259E+04</totfact>
</mgrwt>
</event>
<event>
 6    4  0.6277709E-003  0.1286542E+03  0.7818608E-02  0.1229466E+00
         21   -1    0    0  501  502  0.00000000000E+00  0.00000000000E+00  0.60987147116E+02  0.60987147116E+02  0.00000000000E+00 0.  1.
         -4   -1    0    0    0  501 -0.00000000000E+00 -0.00000000000E+00 -0.16858395463E+03  0.16858873823E+03  0.12700000000E+01 0. -1.
         25    2    1    2    0    0  0.18518876434E+02  0.24151445980E+02 -0.13650735866E+03  0.18757976654E+03  0.12500267484E+03 0.  0.
    9000005    1    3    3    0    0 -0.19191504511E+02 -0.11314579205E+02  0.15392807590E+02  0.27097455110E+02  0.10000000000E+01 0.  0.
    9000005    1    3    3    0    0  0.37710380945E+02  0.35466025185E+02 -0.15190016625E+03  0.16048231143E+03  0.10000000000E+01 0.  0.
         -4    1    1    2    0  502 -0.18518876434E+02 -0.24151445980E+02  0.28910551149E+02  0.41996118810E+02  0.12700000000E+01 0.  1.
<mgrwt>
<rscale>  1 0.12865423E+03</rscale>
<asrwt>0</asrwt>
<pdfrwt beam="1">  1       21 0.93826382E-02 0.12865423E+03</pdfrwt>
<pdfrwt beam="2">  1       -4 0.25937378E-01 0.12865423E+03</pdfrwt>
<totfact> 0.51029895E+04</totfact>
</mgrwt>
</event>
<event>
 6    4  0.6277709E-003  0.1279165E+03  0.7818608E-02  0.1230580E+00
         21   -1    0    0  501  502  0.00000000000E+00  0.00000000000E+00  0.43714747791E+02  0.43714747791E+02  0.00000000000E+00 0. -1.
          4   -1    0    0  502    0 -0.00000000000E+00 -0.00000000000E+00 -0.61088505023E+03  0.61088637036E+03  0.12700000000E+01 0.  1.
         25    2    1    2    0    0  0.14558165751E+02 -0.22903322706E+02 -0.59914213994E+03  0.61264502593E+03  0.12500448620E+03 0.  0.
    9000005    1    3    3    0    0  0.90391292007E+01  0.48155920142E+02 -0.35313420153E+03  0.35651853078E+03  0.10000000000E+01 0.  0.
    9000005    1    3    3    0    0  0.55190365507E+01 -0.71059242848E+02 -0.24600793841E+03  0.25612649516E+03  0.10000000000E+01 0.  0.
          4    1    1    2  501    0 -0.14558165751E+02  0.22903322706E+02  0.31971837501E+02  0.41956092218E+02  0.12700000000E+01 0. -1.
<mgrwt>
<rscale>  1 0.12791647E+03</rscale>
<asrwt>0</asrwt>
<pdfrwt beam="1">  1       21 0.67253463E-02 0.12791647E+03</pdfrwt>
<pdfrwt beam="2">  1        4 0.93983829E-01 0.12791647E+03</pdfrwt>
<totfact> 0.65335211E+03</totfact>
</mgrwt>
</event>
<event>
 6    4  0.6277709E-003  0.1270085E+03  0.7818608E-02  0.1231963E+00
         21   -1    0    0  501  502  0.00000000000E+00  0.00000000000E+00  0.23293971586E+02  0.23293971586E+02  0.00000000000E+00 0.  1.
         -4   -1    0    0    0  501 -0.00000000000E+00 -0.00000000000E+00 -0.31607315158E+03  0.31607570304E+03  0.12700000000E+01 0.  1.
         25    2    1    2    0    0 -0.21751908492E+02 -0.56800518012E+01 -0.29011136627E+03  0.31669504912E+03  0.12500296311E+03 0.  0.
    9000005    1    3    3    0    0 -0.12772636886E+02  0.91332895913E+01  0.82936527395E+01  0.17786003135E+02  0.10000000000E+01 0.  0.
    9000005    1    3    3    0    0 -0.89792716064E+01 -0.14813341393E+02 -0.29840501901E+03  0.29890904599E+03  0.10000000000E+01 0.  0.
         -4    1    1    2    0  502  0.21751908492E+02  0.56800518012E+01 -0.26678137222E+01  0.22674625500E+02  0.12700000000E+01 0. -1.
<mgrwt>
<rscale>  1 0.12700846E+03</rscale>
<asrwt>0</asrwt>
<pdfrwt beam="1">  1       21 0.35836881E-02 0.12700846E+03</pdfrwt>
<pdfrwt beam="2">  1       -4 0.48629495E-01 0.12700846E+03</pdfrwt>
<totfact> 0.77108965E+04</totfact>
</mgrwt>
</event>
<event>
 6    4  0.6277709E-003  0.1282383E+03  0.7818608E-02  0.1230093E+00
         21   -1    0    0  501  502  0.00000000000E+00  0.00000000000E+00  0.74167149007E+02  0.74167149007E+02  0.00000000000E+00 0. -1.
         -4   -1    0    0    0  501 -0.00000000000E+00 -0.00000000000E+00 -0.10261500751E+03  0.10262286619E+03  0.12700000000E+01 0.  1.
         25    2    1    2    0    0 -0.28077595767E+02  0.57296408992E+01 -0.53264645125E+02  0.13886026478E+03  0.12499548210E+03 0.  0.
    9000005    1    3    3    0    0 -0.72483272120E+02  0.89844072429E+01 -0.59079242488E+02  0.93946267641E+02  0.10000000000E+01 0.  0.
    9000005    1    3    3    0    0  0.44405676353E+02 -0.32547663437E+01  0.58145973629E+01  0.44913997137E+02  0.10000000000E+01 0.  0.
         -4    1    1    2    0  502  0.28077595767E+02 -0.57296408992E+01  0.24816786623E+02  0.37929750423E+02  0.12700000000E+01 0. -1.
<mgrwt>
<rscale>  1 0.12823826E+03</rscale>
<asrwt>0</asrwt>
<pdfrwt beam="1">  1       21 0.11410331E-01 0.12823826E+03</pdfrwt>
<pdfrwt beam="2">  1       -4 0.15788365E-01 0.12823826E+03</pdfrwt>
<totfact> 0.88464092E+04</totfact>
</mgrwt>
</event>
<event>
 6    4  0.6277709E-003  0.1288303E+03  0.7818608E-02  0.1229202E+00
         21   -1    0    0  501  502  0.00000000000E+00  0.00000000000E+00  0.76440773548E+02  0.76440773548E+02  0.00000000000E+00 0.  1.
          4   -1    0    0  502    0 -0.00000000000E+00 -0.00000000000E+00 -0.94220912252E+02  0.94229471004E+02  0.12700000000E+01 0. -1.
         25    2    1    2    0    0  0.79756664728E+01 -0.30131369783E+02 -0.36989358588E+02  0.13403531956E+03  0.12500297412E+03 0.  0.
    9000005    1    3    3    0    0 -0.34511623040E+02  0.26316823445E+02  0.15411855742E+02  0.46066827745E+02  0.10000000000E+01 0.  0.
    9000005    1    3    3    0    0  0.42487289513E+02 -0.56448193228E+02 -0.52401214330E+02  0.87968491814E+02  0.10000000000E+01 0.  0.
          4    1    1    2  501    0 -0.79756664728E+01  0.30131369783E+02  0.19209219883E+02  0.36634924992E+02  0.12700000000E+01 0.  1.
<mgrwt>
<rscale>  1 0.12883033E+03</rscale>
<asrwt>0</asrwt>
<pdfrwt beam="1">  1       21 0.11760119E-01 0.12883033E+03</pdfrwt>
<pdfrwt beam="2">  1        4 0.14496995E-01 0.12883033E+03</pdfrwt>
<totfact> 0.97401218E+04</totfact>
</mgrwt>
</event>
<event>
 6    4  0.6277709E-003  0.1291996E+03  0.7818608E-02  0.1228648E+00
         21   -1    0    0  501  502  0.00000000000E+00  0.00000000000E+00  0.11852722959E+03  0.11852722959E+03  0.00000000000E+00 0.  1.
         -4   -1    0    0    0  501 -0.00000000000E+00 -0.00000000000E+00 -0.11368225509E+03  0.11368934877E+03  0.12700000000E+01 0. -1.
         25    2    1    2    0    0 -0.14016475919E+02 -0.29518119865E+02 -0.72564732465E+02  0.14818291469E+03  0.12499901923E+03 0.  0.
    9000005    1    3    3    0    0  0.42676057441E+02  0.12835090380E+02  0.29679922086E+01  0.44674314785E+02  0.10000000000E+01 0.  0.
    9000005    1    3    3    0    0 -0.56692533360E+02 -0.42353210245E+02 -0.75532724674E+02  0.10350859990E+03  0.10000000000E+01 0.  0.
         -4    1    1    2    0  502  0.14016475919E+02  0.29518119865E+02  0.77409706967E+02  0.84033663673E+02  0.12700000000E+01 0.  1.
<mgrwt>
<rscale>  1 0.12919960E+03</rscale>
<asrwt>0</asrwt>
<pdfrwt beam="1">  1       21 0.18234958E-01 0.12919960E+03</pdfrwt>
<pdfrwt beam="2">  1       -4 0.17490647E-01 0.12919960E+03</pdfrwt>
<totfact> 0.31831160E+04</totfact>
</mgrwt>
</event>
<event>
 6    4  0.6277709E-003  0.1633480E+03  0.7818608E-02  0.1184968E+00
         21   -1    0    0  501  502  0.00000000000E+00  0.00000000000E+00  0.39738449340E+03  0.39738449340E+03  0.00000000000E+00 0.  1.
          4   -1    0    0  502    0 -0.00000000000E+00 -0.00000000000E+00 -0.13646833767E+03  0.13647424697E+03  0.12700000000E+01 0. -1.
         25    2    1    2    0    0  0.18637620077E+02  0.10348823518E+03 -0.76544016136E+02  0.18039282094E+03  0.12500163095E+03 0.  0.
    9000005    1    3    3    0    0  0.38821404709E+02 -0.16038468035E+02 -0.16843043859E+02  0.45266124717E+02  0.10000000000E+01 0.  0.
    9000005    1    3    3    0    0 -0.20183784632E+02  0.11952670321E+03 -0.59700972277E+02  0.13512669623E+03  0.10000000000E+01 0.  0.
          4    1    1    2  501    0 -0.18637620077E+02 -0.10348823518E+03  0.33746017186E+03  0.35346591943E+03  0.12700000000E+01 0.  1.
<mgrwt>
<rscale>  1 0.16334804E+03</rscale>
<asrwt>0</asrwt>
<pdfrwt beam="1">  1       21 0.61136075E-01 0.16334804E+03</pdfrwt>
<pdfrwt beam="2">  1        4 0.20995740E-01 0.16334804E+03</pdfrwt>
<totfact> 0.21541894E+03</totfact>
</mgrwt>
</event>
<event>
 6    4  0.6277709E-003  0.1285154E+03  0.7818608E-02  0.1229675E+00
         21   -1    0    0  501  502  0.00000000000E+00  0.00000000000E+00  0.16705754221E+03  0.16705754221E+03  0.00000000000E+00 0. -1.
          4   -1    0    0  502    0 -0.00000000000E+00 -0.00000000000E+00 -0.37528345095E+02  0.37549828037E+02  0.12700000000E+01 0.  1.
         25    2    1    2    0    0 -0.28494902329E+02  0.88728233789E+01  0.10508171836E+03  0.16600712969E+03  0.12500205247E+03 0.  0.
    9000005    1    3    3    0    0  0.42018775787E+02 -0.23329198419E+02  0.23650299204E+02  0.53573927147E+02  0.10000000000E+01 0.  0.
    9000005    1    3    3    0    0 -0.70513678115E+02  0.32202021798E+02  0.81431419151E+02  0.11243320254E+03  0.10000000000E+01 0.  0.
          4    1    1    2  501    0  0.28494902329E+02 -0.88728233789E+01  0.24447478765E+02  0.38600240561E+02  0.12700000000E+01 0. -1.
<mgrwt>
<rscale>  1 0.12851537E+03</rscale>
<asrwt>0</asrwt>
<pdfrwt beam="1">  1       21 0.25701160E-01 0.12851537E+03</pdfrwt>
<pdfrwt beam="2">  1        4 0.57756155E-02 0.12851537E+03</pdfrwt>
<totfact> 0.10887404E+05</totfact>
</mgrwt>
</event>
<event>
 6    4  0.6277709E-003  0.1394474E+03  0.7818608E-02  0.1214074E+00
          4   -1    0    0  502    0 -0.00000000000E+00  0.00000000000E+00  0.17760332074E+03  0.17760786142E+03  0.12700000000E+01 0.  1.
         21   -1    0    0  501  502  0.00000000000E+00 -0.00000000000E+00 -0.65454855693E+02  0.65454855693E+02  0.00000000000E+00 0. -1.
         25    2    1    2    0    0 -0.51052866823E+02  0.34855694409E+02  0.34219266957E+02  0.14358464185E+03  0.12499710596E+03 0.  0.
    9000005    1    3    3    0    0  0.13261129083E+02 -0.32713246741E+02 -0.14696228916E+02  0.38249094123E+02  0.10000000000E+01 0.  0.
    9000005    1    3    3    0    0 -0.64313995907E+02  0.67568941150E+02  0.48915495873E+02  0.10533554772E+03  0.10000000000E+01 0.  0.
          4    1    1    2  501    0  0.51052866823E+02 -0.34855694409E+02  0.77929198090E+02  0.99478075266E+02  0.12700000000E+01 0. -1.
<mgrwt>
<rscale>  1 0.13944745E+03</rscale>
<asrwt>0</asrwt>
<pdfrwt beam="2">  1       21 0.10069978E-01 0.13944745E+03</pdfrwt>
<pdfrwt beam="1">  1        4 0.27324885E-01 0.13944745E+03</pdfrwt>
<totfact> 0.41332554E+04</totfact>
</mgrwt>
</event>
<event>
 6    4  0.6277709E-003  0.1267374E+03  0.7818608E-02  0.1232379E+00
         21   -1    0    0  501  502  0.00000000000E+00  0.00000000000E+00  0.17522097386E+03  0.17522097386E+03  0.00000000000E+00 0.  1.
          4   -1    0    0  502    0 -0.00000000000E+00 -0.00000000000E+00 -0.36258881158E+02  0.36281115789E+02  0.12700000000E+01 0.  1.
         25    2    1    2    0    0 -0.20504865293E+02  0.42091586781E+01  0.82378686092E+02  0.15115756777E+03  0.12499678337E+03 0.  0.
    9000005    1    3    3    0    0 -0.10406458824E+02 -0.55453900951E+02  0.10855509656E+02  0.57465394855E+02  0.10000000000E+01 0.  0.
    9000005    1    3    3    0    0 -0.10098406469E+02  0.59663059629E+02  0.71523176436E+02  0.93692172913E+02  0.10000000000E+01 0.  0.
          4    1    1    2  501    0  0.20504865293E+02 -0.42091586781E+01  0.56583406605E+02  0.60344521877E+02  0.12700000000E+01 0. -1.
<mgrwt>
<rscale>  1 0.12673738E+03</rscale>
<asrwt>0</asrwt>
<pdfrwt beam="1">  1       21 0.26957072E-01 0.12673738E+03</pdfrwt>
<pdfrwt beam="2">  1        4 0.55803539E-02 0.12673738E+03</pdfrwt>
<totfact> 0.10493207E+05</totfact>
</mgrwt>
</event>
<event>
 6    4  0.6277709E-003  0.1291371E+03  0.7818608E-02  0.1228742E+00
          4   -1    0    0  502    0 -0.00000000000E+00  0.00000000000E+00  0.10362183682E+03  0.10362961916E+03  0.12700000000E+01 0. -1.
         21   -1    0    0  501  502  0.00000000000E+00 -0.00000000000E+00 -0.65018419464E+02  0.65018419464E+02  0.00000000000E+00 0. -1.
         25    2    1    2    0    0 -0.21553909525E+02 -0.24221965172E+02  0.18444431933E+02  0.13044761708E+03  0.12500043648E+03 0.  0.
    9000005    1    3    3    0    0 -0.13630883238E+02 -0.74331311049E+02 -0.23411813298E+01  0.75613662192E+02  0.10000000000E+01 0.  0.
    9000005    1    3    3    0    0 -0.79230262867E+01  0.50109345877E+02  0.20785613262E+02  0.54833954886E+02  0.10000000000E+01 0.  0.
          4    1    1    2  501    0  0.21553909525E+02  0.24221965172E+02  0.20158985428E+02  0.38200421544E+02  0.12700000000E+01 0.  1.
<mgrwt>
<rscale>  1 0.12913707E+03</rscale>
<asrwt>0</asrwt>
<pdfrwt beam="2">  1       21 0.10002834E-01 0.12913707E+03</pdfrwt>
<pdfrwt beam="1">  1        4 0.15943374E-01 0.12913707E+03</pdfrwt>
<totfact> 0.10970345E+05</totfact>
</mgrwt>
</event>
<event>
 6    4  0.6277709E-003  0.1284523E+03  0.7818608E-02  0.1229770E+00
         -4   -1    0    0    0  501 -0.00000000000E+00  0.00000000000E+00  0.36487513443E+03  0.36487734463E+03  0.12700000000E+01 0.  1.
         21   -1    0    0  501  502  0.00000000000E+00 -0.00000000000E+00 -0.97048760195E+02  0.97048760195E+02  0.00000000000E+00 0. -1.
         25    2    1    2    0    0 -0.28308772444E+02  0.86728256066E+01  0.35092811840E+03  0.37369846015E+03  0.12499356119E+03 0.  0.
    9000005    1    3    3    0    0 -0.15256731011E+02  0.48492000267E+02  0.55333457797E+02  0.75146746322E+02  0.10000000000E+01 0.  0.
    9000005    1    3    3    0    0 -0.13052041432E+02 -0.39819174660E+02  0.29559466060E+03  0.29855171383E+03  0.10000000000E+01 0.  0.
         -4    1    1    2    0  502  0.28308772444E+02 -0.86728256066E+01 -0.83101744164E+02  0.88227644672E+02  0.12700000000E+01 0. -1.
<mgrwt>
<rscale>  1 0.12845231E+03</rscale>
<asrwt>0</asrwt>
<pdfrwt beam="2">  1       21 0.14930579E-01 0.12845231E+03</pdfrwt>
<pdfrwt beam="1">  1       -4 0.56135444E-01 0.12845231E+03</pdfrwt>
<totfact> 0.49521575E+03</totfact>
</mgrwt>
</event>
<event>
 6    4  0.6277709E-003  0.1435376E+03  0.7818608E-02  0.1208647E+00
          4   -1    0    0  502    0 -0.00000000000E+00  0.00000000000E+00  0.74200682842E+03  0.74200791526E+03  0.12700000000E+01 0.  1.
         21   -1    0    0  501  502  0.00000000000E+00 -0.00000000000E+00 -0.16829286105E+02  0.16829286105E+02  0.00000000000E+00 0.  1.
         25    2    1    2    0    0  0.10780470731E+02  0.69728880655E+02  0.57886315691E+03  0.59639383394E+03  0.12499886155E+03 0.  0.
    9000005    1    3    3    0    0  0.10109895393E+02  0.86624768655E+02  0.21336130015E+03  0.23049968532E+03  0.10000000000E+01 0.  0.
    9000005    1    3    3    0    0  0.67057533797E+00 -0.16895888000E+02  0.36550185676E+03  0.36589414863E+03  0.10000000000E+01 0.  0.
          4    1    1    2  501    0 -0.10780470731E+02 -0.69728880655E+02  0.14631438540E+03  0.16244336743E+03  0.12700000000E+01 0. -1.
<mgrwt>
<rscale>  1 0.14353763E+03</rscale>
<asrwt>0</asrwt>
<pdfrwt beam="2">  1       21 0.25891215E-02 0.14353763E+03</pdfrwt>
<pdfrwt beam="1">  1        4 0.11415864E+00 0.14353763E+03</pdfrwt>
<totfact> 0.20631889E+04</totfact>
</mgrwt>
</event>
<event>
 6    4  0.6277709E-003  0.1267898E+03  0.7818608E-02  0.1232298E+00
         21   -1    0    0  501  502  0.00000000000E+00  0.00000000000E+00  0.12516274371E+03  0.12516274371E+03  0.00000000000E+00 0.  1.
         -4   -1    0    0    0  501 -0.00000000000E+00 -0.00000000000E+00 -0.45879314422E+02  0.45896888694E+02  0.12700000000E+01 0.  1.
         25    2    1    2    0    0 -0.83131442341E+01 -0.19527582674E+02  0.53433347370E+02  0.13758913066E+03  0.12500084564E+03 0.  0.
    9000005    1    3    3    0    0 -0.16122859670E+02 -0.60144751166E+02  0.69396831841E+02  0.93243004919E+02  0.10000000000E+01 0.  0.
    9000005    1    3    3    0    0  0.78097154355E+01  0.40617168492E+02 -0.15963484471E+02  0.44346125738E+02  0.10000000000E+01 0.  0.
         -4    1    1    2    0  502  0.83131442341E+01  0.19527582674E+02  0.25850081923E+02  0.33470501752E+02  0.12700000000E+01 0. -1.
<mgrwt>
<rscale>  1 0.12678977E+03</rscale>
<asrwt>0</asrwt>
<pdfrwt beam="1">  1       21 0.19255807E-01 0.12678977E+03</pdfrwt>
<pdfrwt beam="2">  1       -4 0.70602036E-02 0.12678977E+03</pdfrwt>
<totfact> 0.13432165E+05</totfact>
</mgrwt>
</event>
<event>
 6    4  0.6277709E-003  0.1334635E+03  0.7818608E-02  0.1222405E+00
         -4   -1    0    0    0  501 -0.00000000000E+00  0.00000000000E+00  0.69107792132E+02  0.69119460598E+02  0.12700000000E+01 0. -1.
         21   -1    0    0  501  502  0.00000000000E+00 -0.00000000000E+00 -0.21370037620E+03  0.21370037620E+03  0.00000000000E+00 0.  1.
         25    2    1    2    0    0  0.42673131914E+02  0.19202259588E+02 -0.27925626970E+01  0.13349273972E+03  0.12499116045E+03 0.  0.
    9000005    1    3    3    0    0  0.22587044443E+02 -0.34833964171E+00  0.60325160813E+02  0.64423760712E+02  0.10000000000E+01 0.  0.
    9000005    1    3    3    0    0  0.20086087471E+02  0.19550599230E+02 -0.63117723510E+02  0.69068979008E+02  0.10000000000E+01 0.  0.
         -4    1    1    2    0  502 -0.42673131914E+02 -0.19202259588E+02 -0.14180002137E+03  0.14932709707E+03  0.12700000000E+01 0.  1.
<mgrwt>
<rscale>  1 0.13346353E+03</rscale>
<asrwt>0</asrwt>
<pdfrwt beam="2">  1       21 0.32876981E-01 0.13346353E+03</pdfrwt>
<pdfrwt beam="1">  1       -4 0.10633156E-01 0.13346353E+03</pdfrwt>
<totfact> 0.24819188E+04</totfact>
</mgrwt>
</event>
<event>
 6    4  0.6277709E-003  0.1286703E+03  0.7818608E-02  0.1229442E+00
          4   -1    0    0  502    0 -0.00000000000E+00  0.00000000000E+00  0.31752892466E+03  0.31753146442E+03  0.12700000000E+01 0.  1.
         21   -1    0    0  501  502  0.00000000000E+00 -0.00000000000E+00 -0.24773230587E+02  0.24773230587E+02  0.00000000000E+00 0.  1.
         25    2    1    2    0    0 -0.16142367536E+02 -0.25914884683E+02  0.28189866324E+03  0.30987561398E+03  0.12499553002E+03 0.  0.
    9000005    1    3    3    0    0  0.11813492404E+02  0.23756551814E+02  0.23375870138E+03  0.23526169010E+03  0.10000000000E+01 0.  0.
    9000005    1    3    3    0    0 -0.27955859940E+02 -0.49671436497E+02  0.48139961854E+02  0.74613923874E+02  0.10000000000E+01 0.  0.
          4    1    1    2  501    0  0.16142367536E+02  0.25914884683E+02  0.10857030833E+02  0.32429081027E+02  0.12700000000E+01 0. -1.
<mgrwt>
<rscale>  1 0.12867028E+03</rscale>
<asrwt>0</asrwt>
<pdfrwt beam="2">  1       21 0.38112665E-02 0.12867028E+03</pdfrwt>
<pdfrwt beam="1">  1        4 0.48853300E-01 0.12867028E+03</pdfrwt>
<totfact> 0.69123310E+04</totfact>
</mgrwt>
</event>
<event>
 6    4  0.6277709E-003  0.1500219E+03  0.7818608E-02  0.1200446E+00
         -4   -1    0    0    0  501 -0.00000000000E+00  0.00000000000E+00  0.91056963933E+02  0.91065820047E+02  0.12700000000E+01 0.  1.
         21   -1    0    0  501  502  0.00000000000E+00 -0.00000000000E+00 -0.52393183291E+03  0.52393183291E+03  0.00000000000E+00 0. -1.
         25    2    1    2    0    0  0.41609885829E+02 -0.71764749940E+02  0.22876779354E+02  0.15175609633E+03  0.12500001522E+03 0.  0.
    9000005    1    3    3    0    0  0.57049546902E+02  0.99470747824E+01 -0.15804847591E+02  0.60036558078E+02  0.10000000000E+01 0.  0.
    9000005    1    3    3    0    0 -0.15439661073E+02 -0.81711824722E+02  0.38681626945E+02  0.91719538249E+02  0.10000000000E+01 0.  0.
         -4    1    1    2    0  502 -0.41609885829E+02  0.71764749940E+02 -0.45575164833E+03  0.46324155663E+03  0.12700000000E+01 0. -1.
<mgrwt>
<rscale>  1 0.15002188E+03</rscale>
<asrwt>0</asrwt>
<pdfrwt beam="2">  1       21 0.80604897E-01 0.15002188E+03</pdfrwt>
<pdfrwt beam="1">  1       -4 0.14009563E-01 0.15002188E+03</pdfrwt>
<totfact> 0.24026488E+03</totfact>
</mgrwt>
</event>
<event>
 6    4  0.6277709E-003  0.1305943E+03  0.7818608E-02  0.1226577E+00
         21   -1    0    0  501  502  0.00000000000E+00  0.00000000000E+00  0.21578888900E+03  0.21578888900E+03  0.00000000000E+00 0. -1.
          4   -1    0    0  502    0 -0.00000000000E+00 -0.00000000000E+00 -0.37443326907E+02  0.37464858599E+02  0.12700000000E+01 0. -1.
         25    2    1    2    0    0 -0.25012081730E+02  0.28342706496E+02  0.94275440510E+02  0.16106746073E+03  0.12500381985E+03 0.  0.
    9000005    1    3    3    0    0 -0.47016385227E+02  0.63415709215E+02  0.29699470757E+02  0.84351355759E+02  0.10000000000E+01 0.  0.
    9000005    1    3    3    0    0  0.22004303497E+02 -0.35073002719E+02  0.64575969754E+02  0.76716104970E+02  0.10000000000E+01 0.  0.
          4    1    1    2  501    0  0.25012081730E+02 -0.28342706496E+02  0.84070121581E+02  0.92186286869E+02  0.12700000000E+01 0.  1.
<mgrwt>
<rscale>  1 0.13059429E+03</rscale>
<asrwt>0</asrwt>
<pdfrwt beam="1">  1       21 0.33198290E-01 0.13059429E+03</pdfrwt>
<pdfrwt beam="2">  1        4 0.57624557E-02 0.13059429E+03</pdfrwt>
<totfact> 0.66930105E+04</totfact>
</mgrwt>
</event>
<event>
 6    4  0.6277709E-003  0.1451650E+03  0.7818608E-02  0.1206543E+00
          4   -1    0    0  502    0 -0.00000000000E+00  0.00000000000E+00  0.20030336571E+03  0.20030739181E+03  0.12700000000E+01 0.  1.
         21   -1    0    0  501  502  0.00000000000E+00 -0.00000000000E+00 -0.69749656824E+02  0.69749656824E+02  0.00000000000E+00 0.  1.
         25    2    1    2    0    0  0.69356211426E+02  0.25254210311E+02  0.35028917065E+02  0.14933150058E+03  0.12499925133E+03 0.  0.
    9000005    1    3    3    0    0  0.44774596448E+02 -0.33347177783E+02  0.59159289845E+02  0.81348757385E+02  0.10000000000E+01 0.  0.
    9000005    1    3    3    0    0  0.24581614979E+02  0.58601388094E+02 -0.24130372780E+02  0.67982743192E+02  0.10000000000E+01 0.  0.
          4    1    1    2  501    0 -0.69356211426E+02 -0.25254210311E+02  0.95524791820E+02  0.12072554806E+03  0.12700000000E+01 0. -1.
<mgrwt>
<rscale>  1 0.14516498E+03</rscale>
<asrwt>0</asrwt>
<pdfrwt beam="2">  1       21 0.10730717E-01 0.14516498E+03</pdfrwt>
<pdfrwt beam="1">  1        4 0.30817101E-01 0.14516498E+03</pdfrwt>
<totfact> 0.29601161E+04</totfact>
</mgrwt>
</event>
<event>
 6    4  0.6277709E-003  0.1344900E+03  0.7818608E-02  0.1220941E+00
         -4   -1    0    0    0  501 -0.00000000000E+00  0.00000000000E+00  0.13213093033E+03  0.13213703360E+03  0.12700000000E+01 0. -1.
         21   -1    0    0  501  502  0.00000000000E+00 -0.00000000000E+00 -0.13025339643E+03  0.13025339643E+03  0.00000000000E+00 0.  1.
         25    2    1    2    0    0 -0.11708653270E+02 -0.48221586270E+02  0.89595576269E+02  0.16160113595E+03  0.12500058364E+03 0.  0.
    9000005    1    3    3    0    0  0.56675621180E+01 -0.68592494554E+02  0.10872283967E+03  0.12868064126E+03  0.10000000000E+01 0.  0.
    9000005    1    3    3    0    0 -0.17376215388E+02  0.20370908284E+02 -0.19127263401E+02  0.32920494692E+02  0.10000000000E+01 0.  0.
         -4    1    1    2    0  502  0.11708653270E+02  0.48221586270E+02 -0.87718042369E+02  0.10078929408E+03  0.12700000000E+01 0.  1.
<mgrwt>
<rscale>  1 0.13449000E+03</rscale>
<asrwt>0</asrwt>
<pdfrwt beam="2">  1       21 0.20038984E-01 0.13449000E+03</pdfrwt>
<pdfrwt beam="1">  1       -4 0.20328781E-01 0.13449000E+03</pdfrwt>
<totfact> 0.20538048E+04</totfact>
</mgrwt>
</event>
<event>
 6    4  0.6277709E-003  0.1325712E+03  0.7818608E-02  0.1223690E+00
          4   -1    0    0  502    0 -0.00000000000E+00  0.00000000000E+00  0.71087460980E+01  0.72212998197E+01  0.12700000000E+01 0. -1.
         21   -1    0    0  501  502  0.00000000000E+00 -0.00000000000E+00 -0.14475054979E+04  0.14475054979E+04  0.00000000000E+00 0.  1.
         25    2    1    2    0    0  0.60264115542E+01  0.43639245928E+02 -0.66539790213E+03  0.67847585162E+03  0.12503764096E+03 0.  0.
    9000005    1    3    3    0    0 -0.56583925403E+02  0.36175765020E+02 -0.27936083228E+03  0.28732194695E+03  0.10000000000E+01 0.  0.
    9000005    1    3    3    0    0  0.62610336957E+02  0.74634809080E+01 -0.38603706985E+03  0.39115390467E+03  0.10000000000E+01 0.  0.
          4    1    1    2  501    0 -0.60264115542E+01 -0.43639245928E+02 -0.77499884971E+03  0.77625094613E+03  0.12700000000E+01 0.  1.
<mgrwt>
<rscale>  1 0.13257116E+03</rscale>
<asrwt>0</asrwt>
<pdfrwt beam="2">  1       21 0.22269309E+00 0.13257116E+03</pdfrwt>
<pdfrwt beam="1">  1        4 0.11023544E-02 0.13257116E+03</pdfrwt>
<totfact> 0.10349960E+04</totfact>
</mgrwt>
</event>
<event>
 6    4  0.6277709E-003  0.1285542E+03  0.7818608E-02  0.1229617E+00
         -4   -1    0    0    0  501 -0.00000000000E+00  0.00000000000E+00  0.27535425078E+03  0.27535717953E+03  0.12700000000E+01 0. -1.
         21   -1    0    0  501  502  0.00000000000E+00 -0.00000000000E+00 -0.22880128102E+02  0.22880128102E+02  0.00000000000E+00 0. -1.
         25    2    1    2    0    0  0.54744403125E+01  0.29521609003E+02  0.20951306749E+03  0.24580868895E+03  0.12499876487E+03 0.  0.
    9000005    1    3    3    0    0  0.18742908354E+02 -0.45101599843E+02  0.54077055204E+02  0.72875090542E+02  0.10000000000E+01 0.  0.
    9000005    1    3    3    0    0 -0.13268468042E+02  0.74623208846E+02  0.15543601229E+03  0.17293359841E+03  0.10000000000E+01 0.  0.
         -4    1    1    2    0  502 -0.54744403125E+01 -0.29521609003E+02  0.42961055182E+02  0.52428618685E+02  0.12700000000E+01 0.  1.
<mgrwt>
<rscale>  1 0.12855421E+03</rscale>
<asrwt>0</asrwt>
<pdfrwt beam="2">  1       21 0.35200199E-02 0.12855421E+03</pdfrwt>
<pdfrwt beam="1">  1       -4 0.42365126E-01 0.12855421E+03</pdfrwt>
<totfact> 0.10489024E+05</totfact>
</mgrwt>
</event>
<event>
 6    4  0.6277709E-003  0.1269282E+03  0.7818608E-02  0.1232086E+00
          4   -1    0    0  502    0 -0.00000000000E+00  0.00000000000E+00  0.48427401817E+02  0.48444051716E+02  0.12700000000E+01 0. -1.
         21   -1    0    0  501  502  0.00000000000E+00 -0.00000000000E+00 -0.11478419769E+03  0.11478419769E+03  0.00000000000E+00 0. -1.
         25    2    1    2    0    0  0.21951593590E+02 -0.15552617423E+01 -0.53799604792E+02  0.13785922798E+03  0.12500591172E+03 0.  0.
    9000005    1    3    3    0    0 -0.40719560333E+02  0.28233431266E+02 -0.46705263965E+02  0.68099859889E+02  0.10000000000E+01 0.  0.
    9000005    1    3    3    0    0  0.62671153923E+02 -0.29788693008E+02 -0.70943408265E+01  0.69759368094E+02  0.10000000000E+01 0.  0.
          4    1    1    2  501    0 -0.21951593590E+02  0.15552617423E+01 -0.12557191084E+02  0.25369021427E+02  0.12700000000E+01 0.  1.
<mgrwt>
<rscale>  1 0.12692821E+03</rscale>
<asrwt>0</asrwt>
<pdfrwt beam="2">  1       21 0.17659107E-01 0.12692821E+03</pdfrwt>
<pdfrwt beam="1">  1        4 0.74521907E-02 0.12692821E+03</pdfrwt>
<totfact> 0.14407729E+05</totfact>
</mgrwt>
</event>
<event>
 6    4  0.6277709E-003  0.1271454E+03  0.7818608E-02  0.1231754E+00
          4   -1    0    0  502    0 -0.00000000000E+00  0.00000000000E+00  0.24530499989E+02  0.24563353389E+02  0.12700000000E+01 0. -1.
         21   -1    0    0  501  502  0.00000000000E+00 -0.00000000000E+00 -0.44014917473E+03  0.44014917473E+03  0.00000000000E+00 0. -1.
         25    2    1    2    0    0 -0.98083890789E+01 -0.21095987352E+02 -0.14400973015E+03  0.19210607760E+03  0.12499878998E+03 0.  0.
    9000005    1    3    3    0    0  0.38879268109E+02 -0.39475143768E+02 -0.22301558810E+02  0.59734780401E+02  0.10000000000E+01 0.  0.
    9000005    1    3    3    0    0 -0.48687657188E+02  0.18379156415E+02 -0.12170817134E+03  0.13237129720E+03  0.10000000000E+01 0.  0.
          4    1    1    2  501    0  0.98083890789E+01  0.21095987352E+02 -0.27160894459E+03  0.27260645051E+03  0.12700000000E+01 0.  1.
<mgrwt>
<rscale>  1 0.12714536E+03</rscale>
<asrwt>0</asrwt>
<pdfrwt beam="2">  1       21 0.67715251E-01 0.12714536E+03</pdfrwt>
<pdfrwt beam="1">  1        4 0.37765916E-02 0.12714536E+03</pdfrwt>
<totfact> 0.30407379E+04</totfact>
</mgrwt>
</event>
<event>
 6    4  0.6277709E-003  0.1417693E+03  0.7818608E-02  0.1210968E+00
         21   -1    0    0  501  502  0.00000000000E+00  0.00000000000E+00  0.38632312723E+03  0.38632312723E+03  0.00000000000E+00 0. -1.
         -4   -1    0    0    0  501 -0.00000000000E+00 -0.00000000000E+00 -0.53808369993E+02  0.53823355352E+02  0.12700000000E+01 0.  1.
         25    2    1    2    0    0 -0.56918740606E+02 -0.35132616954E+02  0.50798427952E+02  0.15059554252E+03  0.12499797333E+03 0.  0.
    9000005    1    3    3    0    0  0.37145690005E+02 -0.11208598767E+02 -0.41885744671E+01  0.39038175269E+02  0.10000000000E+01 0.  0.
    9000005    1    3    3    0    0 -0.94064430611E+02 -0.23924018186E+02  0.54987002419E+02  0.11155736725E+03  0.10000000000E+01 0.  0.
         -4    1    1    2    0  502  0.56918740606E+02  0.35132616954E+02  0.28171632929E+03  0.28955094007E+03  0.12700000000E+01 0. -1.
<mgrwt>
<rscale>  1 0.14176931E+03</rscale>
<asrwt>0</asrwt>
<pdfrwt beam="1">  1       21 0.59434326E-01 0.14176931E+03</pdfrwt>
<pdfrwt beam="2">  1       -4 0.82795243E-02 0.14176931E+03</pdfrwt>
<totfact> 0.11388767E+04</totfact>
</mgrwt>
</event>
<event>
 6    4  0.6277709E-003  0.1344451E+03  0.7818608E-02  0.1221005E+00
         -4   -1    0    0    0  501 -0.00000000000E+00  0.00000000000E+00  0.14653330546E+02  0.14708262851E+02  0.12700000000E+01 0.  1.
         21   -1    0    0  501  502  0.00000000000E+00 -0.00000000000E+00 -0.58740605447E+03  0.58740605447E+03  0.00000000000E+00 0.  1.
         25    2    1    2    0    0 -0.32962094516E+02 -0.36929141785E+02 -0.45294826691E+03  0.47248028626E+03  0.12500090889E+03 0.  0.
    9000005    1    3    3    0    0 -0.74208034225E+02 -0.19012743000E+02 -0.17669087353E+03  0.19258499820E+03  0.10000000000E+01 0.  0.
    9000005    1    3    3    0    0  0.41245939708E+02 -0.17916398785E+02 -0.27625739337E+03  0.27989528806E+03  0.10000000000E+01 0.  0.
         -4    1    1    2    0  502  0.32962094516E+02  0.36929141785E+02 -0.11980445702E+03  0.12963403106E+03  0.12700000000E+01 0. -1.
<mgrwt>
<rscale>  1 0.13444511E+03</rscale>
<asrwt>0</asrwt>
<pdfrwt beam="2">  1       21 0.90370180E-01 0.13444511E+03</pdfrwt>
<pdfrwt beam="1">  1       -4 0.22586893E-02 0.13444511E+03</pdfrwt>
<totfact> 0.35910949E+04</totfact>
</mgrwt>
</event>
<event>
 6    4  0.6277709E-003  0.1289577E+03  0.7818608E-02  0.1229011E+00
         21   -1    0    0  501  502  0.00000000000E+00  0.00000000000E+00  0.13584672352E+04  0.13584672352E+04  0.00000000000E+00 0. -1.
          4   -1    0    0  502    0 -0.00000000000E+00 -0.00000000000E+00 -0.67730520410E+01  0.68910909115E+01  0.12700000000E+01 0.  1.
         25    2    1    2    0    0 -0.24074381226E+02 -0.20653299183E+02  0.63504357725E+03  0.64800496936E+03  0.12499584275E+03 0.  0.
    9000005    1    3    3    0    0 -0.39988397429E+02 -0.67461565281E+02  0.34752508809E+03  0.35626510013E+03  0.10000000000E+01 0.  0.
    9000005    1    3    3    0    0  0.15914016203E+02  0.46808266099E+02  0.28751848916E+03  0.29173986922E+03  0.10000000000E+01 0.  0.
          4    1    1    2  501    0  0.24074381226E+02  0.20653299183E+02  0.71665060595E+03  0.71735335680E+03  0.12700000000E+01 0. -1.
<mgrwt>
<rscale>  1 0.12895773E+03</rscale>
<asrwt>0</asrwt>
<pdfrwt beam="1">  1       21 0.20899474E+00 0.12895773E+03</pdfrwt>
<pdfrwt beam="2">  1        4 0.10511347E-02 0.12895773E+03</pdfrwt>
<totfact> 0.13455727E+04</totfact>
</mgrwt>
</event>
<event>
 6    4  0.6277709E-003  0.1274997E+03  0.7818608E-02  0.1231214E+00
         -4   -1    0    0    0  501 -0.00000000000E+00  0.00000000000E+00  0.92143292298E+02  0.92152044012E+02  0.12700000000E+01 0. -1.
         21   -1    0    0  501  502  0.00000000000E+00 -0.00000000000E+00 -0.75962460476E+02  0.75962460476E+02  0.00000000000E+00 0.  1.
         25    2    1    2    0    0  0.86214349420E+01 -0.23599573834E+02  0.39840731122E+02  0.13357940987E+03  0.12499962343E+03 0.  0.
    9000005    1    3    3    0    0  0.63413889417E+02 -0.18671067783E+02  0.42325099149E+02  0.78500599750E+02  0.10000000000E+01 0.  0.
    9000005    1    3    3    0    0 -0.54792454475E+02 -0.49285060515E+01 -0.24843680269E+01  0.55078810116E+02  0.10000000000E+01 0.  0.
         -4    1    1    2    0  502 -0.86214349420E+01  0.23599573834E+02 -0.23659899300E+02  0.34535094621E+02  0.12700000000E+01 0.  1.
<mgrwt>
<rscale>  1 0.12749971E+03</rscale>
<asrwt>0</asrwt>
<pdfrwt beam="2">  1       21 0.11686532E-01 0.12749971E+03</pdfrwt>
<pdfrwt beam="1">  1       -4 0.14177381E-01 0.12749971E+03</pdfrwt>
<totfact> 0.10222501E+05</totfact>
</mgrwt>
</event>
<event>
 6    4  0.6277709E-003  0.1292525E+03  0.7818608E-02  0.1228569E+00
          4   -1    0    0  502    0 -0.00000000000E+00  0.00000000000E+00  0.25887608803E+03  0.25887920321E+03  0.12700000000E+01 0. -1.
         21   -1    0    0  501  502  0.00000000000E+00 -0.00000000000E+00 -0.45315955864E+02  0.45315955864E+02  0.00000000000E+00 0. -1.
         25    2    1    2    0    0 -0.31160209211E+02 -0.10492483195E+02  0.23265822070E+03  0.26615043898E+03  0.12500063066E+03 0.  0.
    9000005    1    3    3    0    0  0.66227797583E+01  0.17793914670E+02 -0.82026317596E+01  0.20706708546E+02  0.10000000000E+01 0.  0.
    9000005    1    3    3    0    0 -0.37782988969E+02 -0.28286397865E+02  0.24086085246E+03  0.24544373043E+03  0.10000000000E+01 0.  0.
          4    1    1    2  501    0  0.31160209211E+02  0.10492483195E+02 -0.19098088533E+02  0.38044720097E+02  0.12700000000E+01 0.  1.
<mgrwt>
<rscale>  1 0.12925250E+03</rscale>
<asrwt>0</asrwt>
<pdfrwt beam="2">  1       21 0.69716857E-02 0.12925250E+03</pdfrwt>
<pdfrwt beam="1">  1        4 0.39828698E-01 0.12925250E+03</pdfrwt>
<totfact> 0.37631116E+04</totfact>
</mgrwt>
</event>
<event>
 6    4  0.6277709E-003  0.1280399E+03  0.7818608E-02  0.1230394E+00
          4   -1    0    0  502    0 -0.00000000000E+00  0.00000000000E+00  0.17055121798E+03  0.17055594641E+03  0.12700000000E+01 0. -1.
         21   -1    0    0  501  502  0.00000000000E+00 -0.00000000000E+00 -0.46773731225E+02  0.46773731225E+02  0.00000000000E+00 0. -1.
         25    2    1    2    0    0  0.24342524828E+02 -0.13281564013E+02  0.13618486792E+03  0.18692384817E+03  0.12500099323E+03 0.  0.
    9000005    1    3    3    0    0  0.21631124426E+02 -0.17627414015E+02  0.16006395575E+03  0.16248107951E+03  0.10000000000E+01 0.  0.
    9000005    1    3    3    0    0  0.27114004028E+01  0.43458500017E+01 -0.23879087829E+02  0.24442768663E+02  0.10000000000E+01 0.  0.
          4    1    1    2  501    0 -0.24342524828E+02  0.13281564013E+02 -0.12407381165E+02  0.30405829458E+02  0.12700000000E+01 0.  1.
<mgrwt>
<rscale>  1 0.12803986E+03</rscale>
<asrwt>0</asrwt>
<pdfrwt beam="2">  1       21 0.71959587E-02 0.12803986E+03</pdfrwt>
<pdfrwt beam="1">  1        4 0.26240339E-01 0.12803986E+03</pdfrwt>
<totfact> 0.78922609E+04</totfact>
</mgrwt>
</event>
<event>
 6    4  0.6277709E-003  0.1276441E+03  0.7818608E-02  0.1230994E+00
         21   -1    0    0  501  502  0.00000000000E+00  0.00000000000E+00  0.80039891982E+02  0.80039891982E+02  0.00000000000E+00 0.  1.
         -4   -1    0    0    0  501 -0.00000000000E+00 -0.00000000000E+00 -0.75011822755E+02  0.75022572956E+02  0.12700000000E+01 0.  1.
         25    2    1    2    0    0 -0.75838856225E+01  0.24700585777E+02 -0.38766910768E+01  0.12770297088E+03  0.12500154311E+03 0.  0.
    9000005    1    3    3    0    0 -0.18362063787E+02  0.66326325229E+02  0.27858042814E+02  0.74252389553E+02  0.10000000000E+01 0.  0.
    9000005    1    3    3    0    0  0.10778178164E+02 -0.41625739452E+02 -0.31734733891E+02  0.53450581331E+02  0.10000000000E+01 0.  0.
         -4    1    1    2    0  502  0.75838856225E+01 -0.24700585777E+02  0.89047603047E+01  0.27359494055E+02  0.12700000000E+01 0. -1.
<mgrwt>
<rscale>  1 0.12764411E+03</rscale>
<asrwt>0</asrwt>
<pdfrwt beam="1">  1       21 0.12313830E-01 0.12764411E+03</pdfrwt>
<pdfrwt beam="2">  1       -4 0.11541882E-01 0.12764411E+03</pdfrwt>
<totfact> 0.13270207E+05</totfact>
</mgrwt>
</event>
<event>
 6    4  0.6277709E-003  0.1307499E+03  0.7818608E-02  0.1226347E+00
         21   -1    0    0  501  502  0.00000000000E+00  0.00000000000E+00  0.12849554903E+03  0.12849554903E+03  0.00000000000E+00 0.  1.
         -4   -1    0    0    0  501 -0.00000000000E+00 -0.00000000000E+00 -0.10319609740E+03  0.10320391184E+03  0.12700000000E+01 0. -1.
         25    2    1    2    0    0 -0.35677522631E+02  0.14048742749E+02 -0.55664464321E+02  0.14210581499E+03  0.12500110909E+03 0.  0.
    9000005    1    3    3    0    0 -0.73010572544E+02  0.41824911601E+02 -0.37873340731E+02  0.92278149482E+02  0.10000000000E+01 0.  0.
    9000005    1    3    3    0    0  0.37333049913E+02 -0.27776168852E+02 -0.17791123590E+02  0.49827665513E+02  0.10000000000E+01 0.  0.
         -4    1    1    2    0  502  0.35677522631E+02 -0.14048742749E+02  0.80963915951E+02  0.89593645869E+02  0.12700000000E+01 0.  1.
<mgrwt>
<rscale>  1 0.13074988E+03</rscale>
<asrwt>0</asrwt>
<pdfrwt beam="1">  1       21 0.19768546E-01 0.13074988E+03</pdfrwt>
<pdfrwt beam="2">  1       -4 0.15877407E-01 0.13074988E+03</pdfrwt>
<totfact> 0.32582004E+04</totfact>
</mgrwt>
</event>
<event>
 6    4  0.6277709E-003  0.1366412E+03  0.7818608E-02  0.1217921E+00
         21   -1    0    0  501  502  0.00000000000E+00  0.00000000000E+00  0.15928366999E+02  0.15928366999E+02  0.00000000000E+00 0. -1.
          4   -1    0    0  502    0 -0.00000000000E+00 -0.00000000000E+00 -0.68023476249E+03  0.68023594804E+03  0.12700000000E+01 0.  1.
         25    2    1    2    0    0 -0.42190000238E+02  0.35586700249E+02 -0.57627498045E+03  0.59225304380E+03  0.12499762177E+03 0.  0.
    9000005    1    3    3    0    0  0.32907505934E+02  0.36577871694E+02 -0.35909520835E+03  0.36245167030E+03  0.10000000000E+01 0.  0.
    9000005    1    3    3    0    0 -0.75097506172E+02 -0.99117144434E+00 -0.21717977210E+03  0.22980137350E+03  0.10000000000E+01 0.  0.
          4    1    1    2  501    0  0.42190000238E+02 -0.35586700249E+02 -0.88031415045E+02  0.10391127123E+03  0.12700000000E+01 0. -1.
<mgrwt>
<rscale>  1 0.13664119E+03</rscale>
<asrwt>0</asrwt>
<pdfrwt beam="1">  1       21 0.24505179E-02 0.13664119E+03</pdfrwt>
<pdfrwt beam="2">  1        4 0.10465549E+00 0.13664119E+03</pdfrwt>
<totfact> 0.27551173E+04</totfact>
</mgrwt>
</event>
<event>
 6    4  0.6277709E-003  0.1297886E+03  0.7818608E-02  0.1227770E+00
         21   -1    0    0  501  502  0.00000000000E+00  0.00000000000E+00  0.33439181130E+02  0.33439181130E+02  0.00000000000E+00 0.  1.
          4   -1    0    0  502    0 -0.00000000000E+00 -0.00000000000E+00 -0.21800919529E+03  0.21801289441E+03  0.12700000000E+01 0.  1.
         25    2    1    2    0    0  0.34847377285E+02  0.23185481036E+01 -0.16927225131E+03  0.21330302815E+03  0.12500148553E+03 0.  0.
    9000005    1    3    3    0    0  0.50201870256E+02 -0.25848428016E+02 -0.18914432526E+02  0.59557743123E+02  0.10000000000E+01 0.  0.
    9000005    1    3    3    0    0 -0.15354492970E+02  0.28166976120E+02 -0.15035781878E+03  0.15374528502E+03  0.10000000000E+01 0.  0.
          4    1    1    2  501    0 -0.34847377285E+02 -0.23185481036E+01 -0.15297762851E+02  0.38149047396E+02  0.12700000000E+01 0. -1.
<mgrwt>
<rscale>  1 0.12978862E+03</rscale>
<asrwt>0</asrwt>
<pdfrwt beam="1">  1       21 0.51444893E-02 0.12978862E+03</pdfrwt>
<pdfrwt beam="2">  1        4 0.33542016E-01 0.12978862E+03</pdfrwt>
<totfact> 0.87981337E+04</totfact>
</mgrwt>
</event>
<event>
 6    4  0.6277709E-003  0.1491739E+03  0.7818608E-02  0.1201492E+00
         21   -1    0    0  501  502  0.00000000000E+00  0.00000000000E+00  0.40560776946E+02  0.40560776946E+02  0.00000000000E+00 0. -1.
          4   -1    0    0  502    0 -0.00000000000E+00 -0.00000000000E+00 -0.54831016444E+03  0.54831163523E+03  0.12700000000E+01 0.  1.
         25    2    1    2    0    0  0.78448870617E+02  0.21769899445E+02 -0.48032250350E+03  0.50295384207E+03  0.12499882425E+03 0.  0.
    9000005    1    3    3    0    0 -0.24548148077E+02  0.37540167560E+02 -0.13597550239E+03  0.14318593857E+03  0.10000000000E+01 0.  0.
    9000005    1    3    3    0    0  0.10299701869E+03 -0.15770268115E+02 -0.34434700111E+03  0.35976790351E+03  0.10000000000E+01 0.  0.
          4    1    1    2  501    0 -0.78448870617E+02 -0.21769899445E+02 -0.27426883994E+02  0.85918570104E+02  0.12700000000E+01 0. -1.
<mgrwt>
<rscale>  1 0.14917392E+03</rscale>
<asrwt>0</asrwt>
<pdfrwt beam="1">  1       21 0.62401194E-02 0.14917392E+03</pdfrwt>
<pdfrwt beam="2">  1        4 0.84357054E-01 0.14917392E+03</pdfrwt>
<totfact> 0.95965037E+03</totfact>
</mgrwt>
</event>
<event>
 6    4  0.6277709E-003  0.1292889E+03  0.7818608E-02  0.1228515E+00
         21   -1    0    0  501  502  0.00000000000E+00  0.00000000000E+00  0.75790960895E+03  0.75790960895E+03  0.00000000000E+00 0.  1.
         -4   -1    0    0    0  501 -0.00000000000E+00 -0.00000000000E+00 -0.90673055644E+01  0.91558140107E+01  0.12700000000E+01 0.  1.
         25    2    1    2    0    0 -0.88013930834E+01  0.31833449953E+02  0.51913076392E+03  0.53498820021E+03  0.12499916504E+03 0.  0.
    9000005    1    3    3    0    0 -0.12991702482E+02 -0.35322388776E+02  0.59180287770E+02  0.70141014697E+02  0.10000000000E+01 0.  0.
    9000005    1    3    3    0    0  0.41903093988E+01  0.67155838729E+02  0.45995047615E+03  0.46484718551E+03  0.10000000000E+01 0.  0.
         -4    1    1    2    0  502  0.88013930834E+01 -0.31833449953E+02  0.22971153947E+03  0.23207722275E+03  0.12700000000E+01 0. -1.
<mgrwt>
<rscale>  1 0.12928892E+03</rscale>
<asrwt>0</asrwt>
<pdfrwt beam="1">  1       21 0.11660143E+00 0.12928892E+03</pdfrwt>
<pdfrwt beam="2">  1       -4 0.14018609E-02 0.12928892E+03</pdfrwt>
<totfact> 0.40796009E+04</totfact>
</mgrwt>
</event>
<event>
 6    4  0.6277709E-003  0.1292408E+03  0.7818608E-02  0.1228587E+00
         21   -1    0    0  501  502  0.00000000000E+00  0.00000000000E+00  0.31524151821E+03  0.31524151821E+03  0.00000000000E+00 0. -1.
          4   -1    0    0  502    0 -0.00000000000E+00 -0.00000000000E+00 -0.21934919732E+02  0.21971654550E+02  0.12700000000E+01 0. -1.
         25    2    1    2    0    0 -0.20966570955E+02 -0.25275158028E+02  0.19844156559E+03  0.23681686767E+03  0.12499897259E+03 0.  0.
    9000005    1    3    3    0    0 -0.21627960397E+02  0.22444290971E+02 -0.15341882074E+01  0.31222885862E+02  0.10000000000E+01 0.  0.
    9000005    1    3    3    0    0  0.66138944113E+00 -0.47719448999E+02  0.19997575380E+03  0.20559398181E+03  0.10000000000E+01 0.  0.
          4    1    1    2  501    0  0.20966570955E+02  0.25275158028E+02  0.94865032883E+02  0.10039630509E+03  0.12700000000E+01 0.  1.
<mgrwt>
<rscale>  1 0.12924076E+03</rscale>
<asrwt>0</asrwt>
<pdfrwt beam="1">  1       21 0.48498692E-01 0.12924076E+03</pdfrwt>
<pdfrwt beam="2">  1        4 0.33776258E-02 0.12924076E+03</pdfrwt>
<totfact> 0.73421774E+04</totfact>
</mgrwt>
</event>
<event>
 6    4  0.6277709E-003  0.1279557E+03  0.7818608E-02  0.1230521E+00
         21   -1    0    0  501  502  0.00000000000E+00  0.00000000000E+00  0.13731716799E+03  0.13731716799E+03  0.00000000000E+00 0. -1.
         -4   -1    0    0    0  501 -0.00000000000E+00 -0.00000000000E+00 -0.59220396998E+02  0.59234013207E+02  0.12700000000E+01 0.  1.
         25    2    1    2    0    0 -0.23631445616E+02  0.13750397075E+02  0.16332164073E+02  0.12899381143E+03  0.12500058065E+03 0.  0.
    9000005    1    3    3    0    0  0.62056896747E+01 -0.36315609605E+02  0.49664259490E+02  0.61845555669E+02  0.10000000000E+01 0.  0.
    9000005    1    3    3    0    0 -0.29837135290E+02  0.50066006680E+02 -0.33332095417E+02  0.67148255764E+02  0.10000000000E+01 0.  0.
         -4    1    1    2    0  502  0.23631445616E+02 -0.13750397075E+02  0.61764606920E+02  0.67557369765E+02  0.12700000000E+01 0. -1.
<mgrwt>
<rscale>  1 0.12795571E+03</rscale>
<asrwt>0</asrwt>
<pdfrwt beam="1">  1       21 0.21125718E-01 0.12795571E+03</pdfrwt>
<pdfrwt beam="2">  1       -4 0.91123295E-02 0.12795571E+03</pdfrwt>
<totfact> 0.74276196E+04</totfact>
</mgrwt>
</event>
<event>
 6    4  0.6277709E-003  0.1431040E+03  0.7818608E-02  0.1209212E+00
         21   -1    0    0  501  502  0.00000000000E+00  0.00000000000E+00  0.75481377315E+02  0.75481377315E+02  0.00000000000E+00 0. -1.
          4   -1    0    0  502    0 -0.00000000000E+00 -0.00000000000E+00 -0.20767554291E+03  0.20767942610E+03  0.12700000000E+01 0.  1.
         25    2    1    2    0    0  0.11731546117E+01 -0.69655250171E+02 -0.15392832923E+03  0.21017301719E+03  0.12500214577E+03 0.  0.
    9000005    1    3    3    0    0 -0.32888480415E+02 -0.48674390680E+01  0.64471231741E+01  0.33880813218E+02  0.10000000000E+01 0.  0.
    9000005    1    3    3    0    0  0.34061635027E+02 -0.64787811103E+02 -0.16037545240E+03  0.17629220397E+03  0.10000000000E+01 0.  0.
          4    1    1    2  501    0 -0.11731546117E+01  0.69655250171E+02  0.21734163634E+02  0.72987786218E+02  0.12700000000E+01 0. -1.
<mgrwt>
<rscale>  1 0.14310404E+03</rscale>
<asrwt>0</asrwt>
<pdfrwt beam="1">  1       21 0.11612520E-01 0.14310404E+03</pdfrwt>
<pdfrwt beam="2">  1        4 0.31951204E-01 0.14310404E+03</pdfrwt>
<totfact> 0.23997314E+04</totfact>
</mgrwt>
</event>
<event>
 6    4  0.6277709E-003  0.1282809E+03  0.7818608E-02  0.1230029E+00
         21   -1    0    0  501  502  0.00000000000E+00  0.00000000000E+00  0.97423866612E+02  0.97423866612E+02  0.00000000000E+00 0. -1.
          4   -1    0    0  502    0 -0.00000000000E+00 -0.00000000000E+00 -0.16014144816E+03  0.16014648395E+03  0.12700000000E+01 0.  1.
         25    2    1    2    0    0 -0.52927490986E+01 -0.28332385861E+02 -0.13105736417E+03  0.18339032583E+03  0.12500096649E+03 0.  0.
    9000005    1    3    3    0    0  0.28235129207E+02  0.18311398654E+01 -0.13516018937E+03  0.13809363629E+03  0.10000000000E+01 0.  0.
    9000005    1    3    3    0    0 -0.33527878305E+02 -0.30163525726E+02  0.41028252041E+01  0.45296689532E+02  0.10000000000E+01 0.  0.
          4    1    1    2  501    0  0.52927490986E+01  0.28332385861E+02  0.68339782613E+02  0.74180024731E+02  0.12700000000E+01 0. -1.
<mgrwt>
<rscale>  1 0.12828086E+03</rscale>
<asrwt>0</asrwt>
<pdfrwt beam="1">  1       21 0.14988287E-01 0.12828086E+03</pdfrwt>
<pdfrwt beam="2">  1        4 0.24638170E-01 0.12828086E+03</pdfrwt>
<totfact> 0.24471859E+04</totfact>
</mgrwt>
</event>
<event>
 6    4  0.6277709E-003  0.1266939E+03  0.7818608E-02  0.1232445E+00
         -4   -1    0    0    0  501 -0.00000000000E+00  0.00000000000E+00  0.34807901953E+02  0.34831062837E+02  0.12700000000E+01 0. -1.
         21   -1    0    0  501  502  0.00000000000E+00 -0.00000000000E+00 -0.16610569751E+03  0.16610569751E+03  0.00000000000E+00 0. -1.
         25    2    1    2    0    0 -0.65801942157E+01 -0.19568367252E+02 -0.92154757559E+02  0.15666475704E+03  0.12500050722E+03 0.  0.
    9000005    1    3    3    0    0  0.96723245192E+01  0.51682754218E+02 -0.48453375283E+02  0.71507975230E+02  0.10000000000E+01 0.  0.
    9000005    1    3    3    0    0 -0.16252518735E+02 -0.71251121470E+02 -0.43701382276E+02  0.85156781814E+02  0.10000000000E+01 0.  0.
         -4    1    1    2    0  502  0.65801942157E+01  0.19568367252E+02 -0.39143038002E+02  0.44272003308E+02  0.12700000000E+01 0.  1.
<mgrwt>
<rscale>  1 0.12669391E+03</rscale>
<asrwt>0</asrwt>
<pdfrwt beam="2">  1       21 0.25554723E-01 0.12669391E+03</pdfrwt>
<pdfrwt beam="1">  1       -4 0.53572168E-02 0.12669391E+03</pdfrwt>
<totfact> 0.12403168E+05</totfact>
</mgrwt>
</event>
<event>
 6    4  0.6277709E-003  0.1462861E+03  0.7818608E-02  0.1205112E+00
          4   -1    0    0  502    0 -0.00000000000E+00  0.00000000000E+00  0.51889898731E+02  0.51905437964E+02  0.12700000000E+01 0.  1.
         21   -1    0    0  501  502  0.00000000000E+00 -0.00000000000E+00 -0.24509893529E+03  0.24509893529E+03  0.00000000000E+00 0.  1.
         25    2    1    2    0    0  0.61664680021E+02  0.44407678688E+02 -0.10228078527E+03  0.17849642216E+03  0.12500015601E+03 0.  0.
    9000005    1    3    3    0    0 -0.16079872637E+02  0.59655353742E+02 -0.68814525793E+02  0.92486553045E+02  0.10000000000E+01 0.  0.
    9000005    1    3    3    0    0  0.77744552659E+02 -0.15247675053E+02 -0.33466259475E+02  0.86009869119E+02  0.10000000000E+01 0.  0.
          4    1    1    2  501    0 -0.61664680021E+02 -0.44407678688E+02 -0.90928251291E+02  0.11850795109E+03  0.12700000000E+01 0. -1.
<mgrwt>
<rscale>  1 0.14628607E+03</rscale>
<asrwt>0</asrwt>
<pdfrwt beam="2">  1       21 0.37707529E-01 0.14628607E+03</pdfrwt>
<pdfrwt beam="1">  1        4 0.79845096E-02 0.14628607E+03</pdfrwt>
<totfact> 0.30884799E+04</totfact>
</mgrwt>
</event>
<event>
 6    4  0.6277709E-003  0.1273100E+03  0.7818608E-02  0.1231503E+00
         21   -1    0    0  501  502  0.00000000000E+00  0.00000000000E+00  0.83669210189E+01  0.83669210189E+01  0.00000000000E+00 0.  1.
         -4   -1    0    0    0  501 -0.00000000000E+00 -0.00000000000E+00 -0.25365440772E+04  0.25365443952E+04  0.12700000000E+01 0. -1.
         25    2    1    2    0    0 -0.20891082776E+02  0.12088506802E+02 -0.25133156427E+04  0.25165379692E+04  0.12500104451E+03 0.  0.
    9000005    1    3    3    0    0  0.15461891557E+02  0.62617972752E+02 -0.11621873649E+04  0.11639761817E+04  0.10000000000E+01 0.  0.
    9000005    1    3    3    0    0 -0.36352974333E+02 -0.50529465949E+02 -0.13511282778E+04  0.13525617874E+04  0.10000000000E+01 0.  0.
         -4    1    1    2    0  502  0.20891082776E+02 -0.12088506802E+02 -0.14861513505E+02  0.28373346999E+02  0.12700000000E+01 0.  1.
<mgrwt>
<rscale>  1 0.12730998E+03</rscale>
<asrwt>0</asrwt>
<pdfrwt beam="1">  1       21 0.12872185E-02 0.12730998E+03</pdfrwt>
<pdfrwt beam="2">  1       -4 0.39024503E+00 0.12730998E+03</pdfrwt>
<totfact> 0.11000266E+03</totfact>
</mgrwt>
</event>
<event>
 6    4  0.6277709E-003  0.1351643E+03  0.7818608E-02  0.1219988E+00
         21   -1    0    0  501  502  0.00000000000E+00  0.00000000000E+00  0.12103443962E+04  0.12103443962E+04  0.00000000000E+00 0.  1.
          4   -1    0    0  502    0 -0.00000000000E+00 -0.00000000000E+00 -0.16333981880E+02  0.16383280015E+02  0.12700000000E+01 0.  1.
         25    2    1    2    0    0 -0.50433910249E+02 -0.10146878543E+02  0.27643539420E+03  0.30771077273E+03  0.12499141586E+03 0.  0.
    9000005    1    3    3    0    0  0.30534236804E+02 -0.26670638026E+02  0.38842768613E+02  0.56155349019E+02  0.10000000000E+01 0.  0.
    9000005    1    3    3    0    0 -0.80968147053E+02  0.16523759483E+02  0.23759262559E+03  0.25155542371E+03  0.10000000000E+01 0.  0.
          4    1    1    2  501    0  0.50433910249E+02  0.10146878543E+02  0.91757502016E+03  0.91901690352E+03  0.12700000000E+01 0. -1.
<mgrwt>
<rscale>  1 0.13516432E+03</rscale>
<asrwt>0</asrwt>
<pdfrwt beam="1">  1       21 0.18620676E+00 0.13516432E+03</pdfrwt>
<pdfrwt beam="2">  1        4 0.25167647E-02 0.13516432E+03</pdfrwt>
<totfact> 0.49438141E+03</totfact>
</mgrwt>
</event>
<event>
 6    4  0.6277709E-003  0.1266657E+03  0.7818608E-02  0.1232489E+00
         21   -1    0    0  501  502  0.00000000000E+00  0.00000000000E+00  0.16875170009E+03  0.16875170009E+03  0.00000000000E+00 0. -1.
          4   -1    0    0  502    0 -0.00000000000E+00 -0.00000000000E+00 -0.24716176120E+03  0.24716502402E+03  0.12700000000E+01 0.  1.
         25    2    1    2    0    0 -0.20222282292E+02 -0.31673058804E+01 -0.23020009023E+03  0.26274754193E+03  0.12500086687E+03 0.  0.
    9000005    1    3    3    0    0 -0.30710361893E+02 -0.60056224571E+02 -0.10466540718E+03  0.12452198159E+03  0.10000000000E+01 0.  0.
    9000005    1    3    3    0    0  0.10488079602E+02  0.56888918691E+02 -0.12553468305E+03  0.13822556034E+03  0.10000000000E+01 0.  0.
          4    1    1    2  501    0  0.20222282292E+02  0.31673058804E+01  0.15179002912E+03  0.15316918218E+03  0.12700000000E+01 0. -1.
<mgrwt>
<rscale>  1 0.12666566E+03</rscale>
<asrwt>0</asrwt>
<pdfrwt beam="1">  1       21 0.25961800E-01 0.12666566E+03</pdfrwt>
<pdfrwt beam="2">  1        4 0.38025505E-01 0.12666566E+03</pdfrwt>
<totfact> 0.38968789E+03</totfact>
</mgrwt>
</event>
<event>
 6    4  0.6277709E-003  0.1431021E+03  0.7818608E-02  0.1209215E+00
         21   -1    0    0  501  502  0.00000000000E+00  0.00000000000E+00  0.90341159949E+03  0.90341159949E+03  0.00000000000E+00 0.  1.
          4   -1    0    0  502    0 -0.00000000000E+00 -0.00000000000E+00 -0.26443470167E+02  0.26473949733E+02  0.12700000000E+01 0. -1.
         25    2    1    2    0    0 -0.69525668887E+02 -0.44759066076E+01  0.18242511459E+03  0.23185584742E+03  0.12499743669E+03 0.  0.
    9000005    1    3    3    0    0 -0.75024183706E+02 -0.43949451312E+02  0.16852283641E+03  0.18963419735E+03  0.10000000000E+01 0.  0.
    9000005    1    3    3    0    0  0.54985148189E+01  0.39473544704E+02  0.13902278174E+02  0.42221650076E+02  0.10000000000E+01 0.  0.
          4    1    1    2  501    0  0.69525668887E+02  0.44759066076E+01  0.69454301473E+03  0.69802970179E+03  0.12700000000E+01 0.  1.
<mgrwt>
<rscale>  1 0.14310210E+03</rscale>
<asrwt>0</asrwt>
<pdfrwt beam="1">  1       21 0.13898638E+00 0.14310210E+03</pdfrwt>
<pdfrwt beam="2">  1        4 0.40706401E-02 0.14310210E+03</pdfrwt>
<totfact> 0.50719629E+03</totfact>
</mgrwt>
</event>
<event>
 6    4  0.6277709E-003  0.1361005E+03  0.7818608E-02  0.1218674E+00
         21   -1    0    0  501  502  0.00000000000E+00  0.00000000000E+00  0.14921641868E+03  0.14921641868E+03  0.00000000000E+00 0. -1.
         -4   -1    0    0    0  501 -0.00000000000E+00 -0.00000000000E+00 -0.75559274502E+02  0.75569946826E+02  0.12700000000E+01 0.  1.
         25    2    1    2    0    0 -0.44961095025E+02 -0.29620734020E+02  0.32453408021E+01  0.13613918335E+03  0.12499782820E+03 0.  0.
    9000005    1    3    3    0    0 -0.55361492190E+02 -0.56758773579E+02  0.40372045909E+02  0.88979521725E+02  0.10000000000E+01 0.  0.
    9000005    1    3    3    0    0  0.10400397164E+02  0.27138039559E+02 -0.37126705107E+02  0.47159661622E+02  0.10000000000E+01 0.  0.
         -4    1    1    2    0  502  0.44961095025E+02  0.29620734020E+02  0.70411803374E+02  0.88647182155E+02  0.12700000000E+01 0. -1.
<mgrwt>
<rscale>  1 0.13610050E+03</rscale>
<asrwt>0</asrwt>
<pdfrwt beam="1">  1       21 0.22956372E-01 0.13610050E+03</pdfrwt>
<pdfrwt beam="2">  1       -4 0.11625741E-01 0.13610050E+03</pdfrwt>
<totfact> 0.42472528E+04</totfact>
</mgrwt>
</event>
<event>
 6    4  0.6277709E-003  0.1277774E+03  0.7818608E-02  0.1230791E+00
         21   -1    0    0  501  502  0.00000000000E+00  0.00000000000E+00  0.14435478286E+04  0.14435478286E+04  0.00000000000E+00 0.  1.
         -4   -1    0    0    0  501 -0.00000000000E+00 -0.00000000000E+00 -0.10760626485E+02  0.10835311825E+02  0.12700000000E+01 0. -1.
         25    2    1    2    0    0  0.20253726845E+02  0.17023368318E+02  0.37326485321E+03  0.39452974054E+03  0.12500822776E+03 0.  0.
    9000005    1    3    3    0    0  0.10272649672E+02  0.70111885209E+02  0.16937674950E+03  0.18360470323E+03  0.10000000000E+01 0.  0.
    9000005    1    3    3    0    0  0.99810771735E+01 -0.53088516891E+02  0.20388810371E+03  0.21092503731E+03  0.10000000000E+01 0.  0.
         -4    1    1    2    0  502 -0.20253726845E+02 -0.17023368318E+02  0.10595223489E+04  0.10598533998E+04  0.12700000000E+01 0.  1.
<mgrwt>
<rscale>  1 0.12777741E+03</rscale>
<asrwt>0</asrwt>
<pdfrwt beam="1">  1       21 0.22208413E+00 0.12777741E+03</pdfrwt>
<pdfrwt beam="2">  1       -4 0.16612701E-02 0.12777741E+03</pdfrwt>
<totfact> 0.55980639E+03</totfact>
</mgrwt>
</event>
<event>
 6    4  0.6277709E-003  0.1383940E+03  0.7818608E-02  0.1215506E+00
         21   -1    0    0  501  502  0.00000000000E+00  0.00000000000E+00  0.10402422793E+03  0.10402422793E+03  0.00000000000E+00 0. -1.
          4   -1    0    0  502    0 -0.00000000000E+00 -0.00000000000E+00 -0.12547259207E+03  0.12547901920E+03  0.12700000000E+01 0.  1.
         25    2    1    2    0    0 -0.20961387386E+01 -0.59356568927E+02 -0.67841050636E+02  0.15412758572E+03  0.12500123382E+03 0.  0.
    9000005    1    3    3    0    0  0.27682019082E+02 -0.29109849126E+02 -0.95395280382E+02  0.10351297994E+03  0.10000000000E+01 0.  0.
    9000005    1    3    3    0    0 -0.29778157820E+02 -0.30246719802E+02  0.27554229746E+02  0.50614605785E+02  0.10000000000E+01 0.  0.
          4    1    1    2  501    0  0.20961387386E+01  0.59356568927E+02  0.46392686498E+02  0.75375661409E+02  0.12700000000E+01 0. -1.
<mgrwt>
<rscale>  1 0.13839402E+03</rscale>
<asrwt>0</asrwt>
<pdfrwt beam="1">  1       21 0.16003727E-01 0.13839402E+03</pdfrwt>
<pdfrwt beam="2">  1        4 0.19304566E-01 0.13839402E+03</pdfrwt>
<totfact> 0.34131099E+04</totfact>
</mgrwt>
</event>
<event>
 6    4  0.6277709E-003  0.1337564E+03  0.7818608E-02  0.1221986E+00
         21   -1    0    0  501  502  0.00000000000E+00  0.00000000000E+00  0.12140408240E+03  0.12140408240E+03  0.00000000000E+00 0.  1.
          4   -1    0    0  502    0 -0.00000000000E+00 -0.00000000000E+00 -0.93074695083E+02  0.93083359226E+02  0.12700000000E+01 0. -1.
         25    2    1    2    0    0  0.46114928702E+02 -0.11799459879E+02 -0.32097244676E+02  0.13755367364E+03  0.12499986445E+03 0.  0.
    9000005    1    3    3    0    0  0.16386691553E+02  0.13347028945E+02  0.45805654224E+02  0.50456167122E+02  0.10000000000E+01 0.  0.
    9000005    1    3    3    0    0  0.29728237149E+02 -0.25146488824E+02 -0.77902898901E+02  0.87097506516E+02  0.10000000000E+01 0.  0.
          4    1    1    2  501    0 -0.46114928702E+02  0.11799459879E+02  0.60426631990E+02  0.76933767984E+02  0.12700000000E+01 0.  1.
<mgrwt>
<rscale>  1 0.13375642E+03</rscale>
<asrwt>0</asrwt>
<pdfrwt beam="1">  1       21 0.18677551E-01 0.13375642E+03</pdfrwt>
<pdfrwt beam="2">  1        4 0.14320361E-01 0.13375642E+03</pdfrwt>
<totfact> 0.43431825E+04</totfact>
</mgrwt>
</event>
<event>
 6    4  0.6277709E-003  0.1334394E+03  0.7818608E-02  0.1222440E+00
         -4   -1    0    0    0  501 -0.00000000000E+00  0.00000000000E+00  0.39909777511E+02  0.39929979225E+02  0.12700000000E+01 0. -1.
         21   -1    0    0  501  502  0.00000000000E+00 -0.00000000000E+00 -0.28457940080E+03  0.28457940080E+03  0.00000000000E+00 0. -1.
         25    2    1    2    0    0  0.24807326758E+02  0.39539969961E+02 -0.85142575766E+02  0.15828873005E+03  0.12500900435E+03 0.  0.
    9000005    1    3    3    0    0 -0.16357637649E+02 -0.33866888480E+02 -0.59327424911E+02  0.70251560775E+02  0.10000000000E+01 0.  0.
    9000005    1    3    3    0    0  0.41164964408E+02  0.73406858441E+02 -0.25815150855E+02  0.88037169279E+02  0.10000000000E+01 0.  0.
         -4    1    1    2    0  502 -0.24807326758E+02 -0.39539969961E+02 -0.15952704752E+03  0.16622064997E+03  0.12700000000E+01 0.  1.
<mgrwt>
<rscale>  1 0.13343936E+03</rscale>
<asrwt>0</asrwt>
<pdfrwt beam="2">  1       21 0.43781445E-01 0.13343936E+03</pdfrwt>
<pdfrwt beam="1">  1       -4 0.61417379E-02 0.13343936E+03</pdfrwt>
<totfact> 0.34900118E+04</totfact>
</mgrwt>
</event>
<event>
 6    4  0.6277709E-003  0.1267857E+03  0.7818608E-02  0.1232305E+00
         21   -1    0    0  501  502  0.00000000000E+00  0.00000000000E+00  0.19610881494E+02  0.19610881494E+02  0.00000000000E+00 0. -1.
         -4   -1    0    0    0  501 -0.00000000000E+00 -0.00000000000E+00 -0.61270315236E+03  0.61270446857E+03  0.12700000000E+01 0.  1.
         25    2    1    2    0    0 -0.50076979460E+01  0.20607658373E+02 -0.59734218828E+03  0.61064907857E+03  0.12499941857E+03 0.  0.
    9000005    1    3    3    0    0 -0.11026878288E+02  0.15997669290E+02 -0.60158772674E+03  0.60190224325E+03  0.10000000000E+01 0.  0.
    9000005    1    3    3    0    0  0.60191803423E+01  0.46099890840E+01  0.42455384596E+01  0.87468353225E+01  0.10000000000E+01 0.  0.
         -4    1    1    2    0  502  0.50076979460E+01 -0.20607658373E+02  0.42499174167E+01  0.21666271493E+02  0.12700000000E+01 0. -1.
<mgrwt>
<rscale>  1 0.12678567E+03</rscale>
<asrwt>0</asrwt>
<pdfrwt beam="1">  1       21 0.30170591E-02 0.12678567E+03</pdfrwt>
<pdfrwt beam="2">  1       -4 0.94265275E-01 0.12678567E+03</pdfrwt>
<totfact> 0.24749886E+04</totfact>
</mgrwt>
</event>
<event>
 6    4  0.6277709E-003  0.1280473E+03  0.7818608E-02  0.1230382E+00
         21   -1    0    0  501  502  0.00000000000E+00  0.00000000000E+00  0.88309218345E+02  0.88309218345E+02  0.00000000000E+00 0.  1.
          4   -1    0    0  502    0 -0.00000000000E+00 -0.00000000000E+00 -0.20465670795E+03  0.20466064841E+03  0.12700000000E+01 0. -1.
         25    2    1    2    0    0 -0.14089009276E+02  0.23913934040E+02 -0.18151025225E+03  0.22213078885E+03  0.12500295700E+03 0.  0.
    9000005    1    3    3    0    0  0.43886388199E+02  0.10646885292E+02 -0.18868175464E+02  0.48952827099E+02  0.10000000000E+01 0.  0.
    9000005    1    3    3    0    0 -0.57975397476E+02  0.13267048748E+02 -0.16264207679E+03  0.17317796175E+03  0.10000000000E+01 0.  0.
          4    1    1    2  501    0  0.14089009276E+02 -0.23913934040E+02  0.65162762644E+02  0.70839077909E+02  0.12700000000E+01 0.  1.
<mgrwt>
<rscale>  1 0.12804732E+03</rscale>
<asrwt>0</asrwt>
<pdfrwt beam="1">  1       21 0.13586034E-01 0.12804732E+03</pdfrwt>
<pdfrwt beam="2">  1        4 0.31486653E-01 0.12804732E+03</pdfrwt>
<totfact> 0.18451261E+04</totfact>
</mgrwt>
</event>
<event>
 6    4  0.6277709E-003  0.1278518E+03  0.7818608E-02  0.1230679E+00
          4   -1    0    0  502    0 -0.00000000000E+00  0.00000000000E+00  0.10947699838E+02  0.11021117536E+02  0.12700000000E+01 0.  1.
         21   -1    0    0  501  502  0.00000000000E+00 -0.00000000000E+00 -0.71740177759E+03  0.71740177759E+03  0.00000000000E+00 0. -1.
         25    2    1    2    0    0 -0.13937874389E+02  0.22963386939E+02 -0.38140797077E+03  0.40226623638E+03  0.12499801311E+03 0.  0.
    9000005    1    3    3    0    0 -0.45219186842E+02 -0.25701975720E+01 -0.34476916779E+03  0.34773288575E+03  0.10000000000E+01 0.  0.
    9000005    1    3    3    0    0  0.31281312453E+02  0.25533584511E+02 -0.36638802980E+02  0.54533350627E+02  0.10000000000E+01 0.  0.
          4    1    1    2  501    0  0.13937874389E+02 -0.22963386939E+02 -0.32504610698E+03  0.32615665875E+03  0.12700000000E+01 0. -1.
<mgrwt>
<rscale>  1 0.12785181E+03</rscale>
<asrwt>0</asrwt>
<pdfrwt beam="2">  1       21 0.11036950E+00 0.12785181E+03</pdfrwt>
<pdfrwt beam="1">  1        4 0.16899955E-02 0.12785181E+03</pdfrwt>
<totfact> 0.34969770E+04</totfact>
</mgrwt>
</event>
<event>
 6    4  0.6277709E-003  0.1438646E+03  0.7818608E-02  0.1208221E+00
          4   -1    0    0  502    0 -0.00000000000E+00  0.00000000000E+00  0.10154956092E+03  0.10155750206E+03  0.12700000000E+01 0. -1.
         21   -1    0    0  501  502  0.00000000000E+00 -0.00000000000E+00 -0.11785249816E+03  0.11785249816E+03  0.00000000000E+00 0.  1.
         25    2    1    2    0    0 -0.70585989892E+02 -0.94569557699E+01  0.81661912415E+01  0.14409620912E+03  0.12500085928E+03 0.  0.
    9000005    1    3    3    0    0  0.13720299904E+02  0.37971097571E+02 -0.17496702148E+02  0.44013469146E+02  0.10000000000E+01 0.  0.
    9000005    1    3    3    0    0 -0.84306289797E+02 -0.47428053341E+02  0.25662893390E+02  0.10008273997E+03  0.10000000000E+01 0.  0.
          4    1    1    2  501    0  0.70585989892E+02  0.94569557699E+01 -0.24469128481E+02  0.75313791102E+02  0.12700000000E+01 0.  1.
<mgrwt>
<rscale>  1 0.14386463E+03</rscale>
<asrwt>0</asrwt>
<pdfrwt beam="2">  1       21 0.18131154E-01 0.14386463E+03</pdfrwt>
<pdfrwt beam="1">  1        4 0.15624147E-01 0.14386463E+03</pdfrwt>
<totfact> 0.39710045E+04</totfact>
</mgrwt>
</event>
<event>
 6    4  0.6277709E-003  0.1275941E+03  0.7818608E-02  0.1231070E+00
          4   -1    0    0  502    0 -0.00000000000E+00  0.00000000000E+00  0.16328736906E+03  0.16329230782E+03  0.12700000000E+01 0.  1.
         21   -1    0    0  501  502  0.00000000000E+00 -0.00000000000E+00 -0.53257873288E+02  0.53257873288E+02  0.00000000000E+00 0.  1.
         25    2    1    2    0    0  0.21833826868E+02 -0.13327540687E+02  0.13142760015E+03  0.18317607276E+03  0.12500368081E+03 0.  0.
    9000005    1    3    3    0    0  0.57181307018E+02 -0.49454088101E+02  0.65043668634E+02  0.99735086763E+02  0.10000000000E+01 0.  0.
    9000005    1    3    3    0    0 -0.35347480150E+02  0.36126547414E+02  0.66383931519E+02  0.83440986002E+02  0.10000000000E+01 0.  0.
          4    1    1    2  501    0 -0.21833826868E+02  0.13327540687E+02 -0.21398104385E+02  0.33374108344E+02  0.12700000000E+01 0. -1.
<mgrwt>
<rscale>  1 0.12759412E+03</rscale>
<asrwt>0</asrwt>
<pdfrwt beam="2">  1       21 0.81935191E-02 0.12759412E+03</pdfrwt>
<pdfrwt beam="1">  1        4 0.25122678E-01 0.12759412E+03</pdfrwt>
<totfact> 0.68392985E+04</totfact>
</mgrwt>
</event>
<event>
 6    4  0.6277709E-003  0.1288350E+03  0.7818608E-02  0.1229195E+00
         21   -1    0    0  501  502  0.00000000000E+00  0.00000000000E+00  0.56265071776E+02  0.56265071776E+02  0.00000000000E+00 0.  1.
          4   -1    0    0  502    0 -0.00000000000E+00 -0.00000000000E+00 -0.11488360234E+03  0.11489062184E+03  0.12700000000E+01 0. -1.
         25    2    1    2    0    0 -0.58376764919E+01 -0.30652229414E+02 -0.53537735437E+02  0.13951608214E+03  0.12499924170E+03 0.  0.
    9000005    1    3    3    0    0  0.81572508085E+01  0.45596547800E+02 -0.39163227316E+02  0.60665841178E+02  0.10000000000E+01 0.  0.
    9000005    1    3    3    0    0 -0.13994927300E+02 -0.76248777213E+02 -0.14374508121E+02  0.78850240966E+02  0.10000000000E+01 0.  0.
          4    1    1    2  501    0  0.58376764919E+01  0.30652229414E+02 -0.50807951249E+01  0.31639611470E+02  0.12700000000E+01 0.  1.
<mgrwt>
<rscale>  1 0.12883496E+03</rscale>
<asrwt>0</asrwt>
<pdfrwt beam="1">  1       21 0.86561650E-02 0.12883496E+03</pdfrwt>
<pdfrwt beam="2">  1        4 0.17676043E-01 0.12883496E+03</pdfrwt>
<totfact> 0.11759393E+05</totfact>
</mgrwt>
</event>
<event>
 6    4  0.6277709E-003  0.1278215E+03  0.7818608E-02  0.1230725E+00
         21   -1    0    0  501  502  0.00000000000E+00  0.00000000000E+00  0.54827845935E+03  0.54827845935E+03  0.00000000000E+00 0.  1.
          4   -1    0    0  502    0 -0.00000000000E+00 -0.00000000000E+00 -0.14859887300E+02  0.14914058822E+02  0.12700000000E+01 0. -1.
         25    2    1    2    0    0  0.12960224518E+02 -0.23342877221E+02  0.27340817341E+03  0.30181180420E+03  0.12500191410E+03 0.  0.
    9000005    1    3    3    0    0  0.56469358849E+02 -0.31239459448E+02  0.23343818516E+03  0.24219636373E+03  0.10000000000E+01 0.  0.
    9000005    1    3    3    0    0 -0.43509134331E+02  0.78965822262E+01  0.39969988253E+02  0.59615440466E+02  0.10000000000E+01 0.  0.
          4    1    1    2  501    0 -0.12960224518E+02  0.23342877221E+02  0.26001039863E+03  0.26138071397E+03  0.12700000000E+01 0.  1.
<mgrwt>
<rscale>  1 0.12782150E+03</rscale>
<asrwt>0</asrwt>
<pdfrwt beam="1">  1       21 0.84350516E-01 0.12782150E+03</pdfrwt>
<pdfrwt beam="2">  1        4 0.22904171E-02 0.12782150E+03</pdfrwt>
<totfact> 0.40913871E+04</totfact>
</mgrwt>
</event>
<event>
 6    4  0.6277709E-003  0.1266994E+03  0.7818608E-02  0.1232437E+00
          4   -1    0    0  502    0 -0.00000000000E+00  0.00000000000E+00  0.13747268768E+03  0.13747855381E+03  0.12700000000E+01 0. -1.
         21   -1    0    0  501  502  0.00000000000E+00 -0.00000000000E+00 -0.47621831695E+02  0.47621831695E+02  0.00000000000E+00 0. -1.
         25    2    1    2    0    0  0.96266864644E+00 -0.20667857963E+02  0.10057126345E+03  0.16176313802E+03  0.12499858682E+03 0.  0.
    9000005    1    3    3    0    0 -0.11662025331E+02  0.34013822437E+02 -0.10365593043E+02  0.37435123490E+02  0.10000000000E+01 0.  0.
    9000005    1    3    3    0    0  0.12624693977E+02 -0.54681680399E+02  0.11093685649E+03  0.12432801453E+03  0.10000000000E+01 0.  0.
          4    1    1    2  501    0 -0.96266864644E+00  0.20667857963E+02 -0.10720407468E+02  0.23337247481E+02  0.12700000000E+01 0.  1.
<mgrwt>
<rscale>  1 0.12669938E+03</rscale>
<asrwt>0</asrwt>
<pdfrwt beam="2">  1       21 0.73264357E-02 0.12669938E+03</pdfrwt>
<pdfrwt beam="1">  1        4 0.21151398E-01 0.12669938E+03</pdfrwt>
<totfact> 0.11339261E+05</totfact>
</mgrwt>
</event>
<event>
 6    4  0.6277709E-003  0.1297562E+03  0.7818608E-02  0.1227818E+00
          4   -1    0    0  502    0 -0.00000000000E+00  0.00000000000E+00  0.43942587539E+03  0.43942771062E+03  0.12700000000E+01 0.  1.
         21   -1    0    0  501  502  0.00000000000E+00 -0.00000000000E+00 -0.19386885479E+02  0.19386885479E+02  0.00000000000E+00 0. -1.
         25    2    1    2    0    0  0.28879980888E+02 -0.19431723009E+02  0.39540744902E+03  0.41615347959E+03  0.12500009073E+03 0.  0.
    9000005    1    3    3    0    0 -0.35069158656E+02 -0.28751250711E+01  0.34639338666E+02  0.49386192567E+02  0.10000000000E+01 0.  0.
    9000005    1    3    3    0    0  0.63949139545E+02 -0.16556597938E+02  0.36076811035E+03  0.36676728702E+03  0.10000000000E+01 0.  0.
          4    1    1    2  501    0 -0.28879980888E+02  0.19431723009E+02  0.24631540898E+02  0.42661116514E+02  0.12700000000E+01 0. -1.
<mgrwt>
<rscale>  1 0.12975619E+03</rscale>
<asrwt>0</asrwt>
<pdfrwt beam="2">  1       21 0.29825981E-02 0.12975619E+03</pdfrwt>
<pdfrwt beam="1">  1        4 0.67607315E-01 0.12975619E+03</pdfrwt>
<totfact> 0.52691124E+04</totfact>
</mgrwt>
</event>
<event>
 6    4  0.6277709E-003  0.1277161E+03  0.7818608E-02  0.1230885E+00
         21   -1    0    0  501  502  0.00000000000E+00  0.00000000000E+00  0.56322501749E+02  0.56322501749E+02  0.00000000000E+00 0. -1.
          4   -1    0    0  502    0 -0.00000000000E+00 -0.00000000000E+00 -0.16977119196E+03  0.16977594211E+03  0.12700000000E+01 0. -1.
         25    2    1    2    0    0  0.20398472558E+02 -0.16462562070E+02 -0.13949040164E+03  0.18912687009E+03  0.12499714880E+03 0.  0.
    9000005    1    3    3    0    0 -0.11421543205E+02  0.44221886118E+02 -0.16951137157E+02  0.48727486206E+02  0.10000000000E+01 0.  0.
    9000005    1    3    3    0    0  0.31820015762E+02 -0.60684448188E+02 -0.12253926448E+03  0.14039938389E+03  0.10000000000E+01 0.  0.
          4    1    1    2  501    0 -0.20398472558E+02  0.16462562070E+02  0.26041711432E+02  0.36971573768E+02  0.12700000000E+01 0.  1.
<mgrwt>
<rscale>  1 0.12771609E+03</rscale>
<asrwt>0</asrwt>
<pdfrwt beam="1">  1       21 0.86650003E-02 0.12771609E+03</pdfrwt>
<pdfrwt beam="2">  1        4 0.26120112E-01 0.12771609E+03</pdfrwt>
<totfact> 0.57781145E+04</totfact>
</mgrwt>
</event>
<event>
 6    4  0.6277709E-003  0.1355383E+03  0.7818608E-02  0.1219462E+00
         21   -1    0    0  501  502  0.00000000000E+00  0.00000000000E+00  0.20438998556E+03  0.20438998556E+03  0.00000000000E+00 0. -1.
          4   -1    0    0  502    0 -0.00000000000E+00 -0.00000000000E+00 -0.49626664533E+02  0.49642912210E+02  0.12700000000E+01 0.  1.
         25    2    1    2    0    0  0.45060689987E+02 -0.26741117676E+02  0.65537972310E+02  0.15055184197E+03  0.12500031259E+03 0.  0.
    9000005    1    3    3    0    0 -0.27003223531E+02 -0.46003070631E+02  0.33965515578E+01  0.53460201562E+02  0.10000000000E+01 0.  0.
    9000005    1    3    3    0    0  0.72063913518E+02  0.19261952955E+02  0.62141420752E+02  0.97091640404E+02  0.10000000000E+01 0.  0.
          4    1    1    2  501    0 -0.45060689987E+02  0.26741117676E+02  0.89225348712E+02  0.10348105580E+03  0.12700000000E+01 0. -1.
<mgrwt>
<rscale>  1 0.13553830E+03</rscale>
<asrwt>0</asrwt>
<pdfrwt beam="1">  1       21 0.31444613E-01 0.13553830E+03</pdfrwt>
<pdfrwt beam="2">  1        4 0.76364249E-02 0.13553830E+03</pdfrwt>
<totfact> 0.47142589E+04</totfact>
</mgrwt>
</event>
<event>
 6    4  0.6277709E-003  0.1303105E+03  0.7818608E-02  0.1226996E+00
         21   -1    0    0  501  502  0.00000000000E+00  0.00000000000E+00  0.36845922250E+03  0.36845922250E+03  0.00000000000E+00 0. -1.
          4   -1    0    0  502    0 -0.00000000000E+00 -0.00000000000E+00 -0.20317552370E+02  0.20357205955E+02  0.12700000000E+01 0.  1.
         25    2    1    2    0    0  0.36781811574E+02 -0.14597884260E+01  0.22212621201E+03  0.25752841975E+03  0.12500320105E+03 0.  0.
    9000005    1    3    3    0    0  0.61595990689E+02 -0.25343148186E+02  0.21108656673E+03  0.22134787074E+03  0.10000000000E+01 0.  0.
    9000005    1    3    3    0    0 -0.24814179115E+02  0.23883359760E+02  0.11039645284E+02  0.36180549009E+02  0.10000000000E+01 0.  0.
          4    1    1    2  501    0 -0.36781811574E+02  0.14597884260E+01  0.12601545812E+03  0.13128800870E+03  0.12700000000E+01 0. -1.
<mgrwt>
<rscale>  1 0.13031052E+03</rscale>
<asrwt>0</asrwt>
<pdfrwt beam="1">  1       21 0.56686029E-01 0.13031052E+03</pdfrwt>
<pdfrwt beam="2">  1        4 0.31289962E-02 0.13031052E+03</pdfrwt>
<totfact> 0.59924876E+04</totfact>
</mgrwt>
</event>
<event>
 6    4  0.6277709E-003  0.1273210E+03  0.7818608E-02  0.1231486E+00
         21   -1    0    0  501  502  0.00000000000E+00  0.00000000000E+00  0.27532639790E+03  0.27532639790E+03  0.00000000000E+00 0. -1.
          4   -1    0    0  502    0 -0.00000000000E+00 -0.00000000000E+00 -0.41830912211E+02  0.41850186576E+02  0.12700000000E+01 0. -1.
         25    2    1    2    0    0  0.15725119857E+02  0.18404529507E+02  0.57817048140E+02  0.13983360486E+03  0.12499847955E+03 0.  0.
    9000005    1    3    3    0    0 -0.13337759601E+02 -0.18515967471E+02 -0.31497859972E+02  0.38908251894E+02  0.10000000000E+01 0.  0.
    9000005    1    3    3    0    0  0.29062879458E+02  0.36920496978E+02  0.89314908112E+02  0.10092535296E+03  0.10000000000E+01 0.  0.
          4    1    1    2  501    0 -0.15725119857E+02 -0.18404529507E+02  0.17567843755E+03  0.17734297962E+03  0.12700000000E+01 0.  1.
<mgrwt>
<rscale>  1 0.12732096E+03</rscale>
<asrwt>0</asrwt>
<pdfrwt beam="1">  1       21 0.42357906E-01 0.12732096E+03</pdfrwt>
<pdfrwt beam="2">  1        4 0.64372331E-02 0.12732096E+03</pdfrwt>
<totfact> 0.34392149E+04</totfact>
</mgrwt>
</event>
<event>
 6    4  0.6277709E-003  0.1301429E+03  0.7818608E-02  0.1227244E+00
          4   -1    0    0  502    0 -0.00000000000E+00  0.00000000000E+00  0.20136345117E+02  0.20176354841E+02  0.12700000000E+01 0.  1.
         21   -1    0    0  501  502  0.00000000000E+00 -0.00000000000E+00 -0.34415654839E+03  0.34415654839E+03  0.00000000000E+00 0.  1.
         25    2    1    2    0    0  0.24076986675E+02  0.27057140909E+02 -0.24589922595E+03  0.27821501799E+03  0.12500150698E+03 0.  0.
    9000005    1    3    3    0    0 -0.44894046639E+01  0.65532797874E+02 -0.20479117115E+03  0.21507004936E+03  0.10000000000E+01 0.  0.
    9000005    1    3    3    0    0  0.28566391339E+02 -0.38475656965E+02 -0.41108054802E+02  0.63144968625E+02  0.10000000000E+01 0.  0.
          4    1    1    2  501    0 -0.24076986675E+02 -0.27057140909E+02 -0.78120977318E+02  0.86117885243E+02  0.12700000000E+01 0. -1.
<mgrwt>
<rscale>  1 0.13014287E+03</rscale>
<asrwt>0</asrwt>
<pdfrwt beam="2">  1       21 0.52947161E-01 0.13014287E+03</pdfrwt>
<pdfrwt beam="1">  1        4 0.31011572E-02 0.13014287E+03</pdfrwt>
<totfact> 0.70086063E+04</totfact>
</mgrwt>
</event>
<event>
 6    4  0.6277709E-003  0.1269944E+03  0.7818608E-02  0.1231985E+00
         21   -1    0    0  501  502  0.00000000000E+00  0.00000000000E+00  0.15553428820E+03  0.15553428820E+03  0.00000000000E+00 0. -1.
          4   -1    0    0  502    0 -0.00000000000E+00 -0.00000000000E+00 -0.40558933635E+02  0.40578812175E+02  0.12700000000E+01 0. -1.
         25    2    1    2    0    0  0.15837853124E+02  0.15893031758E+02  0.68035419082E+02  0.14407084357E+03  0.12499665463E+03 0.  0.
    9000005    1    3    3    0    0 -0.42921152016E+02 -0.29948181968E+02  0.25047038191E+02  0.58029932067E+02  0.10000000000E+01 0.  0.
    9000005    1    3    3    0    0  0.58759005140E+02  0.45841213726E+02  0.42988380891E+02  0.86040911504E+02  0.10000000000E+01 0.  0.
          4    1    1    2  501    0 -0.15837853124E+02 -0.15893031758E+02  0.46939935481E+02  0.52042256801E+02  0.12700000000E+01 0.  1.
<mgrwt>
<rscale>  1 0.12699445E+03</rscale>
<asrwt>0</asrwt>
<pdfrwt beam="1">  1       21 0.23928352E-01 0.12699445E+03</pdfrwt>
<pdfrwt beam="2">  1        4 0.62417640E-02 0.12699445E+03</pdfrwt>
<totfact> 0.10967206E+05</totfact>
</mgrwt>
</event>
<event>
 6    4  0.6277709E-003  0.1388862E+03  0.7818608E-02  0.1214836E+00
          4   -1    0    0  502    0 -0.00000000000E+00  0.00000000000E+00  0.82940007325E+02  0.82949730048E+02  0.12700000000E+01 0.  1.
         21   -1    0    0  501  502  0.00000000000E+00 -0.00000000000E+00 -0.18695172129E+03  0.18695172129E+03  0.00000000000E+00 0. -1.
         25    2    1    2    0    0  0.51040910686E+02  0.32548293945E+02  0.11624804612E+02  0.13937182508E+03  0.12499921416E+03 0.  0.
    9000005    1    3    3    0    0 -0.14765716651E+01 -0.38521150785E+02 -0.22490436042E+02  0.44641673748E+02  0.10000000000E+01 0.  0.
    9000005    1    3    3    0    0  0.52517482351E+02  0.71069444730E+02  0.34115240653E+02  0.94730151332E+02  0.10000000000E+01 0.  0.
          4    1    1    2  501    0 -0.51040910686E+02 -0.32548293945E+02 -0.11563651857E+03  0.13052962626E+03  0.12700000000E+01 0. -1.
<mgrwt>
<rscale>  1 0.13888617E+03</rscale>
<asrwt>0</asrwt>
<pdfrwt beam="2">  1       21 0.28761803E-01 0.13888617E+03</pdfrwt>
<pdfrwt beam="1">  1        4 0.12761081E-01 0.13888617E+03</pdfrwt>
<totfact> 0.23645566E+04</totfact>
</mgrwt>
</event>
<event>
 6    4  0.6277709E-003  0.1370448E+03  0.7818608E-02  0.1217362E+00
         21   -1    0    0  501  502  0.00000000000E+00  0.00000000000E+00  0.11214827454E+03  0.11214827454E+03  0.00000000000E+00 0. -1.
         -4   -1    0    0    0  501 -0.00000000000E+00 -0.00000000000E+00 -0.24557465673E+03  0.24557794064E+03  0.12700000000E+01 0.  1.
         25    2    1    2    0    0 -0.41765616973E+02  0.37574241076E+02 -0.21721773711E+03  0.25683620371E+03  0.12500039947E+03 0.  0.
    9000005    1    3    3    0    0 -0.70299847336E+02  0.89042240262E+01 -0.20120503699E+03  0.21332093346E+03  0.10000000000E+01 0.  0.
    9000005    1    3    3    0    0  0.28534230363E+02  0.28670017050E+02 -0.16012700122E+02  0.43515270253E+02  0.10000000000E+01 0.  0.
         -4    1    1    2    0  502  0.41765616973E+02 -0.37574241076E+02  0.83791354920E+02  0.10089001146E+03  0.12700000000E+01 0. -1.
<mgrwt>
<rscale>  1 0.13704485E+03</rscale>
<asrwt>0</asrwt>
<pdfrwt beam="1">  1       21 0.17253581E-01 0.13704485E+03</pdfrwt>
<pdfrwt beam="2">  1       -4 0.37781522E-01 0.13704485E+03</pdfrwt>
<totfact> 0.84872088E+03</totfact>
</mgrwt>
</event>
<event>
 6    4  0.6277709E-003  0.1331137E+03  0.7818608E-02  0.1222907E+00
         21   -1    0    0  501  502  0.00000000000E+00  0.00000000000E+00  0.87202900774E+02  0.87202900774E+02  0.00000000000E+00 0. -1.
         -4   -1    0    0    0  501 -0.00000000000E+00 -0.00000000000E+00 -0.91741025560E+02  0.91749815645E+02  0.12700000000E+01 0. -1.
         25    2    1    2    0    0 -0.11060735765E+02  0.44401908995E+02 -0.27917299728E+01  0.13314297736E+03  0.12500155705E+03 0.  0.
    9000005    1    3    3    0    0  0.34177753665E+01 -0.17893716024E+02 -0.50273623354E+02  0.53481805006E+02  0.10000000000E+01 0.  0.
    9000005    1    3    3    0    0 -0.14478511131E+02  0.62295625019E+02  0.47481893381E+02  0.79661172350E+02  0.10000000000E+01 0.  0.
         -4    1    1    2    0  502  0.11060735765E+02 -0.44401908995E+02 -0.17463948137E+01  0.45809739062E+02  0.12700000000E+01 0.  1.
<mgrwt>
<rscale>  1 0.13311371E+03</rscale>
<asrwt>0</asrwt>
<pdfrwt beam="1">  1       21 0.13415831E-01 0.13311371E+03</pdfrwt>
<pdfrwt beam="2">  1       -4 0.14115391E-01 0.13311371E+03</pdfrwt>
<totfact> 0.81078229E+04</totfact>
</mgrwt>
</event>
<event>
 6    4  0.6277709E-003  0.1616949E+03  0.7818608E-02  0.1186796E+00
         -4   -1    0    0    0  501 -0.00000000000E+00  0.00000000000E+00  0.64292871618E+03  0.64292997052E+03  0.12700000000E+01 0.  1.
         21   -1    0    0  501  502  0.00000000000E+00 -0.00000000000E+00 -0.29773941436E+02  0.29773941436E+02  0.00000000000E+00 0. -1.
         25    2    1    2    0    0  0.44696868651E+02  0.92321338114E+02  0.46654552019E+03  0.49377117051E+03  0.12499682749E+03 0.  0.
    9000005    1    3    3    0    0 -0.10170668445E+02  0.71131227801E-01  0.26693601313E+03  0.26713158305E+03  0.10000000000E+01 0.  0.
    9000005    1    3    3    0    0  0.54867537096E+02  0.92250206886E+02  0.19960950706E+03  0.22663958746E+03  0.10000000000E+01 0.  0.
         -4    1    1    2    0  502 -0.44696868651E+02 -0.92321338114E+02  0.14660925456E+03  0.17893274144E+03  0.12700000000E+01 0. -1.
<mgrwt>
<rscale>  1 0.16169492E+03</rscale>
<asrwt>0</asrwt>
<pdfrwt beam="2">  1       21 0.45806069E-02 0.16169492E+03</pdfrwt>
<pdfrwt beam="1">  1       -4 0.98914280E-01 0.16169492E+03</pdfrwt>
<totfact> 0.11355609E+04</totfact>
</mgrwt>
</event>
<event>
 6    4  0.6277709E-003  0.1278686E+03  0.7818608E-02  0.1230653E+00
         21   -1    0    0  501  502  0.00000000000E+00  0.00000000000E+00  0.24681514584E+02  0.24681514584E+02  0.00000000000E+00 0. -1.
          4   -1    0    0  502    0 -0.00000000000E+00 -0.00000000000E+00 -0.26567113705E+03  0.26567417256E+03  0.12700000000E+01 0. -1.
         25    2    1    2    0    0  0.22488243803E+02  0.14836555442E+02 -0.22555910248E+03  0.25928225260E+03  0.12499813326E+03 0.  0.
    9000005    1    3    3    0    0  0.49111828512E+02  0.50857116285E+02 -0.18787035082E+03  0.20073536483E+03  0.10000000000E+01 0.  0.
    9000005    1    3    3    0    0 -0.26623584710E+02 -0.36020560843E+02 -0.37688751654E+02  0.58546887770E+02  0.10000000000E+01 0.  0.
          4    1    1    2  501    0 -0.22488243803E+02 -0.14836555442E+02 -0.15430519993E+02  0.31073434538E+02  0.12700000000E+01 0.  1.
<mgrwt>
<rscale>  1 0.12786860E+03</rscale>
<asrwt>0</asrwt>
<pdfrwt beam="1">  1       21 0.37971560E-02 0.12786860E+03</pdfrwt>
<pdfrwt beam="2">  1        4 0.40875231E-01 0.12786860E+03</pdfrwt>
<totfact> 0.99240354E+04</totfact>
</mgrwt>
</event>
<event>
 6    4  0.6277709E-003  0.1275857E+03  0.7818608E-02  0.1231083E+00
         21   -1    0    0  501  502  0.00000000000E+00  0.00000000000E+00  0.78169766667E+02  0.78169766667E+02  0.00000000000E+00 0.  1.
         -4   -1    0    0    0  501 -0.00000000000E+00 -0.00000000000E+00 -0.76191922666E+02  0.76202506387E+02  0.12700000000E+01 0.  1.
         25    2    1    2    0    0 -0.12229471230E+02 -0.22446558262E+02 -0.55144610141E+01  0.12770477451E+03  0.12499876882E+03 0.  0.
    9000005    1    3    3    0    0 -0.50032392218E+02 -0.90241012817E+01  0.41685837776E+02  0.65752442891E+02  0.10000000000E+01 0.  0.
    9000005    1    3    3    0    0  0.37802920988E+02 -0.13422456980E+02 -0.47200298790E+02  0.61952331615E+02  0.10000000000E+01 0.  0.
         -4    1    1    2    0  502  0.12229471230E+02  0.22446558262E+02  0.74923050145E+01  0.26667498548E+02  0.12700000000E+01 0. -1.
<mgrwt>
<rscale>  1 0.12758566E+03</rscale>
<asrwt>0</asrwt>
<pdfrwt beam="1">  1       21 0.12026118E-01 0.12758566E+03</pdfrwt>
<pdfrwt beam="2">  1       -4 0.11723442E-01 0.12758566E+03</pdfrwt>
<totfact> 0.13474182E+05</totfact>
</mgrwt>
</event>
<event>
 6    4  0.6277709E-003  0.1276852E+03  0.7818608E-02  0.1230931E+00
         -4   -1    0    0    0  501 -0.00000000000E+00  0.00000000000E+00  0.88354710218E+01  0.89262785178E+01  0.12700000000E+01 0.  1.
         21   -1    0    0  501  502  0.00000000000E+00 -0.00000000000E+00 -0.12956658456E+04  0.12956658456E+04  0.00000000000E+00 0. -1.
         25    2    1    2    0    0  0.22083777355E+02  0.13822856094E+02 -0.46117172800E+03  0.47852155925E+03  0.12499902154E+03 0.  0.
    9000005    1    3    3    0    0 -0.51512421775E+02  0.96125633446E+01 -0.22922050356E+03  0.23513606747E+03  0.10000000000E+01 0.  0.
    9000005    1    3    3    0    0  0.73596199129E+02  0.42102927490E+01 -0.23195122444E+03  0.24338549178E+03  0.10000000000E+01 0.  0.
         -4    1    1    2    0  502 -0.22083777355E+02 -0.13822856094E+02 -0.82565864654E+03  0.82607056483E+03  0.12700000000E+01 0. -1.
<mgrwt>
<rscale>  1 0.12768524E+03</rscale>
<asrwt>0</asrwt>
<pdfrwt beam="2">  1       21 0.19933318E+00 0.12768524E+03</pdfrwt>
<pdfrwt beam="1">  1       -4 0.13663365E-02 0.12768524E+03</pdfrwt>
<totfact> 0.10390182E+04</totfact>
</mgrwt>
</event>
<event>
 6    4  0.6277709E-003  0.1294567E+03  0.7818608E-02  0.1228264E+00
          4   -1    0    0  502    0 -0.00000000000E+00  0.00000000000E+00  0.29741419809E+03  0.29741690962E+03  0.12700000000E+01 0.  1.
         21   -1    0    0  501  502  0.00000000000E+00 -0.00000000000E+00 -0.49842651027E+02  0.49842651027E+02  0.00000000000E+00 0. -1.
         25    2    1    2    0    0  0.31189100615E+02  0.12698230592E+02  0.27490993948E+03  0.30386594755E+03  0.12500013679E+03 0.  0.
    9000005    1    3    3    0    0 -0.14578761565E+01 -0.24407391662E+02 -0.76661794226E-01  0.24471453730E+02  0.10000000000E+01 0.  0.
    9000005    1    3    3    0    0  0.32646976772E+02  0.37105622254E+02  0.27498660128E+03  0.27939449382E+03  0.10000000000E+01 0.  0.
          4    1    1    2  501    0 -0.31189100615E+02 -0.12698230592E+02 -0.27338392418E+02  0.43393613094E+02  0.12700000000E+01 0. -1.
<mgrwt>
<rscale>  1 0.12945671E+03</rscale>
<asrwt>0</asrwt>
<pdfrwt beam="2">  1       21 0.76681003E-02 0.12945671E+03</pdfrwt>
<pdfrwt beam="1">  1        4 0.45757483E-01 0.12945671E+03</pdfrwt>
<totfact> 0.24269748E+04</totfact>
</mgrwt>
</event>
<event>
 6    4  0.6277709E-003  0.1394835E+03  0.7818608E-02  0.1214026E+00
         -4   -1    0    0    0  501 -0.00000000000E+00  0.00000000000E+00  0.66425905091E+03  0.66426026497E+03  0.12700000000E+01 0.  1.
         21   -1    0    0  501  502  0.00000000000E+00 -0.00000000000E+00 -0.15707250624E+02  0.15707250624E+02  0.00000000000E+00 0. -1.
         25    2    1    2    0    0  0.66637907545E+01 -0.61532736853E+02  0.39280502155E+03  0.41683501751E+03  0.12499985223E+03 0.  0.
    9000005    1    3    3    0    0  0.43278373622E+01  0.37753033789E+02  0.78656319249E+02  0.87360393167E+02  0.10000000000E+01 0.  0.
    9000005    1    3    3    0    0  0.23359533923E+01 -0.99285770642E+02  0.31414870230E+03  0.32947462434E+03  0.10000000000E+01 0.  0.
         -4    1    1    2    0  502 -0.66637907545E+01  0.61532736853E+02  0.25574677874E+03  0.26313249808E+03  0.12700000000E+01 0. -1.
<mgrwt>
<rscale>  1 0.13948350E+03</rscale>
<asrwt>0</asrwt>
<pdfrwt beam="2">  1       21 0.24165006E-02 0.13948350E+03</pdfrwt>
<pdfrwt beam="1">  1       -4 0.10219772E+00 0.13948350E+03</pdfrwt>
<totfact> 0.29861983E+04</totfact>
</mgrwt>
</event>
<event>
 6    4  0.6277709E-003  0.1312104E+03  0.7818608E-02  0.1225671E+00
         -4   -1    0    0    0  501 -0.00000000000E+00  0.00000000000E+00  0.12579335633E+03  0.12579976708E+03  0.12700000000E+01 0. -1.
         21   -1    0    0  501  502  0.00000000000E+00 -0.00000000000E+00 -0.58649363657E+02  0.58649363657E+02  0.00000000000E+00 0. -1.
         25    2    1    2    0    0  0.11593001848E+02 -0.38099561575E+02  0.58586402475E+02  0.14369597706E+03  0.12502077022E+03 0.  0.
    9000005    1    3    3    0    0 -0.84916124867E+00 -0.51277283821E+02 -0.25773700826E+02  0.57405266006E+02  0.10000000000E+01 0.  0.
    9000005    1    3    3    0    0  0.12442163096E+02  0.13177722246E+02  0.84360103301E+02  0.86290711059E+02  0.10000000000E+01 0.  0.
         -4    1    1    2    0  502 -0.11593001848E+02  0.38099561575E+02  0.85575901974E+01  0.40753153670E+02  0.12700000000E+01 0.  1.
<mgrwt>
<rscale>  1 0.13121039E+03</rscale>
<asrwt>0</asrwt>
<pdfrwt beam="2">  1       21 0.90229790E-02 0.13121039E+03</pdfrwt>
<pdfrwt beam="1">  1       -4 0.19354375E-01 0.13121039E+03</pdfrwt>
<totfact> 0.93338480E+04</totfact>
</mgrwt>
</event>
<event>
 6    4  0.6277709E-003  0.1310333E+03  0.7818608E-02  0.1225931E+00
          4   -1    0    0  502    0 -0.00000000000E+00  0.00000000000E+00  0.42244010547E+02  0.42263096515E+02  0.12700000000E+01 0. -1.
         21   -1    0    0  501  502  0.00000000000E+00 -0.00000000000E+00 -0.17933222336E+03  0.17933222336E+03  0.00000000000E+00 0. -1.
         25    2    1    2    0    0  0.28833795252E+02  0.26716636160E+02 -0.84458858070E+02  0.15589426755E+03  0.12499823019E+03 0.  0.
    9000005    1    3    3    0    0  0.27914891838E+02  0.71538302165E+02 -0.23685110632E+02  0.80367619901E+02  0.10000000000E+01 0.  0.
    9000005    1    3    3    0    0  0.91890341466E+00 -0.44821666005E+02 -0.60773747438E+02  0.75526647646E+02  0.10000000000E+01 0.  0.
          4    1    1    2  501    0 -0.28833795252E+02 -0.26716636160E+02 -0.52629354747E+02  0.65701052331E+02  0.12700000000E+01 0.  1.
<mgrwt>
<rscale>  1 0.13103329E+03</rscale>
<asrwt>0</asrwt>
<pdfrwt beam="2">  1       21 0.27589572E-01 0.13103329E+03</pdfrwt>
<pdfrwt beam="1">  1        4 0.65008927E-02 0.13103329E+03</pdfrwt>
<totfact> 0.78689120E+04</totfact>
</mgrwt>
</event>
<event>
 6    4  0.6277709E-003  0.1273177E+03  0.7818608E-02  0.1231491E+00
         21   -1    0    0  501  502  0.00000000000E+00  0.00000000000E+00  0.22419646506E+03  0.22419646506E+03  0.00000000000E+00 0. -1.
          4   -1    0    0  502    0 -0.00000000000E+00 -0.00000000000E+00 -0.32237243447E+02  0.32262249845E+02  0.12700000000E+01 0. -1.
         25    2    1    2    0    0 -0.18466254235E+02  0.15628917761E+02  0.10153915529E+03  0.16284959724E+03  0.12499810258E+03 0.  0.
    9000005    1    3    3    0    0 -0.58843124258E+02 -0.10098940515E+02  0.11415382242E+02  0.60793197183E+02  0.10000000000E+01 0.  0.
    9000005    1    3    3    0    0  0.40376870024E+02  0.25727858276E+02  0.90123773044E+02  0.10205640005E+03  0.10000000000E+01 0.  0.
          4    1    1    2  501    0  0.18466254235E+02 -0.15628917761E+02  0.90420066325E+02  0.93609117666E+02  0.12700000000E+01 0.  1.
<mgrwt>
<rscale>  1 0.12731768E+03</rscale>
<asrwt>0</asrwt>
<pdfrwt beam="1">  1       21 0.34491763E-01 0.12731768E+03</pdfrwt>
<pdfrwt beam="2">  1        4 0.49617763E-02 0.12731768E+03</pdfrwt>
<totfact> 0.78799202E+04</totfact>
</mgrwt>
</event>
<event>
 6    4  0.6277709E-003  0.1285815E+03  0.7818608E-02  0.1229576E+00
         21   -1    0    0  501  502  0.00000000000E+00  0.00000000000E+00  0.17814345485E+02  0.17814345485E+02  0.00000000000E+00 0.  1.
          4   -1    0    0  502    0 -0.00000000000E+00 -0.00000000000E+00 -0.65006922791E+03  0.65007046847E+03  0.12700000000E+01 0. -1.
         25    2    1    2    0    0 -0.18503962551E+02  0.23786223813E+02 -0.62329473177E+03  0.63641930469E+03  0.12500011063E+03 0.  0.
    9000005    1    3    3    0    0 -0.60863513179E+02  0.43621996701E+02 -0.47651811223E+03  0.48236682837E+03  0.10000000000E+01 0.  0.
    9000005    1    3    3    0    0  0.42359550628E+02 -0.19835772888E+02 -0.14677661954E+03  0.15405247631E+03  0.10000000000E+01 0.  0.
          4    1    1    2  501    0  0.18503962551E+02 -0.23786223813E+02 -0.89601506546E+01  0.31465509262E+02  0.12700000000E+01 0.  1.
<mgrwt>
<rscale>  1 0.12858153E+03</rscale>
<asrwt>0</asrwt>
<pdfrwt beam="1">  1       21 0.27406688E-02 0.12858153E+03</pdfrwt>
<pdfrwt beam="2">  1        4 0.10001422E+00 0.12858153E+03</pdfrwt>
<totfact> 0.25332510E+04</totfact>
</mgrwt>
</event>
<event>
 6    4  0.6277709E-003  0.1328579E+03  0.7818608E-02  0.1223276E+00
          4   -1    0    0  502    0 -0.00000000000E+00  0.00000000000E+00  0.83599156450E+02  0.83608802522E+02  0.12700000000E+01 0.  1.
         21   -1    0    0  501  502  0.00000000000E+00 -0.00000000000E+00 -0.12195982922E+03  0.12195982922E+03  0.00000000000E+00 0.  1.
         25    2    1    2    0    0 -0.22050692430E+02 -0.39237057995E+02  0.17296111376E+02  0.13397903558E+03  0.12500178699E+03 0.  0.
    9000005    1    3    3    0    0  0.12021261023E+02 -0.23256228506E+02  0.66818915100E+02  0.71771375186E+02  0.10000000000E+01 0.  0.
    9000005    1    3    3    0    0 -0.34071953453E+02 -0.15980829489E+02 -0.49522803724E+02  0.62207660396E+02  0.10000000000E+01 0.  0.
          4    1    1    2  501    0  0.22050692430E+02  0.39237057995E+02 -0.55656784147E+02  0.71589596160E+02  0.12700000000E+01 0. -1.
<mgrwt>
<rscale>  1 0.13285792E+03</rscale>
<asrwt>0</asrwt>
<pdfrwt beam="2">  1       21 0.18763051E-01 0.13285792E+03</pdfrwt>
<pdfrwt beam="1">  1        4 0.12862659E-01 0.13285792E+03</pdfrwt>
<totfact> 0.51813794E+04</totfact>
</mgrwt>
</event>
<event>
 6    4  0.6277709E-003  0.1349558E+03  0.7818608E-02  0.1220282E+00
         21   -1    0    0  501  502  0.00000000000E+00  0.00000000000E+00  0.29860339856E+03  0.29860339856E+03  0.00000000000E+00 0.  1.
         -4   -1    0    0    0  501 -0.00000000000E+00 -0.00000000000E+00 -0.56478835107E+02  0.56493112103E+02  0.12700000000E+01 0. -1.
         25    2    1    2    0    0 -0.49180241725E+02 -0.13019277553E+02  0.31731303351E+02  0.13863604185E+03  0.12499951489E+03 0.  0.
    9000005    1    3    3    0    0 -0.28709973912E+02  0.24798480843E+02  0.70927356026E+02  0.80442010710E+02  0.10000000000E+01 0.  0.
    9000005    1    3    3    0    0 -0.20470267813E+02 -0.37817758397E+02 -0.39196052675E+02  0.58194031136E+02  0.10000000000E+01 0.  0.
         -4    1    1    2    0  502  0.49180241725E+02  0.13019277553E+02  0.21039326010E+03  0.21646046882E+03  0.12700000000E+01 0.  1.
<mgrwt>
<rscale>  1 0.13495583E+03</rscale>
<asrwt>0</asrwt>
<pdfrwt beam="1">  1       21 0.45938984E-01 0.13495583E+03</pdfrwt>
<pdfrwt beam="2">  1       -4 0.86903577E-02 0.13495583E+03</pdfrwt>
<totfact> 0.17891400E+04</totfact>
</mgrwt>
</event>
<event>
 6    4  0.6277709E-003  0.1268358E+03  0.7818608E-02  0.1232228E+00
         21   -1    0    0  501  502  0.00000000000E+00  0.00000000000E+00  0.16886213614E+03  0.16886213614E+03  0.00000000000E+00 0.  1.
          4   -1    0    0  502    0 -0.00000000000E+00 -0.00000000000E+00 -0.50205851317E+02  0.50221911617E+02  0.12700000000E+01 0. -1.
         25    2    1    2    0    0 -0.85271871759E+01 -0.19759367597E+02  0.33421517867E+02  0.13116519923E+03  0.12499666437E+03 0.  0.
    9000005    1    3    3    0    0  0.49910170265E+02 -0.32230276657E+02 -0.57681440057E+01  0.59699977509E+02  0.10000000000E+01 0.  0.
    9000005    1    3    3    0    0 -0.58437357441E+02  0.12470909060E+02  0.39189661873E+02  0.71465221718E+02  0.10000000000E+01 0.  0.
          4    1    1    2  501    0  0.85271871759E+01  0.19759367597E+02  0.85234766951E+02  0.87918848526E+02  0.12700000000E+01 0.  1.
<mgrwt>
<rscale>  1 0.12683577E+03</rscale>
<asrwt>0</asrwt>
<pdfrwt beam="1">  1       21 0.25978790E-01 0.12683577E+03</pdfrwt>
<pdfrwt beam="2">  1        4 0.77255800E-02 0.12683577E+03</pdfrwt>
<totfact> 0.66196569E+04</totfact>
</mgrwt>
</event>
<event>
 6    4  0.6277709E-003  0.1283932E+03  0.7818608E-02  0.1229860E+00
         -4   -1    0    0    0  501 -0.00000000000E+00  0.00000000000E+00  0.16673931003E+04  0.16673935840E+04  0.12700000000E+01 0.  1.
         21   -1    0    0  501  502  0.00000000000E+00 -0.00000000000E+00 -0.38026143181E+01  0.38026143181E+01  0.00000000000E+00 0. -1.
         25    2    1    2    0    0 -0.28867263452E+02  0.51434237412E+01  0.14342505998E+04  0.14399859692E+04  0.12500013976E+03 0.  0.
    9000005    1    3    3    0    0  0.14310189340E+02 -0.23448933499E+02  0.11893644535E+04  0.11896820741E+04  0.10000000000E+01 0.  0.
    9000005    1    3    3    0    0 -0.43177452793E+02  0.28592357240E+02  0.24488614622E+03  0.25030389516E+03  0.10000000000E+01 0.  0.
         -4    1    1    2    0  502  0.28867263452E+02 -0.51434237412E+01  0.22933988626E+03  0.23121022909E+03  0.12700000000E+01 0. -1.
<mgrwt>
<rscale>  1 0.12839318E+03</rscale>
<asrwt>0</asrwt>
<pdfrwt beam="2">  1       21 0.58501892E-03 0.12839318E+03</pdfrwt>
<pdfrwt beam="1">  1       -4 0.25653778E+00 0.12839318E+03</pdfrwt>
<totfact> 0.23710440E+04</totfact>
</mgrwt>
</event>
<event>
 6    4  0.6277709E-003  0.1288101E+03  0.7818608E-02  0.1229232E+00
         21   -1    0    0  501  502  0.00000000000E+00  0.00000000000E+00  0.22721041031E+03  0.22721041031E+03  0.00000000000E+00 0. -1.
          4   -1    0    0  502    0 -0.00000000000E+00 -0.00000000000E+00 -0.56014124922E+02  0.56028520333E+02  0.12700000000E+01 0.  1.
         25    2    1    2    0    0  0.42089992075E+01  0.30874277215E+02  0.21823833888E+02  0.13064574982E+03  0.12498438123E+03 0.  0.
    9000005    1    3    3    0    0  0.12217624960E+02  0.30077402723E+02  0.72437817546E+02  0.79386131818E+02  0.10000000000E+01 0.  0.
    9000005    1    3    3    0    0 -0.80086257527E+01  0.79687449251E+00 -0.50613983658E+02  0.51259617997E+02  0.10000000000E+01 0.  0.
          4    1    1    2  501    0 -0.42089992075E+01 -0.30874277215E+02  0.14937245150E+03  0.15259318083E+03  0.12700000000E+01 0. -1.
<mgrwt>
<rscale>  1 0.12881006E+03</rscale>
<asrwt>0</asrwt>
<pdfrwt beam="1">  1       21 0.34955447E-01 0.12881006E+03</pdfrwt>
<pdfrwt beam="2">  1        4 0.86189382E-02 0.12881006E+03</pdfrwt>
<totfact> 0.31199345E+04</totfact>
</mgrwt>
</event>
<event>
 6    4  0.6277709E-003  0.1321754E+03  0.7818608E-02  0.1224263E+00
         -4   -1    0    0    0  501 -0.00000000000E+00  0.00000000000E+00  0.31901537382E+03  0.31901790175E+03  0.12700000000E+01 0.  1.
         21   -1    0    0  501  502  0.00000000000E+00 -0.00000000000E+00 -0.25201190986E+02  0.25201190986E+02  0.00000000000E+00 0.  1.
         25    2    1    2    0    0  0.75779529811E+01  0.42112078224E+02  0.25100469446E+03  0.28367887718E+03  0.12505797142E+03 0.  0.
    9000005    1    3    3    0    0 -0.22801391253E+02  0.54665358114E+02  0.24261116095E+03  0.24973862384E+03  0.10000000000E+01 0.  0.
    9000005    1    3    3    0    0  0.30379344235E+02 -0.12553279890E+02  0.83935335090E+01  0.33940253342E+02  0.10000000000E+01 0.  0.
         -4    1    1    2    0  502 -0.75779529811E+01 -0.42112078224E+02  0.42809488379E+02  0.60540215551E+02  0.12700000000E+01 0. -1.
<mgrwt>
<rscale>  1 0.13217545E+03</rscale>
<asrwt>0</asrwt>
<pdfrwt beam="2">  1       21 0.38771065E-02 0.13217545E+03</pdfrwt>
<pdfrwt beam="1">  1       -4 0.49081941E-01 0.13217545E+03</pdfrwt>
<totfact> 0.66806280E+04</totfact>
</mgrwt>
</event>
<event>
 6    4  0.6277709E-003  0.1371301E+03  0.7818608E-02  0.1217244E+00
         21   -1    0    0  501  502  0.00000000000E+00  0.00000000000E+00  0.11344538653E+03  0.11344538653E+03  0.00000000000E+00 0. -1.
         -4   -1    0    0    0  501 -0.00000000000E+00 -0.00000000000E+00 -0.19263176425E+03  0.19263595069E+03  0.12700000000E+01 0.  1.
         25    2    1    2    0    0  0.12175853535E+02 -0.55053942082E+02 -0.15797282978E+03  0.20918909875E+03  0.12500190454E+03 0.  0.
    9000005    1    3    3    0    0  0.55505146602E+02  0.85325396790E+01 -0.42539764785E+02  0.70457484490E+02  0.10000000000E+01 0.  0.
    9000005    1    3    3    0    0 -0.43329293067E+02 -0.63586481761E+02 -0.11543306499E+03  0.13873161426E+03  0.10000000000E+01 0.  0.
         -4    1    1    2    0  502 -0.12175853535E+02  0.55053942082E+02  0.78786452059E+02  0.96892238472E+02  0.12700000000E+01 0. -1.
<mgrwt>
<rscale>  1 0.13713010E+03</rscale>
<asrwt>0</asrwt>
<pdfrwt beam="1">  1       21 0.17453136E-01 0.13713010E+03</pdfrwt>
<pdfrwt beam="2">  1       -4 0.29636525E-01 0.13713010E+03</pdfrwt>
<totfact> 0.13243234E+04</totfact>
</mgrwt>
</event>
<event>
 6    4  0.6277709E-003  0.1448754E+03  0.7818608E-02  0.1206915E+00
         21   -1    0    0  501  502  0.00000000000E+00  0.00000000000E+00  0.37857329162E+02  0.37857329162E+02  0.00000000000E+00 0. -1.
          4   -1    0    0  502    0 -0.00000000000E+00 -0.00000000000E+00 -0.31735962894E+03  0.31736217005E+03  0.12700000000E+01 0. -1.
         25    2    1    2    0    0 -0.40889045512E+02  0.60763366952E+02 -0.20196118059E+03  0.24855020246E+03  0.12499913547E+03 0.  0.
    9000005    1    3    3    0    0 -0.28501407279E+02  0.81029370056E+02 -0.60409714485E+02  0.10501629699E+03  0.10000000000E+01 0.  0.
    9000005    1    3    3    0    0 -0.12387638234E+02 -0.20266003104E+02 -0.14155146611E+03  0.14353390547E+03  0.10000000000E+01 0.  0.
          4    1    1    2  501    0  0.40889045512E+02 -0.60763366952E+02 -0.77541119185E+02  0.10666929676E+03  0.12700000000E+01 0.  1.
<mgrwt>
<rscale>  1 0.14487541E+03</rscale>
<asrwt>0</asrwt>
<pdfrwt beam="1">  1       21 0.58242042E-02 0.14487541E+03</pdfrwt>
<pdfrwt beam="2">  1        4 0.48826394E-01 0.14487541E+03</pdfrwt>
<totfact> 0.34491370E+04</totfact>
</mgrwt>
</event>
<event>
 6    4  0.6277709E-003  0.1287691E+03  0.7818608E-02  0.1229294E+00
         21   -1    0    0  501  502  0.00000000000E+00  0.00000000000E+00  0.22464018252E+02  0.22464018252E+02  0.00000000000E+00 0. -1.
         -4   -1    0    0    0  501 -0.00000000000E+00 -0.00000000000E+00 -0.30399888380E+03  0.30400153660E+03  0.12700000000E+01 0. -1.
         25    2    1    2    0    0  0.62030725545E+00  0.30912122110E+02 -0.25513867268E+03  0.28579227157E+03  0.12500214445E+03 0.  0.
    9000005    1    3    3    0    0 -0.31775940767E+01 -0.37452933401E+02 -0.23726196790E+02  0.44460676317E+02  0.10000000000E+01 0.  0.
    9000005    1    3    3    0    0  0.37979013322E+01  0.68365055511E+02 -0.23141247589E+03  0.24133159526E+03  0.10000000000E+01 0.  0.
         -4    1    1    2    0  502 -0.62030725545E+00 -0.30912122110E+02 -0.26396192865E+02  0.40673283273E+02  0.12700000000E+01 0.  1.
<mgrwt>
<rscale>  1 0.12876910E+03</rscale>
<asrwt>0</asrwt>
<pdfrwt beam="1">  1       21 0.34560032E-02 0.12876910E+03</pdfrwt>
<pdfrwt beam="2">  1       -4 0.46772020E-01 0.12876910E+03</pdfrwt>
<totfact> 0.88744527E+04</totfact>
</mgrwt>
</event>
<event>
 6    4  0.6277709E-003  0.1380030E+03  0.7818608E-02  0.1216042E+00
         -4   -1    0    0    0  501 -0.00000000000E+00  0.00000000000E+00  0.73370688615E+03  0.73370798529E+03  0.12700000000E+01 0. -1.
         21   -1    0    0  501  502  0.00000000000E+00 -0.00000000000E+00 -0.36048323659E+02  0.36048323659E+02  0.00000000000E+00 0.  1.
         25    2    1    2    0    0  0.57276666396E+02 -0.11839863541E+02  0.69773824262E+03  0.71125487195E+03  0.12499615503E+03 0.  0.
    9000005    1    3    3    0    0  0.26803715533E+02 -0.50029950531E+02  0.59262222452E+03  0.59533481010E+03  0.10000000000E+01 0.  0.
    9000005    1    3    3    0    0  0.30472950863E+02  0.38190086990E+02  0.10511601810E+03  0.11592006185E+03  0.10000000000E+01 0.  0.
         -4    1    1    2    0  502 -0.57276666396E+02  0.11839863541E+02 -0.79680133633E-01  0.58501437000E+02  0.12700000000E+01 0.  1.
<mgrwt>
<rscale>  1 0.13800303E+03</rscale>
<asrwt>0</asrwt>
<pdfrwt beam="2">  1       21 0.55458965E-02 0.13800303E+03</pdfrwt>
<pdfrwt beam="1">  1       -4 0.11287978E+00 0.13800303E+03</pdfrwt>
<totfact> 0.59572020E+03</totfact>
</mgrwt>
</event>
<event>
 6    4  0.6277709E-003  0.1336468E+03  0.7818608E-02  0.1222143E+00
          4   -1    0    0  502    0 -0.00000000000E+00  0.00000000000E+00  0.78668955514E+02  0.78679206031E+02  0.12700000000E+01 0.  1.
         21   -1    0    0  501  502  0.00000000000E+00 -0.00000000000E+00 -0.17970595815E+03  0.17970595815E+03  0.00000000000E+00 0. -1.
         25    2    1    2    0    0  0.40167967529E+02  0.24955998206E+02  0.13633163717E+02  0.13434030369E+03  0.12500074632E+03 0.  0.
    9000005    1    3    3    0    0 -0.27364680281E+02 -0.34169048495E+01 -0.36362884720E+02  0.45648223961E+02  0.10000000000E+01 0.  0.
    9000005    1    3    3    0    0  0.67532647810E+02  0.28372903056E+02  0.49996048437E+02  0.88692079733E+02  0.10000000000E+01 0.  0.
          4    1    1    2  501    0 -0.40167967529E+02 -0.24955998206E+02 -0.11467016635E+03  0.12404486048E+03  0.12700000000E+01 0. -1.
<mgrwt>
<rscale>  1 0.13364675E+03</rscale>
<asrwt>0</asrwt>
<pdfrwt beam="2">  1       21 0.27647070E-01 0.13364675E+03</pdfrwt>
<pdfrwt beam="1">  1        4 0.12104050E-01 0.13364675E+03</pdfrwt>
<totfact> 0.27826423E+04</totfact>
</mgrwt>
</event>
<event>
 6    4  0.6277709E-003  0.1364084E+03  0.7818608E-02  0.1218245E+00
         21   -1    0    0  501  502  0.00000000000E+00  0.00000000000E+00  0.42101263151E+02  0.42101263151E+02  0.00000000000E+00 0.  1.
         -4   -1    0    0    0  501 -0.00000000000E+00 -0.00000000000E+00 -0.36603919121E+03  0.36604139439E+03  0.12700000000E+01 0. -1.
         25    2    1    2    0    0  0.33738964259E+02 -0.42918913039E+02 -0.32611247930E+03  0.35349201821E+03  0.12500762769E+03 0.  0.
    9000005    1    3    3    0    0  0.10347911012E+02 -0.86304418396E+02 -0.21671512415E+03  0.23349941527E+03  0.10000000000E+01 0.  0.
    9000005    1    3    3    0    0  0.23391053247E+02  0.43385505356E+02 -0.10939735515E+03  0.11999260294E+03  0.10000000000E+01 0.  0.
         -4    1    1    2    0  502 -0.33738964259E+02  0.42918913039E+02  0.21745512334E+01  0.54650639327E+02  0.12700000000E+01 0.  1.
<mgrwt>
<rscale>  1 0.13640842E+03</rscale>
<asrwt>0</asrwt>
<pdfrwt beam="1">  1       21 0.64771174E-02 0.13640842E+03</pdfrwt>
<pdfrwt beam="2">  1       -4 0.56315365E-01 0.13640842E+03</pdfrwt>
<totfact> 0.21331604E+04</totfact>
</mgrwt>
</event>
<event>
 6    4  0.6277709E-003  0.1288011E+03  0.7818608E-02  0.1229246E+00
         21   -1    0    0  501  502  0.00000000000E+00  0.00000000000E+00  0.51313671675E+02  0.51313671675E+02  0.00000000000E+00 0. -1.
         -4   -1    0    0    0  501 -0.00000000000E+00 -0.00000000000E+00 -0.14203519515E+03  0.14204087285E+03  0.12700000000E+01 0. -1.
         25    2    1    2    0    0  0.26324215451E+02  0.16550087716E+02 -0.97453294246E+02  0.16151432844E+03  0.12499145575E+03 0.  0.
    9000005    1    3    3    0    0  0.31756109969E+02  0.37560828409E+01  0.23540654136E+02  0.39720537205E+02  0.10000000000E+01 0.  0.
    9000005    1    3    3    0    0 -0.54318945182E+01  0.12794004875E+02 -0.12099394838E+03  0.12179379124E+03  0.10000000000E+01 0.  0.
         -4    1    1    2    0  502 -0.26324215451E+02 -0.16550087716E+02  0.67317707743E+01  0.31840216084E+02  0.12700000000E+01 0.  1.
<mgrwt>
<rscale>  1 0.12880114E+03</rscale>
<asrwt>0</asrwt>
<pdfrwt beam="1">  1       21 0.78944111E-02 0.12880114E+03</pdfrwt>
<pdfrwt beam="2">  1       -4 0.21853214E-01 0.12880114E+03</pdfrwt>
<totfact> 0.94237712E+04</totfact>
</mgrwt>
</event>
<event>
 6    4  0.6277709E-003  0.1307888E+03  0.7818608E-02  0.1226290E+00
         21   -1    0    0  501  502  0.00000000000E+00  0.00000000000E+00  0.41913353125E+02  0.41913353125E+02  0.00000000000E+00 0.  1.
          4   -1    0    0  502    0 -0.00000000000E+00 -0.00000000000E+00 -0.27732102683E+03  0.27732393482E+03  0.12700000000E+01 0. -1.
         25    2    1    2    0    0  0.32979457684E+02  0.19823912088E+02 -0.24660587467E+03  0.27914184276E+03  0.12500031535E+03 0.  0.
    9000005    1    3    3    0    0  0.32916376177E+02 -0.36875595987E+02 -0.19915464432E+03  0.20519958517E+03  0.10000000000E+01 0.  0.
    9000005    1    3    3    0    0  0.63081506685E-01  0.56699508075E+02 -0.47451230347E+02  0.73942257584E+02  0.10000000000E+01 0.  0.
          4    1    1    2  501    0 -0.32979457684E+02 -0.19823912088E+02  0.11198200964E+02  0.40095445183E+02  0.12700000000E+01 0.  1.
<mgrwt>
<rscale>  1 0.13078880E+03</rscale>
<asrwt>0</asrwt>
<pdfrwt beam="1">  1       21 0.64482082E-02 0.13078880E+03</pdfrwt>
<pdfrwt beam="2">  1        4 0.42666477E-01 0.13078880E+03</pdfrwt>
<totfact> 0.37585205E+04</totfact>
</mgrwt>
</event>
<event>
 6    4  0.6277709E-003  0.1308517E+03  0.7818608E-02  0.1226197E+00
         -4   -1    0    0    0  501 -0.00000000000E+00  0.00000000000E+00  0.16119925381E+02  0.16169876137E+02  0.12700000000E+01 0. -1.
         21   -1    0    0  501  502  0.00000000000E+00 -0.00000000000E+00 -0.45023802916E+03  0.45023802916E+03  0.00000000000E+00 0.  1.
         25    2    1    2    0    0 -0.38665124322E+02 -0.10351431705E+01 -0.35459831618E+03  0.37797107541E+03  0.12500441853E+03 0.  0.
    9000005    1    3    3    0    0  0.36774245011E+02  0.11221609758E+02 -0.21866508958E+03  0.22202182555E+03  0.10000000000E+01 0.  0.
    9000005    1    3    3    0    0 -0.75439369333E+02 -0.12256752929E+02 -0.13593322660E+03  0.15594924986E+03  0.10000000000E+01 0.  0.
         -4    1    1    2    0  502  0.38665124322E+02  0.10351431705E+01 -0.79519787606E+02  0.88436829890E+02  0.12700000000E+01 0.  1.
<mgrwt>
<rscale>  1 0.13085170E+03</rscale>
<asrwt>0</asrwt>
<pdfrwt beam="2">  1       21 0.69267395E-01 0.13085170E+03</pdfrwt>
<pdfrwt beam="1">  1       -4 0.24839685E-02 0.13085170E+03</pdfrwt>
<totfact> 0.55963489E+04</totfact>
</mgrwt>
</event>
<event>
 6    4  0.6277709E-003  0.1269691E+03  0.7818608E-02  0.1232024E+00
         21   -1    0    0  501  502  0.00000000000E+00  0.00000000000E+00  0.11274656064E+03  0.11274656064E+03  0.00000000000E+00 0.  1.
         -4   -1    0    0    0  501 -0.00000000000E+00 -0.00000000000E+00 -0.10851942598E+03  0.10852685712E+03  0.12700000000E+01 0. -1.
         25    2    1    2    0    0 -0.14223843049E+02 -0.17141365717E+02 -0.69150848775E+02  0.14457866251E+03  0.12500002255E+03 0.  0.
    9000005    1    3    3    0    0 -0.29027501039E+01  0.43979526548E+02 -0.69624008100E+02  0.82408295805E+02  0.10000000000E+01 0.  0.
    9000005    1    3    3    0    0 -0.11321092945E+02 -0.61120892265E+02  0.47315932498E+00  0.62170366707E+02  0.10000000000E+01 0.  0.
         -4    1    1    2    0  502  0.14223843049E+02  0.17141365717E+02  0.73377983436E+02  0.76694755250E+02  0.12700000000E+01 0.  1.
<mgrwt>
<rscale>  1 0.12696909E+03</rscale>
<asrwt>0</asrwt>
<pdfrwt beam="1">  1       21 0.17345625E-01 0.12696909E+03</pdfrwt>
<pdfrwt beam="2">  1       -4 0.16696418E-01 0.12696909E+03</pdfrwt>
<totfact> 0.37785771E+04</totfact>
</mgrwt>
</event>
<event>
 6    4  0.6277709E-003  0.1279030E+03  0.7818608E-02  0.1230601E+00
         -4   -1    0    0    0  501 -0.00000000000E+00  0.00000000000E+00  0.46690823778E+03  0.46690996499E+03  0.12700000000E+01 0.  1.
         21   -1    0    0  501  502  0.00000000000E+00 -0.00000000000E+00 -0.64228557761E+02  0.64228557761E+02  0.00000000000E+00 0. -1.
         25    2    1    2    0    0  0.27073491653E+02  0.10883104124E+01  0.45476725050E+03  0.47241130361E+03  0.12500011711E+03 0.  0.
    9000005    1    3    3    0    0  0.43046680743E+02 -0.51509927996E+01  0.45308047259E+03  0.45515103438E+03  0.10000000000E+01 0.  0.
    9000005    1    3    3    0    0 -0.15973189090E+02  0.62393032120E+01  0.16867779106E+01  0.17260269233E+02  0.10000000000E+01 0.  0.
         -4    1    1    2    0  502 -0.27073491653E+02 -0.10883104124E+01 -0.52087570481E+02  0.58727219145E+02  0.12700000000E+01 0. -1.
<mgrwt>
<rscale>  1 0.12790304E+03</rscale>
<asrwt>0</asrwt>
<pdfrwt beam="2">  1       21 0.98813169E-02 0.12790304E+03</pdfrwt>
<pdfrwt beam="1">  1       -4 0.71833133E-01 0.12790304E+03</pdfrwt>
<totfact> 0.61055655E+03</totfact>
</mgrwt>
</event>
<event>
 6    4  0.6277709E-003  0.1270732E+03  0.7818608E-02  0.1231864E+00
         21   -1    0    0  501  502  0.00000000000E+00  0.00000000000E+00  0.22630354059E+03  0.22630354059E+03  0.00000000000E+00 0.  1.
          4   -1    0    0  502    0 -0.00000000000E+00 -0.00000000000E+00 -0.25612371027E+02  0.25643838434E+02  0.12700000000E+01 0.  1.
         25    2    1    2    0    0  0.20217713584E+02 -0.10882427843E+02  0.15215363884E+03  0.19823808777E+03  0.12498170447E+03 0.  0.
    9000005    1    3    3    0    0  0.59275024909E+02  0.69115313934E+01  0.26224754721E+02  0.65192297124E+02  0.10000000000E+01 0.  0.
    9000005    1    3    3    0    0 -0.39057311325E+02 -0.17793959236E+02  0.12592888412E+03  0.13304579065E+03  0.10000000000E+01 0.  0.
          4    1    1    2  501    0 -0.20217713584E+02  0.10882427843E+02  0.48537530716E+02  0.53709291248E+02  0.12700000000E+01 0. -1.
<mgrwt>
<rscale>  1 0.12707325E+03</rscale>
<asrwt>0</asrwt>
<pdfrwt beam="1">  1       21 0.34815928E-01 0.12707325E+03</pdfrwt>
<pdfrwt beam="2">  1        4 0.39430596E-02 0.12707325E+03</pdfrwt>
<totfact> 0.11158496E+05</totfact>
</mgrwt>
</event>
<event>
 6    4  0.6277709E-003  0.1286688E+03  0.7818608E-02  0.1229445E+00
         21   -1    0    0  501  502  0.00000000000E+00  0.00000000000E+00  0.14935854595E+02  0.14935854595E+02  0.00000000000E+00 0. -1.
          4   -1    0    0  502    0 -0.00000000000E+00 -0.00000000000E+00 -0.64077668930E+03  0.64077794785E+03  0.12700000000E+01 0.  1.
         25    2    1    2    0    0 -0.28440236195E+02  0.11058880848E+02 -0.60549738171E+03  0.61901755113E+03  0.12499801387E+03 0.  0.
    9000005    1    3    3    0    0 -0.52788833886E+02  0.56245911513E+02 -0.37963520362E+03  0.38739405181E+03  0.10000000000E+01 0.  0.
    9000005    1    3    3    0    0  0.24348597691E+02 -0.45187030665E+02 -0.22586217809E+03  0.23162349932E+03  0.10000000000E+01 0.  0.
          4    1    1    2  501    0  0.28440236195E+02 -0.11058880848E+02 -0.20343452992E+02  0.36696251308E+02  0.12700000000E+01 0. -1.
<mgrwt>
<rscale>  1 0.12866876E+03</rscale>
<asrwt>0</asrwt>
<pdfrwt beam="1">  1       21 0.22978243E-02 0.12866876E+03</pdfrwt>
<pdfrwt beam="2">  1        4 0.98585258E-01 0.12866876E+03</pdfrwt>
<totfact> 0.34889193E+04</totfact>
</mgrwt>
</event>
<event>
 6    4  0.6277709E-003  0.1275402E+03  0.7818608E-02  0.1231152E+00
         21   -1    0    0  501  502  0.00000000000E+00  0.00000000000E+00  0.11923135221E+02  0.11923135221E+02  0.00000000000E+00 0.  1.
         -4   -1    0    0    0  501 -0.00000000000E+00 -0.00000000000E+00 -0.67318904073E+03  0.67319023868E+03  0.12700000000E+01 0.  1.
         25    2    1    2    0    0  0.14355337945E+02  0.20990706828E+02 -0.63799874387E+03  0.65062193712E+03  0.12497928783E+03 0.  0.
    9000005    1    3    3    0    0  0.56015021397E+02 -0.27852583001E+02 -0.27922790260E+03  0.28615148190E+03  0.10000000000E+01 0.  0.
    9000005    1    3    3    0    0 -0.41659683452E+02  0.48843289828E+02 -0.35877084127E+03  0.36447045522E+03  0.10000000000E+01 0.  0.
         -4    1    1    2    0  502 -0.14355337945E+02 -0.20990706828E+02 -0.23267161644E+02  0.34491436787E+02  0.12700000000E+01 0. -1.
<mgrwt>
<rscale>  1 0.12754022E+03</rscale>
<asrwt>0</asrwt>
<pdfrwt beam="1">  1       21 0.18343282E-02 0.12754022E+03</pdfrwt>
<pdfrwt beam="2">  1       -4 0.10357286E+00 0.12754022E+03</pdfrwt>
<totfact> 0.44724047E+04</totfact>
</mgrwt>
</event>
<event>
 6    4  0.6277709E-003  0.1272134E+03  0.7818608E-02  0.1231650E+00
         -4   -1    0    0    0  501 -0.00000000000E+00  0.00000000000E+00  0.20692173417E+02  0.20731110455E+02  0.12700000000E+01 0.  1.
         21   -1    0    0  501  502  0.00000000000E+00 -0.00000000000E+00 -0.32314959483E+03  0.32314959483E+03  0.00000000000E+00 0.  1.
         25    2    1    2    0    0  0.34473816864E+01 -0.23367130564E+02 -0.18794397246E+03  0.22694974222E+03  0.12500136591E+03 0.  0.
    9000005    1    3    3    0    0 -0.45357649761E+02  0.30265297142E+02 -0.75164716139E+02  0.92865704947E+02  0.10000000000E+01 0.  0.
    9000005    1    3    3    0    0  0.48805031448E+02 -0.53632427706E+02 -0.11277925632E+03  0.13408403728E+03  0.10000000000E+01 0.  0.
         -4    1    1    2    0  502 -0.34473816864E+01  0.23367130564E+02 -0.11451344895E+03  0.11693096306E+03  0.12700000000E+01 0. -1.
<mgrwt>
<rscale>  1 0.12721340E+03</rscale>
<asrwt>0</asrwt>
<pdfrwt beam="2">  1       21 0.49715319E-01 0.12721340E+03</pdfrwt>
<pdfrwt beam="1">  1       -4 0.31865986E-02 0.12721340E+03</pdfrwt>
<totfact> 0.76311609E+04</totfact>
</mgrwt>
</event>
<event>
 6    4  0.6277709E-003  0.1303994E+03  0.7818608E-02  0.1226864E+00
         21   -1    0    0  501  502  0.00000000000E+00  0.00000000000E+00  0.12058577739E+02  0.12058577739E+02  0.00000000000E+00 0.  1.
          4   -1    0    0  502    0 -0.00000000000E+00 -0.00000000000E+00 -0.62859837999E+03  0.62859966292E+03  0.12700000000E+01 0.  1.
         25    2    1    2    0    0 -0.36956062160E+02 -0.36607839241E+01 -0.54073522523E+03  0.55623609506E+03  0.12499943113E+03 0.  0.
    9000005    1    3    3    0    0  0.32032453779E+02  0.42554678708E+01 -0.43626677577E+02  0.54299853575E+02  0.10000000000E+01 0.  0.
    9000005    1    3    3    0    0 -0.68988515939E+02 -0.79162517948E+01 -0.49710854765E+03  0.50193624149E+03  0.10000000000E+01 0.  0.
          4    1    1    2  501    0  0.36956062160E+02  0.36607839241E+01 -0.75804577020E+02  0.84422145593E+02  0.12700000000E+01 0. -1.
<mgrwt>
<rscale>  1 0.13039942E+03</rscale>
<asrwt>0</asrwt>
<pdfrwt beam="1">  1       21 0.18551656E-02 0.13039942E+03</pdfrwt>
<pdfrwt beam="2">  1        4 0.96712698E-01 0.13039942E+03</pdfrwt>
<totfact> 0.51608441E+04</totfact>
</mgrwt>
</event>
<event>
 6    4  0.6277709E-003  0.1273437E+03  0.7818608E-02  0.1231451E+00
          4   -1    0    0  502    0 -0.00000000000E+00  0.00000000000E+00  0.62002732055E+03  0.62002862122E+03  0.12700000000E+01 0. -1.
         21   -1    0    0  501  502  0.00000000000E+00 -0.00000000000E+00 -0.92776740406E+01  0.92776740406E+01  0.00000000000E+00 0. -1.
         25    2    1    2    0    0 -0.23636548023E+02  0.57032139658E+01  0.51126042706E+03  0.52688105062E+03  0.12500081670E+03 0.  0.
    9000005    1    3    3    0    0 -0.63005247564E+02 -0.14528938864E+02  0.42530457756E+03  0.43019267193E+03  0.10000000000E+01 0.  0.
    9000005    1    3    3    0    0  0.39368699541E+02  0.20232152830E+02  0.85955849499E+02  0.96688378696E+02  0.10000000000E+01 0.  0.
          4    1    1    2  501    0  0.23636548023E+02 -0.57032139658E+01  0.99489219451E+02  0.10242524464E+03  0.12700000000E+01 0.  1.
<mgrwt>
<rscale>  1 0.12734370E+03</rscale>
<asrwt>0</asrwt>
<pdfrwt beam="2">  1       21 0.14273350E-02 0.12734370E+03</pdfrwt>
<pdfrwt beam="1">  1        4 0.95395572E-01 0.12734370E+03</pdfrwt>
<totfact> 0.80765975E+04</totfact>
</mgrwt>
</event>
<event>
 6    4  0.6277709E-003  0.1309377E+03  0.7818608E-02  0.1226071E+00
         21   -1    0    0  501  502  0.00000000000E+00  0.00000000000E+00  0.20118035599E+02  0.20118035599E+02  0.00000000000E+00 0. -1.
          4   -1    0    0  502    0 -0.00000000000E+00 -0.00000000000E+00 -0.22243494034E+04  0.22243497659E+04  0.12700000000E+01 0.  1.
         25    2    1    2    0    0 -0.38296046889E+02 -0.72697694866E+01 -0.22014797581E+04  0.22053702183E+04  0.12500095106E+03 0.  0.
    9000005    1    3    3    0    0  0.37670615573E+02  0.20914931078E+02 -0.11342570030E+04  0.11350755298E+04  0.10000000000E+01 0.  0.
    9000005    1    3    3    0    0 -0.75966662462E+02 -0.28184700565E+02 -0.10672227552E+04  0.10702946885E+04  0.10000000000E+01 0.  0.
          4    1    1    2  501    0  0.38296046889E+02  0.72697694866E+01 -0.27516096571E+01  0.39097583192E+02  0.12700000000E+01 0. -1.
<mgrwt>
<rscale>  1 0.13093767E+03</rscale>
<asrwt>0</asrwt>
<pdfrwt beam="1">  1       21 0.30950820E-02 0.13093767E+03</pdfrwt>
<pdfrwt beam="2">  1        4 0.34221075E+00 0.13093767E+03</pdfrwt>
<totfact> 0.53101013E+02</totfact>
</mgrwt>
</event>
<event>
 6    4  0.6277709E-003  0.1340457E+03  0.7818608E-02  0.1221573E+00
          4   -1    0    0  502    0 -0.00000000000E+00  0.00000000000E+00  0.23453981335E+02  0.23488340522E+02  0.12700000000E+01 0.  1.
         21   -1    0    0  501  502  0.00000000000E+00 -0.00000000000E+00 -0.58795605863E+03  0.58795605863E+03  0.00000000000E+00 0. -1.
         25    2    1    2    0    0  0.46392882963E+00  0.48400318444E+02 -0.18278391513E+03  0.22666761415E+03  0.12500176645E+03 0.  0.
    9000005    1    3    3    0    0 -0.31751650533E+02  0.81541950898E+02 -0.11221307407E+03  0.14230260384E+03  0.10000000000E+01 0.  0.
    9000005    1    3    3    0    0  0.32215579362E+02 -0.33141632454E+02 -0.70570841061E+02  0.84365010302E+02  0.10000000000E+01 0.  0.
          4    1    1    2  501    0 -0.46392882963E+00 -0.48400318444E+02 -0.38171816216E+03  0.38477678501E+03  0.12700000000E+01 0. -1.
<mgrwt>
<rscale>  1 0.13404569E+03</rscale>
<asrwt>0</asrwt>
<pdfrwt beam="2">  1       21 0.90454780E-01 0.13404569E+03</pdfrwt>
<pdfrwt beam="1">  1        4 0.36110533E-02 0.13404569E+03</pdfrwt>
<totfact> 0.17206429E+04</totfact>
</mgrwt>
</event>
<event>
 6    4  0.6277709E-003  0.1266373E+03  0.7818608E-02  0.1232532E+00
          4   -1    0    0  502    0 -0.00000000000E+00  0.00000000000E+00  0.92621571614E+02  0.92630278140E+02  0.12700000000E+01 0.  1.
         21   -1    0    0  501  502  0.00000000000E+00 -0.00000000000E+00 -0.62812113706E+02  0.62812113706E+02  0.00000000000E+00 0.  1.
         25    2    1    2    0    0 -0.10653961005E+02 -0.17284251381E+02  0.39845373672E+02  0.13275793161E+03  0.12499904948E+03 0.  0.
    9000005    1    3    3    0    0 -0.14730616431E+02  0.18996686841E+02 -0.39022703960E+02  0.45843610195E+02  0.10000000000E+01 0.  0.
    9000005    1    3    3    0    0  0.40766554256E+01 -0.36280938222E+02  0.78868077632E+02  0.86914321416E+02  0.10000000000E+01 0.  0.
          4    1    1    2  501    0  0.10653961005E+02  0.17284251381E+02 -0.10035915765E+02  0.22684460235E+02  0.12700000000E+01 0. -1.
<mgrwt>
<rscale>  1 0.12663733E+03</rscale>
<asrwt>0</asrwt>
<pdfrwt beam="2">  1       21 0.96634021E-02 0.12663733E+03</pdfrwt>
<pdfrwt beam="1">  1        4 0.14251130E-01 0.12663733E+03</pdfrwt>
<totfact> 0.14131151E+05</totfact>
</mgrwt>
</event>
<event>
 6    4  0.6277709E-003  0.1328052E+03  0.7818608E-02  0.1223352E+00
         21   -1    0    0  501  502  0.00000000000E+00  0.00000000000E+00  0.13686218470E+03  0.13686218470E+03  0.00000000000E+00 0.  1.
          4   -1    0    0  502    0 -0.00000000000E+00 -0.00000000000E+00 -0.34109838117E+03  0.34110074544E+03  0.12700000000E+01 0. -1.
         25    2    1    2    0    0  0.16298644001E+02  0.41796297419E+02 -0.32394872313E+03  0.35011427659E+03  0.12499862070E+03 0.  0.
    9000005    1    3    3    0    0 -0.53605018817E+02  0.10055953708E+02 -0.16083462917E+03  0.16983344249E+03  0.10000000000E+01 0.  0.
    9000005    1    3    3    0    0  0.69903662818E+02  0.31740343711E+02 -0.16311409397E+03  0.18028083410E+03  0.10000000000E+01 0.  0.
          4    1    1    2  501    0 -0.16298644001E+02 -0.41796297419E+02  0.11971252667E+03  0.12784865355E+03  0.12700000000E+01 0.  1.
<mgrwt>
<rscale>  1 0.13280524E+03</rscale>
<asrwt>0</asrwt>
<pdfrwt beam="1">  1       21 0.21055721E-01 0.13280524E+03</pdfrwt>
<pdfrwt beam="2">  1        4 0.52477309E-01 0.13280524E+03</pdfrwt>
<totfact> 0.30410762E+03</totfact>
</mgrwt>
</event>
<event>
 6    4  0.6277709E-003  0.1290589E+03  0.7818608E-02  0.1228859E+00
          4   -1    0    0  502    0 -0.00000000000E+00  0.00000000000E+00  0.36827095157E+03  0.36827314139E+03  0.12700000000E+01 0. -1.
         21   -1    0    0  501  502  0.00000000000E+00 -0.00000000000E+00 -0.18106266114E+02  0.18106266114E+02  0.00000000000E+00 0. -1.
         25    2    1    2    0    0  0.18610315731E+02  0.26131552611E+02  0.25246849790E+03  0.28354283883E+03  0.12500798826E+03 0.  0.
    9000005    1    3    3    0    0  0.41224885238E+02  0.69068970517E+02  0.16217230269E+03  0.18102726207E+03  0.10000000000E+01 0.  0.
    9000005    1    3    3    0    0 -0.22614569507E+02 -0.42937417906E+02  0.90296195203E+02  0.10251557676E+03  0.10000000000E+01 0.  0.
          4    1    1    2  501    0 -0.18610315731E+02 -0.26131552611E+02  0.97696187564E+02  0.10283656868E+03  0.12700000000E+01 0.  1.
<mgrwt>
<rscale>  1 0.12905890E+03</rscale>
<asrwt>0</asrwt>
<pdfrwt beam="2">  1       21 0.27855797E-02 0.12905890E+03</pdfrwt>
<pdfrwt beam="1">  1        4 0.56660658E-01 0.12905890E+03</pdfrwt>
<totfact> 0.85467276E+04</totfact>
</mgrwt>
</event>
<event>
 6    4  0.6277709E-003  0.1283252E+03  0.7818608E-02  0.1229962E+00
         -4   -1    0    0    0  501 -0.00000000000E+00  0.00000000000E+00  0.79571566394E+02  0.79581700650E+02  0.12700000000E+01 0.  1.
         21   -1    0    0  501  502  0.00000000000E+00 -0.00000000000E+00 -0.26516965333E+03  0.26516965333E+03  0.00000000000E+00 0. -1.
         25    2    1    2    0    0 -0.23714074631E+02 -0.16738016257E+02  0.26197727874E+02  0.13097203179E+03  0.12499933457E+03 0.  0.
    9000005    1    3    3    0    0 -0.10994732934E+02 -0.54111881573E+02  0.58133041383E+02  0.80183728899E+02  0.10000000000E+01 0.  0.
    9000005    1    3    3    0    0 -0.12719341698E+02  0.37373865317E+02 -0.31935313509E+02  0.50788302894E+02  0.10000000000E+01 0.  0.
         -4    1    1    2    0  502  0.23714074631E+02  0.16738016257E+02 -0.21179581481E+03  0.21377932219E+03  0.12700000000E+01 0. -1.
<mgrwt>
<rscale>  1 0.12832518E+03</rscale>
<asrwt>0</asrwt>
<pdfrwt beam="2">  1       21 0.40795331E-01 0.12832518E+03</pdfrwt>
<pdfrwt beam="1">  1       -4 0.12242793E-01 0.12832518E+03</pdfrwt>
<totfact> 0.12699162E+04</totfact>
</mgrwt>
</event>
<event>
 6    4  0.6277709E-003  0.1272893E+03  0.7818608E-02  0.1231534E+00
         -4   -1    0    0    0  501 -0.00000000000E+00  0.00000000000E+00  0.41237466129E+02  0.41257017740E+02  0.12700000000E+01 0. -1.
         21   -1    0    0  501  502  0.00000000000E+00 -0.00000000000E+00 -0.14754597761E+03  0.14754597761E+03  0.00000000000E+00 0. -1.
         25    2    1    2    0    0 -0.17258269299E+02 -0.16740603490E+02 -0.70086745306E+02  0.14530903129E+03  0.12499786816E+03 0.  0.
    9000005    1    3    3    0    0 -0.30318104407E+02  0.38668810643E+02  0.68216879431E+01  0.49618542883E+02  0.10000000000E+01 0.  0.
    9000005    1    3    3    0    0  0.13059835108E+02 -0.55409414133E+02 -0.76908433249E+02  0.95690488412E+02  0.10000000000E+01 0.  0.
         -4    1    1    2    0  502  0.17258269299E+02  0.16740603490E+02 -0.36221766172E+02  0.43493964053E+02  0.12700000000E+01 0.  1.
<mgrwt>
<rscale>  1 0.12728929E+03</rscale>
<asrwt>0</asrwt>
<pdfrwt beam="2">  1       21 0.22699381E-01 0.12728929E+03</pdfrwt>
<pdfrwt beam="1">  1       -4 0.63461499E-02 0.12728929E+03</pdfrwt>
<totfact> 0.11788482E+05</totfact>
</mgrwt>
</event>
<event>
 6    4  0.6277709E-003  0.1276792E+03  0.7818608E-02  0.1230941E+00
          4   -1    0    0  502    0 -0.00000000000E+00  0.00000000000E+00  0.38686314171E+02  0.38707154431E+02  0.12700000000E+01 0. -1.
         21   -1    0    0  501  502  0.00000000000E+00 -0.00000000000E+00 -0.28323661512E+03  0.28323661512E+03  0.00000000000E+00 0.  1.
         25    2    1    2    0    0 -0.10381618783E+02  0.23875636484E+02 -0.70297696493E+02  0.14575237621E+03  0.12499666001E+03 0.  0.
    9000005    1    3    3    0    0  0.49725927077E+02 -0.11233209713E+02 -0.53968319261E+02  0.74245756161E+02  0.10000000000E+01 0.  0.
    9000005    1    3    3    0    0 -0.60107545861E+02  0.35108846197E+02 -0.16329377232E+02  0.71506620053E+02  0.10000000000E+01 0.  0.
          4    1    1    2  501    0  0.10381618783E+02 -0.23875636484E+02 -0.17425260446E+03  0.17619139334E+03  0.12700000000E+01 0.  1.
<mgrwt>
<rscale>  1 0.12767924E+03</rscale>
<asrwt>0</asrwt>
<pdfrwt beam="2">  1       21 0.43574864E-01 0.12767924E+03</pdfrwt>
<pdfrwt beam="1">  1        4 0.59535627E-02 0.12767924E+03</pdfrwt>
<totfact> 0.36891777E+04</totfact>
</mgrwt>
</event>
<event>
 6    4  0.6277709E-003  0.1354758E+03  0.7818608E-02  0.1219550E+00
         21   -1    0    0  501  502  0.00000000000E+00  0.00000000000E+00  0.50735979608E+02  0.50735979608E+02  0.00000000000E+00 0.  1.
         -4   -1    0    0    0  501 -0.00000000000E+00 -0.00000000000E+00 -0.32791232957E+03  0.32791478891E+03  0.12700000000E+01 0. -1.
         25    2    1    2    0    0  0.47096543368E+02  0.22531799084E+02 -0.29405854293E+03  0.32376554549E+03  0.12501174109E+03 0.  0.
    9000005    1    3    3    0    0  0.14459135815E+02  0.63667561898E+02 -0.23864836014E+03  0.24742001706E+03  0.10000000000E+01 0.  0.
    9000005    1    3    3    0    0  0.32637407553E+02 -0.41135762814E+02 -0.55410182794E+02  0.76345528431E+02  0.10000000000E+01 0.  0.
         -4    1    1    2    0  502 -0.47096543368E+02 -0.22531799084E+02  0.16882192968E+02  0.54885223025E+02  0.12700000000E+01 0.  1.
<mgrwt>
<rscale>  1 0.13547583E+03</rscale>
<asrwt>0</asrwt>
<pdfrwt beam="1">  1       21 0.78055353E-02 0.13547583E+03</pdfrwt>
<pdfrwt beam="2">  1       -4 0.50449462E-01 0.13547583E+03</pdfrwt>
<totfact> 0.19415396E+04</totfact>
</mgrwt>
</event>
<event>
 6    4  0.6277709E-003  0.1268870E+03  0.7818608E-02  0.1232149E+00
          4   -1    0    0  502    0 -0.00000000000E+00  0.00000000000E+00  0.27431614610E+03  0.27431908594E+03  0.12700000000E+01 0. -1.
         21   -1    0    0  501  502  0.00000000000E+00 -0.00000000000E+00 -0.23435375267E+02  0.23435375267E+02  0.00000000000E+00 0. -1.
         25    2    1    2    0    0 -0.10583025625E+02  0.18952876955E+02  0.24387423599E+03  0.27490897135E+03  0.12501634922E+03 0.  0.
    9000005    1    3    3    0    0  0.55272008920E+02  0.14551986444E+02  0.80756608735E+02  0.98941321670E+02  0.10000000000E+01 0.  0.
    9000005    1    3    3    0    0 -0.65855034545E+02  0.44008905105E+01  0.16311762725E+03  0.17596764968E+03  0.10000000000E+01 0.  0.
          4    1    1    2  501    0  0.10583025625E+02 -0.18952876955E+02  0.70065348402E+01  0.22845489855E+02  0.12700000000E+01 0.  1.
<mgrwt>
<rscale>  1 0.12688696E+03</rscale>
<asrwt>0</asrwt>
<pdfrwt beam="2">  1       21 0.36054426E-02 0.12688696E+03</pdfrwt>
<pdfrwt beam="1">  1        4 0.42205355E-01 0.12688696E+03</pdfrwt>
<totfact> 0.10137535E+05</totfact>
</mgrwt>
</event>
<event>
 6    4  0.6277709E-003  0.1266483E+03  0.7818608E-02  0.1232515E+00
          4   -1    0    0  502    0 -0.00000000000E+00  0.00000000000E+00  0.31307723225E+03  0.31307980812E+03  0.12700000000E+01 0. -1.
         21   -1    0    0  501  502  0.00000000000E+00 -0.00000000000E+00 -0.22556691521E+02  0.22556691521E+02  0.00000000000E+00 0. -1.
         25    2    1    2    0    0 -0.18337014149E+02 -0.88070554243E+01  0.16260454303E+03  0.20610686720E+03  0.12500397186E+03 0.  0.
    9000005    1    3    3    0    0 -0.30799124397E+02  0.54233734971E+02  0.80779490906E+02  0.10205983649E+03  0.10000000000E+01 0.  0.
    9000005    1    3    3    0    0  0.12462110248E+02 -0.63040790395E+02  0.81825052127E+02  0.10404703072E+03  0.10000000000E+01 0.  0.
          4    1    1    2  501    0  0.18337014149E+02  0.88070554243E+01  0.12791599770E+03  0.12952963244E+03  0.12700000000E+01 0.  1.
<mgrwt>
<rscale>  1 0.12664835E+03</rscale>
<asrwt>0</asrwt>
<pdfrwt beam="2">  1       21 0.34702605E-02 0.12664835E+03</pdfrwt>
<pdfrwt beam="1">  1        4 0.48168673E-01 0.12664835E+03</pdfrwt>
<totfact> 0.82861785E+04</totfact>
</mgrwt>
</event>
<event>
 6    4  0.6277709E-003  0.1298967E+03  0.7818608E-02  0.1227609E+00
         21   -1    0    0  501  502  0.00000000000E+00  0.00000000000E+00  0.15792925985E+02  0.15792925985E+02  0.00000000000E+00 0. -1.
          4   -1    0    0  502    0 -0.00000000000E+00 -0.00000000000E+00 -0.48674131428E+03  0.48674297112E+03  0.12700000000E+01 0.  1.
         25    2    1    2    0    0  0.34208112498E+02 -0.88369434594E+01 -0.42591573380E+03  0.44528347879E+03  0.12499951065E+03 0.  0.
    9000005    1    3    3    0    0 -0.23174770246E+02 -0.77981416311E+01 -0.34613486865E+03  0.34699888801E+03  0.10000000000E+01 0.  0.
    9000005    1    3    3    0    0  0.57382882744E+02 -0.10388018282E+01 -0.79780865151E+02  0.98284590783E+02  0.10000000000E+01 0.  0.
          4    1    1    2  501    0 -0.34208112498E+02  0.88369434594E+01 -0.45032654503E+02  0.57252418307E+02  0.12700000000E+01 0. -1.
<mgrwt>
<rscale>  1 0.12989674E+03</rscale>
<asrwt>0</asrwt>
<pdfrwt beam="1">  1       21 0.24296807E-02 0.12989674E+03</pdfrwt>
<pdfrwt beam="2">  1        4 0.74887341E-01 0.12989674E+03</pdfrwt>
<totfact> 0.59042753E+04</totfact>
</mgrwt>
</event>
<event>
 6    4  0.6277709E-003  0.1304326E+03  0.7818608E-02  0.1226815E+00
         21   -1    0    0  501  502  0.00000000000E+00  0.00000000000E+00  0.14816865006E+03  0.14816865006E+03  0.00000000000E+00 0. -1.
         -4   -1    0    0    0  501 -0.00000000000E+00 -0.00000000000E+00 -0.47434186157E+02  0.47451184562E+02  0.12700000000E+01 0. -1.
         25    2    1    2    0    0 -0.33632083029E+02 -0.15962229319E+02  0.79109181077E+02  0.15254808598E+03  0.12500698473E+03 0.  0.
    9000005    1    3    3    0    0  0.16049701333E+02  0.91711256755E+00  0.96057738673E+02  0.97398784219E+02  0.10000000000E+01 0.  0.
    9000005    1    3    3    0    0 -0.49681784363E+02 -0.16879341887E+02 -0.16948557597E+02  0.55149301760E+02  0.10000000000E+01 0.  0.
         -4    1    1    2    0  502  0.33632083029E+02  0.15962229319E+02  0.21625282824E+02  0.43071748640E+02  0.12700000000E+01 0.  1.
<mgrwt>
<rscale>  1 0.13043257E+03</rscale>
<asrwt>0</asrwt>
<pdfrwt beam="1">  1       21 0.22795177E-01 0.13043257E+03</pdfrwt>
<pdfrwt beam="2">  1       -4 0.72992934E-02 0.13043257E+03</pdfrwt>
<totfact> 0.93328280E+04</totfact>
</mgrwt>
</event>
<event>
 6    4  0.6277709E-003  0.1275039E+03  0.7818608E-02  0.1231207E+00
         -4   -1    0    0    0  501 -0.00000000000E+00  0.00000000000E+00  0.11505067950E+03  0.11505768881E+03  0.12700000000E+01 0.  1.
         21   -1    0    0  501  502  0.00000000000E+00 -0.00000000000E+00 -0.51944022965E+02  0.51944022965E+02  0.00000000000E+00 0.  1.
         25    2    1    2    0    0  0.25083130761E+02 -0.16359225651E+01  0.62076036907E+02  0.14181213519E+03  0.12500163054E+03 0.  0.
    9000005    1    3    3    0    0 -0.45396659990E+02  0.16965411102E+02  0.40583021643E+01  0.48643105663E+02  0.10000000000E+01 0.  0.
    9000005    1    3    3    0    0  0.70479790751E+02 -0.18601333667E+02  0.58017734743E+02  0.93169029528E+02  0.10000000000E+01 0.  0.
         -4    1    1    2    0  502 -0.25083130761E+02  0.16359225651E+01  0.10306196271E+01  0.25189576579E+02  0.12700000000E+01 0. -1.
<mgrwt>
<rscale>  1 0.12750391E+03</rscale>
<asrwt>0</asrwt>
<pdfrwt beam="2">  1       21 0.79913882E-02 0.12750391E+03</pdfrwt>
<pdfrwt beam="1">  1       -4 0.17701838E-01 0.12750391E+03</pdfrwt>
<totfact> 0.13444662E+05</totfact>
</mgrwt>
</event>
<event>
 6    4  0.6277709E-003  0.1272981E+03  0.7818608E-02  0.1231521E+00
          4   -1    0    0  502    0 -0.00000000000E+00  0.00000000000E+00  0.37834438739E+03  0.37834651891E+03  0.12700000000E+01 0.  1.
         21   -1    0    0  501  502  0.00000000000E+00 -0.00000000000E+00 -0.75710284726E+02  0.75710284726E+02  0.00000000000E+00 0. -1.
         25    2    1    2    0    0 -0.76231786988E+01  0.22848779839E+02  0.36533426967E+03  0.38687716806E+03  0.12499853991E+03 0.  0.
    9000005    1    3    3    0    0  0.36195641723E+02  0.49769125299E+02  0.28437763962E+03  0.29096173671E+03  0.10000000000E+01 0.  0.
    9000005    1    3    3    0    0 -0.43818820422E+02 -0.26920345460E+02  0.80956630044E+02  0.95915431349E+02  0.10000000000E+01 0.  0.
          4    1    1    2  501    0  0.76231786988E+01 -0.22848779839E+02 -0.62700167003E+02  0.67179635573E+02  0.12700000000E+01 0. -1.
<mgrwt>
<rscale>  1 0.12729813E+03</rscale>
<asrwt>0</asrwt>
<pdfrwt beam="2">  1       21 0.11647736E-01 0.12729813E+03</pdfrwt>
<pdfrwt beam="1">  1        4 0.58207811E-01 0.12729813E+03</pdfrwt>
<totfact> 0.71470805E+03</totfact>
</mgrwt>
</event>
<event>
 6    4  0.6277709E-003  0.1271378E+03  0.7818608E-02  0.1231766E+00
          4   -1    0    0  502    0 -0.00000000000E+00  0.00000000000E+00  0.36158205100E+02  0.36180501601E+02  0.12700000000E+01 0.  1.
         21   -1    0    0  501  502  0.00000000000E+00 -0.00000000000E+00 -0.24880771017E+03  0.24880771017E+03  0.00000000000E+00 0. -1.
         25    2    1    2    0    0 -0.11553757445E+02 -0.20144443560E+02 -0.79774724962E+02  0.15009340829E+03  0.12499894620E+03 0.  0.
    9000005    1    3    3    0    0  0.49208710877E+02 -0.36220073820E+02 -0.55996529738E+02  0.82885477114E+02  0.10000000000E+01 0.  0.
    9000005    1    3    3    0    0 -0.60762468322E+02  0.16075630260E+02 -0.23778195224E+02  0.67207931176E+02  0.10000000000E+01 0.  0.
          4    1    1    2  501    0  0.11553757445E+02  0.20144443560E+02 -0.13287478011E+03  0.13489480348E+03  0.12700000000E+01 0. -1.
<mgrwt>
<rscale>  1 0.12713782E+03</rscale>
<asrwt>0</asrwt>
<pdfrwt beam="2">  1       21 0.38278109E-01 0.12713782E+03</pdfrwt>
<pdfrwt beam="1">  1        4 0.55647652E-02 0.12713782E+03</pdfrwt>
<totfact> 0.53334607E+04</totfact>
</mgrwt>
</event>
<event>
 6    4  0.6277709E-003  0.1409967E+03  0.7818608E-02  0.1211994E+00
          4   -1    0    0  502    0 -0.00000000000E+00  0.00000000000E+00  0.27985108249E+03  0.27985396418E+03  0.12700000000E+01 0.  1.
         21   -1    0    0  501  502  0.00000000000E+00 -0.00000000000E+00 -0.38316220348E+02  0.38316220348E+02  0.00000000000E+00 0.  1.
         25    2    1    2    0    0 -0.78661343730E+01  0.64730945405E+02  0.17847910934E+03  0.22745297435E+03  0.12501236621E+03 0.  0.
    9000005    1    3    3    0    0  0.24086297620E+02 -0.99736568539E+01  0.13051247132E+03  0.13309443540E+03  0.10000000000E+01 0.  0.
    9000005    1    3    3    0    0 -0.31952431993E+02  0.74704602259E+02  0.47966638020E+02  0.94358538945E+02  0.10000000000E+01 0.  0.
          4    1    1    2  501    0  0.78661343730E+01 -0.64730945405E+02  0.63055752797E+02  0.90717210185E+02  0.12700000000E+01 0. -1.
<mgrwt>
<rscale>  1 0.14099668E+03</rscale>
<asrwt>0</asrwt>
<pdfrwt beam="2">  1       21 0.58948033E-02 0.14099668E+03</pdfrwt>
<pdfrwt beam="1">  1        4 0.43055852E-01 0.14099668E+03</pdfrwt>
<totfact> 0.43383830E+04</totfact>
</mgrwt>
</event>
<event>
 6    4  0.6277709E-003  0.1295015E+03  0.7818608E-02  0.1228197E+00
         21   -1    0    0  501  502  0.00000000000E+00  0.00000000000E+00  0.13465990649E+04  0.13465990649E+04  0.00000000000E+00 0.  1.
         -4   -1    0    0    0  501 -0.00000000000E+00 -0.00000000000E+00 -0.99826088700E+01  0.10063070101E+02  0.12700000000E+01 0. -1.
         25    2    1    2    0    0 -0.71252950378E+01 -0.33093859655E+02  0.42211269623E+03  0.44153115368E+03  0.12499863191E+03 0.  0.
    9000005    1    3    3    0    0 -0.28545844404E+02  0.27810712945E+02  0.50444071435E+02  0.64295453418E+02  0.10000000000E+01 0.  0.
    9000005    1    3    3    0    0  0.21420549366E+02 -0.60904572601E+02  0.37166862480E+03  0.37723570027E+03  0.10000000000E+01 0.  0.
         -4    1    1    2    0  502  0.71252950378E+01  0.33093859655E+02  0.91450375982E+03  0.91513098133E+03  0.12700000000E+01 0.  1.
<mgrwt>
<rscale>  1 0.12950147E+03</rscale>
<asrwt>0</asrwt>
<pdfrwt beam="1">  1       21 0.20716894E+00 0.12950147E+03</pdfrwt>
<pdfrwt beam="2">  1       -4 0.15420224E-02 0.12950147E+03</pdfrwt>
<totfact> 0.77266617E+03</totfact>
</mgrwt>
</event>
<event>
 6    4  0.6277709E-003  0.1970599E+03  0.7818608E-02  0.1152244E+00
          4   -1    0    0  502    0 -0.00000000000E+00  0.00000000000E+00  0.20225998586E+03  0.20226397301E+03  0.12700000000E+01 0. -1.
         21   -1    0    0  501  502  0.00000000000E+00 -0.00000000000E+00 -0.22258175775E+03  0.22258175775E+03  0.00000000000E+00 0.  1.
         25    2    1    2    0    0 -0.88371910816E+02  0.12409182951E+03  0.10883525008E+03  0.22511709988E+03  0.12499688086E+03 0.  0.
    9000005    1    3    3    0    0  0.65279713498E+00  0.45994239435E+02 -0.19956666004E+02  0.50151417959E+02  0.10000000000E+01 0.  0.
    9000005    1    3    3    0    0 -0.89024707951E+02  0.78097590071E+02  0.12879191608E+03  0.17496568192E+03  0.10000000000E+01 0.  0.
          4    1    1    2  501    0  0.88371910816E+02 -0.12409182951E+03 -0.12915702197E+03  0.19972863088E+03  0.12700000000E+01 0.  1.
<mgrwt>
<rscale>  1 0.19705988E+03</rscale>
<asrwt>0</asrwt>
<pdfrwt beam="2">  1       21 0.34243347E-01 0.19705988E+03</pdfrwt>
<pdfrwt beam="1">  1        4 0.31117506E-01 0.19705988E+03</pdfrwt>
<totfact> 0.34285986E+03</totfact>
</mgrwt>
</event>
<event>
 6    4  0.6277709E-003  0.1302495E+03  0.7818608E-02  0.1227086E+00
          4   -1    0    0  502    0 -0.00000000000E+00  0.00000000000E+00  0.57851783722E+02  0.57865721977E+02  0.12700000000E+01 0.  1.
         21   -1    0    0  501  502  0.00000000000E+00 -0.00000000000E+00 -0.27263044107E+03  0.27263044107E+03  0.00000000000E+00 0. -1.
         25    2    1    2    0    0 -0.22009223981E+02 -0.29258193226E+02 -0.19368496208E+02  0.13168169731E+03  0.12499793178E+03 0.  0.
    9000005    1    3    3    0    0  0.23209917248E+02  0.61056838925E+01  0.41536001023E+02  0.47981444491E+02  0.10000000000E+01 0.  0.
    9000005    1    3    3    0    0 -0.45219141229E+02 -0.35363877119E+02 -0.60904497231E+02  0.83700252815E+02  0.10000000000E+01 0.  0.
          4    1    1    2  501    0  0.22009223981E+02  0.29258193226E+02 -0.19541016114E+03  0.19881446574E+03  0.12700000000E+01 0. -1.
<mgrwt>
<rscale>  1 0.13024949E+03</rscale>
<asrwt>0</asrwt>
<pdfrwt beam="2">  1       21 0.41943147E-01 0.13024949E+03</pdfrwt>
<pdfrwt beam="1">  1        4 0.89015737E-02 0.13024949E+03</pdfrwt>
<totfact> 0.20604902E+04</totfact>
</mgrwt>
</event>
<event>
 6    4  0.6277709E-003  0.1271579E+03  0.7818608E-02  0.1231735E+00
         -4   -1    0    0    0  501 -0.00000000000E+00  0.00000000000E+00  0.12163429508E+03  0.12164092502E+03  0.12700000000E+01 0. -1.
         21   -1    0    0  501  502  0.00000000000E+00 -0.00000000000E+00 -0.72029344120E+02  0.72029344120E+02  0.00000000000E+00 0.  1.
         25    2    1    2    0    0 -0.19004030215E+00 -0.23351888337E+02  0.83767039363E+02  0.15226968958E+03  0.12499517861E+03 0.  0.
    9000005    1    3    3    0    0 -0.51218101868E+02 -0.42520182134E+02  0.22539037689E+02  0.70287040538E+02  0.10000000000E+01 0.  0.
    9000005    1    3    3    0    0  0.51028061566E+02  0.19168293796E+02  0.61228001674E+02  0.81982649037E+02  0.10000000000E+01 0.  0.
         -4    1    1    2    0  502  0.19004030215E+00  0.23351888337E+02 -0.34162088402E+02  0.41400579564E+02  0.12700000000E+01 0.  1.
<mgrwt>
<rscale>  1 0.12715794E+03</rscale>
<asrwt>0</asrwt>
<pdfrwt beam="2">  1       21 0.11081438E-01 0.12715794E+03</pdfrwt>
<pdfrwt beam="1">  1       -4 0.18714340E-01 0.12715794E+03</pdfrwt>
<totfact> 0.68887846E+04</totfact>
</mgrwt>
</event>
<event>
 6    4  0.6277709E-003  0.1315682E+03  0.7818608E-02  0.1225147E+00
          4   -1    0    0  502    0 -0.00000000000E+00  0.00000000000E+00  0.69139360943E+03  0.69139477584E+03  0.12700000000E+01 0. -1.
         21   -1    0    0  501  502  0.00000000000E+00 -0.00000000000E+00 -0.20983940678E+02  0.20983940678E+02  0.00000000000E+00 0.  1.
         25    2    1    2    0    0 -0.99260038364E+01 -0.39977895435E+02  0.65546851541E+03  0.66854255977E+03  0.12495367885E+03 0.  0.
    9000005    1    3    3    0    0 -0.36606227500E+02 -0.60042952377E+02  0.59762921864E+03  0.60175315121E+03  0.10000000000E+01 0.  0.
    9000005    1    3    3    0    0  0.26680223664E+02  0.20065056943E+02  0.57839296769E+02  0.66789408559E+02  0.10000000000E+01 0.  0.
          4    1    1    2  501    0  0.99260038364E+01  0.39977895435E+02  0.14941153348E+02  0.43836156753E+02  0.12700000000E+01 0.  1.
<mgrwt>
<rscale>  1 0.13156816E+03</rscale>
<asrwt>0</asrwt>
<pdfrwt beam="2">  1       21 0.32282991E-02 0.13156816E+03</pdfrwt>
<pdfrwt beam="1">  1        4 0.10637128E+00 0.13156816E+03</pdfrwt>
<totfact> 0.16821487E+04</totfact>
</mgrwt>
</event>
<event>
 6    4  0.6277709E-003  0.1267464E+03  0.7818608E-02  0.1232365E+00
          4   -1    0    0  502    0 -0.00000000000E+00  0.00000000000E+00  0.91099744484E+02  0.91108596439E+02  0.12700000000E+01 0. -1.
         21   -1    0    0  501  502  0.00000000000E+00 -0.00000000000E+00 -0.85572531864E+02  0.85572531864E+02  0.00000000000E+00 0. -1.
         25    2    1    2    0    0  0.97987999993E+01 -0.18526645641E+02  0.42903551974E+02  0.13381089710E+03  0.12500155331E+03 0.  0.
    9000005    1    3    3    0    0 -0.45966429988E+02 -0.30434289109E+02 -0.99806920290E+01  0.56033676060E+02  0.10000000000E+01 0.  0.
    9000005    1    3    3    0    0  0.55765229988E+02  0.11907643468E+02  0.52884244003E+02  0.77777221037E+02  0.10000000000E+01 0.  0.
          4    1    1    2  501    0 -0.97987999993E+01  0.18526645641E+02 -0.37376339353E+02  0.42870231205E+02  0.12700000000E+01 0.  1.
<mgrwt>
<rscale>  1 0.12674637E+03</rscale>
<asrwt>0</asrwt>
<pdfrwt beam="2">  1       21 0.13165005E-01 0.12674637E+03</pdfrwt>
<pdfrwt beam="1">  1        4 0.14016751E-01 0.12674637E+03</pdfrwt>
<totfact> 0.84320224E+04</totfact>
</mgrwt>
</event>
<event>
 6    4  0.6277709E-003  0.1283105E+03  0.7818608E-02  0.1229984E+00
          4   -1    0    0  502    0 -0.00000000000E+00  0.00000000000E+00  0.26013732690E+03  0.26014042697E+03  0.12700000000E+01 0. -1.
         21   -1    0    0  501  502  0.00000000000E+00 -0.00000000000E+00 -0.50237578965E+02  0.50237578965E+02  0.00000000000E+00 0.  1.
         25    2    1    2    0    0 -0.82462003700E+01  0.27784103646E+02  0.23774960490E+03  0.27016378371E+03  0.12499455654E+03 0.  0.
    9000005    1    3    3    0    0 -0.34835230085E+02  0.41254988063E+02  0.33075270742E+02  0.63328041418E+02  0.10000000000E+01 0.  0.
    9000005    1    3    3    0    0  0.26589029715E+02 -0.13470884417E+02  0.20467433416E+03  0.20683574229E+03  0.10000000000E+01 0.  0.
          4    1    1    2  501    0  0.82462003700E+01 -0.27784103646E+02 -0.27849856968E+02  0.40214222224E+02  0.12700000000E+01 0.  1.
<mgrwt>
<rscale>  1 0.12831054E+03</rscale>
<asrwt>0</asrwt>
<pdfrwt beam="2">  1       21 0.77288584E-02 0.12831054E+03</pdfrwt>
<pdfrwt beam="1">  1        4 0.40022600E-01 0.12831054E+03</pdfrwt>
<totfact> 0.31203737E+04</totfact>
</mgrwt>
</event>
