<event>
 5    1  0.1431256E-002  0.1249977E+03  0.7818608E-02  0.1235073E+00
         -4   -1    0    0    0  501 -0.00000000000E+00  0.00000000000E+00  0.10466108177E+03  0.10466878683E+03  0.12700000000E+01 0. -1.
          4   -1    0    0  501    0  0.00000000000E+00 -0.00000000000E+00 -0.37301599983E+02  0.37323213438E+02  0.12700000000E+01 0. -1.
         25    2    1    2    0    0  0.00000000000E+00  0.00000000000E+00  0.67359481783E+02  0.14199200027E+03  0.12499771340E+03 0.  0.
    9000005    1    3    3    0    0 -0.14405717171E+01 -0.29799655748E+02  0.96054137457E+02  0.10058574478E+03  0.10000000000E+01 0.  0.
    9000005    1    3    3    0    0  0.14405717171E+01  0.29799655748E+02 -0.28694655674E+02  0.41406255492E+02  0.10000000000E+01 0.  0.
<mgrwt>
<rscale>  0 0.12499771E+03</rscale>
<asrwt>0</asrwt>
<pdfrwt beam="2">  1        4 0.93290649E-02 0.12499771E+03</pdfrwt>
<pdfrwt beam="1">  1       -4 0.26168935E-01 0.12499771E+03</pdfrwt>
<totfact> 0.18939904E+03</totfact>
</mgrwt>
</event>
<event>
 5    1  0.1431256E-002  0.1250051E+03  0.7818608E-02  0.1235061E+00
          4   -1    0    0  501    0  0.00000000000E+00  0.00000000000E+00  0.13204239294E+04  0.13204245402E+04  0.12700000000E+01 0. -1.
         -4   -1    0    0    0  501 -0.00000000000E+00 -0.00000000000E+00 -0.28216429327E+01  0.30942800196E+01  0.12700000000E+01 0. -1.
         25    2    1    2    0    0  0.00000000000E+00  0.00000000000E+00  0.13176022865E+04  0.13235188202E+04  0.12500512806E+03 0.  0.
    9000005    1    3    3    0    0 -0.38903278946E+02 -0.48588128207E+02  0.59956744133E+03  0.60279050094E+03  0.10000000000E+01 0.  0.
    9000005    1    3    3    0    0  0.38903278946E+02  0.48588128207E+02  0.71803484515E+03  0.72072831925E+03  0.10000000000E+01 0.  0.
<mgrwt>
<rscale>  0 0.12500513E+03</rscale>
<asrwt>0</asrwt>
<pdfrwt beam="1">  1        4 0.33013979E+00 0.12500513E+03</pdfrwt>
<pdfrwt beam="2">  1       -4 0.73956749E-03 0.12500513E+03</pdfrwt>
<totfact> 0.19261395E+02</totfact>
</mgrwt>
</event>
<event>
 5    1  0.1431256E-002  0.1250033E+03  0.7818608E-02  0.1235064E+00
          4   -1    0    0  501    0  0.00000000000E+00  0.00000000000E+00  0.72075666352E+02  0.72086854419E+02  0.12700000000E+01 0.  1.
         -4   -1    0    0    0  501 -0.00000000000E+00 -0.00000000000E+00 -0.54176540277E+02  0.54191423827E+02  0.12700000000E+01 0.  1.
         25    2    1    2    0    0  0.00000000000E+00  0.00000000000E+00  0.17899126075E+02  0.12627827825E+03  0.12500329933E+03 0.  0.
    9000005    1    3    3    0    0 -0.60343187428E+02  0.10892919923E+02 -0.32358155447E+01  0.61411940823E+02  0.10000000000E+01 0.  0.
    9000005    1    3    3    0    0  0.60343187428E+02 -0.10892919923E+02  0.21134941620E+02  0.64866337423E+02  0.10000000000E+01 0.  0.
<mgrwt>
<rscale>  0 0.12500330E+03</rscale>
<asrwt>0</asrwt>
<pdfrwt beam="1">  1        4 0.18022175E-01 0.12500330E+03</pdfrwt>
<pdfrwt beam="2">  1       -4 0.13547394E-01 0.12500330E+03</pdfrwt>
<totfact> 0.19764364E+03</totfact>
</mgrwt>
</event>
<event>
 5    1  0.1431256E-002  0.1249984E+03  0.7818608E-02  0.1235072E+00
          4   -1    0    0  501    0  0.00000000000E+00  0.00000000000E+00  0.19110659345E+02  0.19152811819E+02  0.12700000000E+01 0. -1.
         -4   -1    0    0    0  501 -0.00000000000E+00 -0.00000000000E+00 -0.20412726169E+03  0.20413121237E+03  0.12700000000E+01 0. -1.
         25    2    1    2    0    0  0.00000000000E+00  0.00000000000E+00 -0.18501660234E+03  0.22328402419E+03  0.12499844926E+03 0.  0.
    9000005    1    3    3    0    0 -0.34833402102E+02  0.35733793456E+02 -0.15969964357E+03  0.16731779957E+03  0.10000000000E+01 0.  0.
    9000005    1    3    3    0    0  0.34833402102E+02 -0.35733793456E+02 -0.25316958774E+02  0.55966224621E+02  0.10000000000E+01 0.  0.
<mgrwt>
<rscale>  0 0.12499845E+03</rscale>
<asrwt>0</asrwt>
<pdfrwt beam="1">  1        4 0.47834284E-02 0.12499845E+03</pdfrwt>
<pdfrwt beam="2">  1       -4 0.51037572E-01 0.12499845E+03</pdfrwt>
<totfact> 0.15430847E+03</totfact>
</mgrwt>
</event>
<event>
 5    1  0.1431256E-002  0.1250016E+03  0.7818608E-02  0.1235067E+00
         -4   -1    0    0    0  501 -0.00000000000E+00  0.00000000000E+00  0.11597477090E+03  0.11598172436E+03  0.12700000000E+01 0. -1.
          4   -1    0    0  501    0  0.00000000000E+00 -0.00000000000E+00 -0.33662844982E+02  0.33686793144E+02  0.12700000000E+01 0. -1.
         25    2    1    2    0    0  0.00000000000E+00  0.00000000000E+00  0.82311925921E+02  0.14966851751E+03  0.12500164792E+03 0.  0.
    9000005    1    3    3    0    0 -0.49977558504E+02 -0.24694323681E+02  0.74974763590E+02  0.93433297873E+02  0.10000000000E+01 0.  0.
    9000005    1    3    3    0    0  0.49977558504E+02  0.24694323681E+02  0.73371623305E+01  0.56235219633E+02  0.10000000000E+01 0.  0.
<mgrwt>
<rscale>  0 0.12500165E+03</rscale>
<asrwt>0</asrwt>
<pdfrwt beam="2">  1        4 0.84195740E-02 0.12500165E+03</pdfrwt>
<pdfrwt beam="1">  1       -4 0.28997555E-01 0.12500165E+03</pdfrwt>
<totfact> 0.18554380E+03</totfact>
</mgrwt>
</event>
<event>
 5    1  0.1431256E-002  0.1249953E+03  0.7818608E-02  0.1235077E+00
          4   -1    0    0  501    0  0.00000000000E+00  0.00000000000E+00  0.15821594823E+03  0.15822104530E+03  0.12700000000E+01 0.  1.
         -4   -1    0    0    0  501 -0.00000000000E+00 -0.00000000000E+00 -0.24665675603E+02  0.24698349195E+02  0.12700000000E+01 0.  1.
         25    2    1    2    0    0  0.00000000000E+00  0.00000000000E+00  0.13355027263E+03  0.18291939449E+03  0.12499531816E+03 0.  0.
    9000005    1    3    3    0    0  0.18165286552E+02  0.35818254637E+02 -0.32858721069E+01  0.40307839886E+02  0.10000000000E+01 0.  0.
    9000005    1    3    3    0    0 -0.18165286552E+02 -0.35818254637E+02  0.13683614474E+03  0.14261155461E+03  0.10000000000E+01 0.  0.
<mgrwt>
<rscale>  0 0.12499532E+03</rscale>
<asrwt>0</asrwt>
<pdfrwt beam="1">  1        4 0.39558707E-01 0.12499532E+03</pdfrwt>
<pdfrwt beam="2">  1       -4 0.61711404E-02 0.12499532E+03</pdfrwt>
<totfact> 0.17031430E+03</totfact>
</mgrwt>
</event>
<event>
 5    1  0.1431256E-002  0.1250003E+03  0.7818608E-02  0.1235069E+00
          4   -1    0    0  501    0  0.00000000000E+00  0.00000000000E+00  0.14508867899E+02  0.14564345084E+02  0.12700000000E+01 0. -1.
         -4   -1    0    0    0  501 -0.00000000000E+00 -0.00000000000E+00 -0.26866243755E+03  0.26866543926E+03  0.12700000000E+01 0. -1.
         25    2    1    2    0    0  0.00000000000E+00  0.00000000000E+00 -0.25415356965E+03  0.28322978434E+03  0.12500029508E+03 0.  0.
    9000005    1    3    3    0    0  0.26278715910E+02  0.47723820603E+02 -0.19643994032E+03  0.20385726408E+03  0.10000000000E+01 0.  0.
    9000005    1    3    3    0    0 -0.26278715910E+02 -0.47723820603E+02 -0.57713629332E+02  0.79372520267E+02  0.10000000000E+01 0.  0.
<mgrwt>
<rscale>  0 0.12500030E+03</rscale>
<asrwt>0</asrwt>
<pdfrwt beam="1">  1        4 0.36345277E-02 0.12500030E+03</pdfrwt>
<pdfrwt beam="2">  1       -4 0.67172903E-01 0.12500030E+03</pdfrwt>
<totfact> 0.13454350E+03</totfact>
</mgrwt>
</event>
<event>
 5    1  0.1431256E-002  0.1250003E+03  0.7818608E-02  0.1235069E+00
         -4   -1    0    0    0  501 -0.00000000000E+00  0.00000000000E+00  0.65043513853E+02  0.65055911294E+02  0.12700000000E+01 0.  1.
          4   -1    0    0  501    0  0.00000000000E+00 -0.00000000000E+00 -0.60031394854E+02  0.60044827156E+02  0.12700000000E+01 0.  1.
         25    2    1    2    0    0  0.00000000000E+00  0.00000000000E+00  0.50121189984E+01  0.12510073845E+03  0.12500029369E+03 0.  0.
    9000005    1    3    3    0    0 -0.30912300212E+02  0.11707367626E+02 -0.50570843502E+02  0.60423860963E+02  0.10000000000E+01 0.  0.
    9000005    1    3    3    0    0  0.30912300212E+02 -0.11707367626E+02  0.55582962500E+02  0.64676877487E+02  0.10000000000E+01 0.  0.
<mgrwt>
<rscale>  0 0.12500029E+03</rscale>
<asrwt>0</asrwt>
<pdfrwt beam="2">  1        4 0.15011078E-01 0.12500029E+03</pdfrwt>
<pdfrwt beam="1">  1       -4 0.16264107E-01 0.12500029E+03</pdfrwt>
<totfact> 0.19829457E+03</totfact>
</mgrwt>
</event>
<event>
 5    1  0.1431256E-002  0.1249977E+03  0.7818608E-02  0.1235073E+00
         -4   -1    0    0    0  501 -0.00000000000E+00  0.00000000000E+00  0.89339481627E+01  0.90237647229E+01  0.12700000000E+01 0.  1.
          4   -1    0    0  501    0  0.00000000000E+00 -0.00000000000E+00 -0.43494332161E+03  0.43494517575E+03  0.12700000000E+01 0.  1.
         25    2    1    2    0    0  0.00000000000E+00  0.00000000000E+00 -0.42600937345E+03  0.44396894048E+03  0.12499773536E+03 0.  0.
    9000005    1    3    3    0    0 -0.43655667392E+02 -0.13423778291E+02 -0.61516789985E+02  0.76624608117E+02  0.10000000000E+01 0.  0.
    9000005    1    3    3    0    0  0.43655667392E+02  0.13423778291E+02 -0.36449258346E+03  0.36734433236E+03  0.10000000000E+01 0.  0.
<mgrwt>
<rscale>  0 0.12499774E+03</rscale>
<asrwt>0</asrwt>
<pdfrwt beam="2">  1        4 0.10874722E+00 0.12499774E+03</pdfrwt>
<pdfrwt beam="1">  1       -4 0.22449473E-02 0.12499774E+03</pdfrwt>
<totfact> 0.97115001E+02</totfact>
</mgrwt>
</event>
<event>
 5    1  0.1431256E-002  0.1249964E+03  0.7818608E-02  0.1235075E+00
         -4   -1    0    0    0  501 -0.00000000000E+00  0.00000000000E+00  0.24952619729E+02  0.24984918077E+02  0.12700000000E+01 0. -1.
          4   -1    0    0  501    0  0.00000000000E+00 -0.00000000000E+00 -0.15640145563E+03  0.15640661183E+03  0.12700000000E+01 0. -1.
         25    2    1    2    0    0  0.00000000000E+00  0.00000000000E+00 -0.13144883591E+03  0.18139152991E+03  0.12499636259E+03 0.  0.
    9000005    1    3    3    0    0 -0.44235539342E+02  0.23158413710E+02 -0.12025320564E+03  0.13021109221E+03  0.10000000000E+01 0.  0.
    9000005    1    3    3    0    0  0.44235539342E+02 -0.23158413710E+02 -0.11195630264E+02  0.51180437702E+02  0.10000000000E+01 0.  0.
<mgrwt>
<rscale>  0 0.12499636E+03</rscale>
<asrwt>0</asrwt>
<pdfrwt beam="2">  1        4 0.39105043E-01 0.12499636E+03</pdfrwt>
<pdfrwt beam="1">  1       -4 0.62428372E-02 0.12499636E+03</pdfrwt>
<totfact> 0.17096594E+03</totfact>
</mgrwt>
</event>
<event>
 5    1  0.1431256E-002  0.1250006E+03  0.7818608E-02  0.1235068E+00
         -4   -1    0    0    0  501 -0.00000000000E+00  0.00000000000E+00  0.63217141754E+01  0.64480206355E+01  0.12700000000E+01 0.  1.
          4   -1    0    0  501    0  0.00000000000E+00 -0.00000000000E+00 -0.61167736372E+03  0.61167868214E+03  0.12700000000E+01 0.  1.
         25    2    1    2    0    0  0.00000000000E+00  0.00000000000E+00 -0.60535564954E+03  0.61812670277E+03  0.12500063300E+03 0.  0.
    9000005    1    3    3    0    0 -0.29703354820E+02 -0.53975087651E+02 -0.25088743446E+03  0.25834299708E+03  0.10000000000E+01 0.  0.
    9000005    1    3    3    0    0  0.29703354820E+02  0.53975087651E+02 -0.35446821509E+03  0.35978370569E+03  0.10000000000E+01 0.  0.
<mgrwt>
<rscale>  0 0.12500063E+03</rscale>
<asrwt>0</asrwt>
<pdfrwt beam="2">  1        4 0.15293509E+00 0.12500063E+03</pdfrwt>
<pdfrwt beam="1">  1       -4 0.15963837E-02 0.12500063E+03</pdfrwt>
<totfact> 0.71267085E+02</totfact>
</mgrwt>
</event>
<event>
 5    1  0.1431256E-002  0.1249988E+03  0.7818608E-02  0.1235071E+00
         -4   -1    0    0    0  501 -0.00000000000E+00  0.00000000000E+00  0.43249433804E+01  0.45075531327E+01  0.12700000000E+01 0.  1.
          4   -1    0    0  501    0  0.00000000000E+00 -0.00000000000E+00 -0.88431800135E+03  0.88431891329E+03  0.12700000000E+01 0.  1.
         25    2    1    2    0    0  0.00000000000E+00  0.00000000000E+00 -0.87999305797E+03  0.88882646643E+03  0.12499882139E+03 0.  0.
    9000005    1    3    3    0    0  0.17373908149E+02 -0.54912164360E+02 -0.61241807935E+03  0.61512120951E+03  0.10000000000E+01 0.  0.
    9000005    1    3    3    0    0 -0.17373908149E+02  0.54912164360E+02 -0.26757497862E+03  0.27370525692E+03  0.10000000000E+01 0.  0.
<mgrwt>
<rscale>  0 0.12499882E+03</rscale>
<asrwt>0</asrwt>
<pdfrwt beam="2">  1        4 0.22110183E+00 0.12499882E+03</pdfrwt>
<pdfrwt beam="1">  1       -4 0.11041791E-02 0.12499882E+03</pdfrwt>
<totfact> 0.45135601E+02</totfact>
</mgrwt>
</event>
<event>
 5    1  0.1431256E-002  0.1250350E+03  0.7818608E-02  0.1235015E+00
         -4   -1    0    0    0  501 -0.00000000000E+00  0.00000000000E+00  0.26261983764E+03  0.26262290841E+03  0.12700000000E+01 0.  1.
          4   -1    0    0  501    0  0.00000000000E+00 -0.00000000000E+00 -0.14852229371E+02  0.14906428724E+02  0.12700000000E+01 0.  1.
         25    2    1    2    0    0  0.00000000000E+00  0.00000000000E+00  0.24776760826E+03  0.27752933713E+03  0.12503497616E+03 0.  0.
    9000005    1    3    3    0    0 -0.10084732371E+02  0.12996605444E+02  0.25773999108E+03  0.25826636750E+03  0.10000000000E+01 0.  0.
    9000005    1    3    3    0    0  0.10084732371E+02 -0.12996605444E+02 -0.99723828137E+01  0.19262969632E+02  0.10000000000E+01 0.  0.
<mgrwt>
<rscale>  0 0.12503498E+03</rscale>
<asrwt>0</asrwt>
<pdfrwt beam="2">  1        4 0.37202160E-02 0.12503498E+03</pdfrwt>
<pdfrwt beam="1">  1       -4 0.65662119E-01 0.12503498E+03</pdfrwt>
<totfact> 0.13614130E+03</totfact>
</mgrwt>
</event>
<event>
 5    1  0.1431256E-002  0.1249886E+03  0.7818608E-02  0.1235087E+00
          4   -1    0    0  501    0  0.00000000000E+00  0.00000000000E+00  0.24653651638E+02  0.24686341144E+02  0.12700000000E+01 0. -1.
         -4   -1    0    0    0  501 -0.00000000000E+00 -0.00000000000E+00 -0.15827592304E+03  0.15828101818E+03  0.12700000000E+01 0. -1.
         25    2    1    2    0    0  0.00000000000E+00  0.00000000000E+00 -0.13362227140E+03  0.18296735932E+03  0.12498857212E+03 0.  0.
    9000005    1    3    3    0    0 -0.44946324629E+02  0.62760962598E+01 -0.39331710924E+01  0.45563486662E+02  0.10000000000E+01 0.  0.
    9000005    1    3    3    0    0  0.44946324629E+02 -0.62760962598E+01 -0.12968910031E+03  0.13740387266E+03  0.10000000000E+01 0.  0.
<mgrwt>
<rscale>  0 0.12498857E+03</rscale>
<asrwt>0</asrwt>
<pdfrwt beam="1">  1        4 0.61681364E-02 0.12498857E+03</pdfrwt>
<pdfrwt beam="2">  1       -4 0.39573701E-01 0.12498857E+03</pdfrwt>
<totfact> 0.17032040E+03</totfact>
</mgrwt>
</event>
<event>
 5    1  0.1431256E-002  0.1250084E+03  0.7818608E-02  0.1235056E+00
         -4   -1    0    0    0  501 -0.00000000000E+00  0.00000000000E+00  0.10130435669E+03  0.10131231704E+03  0.12700000000E+01 0.  1.
          4   -1    0    0  501    0  0.00000000000E+00 -0.00000000000E+00 -0.38544807184E+02  0.38565723912E+02  0.12700000000E+01 0.  1.
         25    2    1    2    0    0  0.00000000000E+00  0.00000000000E+00  0.62759549502E+02  0.13987804095E+03  0.12500842086E+03 0.  0.
    9000005    1    3    3    0    0  0.56847578681E+02  0.33549909695E+01  0.60188595931E+02  0.82864770841E+02  0.10000000000E+01 0.  0.
    9000005    1    3    3    0    0 -0.56847578681E+02 -0.33549909695E+01  0.25709535709E+01  0.57013270110E+02  0.10000000000E+01 0.  0.
<mgrwt>
<rscale>  0 0.12500842E+03</rscale>
<asrwt>0</asrwt>
<pdfrwt beam="2">  1        4 0.96398115E-02 0.12500842E+03</pdfrwt>
<pdfrwt beam="1">  1       -4 0.25329699E-01 0.12500842E+03</pdfrwt>
<totfact> 0.19042844E+03</totfact>
</mgrwt>
</event>
<event>
 5    1  0.1431256E-002  0.1249981E+03  0.7818608E-02  0.1235072E+00
         -4   -1    0    0    0  501 -0.00000000000E+00  0.00000000000E+00  0.46427392415E+02  0.46444759300E+02  0.12700000000E+01 0. -1.
          4   -1    0    0  501    0  0.00000000000E+00 -0.00000000000E+00 -0.84096332950E+02  0.84105922001E+02  0.12700000000E+01 0. -1.
         25    2    1    2    0    0  0.00000000000E+00  0.00000000000E+00 -0.37668940535E+02  0.13055068130E+03  0.12499812522E+03 0.  0.
    9000005    1    3    3    0    0  0.50288992301E+02 -0.32819022885E+02 -0.36896066409E+02  0.70486812428E+02  0.10000000000E+01 0.  0.
    9000005    1    3    3    0    0 -0.50288992301E+02  0.32819022885E+02 -0.77287412597E+00  0.60063868874E+02  0.10000000000E+01 0.  0.
<mgrwt>
<rscale>  0 0.12499813E+03</rscale>
<asrwt>0</asrwt>
<pdfrwt beam="2">  1        4 0.21027453E-01 0.12499813E+03</pdfrwt>
<pdfrwt beam="1">  1       -4 0.11610218E-01 0.12499813E+03</pdfrwt>
<totfact> 0.19535679E+03</totfact>
</mgrwt>
</event>
<event>
 5    1  0.1431256E-002  0.1250000E+03  0.7818608E-02  0.1235069E+00
          4   -1    0    0  501    0  0.00000000000E+00  0.00000000000E+00  0.77352197961E+02  0.77362622948E+02  0.12700000000E+01 0.  1.
         -4   -1    0    0    0  501 -0.00000000000E+00 -0.00000000000E+00 -0.50477711710E+02  0.50493685541E+02  0.12700000000E+01 0.  1.
         25    2    1    2    0    0  0.00000000000E+00  0.00000000000E+00  0.26874486251E+02  0.12785630849E+03  0.12499999044E+03 0.  0.
    9000005    1    3    3    0    0 -0.23631227513E+02 -0.39461737061E+02 -0.29832911139E+02  0.54833075718E+02  0.10000000000E+01 0.  0.
    9000005    1    3    3    0    0  0.23631227513E+02  0.39461737061E+02  0.56707397390E+02  0.73023232771E+02  0.10000000000E+01 0.  0.
<mgrwt>
<rscale>  0 0.12499999E+03</rscale>
<asrwt>0</asrwt>
<pdfrwt beam="1">  1        4 0.19341349E-01 0.12499999E+03</pdfrwt>
<pdfrwt beam="2">  1       -4 0.12622728E-01 0.12499999E+03</pdfrwt>
<totfact> 0.19680360E+03</totfact>
</mgrwt>
</event>
<event>
 5    1  0.1431256E-002  0.1250017E+03  0.7818608E-02  0.1235067E+00
         -4   -1    0    0    0  501 -0.00000000000E+00  0.00000000000E+00  0.52256060725E+03  0.52256215051E+03  0.12700000000E+01 0. -1.
          4   -1    0    0  501    0  0.00000000000E+00 -0.00000000000E+00 -0.74199043897E+01  0.75278071942E+01  0.12700000000E+01 0. -1.
         25    2    1    2    0    0  0.00000000000E+00  0.00000000000E+00  0.51514070286E+03  0.53008995771E+03  0.12500167807E+03 0.  0.
    9000005    1    3    3    0    0 -0.60422902810E+02 -0.15636899038E+02  0.27092344647E+03  0.27802149852E+03  0.10000000000E+01 0.  0.
    9000005    1    3    3    0    0  0.60422902810E+02  0.15636899038E+02  0.24421725639E+03  0.25206845918E+03  0.10000000000E+01 0.  0.
<mgrwt>
<rscale>  0 0.12500168E+03</rscale>
<asrwt>0</asrwt>
<pdfrwt beam="2">  1        4 0.18686571E-02 0.12500168E+03</pdfrwt>
<pdfrwt beam="1">  1       -4 0.13065381E+00 0.12500168E+03</pdfrwt>
<totfact> 0.83008563E+02</totfact>
</mgrwt>
</event>
<event>
 5    1  0.1431256E-002  0.1250017E+03  0.7818608E-02  0.1235067E+00
         -4   -1    0    0    0  501 -0.00000000000E+00  0.00000000000E+00  0.55627146949E+02  0.55641642478E+02  0.12700000000E+01 0. -1.
          4   -1    0    0  501    0  0.00000000000E+00 -0.00000000000E+00 -0.70194526516E+02  0.70206014364E+02  0.12700000000E+01 0. -1.
         25    2    1    2    0    0  0.00000000000E+00  0.00000000000E+00 -0.14567379568E+02  0.12584765684E+03  0.12500169673E+03 0.  0.
    9000005    1    3    3    0    0 -0.15460880785E+02 -0.23152872856E+02  0.49043689938E+02  0.56403704478E+02  0.10000000000E+01 0.  0.
    9000005    1    3    3    0    0  0.15460880785E+02  0.23152872856E+02 -0.63611069506E+02  0.69443952363E+02  0.10000000000E+01 0.  0.
<mgrwt>
<rscale>  0 0.12500170E+03</rscale>
<asrwt>0</asrwt>
<pdfrwt beam="2">  1        4 0.17551880E-01 0.12500170E+03</pdfrwt>
<pdfrwt beam="1">  1       -4 0.13910035E-01 0.12500170E+03</pdfrwt>
<totfact> 0.19788369E+03</totfact>
</mgrwt>
</event>
<event>
 5    1  0.1431256E-002  0.1249982E+03  0.7818608E-02  0.1235072E+00
          4   -1    0    0  501    0  0.00000000000E+00  0.00000000000E+00  0.33474188823E+02  0.33498271856E+02  0.12700000000E+01 0. -1.
         -4   -1    0    0    0  501 -0.00000000000E+00 -0.00000000000E+00 -0.11662144492E+03  0.11662835983E+03  0.12700000000E+01 0. -1.
         25    2    1    2    0    0  0.00000000000E+00  0.00000000000E+00 -0.83147256101E+02  0.15012663168E+03  0.12499815736E+03 0.  0.
    9000005    1    3    3    0    0 -0.56427409243E+02 -0.19791268634E+02 -0.19776061040E+02  0.62990788361E+02  0.10000000000E+01 0.  0.
    9000005    1    3    3    0    0  0.56427409243E+02  0.19791268634E+02 -0.63371195061E+02  0.87135843323E+02  0.10000000000E+01 0.  0.
<mgrwt>
<rscale>  0 0.12499816E+03</rscale>
<asrwt>0</asrwt>
<pdfrwt beam="1">  1        4 0.83724222E-02 0.12499816E+03</pdfrwt>
<pdfrwt beam="2">  1       -4 0.29159235E-01 0.12499816E+03</pdfrwt>
<totfact> 0.18533351E+03</totfact>
</mgrwt>
</event>
<event>
 5    1  0.1431256E-002  0.1249902E+03  0.7818608E-02  0.1235085E+00
         -4   -1    0    0    0  501 -0.00000000000E+00  0.00000000000E+00  0.52256428816E+03  0.52256583141E+03  0.12700000000E+01 0. -1.
          4   -1    0    0  501    0  0.00000000000E+00 -0.00000000000E+00 -0.74184687017E+01  0.75263920891E+01  0.12700000000E+01 0. -1.
         25    2    1    2    0    0  0.00000000000E+00  0.00000000000E+00  0.51514581946E+03  0.53009222350E+03  0.12499020006E+03 0.  0.
    9000005    1    3    3    0    0  0.51119974977E+02 -0.35935190546E+02  0.25664599818E+03  0.26414533527E+03  0.10000000000E+01 0.  0.
    9000005    1    3    3    0    0 -0.51119974977E+02  0.35935190546E+02  0.25849982127E+03  0.26594688823E+03  0.10000000000E+01 0.  0.
<mgrwt>
<rscale>  0 0.12499020E+03</rscale>
<asrwt>0</asrwt>
<pdfrwt beam="2">  1        4 0.18683010E-02 0.12499020E+03</pdfrwt>
<pdfrwt beam="1">  1       -4 0.13065472E+00 0.12499020E+03</pdfrwt>
<totfact> 0.83029833E+02</totfact>
</mgrwt>
</event>
<event>
 5    1  0.1431256E-002  0.1249967E+03  0.7818608E-02  0.1235074E+00
          4   -1    0    0  501    0  0.00000000000E+00  0.00000000000E+00  0.73712900576E+02  0.73723840183E+02  0.12700000000E+01 0.  1.
         -4   -1    0    0    0  501 -0.00000000000E+00 -0.00000000000E+00 -0.52967464254E+02  0.52982687450E+02  0.12700000000E+01 0.  1.
         25    2    1    2    0    0  0.00000000000E+00  0.00000000000E+00  0.20745436322E+02  0.12670652763E+03  0.12499668402E+03 0.  0.
    9000005    1    3    3    0    0  0.29483857076E+02  0.32331424811E+02 -0.34851731000E+02  0.55948744509E+02  0.10000000000E+01 0.  0.
    9000005    1    3    3    0    0 -0.29483857076E+02 -0.32331424811E+02  0.55597167322E+02  0.70757783124E+02  0.10000000000E+01 0.  0.
<mgrwt>
<rscale>  0 0.12499668E+03</rscale>
<asrwt>0</asrwt>
<pdfrwt beam="1">  1        4 0.18431495E-01 0.12499668E+03</pdfrwt>
<pdfrwt beam="2">  1       -4 0.13245136E-01 0.12499668E+03</pdfrwt>
<totfact> 0.19744319E+03</totfact>
</mgrwt>
</event>
<event>
 5    1  0.1431256E-002  0.1250006E+03  0.7818608E-02  0.1235068E+00
          4   -1    0    0  501    0  0.00000000000E+00  0.00000000000E+00  0.63883386222E+02  0.63896008758E+02  0.12700000000E+01 0.  1.
         -4   -1    0    0    0  501 -0.00000000000E+00 -0.00000000000E+00 -0.61121929599E+02  0.61135122294E+02  0.12700000000E+01 0.  1.
         25    2    1    2    0    0  0.00000000000E+00  0.00000000000E+00  0.27614566228E+01  0.12503113105E+03  0.12500063236E+03 0.  0.
    9000005    1    3    3    0    0 -0.21844584423E+02  0.53894916343E+02 -0.21503700993E+02  0.62010136532E+02  0.10000000000E+01 0.  0.
    9000005    1    3    3    0    0  0.21844584423E+02 -0.53894916343E+02  0.24265157616E+02  0.63020994521E+02  0.10000000000E+01 0.  0.
<mgrwt>
<rscale>  0 0.12500063E+03</rscale>
<asrwt>0</asrwt>
<pdfrwt beam="1">  1        4 0.15974073E-01 0.12500063E+03</pdfrwt>
<pdfrwt beam="2">  1       -4 0.15283709E-01 0.12500063E+03</pdfrwt>
<totfact> 0.19833074E+03</totfact>
</mgrwt>
</event>
<event>
 5    1  0.1431256E-002  0.1249755E+03  0.7818608E-02  0.1235108E+00
         -4   -1    0    0    0  501 -0.00000000000E+00  0.00000000000E+00  0.13004098351E+02  0.13065966245E+02  0.12700000000E+01 0.  1.
          4   -1    0    0  501    0  0.00000000000E+00 -0.00000000000E+00 -0.29949237610E+03  0.29949506881E+03  0.12700000000E+01 0.  1.
         25    2    1    2    0    0  0.00000000000E+00  0.00000000000E+00 -0.28648827775E+03  0.31256103506E+03  0.12497546698E+03 0.  0.
    9000005    1    3    3    0    0 -0.31811572274E+01 -0.58073882872E+02 -0.86157067064E+02  0.10395545122E+03  0.10000000000E+01 0.  0.
    9000005    1    3    3    0    0  0.31811572274E+01  0.58073882872E+02 -0.20033121069E+03  0.20860558384E+03  0.10000000000E+01 0.  0.
<mgrwt>
<rscale>  0 0.12497547E+03</rscale>
<asrwt>0</asrwt>
<pdfrwt beam="2">  1        4 0.74881142E-01 0.12497547E+03</pdfrwt>
<pdfrwt beam="1">  1       -4 0.32590956E-02 0.12497547E+03</pdfrwt>
<totfact> 0.12633266E+03</totfact>
</mgrwt>
</event>
<event>
 5    1  0.1431256E-002  0.1249997E+03  0.7818608E-02  0.1235070E+00
          4   -1    0    0  501    0  0.00000000000E+00  0.00000000000E+00  0.25918405957E+02  0.25949502256E+02  0.12700000000E+01 0. -1.
         -4   -1    0    0    0  501 -0.00000000000E+00 -0.00000000000E+00 -0.15058838434E+03  0.15059373957E+03  0.12700000000E+01 0. -1.
         25    2    1    2    0    0  0.00000000000E+00  0.00000000000E+00 -0.12466997838E+03  0.17654324183E+03  0.12499965090E+03 0.  0.
    9000005    1    3    3    0    0 -0.28342642526E+02  0.51755370468E+02 -0.91393188653E+02  0.10879172160E+03  0.10000000000E+01 0.  0.
    9000005    1    3    3    0    0  0.28342642526E+02 -0.51755370468E+02 -0.33276789728E+02  0.67751520220E+02  0.10000000000E+01 0.  0.
<mgrwt>
<rscale>  0 0.12499965E+03</rscale>
<asrwt>0</asrwt>
<pdfrwt beam="1">  1        4 0.64841583E-02 0.12499965E+03</pdfrwt>
<pdfrwt beam="2">  1       -4 0.37651650E-01 0.12499965E+03</pdfrwt>
<totfact> 0.17306035E+03</totfact>
</mgrwt>
</event>
<event>
 5    1  0.1431256E-002  0.1249984E+03  0.7818608E-02  0.1235072E+00
          4   -1    0    0  501    0  0.00000000000E+00  0.00000000000E+00  0.63280921926E+02  0.63293664610E+02  0.12700000000E+01 0.  1.
         -4   -1    0    0    0  501 -0.00000000000E+00 -0.00000000000E+00 -0.61701653826E+02  0.61714722594E+02  0.12700000000E+01 0.  1.
         25    2    1    2    0    0  0.00000000000E+00  0.00000000000E+00  0.15792680997E+01  0.12500838720E+03  0.12499841112E+03 0.  0.
    9000005    1    3    3    0    0 -0.21495785043E+02  0.55642716678E+02  0.19418251480E+02  0.62739534461E+02  0.10000000000E+01 0.  0.
    9000005    1    3    3    0    0  0.21495785043E+02 -0.55642716678E+02 -0.17838983380E+02  0.62268852743E+02  0.10000000000E+01 0.  0.
<mgrwt>
<rscale>  0 0.12499841E+03</rscale>
<asrwt>0</asrwt>
<pdfrwt beam="1">  1        4 0.15823457E-01 0.12499841E+03</pdfrwt>
<pdfrwt beam="2">  1       -4 0.15428640E-01 0.12499841E+03</pdfrwt>
<totfact> 0.19835338E+03</totfact>
</mgrwt>
</event>
<event>
 5    1  0.1431256E-002  0.1249999E+03  0.7818608E-02  0.1235069E+00
          4   -1    0    0  501    0  0.00000000000E+00  0.00000000000E+00  0.62901619768E+01  0.64170895034E+01  0.12700000000E+01 0.  1.
         -4   -1    0    0    0  501 -0.00000000000E+00 -0.00000000000E+00 -0.61467804190E+03  0.61467935389E+03  0.12700000000E+01 0.  1.
         25    2    1    2    0    0  0.00000000000E+00  0.00000000000E+00 -0.60838787992E+03  0.62109644339E+03  0.12499991822E+03 0.  0.
    9000005    1    3    3    0    0 -0.10680488339E+02  0.61274396020E+02 -0.33426239748E+03  0.34000143354E+03  0.10000000000E+01 0.  0.
    9000005    1    3    3    0    0  0.10680488339E+02 -0.61274396020E+02 -0.27412548244E+03  0.28109500985E+03  0.10000000000E+01 0.  0.
<mgrwt>
<rscale>  0 0.12499992E+03</rscale>
<asrwt>0</asrwt>
<pdfrwt beam="1">  1        4 0.15885725E-02 0.12499992E+03</pdfrwt>
<pdfrwt beam="2">  1       -4 0.15368534E+00 0.12499992E+03</pdfrwt>
<totfact> 0.70910502E+02</totfact>
</mgrwt>
</event>
<event>
 5    1  0.1431256E-002  0.1249916E+03  0.7818608E-02  0.1235082E+00
         -4   -1    0    0    0  501 -0.00000000000E+00  0.00000000000E+00  0.77131633696E+01  0.78170191996E+01  0.12700000000E+01 0. -1.
          4   -1    0    0  501    0  0.00000000000E+00 -0.00000000000E+00 -0.50288036010E+03  0.50288196376E+03  0.12700000000E+01 0. -1.
         25    2    1    2    0    0  0.00000000000E+00  0.00000000000E+00 -0.49516719673E+03  0.51069898296E+03  0.12499159363E+03 0.  0.
    9000005    1    3    3    0    0  0.34860923316E+02 -0.22325125040E+02 -0.43883661494E+03  0.44078596824E+03  0.10000000000E+01 0.  0.
    9000005    1    3    3    0    0 -0.34860923316E+02  0.22325125040E+02 -0.56330581786E+02  0.69913014718E+02  0.10000000000E+01 0.  0.
<mgrwt>
<rscale>  0 0.12499159E+03</rscale>
<asrwt>0</asrwt>
<pdfrwt beam="2">  1        4 0.12573316E+00 0.12499159E+03</pdfrwt>
<pdfrwt beam="1">  1       -4 0.19414750E-02 0.12499159E+03</pdfrwt>
<totfact> 0.85946348E+02</totfact>
</mgrwt>
</event>
<event>
 5    1  0.1431256E-002  0.1249987E+03  0.7818608E-02  0.1235071E+00
         -4   -1    0    0    0  501 -0.00000000000E+00  0.00000000000E+00  0.55231357745E+02  0.55245957122E+02  0.12700000000E+01 0. -1.
          4   -1    0    0  501    0  0.00000000000E+00 -0.00000000000E+00 -0.70694117126E+02  0.70705523803E+02  0.12700000000E+01 0. -1.
         25    2    1    2    0    0  0.00000000000E+00  0.00000000000E+00 -0.15462759381E+02  0.12595148093E+03  0.12499871447E+03 0.  0.
    9000005    1    3    3    0    0  0.13555444129E+02  0.52346025948E+02 -0.39296070710E+02  0.66850861411E+02  0.10000000000E+01 0.  0.
    9000005    1    3    3    0    0 -0.13555444129E+02 -0.52346025948E+02  0.23833311329E+02  0.59100619515E+02  0.10000000000E+01 0.  0.
<mgrwt>
<rscale>  0 0.12499871E+03</rscale>
<asrwt>0</asrwt>
<pdfrwt beam="2">  1        4 0.17676780E-01 0.12499871E+03</pdfrwt>
<pdfrwt beam="1">  1       -4 0.13811090E-01 0.12499871E+03</pdfrwt>
<totfact> 0.19784137E+03</totfact>
</mgrwt>
</event>
<event>
 5    1  0.1431256E-002  0.1250003E+03  0.7818608E-02  0.1235069E+00
         -4   -1    0    0    0  501 -0.00000000000E+00  0.00000000000E+00  0.99011401693E+01  0.99822580939E+01  0.12700000000E+01 0.  1.
          4   -1    0    0  501    0  0.00000000000E+00 -0.00000000000E+00 -0.39283518064E+03  0.39283723353E+03  0.12700000000E+01 0.  1.
         25    2    1    2    0    0  0.00000000000E+00  0.00000000000E+00 -0.38293404047E+03  0.40281949163E+03  0.12500025393E+03 0.  0.
    9000005    1    3    3    0    0  0.34440437593E+02  0.48978232708E+02 -0.13379735381E+03  0.14658698069E+03  0.10000000000E+01 0.  0.
    9000005    1    3    3    0    0 -0.34440437593E+02 -0.48978232708E+02 -0.24913668666E+03  0.25623251093E+03  0.10000000000E+01 0.  0.
<mgrwt>
<rscale>  0 0.12500025E+03</rscale>
<asrwt>0</asrwt>
<pdfrwt beam="2">  1        4 0.98219140E-01 0.12500025E+03</pdfrwt>
<pdfrwt beam="1">  1       -4 0.24856827E-02 0.12500025E+03</pdfrwt>
<totfact> 0.10511296E+03</totfact>
</mgrwt>
</event>
<event>
 5    1  0.1431256E-002  0.1250046E+03  0.7818608E-02  0.1235062E+00
         -4   -1    0    0    0  501 -0.00000000000E+00  0.00000000000E+00  0.38572316424E+03  0.38572525499E+03  0.12700000000E+01 0.  1.
          4   -1    0    0  501    0  0.00000000000E+00 -0.00000000000E+00 -0.10085889698E+02  0.10165533483E+02  0.12700000000E+01 0.  1.
         25    2    1    2    0    0  0.00000000000E+00  0.00000000000E+00  0.37563727455E+03  0.39589078847E+03  0.12500461738E+03 0.  0.
    9000005    1    3    3    0    0  0.37218809591E+02 -0.50008658353E+02  0.20177968728E+03  0.21119220605E+03  0.10000000000E+01 0.  0.
    9000005    1    3    3    0    0 -0.37218809591E+02  0.50008658353E+02  0.17385758727E+03  0.18469858242E+03  0.10000000000E+01 0.  0.
<mgrwt>
<rscale>  0 0.12500462E+03</rscale>
<asrwt>0</asrwt>
<pdfrwt beam="2">  1        4 0.25316893E-02 0.12500462E+03</pdfrwt>
<pdfrwt beam="1">  1       -4 0.96441005E-01 0.12500462E+03</pdfrwt>
<totfact> 0.10653214E+03</totfact>
</mgrwt>
</event>
<event>
 5    1  0.1431256E-002  0.1250003E+03  0.7818608E-02  0.1235069E+00
          4   -1    0    0  501    0  0.00000000000E+00  0.00000000000E+00  0.50545897747E+01  0.52116962489E+01  0.12700000000E+01 0.  1.
         -4   -1    0    0    0  501 -0.00000000000E+00 -0.00000000000E+00 -0.76083174302E+03  0.76083280298E+03  0.12700000000E+01 0.  1.
         25    2    1    2    0    0  0.00000000000E+00  0.00000000000E+00 -0.75577715324E+03  0.76604449922E+03  0.12500027771E+03 0.  0.
    9000005    1    3    3    0    0 -0.21058323005E+02 -0.55637504860E+02 -0.49517589883E+03  0.49873756195E+03  0.10000000000E+01 0.  0.
    9000005    1    3    3    0    0  0.21058323005E+02  0.55637504860E+02 -0.26060125441E+03  0.26730693728E+03  0.10000000000E+01 0.  0.
<mgrwt>
<rscale>  0 0.12500028E+03</rscale>
<asrwt>0</asrwt>
<pdfrwt beam="1">  1        4 0.12834208E-02 0.12500028E+03</pdfrwt>
<pdfrwt beam="2">  1       -4 0.19022732E+00 0.12500028E+03</pdfrwt>
<totfact> 0.55558795E+02</totfact>
</mgrwt>
</event>
<event>
 5    1  0.1431256E-002  0.1250001E+03  0.7818608E-02  0.1235069E+00
          4   -1    0    0  501    0  0.00000000000E+00  0.00000000000E+00  0.13188582003E+03  0.13189193465E+03  0.12700000000E+01 0. -1.
         -4   -1    0    0    0  501 -0.00000000000E+00 -0.00000000000E+00 -0.29598062199E+02  0.29625296386E+02  0.12700000000E+01 0. -1.
         25    2    1    2    0    0  0.00000000000E+00  0.00000000000E+00  0.10228775783E+03  0.16151723104E+03  0.12500012208E+03 0.  0.
    9000005    1    3    3    0    0  0.37292944885E+02  0.35215764017E+02  0.50172476455E+01  0.51546935384E+02  0.10000000000E+01 0.  0.
    9000005    1    3    3    0    0 -0.37292944885E+02 -0.35215764017E+02  0.97270510189E+02  0.10997029565E+03  0.10000000000E+01 0.  0.
<mgrwt>
<rscale>  0 0.12500012E+03</rscale>
<asrwt>0</asrwt>
<pdfrwt beam="1">  1        4 0.32975623E-01 0.12500012E+03</pdfrwt>
<pdfrwt beam="2">  1       -4 0.74036843E-02 0.12500012E+03</pdfrwt>
<totfact> 0.17986533E+03</totfact>
</mgrwt>
</event>
<event>
 5    1  0.1431256E-002  0.1249995E+03  0.7818608E-02  0.1235070E+00
         -4   -1    0    0    0  501 -0.00000000000E+00  0.00000000000E+00  0.15790700290E+03  0.15791210993E+03  0.12700000000E+01 0. -1.
          4   -1    0    0  501    0  0.00000000000E+00 -0.00000000000E+00 -0.24715671286E+02  0.24748278872E+02  0.12700000000E+01 0. -1.
         25    2    1    2    0    0  0.00000000000E+00  0.00000000000E+00  0.13319133161E+03  0.18266038881E+03  0.12499954729E+03 0.  0.
    9000005    1    3    3    0    0  0.59321856149E+02 -0.16903885842E+02  0.51953750544E+02  0.80653680443E+02  0.10000000000E+01 0.  0.
    9000005    1    3    3    0    0 -0.59321856149E+02  0.16903885842E+02  0.81237581066E+02  0.10200670836E+03  0.10000000000E+01 0.  0.
<mgrwt>
<rscale>  0 0.12499955E+03</rscale>
<asrwt>0</asrwt>
<pdfrwt beam="2">  1        4 0.61836322E-02 0.12499955E+03</pdfrwt>
<pdfrwt beam="1">  1       -4 0.39481464E-01 0.12499955E+03</pdfrwt>
<totfact> 0.17040854E+03</totfact>
</mgrwt>
</event>
<event>
 5    1  0.1431256E-002  0.1249971E+03  0.7818608E-02  0.1235074E+00
          4   -1    0    0  501    0  0.00000000000E+00  0.00000000000E+00  0.10130749071E+03  0.10131545081E+03  0.12700000000E+01 0. -1.
         -4   -1    0    0    0  501 -0.00000000000E+00 -0.00000000000E+00 -0.38536602108E+02  0.38557523287E+02  0.12700000000E+01 0. -1.
         25    2    1    2    0    0  0.00000000000E+00  0.00000000000E+00  0.62770888598E+02  0.13987297410E+03  0.12499705768E+03 0.  0.
    9000005    1    3    3    0    0 -0.15062980342E+02 -0.21607298843E+02 -0.32026968880E+02  0.41478855767E+02  0.10000000000E+01 0.  0.
    9000005    1    3    3    0    0  0.15062980342E+02  0.21607298843E+02  0.94797857478E+02  0.98394118333E+02  0.10000000000E+01 0.  0.
<mgrwt>
<rscale>  0 0.12499706E+03</rscale>
<asrwt>0</asrwt>
<pdfrwt beam="1">  1        4 0.25330483E-01 0.12499706E+03</pdfrwt>
<pdfrwt beam="2">  1       -4 0.96377608E-02 0.12499706E+03</pdfrwt>
<totfact> 0.19048149E+03</totfact>
</mgrwt>
</event>
<event>
 5    1  0.1431256E-002  0.1250052E+03  0.7818608E-02  0.1235061E+00
          4   -1    0    0  501    0  0.00000000000E+00  0.00000000000E+00  0.46253151772E+03  0.46253326127E+03  0.12700000000E+01 0. -1.
         -4   -1    0    0    0  501 -0.00000000000E+00 -0.00000000000E+00 -0.83965672475E+01  0.84920693322E+01  0.12700000000E+01 0. -1.
         25    2    1    2    0    0  0.00000000000E+00  0.00000000000E+00  0.45413495047E+03  0.47102533060E+03  0.12500523522E+03 0.  0.
    9000005    1    3    3    0    0 -0.26688788474E+02 -0.52560482994E+02  0.30526520091E+03  0.31090631818E+03  0.10000000000E+01 0.  0.
    9000005    1    3    3    0    0  0.26688788474E+02  0.52560482994E+02  0.14886974956E+03  0.16011901242E+03  0.10000000000E+01 0.  0.
<mgrwt>
<rscale>  0 0.12500524E+03</rscale>
<asrwt>0</asrwt>
<pdfrwt beam="1">  1        4 0.11564502E+00 0.12500524E+03</pdfrwt>
<pdfrwt beam="2">  1       -4 0.21112977E-02 0.12500524E+03</pdfrwt>
<totfact> 0.92349896E+02</totfact>
</mgrwt>
</event>
<event>
 5    1  0.1431256E-002  0.1249926E+03  0.7818608E-02  0.1235081E+00
          4   -1    0    0  501    0  0.00000000000E+00  0.00000000000E+00  0.29320608271E+02  0.29348099928E+02  0.12700000000E+01 0.  1.
         -4   -1    0    0    0  501 -0.00000000000E+00 -0.00000000000E+00 -0.13311658585E+03  0.13312264393E+03  0.12700000000E+01 0.  1.
         25    2    1    2    0    0  0.00000000000E+00  0.00000000000E+00 -0.10379597758E+03  0.16247074386E+03  0.12499255038E+03 0.  0.
    9000005    1    3    3    0    0 -0.95414961950E+01  0.35631137555E+02  0.13665761426E+02  0.39349347497E+02  0.10000000000E+01 0.  0.
    9000005    1    3    3    0    0  0.95414961950E+01 -0.35631137555E+02 -0.11746173900E+03  0.12312139636E+03  0.10000000000E+01 0.  0.
<mgrwt>
<rscale>  0 0.12499255E+03</rscale>
<asrwt>0</asrwt>
<pdfrwt beam="1">  1        4 0.73343461E-02 0.12499255E+03</pdfrwt>
<pdfrwt beam="2">  1       -4 0.33283339E-01 0.12499255E+03</pdfrwt>
<totfact> 0.17945200E+03</totfact>
</mgrwt>
</event>
<event>
 5    1  0.1431256E-002  0.1249997E+03  0.7818608E-02  0.1235070E+00
          4   -1    0    0  501    0  0.00000000000E+00  0.00000000000E+00  0.15006488432E+03  0.15007025823E+03  0.12700000000E+01 0. -1.
         -4   -1    0    0    0  501 -0.00000000000E+00 -0.00000000000E+00 -0.26008941420E+02  0.26039929604E+02  0.12700000000E+01 0. -1.
         25    2    1    2    0    0  0.00000000000E+00  0.00000000000E+00  0.12405594290E+03  0.17611018784E+03  0.12499968516E+03 0.  0.
    9000005    1    3    3    0    0 -0.19923866123E+01  0.61998311995E+02  0.51347356320E+02  0.80531430483E+02  0.10000000000E+01 0.  0.
    9000005    1    3    3    0    0  0.19923866123E+01 -0.61998311995E+02  0.72708586580E+02  0.95578757353E+02  0.10000000000E+01 0.  0.
<mgrwt>
<rscale>  0 0.12499969E+03</rscale>
<asrwt>0</asrwt>
<pdfrwt beam="1">  1        4 0.37520766E-01 0.12499969E+03</pdfrwt>
<pdfrwt beam="2">  1       -4 0.65067807E-02 0.12499969E+03</pdfrwt>
<totfact> 0.17325048E+03</totfact>
</mgrwt>
</event>
<event>
 5    1  0.1431256E-002  0.1249972E+03  0.7818608E-02  0.1235074E+00
         -4   -1    0    0    0  501 -0.00000000000E+00  0.00000000000E+00  0.76117445841E+02  0.76128039915E+02  0.12700000000E+01 0.  1.
          4   -1    0    0  501    0  0.00000000000E+00 -0.00000000000E+00 -0.51294417638E+02  0.51310137213E+02  0.12700000000E+01 0.  1.
         25    2    1    2    0    0  0.00000000000E+00  0.00000000000E+00  0.24823028203E+02  0.12743817713E+03  0.12499722501E+03 0.  0.
    9000005    1    3    3    0    0 -0.51082484657E+02  0.10080250246E+02  0.47641259510E+02  0.70581309788E+02  0.10000000000E+01 0.  0.
    9000005    1    3    3    0    0  0.51082484657E+02 -0.10080250246E+02 -0.22818231307E+02  0.56856867340E+02  0.10000000000E+01 0.  0.
<mgrwt>
<rscale>  0 0.12499723E+03</rscale>
<asrwt>0</asrwt>
<pdfrwt beam="2">  1        4 0.12826894E-01 0.12499723E+03</pdfrwt>
<pdfrwt beam="1">  1       -4 0.19032651E-01 0.12499723E+03</pdfrwt>
<totfact> 0.19704436E+03</totfact>
</mgrwt>
</event>
<event>
 5    1  0.1431256E-002  0.1250023E+03  0.7818608E-02  0.1235066E+00
         -4   -1    0    0    0  501 -0.00000000000E+00  0.00000000000E+00  0.76109120183E+02  0.76119715416E+02  0.12700000000E+01 0. -1.
          4   -1    0    0  501    0  0.00000000000E+00 -0.00000000000E+00 -0.51304175637E+02  0.51319892224E+02  0.12700000000E+01 0. -1.
         25    2    1    2    0    0  0.00000000000E+00  0.00000000000E+00  0.24804944546E+02  0.12743960764E+03  0.12500227327E+03 0.  0.
    9000005    1    3    3    0    0 -0.60171679364E+02 -0.31079480810E+00 -0.47985065766E+01  0.60371791892E+02  0.10000000000E+01 0.  0.
    9000005    1    3    3    0    0  0.60171679364E+02  0.31079480810E+00  0.29603451122E+02  0.67067815748E+02  0.10000000000E+01 0.  0.
<mgrwt>
<rscale>  0 0.12500227E+03</rscale>
<asrwt>0</asrwt>
<pdfrwt beam="2">  1        4 0.12829333E-01 0.12500227E+03</pdfrwt>
<pdfrwt beam="1">  1       -4 0.19030569E-01 0.12500227E+03</pdfrwt>
<totfact> 0.19702037E+03</totfact>
</mgrwt>
</event>
<event>
 5    1  0.1431256E-002  0.1249996E+03  0.7818608E-02  0.1235070E+00
          4   -1    0    0  501    0  0.00000000000E+00  0.00000000000E+00  0.32775301512E+03  0.32775547566E+03  0.12700000000E+01 0. -1.
         -4   -1    0    0    0  501 -0.00000000000E+00 -0.00000000000E+00 -0.11881842459E+02  0.11949522175E+02  0.12700000000E+01 0. -1.
         25    2    1    2    0    0  0.00000000000E+00  0.00000000000E+00  0.31587117267E+03  0.33970499783E+03  0.12499955132E+03 0.  0.
    9000005    1    3    3    0    0  0.21230704243E+02  0.25501162829E+02  0.30184713275E+03  0.30366715933E+03  0.10000000000E+01 0.  0.
    9000005    1    3    3    0    0 -0.21230704243E+02 -0.25501162829E+02  0.14024039918E+02  0.36037838502E+02  0.10000000000E+01 0.  0.
<mgrwt>
<rscale>  0 0.12499955E+03</rscale>
<asrwt>0</asrwt>
<pdfrwt beam="1">  1        4 0.81947026E-01 0.12499955E+03</pdfrwt>
<pdfrwt beam="2">  1       -4 0.29792280E-02 0.12499955E+03</pdfrwt>
<totfact> 0.11927072E+03</totfact>
</mgrwt>
</event>
<event>
 5    1  0.1431256E-002  0.1250013E+03  0.7818608E-02  0.1235067E+00
         -4   -1    0    0    0  501 -0.00000000000E+00  0.00000000000E+00  0.49516222206E+03  0.49516385072E+03  0.12700000000E+01 0. -1.
          4   -1    0    0  501    0  0.00000000000E+00 -0.00000000000E+00 -0.78362242283E+01  0.79384702655E+01  0.12700000000E+01 0. -1.
         25    2    1    2    0    0  0.00000000000E+00  0.00000000000E+00  0.48732599784E+03  0.50310232098E+03  0.12500126885E+03 0.  0.
    9000005    1    3    3    0    0  0.45822405938E+01 -0.61740170750E+02  0.27792889140E+03  0.28474254036E+03  0.10000000000E+01 0.  0.
    9000005    1    3    3    0    0 -0.45822405938E+01  0.61740170750E+02  0.20939710644E+03  0.21835978063E+03  0.10000000000E+01 0.  0.
<mgrwt>
<rscale>  0 0.12500127E+03</rscale>
<asrwt>0</asrwt>
<pdfrwt beam="2">  1        4 0.19720405E-02 0.12500127E+03</pdfrwt>
<pdfrwt beam="1">  1       -4 0.12380353E+00 0.12500127E+03</pdfrwt>
<totfact> 0.87113133E+02</totfact>
</mgrwt>
</event>
<event>
 5    1  0.1431256E-002  0.1249996E+03  0.7818608E-02  0.1235070E+00
          4   -1    0    0  501    0  0.00000000000E+00  0.00000000000E+00  0.98879151780E+01  0.99691407136E+01  0.12700000000E+01 0. -1.
         -4   -1    0    0    0  501 -0.00000000000E+00 -0.00000000000E+00 -0.39335219507E+03  0.39335424527E+03  0.12700000000E+01 0. -1.
         25    2    1    2    0    0  0.00000000000E+00  0.00000000000E+00 -0.38346427989E+03  0.40332338598E+03  0.12499959889E+03 0.  0.
    9000005    1    3    3    0    0  0.40419630123E+02  0.15367845207E+02 -0.33729810028E+03  0.34006017941E+03  0.10000000000E+01 0.  0.
    9000005    1    3    3    0    0 -0.40419630123E+02 -0.15367845207E+02 -0.46166179613E+02  0.63263206570E+02  0.10000000000E+01 0.  0.
<mgrwt>
<rscale>  0 0.12499960E+03</rscale>
<asrwt>0</asrwt>
<pdfrwt beam="1">  1        4 0.24823896E-02 0.12499960E+03</pdfrwt>
<pdfrwt beam="2">  1       -4 0.98348406E-01 0.12499960E+03</pdfrwt>
<totfact> 0.10501162E+03</totfact>
</mgrwt>
</event>
<event>
 5    1  0.1431256E-002  0.1249979E+03  0.7818608E-02  0.1235072E+00
         -4   -1    0    0    0  501 -0.00000000000E+00  0.00000000000E+00  0.14373373455E+02  0.14429371590E+02  0.12700000000E+01 0. -1.
          4   -1    0    0  501    0  0.00000000000E+00 -0.00000000000E+00 -0.27117512281E+03  0.27117809671E+03  0.12700000000E+01 0. -1.
         25    2    1    2    0    0  0.00000000000E+00  0.00000000000E+00 -0.25680174936E+03  0.28560746830E+03  0.12499794987E+03 0.  0.
    9000005    1    3    3    0    0  0.30860261665E+02 -0.54213317513E+02 -0.11994912592E+03  0.13520440953E+03  0.10000000000E+01 0.  0.
    9000005    1    3    3    0    0 -0.30860261665E+02  0.54213317513E+02 -0.13685262343E+03  0.15040305877E+03  0.10000000000E+01 0.  0.
<mgrwt>
<rscale>  0 0.12499795E+03</rscale>
<asrwt>0</asrwt>
<pdfrwt beam="2">  1        4 0.67801136E-01 0.12499795E+03</pdfrwt>
<pdfrwt beam="1">  1       -4 0.36007157E-02 0.12499795E+03</pdfrwt>
<totfact> 0.13384872E+03</totfact>
</mgrwt>
</event>
<event>
 5    1  0.1431256E-002  0.1250001E+03  0.7818608E-02  0.1235069E+00
          4   -1    0    0  501    0  0.00000000000E+00  0.00000000000E+00  0.12328823907E+02  0.12394063052E+02  0.12700000000E+01 0.  1.
         -4   -1    0    0    0  501 -0.00000000000E+00 -0.00000000000E+00 -0.31593653230E+03  0.31593908486E+03  0.12700000000E+01 0.  1.
         25    2    1    2    0    0  0.00000000000E+00  0.00000000000E+00 -0.30360770840E+03  0.32833314791E+03  0.12500006169E+03 0.  0.
    9000005    1    3    3    0    0 -0.45274303252E+02 -0.42225072783E+02 -0.17417441959E+03  0.18485250268E+03  0.10000000000E+01 0.  0.
    9000005    1    3    3    0    0  0.45274303252E+02  0.42225072783E+02 -0.12943328881E+03  0.14348064524E+03  0.10000000000E+01 0.  0.
<mgrwt>
<rscale>  0 0.12500006E+03</rscale>
<asrwt>0</asrwt>
<pdfrwt beam="1">  1        4 0.30906810E-02 0.12500006E+03</pdfrwt>
<pdfrwt beam="2">  1       -4 0.78992580E-01 0.12500006E+03</pdfrwt>
<totfact> 0.12212529E+03</totfact>
</mgrwt>
</event>
<event>
 5    1  0.1431256E-002  0.1250070E+03  0.7818608E-02  0.1235058E+00
          4   -1    0    0  501    0  0.00000000000E+00  0.00000000000E+00  0.59553466481E+02  0.59567006555E+02  0.12700000000E+01 0. -1.
         -4   -1    0    0    0  501 -0.00000000000E+00 -0.00000000000E+00 -0.65572490600E+02  0.65584788049E+02  0.12700000000E+01 0. -1.
         25    2    1    2    0    0  0.00000000000E+00  0.00000000000E+00 -0.60190241186E+01  0.12515179460E+03  0.12500697197E+03 0.  0.
    9000005    1    3    3    0    0 -0.49039515465E+02  0.49142604952E+01 -0.41481387277E+02  0.64426155587E+02  0.10000000000E+01 0.  0.
    9000005    1    3    3    0    0  0.49039515465E+02 -0.49142604952E+01  0.35462363158E+02  0.60725639017E+02  0.10000000000E+01 0.  0.
<mgrwt>
<rscale>  0 0.12500697E+03</rscale>
<asrwt>0</asrwt>
<pdfrwt beam="1">  1        4 0.14891596E-01 0.12500697E+03</pdfrwt>
<pdfrwt beam="2">  1       -4 0.16396352E-01 0.12500697E+03</pdfrwt>
<totfact> 0.19823591E+03</totfact>
</mgrwt>
</event>
<event>
 5    1  0.1431256E-002  0.1249986E+03  0.7818608E-02  0.1235071E+00
         -4   -1    0    0    0  501 -0.00000000000E+00  0.00000000000E+00  0.46886290204E+02  0.46903487174E+02  0.12700000000E+01 0.  1.
          4   -1    0    0  501    0  0.00000000000E+00 -0.00000000000E+00 -0.83274100598E+02  0.83283784319E+02  0.12700000000E+01 0.  1.
         25    2    1    2    0    0  0.00000000000E+00  0.00000000000E+00 -0.36387810394E+02  0.13018727149E+03  0.12499861165E+03 0.  0.
    9000005    1    3    3    0    0  0.13686548204E+02 -0.33509482551E+02 -0.71249153580E+02  0.79922768398E+02  0.10000000000E+01 0.  0.
    9000005    1    3    3    0    0 -0.13686548204E+02  0.33509482551E+02  0.34861343186E+02  0.50264503094E+02  0.10000000000E+01 0.  0.
<mgrwt>
<rscale>  0 0.12499861E+03</rscale>
<asrwt>0</asrwt>
<pdfrwt beam="2">  1        4 0.20821885E-01 0.12499861E+03</pdfrwt>
<pdfrwt beam="1">  1       -4 0.11724933E-01 0.12499861E+03</pdfrwt>
<totfact> 0.19554954E+03</totfact>
</mgrwt>
</event>
<event>
 5    1  0.1431256E-002  0.1250231E+03  0.7818608E-02  0.1235033E+00
         -4   -1    0    0    0  501 -0.00000000000E+00  0.00000000000E+00  0.10589888611E+03  0.10590650112E+03  0.12700000000E+01 0. -1.
          4   -1    0    0  501    0  0.00000000000E+00 -0.00000000000E+00 -0.36880385845E+02  0.36902246003E+02  0.12700000000E+01 0. -1.
         25    2    1    2    0    0  0.00000000000E+00  0.00000000000E+00  0.69018500261E+02  0.14280874712E+03  0.12502313736E+03 0.  0.
    9000005    1    3    3    0    0 -0.21884705681E+02  0.79738545103E+01 -0.31743454190E+02  0.39384890280E+02  0.10000000000E+01 0.  0.
    9000005    1    3    3    0    0  0.21884705681E+02 -0.79738545103E+01  0.10076195445E+03  0.10342385684E+03  0.10000000000E+01 0.  0.
<mgrwt>
<rscale>  0 0.12502314E+03</rscale>
<asrwt>0</asrwt>
<pdfrwt beam="2">  1        4 0.92237809E-02 0.12502314E+03</pdfrwt>
<pdfrwt beam="1">  1       -4 0.26478406E-01 0.12502314E+03</pdfrwt>
<totfact> 0.18887373E+03</totfact>
</mgrwt>
</event>
<event>
 5    1  0.1431256E-002  0.1249985E+03  0.7818608E-02  0.1235072E+00
         -4   -1    0    0    0  501 -0.00000000000E+00  0.00000000000E+00  0.28163776161E+01  0.30894793860E+01  0.12700000000E+01 0.  1.
          4   -1    0    0  501    0  0.00000000000E+00 -0.00000000000E+00 -0.13225351860E+04  0.13225357958E+04  0.12700000000E+01 0.  1.
         25    2    1    2    0    0  0.00000000000E+00  0.00000000000E+00 -0.13197188084E+04  0.13256252752E+04  0.12499854777E+03 0.  0.
    9000005    1    3    3    0    0 -0.53830190801E+02  0.21840083519E+02 -0.90411838454E+03  0.90598329562E+03  0.10000000000E+01 0.  0.
    9000005    1    3    3    0    0  0.53830190801E+02 -0.21840083519E+02 -0.41560042386E+03  0.41964197955E+03  0.10000000000E+01 0.  0.
<mgrwt>
<rscale>  0 0.12499855E+03</rscale>
<asrwt>0</asrwt>
<pdfrwt beam="2">  1        4 0.33066598E+00 0.12499855E+03</pdfrwt>
<pdfrwt beam="1">  1       -4 0.73831288E-03 0.12499855E+03</pdfrwt>
<totfact> 0.19172074E+02</totfact>
</mgrwt>
</event>
<event>
 5    1  0.1431256E-002  0.1250278E+03  0.7818608E-02  0.1235026E+00
         -4   -1    0    0    0  501 -0.00000000000E+00  0.00000000000E+00  0.74696095379E+02  0.74706891013E+02  0.12700000000E+01 0. -1.
          4   -1    0    0  501    0  0.00000000000E+00 -0.00000000000E+00 -0.52296172938E+02  0.52311591487E+02  0.12700000000E+01 0. -1.
         25    2    1    2    0    0  0.00000000000E+00  0.00000000000E+00  0.22399922441E+02  0.12701848250E+03  0.12502775041E+03 0.  0.
    9000005    1    3    3    0    0  0.40129030407E+02  0.24254963549E+01 -0.37424022051E+02  0.54934320242E+02  0.10000000000E+01 0.  0.
    9000005    1    3    3    0    0 -0.40129030407E+02 -0.24254963549E+01  0.59823944492E+02  0.72084162259E+02  0.10000000000E+01 0.  0.
<mgrwt>
<rscale>  0 0.12502775E+03</rscale>
<asrwt>0</asrwt>
<pdfrwt beam="2">  1        4 0.13077320E-01 0.12502775E+03</pdfrwt>
<pdfrwt beam="1">  1       -4 0.18677300E-01 0.12502775E+03</pdfrwt>
<totfact> 0.19713187E+03</totfact>
</mgrwt>
</event>
<event>
 5    1  0.1431256E-002  0.1250007E+03  0.7818608E-02  0.1235068E+00
         -4   -1    0    0    0  501 -0.00000000000E+00  0.00000000000E+00  0.50274547224E+02  0.50290585586E+02  0.12700000000E+01 0.  1.
          4   -1    0    0  501    0  0.00000000000E+00 -0.00000000000E+00 -0.77665590744E+02  0.77675973670E+02  0.12700000000E+01 0.  1.
         25    2    1    2    0    0  0.00000000000E+00  0.00000000000E+00 -0.27391043521E+02  0.12796655926E+03  0.12500068409E+03 0.  0.
    9000005    1    3    3    0    0 -0.49608699445E+01 -0.19216941851E+02  0.46967458198E+02  0.50998462862E+02  0.10000000000E+01 0.  0.
    9000005    1    3    3    0    0  0.49608699445E+01  0.19216941851E+02 -0.74358501718E+02  0.76968096394E+02  0.10000000000E+01 0.  0.
<mgrwt>
<rscale>  0 0.12500068E+03</rscale>
<asrwt>0</asrwt>
<pdfrwt beam="2">  1        4 0.19419700E-01 0.12500068E+03</pdfrwt>
<pdfrwt beam="1">  1       -4 0.12571940E-01 0.12500068E+03</pdfrwt>
<totfact> 0.19674040E+03</totfact>
</mgrwt>
</event>
<event>
 5    1  0.1431256E-002  0.1250016E+03  0.7818608E-02  0.1235067E+00
          4   -1    0    0  501    0  0.00000000000E+00  0.00000000000E+00  0.80586111764E+01  0.81580704883E+01  0.12700000000E+01 0.  1.
         -4   -1    0    0    0  501 -0.00000000000E+00 -0.00000000000E+00 -0.48166890262E+03  0.48167057690E+03  0.12700000000E+01 0.  1.
         25    2    1    2    0    0  0.00000000000E+00  0.00000000000E+00 -0.47361029144E+03  0.48982864738E+03  0.12500158255E+03 0.  0.
    9000005    1    3    3    0    0  0.49814848641E+02 -0.69337523622E+01 -0.91460553020E+02  0.10438212886E+03  0.10000000000E+01 0.  0.
    9000005    1    3    3    0    0 -0.49814848641E+02  0.69337523622E+01 -0.38214973842E+03  0.38544651852E+03  0.10000000000E+01 0.  0.
<mgrwt>
<rscale>  0 0.12500158E+03</rscale>
<asrwt>0</asrwt>
<pdfrwt beam="1">  1        4 0.20272961E-02 0.12500158E+03</pdfrwt>
<pdfrwt beam="2">  1       -4 0.12042977E+00 0.12500158E+03</pdfrwt>
<totfact> 0.89243814E+02</totfact>
</mgrwt>
</event>
<event>
 5    1  0.1431256E-002  0.1249973E+03  0.7818608E-02  0.1235073E+00
         -4   -1    0    0    0  501 -0.00000000000E+00  0.00000000000E+00  0.17919145735E+03  0.17919595778E+03  0.12700000000E+01 0.  1.
          4   -1    0    0  501    0  0.00000000000E+00 -0.00000000000E+00 -0.21775100302E+02  0.21812104280E+02  0.12700000000E+01 0.  1.
         25    2    1    2    0    0  0.00000000000E+00  0.00000000000E+00  0.15741635705E+03  0.20100806206E+03  0.12499732617E+03 0.  0.
    9000005    1    3    3    0    0  0.30548390292E+01  0.62632980188E+01  0.17857256929E+03  0.17871128517E+03  0.10000000000E+01 0.  0.
    9000005    1    3    3    0    0 -0.30548390292E+01 -0.62632980188E+01 -0.21156212243E+02  0.22296776898E+02  0.10000000000E+01 0.  0.
<mgrwt>
<rscale>  0 0.12499733E+03</rscale>
<asrwt>0</asrwt>
<pdfrwt beam="2">  1        4 0.54489631E-02 0.12499733E+03</pdfrwt>
<pdfrwt beam="1">  1       -4 0.44803052E-01 0.12499733E+03</pdfrwt>
<totfact> 0.16282763E+03</totfact>
</mgrwt>
</event>
<event>
 5    1  0.1431256E-002  0.1249999E+03  0.7818608E-02  0.1235069E+00
          4   -1    0    0  501    0  0.00000000000E+00  0.00000000000E+00  0.59568285630E+02  0.59581822337E+02  0.12700000000E+01 0. -1.
         -4   -1    0    0    0  501 -0.00000000000E+00 -0.00000000000E+00 -0.65548794749E+02  0.65561096644E+02  0.12700000000E+01 0. -1.
         25    2    1    2    0    0  0.00000000000E+00  0.00000000000E+00 -0.59805091190E+01  0.12514291898E+03  0.12499993473E+03 0.  0.
    9000005    1    3    3    0    0  0.10016815363E+02 -0.37709295249E+01 -0.64629256236E+02  0.65517152420E+02  0.10000000000E+01 0.  0.
    9000005    1    3    3    0    0 -0.10016815363E+02  0.37709295249E+01  0.58648747117E+02  0.59625766561E+02  0.10000000000E+01 0.  0.
<mgrwt>
<rscale>  0 0.12499993E+03</rscale>
<asrwt>0</asrwt>
<pdfrwt beam="1">  1        4 0.14895301E-01 0.12499993E+03</pdfrwt>
<pdfrwt beam="2">  1       -4 0.16390429E-01 0.12499993E+03</pdfrwt>
<totfact> 0.19827337E+03</totfact>
</mgrwt>
</event>
<event>
 5    1  0.1431256E-002  0.1249968E+03  0.7818608E-02  0.1235074E+00
         -4   -1    0    0    0  501 -0.00000000000E+00  0.00000000000E+00  0.37259440072E+02  0.37281077968E+02  0.12700000000E+01 0. -1.
          4   -1    0    0  501    0  0.00000000000E+00 -0.00000000000E+00 -0.10477784041E+03  0.10478553689E+03  0.12700000000E+01 0. -1.
         25    2    1    2    0    0  0.00000000000E+00  0.00000000000E+00 -0.67518400340E+02  0.14206661486E+03  0.12499675465E+03 0.  0.
    9000005    1    3    3    0    0  0.23048081710E+01  0.46248862195E+02 -0.81451203828E+02  0.93699348984E+02  0.10000000000E+01 0.  0.
    9000005    1    3    3    0    0 -0.23048081710E+01 -0.46248862195E+02  0.13932803488E+02  0.48367265874E+02  0.10000000000E+01 0.  0.
<mgrwt>
<rscale>  0 0.12499675E+03</rscale>
<asrwt>0</asrwt>
<pdfrwt beam="2">  1        4 0.26198126E-01 0.12499675E+03</pdfrwt>
<pdfrwt beam="1">  1       -4 0.93185270E-02 0.12499675E+03</pdfrwt>
<totfact> 0.18936545E+03</totfact>
</mgrwt>
</event>
<event>
 5    1  0.1431256E-002  0.1249994E+03  0.7818608E-02  0.1235070E+00
          4   -1    0    0  501    0  0.00000000000E+00  0.00000000000E+00  0.13725425467E+02  0.13784056161E+02  0.12700000000E+01 0.  1.
         -4   -1    0    0    0  501 -0.00000000000E+00 -0.00000000000E+00 -0.28393033209E+03  0.28393317238E+03  0.12700000000E+01 0.  1.
         25    2    1    2    0    0  0.00000000000E+00  0.00000000000E+00 -0.27020490662E+03  0.29771722854E+03  0.12499942644E+03 0.  0.
    9000005    1    3    3    0    0 -0.44888972822E+02 -0.16860304998E+00 -0.23865145180E+03  0.24283855492E+03  0.10000000000E+01 0.  0.
    9000005    1    3    3    0    0  0.44888972822E+02  0.16860304998E+00 -0.31553454824E+02  0.54878673629E+02  0.10000000000E+01 0.  0.
<mgrwt>
<rscale>  0 0.12499943E+03</rscale>
<asrwt>0</asrwt>
<pdfrwt beam="1">  1        4 0.34390412E-02 0.12499943E+03</pdfrwt>
<pdfrwt beam="2">  1       -4 0.70990248E-01 0.12499943E+03</pdfrwt>
<totfact> 0.13035450E+03</totfact>
</mgrwt>
</event>
<event>
 5    1  0.1431256E-002  0.1250129E+03  0.7818608E-02  0.1235049E+00
          4   -1    0    0  501    0  0.00000000000E+00  0.00000000000E+00  0.75902661614E+02  0.75913285662E+02  0.12700000000E+01 0.  1.
         -4   -1    0    0    0  501 -0.00000000000E+00 -0.00000000000E+00 -0.51452503263E+02  0.51468174555E+02  0.12700000000E+01 0.  1.
         25    2    1    2    0    0  0.00000000000E+00  0.00000000000E+00  0.24450158351E+02  0.12738146022E+03  0.12501290399E+03 0.  0.
    9000005    1    3    3    0    0  0.15595773780E+02  0.49040806527E+02 -0.23912741002E+02  0.56754277784E+02  0.10000000000E+01 0.  0.
    9000005    1    3    3    0    0 -0.15595773780E+02 -0.49040806527E+02  0.48362899353E+02  0.70627182433E+02  0.10000000000E+01 0.  0.
<mgrwt>
<rscale>  0 0.12501290E+03</rscale>
<asrwt>0</asrwt>
<pdfrwt beam="1">  1        4 0.18978952E-01 0.12501290E+03</pdfrwt>
<pdfrwt beam="2">  1       -4 0.12866413E-01 0.12501290E+03</pdfrwt>
<totfact> 0.19700325E+03</totfact>
</mgrwt>
</event>
<event>
 5    1  0.1431256E-002  0.1250005E+03  0.7818608E-02  0.1235069E+00
         -4   -1    0    0    0  501 -0.00000000000E+00  0.00000000000E+00  0.23108055574E+03  0.23108404562E+03  0.12700000000E+01 0. -1.
          4   -1    0    0  501    0  0.00000000000E+00 -0.00000000000E+00 -0.16876933664E+02  0.16924650363E+02  0.12700000000E+01 0. -1.
         25    2    1    2    0    0  0.00000000000E+00  0.00000000000E+00  0.21420362207E+03  0.24800869598E+03  0.12500048629E+03 0.  0.
    9000005    1    3    3    0    0  0.13273297313E+02  0.24579429063E+02 -0.38097598997E+01  0.28210689909E+02  0.10000000000E+01 0.  0.
    9000005    1    3    3    0    0 -0.13273297313E+02 -0.24579429063E+02  0.21801338197E+03  0.21979800607E+03  0.10000000000E+01 0.  0.
<mgrwt>
<rscale>  0 0.12500049E+03</rscale>
<asrwt>0</asrwt>
<pdfrwt beam="2">  1        4 0.42256342E-02 0.12500049E+03</pdfrwt>
<pdfrwt beam="1">  1       -4 0.57776540E-01 0.12500049E+03</pdfrwt>
<totfact> 0.14564302E+03</totfact>
</mgrwt>
</event>
<event>
 5    1  0.1431256E-002  0.1250011E+03  0.7818608E-02  0.1235068E+00
          4   -1    0    0  501    0  0.00000000000E+00  0.00000000000E+00  0.24741813027E+03  0.24742138971E+03  0.12700000000E+01 0.  1.
         -4   -1    0    0    0  501 -0.00000000000E+00 -0.00000000000E+00 -0.15759408785E+02  0.15810498577E+02  0.12700000000E+01 0.  1.
         25    2    1    2    0    0  0.00000000000E+00  0.00000000000E+00  0.23165872149E+03  0.26323188829E+03  0.12500105508E+03 0.  0.
    9000005    1    3    3    0    0  0.51832339738E+02 -0.23602902043E+02  0.16999596366E+03  0.17928557134E+03  0.10000000000E+01 0.  0.
    9000005    1    3    3    0    0 -0.51832339738E+02  0.23602902043E+02  0.61662757826E+02  0.83946316955E+02  0.10000000000E+01 0.  0.
<mgrwt>
<rscale>  0 0.12500106E+03</rscale>
<asrwt>0</asrwt>
<pdfrwt beam="1">  1        4 0.61861326E-01 0.12500106E+03</pdfrwt>
<pdfrwt beam="2">  1       -4 0.39466459E-02 0.12500106E+03</pdfrwt>
<totfact> 0.14067615E+03</totfact>
</mgrwt>
</event>
<event>
 5    1  0.1431256E-002  0.1250051E+03  0.7818608E-02  0.1235061E+00
          4   -1    0    0  501    0  0.00000000000E+00  0.00000000000E+00  0.77835814488E+02  0.77846174710E+02  0.12700000000E+01 0.  1.
         -4   -1    0    0    0  501 -0.00000000000E+00 -0.00000000000E+00 -0.50168111076E+02  0.50184183453E+02  0.12700000000E+01 0.  1.
         25    2    1    2    0    0  0.00000000000E+00  0.00000000000E+00  0.27667703412E+02  0.12803035816E+03  0.12500508309E+03 0.  0.
    9000005    1    3    3    0    0  0.49420827190E+01  0.47265378026E+02 -0.27733169598E+02  0.55032434413E+02  0.10000000000E+01 0.  0.
    9000005    1    3    3    0    0 -0.49420827190E+01 -0.47265378026E+02  0.55400873010E+02  0.72997923750E+02  0.10000000000E+01 0.  0.
<mgrwt>
<rscale>  0 0.12500508E+03</rscale>
<asrwt>0</asrwt>
<pdfrwt beam="1">  1        4 0.19462257E-01 0.12500508E+03</pdfrwt>
<pdfrwt beam="2">  1       -4 0.12545332E-01 0.12500508E+03</pdfrwt>
<totfact> 0.19668549E+03</totfact>
</mgrwt>
</event>
<event>
 5    1  0.1431256E-002  0.1249989E+03  0.7818608E-02  0.1235071E+00
         -4   -1    0    0    0  501 -0.00000000000E+00  0.00000000000E+00  0.24271705207E+02  0.24304908428E+02  0.12700000000E+01 0. -1.
          4   -1    0    0  501    0  0.00000000000E+00 -0.00000000000E+00 -0.16078975115E+03  0.16079476663E+03  0.12700000000E+01 0. -1.
         25    2    1    2    0    0  0.00000000000E+00  0.00000000000E+00 -0.13651804594E+03  0.18509967506E+03  0.12499885135E+03 0.  0.
    9000005    1    3    3    0    0  0.15546859033E+02  0.56792075626E+02 -0.99254825072E+02  0.11541041972E+03  0.10000000000E+01 0.  0.
    9000005    1    3    3    0    0 -0.15546859033E+02 -0.56792075626E+02 -0.37263220873E+02  0.69689255338E+02  0.10000000000E+01 0.  0.
<mgrwt>
<rscale>  0 0.12499885E+03</rscale>
<asrwt>0</asrwt>
<pdfrwt beam="2">  1        4 0.40202212E-01 0.12499885E+03</pdfrwt>
<pdfrwt beam="1">  1       -4 0.60727041E-02 0.12499885E+03</pdfrwt>
<totfact> 0.16937040E+03</totfact>
</mgrwt>
</event>
<event>
 5    1  0.1431256E-002  0.1250009E+03  0.7818608E-02  0.1235068E+00
         -4   -1    0    0    0  501 -0.00000000000E+00  0.00000000000E+00  0.23820384824E+02  0.23854216256E+02  0.12700000000E+01 0.  1.
          4   -1    0    0  501    0  0.00000000000E+00 -0.00000000000E+00 -0.16383736587E+03  0.16384228805E+03  0.12700000000E+01 0.  1.
         25    2    1    2    0    0  0.00000000000E+00  0.00000000000E+00 -0.14001698105E+03  0.18769650431E+03  0.12500089099E+03 0.  0.
    9000005    1    3    3    0    0 -0.18000212472E+02 -0.47648221528E+02 -0.15641497249E+02  0.53291810815E+02  0.10000000000E+01 0.  0.
    9000005    1    3    3    0    0  0.18000212472E+02  0.47648221528E+02 -0.12437548380E+03  0.13440469349E+03  0.10000000000E+01 0.  0.
<mgrwt>
<rscale>  0 0.12500089E+03</rscale>
<asrwt>0</asrwt>
<pdfrwt beam="2">  1        4 0.40964182E-01 0.12500089E+03</pdfrwt>
<pdfrwt beam="1">  1       -4 0.59599409E-02 0.12500089E+03</pdfrwt>
<totfact> 0.16826496E+03</totfact>
</mgrwt>
</event>
<event>
 5    1  0.1431256E-002  0.1249936E+03  0.7818608E-02  0.1235079E+00
          4   -1    0    0  501    0  0.00000000000E+00  0.00000000000E+00  0.37662557648E+02  0.37683964077E+02  0.12700000000E+01 0.  1.
         -4   -1    0    0    0  501 -0.00000000000E+00 -0.00000000000E+00 -0.10365171011E+03  0.10365949020E+03  0.12700000000E+01 0.  1.
         25    2    1    2    0    0  0.00000000000E+00  0.00000000000E+00 -0.65989152458E+02  0.14134345427E+03  0.12499361513E+03 0.  0.
    9000005    1    3    3    0    0 -0.15516343573E+02 -0.14442329748E+02 -0.99467402845E+02  0.10170595870E+03  0.10000000000E+01 0.  0.
    9000005    1    3    3    0    0  0.15516343573E+02  0.14442329748E+02  0.33478250387E+02  0.39637495574E+02  0.10000000000E+01 0.  0.
<mgrwt>
<rscale>  0 0.12499362E+03</rscale>
<asrwt>0</asrwt>
<pdfrwt beam="1">  1        4 0.94192879E-02 0.12499362E+03</pdfrwt>
<pdfrwt beam="2">  1       -4 0.25916575E-01 0.12499362E+03</pdfrwt>
<totfact> 0.18974647E+03</totfact>
</mgrwt>
</event>
<event>
 5    1  0.1431256E-002  0.1249960E+03  0.7818608E-02  0.1235076E+00
         -4   -1    0    0    0  501 -0.00000000000E+00  0.00000000000E+00  0.40100982223E+02  0.40121087663E+02  0.12700000000E+01 0. -1.
          4   -1    0    0  501    0  0.00000000000E+00 -0.00000000000E+00 -0.97355428224E+02  0.97363711437E+02  0.12700000000E+01 0. -1.
         25    2    1    2    0    0  0.00000000000E+00  0.00000000000E+00 -0.57254446001E+02  0.13748479910E+03  0.12499599352E+03 0.  0.
    9000005    1    3    3    0    0  0.44141651171E+02 -0.11001133352E+02 -0.75750395240E+02  0.88366468087E+02  0.10000000000E+01 0.  0.
    9000005    1    3    3    0    0 -0.44141651171E+02  0.11001133352E+02  0.18495949239E+02  0.49118331012E+02  0.10000000000E+01 0.  0.
<mgrwt>
<rscale>  0 0.12499599E+03</rscale>
<asrwt>0</asrwt>
<pdfrwt beam="2">  1        4 0.24342405E-01 0.12499599E+03</pdfrwt>
<pdfrwt beam="1">  1       -4 0.10028794E-01 0.12499599E+03</pdfrwt>
<totfact> 0.19171556E+03</totfact>
</mgrwt>
</event>
<event>
 5    1  0.1431256E-002  0.1250000E+03  0.7818608E-02  0.1235069E+00
         -4   -1    0    0    0  501 -0.00000000000E+00  0.00000000000E+00  0.20687545915E+03  0.20687935735E+03  0.12700000000E+01 0. -1.
          4   -1    0    0  501    0  0.00000000000E+00 -0.00000000000E+00 -0.18856705235E+02  0.18899424127E+02  0.12700000000E+01 0. -1.
         25    2    1    2    0    0  0.00000000000E+00  0.00000000000E+00  0.18801875391E+03  0.22577878148E+03  0.12500002537E+03 0.  0.
    9000005    1    3    3    0    0  0.23815295815E+01 -0.58046192312E+02  0.52418233980E+02  0.78254094964E+02  0.10000000000E+01 0.  0.
    9000005    1    3    3    0    0 -0.23815295815E+01  0.58046192312E+02  0.13560051993E+03  0.14752468651E+03  0.10000000000E+01 0.  0.
<mgrwt>
<rscale>  0 0.12500003E+03</rscale>
<asrwt>0</asrwt>
<pdfrwt beam="2">  1        4 0.47200035E-02 0.12500003E+03</pdfrwt>
<pdfrwt beam="1">  1       -4 0.51724691E-01 0.12500003E+03</pdfrwt>
<totfact> 0.15339318E+03</totfact>
</mgrwt>
</event>
<event>
 5    1  0.1431256E-002  0.1250010E+03  0.7818608E-02  0.1235068E+00
         -4   -1    0    0    0  501 -0.00000000000E+00  0.00000000000E+00  0.24706256089E+02  0.24738876084E+02  0.12700000000E+01 0. -1.
          4   -1    0    0  501    0  0.00000000000E+00 -0.00000000000E+00 -0.15797066288E+03  0.15797576786E+03  0.12700000000E+01 0. -1.
         25    2    1    2    0    0  0.00000000000E+00  0.00000000000E+00 -0.13326440679E+03  0.18271464394E+03  0.12500095597E+03 0.  0.
    9000005    1    3    3    0    0 -0.41203254331E+02  0.24982092099E+02 -0.12479812274E+03  0.13378110678E+03  0.10000000000E+01 0.  0.
    9000005    1    3    3    0    0  0.41203254331E+02 -0.24982092099E+02 -0.84662840488E+01  0.48933537157E+02  0.10000000000E+01 0.  0.
<mgrwt>
<rscale>  0 0.12500096E+03</rscale>
<asrwt>0</asrwt>
<pdfrwt beam="2">  1        4 0.39497378E-01 0.12500096E+03</pdfrwt>
<pdfrwt beam="1">  1       -4 0.61812801E-02 0.12500096E+03</pdfrwt>
<totfact> 0.17037973E+03</totfact>
</mgrwt>
</event>
<event>
 5    1  0.1431256E-002  0.1250027E+03  0.7818608E-02  0.1235065E+00
         -4   -1    0    0    0  501 -0.00000000000E+00  0.00000000000E+00  0.74822863082E+02  0.74833640429E+02  0.12700000000E+01 0. -1.
          4   -1    0    0  501    0  0.00000000000E+00 -0.00000000000E+00 -0.52186602101E+02  0.52202053013E+02  0.12700000000E+01 0. -1.
         25    2    1    2    0    0  0.00000000000E+00  0.00000000000E+00  0.22636260981E+02  0.12703569344E+03  0.12500266836E+03 0.  0.
    9000005    1    3    3    0    0  0.41611794357E+02  0.13979053608E+01 -0.36043703542E+02  0.55078526978E+02  0.10000000000E+01 0.  0.
    9000005    1    3    3    0    0 -0.41611794357E+02 -0.13979053608E+01  0.58679964524E+02  0.71957166464E+02  0.10000000000E+01 0.  0.
<mgrwt>
<rscale>  0 0.12500267E+03</rscale>
<asrwt>0</asrwt>
<pdfrwt beam="2">  1        4 0.13049929E-01 0.12500267E+03</pdfrwt>
<pdfrwt beam="1">  1       -4 0.18708994E-01 0.12500267E+03</pdfrwt>
<totfact> 0.19723825E+03</totfact>
</mgrwt>
</event>
<event>
 5    1  0.1431256E-002  0.1249988E+03  0.7818608E-02  0.1235071E+00
         -4   -1    0    0    0  501 -0.00000000000E+00  0.00000000000E+00  0.25465565751E+02  0.25497214339E+02  0.12700000000E+01 0. -1.
          4   -1    0    0  501    0  0.00000000000E+00 -0.00000000000E+00 -0.15326086362E+03  0.15326612548E+03  0.12700000000E+01 0. -1.
         25    2    1    2    0    0  0.00000000000E+00  0.00000000000E+00 -0.12779529787E+03  0.17876333982E+03  0.12499877401E+03 0.  0.
    9000005    1    3    3    0    0 -0.62368695204E+02 -0.37221846304E+01 -0.62166921493E+02  0.88144398165E+02  0.10000000000E+01 0.  0.
    9000005    1    3    3    0    0  0.62368695204E+02  0.37221846304E+01 -0.65628376380E+02  0.90618941652E+02  0.10000000000E+01 0.  0.
<mgrwt>
<rscale>  0 0.12499877E+03</rscale>
<asrwt>0</asrwt>
<pdfrwt beam="2">  1        4 0.38319827E-01 0.12499877E+03</pdfrwt>
<pdfrwt beam="1">  1       -4 0.63710057E-02 0.12499877E+03</pdfrwt>
<totfact> 0.17209366E+03</totfact>
</mgrwt>
</event>
<event>
 5    1  0.1431256E-002  0.1250012E+03  0.7818608E-02  0.1235067E+00
         -4   -1    0    0    0  501 -0.00000000000E+00  0.00000000000E+00  0.40372594111E+03  0.40372793863E+03  0.12700000000E+01 0.  1.
          4   -1    0    0  501    0  0.00000000000E+00 -0.00000000000E+00 -0.96319846999E+01  0.97153501871E+01  0.12700000000E+01 0.  1.
         25    2    1    2    0    0  0.00000000000E+00  0.00000000000E+00  0.39409395641E+03  0.41344328881E+03  0.12500122633E+03 0.  0.
    9000005    1    3    3    0    0  0.42096393636E+01 -0.19733013768E+02  0.39267219862E+03  0.39319151627E+03  0.10000000000E+01 0.  0.
    9000005    1    3    3    0    0 -0.42096393636E+01  0.19733013768E+02  0.14217577911E+01  0.20251772544E+02  0.10000000000E+01 0.  0.
<mgrwt>
<rscale>  0 0.12500123E+03</rscale>
<asrwt>0</asrwt>
<pdfrwt beam="2">  1        4 0.24186667E-02 0.12500123E+03</pdfrwt>
<pdfrwt beam="1">  1       -4 0.10094215E+00 0.12500123E+03</pdfrwt>
<totfact> 0.10296231E+03</totfact>
</mgrwt>
</event>
<event>
 4    1  0.1431256E-002  0.1247831E+03  0.7818608E-02  0.1235409E+00
         -4   -1    0    0    0  501 -0.00000000000E+00  0.00000000000E+00  0.69618097266E+02  0.69629680216E+02  0.12700000000E+01 0. -1.
          4   -1    0    0  501    0  0.00000000000E+00 -0.00000000000E+00 -0.55891712937E+02  0.55906139868E+02  0.12700000000E+01 0. -1.
    9000005    1    1    2    0    0 -0.56979580893E+02 -0.24584979257E+02  0.13274488331E+02  0.63468936372E+02  0.10000000000E+01 0.  0.
    9000005    1    1    2    0    0  0.56979580893E+02  0.24584979257E+02  0.45189599873E+00  0.62066883712E+02  0.10000000000E+01 0.  0.
<mgrwt>
<rscale>  0 0.12478313E+03</rscale>
<asrwt>0</asrwt>
<pdfrwt beam="2">  1        4 0.13976179E-01 0.12478313E+03</pdfrwt>
<pdfrwt beam="1">  1       -4 0.17407776E-01 0.12478313E+03</pdfrwt>
<totfact> 0.19906847E+03</totfact>
</mgrwt>
</event>
<event>
 5    1  0.1431256E-002  0.1250025E+03  0.7818608E-02  0.1235065E+00
         -4   -1    0    0    0  501 -0.00000000000E+00  0.00000000000E+00  0.41621275071E+02  0.41640646471E+02  0.12700000000E+01 0.  1.
          4   -1    0    0  501    0  0.00000000000E+00 -0.00000000000E+00 -0.93810548272E+02  0.93819144460E+02  0.12700000000E+01 0.  1.
         25    2    1    2    0    0  0.00000000000E+00  0.00000000000E+00 -0.52189273201E+02  0.13545979093E+03  0.12500253886E+03 0.  0.
    9000005    1    3    3    0    0 -0.36853125980E+01  0.22998980685E+02 -0.88936183555E+02  0.91941173512E+02  0.10000000000E+01 0.  0.
    9000005    1    3    3    0    0  0.36853125980E+01 -0.22998980685E+02  0.36746910354E+02  0.43518617419E+02  0.10000000000E+01 0.  0.
<mgrwt>
<rscale>  0 0.12500254E+03</rscale>
<asrwt>0</asrwt>
<pdfrwt beam="2">  1        4 0.23456133E-01 0.12500254E+03</pdfrwt>
<pdfrwt beam="1">  1       -4 0.10408815E-01 0.12500254E+03</pdfrwt>
<totfact> 0.19273939E+03</totfact>
</mgrwt>
</event>
<event>
 5    1  0.1431256E-002  0.1249990E+03  0.7818608E-02  0.1235071E+00
          4   -1    0    0  501    0  0.00000000000E+00  0.00000000000E+00  0.48666888190E+02  0.48683456185E+02  0.12700000000E+01 0. -1.
         -4   -1    0    0    0  501 -0.00000000000E+00 -0.00000000000E+00 -0.80228513079E+02  0.80238564362E+02  0.12700000000E+01 0. -1.
         25    2    1    2    0    0  0.00000000000E+00  0.00000000000E+00 -0.31561624889E+02  0.12892202055E+03  0.12499900486E+03 0.  0.
    9000005    1    3    3    0    0 -0.19601022805E+02  0.41922700129E+02  0.27530883741E+02  0.53857798327E+02  0.10000000000E+01 0.  0.
    9000005    1    3    3    0    0  0.19601022805E+02 -0.41922700129E+02 -0.59092508630E+02  0.75064222219E+02  0.10000000000E+01 0.  0.
<mgrwt>
<rscale>  0 0.12499900E+03</rscale>
<asrwt>0</asrwt>
<pdfrwt beam="1">  1        4 0.12170050E-01 0.12499900E+03</pdfrwt>
<pdfrwt beam="2">  1       -4 0.20060455E-01 0.12499900E+03</pdfrwt>
<totfact> 0.19622969E+03</totfact>
</mgrwt>
</event>
<event>
 5    1  0.1431256E-002  0.1249997E+03  0.7818608E-02  0.1235070E+00
         -4   -1    0    0    0  501 -0.00000000000E+00  0.00000000000E+00  0.16972744966E+02  0.17020193057E+02  0.12700000000E+01 0. -1.
          4   -1    0    0  501    0  0.00000000000E+00 -0.00000000000E+00 -0.22977697787E+03  0.22978048755E+03  0.12700000000E+01 0. -1.
         25    2    1    2    0    0  0.00000000000E+00  0.00000000000E+00 -0.21280423290E+03  0.24680068060E+03  0.12499973763E+03 0.  0.
    9000005    1    3    3    0    0  0.57196969079E+02 -0.19637168553E+02 -0.75301439902E+02  0.96583738341E+02  0.10000000000E+01 0.  0.
    9000005    1    3    3    0    0 -0.57196969079E+02  0.19637168553E+02 -0.13750279300E+03  0.15021694226E+03  0.10000000000E+01 0.  0.
<mgrwt>
<rscale>  0 0.12499974E+03</rscale>
<asrwt>0</asrwt>
<pdfrwt beam="2">  1        4 0.57450604E-01 0.12499974E+03</pdfrwt>
<pdfrwt beam="1">  1       -4 0.42495567E-02 0.12499974E+03</pdfrwt>
<totfact> 0.14605089E+03</totfact>
</mgrwt>
</event>
<event>
 4    1  0.1431256E-002  0.1251017E+03  0.7818608E-02  0.1234910E+00
         -4   -1    0    0    0  501 -0.00000000000E+00  0.00000000000E+00  0.27408482019E+02  0.27437889616E+02  0.12700000000E+01 0.  1.
          4   -1    0    0  501    0  0.00000000000E+00 -0.00000000000E+00 -0.14264305953E+03  0.14264871304E+03  0.12700000000E+01 0.  1.
    9000005    1    1    2    0    0  0.18723606229E+02  0.24283727453E+02 -0.13172831328E+03  0.13525391443E+03  0.10000000000E+01 0.  0.
    9000005    1    1    2    0    0 -0.18723606229E+02 -0.24283727453E+02  0.16493735771E+02  0.34832688224E+02  0.10000000000E+01 0.  0.
<mgrwt>
<rscale>  0 0.12510174E+03</rscale>
<asrwt>0</asrwt>
<pdfrwt beam="2">  1        4 0.35665145E-01 0.12510174E+03</pdfrwt>
<pdfrwt beam="1">  1       -4 0.68565035E-02 0.12510174E+03</pdfrwt>
<totfact> 0.17551658E+03</totfact>
</mgrwt>
</event>
<event>
 5    1  0.1431256E-002  0.1250038E+03  0.7818608E-02  0.1235063E+00
          4   -1    0    0  501    0  0.00000000000E+00  0.00000000000E+00  0.41155213479E+03  0.41155409432E+03  0.12700000000E+01 0. -1.
         -4   -1    0    0    0  501 -0.00000000000E+00 -0.00000000000E+00 -0.94476157597E+01  0.95325937469E+01  0.12700000000E+01 0. -1.
         25    2    1    2    0    0  0.00000000000E+00  0.00000000000E+00  0.40210451903E+03  0.42108668807E+03  0.12500381851E+03 0.  0.
    9000005    1    3    3    0    0  0.40027475581E+02 -0.46692858926E+02  0.16368264148E+03  0.17485831120E+03  0.10000000000E+01 0.  0.
    9000005    1    3    3    0    0 -0.40027475581E+02  0.46692858926E+02  0.23842187755E+03  0.24622837686E+03  0.10000000000E+01 0.  0.
<mgrwt>
<rscale>  0 0.12500382E+03</rscale>
<asrwt>0</asrwt>
<pdfrwt beam="1">  1        4 0.10289890E+00 0.12500382E+03</pdfrwt>
<pdfrwt beam="2">  1       -4 0.23727711E-02 0.12500382E+03</pdfrwt>
<totfact> 0.10143878E+03</totfact>
</mgrwt>
</event>
<event>
 5    1  0.1431256E-002  0.1250181E+03  0.7818608E-02  0.1235041E+00
         -4   -1    0    0    0  501 -0.00000000000E+00  0.00000000000E+00  0.15707852843E+03  0.15708366240E+03  0.12700000000E+01 0. -1.
          4   -1    0    0  501    0  0.00000000000E+00 -0.00000000000E+00 -0.24853601543E+02  0.24886028403E+02  0.12700000000E+01 0. -1.
         25    2    1    2    0    0  0.00000000000E+00  0.00000000000E+00  0.13222492689E+03  0.18196969080E+03  0.12501814701E+03 0.  0.
    9000005    1    3    3    0    0 -0.61866762291E+02  0.53400185623E+01  0.76442965794E+02  0.98491314815E+02  0.10000000000E+01 0.  0.
    9000005    1    3    3    0    0  0.61866762291E+02 -0.53400185623E+01  0.55781961092E+02  0.83478375989E+02  0.10000000000E+01 0.  0.
<mgrwt>
<rscale>  0 0.12501815E+03</rscale>
<asrwt>0</asrwt>
<pdfrwt beam="2">  1        4 0.62180955E-02 0.12501815E+03</pdfrwt>
<pdfrwt beam="1">  1       -4 0.39274327E-01 0.12501815E+03</pdfrwt>
<totfact> 0.17063119E+03</totfact>
</mgrwt>
</event>
<event>
 5    1  0.1431256E-002  0.1250001E+03  0.7818608E-02  0.1235069E+00
          4   -1    0    0  501    0  0.00000000000E+00  0.00000000000E+00  0.49940353237E+02  0.49956498890E+02  0.12700000000E+01 0. -1.
         -4   -1    0    0    0  501 -0.00000000000E+00 -0.00000000000E+00 -0.78184453952E+02  0.78194767982E+02  0.12700000000E+01 0. -1.
         25    2    1    2    0    0  0.00000000000E+00  0.00000000000E+00 -0.28244100715E+02  0.12815126687E+03  0.12500007190E+03 0.  0.
    9000005    1    3    3    0    0 -0.22443928880E+02 -0.44868212580E+02 -0.52322189650E+02  0.72494813424E+02  0.10000000000E+01 0.  0.
    9000005    1    3    3    0    0  0.22443928880E+02  0.44868212580E+02  0.24078088934E+02  0.55656453448E+02  0.10000000000E+01 0.  0.
<mgrwt>
<rscale>  0 0.12500007E+03</rscale>
<asrwt>0</asrwt>
<pdfrwt beam="1">  1        4 0.12488396E-01 0.12500007E+03</pdfrwt>
<pdfrwt beam="2">  1       -4 0.19549421E-01 0.12500007E+03</pdfrwt>
<totfact> 0.19664275E+03</totfact>
</mgrwt>
</event>
<event>
 5    1  0.1431256E-002  0.1250145E+03  0.7818608E-02  0.1235047E+00
          4   -1    0    0  501    0  0.00000000000E+00  0.00000000000E+00  0.26613325172E+01  0.29488287110E+01  0.12700000000E+01 0.  1.
         -4   -1    0    0    0  501 -0.00000000000E+00 -0.00000000000E+00 -0.13925987492E+04  0.13925993283E+04  0.12700000000E+01 0.  1.
         25    2    1    2    0    0  0.00000000000E+00  0.00000000000E+00 -0.13899374167E+04  0.13955481570E+04  0.12501454409E+03 0.  0.
    9000005    1    3    3    0    0  0.23025684122E+02  0.57087047012E+02 -0.57419773664E+03  0.57748866121E+03  0.10000000000E+01 0.  0.
    9000005    1    3    3    0    0 -0.23025684122E+02 -0.57087047012E+02 -0.81573968003E+03  0.81805949578E+03  0.10000000000E+01 0.  0.
<mgrwt>
<rscale>  0 0.12501454E+03</rscale>
<asrwt>0</asrwt>
<pdfrwt beam="1">  1        4 0.70134732E-03 0.12501454E+03</pdfrwt>
<pdfrwt beam="2">  1       -4 0.34818332E+00 0.12501454E+03</pdfrwt>
<totfact> 0.16257959E+02</totfact>
</mgrwt>
</event>
<event>
 5    1  0.1431256E-002  0.1250012E+03  0.7818608E-02  0.1235067E+00
          4   -1    0    0  501    0  0.00000000000E+00  0.00000000000E+00  0.14179250700E+02  0.14236012448E+02  0.12700000000E+01 0.  1.
         -4   -1    0    0    0  501 -0.00000000000E+00 -0.00000000000E+00 -0.27488725406E+03  0.27489018779E+03  0.12700000000E+01 0.  1.
         25    2    1    2    0    0  0.00000000000E+00  0.00000000000E+00 -0.26070800336E+03  0.28912620024E+03  0.12500118659E+03 0.  0.
    9000005    1    3    3    0    0  0.61283968602E+02 -0.11489663331E+02 -0.12065406076E+03  0.13581656581E+03  0.10000000000E+01 0.  0.
    9000005    1    3    3    0    0 -0.61283968602E+02  0.11489663331E+02 -0.14005394261E+03  0.15330963443E+03  0.10000000000E+01 0.  0.
<mgrwt>
<rscale>  0 0.12500119E+03</rscale>
<asrwt>0</asrwt>
<pdfrwt beam="1">  1        4 0.35522755E-02 0.12500119E+03</pdfrwt>
<pdfrwt beam="2">  1       -4 0.68729258E-01 0.12500119E+03</pdfrwt>
<totfact> 0.13281022E+03</totfact>
</mgrwt>
</event>
<event>
 5    1  0.1431256E-002  0.1249967E+03  0.7818608E-02  0.1235074E+00
         -4   -1    0    0    0  501 -0.00000000000E+00  0.00000000000E+00  0.18577421973E+03  0.18577856070E+03  0.12700000000E+01 0.  1.
          4   -1    0    0  501    0  0.00000000000E+00 -0.00000000000E+00 -0.21001983100E+02  0.21040346816E+02  0.12700000000E+01 0.  1.
         25    2    1    2    0    0  0.00000000000E+00  0.00000000000E+00  0.16477223663E+03  0.20681890752E+03  0.12499668213E+03 0.  0.
    9000005    1    3    3    0    0 -0.53357841427E+02  0.30462977377E+02  0.10125070958E+03  0.11843883832E+03  0.10000000000E+01 0.  0.
    9000005    1    3    3    0    0  0.53357841427E+02 -0.30462977377E+02  0.63521527051E+02  0.88380069198E+02  0.10000000000E+01 0.  0.
<mgrwt>
<rscale>  0 0.12499668E+03</rscale>
<asrwt>0</asrwt>
<pdfrwt beam="2">  1        4 0.52558340E-02 0.12499668E+03</pdfrwt>
<pdfrwt beam="1">  1       -4 0.46448892E-01 0.12499668E+03</pdfrwt>
<totfact> 0.16053826E+03</totfact>
</mgrwt>
</event>
<event>
 5    1  0.1431256E-002  0.1249934E+03  0.7818608E-02  0.1235080E+00
         -4   -1    0    0    0  501 -0.00000000000E+00  0.00000000000E+00  0.38195687315E+02  0.38216795123E+02  0.12700000000E+01 0.  1.
          4   -1    0    0  501    0  0.00000000000E+00 -0.00000000000E+00 -0.10220538029E+03  0.10221327047E+03  0.12700000000E+01 0.  1.
         25    2    1    2    0    0  0.00000000000E+00  0.00000000000E+00 -0.64009692973E+02  0.14043006559E+03  0.12499344994E+03 0.  0.
    9000005    1    3    3    0    0  0.14699722558E+02  0.26478967753E+02  0.29404679431E+02  0.42223841002E+02  0.10000000000E+01 0.  0.
    9000005    1    3    3    0    0 -0.14699722558E+02 -0.26478967753E+02 -0.93414372404E+02  0.98206224590E+02  0.10000000000E+01 0.  0.
<mgrwt>
<rscale>  0 0.12499345E+03</rscale>
<asrwt>0</asrwt>
<pdfrwt beam="2">  1        4 0.25554969E-01 0.12499345E+03</pdfrwt>
<pdfrwt beam="1">  1       -4 0.95525468E-02 0.12499345E+03</pdfrwt>
<totfact> 0.19021267E+03</totfact>
</mgrwt>
</event>
<event>
 5    1  0.1431256E-002  0.1249990E+03  0.7818608E-02  0.1235071E+00
          4   -1    0    0  501    0  0.00000000000E+00  0.00000000000E+00  0.12207887092E+03  0.12208547671E+03  0.12700000000E+01 0.  1.
         -4   -1    0    0    0  501 -0.00000000000E+00 -0.00000000000E+00 -0.31977187972E+02  0.32002397575E+02  0.12700000000E+01 0.  1.
         25    2    1    2    0    0  0.00000000000E+00  0.00000000000E+00  0.90101682944E+02  0.15408787429E+03  0.12499903893E+03 0.  0.
    9000005    1    3    3    0    0 -0.43013956189E+02 -0.34301489557E+02  0.81585688321E+02  0.98407403947E+02  0.10000000000E+01 0.  0.
    9000005    1    3    3    0    0  0.43013956189E+02  0.34301489557E+02  0.85159946234E+01  0.55680470340E+02  0.10000000000E+01 0.  0.
<mgrwt>
<rscale>  0 0.12499904E+03</rscale>
<asrwt>0</asrwt>
<pdfrwt beam="1">  1        4 0.30523695E-01 0.12499904E+03</pdfrwt>
<pdfrwt beam="2">  1       -4 0.79982740E-02 0.12499904E+03</pdfrwt>
<totfact> 0.18339999E+03</totfact>
</mgrwt>
</event>
<event>
 5    1  0.1431256E-002  0.1250050E+03  0.7818608E-02  0.1235061E+00
          4   -1    0    0  501    0  0.00000000000E+00  0.00000000000E+00  0.25358091303E+03  0.25358409326E+03  0.12700000000E+01 0.  1.
         -4   -1    0    0    0  501 -0.00000000000E+00 -0.00000000000E+00 -0.15376129247E+02  0.15428488281E+02  0.12700000000E+01 0.  1.
         25    2    1    2    0    0  0.00000000000E+00  0.00000000000E+00  0.23820478379E+03  0.26901258154E+03  0.12500499994E+03 0.  0.
    9000005    1    3    3    0    0  0.62042077849E+01 -0.62177342483E+02  0.12130585914E+03  0.13645741304E+03  0.10000000000E+01 0.  0.
    9000005    1    3    3    0    0 -0.62042077849E+01  0.62177342483E+02  0.11689892465E+03  0.13255516850E+03  0.10000000000E+01 0.  0.
<mgrwt>
<rscale>  0 0.12500500E+03</rscale>
<asrwt>0</asrwt>
<pdfrwt beam="1">  1        4 0.63402170E-01 0.12500500E+03</pdfrwt>
<pdfrwt beam="2">  1       -4 0.38509748E-02 0.12500500E+03</pdfrwt>
<totfact> 0.13884656E+03</totfact>
</mgrwt>
</event>
<event>
 5    1  0.1431256E-002  0.1250057E+03  0.7818608E-02  0.1235060E+00
          4   -1    0    0  501    0  0.00000000000E+00  0.00000000000E+00  0.33603368959E+03  0.33603608949E+03  0.12700000000E+01 0. -1.
         -4   -1    0    0    0  501 -0.00000000000E+00 -0.00000000000E+00 -0.11588498463E+02  0.11657881310E+02  0.12700000000E+01 0. -1.
         25    2    1    2    0    0  0.00000000000E+00  0.00000000000E+00  0.32444519113E+03  0.34769397080E+03  0.12500566101E+03 0.  0.
    9000005    1    3    3    0    0  0.16977479610E+00  0.59705880188E+02  0.11087662634E+03  0.12593429724E+03  0.10000000000E+01 0.  0.
    9000005    1    3    3    0    0 -0.16977479610E+00 -0.59705880188E+02  0.21356856479E+03  0.22175967356E+03  0.10000000000E+01 0.  0.
<mgrwt>
<rscale>  0 0.12500566E+03</rscale>
<asrwt>0</asrwt>
<pdfrwt beam="1">  1        4 0.84017395E-01 0.12500566E+03</pdfrwt>
<pdfrwt beam="2">  1       -4 0.29060975E-02 0.12500566E+03</pdfrwt>
<totfact> 0.11731000E+03</totfact>
</mgrwt>
</event>
<event>
 5    1  0.1431256E-002  0.1250125E+03  0.7818608E-02  0.1235050E+00
         -4   -1    0    0    0  501 -0.00000000000E+00  0.00000000000E+00  0.86993426846E+01  0.87915563550E+01  0.12700000000E+01 0. -1.
          4   -1    0    0  501    0  0.00000000000E+00 -0.00000000000E+00 -0.44665688889E+03  0.44665869441E+03  0.12700000000E+01 0. -1.
         25    2    1    2    0    0  0.00000000000E+00  0.00000000000E+00 -0.43795754621E+03  0.45545025077E+03  0.12501247396E+03 0.  0.
    9000005    1    3    3    0    0 -0.47705929619E+02  0.36380721155E+02 -0.15518390273E+03  0.16638045636E+03  0.10000000000E+01 0.  0.
    9000005    1    3    3    0    0  0.47705929619E+02 -0.36380721155E+02 -0.28277364348E+03  0.28906979441E+03  0.10000000000E+01 0.  0.
<mgrwt>
<rscale>  0 0.12501247E+03</rscale>
<asrwt>0</asrwt>
<pdfrwt beam="2">  1        4 0.11167590E+00 0.12501247E+03</pdfrwt>
<pdfrwt beam="1">  1       -4 0.21865896E-02 0.12501247E+03</pdfrwt>
<totfact> 0.95019734E+02</totfact>
</mgrwt>
</event>
<event>
 5    1  0.1431256E-002  0.1250050E+03  0.7818608E-02  0.1235061E+00
         -4   -1    0    0    0  501 -0.00000000000E+00  0.00000000000E+00  0.27707720002E+03  0.27708011057E+03  0.12700000000E+01 0. -1.
          4   -1    0    0  501    0  0.00000000000E+00 -0.00000000000E+00 -0.14067594329E+02  0.14124804785E+02  0.12700000000E+01 0. -1.
         25    2    1    2    0    0  0.00000000000E+00  0.00000000000E+00  0.26300960569E+03  0.29120491535E+03  0.12500500005E+03 0.  0.
    9000005    1    3    3    0    0 -0.19367782047E+01 -0.56370358066E+02  0.68814723834E+02  0.88982215047E+02  0.10000000000E+01 0.  0.
    9000005    1    3    3    0    0  0.19367782047E+01  0.56370358066E+02  0.19419488186E+03  0.20222270031E+03  0.10000000000E+01 0.  0.
<mgrwt>
<rscale>  0 0.12500500E+03</rscale>
<asrwt>0</asrwt>
<pdfrwt beam="2">  1        4 0.35244136E-02 0.12500500E+03</pdfrwt>
<pdfrwt beam="1">  1       -4 0.69276817E-01 0.12500500E+03</pdfrwt>
<totfact> 0.13219669E+03</totfact>
</mgrwt>
</event>
<event>
 5    1  0.1431256E-002  0.1249982E+03  0.7818608E-02  0.1235072E+00
         -4   -1    0    0    0  501 -0.00000000000E+00  0.00000000000E+00  0.35885903956E+02  0.35908369536E+02  0.12700000000E+01 0. -1.
          4   -1    0    0  501    0  0.00000000000E+00 -0.00000000000E+00 -0.10878853072E+03  0.10879594347E+03  0.12700000000E+01 0. -1.
         25    2    1    2    0    0  0.00000000000E+00  0.00000000000E+00 -0.72902626761E+02  0.14470431301E+03  0.12499818084E+03 0.  0.
    9000005    1    3    3    0    0 -0.61649404478E+02 -0.95866407981E+01 -0.40557884584E+02  0.74421063929E+02  0.10000000000E+01 0.  0.
    9000005    1    3    3    0    0  0.61649404478E+02  0.95866407981E+01 -0.32344742177E+02  0.70283249077E+02  0.10000000000E+01 0.  0.
<mgrwt>
<rscale>  0 0.12499818E+03</rscale>
<asrwt>0</asrwt>
<pdfrwt beam="2">  1        4 0.27200867E-01 0.12499818E+03</pdfrwt>
<pdfrwt beam="1">  1       -4 0.89752110E-02 0.12499818E+03</pdfrwt>
<totfact> 0.18802999E+03</totfact>
</mgrwt>
</event>
<event>
 5    1  0.1431256E-002  0.1250002E+03  0.7818608E-02  0.1235069E+00
          4   -1    0    0  501    0  0.00000000000E+00  0.00000000000E+00  0.63737189560E+03  0.63737316087E+03  0.12700000000E+01 0. -1.
         -4   -1    0    0    0  501 -0.00000000000E+00 -0.00000000000E+00 -0.60616270892E+01  0.61932401026E+01  0.12700000000E+01 0. -1.
         25    2    1    2    0    0  0.00000000000E+00  0.00000000000E+00  0.63131026851E+03  0.64356640097E+03  0.12500022935E+03 0.  0.
    9000005    1    3    3    0    0  0.56038726063E+02  0.23129351753E+02  0.39372930560E+03  0.39837052077E+03  0.10000000000E+01 0.  0.
    9000005    1    3    3    0    0 -0.56038726063E+02 -0.23129351753E+02  0.23758096291E+03  0.24519588020E+03  0.10000000000E+01 0.  0.
<mgrwt>
<rscale>  0 0.12500023E+03</rscale>
<asrwt>0</asrwt>
<pdfrwt beam="1">  1        4 0.15935956E+00 0.12500023E+03</pdfrwt>
<pdfrwt beam="2">  1       -4 0.15320167E-02 0.12500023E+03</pdfrwt>
<totfact> 0.68251569E+02</totfact>
</mgrwt>
</event>
<event>
 5    1  0.1431256E-002  0.1250059E+03  0.7818608E-02  0.1235060E+00
         -4   -1    0    0    0  501 -0.00000000000E+00  0.00000000000E+00  0.22768518841E+02  0.22803910854E+02  0.12700000000E+01 0. -1.
          4   -1    0    0  501    0  0.00000000000E+00 -0.00000000000E+00 -0.17140897560E+03  0.17141368036E+03  0.12700000000E+01 0. -1.
         25    2    1    2    0    0  0.00000000000E+00  0.00000000000E+00 -0.14864045676E+03  0.19421759122E+03  0.12500594927E+03 0.  0.
    9000005    1    3    3    0    0  0.18841918634E+02  0.58607535031E+02 -0.57603988301E+02  0.84315363537E+02  0.10000000000E+01 0.  0.
    9000005    1    3    3    0    0 -0.18841918634E+02 -0.58607535031E+02 -0.91036468456E+02  0.10990222768E+03  0.10000000000E+01 0.  0.
<mgrwt>
<rscale>  0 0.12500595E+03</rscale>
<asrwt>0</asrwt>
<pdfrwt beam="2">  1        4 0.42857252E-01 0.12500595E+03</pdfrwt>
<pdfrwt beam="1">  1       -4 0.56971423E-02 0.12500595E+03</pdfrwt>
<totfact> 0.16553948E+03</totfact>
</mgrwt>
</event>
<event>
 5    1  0.1431256E-002  0.1250003E+03  0.7818608E-02  0.1235069E+00
         -4   -1    0    0    0  501 -0.00000000000E+00  0.00000000000E+00  0.42726226062E+03  0.42726414810E+03  0.12700000000E+01 0. -1.
          4   -1    0    0  501    0  0.00000000000E+00 -0.00000000000E+00 -0.90965362092E+01  0.91847629804E+01  0.12700000000E+01 0. -1.
         25    2    1    2    0    0  0.00000000000E+00  0.00000000000E+00  0.41816572441E+03  0.43644891108E+03  0.12500031564E+03 0.  0.
    9000005    1    3    3    0    0 -0.17112166680E+02  0.14837166476E+02  0.41244474633E+03  0.41306735109E+03  0.10000000000E+01 0.  0.
    9000005    1    3    3    0    0  0.17112166680E+02 -0.14837166476E+02  0.57209780806E+01  0.23381559993E+02  0.10000000000E+01 0.  0.
<mgrwt>
<rscale>  0 0.12500032E+03</rscale>
<asrwt>0</asrwt>
<pdfrwt beam="2">  1        4 0.22853986E-02 0.12500032E+03</pdfrwt>
<pdfrwt beam="1">  1       -4 0.10682682E+00 0.12500032E+03</pdfrwt>
<totfact> 0.98501099E+02</totfact>
</mgrwt>
</event>
<event>
 5    1  0.1431256E-002  0.1249980E+03  0.7818608E-02  0.1235072E+00
         -4   -1    0    0    0  501 -0.00000000000E+00  0.00000000000E+00  0.83779772338E+02  0.83789397617E+02  0.12700000000E+01 0.  1.
          4   -1    0    0  501    0  0.00000000000E+00 -0.00000000000E+00 -0.46602767031E+02  0.46620068586E+02  0.12700000000E+01 0.  1.
         25    2    1    2    0    0  0.00000000000E+00  0.00000000000E+00  0.37177005307E+02  0.13040946620E+03  0.12499799659E+03 0.  0.
    9000005    1    3    3    0    0 -0.93240477336E+01  0.38259475119E+02 -0.32034294918E+02  0.50773234616E+02  0.10000000000E+01 0.  0.
    9000005    1    3    3    0    0  0.93240477336E+01 -0.38259475119E+02  0.69211300225E+02  0.79636231587E+02  0.10000000000E+01 0.  0.
<mgrwt>
<rscale>  0 0.12499800E+03</rscale>
<asrwt>0</asrwt>
<pdfrwt beam="2">  1        4 0.11654058E-01 0.12499800E+03</pdfrwt>
<pdfrwt beam="1">  1       -4 0.20948309E-01 0.12499800E+03</pdfrwt>
<totfact> 0.19543309E+03</totfact>
</mgrwt>
</event>
<event>
 5    1  0.1431256E-002  0.1250057E+03  0.7818608E-02  0.1235060E+00
          4   -1    0    0  501    0  0.00000000000E+00  0.00000000000E+00  0.80989950840E+02  0.80999907636E+02  0.12700000000E+01 0. -1.
         -4   -1    0    0    0  501 -0.00000000000E+00 -0.00000000000E+00 -0.48214413992E+02  0.48231137418E+02  0.12700000000E+01 0. -1.
         25    2    1    2    0    0  0.00000000000E+00  0.00000000000E+00  0.32775536847E+02  0.12923104505E+03  0.12500570863E+03 0.  0.
    9000005    1    3    3    0    0  0.18669874251E+02 -0.59637011951E+02  0.15679483739E+02  0.64435887589E+02  0.10000000000E+01 0.  0.
    9000005    1    3    3    0    0 -0.18669874251E+02  0.59637011951E+02  0.17096053108E+02  0.64795157465E+02  0.10000000000E+01 0.  0.
<mgrwt>
<rscale>  0 0.12500571E+03</rscale>
<asrwt>0</asrwt>
<pdfrwt beam="1">  1        4 0.20250823E-01 0.12500571E+03</pdfrwt>
<pdfrwt beam="2">  1       -4 0.12056939E-01 0.12500571E+03</pdfrwt>
<totfact> 0.19603199E+03</totfact>
</mgrwt>
</event>
<event>
 5    1  0.1431256E-002  0.1249994E+03  0.7818608E-02  0.1235070E+00
          4   -1    0    0  501    0  0.00000000000E+00  0.00000000000E+00  0.74355336042E+02  0.74366181144E+02  0.12700000000E+01 0.  1.
         -4   -1    0    0    0  501 -0.00000000000E+00 -0.00000000000E+00 -0.52512035091E+02  0.52527390277E+02  0.12700000000E+01 0.  1.
         25    2    1    2    0    0  0.00000000000E+00  0.00000000000E+00  0.21843300951E+02  0.12689357142E+03  0.12499939468E+03 0.  0.
    9000005    1    3    3    0    0  0.33786339302E+02  0.24312539051E+02 -0.36395783805E+02  0.55301621652E+02  0.10000000000E+01 0.  0.
    9000005    1    3    3    0    0 -0.33786339302E+02 -0.24312539051E+02  0.58239084756E+02  0.71591949769E+02  0.10000000000E+01 0.  0.
<mgrwt>
<rscale>  0 0.12499939E+03</rscale>
<asrwt>0</asrwt>
<pdfrwt beam="1">  1        4 0.18592109E-01 0.12499939E+03</pdfrwt>
<pdfrwt beam="2">  1       -4 0.13131284E-01 0.12499939E+03</pdfrwt>
<totfact> 0.19732989E+03</totfact>
</mgrwt>
</event>
<event>
 5    1  0.1431256E-002  0.1250038E+03  0.7818608E-02  0.1235063E+00
         -4   -1    0    0    0  501 -0.00000000000E+00  0.00000000000E+00  0.37205541772E+03  0.37205758526E+03  0.12700000000E+01 0.  1.
          4   -1    0    0  501    0  0.00000000000E+00 -0.00000000000E+00 -0.10459142976E+02  0.10535965632E+02  0.12700000000E+01 0.  1.
         25    2    1    2    0    0  0.00000000000E+00  0.00000000000E+00  0.36159627474E+03  0.38259355090E+03  0.12500383706E+03 0.  0.
    9000005    1    3    3    0    0  0.58811860609E+02  0.14044583912E+02  0.13246260862E+03  0.14561396900E+03  0.10000000000E+01 0.  0.
    9000005    1    3    3    0    0 -0.58811860609E+02 -0.14044583912E+02  0.22913366612E+03  0.23697958190E+03  0.10000000000E+01 0.  0.
<mgrwt>
<rscale>  0 0.12500384E+03</rscale>
<asrwt>0</asrwt>
<pdfrwt beam="2">  1        4 0.26246597E-02 0.12500384E+03</pdfrwt>
<pdfrwt beam="1">  1       -4 0.93023721E-01 0.12500384E+03</pdfrwt>
<totfact> 0.10935796E+03</totfact>
</mgrwt>
</event>
<event>
 5    1  0.1431256E-002  0.1249715E+03  0.7818608E-02  0.1235114E+00
         -4   -1    0    0    0  501 -0.00000000000E+00  0.00000000000E+00  0.15815623196E+02  0.15866531980E+02  0.12700000000E+01 0. -1.
          4   -1    0    0  501    0  0.00000000000E+00 -0.00000000000E+00 -0.24642513167E+03  0.24642840425E+03  0.12700000000E+01 0. -1.
         25    2    1    2    0    0  0.00000000000E+00  0.00000000000E+00 -0.23060950847E+03  0.26229493622E+03  0.12497154944E+03 0.  0.
    9000005    1    3    3    0    0 -0.41704670028E+02  0.26601433311E+02 -0.35202933492E+02  0.60722008224E+02  0.10000000000E+01 0.  0.
    9000005    1    3    3    0    0  0.41704670028E+02 -0.26601433311E+02 -0.19540657498E+03  0.20157292800E+03  0.10000000000E+01 0.  0.
<mgrwt>
<rscale>  0 0.12497155E+03</rscale>
<asrwt>0</asrwt>
<pdfrwt beam="2">  1        4 0.61613043E-01 0.12497155E+03</pdfrwt>
<pdfrwt beam="1">  1       -4 0.39606793E-02 0.12497155E+03</pdfrwt>
<totfact> 0.14106975E+03</totfact>
</mgrwt>
</event>
<event>
 5    1  0.1431256E-002  0.1249937E+03  0.7818608E-02  0.1235079E+00
          4   -1    0    0  501    0  0.00000000000E+00  0.00000000000E+00  0.43992501215E+02  0.44010828931E+02  0.12700000000E+01 0.  1.
         -4   -1    0    0    0  501 -0.00000000000E+00 -0.00000000000E+00 -0.88743245240E+02  0.88752332227E+02  0.12700000000E+01 0.  1.
         25    2    1    2    0    0  0.00000000000E+00  0.00000000000E+00 -0.44750744025E+02  0.13276316116E+03  0.12499371132E+03 0.  0.
    9000005    1    3    3    0    0 -0.54537622611E+02  0.14704708163E+02  0.60118258441E+01  0.56813051073E+02  0.10000000000E+01 0.  0.
    9000005    1    3    3    0    0  0.54537622611E+02 -0.14704708163E+02 -0.50762569869E+02  0.75950110085E+02  0.10000000000E+01 0.  0.
<mgrwt>
<rscale>  0 0.12499371E+03</rscale>
<asrwt>0</asrwt>
<pdfrwt beam="1">  1        4 0.11001552E-01 0.12499371E+03</pdfrwt>
<pdfrwt beam="2">  1       -4 0.22189238E-01 0.12499371E+03</pdfrwt>
<totfact> 0.19419802E+03</totfact>
</mgrwt>
</event>
<event>
 5    1  0.1431256E-002  0.1250058E+03  0.7818608E-02  0.1235060E+00
          4   -1    0    0  501    0  0.00000000000E+00  0.00000000000E+00  0.96649390932E+02  0.96657734650E+02  0.12700000000E+01 0.  1.
         -4   -1    0    0    0  501 -0.00000000000E+00 -0.00000000000E+00 -0.40400375355E+02  0.40420331874E+02  0.12700000000E+01 0.  1.
         25    2    1    2    0    0  0.00000000000E+00  0.00000000000E+00  0.56249015577E+02  0.13707806652E+03  0.12500577814E+03 0.  0.
    9000005    1    3    3    0    0  0.38244512224E+02 -0.46519323148E+02  0.98107068392E+01  0.61024094505E+02  0.10000000000E+01 0.  0.
    9000005    1    3    3    0    0 -0.38244512224E+02  0.46519323148E+02  0.46438308738E+02  0.76053972019E+02  0.10000000000E+01 0.  0.
<mgrwt>
<rscale>  0 0.12500578E+03</rscale>
<asrwt>0</asrwt>
<pdfrwt beam="1">  1        4 0.24165885E-01 0.12500578E+03</pdfrwt>
<pdfrwt beam="2">  1       -4 0.10103631E-01 0.12500578E+03</pdfrwt>
<totfact> 0.19188250E+03</totfact>
</mgrwt>
</event>
<event>
 5    1  0.1431256E-002  0.1249959E+03  0.7818608E-02  0.1235076E+00
          4   -1    0    0  501    0  0.00000000000E+00  0.00000000000E+00  0.25369949621E+03  0.25370267495E+03  0.12700000000E+01 0.  1.
         -4   -1    0    0    0  501 -0.00000000000E+00 -0.00000000000E+00 -0.15366668341E+02  0.15419059501E+02  0.12700000000E+01 0.  1.
         25    2    1    2    0    0  0.00000000000E+00  0.00000000000E+00  0.23833282787E+03  0.26912173445E+03  0.12499588439E+03 0.  0.
    9000005    1    3    3    0    0 -0.57818273671E+02  0.88263842864E+01  0.16654000171E+03  0.17651467361E+03  0.10000000000E+01 0.  0.
    9000005    1    3    3    0    0  0.57818273671E+02 -0.88263842864E+01  0.71792826160E+02  0.92607060842E+02  0.10000000000E+01 0.  0.
<mgrwt>
<rscale>  0 0.12499588E+03</rscale>
<asrwt>0</asrwt>
<pdfrwt beam="1">  1        4 0.63431820E-01 0.12499588E+03</pdfrwt>
<pdfrwt beam="2">  1       -4 0.38486133E-02 0.12499588E+03</pdfrwt>
<totfact> 0.13884166E+03</totfact>
</mgrwt>
</event>
<event>
 5    1  0.1431256E-002  0.1250014E+03  0.7818608E-02  0.1235067E+00
          4   -1    0    0  501    0  0.00000000000E+00  0.00000000000E+00  0.77712552644E+02  0.77722929297E+02  0.12700000000E+01 0.  1.
         -4   -1    0    0    0  501 -0.00000000000E+00 -0.00000000000E+00 -0.50244742485E+02  0.50260790358E+02  0.12700000000E+01 0.  1.
         25    2    1    2    0    0  0.00000000000E+00  0.00000000000E+00  0.27467810159E+02  0.12798371965E+03  0.12500140760E+03 0.  0.
    9000005    1    3    3    0    0 -0.50815206131E+02 -0.53460788028E+01  0.50572492614E+02  0.71898141436E+02  0.10000000000E+01 0.  0.
    9000005    1    3    3    0    0  0.50815206131E+02  0.53460788028E+01 -0.23104682455E+02  0.56085578218E+02  0.10000000000E+01 0.  0.
<mgrwt>
<rscale>  0 0.12500141E+03</rscale>
<asrwt>0</asrwt>
<pdfrwt beam="1">  1        4 0.19431441E-01 0.12500141E+03</pdfrwt>
<pdfrwt beam="2">  1       -4 0.12564489E-01 0.12500141E+03</pdfrwt>
<totfact> 0.19672773E+03</totfact>
</mgrwt>
</event>
<event>
 5    1  0.1431256E-002  0.1250013E+03  0.7818608E-02  0.1235067E+00
          4   -1    0    0  501    0  0.00000000000E+00  0.00000000000E+00  0.12711130771E+03  0.12711765199E+03  0.12700000000E+01 0.  1.
         -4   -1    0    0    0  501 -0.00000000000E+00 -0.00000000000E+00 -0.30711334070E+02  0.30737581888E+02  0.12700000000E+01 0.  1.
         25    2    1    2    0    0  0.00000000000E+00  0.00000000000E+00  0.96399973644E+02  0.15785523388E+03  0.12500127978E+03 0.  0.
    9000005    1    3    3    0    0  0.11353309228E+02 -0.50935045468E+02  0.91617314885E+02  0.10544196922E+03  0.10000000000E+01 0.  0.
    9000005    1    3    3    0    0 -0.11353309228E+02  0.50935045468E+02  0.47826587591E+01  0.52413264658E+02  0.10000000000E+01 0.  0.
<mgrwt>
<rscale>  0 0.12500128E+03</rscale>
<asrwt>0</asrwt>
<pdfrwt beam="1">  1        4 0.31781901E-01 0.12500128E+03</pdfrwt>
<pdfrwt beam="2">  1       -4 0.76819076E-02 0.12500128E+03</pdfrwt>
<totfact> 0.18158619E+03</totfact>
</mgrwt>
</event>
<event>
 5    1  0.1431256E-002  0.1249997E+03  0.7818608E-02  0.1235070E+00
         -4   -1    0    0    0  501 -0.00000000000E+00  0.00000000000E+00  0.75959230262E+02  0.75969846400E+02  0.12700000000E+01 0. -1.
          4   -1    0    0  501    0  0.00000000000E+00 -0.00000000000E+00 -0.51403342967E+02  0.51419029242E+02  0.12700000000E+01 0. -1.
         25    2    1    2    0    0  0.00000000000E+00  0.00000000000E+00  0.24555887295E+02  0.12738887564E+03  0.12499973615E+03 0.  0.
    9000005    1    3    3    0    0 -0.43767581385E+02  0.15357999362E+02 -0.30400444265E+02  0.55467615202E+02  0.10000000000E+01 0.  0.
    9000005    1    3    3    0    0  0.43767581385E+02 -0.15357999362E+02  0.54956331560E+02  0.71921260440E+02  0.10000000000E+01 0.  0.
<mgrwt>
<rscale>  0 0.12499974E+03</rscale>
<asrwt>0</asrwt>
<pdfrwt beam="2">  1        4 0.12854124E-01 0.12499974E+03</pdfrwt>
<pdfrwt beam="1">  1       -4 0.18993095E-01 0.12499974E+03</pdfrwt>
<totfact> 0.19705975E+03</totfact>
</mgrwt>
</event>
<event>
 5    1  0.1431256E-002  0.1250040E+03  0.7818608E-02  0.1235063E+00
         -4   -1    0    0    0  501 -0.00000000000E+00  0.00000000000E+00  0.12312210407E+03  0.12312865390E+03  0.12700000000E+01 0. -1.
          4   -1    0    0  501    0  0.00000000000E+00 -0.00000000000E+00 -0.31708561308E+02  0.31733984311E+02  0.12700000000E+01 0. -1.
         25    2    1    2    0    0  0.00000000000E+00  0.00000000000E+00  0.91413542761E+02  0.15486263821E+03  0.12500400359E+03 0.  0.
    9000005    1    3    3    0    0  0.58023665116E+01 -0.54946142941E+02  0.95295963633E+01  0.56076370140E+02  0.10000000000E+01 0.  0.
    9000005    1    3    3    0    0 -0.58023665116E+01  0.54946142941E+02  0.81883946398E+02  0.98786268068E+02  0.10000000000E+01 0.  0.
<mgrwt>
<rscale>  0 0.12500400E+03</rscale>
<asrwt>0</asrwt>
<pdfrwt beam="2">  1        4 0.79311370E-02 0.12500400E+03</pdfrwt>
<pdfrwt beam="1">  1       -4 0.30784522E-01 0.12500400E+03</pdfrwt>
<totfact> 0.18300536E+03</totfact>
</mgrwt>
</event>
<event>
 5    1  0.1431256E-002  0.1250010E+03  0.7818608E-02  0.1235068E+00
         -4   -1    0    0    0  501 -0.00000000000E+00  0.00000000000E+00  0.12542174416E+03  0.12542817390E+03  0.12700000000E+01 0.  1.
          4   -1    0    0  501    0  0.00000000000E+00 -0.00000000000E+00 -0.31125260240E+02  0.31151159288E+02  0.12700000000E+01 0.  1.
         25    2    1    2    0    0  0.00000000000E+00  0.00000000000E+00  0.94296483918E+02  0.15657933319E+03  0.12500104280E+03 0.  0.
    9000005    1    3    3    0    0  0.59345103615E+02 -0.94774660478E+00  0.22647487748E+02  0.63534622435E+02  0.10000000000E+01 0.  0.
    9000005    1    3    3    0    0 -0.59345103615E+02  0.94774660478E+00  0.71648996170E+02  0.93044710752E+02  0.10000000000E+01 0.  0.
<mgrwt>
<rscale>  0 0.12500104E+03</rscale>
<asrwt>0</asrwt>
<pdfrwt beam="2">  1        4 0.77853562E-02 0.12500104E+03</pdfrwt>
<pdfrwt beam="1">  1       -4 0.31359477E-01 0.12500104E+03</pdfrwt>
<totfact> 0.18219492E+03</totfact>
</mgrwt>
</event>
<event>
 5    1  0.1431256E-002  0.1249990E+03  0.7818608E-02  0.1235071E+00
         -4   -1    0    0    0  501 -0.00000000000E+00  0.00000000000E+00  0.13782304955E+03  0.13782890077E+03  0.12700000000E+01 0.  1.
          4   -1    0    0  501    0  0.00000000000E+00 -0.00000000000E+00 -0.28321348660E+02  0.28349809345E+02  0.12700000000E+01 0.  1.
         25    2    1    2    0    0  0.00000000000E+00  0.00000000000E+00  0.10950170089E+03  0.16617871012E+03  0.12499896479E+03 0.  0.
    9000005    1    3    3    0    0 -0.12096207634E+02 -0.52484750920E+02  0.96880026364E+02  0.11084992930E+03  0.10000000000E+01 0.  0.
    9000005    1    3    3    0    0  0.12096207634E+02  0.52484750920E+02  0.12621674528E+02  0.55328780812E+02  0.10000000000E+01 0.  0.
<mgrwt>
<rscale>  0 0.12499896E+03</rscale>
<asrwt>0</asrwt>
<pdfrwt beam="2">  1        4 0.70846263E-02 0.12499896E+03</pdfrwt>
<pdfrwt beam="1">  1       -4 0.34460051E-01 0.12499896E+03</pdfrwt>
<totfact> 0.17771221E+03</totfact>
</mgrwt>
</event>
<event>
 5    1  0.1431256E-002  0.1249979E+03  0.7818608E-02  0.1235073E+00
         -4   -1    0    0    0  501 -0.00000000000E+00  0.00000000000E+00  0.45147882874E+03  0.45148061498E+03  0.12700000000E+01 0. -1.
          4   -1    0    0  501    0  0.00000000000E+00 -0.00000000000E+00 -0.86034149228E+01  0.86966458094E+01  0.12700000000E+01 0. -1.
         25    2    1    2    0    0  0.00000000000E+00  0.00000000000E+00  0.44287541382E+03  0.46017726079E+03  0.12499791671E+03 0.  0.
    9000005    1    3    3    0    0 -0.10127305740E+02 -0.36046289735E+02  0.40563027543E+03  0.40735588577E+03  0.10000000000E+01 0.  0.
    9000005    1    3    3    0    0  0.10127305740E+02  0.36046289735E+02  0.37245138384E+02  0.52821375015E+02  0.10000000000E+01 0.  0.
<mgrwt>
<rscale>  0 0.12499792E+03</rscale>
<asrwt>0</asrwt>
<pdfrwt beam="2">  1        4 0.21627310E-02 0.12499792E+03</pdfrwt>
<pdfrwt beam="1">  1       -4 0.11288158E+00 0.12499792E+03</pdfrwt>
<totfact> 0.94222562E+02</totfact>
</mgrwt>
</event>
<event>
 5    1  0.1431256E-002  0.1250026E+03  0.7818608E-02  0.1235065E+00
          4   -1    0    0  501    0  0.00000000000E+00  0.00000000000E+00  0.39191717601E+03  0.39191923371E+03  0.12700000000E+01 0.  1.
         -4   -1    0    0    0  501 -0.00000000000E+00 -0.00000000000E+00 -0.99249030679E+01  0.10005828347E+02  0.12700000000E+01 0.  1.
         25    2    1    2    0    0  0.00000000000E+00  0.00000000000E+00  0.38199227294E+03  0.40192506206E+03  0.12500263566E+03 0.  0.
    9000005    1    3    3    0    0  0.40817619018E+02  0.18746551244E+02  0.33070238021E+03  0.33374028148E+03  0.10000000000E+01 0.  0.
    9000005    1    3    3    0    0 -0.40817619018E+02 -0.18746551244E+02  0.51289892733E+02  0.68184780578E+02  0.10000000000E+01 0.  0.
<mgrwt>
<rscale>  0 0.12500264E+03</rscale>
<asrwt>0</asrwt>
<pdfrwt beam="1">  1        4 0.97989659E-01 0.12500264E+03</pdfrwt>
<pdfrwt beam="2">  1       -4 0.24915988E-02 0.12500264E+03</pdfrwt>
<totfact> 0.10529023E+03</totfact>
</mgrwt>
</event>
<event>
 5    1  0.1431256E-002  0.1250022E+03  0.7818608E-02  0.1235066E+00
         -4   -1    0    0    0  501 -0.00000000000E+00  0.00000000000E+00  0.44632228960E+03  0.44632409647E+03  0.12700000000E+01 0.  1.
          4   -1    0    0  501    0  0.00000000000E+00 -0.00000000000E+00 -0.87044928922E+01  0.87966525742E+01  0.12700000000E+01 0.  1.
         25    2    1    2    0    0  0.00000000000E+00  0.00000000000E+00  0.43761779670E+03  0.45512074904E+03  0.12500224086E+03 0.  0.
    9000005    1    3    3    0    0  0.49653417802E+02 -0.22029138624E+02  0.33130302159E+03  0.33572821890E+03  0.10000000000E+01 0.  0.
    9000005    1    3    3    0    0 -0.49653417802E+02  0.22029138624E+02  0.10631477511E+03  0.11939253015E+03  0.10000000000E+01 0.  0.
<mgrwt>
<rscale>  0 0.12500224E+03</rscale>
<asrwt>0</asrwt>
<pdfrwt beam="2">  1        4 0.21878693E-02 0.12500224E+03</pdfrwt>
<pdfrwt beam="1">  1       -4 0.11159231E+00 0.12500224E+03</pdfrwt>
<totfact> 0.95099981E+02</totfact>
</mgrwt>
</event>
<event>
 5    1  0.1431256E-002  0.1250055E+03  0.7818608E-02  0.1235061E+00
         -4   -1    0    0    0  501 -0.00000000000E+00  0.00000000000E+00  0.86530341081E+01  0.87457360626E+01  0.12700000000E+01 0. -1.
          4   -1    0    0  501    0  0.00000000000E+00 -0.00000000000E+00 -0.44897221225E+03  0.44897400846E+03  0.12700000000E+01 0. -1.
         25    2    1    2    0    0  0.00000000000E+00  0.00000000000E+00 -0.44031917814E+03  0.45771974452E+03  0.12500554342E+03 0.  0.
    9000005    1    3    3    0    0 -0.55372417452E+02  0.28892197050E+02 -0.22812539573E+03  0.23652285269E+03  0.10000000000E+01 0.  0.
    9000005    1    3    3    0    0  0.55372417452E+02 -0.28892197050E+02 -0.21219378241E+03  0.22119689184E+03  0.10000000000E+01 0.  0.
<mgrwt>
<rscale>  0 0.12500554E+03</rscale>
<asrwt>0</asrwt>
<pdfrwt beam="2">  1        4 0.11225479E+00 0.12500554E+03</pdfrwt>
<pdfrwt beam="1">  1       -4 0.21750723E-02 0.12500554E+03</pdfrwt>
<totfact> 0.94635473E+02</totfact>
</mgrwt>
</event>
<event>
 5    1  0.1431256E-002  0.1249979E+03  0.7818608E-02  0.1235073E+00
          4   -1    0    0  501    0  0.00000000000E+00  0.00000000000E+00  0.41340961671E+02  0.41360464357E+02  0.12700000000E+01 0. -1.
         -4   -1    0    0    0  501 -0.00000000000E+00 -0.00000000000E+00 -0.94439320621E+02  0.94447859581E+02  0.12700000000E+01 0. -1.
         25    2    1    2    0    0  0.00000000000E+00  0.00000000000E+00 -0.53098358951E+02  0.13580832394E+03  0.12499786049E+03 0.  0.
    9000005    1    3    3    0    0  0.11569889911E+02  0.60336223328E+02 -0.14123565421E+02  0.63045993515E+02  0.10000000000E+01 0.  0.
    9000005    1    3    3    0    0 -0.11569889911E+02 -0.60336223328E+02 -0.38974793530E+02  0.72762330424E+02  0.10000000000E+01 0.  0.
<mgrwt>
<rscale>  0 0.12499786E+03</rscale>
<asrwt>0</asrwt>
<pdfrwt beam="1">  1        4 0.10338746E-01 0.12499786E+03</pdfrwt>
<pdfrwt beam="2">  1       -4 0.23613335E-01 0.12499786E+03</pdfrwt>
<totfact> 0.19257843E+03</totfact>
</mgrwt>
</event>
<event>
 5    1  0.1431256E-002  0.1249963E+03  0.7818608E-02  0.1235075E+00
          4   -1    0    0  501    0  0.00000000000E+00  0.00000000000E+00  0.22814004664E+03  0.22814358150E+03  0.12700000000E+01 0. -1.
         -4   -1    0    0    0  501 -0.00000000000E+00 -0.00000000000E+00 -0.17093915091E+02  0.17141027773E+02  0.12700000000E+01 0. -1.
         25    2    1    2    0    0  0.00000000000E+00  0.00000000000E+00  0.21104613155E+03  0.24528460927E+03  0.12499627957E+03 0.  0.
    9000005    1    3    3    0    0  0.19486438730E+02 -0.18798602273E+02  0.21604120225E+03  0.21773357530E+03  0.10000000000E+01 0.  0.
    9000005    1    3    3    0    0 -0.19486438730E+02  0.18798602273E+02 -0.49950707043E+01  0.27551033976E+02  0.10000000000E+01 0.  0.
<mgrwt>
<rscale>  0 0.12499628E+03</rscale>
<asrwt>0</asrwt>
<pdfrwt beam="1">  1        4 0.57041342E-01 0.12499628E+03</pdfrwt>
<pdfrwt beam="2">  1       -4 0.42798098E-02 0.12499628E+03</pdfrwt>
<totfact> 0.14657366E+03</totfact>
</mgrwt>
</event>
<event>
 5    1  0.1431256E-002  0.1250005E+03  0.7818608E-02  0.1235069E+00
         -4   -1    0    0    0  501 -0.00000000000E+00  0.00000000000E+00  0.14429322978E+03  0.14429881864E+03  0.12700000000E+01 0. -1.
          4   -1    0    0  501    0  0.00000000000E+00 -0.00000000000E+00 -0.27050813850E+02  0.27080609852E+02  0.12700000000E+01 0. -1.
         25    2    1    2    0    0  0.00000000000E+00  0.00000000000E+00  0.11724241593E+03  0.17137942849E+03  0.12500049767E+03 0.  0.
    9000005    1    3    3    0    0  0.31538970160E+02 -0.20641170080E+02 -0.97176782373E+01  0.38938384806E+02  0.10000000000E+01 0.  0.
    9000005    1    3    3    0    0 -0.31538970160E+02  0.20641170080E+02  0.12696009417E+03  0.13244104369E+03  0.10000000000E+01 0.  0.
<mgrwt>
<rscale>  0 0.12500050E+03</rscale>
<asrwt>0</asrwt>
<pdfrwt beam="2">  1        4 0.67671267E-02 0.12500050E+03</pdfrwt>
<pdfrwt beam="1">  1       -4 0.36077730E-01 0.12500050E+03</pdfrwt>
<totfact> 0.17534805E+03</totfact>
</mgrwt>
</event>
<event>
 4    1  0.1431256E-002  0.1251191E+03  0.7818608E-02  0.1234883E+00
          4   -1    0    0  501    0  0.00000000000E+00  0.00000000000E+00  0.15820251977E+03  0.15820761727E+03  0.12700000000E+01 0.  1.
         -4   -1    0    0    0  501 -0.00000000000E+00 -0.00000000000E+00 -0.24716721544E+02  0.24749327746E+02  0.12700000000E+01 0.  1.
    9000005    1    1    2    0    0 -0.43609860409E+02 -0.43671828673E+02  0.81629837701E+02  0.10234001635E+03  0.10000000000E+01 0.  0.
    9000005    1    1    2    0    0  0.43609860409E+02  0.43671828673E+02  0.51855960529E+02  0.80616928662E+02  0.10000000000E+01 0.  0.
<mgrwt>
<rscale>  0 0.12511908E+03</rscale>
<asrwt>0</asrwt>
<pdfrwt beam="1">  1        4 0.39555343E-01 0.12511908E+03</pdfrwt>
<pdfrwt beam="2">  1       -4 0.61838933E-02 0.12511908E+03</pdfrwt>
<totfact> 0.16981065E+03</totfact>
</mgrwt>
</event>
<event>
 5    1  0.1431256E-002  0.1249932E+03  0.7818608E-02  0.1235080E+00
         -4   -1    0    0    0  501 -0.00000000000E+00  0.00000000000E+00  0.12771052243E+03  0.12771683694E+03  0.12700000000E+01 0.  1.
          4   -1    0    0  501    0  0.00000000000E+00 -0.00000000000E+00 -0.30563156686E+02  0.30589531651E+02  0.12700000000E+01 0.  1.
         25    2    1    2    0    0  0.00000000000E+00  0.00000000000E+00  0.97147365741E+02  0.15830636859E+03  0.12499318248E+03 0.  0.
    9000005    1    3    3    0    0 -0.47877969761E+02  0.39639241199E+02  0.40438868482E+02  0.74161118623E+02  0.10000000000E+01 0.  0.
    9000005    1    3    3    0    0  0.47877969761E+02 -0.39639241199E+02  0.56708497259E+02  0.84145249971E+02  0.10000000000E+01 0.  0.
<mgrwt>
<rscale>  0 0.12499318E+03</rscale>
<asrwt>0</asrwt>
<pdfrwt beam="2">  1        4 0.76448754E-02 0.12499318E+03</pdfrwt>
<pdfrwt beam="1">  1       -4 0.31931717E-01 0.12499318E+03</pdfrwt>
<totfact> 0.18140626E+03</totfact>
</mgrwt>
</event>
<event>
 5    1  0.1431256E-002  0.1250000E+03  0.7818608E-02  0.1235069E+00
         -4   -1    0    0    0  501 -0.00000000000E+00  0.00000000000E+00  0.64343000515E+01  0.65584386216E+01  0.12700000000E+01 0. -1.
          4   -1    0    0  501    0  0.00000000000E+00 -0.00000000000E+00 -0.60117275303E+03  0.60117409449E+03  0.12700000000E+01 0. -1.
         25    2    1    2    0    0  0.00000000000E+00  0.00000000000E+00 -0.59473845298E+03  0.60773253311E+03  0.12500001740E+03 0.  0.
    9000005    1    3    3    0    0  0.13063383594E+02  0.56292345813E+02 -0.41301312265E+03  0.41703755187E+03  0.10000000000E+01 0.  0.
    9000005    1    3    3    0    0 -0.13063383594E+02 -0.56292345813E+02 -0.18172533033E+03  0.19069498125E+03  0.10000000000E+01 0.  0.
<mgrwt>
<rscale>  0 0.12500002E+03</rscale>
<asrwt>0</asrwt>
<pdfrwt beam="2">  1        4 0.15030868E+00 0.12500002E+03</pdfrwt>
<pdfrwt beam="1">  1       -4 0.16242621E-02 0.12500002E+03</pdfrwt>
<totfact> 0.72538530E+02</totfact>
</mgrwt>
</event>
<event>
 5    1  0.1431256E-002  0.1249983E+03  0.7818608E-02  0.1235072E+00
          4   -1    0    0  501    0  0.00000000000E+00  0.00000000000E+00  0.36901426455E+03  0.36901644996E+03  0.12700000000E+01 0. -1.
         -4   -1    0    0    0  501 -0.00000000000E+00 -0.00000000000E+00 -0.10545036778E+02  0.10621238188E+02  0.12700000000E+01 0. -1.
         25    2    1    2    0    0  0.00000000000E+00  0.00000000000E+00  0.35846922777E+03  0.37963768815E+03  0.12499834800E+03 0.  0.
    9000005    1    3    3    0    0  0.42172686294E+02  0.31596770729E+02  0.77218506168E+02  0.93491117677E+02  0.10000000000E+01 0.  0.
    9000005    1    3    3    0    0 -0.42172686294E+02 -0.31596770729E+02  0.28125072160E+03  0.28614657047E+03  0.10000000000E+01 0.  0.
<mgrwt>
<rscale>  0 0.12499835E+03</rscale>
<asrwt>0</asrwt>
<pdfrwt beam="1">  1        4 0.92263361E-01 0.12499835E+03</pdfrwt>
<pdfrwt beam="2">  1       -4 0.26460576E-02 0.12499835E+03</pdfrwt>
<totfact> 0.11001428E+03</totfact>
</mgrwt>
</event>
<event>
 5    1  0.1431256E-002  0.1250017E+03  0.7818608E-02  0.1235067E+00
         -4   -1    0    0    0  501 -0.00000000000E+00  0.00000000000E+00  0.14364035703E+02  0.14420070100E+02  0.12700000000E+01 0.  1.
          4   -1    0    0  501    0  0.00000000000E+00 -0.00000000000E+00 -0.27136712055E+03  0.27137009234E+03  0.12700000000E+01 0.  1.
         25    2    1    2    0    0  0.00000000000E+00  0.00000000000E+00 -0.25700308484E+03  0.28579016244E+03  0.12500172529E+03 0.  0.
    9000005    1    3    3    0    0  0.22927276837E+02  0.55465778197E+02 -0.16831485161E+03  0.17869807455E+03  0.10000000000E+01 0.  0.
    9000005    1    3    3    0    0 -0.22927276837E+02 -0.55465778197E+02 -0.88688233234E+02  0.10709208789E+03  0.10000000000E+01 0.  0.
<mgrwt>
<rscale>  0 0.12500173E+03</rscale>
<asrwt>0</asrwt>
<pdfrwt beam="2">  1        4 0.67849139E-01 0.12500173E+03</pdfrwt>
<pdfrwt beam="1">  1       -4 0.35983856E-02 0.12500173E+03</pdfrwt>
<totfact> 0.13378343E+03</totfact>
</mgrwt>
</event>
<event>
 5    1  0.1431256E-002  0.1249968E+03  0.7818608E-02  0.1235074E+00
         -4   -1    0    0    0  501 -0.00000000000E+00  0.00000000000E+00  0.20799069452E+03  0.20799457182E+03  0.12700000000E+01 0.  1.
          4   -1    0    0  501    0  0.00000000000E+00 -0.00000000000E+00 -0.18754395622E+02  0.18797347025E+02  0.12700000000E+01 0.  1.
         25    2    1    2    0    0  0.00000000000E+00  0.00000000000E+00  0.18923629890E+03  0.22679191885E+03  0.12499679049E+03 0.  0.
    9000005    1    3    3    0    0  0.42267010558E+02 -0.37139973183E+02  0.45289258061E+02  0.72235688446E+02  0.10000000000E+01 0.  0.
    9000005    1    3    3    0    0 -0.42267010558E+02  0.37139973183E+02  0.14394704084E+03  0.15455623040E+03  0.10000000000E+01 0.  0.
<mgrwt>
<rscale>  0 0.12499679E+03</rscale>
<asrwt>0</asrwt>
<pdfrwt beam="2">  1        4 0.46944526E-02 0.12499679E+03</pdfrwt>
<pdfrwt beam="1">  1       -4 0.52003526E-01 0.12499679E+03</pdfrwt>
<totfact> 0.15303757E+03</totfact>
</mgrwt>
</event>
<event>
 5    1  0.1431256E-002  0.1250030E+03  0.7818608E-02  0.1235065E+00
         -4   -1    0    0    0  501 -0.00000000000E+00  0.00000000000E+00  0.90711754979E+01  0.91596465496E+01  0.12700000000E+01 0. -1.
          4   -1    0    0  501    0  0.00000000000E+00 -0.00000000000E+00 -0.42846350786E+03  0.42846539004E+03  0.12700000000E+01 0. -1.
         25    2    1    2    0    0  0.00000000000E+00  0.00000000000E+00 -0.41939233236E+03  0.43762503659E+03  0.12500297681E+03 0.  0.
    9000005    1    3    3    0    0  0.59925026294E+02  0.28713285861E+01 -0.14843684734E+03  0.16010543698E+03  0.10000000000E+01 0.  0.
    9000005    1    3    3    0    0 -0.59925026294E+02 -0.28713285861E+01 -0.27095548502E+03  0.27751959961E+03  0.10000000000E+01 0.  0.
<mgrwt>
<rscale>  0 0.12500298E+03</rscale>
<asrwt>0</asrwt>
<pdfrwt beam="2">  1        4 0.10712710E+00 0.12500298E+03</pdfrwt>
<pdfrwt beam="1">  1       -4 0.22790895E-02 0.12500298E+03</pdfrwt>
<totfact> 0.98275364E+02</totfact>
</mgrwt>
</event>
<event>
 5    1  0.1431256E-002  0.1249928E+03  0.7818608E-02  0.1235081E+00
          4   -1    0    0  501    0  0.00000000000E+00  0.00000000000E+00  0.18591444844E+03  0.18591878614E+03  0.12700000000E+01 0. -1.
         -4   -1    0    0    0  501 -0.00000000000E+00 -0.00000000000E+00 -0.20984809804E+02  0.21023204858E+02  0.12700000000E+01 0. -1.
         25    2    1    2    0    0  0.00000000000E+00  0.00000000000E+00  0.16492963864E+03  0.20694199099E+03  0.12499280754E+03 0.  0.
    9000005    1    3    3    0    0 -0.93532848186E+01  0.30572600245E+02 -0.64262747575E+01  0.32626137220E+02  0.10000000000E+01 0.  0.
    9000005    1    3    3    0    0  0.93532848186E+01 -0.30572600245E+02  0.17135591339E+03  0.17431585377E+03  0.10000000000E+01 0.  0.
<mgrwt>
<rscale>  0 0.12499281E+03</rscale>
<asrwt>0</asrwt>
<pdfrwt beam="1">  1        4 0.46483953E-01 0.12499281E+03</pdfrwt>
<pdfrwt beam="2">  1       -4 0.52515441E-02 0.12499281E+03</pdfrwt>
<totfact> 0.16050464E+03</totfact>
</mgrwt>
</event>
<event>
 5    1  0.1431256E-002  0.1250024E+03  0.7818608E-02  0.1235065E+00
          4   -1    0    0  501    0  0.00000000000E+00  0.00000000000E+00  0.99501182025E+02  0.99509286623E+02  0.12700000000E+01 0. -1.
         -4   -1    0    0    0  501 -0.00000000000E+00 -0.00000000000E+00 -0.39239876847E+02  0.39260423266E+02  0.12700000000E+01 0. -1.
         25    2    1    2    0    0  0.00000000000E+00  0.00000000000E+00  0.60261305177E+02  0.13876970989E+03  0.12500242990E+03 0.  0.
    9000005    1    3    3    0    0  0.72464763183E+01 -0.66421152718E+01 -0.38381680348E+02  0.39633098550E+02  0.10000000000E+01 0.  0.
    9000005    1    3    3    0    0 -0.72464763183E+01  0.66421152718E+01  0.98642985526E+02  0.99136611339E+02  0.10000000000E+01 0.  0.
<mgrwt>
<rscale>  0 0.12500243E+03</rscale>
<asrwt>0</asrwt>
<pdfrwt beam="1">  1        4 0.24878877E-01 0.12500243E+03</pdfrwt>
<pdfrwt beam="2">  1       -4 0.98135507E-02 0.12500243E+03</pdfrwt>
<totfact> 0.19102377E+03</totfact>
</mgrwt>
</event>
<event>
 5    1  0.1431256E-002  0.1250012E+03  0.7818608E-02  0.1235067E+00
         -4   -1    0    0    0  501 -0.00000000000E+00  0.00000000000E+00  0.69624356833E+02  0.69635938741E+02  0.12700000000E+01 0. -1.
          4   -1    0    0  501    0  0.00000000000E+00 -0.00000000000E+00 -0.56082325888E+02  0.56096703798E+02  0.12700000000E+01 0. -1.
         25    2    1    2    0    0  0.00000000000E+00  0.00000000000E+00  0.13542030945E+02  0.12573264254E+03  0.12500124318E+03 0.  0.
    9000005    1    3    3    0    0  0.27603031688E+02  0.56045857590E+02  0.52581578290E+01  0.62703378977E+02  0.10000000000E+01 0.  0.
    9000005    1    3    3    0    0 -0.27603031688E+02 -0.56045857590E+02  0.82838731161E+01  0.63029263562E+02  0.10000000000E+01 0.  0.
<mgrwt>
<rscale>  0 0.12500124E+03</rscale>
<asrwt>0</asrwt>
<pdfrwt beam="2">  1        4 0.14023826E-01 0.12500124E+03</pdfrwt>
<pdfrwt beam="1">  1       -4 0.17409334E-01 0.12500124E+03</pdfrwt>
<totfact> 0.19794799E+03</totfact>
</mgrwt>
</event>
<event>
 5    1  0.1431256E-002  0.1249768E+03  0.7818608E-02  0.1235106E+00
         -4   -1    0    0    0  501 -0.00000000000E+00  0.00000000000E+00  0.16050653921E+02  0.16100819584E+02  0.12700000000E+01 0.  1.
          4   -1    0    0  501    0  0.00000000000E+00 -0.00000000000E+00 -0.24284846072E+03  0.24285178149E+03  0.12700000000E+01 0.  1.
         25    2    1    2    0    0  0.00000000000E+00  0.00000000000E+00 -0.22679780680E+03  0.25895260108E+03  0.12497681559E+03 0.  0.
    9000005    1    3    3    0    0  0.21042481352E+01 -0.35867992157E+02 -0.21931181945E+03  0.22223774403E+03  0.10000000000E+01 0.  0.
    9000005    1    3    3    0    0 -0.21042481352E+01  0.35867992157E+02 -0.74859873544E+01  0.36714857051E+02  0.10000000000E+01 0.  0.
<mgrwt>
<rscale>  0 0.12497682E+03</rscale>
<asrwt>0</asrwt>
<pdfrwt beam="2">  1        4 0.60718789E-01 0.12497682E+03</pdfrwt>
<pdfrwt beam="1">  1       -4 0.40193501E-02 0.12497682E+03</pdfrwt>
<totfact> 0.14212419E+03</totfact>
</mgrwt>
</event>
<event>
 5    1  0.1431256E-002  0.1249982E+03  0.7818608E-02  0.1235072E+00
          4   -1    0    0  501    0  0.00000000000E+00  0.00000000000E+00  0.26376566856E+03  0.26376872599E+03  0.12700000000E+01 0. -1.
         -4   -1    0    0    0  501 -0.00000000000E+00 -0.00000000000E+00 -0.14778733932E+02  0.14833201834E+02  0.12700000000E+01 0. -1.
         25    2    1    2    0    0  0.00000000000E+00  0.00000000000E+00  0.24898693463E+03  0.27860192783E+03  0.12499816228E+03 0.  0.
    9000005    1    3    3    0    0 -0.15125599676E+01  0.57725094540E+02  0.17773732288E+03  0.18688507249E+03  0.10000000000E+01 0.  0.
    9000005    1    3    3    0    0  0.15125599676E+01 -0.57725094540E+02  0.71249611752E+02  0.91716855332E+02  0.10000000000E+01 0.  0.
<mgrwt>
<rscale>  0 0.12499816E+03</rscale>
<asrwt>0</asrwt>
<pdfrwt beam="1">  1        4 0.65948610E-01 0.12499816E+03</pdfrwt>
<pdfrwt beam="2">  1       -4 0.37018740E-02 0.12499816E+03</pdfrwt>
<totfact> 0.13593276E+03</totfact>
</mgrwt>
</event>
<event>
 5    1  0.1431256E-002  0.1249999E+03  0.7818608E-02  0.1235069E+00
         -4   -1    0    0    0  501 -0.00000000000E+00  0.00000000000E+00  0.67170846657E+03  0.67170966716E+03  0.12700000000E+01 0. -1.
          4   -1    0    0  501    0  0.00000000000E+00 -0.00000000000E+00 -0.57448300273E+01  0.58835339757E+01  0.12700000000E+01 0. -1.
         25    2    1    2    0    0  0.00000000000E+00  0.00000000000E+00  0.66596363654E+03  0.67759320114E+03  0.12499992414E+03 0.  0.
    9000005    1    3    3    0    0  0.28612391494E+02  0.34147121932E+02  0.95422460903E+02  0.10531448584E+03  0.10000000000E+01 0.  0.
    9000005    1    3    3    0    0 -0.28612391494E+02 -0.34147121932E+02  0.57054117564E+03  0.57227871530E+03  0.10000000000E+01 0.  0.
<mgrwt>
<rscale>  0 0.12499992E+03</rscale>
<asrwt>0</asrwt>
<pdfrwt beam="2">  1        4 0.14536954E-02 0.12499992E+03</pdfrwt>
<pdfrwt beam="1">  1       -4 0.16794462E+00 0.12499992E+03</pdfrwt>
<totfact> 0.64440187E+02</totfact>
</mgrwt>
</event>
<event>
 5    1  0.1431256E-002  0.1249989E+03  0.7818608E-02  0.1235071E+00
          4   -1    0    0  501    0  0.00000000000E+00  0.00000000000E+00  0.50464436141E+02  0.50480414173E+02  0.12700000000E+01 0. -1.
         -4   -1    0    0    0  501 -0.00000000000E+00 -0.00000000000E+00 -0.77371239829E+02  0.77381662251E+02  0.12700000000E+01 0. -1.
         25    2    1    2    0    0  0.00000000000E+00  0.00000000000E+00 -0.26906803688E+02  0.12786207642E+03  0.12499893801E+03 0.  0.
    9000005    1    3    3    0    0 -0.61409259957E+01 -0.47636578605E+02 -0.54346963500E+02  0.72536522077E+02  0.10000000000E+01 0.  0.
    9000005    1    3    3    0    0  0.61409259957E+01  0.47636578605E+02  0.27440159812E+02  0.55325554347E+02  0.10000000000E+01 0.  0.
<mgrwt>
<rscale>  0 0.12499894E+03</rscale>
<asrwt>0</asrwt>
<pdfrwt beam="1">  1        4 0.12619409E-01 0.12499894E+03</pdfrwt>
<pdfrwt beam="2">  1       -4 0.19346110E-01 0.12499894E+03</pdfrwt>
<totfact> 0.19680530E+03</totfact>
</mgrwt>
</event>
<event>
 5    1  0.1431256E-002  0.1249990E+03  0.7818608E-02  0.1235071E+00
         -4   -1    0    0    0  501 -0.00000000000E+00  0.00000000000E+00  0.10497587827E+03  0.10498356023E+03  0.12700000000E+01 0.  1.
          4   -1    0    0  501    0  0.00000000000E+00 -0.00000000000E+00 -0.37190429710E+02  0.37212107734E+02  0.12700000000E+01 0.  1.
         25    2    1    2    0    0  0.00000000000E+00  0.00000000000E+00  0.67785448557E+02  0.14219566796E+03  0.12499896380E+03 0.  0.
    9000005    1    3    3    0    0  0.21129979110E+01 -0.30642261607E+01 -0.37069797330E+02  0.37269613846E+02  0.10000000000E+01 0.  0.
    9000005    1    3    3    0    0 -0.21129979110E+01  0.30642261607E+01  0.10485524589E+03  0.10492605412E+03  0.10000000000E+01 0.  0.
<mgrwt>
<rscale>  0 0.12499896E+03</rscale>
<asrwt>0</asrwt>
<pdfrwt beam="2">  1        4 0.93012775E-02 0.12499896E+03</pdfrwt>
<pdfrwt beam="1">  1       -4 0.26247639E-01 0.12499896E+03</pdfrwt>
<totfact> 0.18929030E+03</totfact>
</mgrwt>
</event>
<event>
 5    1  0.1431256E-002  0.1249960E+03  0.7818608E-02  0.1235076E+00
          4   -1    0    0  501    0  0.00000000000E+00  0.00000000000E+00  0.42119577789E+02  0.42138720117E+02  0.12700000000E+01 0. -1.
         -4   -1    0    0    0  501 -0.00000000000E+00 -0.00000000000E+00 -0.92691370252E+02  0.92700070222E+02  0.12700000000E+01 0. -1.
         25    2    1    2    0    0  0.00000000000E+00  0.00000000000E+00 -0.50571792463E+02  0.13483879034E+03  0.12499597268E+03 0.  0.
    9000005    1    3    3    0    0 -0.29446403682E+02 -0.37493876597E+02 -0.68866620967E+02  0.83764508925E+02  0.10000000000E+01 0.  0.
    9000005    1    3    3    0    0  0.29446403682E+02  0.37493876597E+02  0.18294828504E+02  0.51074281415E+02  0.10000000000E+01 0.  0.
<mgrwt>
<rscale>  0 0.12499597E+03</rscale>
<asrwt>0</asrwt>
<pdfrwt beam="1">  1        4 0.10533375E-01 0.12499597E+03</pdfrwt>
<pdfrwt beam="2">  1       -4 0.23176323E-01 0.12499597E+03</pdfrwt>
<totfact> 0.19309399E+03</totfact>
</mgrwt>
</event>
<event>
 5    1  0.1431256E-002  0.1249961E+03  0.7818608E-02  0.1235075E+00
          4   -1    0    0  501    0  0.00000000000E+00  0.00000000000E+00  0.26107484191E+02  0.26138355548E+02  0.12700000000E+01 0. -1.
         -4   -1    0    0    0  501 -0.00000000000E+00 -0.00000000000E+00 -0.14949045353E+03  0.14949584809E+03  0.12700000000E+01 0. -1.
         25    2    1    2    0    0  0.00000000000E+00  0.00000000000E+00 -0.12338296934E+03  0.17563420364E+03  0.12499606540E+03 0.  0.
    9000005    1    3    3    0    0 -0.58995330832E+02 -0.12296565201E+02 -0.84922698786E+02  0.10413702197E+03  0.10000000000E+01 0.  0.
    9000005    1    3    3    0    0  0.58995330832E+02  0.12296565201E+02 -0.38460270555E+02  0.71497181671E+02  0.10000000000E+01 0.  0.
<mgrwt>
<rscale>  0 0.12499607E+03</rscale>
<asrwt>0</asrwt>
<pdfrwt beam="1">  1        4 0.65314047E-02 0.12499607E+03</pdfrwt>
<pdfrwt beam="2">  1       -4 0.37377144E-01 0.12499607E+03</pdfrwt>
<totfact> 0.17347458E+03</totfact>
</mgrwt>
</event>
<event>
 5    1  0.1431256E-002  0.1249950E+03  0.7818608E-02  0.1235077E+00
         -4   -1    0    0    0  501 -0.00000000000E+00  0.00000000000E+00  0.19478163755E+02  0.19519522619E+02  0.12700000000E+01 0.  1.
          4   -1    0    0  501    0  0.00000000000E+00 -0.00000000000E+00 -0.20027309787E+03  0.20027712458E+03  0.12700000000E+01 0.  1.
         25    2    1    2    0    0  0.00000000000E+00  0.00000000000E+00 -0.18079493411E+03  0.21979664720E+03  0.12499503157E+03 0.  0.
    9000005    1    3    3    0    0  0.14574473636E+02 -0.59746122154E+02 -0.10989360424E+03  0.12593497785E+03  0.10000000000E+01 0.  0.
    9000005    1    3    3    0    0 -0.14574473636E+02  0.59746122154E+02 -0.70901329875E+02  0.93861669345E+02  0.10000000000E+01 0.  0.
<mgrwt>
<rscale>  0 0.12499503E+03</rscale>
<asrwt>0</asrwt>
<pdfrwt beam="2">  1        4 0.50073941E-01 0.12499503E+03</pdfrwt>
<pdfrwt beam="1">  1       -4 0.48752148E-02 0.12499503E+03</pdfrwt>
<totfact> 0.15560670E+03</totfact>
</mgrwt>
</event>
<event>
 5    1  0.1431256E-002  0.1249989E+03  0.7818608E-02  0.1235071E+00
          4   -1    0    0  501    0  0.00000000000E+00  0.00000000000E+00  0.10496169901E+03  0.10496938201E+03  0.12700000000E+01 0. -1.
         -4   -1    0    0    0  501 -0.00000000000E+00 -0.00000000000E+00 -0.37195412754E+02  0.37217087876E+02  0.12700000000E+01 0. -1.
         25    2    1    2    0    0  0.00000000000E+00  0.00000000000E+00  0.67766286256E+02  0.14218646988E+03  0.12499889066E+03 0.  0.
    9000005    1    3    3    0    0  0.41726749813E+02  0.20030308522E+02  0.81642588043E+02  0.93855458508E+02  0.10000000000E+01 0.  0.
    9000005    1    3    3    0    0 -0.41726749813E+02 -0.20030308522E+02 -0.13876301787E+02  0.48331011376E+02  0.10000000000E+01 0.  0.
<mgrwt>
<rscale>  0 0.12499889E+03</rscale>
<asrwt>0</asrwt>
<pdfrwt beam="1">  1        4 0.26244094E-01 0.12499889E+03</pdfrwt>
<pdfrwt beam="2">  1       -4 0.93025231E-02 0.12499889E+03</pdfrwt>
<totfact> 0.18929529E+03</totfact>
</mgrwt>
</event>
<event>
 5    1  0.1431256E-002  0.1250027E+03  0.7818608E-02  0.1235065E+00
         -4   -1    0    0    0  501 -0.00000000000E+00  0.00000000000E+00  0.14296847162E+03  0.14297411227E+03  0.12700000000E+01 0. -1.
          4   -1    0    0  501    0  0.00000000000E+00 -0.00000000000E+00 -0.27302715222E+02  0.27332236617E+02  0.12700000000E+01 0. -1.
         25    2    1    2    0    0  0.00000000000E+00  0.00000000000E+00  0.11566575640E+03  0.17030634888E+03  0.12500274103E+03 0.  0.
    9000005    1    3    3    0    0  0.32877140560E+02 -0.30350119970E+02 -0.16065526100E+01  0.44784117328E+02  0.10000000000E+01 0.  0.
    9000005    1    3    3    0    0 -0.32877140560E+02  0.30350119970E+02  0.11727230901E+03  0.12552223156E+03  0.10000000000E+01 0.  0.
<mgrwt>
<rscale>  0 0.12500274E+03</rscale>
<asrwt>0</asrwt>
<pdfrwt beam="2">  1        4 0.68300740E-02 0.12500274E+03</pdfrwt>
<pdfrwt beam="1">  1       -4 0.35746513E-01 0.12500274E+03</pdfrwt>
<totfact> 0.17582120E+03</totfact>
</mgrwt>
</event>
<event>
 5    1  0.1431256E-002  0.1250084E+03  0.7818608E-02  0.1235056E+00
         -4   -1    0    0    0  501 -0.00000000000E+00  0.00000000000E+00  0.13317004915E+03  0.13317610480E+03  0.12700000000E+01 0. -1.
          4   -1    0    0  501    0  0.00000000000E+00 -0.00000000000E+00 -0.29316258898E+02  0.29343754629E+02  0.12700000000E+01 0. -1.
         25    2    1    2    0    0  0.00000000000E+00  0.00000000000E+00  0.10385379025E+03  0.16251985943E+03  0.12500837956E+03 0.  0.
    9000005    1    3    3    0    0 -0.27939072783E+02  0.21126969205E+02 -0.15361495728E+02  0.38261157415E+02  0.10000000000E+01 0.  0.
    9000005    1    3    3    0    0  0.27939072783E+02 -0.21126969205E+02  0.11921528598E+03  0.12425870201E+03  0.10000000000E+01 0.  0.
<mgrwt>
<rscale>  0 0.12500838E+03</rscale>
<asrwt>0</asrwt>
<pdfrwt beam="2">  1        4 0.73332587E-02 0.12500838E+03</pdfrwt>
<pdfrwt beam="1">  1       -4 0.33296706E-01 0.12500838E+03</pdfrwt>
<totfact> 0.17936315E+03</totfact>
</mgrwt>
</event>
<event>
 5    1  0.1431256E-002  0.1249996E+03  0.7818608E-02  0.1235070E+00
          4   -1    0    0  501    0  0.00000000000E+00  0.00000000000E+00  0.48529595387E+02  0.48546210238E+02  0.12700000000E+01 0.  1.
         -4   -1    0    0    0  501 -0.00000000000E+00 -0.00000000000E+00 -0.80456157871E+02  0.80466180718E+02  0.12700000000E+01 0.  1.
         25    2    1    2    0    0  0.00000000000E+00  0.00000000000E+00 -0.31926562484E+02  0.12901239096E+03  0.12499956651E+03 0.  0.
    9000005    1    3    3    0    0  0.21154735211E+02  0.56416841281E+02  0.11472293713E+01  0.60271875176E+02  0.10000000000E+01 0.  0.
    9000005    1    3    3    0    0 -0.21154735211E+02 -0.56416841281E+02 -0.33073791855E+02  0.68740515780E+02  0.10000000000E+01 0.  0.
<mgrwt>
<rscale>  0 0.12499957E+03</rscale>
<asrwt>0</asrwt>
<pdfrwt beam="1">  1        4 0.12135729E-01 0.12499957E+03</pdfrwt>
<pdfrwt beam="2">  1       -4 0.20117369E-01 0.12499957E+03</pdfrwt>
<totfact> 0.19617824E+03</totfact>
</mgrwt>
</event>
<event>
 5    1  0.1431256E-002  0.1250049E+03  0.7818608E-02  0.1235062E+00
         -4   -1    0    0    0  501 -0.00000000000E+00  0.00000000000E+00  0.95536262984E+02  0.95544703908E+02  0.12700000000E+01 0.  1.
          4   -1    0    0  501    0  0.00000000000E+00 -0.00000000000E+00 -0.40870717703E+02  0.40890444673E+02  0.12700000000E+01 0.  1.
         25    2    1    2    0    0  0.00000000000E+00  0.00000000000E+00  0.54665545280E+02  0.13643514858E+03  0.12500491161E+03 0.  0.
    9000005    1    3    3    0    0 -0.31118424457E+02  0.38004152252E+02  0.69503624671E+02  0.85114192539E+02  0.10000000000E+01 0.  0.
    9000005    1    3    3    0    0  0.31118424457E+02 -0.38004152252E+02 -0.14838079391E+02  0.51320956042E+02  0.10000000000E+01 0.  0.
<mgrwt>
<rscale>  0 0.12500491E+03</rscale>
<asrwt>0</asrwt>
<pdfrwt beam="2">  1        4 0.10221200E-01 0.12500491E+03</pdfrwt>
<pdfrwt beam="1">  1       -4 0.23887587E-01 0.12500491E+03</pdfrwt>
<totfact> 0.19222025E+03</totfact>
</mgrwt>
</event>
<event>
 5    1  0.1431256E-002  0.1250003E+03  0.7818608E-02  0.1235069E+00
         -4   -1    0    0    0  501 -0.00000000000E+00  0.00000000000E+00  0.17864355685E+02  0.17909441757E+02  0.12700000000E+01 0.  1.
          4   -1    0    0  501    0  0.00000000000E+00 -0.00000000000E+00 -0.21834014392E+03  0.21834383744E+03  0.12700000000E+01 0.  1.
         25    2    1    2    0    0  0.00000000000E+00  0.00000000000E+00 -0.20047578824E+03  0.23625327920E+03  0.12500028105E+03 0.  0.
    9000005    1    3    3    0    0 -0.56570900141E+02 -0.20790595434E+02 -0.13145199282E+03  0.14461376842E+03  0.10000000000E+01 0.  0.
    9000005    1    3    3    0    0  0.56570900141E+02  0.20790595434E+02 -0.69023795425E+02  0.91639510781E+02  0.10000000000E+01 0.  0.
<mgrwt>
<rscale>  0 0.12500028E+03</rscale>
<asrwt>0</asrwt>
<pdfrwt beam="2">  1        4 0.54591125E-01 0.12500028E+03</pdfrwt>
<pdfrwt beam="1">  1       -4 0.44721871E-02 0.12500028E+03</pdfrwt>
<totfact> 0.14966317E+03</totfact>
</mgrwt>
</event>
<event>
 5    1  0.1431256E-002  0.1249998E+03  0.7818608E-02  0.1235070E+00
          4   -1    0    0  501    0  0.00000000000E+00  0.00000000000E+00  0.91896817450E+02  0.91905592634E+02  0.12700000000E+01 0.  1.
         -4   -1    0    0    0  501 -0.00000000000E+00 -0.00000000000E+00 -0.42486493668E+02  0.42505470756E+02  0.12700000000E+01 0.  1.
         25    2    1    2    0    0  0.00000000000E+00  0.00000000000E+00  0.49410323782E+02  0.13441106339E+03  0.12499981546E+03 0.  0.
    9000005    1    3    3    0    0  0.57769321011E+02  0.23624601768E+02  0.28075164208E+02  0.68444365028E+02  0.10000000000E+01 0.  0.
    9000005    1    3    3    0    0 -0.57769321011E+02 -0.23624601768E+02  0.21335159574E+02  0.65966698362E+02  0.10000000000E+01 0.  0.
<mgrwt>
<rscale>  0 0.12499982E+03</rscale>
<asrwt>0</asrwt>
<pdfrwt beam="1">  1        4 0.22977673E-01 0.12499982E+03</pdfrwt>
<pdfrwt beam="2">  1       -4 0.10625093E-01 0.12499982E+03</pdfrwt>
<totfact> 0.19330112E+03</totfact>
</mgrwt>
</event>
<event>
 5    1  0.1431256E-002  0.1250009E+03  0.7818608E-02  0.1235068E+00
          4   -1    0    0  501    0  0.00000000000E+00  0.00000000000E+00  0.38298027915E+03  0.38298238487E+03  0.12700000000E+01 0. -1.
         -4   -1    0    0    0  501 -0.00000000000E+00 -0.00000000000E+00 -0.10158080203E+02  0.10237162371E+02  0.12700000000E+01 0. -1.
         25    2    1    2    0    0  0.00000000000E+00  0.00000000000E+00  0.37282219895E+03  0.39321954724E+03  0.12500088120E+03 0.  0.
    9000005    1    3    3    0    0 -0.48486152541E+02 -0.74184934952E+01  0.64603167545E+02  0.81120344494E+02  0.10000000000E+01 0.  0.
    9000005    1    3    3    0    0  0.48486152541E+02  0.74184934952E+01  0.30821903141E+03  0.31209920275E+03  0.10000000000E+01 0.  0.
<mgrwt>
<rscale>  0 0.12500088E+03</rscale>
<asrwt>0</asrwt>
<pdfrwt beam="1">  1        4 0.95755211E-01 0.12500088E+03</pdfrwt>
<pdfrwt beam="2">  1       -4 0.25496687E-02 0.12500088E+03</pdfrwt>
<totfact> 0.10709996E+03</totfact>
</mgrwt>
</event>
<event>
 5    1  0.1431256E-002  0.1250010E+03  0.7818608E-02  0.1235068E+00
          4   -1    0    0  501    0  0.00000000000E+00  0.00000000000E+00  0.16768779286E+02  0.16816802870E+02  0.12700000000E+01 0. -1.
         -4   -1    0    0    0  501 -0.00000000000E+00 -0.00000000000E+00 -0.23256861059E+03  0.23257207814E+03  0.12700000000E+01 0. -1.
         25    2    1    2    0    0  0.00000000000E+00  0.00000000000E+00 -0.21579983130E+03  0.24938888101E+03  0.12500098712E+03 0.  0.
    9000005    1    3    3    0    0 -0.61867343570E+02 -0.74442216836E+01 -0.98472787734E+02  0.11653700940E+03  0.10000000000E+01 0.  0.
    9000005    1    3    3    0    0  0.61867343570E+02  0.74442216836E+01 -0.11732704357E+03  0.13285187160E+03  0.10000000000E+01 0.  0.
<mgrwt>
<rscale>  0 0.12500099E+03</rscale>
<asrwt>0</asrwt>
<pdfrwt beam="1">  1        4 0.41986319E-02 0.12500099E+03</pdfrwt>
<pdfrwt beam="2">  1       -4 0.58148579E-01 0.12500099E+03</pdfrwt>
<totfact> 0.14518010E+03</totfact>
</mgrwt>
</event>
<event>
 5    1  0.1431256E-002  0.1249993E+03  0.7818608E-02  0.1235070E+00
          4   -1    0    0  501    0  0.00000000000E+00  0.00000000000E+00  0.35368861080E+02  0.35391654865E+02  0.12700000000E+01 0.  1.
         -4   -1    0    0    0  501 -0.00000000000E+00 -0.00000000000E+00 -0.11037999945E+03  0.11038730533E+03  0.12700000000E+01 0.  1.
         25    2    1    2    0    0  0.00000000000E+00  0.00000000000E+00 -0.75011138368E+02  0.14577896020E+03  0.12499933742E+03 0.  0.
    9000005    1    3    3    0    0 -0.30981439886E+02  0.49282147519E+02 -0.10997598061E+02  0.59249699110E+02  0.10000000000E+01 0.  0.
    9000005    1    3    3    0    0  0.30981439886E+02 -0.49282147519E+02 -0.64013540306E+02  0.86529261086E+02  0.10000000000E+01 0.  0.
<mgrwt>
<rscale>  0 0.12499934E+03</rscale>
<asrwt>0</asrwt>
<pdfrwt beam="1">  1        4 0.88459780E-02 0.12499934E+03</pdfrwt>
<pdfrwt beam="2">  1       -4 0.27598762E-01 0.12499934E+03</pdfrwt>
<totfact> 0.18748585E+03</totfact>
</mgrwt>
</event>
<event>
 5    1  0.1431256E-002  0.1250173E+03  0.7818608E-02  0.1235042E+00
         -4   -1    0    0    0  501 -0.00000000000E+00  0.00000000000E+00  0.29739748021E+03  0.29740019189E+03  0.12700000000E+01 0. -1.
          4   -1    0    0  501    0  0.00000000000E+00 -0.00000000000E+00 -0.13104951535E+02  0.13166345535E+02  0.12700000000E+01 0. -1.
         25    2    1    2    0    0  0.00000000000E+00  0.00000000000E+00  0.28429252867E+03  0.31056653742E+03  0.12501732803E+03 0.  0.
    9000005    1    3    3    0    0 -0.49112872977E+02  0.10408437245E+02  0.49664941581E+02  0.70625889588E+02  0.10000000000E+01 0.  0.
    9000005    1    3    3    0    0  0.49112872977E+02 -0.10408437245E+02  0.23462758709E+03  0.23994064783E+03  0.10000000000E+01 0.  0.
<mgrwt>
<rscale>  0 0.12501733E+03</rscale>
<asrwt>0</asrwt>
<pdfrwt beam="2">  1        4 0.32842512E-02 0.12501733E+03</pdfrwt>
<pdfrwt beam="1">  1       -4 0.74357381E-01 0.12501733E+03</pdfrwt>
<totfact> 0.12674964E+03</totfact>
</mgrwt>
</event>
<event>
 5    1  0.1431256E-002  0.1250005E+03  0.7818608E-02  0.1235068E+00
         -4   -1    0    0    0  501 -0.00000000000E+00  0.00000000000E+00  0.42170323133E+02  0.42189442437E+02  0.12700000000E+01 0.  1.
          4   -1    0    0  501    0  0.00000000000E+00 -0.00000000000E+00 -0.92586603222E+02  0.92595313035E+02  0.12700000000E+01 0.  1.
         25    2    1    2    0    0  0.00000000000E+00  0.00000000000E+00 -0.50416280089E+02  0.13478475547E+03  0.12500051604E+03 0.  0.
    9000005    1    3    3    0    0  0.57039910151E+02  0.21078674096E+02 -0.40737541020E+02  0.73201155045E+02  0.10000000000E+01 0.  0.
    9000005    1    3    3    0    0 -0.57039910151E+02 -0.21078674096E+02 -0.96787390691E+01  0.61583600427E+02  0.10000000000E+01 0.  0.
<mgrwt>
<rscale>  0 0.12500052E+03</rscale>
<asrwt>0</asrwt>
<pdfrwt beam="2">  1        4 0.23150129E-01 0.12500052E+03</pdfrwt>
<pdfrwt beam="1">  1       -4 0.10546060E-01 0.12500052E+03</pdfrwt>
<totfact> 0.19310185E+03</totfact>
</mgrwt>
</event>
<event>
 4    1  0.1431256E-002  0.1249173E+03  0.7818608E-02  0.1235199E+00
          4   -1    0    0  501    0  0.00000000000E+00  0.00000000000E+00  0.20352774858E+02  0.20392359952E+02  0.12700000000E+01 0.  1.
         -4   -1    0    0    0  501 -0.00000000000E+00 -0.00000000000E+00 -0.19144542526E+03  0.19144963764E+03  0.12700000000E+01 0.  1.
    9000005    1    1    2    0    0  0.43372737654E+02  0.26370818627E+02 -0.14724082093E+03  0.15574811008E+03  0.10000000000E+01 0.  0.
    9000005    1    1    2    0    0 -0.43372737654E+02 -0.26370818627E+02 -0.23851829470E+02  0.56093887508E+02  0.10000000000E+01 0.  0.
<mgrwt>
<rscale>  0 0.12491732E+03</rscale>
<asrwt>0</asrwt>
<pdfrwt beam="1">  1        4 0.50936690E-02 0.12491732E+03</pdfrwt>
<pdfrwt beam="2">  1       -4 0.47866826E-01 0.12491732E+03</pdfrwt>
<totfact> 0.15888919E+03</totfact>
</mgrwt>
</event>
<event>
 5    1  0.1431256E-002  0.1249999E+03  0.7818608E-02  0.1235069E+00
          4   -1    0    0  501    0  0.00000000000E+00  0.00000000000E+00  0.91671402056E+02  0.91680198816E+02  0.12700000000E+01 0. -1.
         -4   -1    0    0    0  501 -0.00000000000E+00 -0.00000000000E+00 -0.42591043700E+02  0.42609974225E+02  0.12700000000E+01 0. -1.
         25    2    1    2    0    0  0.00000000000E+00  0.00000000000E+00  0.49080358356E+02  0.13429017304E+03  0.12499987600E+03 0.  0.
    9000005    1    3    3    0    0 -0.20763548049E+02 -0.55978883217E+02  0.47166167946E+01  0.59899973020E+02  0.10000000000E+01 0.  0.
    9000005    1    3    3    0    0  0.20763548049E+02  0.55978883217E+02  0.44363741561E+02  0.74390200021E+02  0.10000000000E+01 0.  0.
<mgrwt>
<rscale>  0 0.12499988E+03</rscale>
<asrwt>0</asrwt>
<pdfrwt beam="1">  1        4 0.22921316E-01 0.12499988E+03</pdfrwt>
<pdfrwt beam="2">  1       -4 0.10651227E-01 0.12499988E+03</pdfrwt>
<totfact> 0.19336437E+03</totfact>
</mgrwt>
</event>
<event>
 5    1  0.1431256E-002  0.1249987E+03  0.7818608E-02  0.1235071E+00
          4   -1    0    0  501    0  0.00000000000E+00  0.00000000000E+00  0.12278462648E+03  0.12279119431E+03  0.12700000000E+01 0.  1.
         -4   -1    0    0    0  501 -0.00000000000E+00 -0.00000000000E+00 -0.31793060634E+02  0.31818416121E+02  0.12700000000E+01 0.  1.
         25    2    1    2    0    0  0.00000000000E+00  0.00000000000E+00  0.90991565846E+02  0.15460961043E+03  0.12499866632E+03 0.  0.
    9000005    1    3    3    0    0 -0.27754381401E+02 -0.35242952787E+02 -0.83166867244E+01  0.45634840705E+02  0.10000000000E+01 0.  0.
    9000005    1    3    3    0    0  0.27754381401E+02  0.35242952787E+02  0.99308252570E+02  0.10897476972E+03  0.10000000000E+01 0.  0.
<mgrwt>
<rscale>  0 0.12499867E+03</rscale>
<asrwt>0</asrwt>
<pdfrwt beam="1">  1        4 0.30700147E-01 0.12499867E+03</pdfrwt>
<pdfrwt beam="2">  1       -4 0.79522557E-02 0.12499867E+03</pdfrwt>
<totfact> 0.18314992E+03</totfact>
</mgrwt>
</event>
<event>
 5    1  0.1431256E-002  0.1250000E+03  0.7818608E-02  0.1235069E+00
         -4   -1    0    0    0  501 -0.00000000000E+00  0.00000000000E+00  0.53339424872E+02  0.53354541941E+02  0.12700000000E+01 0. -1.
          4   -1    0    0  501    0  0.00000000000E+00 -0.00000000000E+00 -0.73202809722E+02  0.73213825547E+02  0.12700000000E+01 0. -1.
         25    2    1    2    0    0  0.00000000000E+00  0.00000000000E+00 -0.19863384850E+02  0.12656836749E+03  0.12499999036E+03 0.  0.
    9000005    1    3    3    0    0  0.38609116768E+02  0.48870162282E+02 -0.47397112252E+01  0.62469364664E+02  0.10000000000E+01 0.  0.
    9000005    1    3    3    0    0 -0.38609116768E+02 -0.48870162282E+02 -0.15123673625E+02  0.64099002823E+02  0.10000000000E+01 0.  0.
<mgrwt>
<rscale>  0 0.12499999E+03</rscale>
<asrwt>0</asrwt>
<pdfrwt beam="2">  1        4 0.18303969E-01 0.12499999E+03</pdfrwt>
<pdfrwt beam="1">  1       -4 0.13338123E-01 0.12499999E+03</pdfrwt>
<totfact> 0.19750242E+03</totfact>
</mgrwt>
</event>
<event>
 5    1  0.1431256E-002  0.1250009E+03  0.7818608E-02  0.1235068E+00
         -4   -1    0    0    0  501 -0.00000000000E+00  0.00000000000E+00  0.16363130671E+02  0.16412341251E+02  0.12700000000E+01 0. -1.
          4   -1    0    0  501    0  0.00000000000E+00 -0.00000000000E+00 -0.23831659554E+03  0.23831997946E+03  0.12700000000E+01 0. -1.
         25    2    1    2    0    0  0.00000000000E+00  0.00000000000E+00 -0.22195346487E+03  0.25473232072E+03  0.12500085859E+03 0.  0.
    9000005    1    3    3    0    0  0.48582951063E+02  0.10318211031E+02 -0.33685313544E+02  0.60020571152E+02  0.10000000000E+01 0.  0.
    9000005    1    3    3    0    0 -0.48582951063E+02 -0.10318211031E+02 -0.18826815133E+03  0.19471174956E+03  0.10000000000E+01 0.  0.
<mgrwt>
<rscale>  0 0.12500086E+03</rscale>
<asrwt>0</asrwt>
<pdfrwt beam="2">  1        4 0.59585712E-01 0.12500086E+03</pdfrwt>
<pdfrwt beam="1">  1       -4 0.40973577E-02 0.12500086E+03</pdfrwt>
<totfact> 0.14341596E+03</totfact>
</mgrwt>
</event>
<event>
 5    1  0.1431256E-002  0.1249989E+03  0.7818608E-02  0.1235071E+00
          4   -1    0    0  501    0  0.00000000000E+00  0.00000000000E+00  0.18966860943E+03  0.18967286127E+03  0.12700000000E+01 0. -1.
         -4   -1    0    0    0  501 -0.00000000000E+00 -0.00000000000E+00 -0.20570697119E+02  0.20609863657E+02  0.12700000000E+01 0. -1.
         25    2    1    2    0    0  0.00000000000E+00  0.00000000000E+00  0.16909791231E+03  0.21028272492E+03  0.12499888182E+03 0.  0.
    9000005    1    3    3    0    0 -0.29490087155E+02  0.52234724484E+02  0.55070759644E+02  0.81436602644E+02  0.10000000000E+01 0.  0.
    9000005    1    3    3    0    0  0.29490087155E+02 -0.52234724484E+02  0.11402715266E+03  0.12884612228E+03  0.10000000000E+01 0.  0.
<mgrwt>
<rscale>  0 0.12499888E+03</rscale>
<asrwt>0</asrwt>
<pdfrwt beam="1">  1        4 0.47422580E-01 0.12499888E+03</pdfrwt>
<pdfrwt beam="2">  1       -4 0.51481016E-02 0.12499888E+03</pdfrwt>
<totfact> 0.15918832E+03</totfact>
</mgrwt>
</event>
<event>
 5    1  0.1431256E-002  0.1249870E+03  0.7818608E-02  0.1235090E+00
          4   -1    0    0  501    0  0.00000000000E+00  0.00000000000E+00  0.11616290509E+03  0.11616984729E+03  0.12700000000E+01 0.  1.
         -4   -1    0    0    0  501 -0.00000000000E+00 -0.00000000000E+00 -0.33600404573E+02  0.33624397206E+02  0.12700000000E+01 0.  1.
         25    2    1    2    0    0  0.00000000000E+00  0.00000000000E+00  0.82562500518E+02  0.14979424449E+03  0.12498699609E+03 0.  0.
    9000005    1    3    3    0    0 -0.58537769852E+00 -0.11166812715E+02 -0.32397380970E+02  0.34287470992E+02  0.10000000000E+01 0.  0.
    9000005    1    3    3    0    0  0.58537769852E+00  0.11166812715E+02  0.11495988149E+03  0.11550677350E+03  0.10000000000E+01 0.  0.
<mgrwt>
<rscale>  0 0.12498700E+03</rscale>
<asrwt>0</asrwt>
<pdfrwt beam="1">  1        4 0.29044593E-01 0.12498700E+03</pdfrwt>
<pdfrwt beam="2">  1       -4 0.84039681E-02 0.12498700E+03</pdfrwt>
<totfact> 0.18554517E+03</totfact>
</mgrwt>
</event>
<event>
 5    1  0.1431256E-002  0.1249993E+03  0.7818608E-02  0.1235070E+00
         -4   -1    0    0    0  501 -0.00000000000E+00  0.00000000000E+00  0.28912684246E+03  0.28912963170E+03  0.12700000000E+01 0.  1.
          4   -1    0    0  501    0  0.00000000000E+00 -0.00000000000E+00 -0.13477641083E+02  0.13537344982E+02  0.12700000000E+01 0.  1.
         25    2    1    2    0    0  0.00000000000E+00  0.00000000000E+00  0.27564920137E+03  0.30266697669E+03  0.12499926623E+03 0.  0.
    9000005    1    3    3    0    0  0.35283859251E+02  0.13119971970E+02  0.17045104296E+02  0.41335456555E+02  0.10000000000E+01 0.  0.
    9000005    1    3    3    0    0 -0.35283859251E+02 -0.13119971970E+02  0.25860409708E+03  0.26133152013E+03  0.10000000000E+01 0.  0.
<mgrwt>
<rscale>  0 0.12499927E+03</rscale>
<asrwt>0</asrwt>
<pdfrwt beam="2">  1        4 0.33772219E-02 0.12499927E+03</pdfrwt>
<pdfrwt beam="1">  1       -4 0.72289522E-01 0.12499927E+03</pdfrwt>
<totfact> 0.12896854E+03</totfact>
</mgrwt>
</event>
<event>
 5    1  0.1431256E-002  0.1249998E+03  0.7818608E-02  0.1235070E+00
          4   -1    0    0  501    0  0.00000000000E+00  0.00000000000E+00  0.55005038553E+02  0.55019697984E+02  0.12700000000E+01 0.  1.
         -4   -1    0    0    0  501 -0.00000000000E+00 -0.00000000000E+00 -0.70986171762E+02  0.70997531516E+02  0.12700000000E+01 0.  1.
         25    2    1    2    0    0  0.00000000000E+00  0.00000000000E+00 -0.15981133209E+02  0.12601722950E+03  0.12499978205E+03 0.  0.
    9000005    1    3    3    0    0  0.15325714614E+02  0.57909675351E+02 -0.25935121471E+02  0.65284290249E+02  0.10000000000E+01 0.  0.
    9000005    1    3    3    0    0 -0.15325714614E+02 -0.57909675351E+02  0.99539882618E+01  0.60732939250E+02  0.10000000000E+01 0.  0.
<mgrwt>
<rscale>  0 0.12499978E+03</rscale>
<asrwt>0</asrwt>
<pdfrwt beam="1">  1        4 0.13754512E-01 0.12499978E+03</pdfrwt>
<pdfrwt beam="2">  1       -4 0.17749795E-01 0.12499978E+03</pdfrwt>
<totfact> 0.19780090E+03</totfact>
</mgrwt>
</event>
<event>
 5    1  0.1431256E-002  0.1250002E+03  0.7818608E-02  0.1235069E+00
          4   -1    0    0  501    0  0.00000000000E+00  0.00000000000E+00  0.19099535318E+03  0.19099957549E+03  0.12700000000E+01 0. -1.
         -4   -1    0    0    0  501 -0.00000000000E+00 -0.00000000000E+00 -0.20427971049E+02  0.20467410710E+02  0.12700000000E+01 0. -1.
         25    2    1    2    0    0  0.00000000000E+00  0.00000000000E+00  0.17056738213E+03  0.21146698620E+03  0.12500021762E+03 0.  0.
    9000005    1    3    3    0    0 -0.39947506355E+02  0.42125960980E+02  0.12440860440E+03  0.13729129871E+03  0.10000000000E+01 0.  0.
    9000005    1    3    3    0    0  0.39947506355E+02 -0.42125960980E+02  0.46158777729E+02  0.74175687486E+02  0.10000000000E+01 0.  0.
<mgrwt>
<rscale>  0 0.12500022E+03</rscale>
<asrwt>0</asrwt>
<pdfrwt beam="1">  1        4 0.47754296E-01 0.12500022E+03</pdfrwt>
<pdfrwt beam="2">  1       -4 0.51124505E-02 0.12500022E+03</pdfrwt>
<totfact> 0.15872875E+03</totfact>
</mgrwt>
</event>
<event>
 5    1  0.1431256E-002  0.1250009E+03  0.7818608E-02  0.1235068E+00
         -4   -1    0    0    0  501 -0.00000000000E+00  0.00000000000E+00  0.27630853587E+02  0.27660024764E+02  0.12700000000E+01 0. -1.
          4   -1    0    0  501    0  0.00000000000E+00 -0.00000000000E+00 -0.14126816201E+03  0.14127387054E+03  0.12700000000E+01 0. -1.
         25    2    1    2    0    0  0.00000000000E+00  0.00000000000E+00 -0.11363730842E+03  0.16893389530E+03  0.12500089247E+03 0.  0.
    9000005    1    3    3    0    0  0.36422218636E+02  0.50780753990E+02 -0.57098224347E+02  0.84655006997E+02  0.10000000000E+01 0.  0.
    9000005    1    3    3    0    0 -0.36422218636E+02 -0.50780753990E+02 -0.56539084075E+02  0.84278888306E+02  0.10000000000E+01 0.  0.
<mgrwt>
<rscale>  0 0.12500089E+03</rscale>
<asrwt>0</asrwt>
<pdfrwt beam="2">  1        4 0.35321398E-01 0.12500089E+03</pdfrwt>
<pdfrwt beam="1">  1       -4 0.69120737E-02 0.12500089E+03</pdfrwt>
<totfact> 0.17644875E+03</totfact>
</mgrwt>
</event>
<event>
 5    1  0.1431256E-002  0.1250034E+03  0.7818608E-02  0.1235064E+00
          4   -1    0    0  501    0  0.00000000000E+00  0.00000000000E+00  0.13681945723E+02  0.13740761943E+02  0.12700000000E+01 0.  1.
         -4   -1    0    0    0  501 -0.00000000000E+00 -0.00000000000E+00 -0.28484667238E+03  0.28484950353E+03  0.12700000000E+01 0.  1.
         25    2    1    2    0    0  0.00000000000E+00  0.00000000000E+00 -0.27116472665E+03  0.29859026548E+03  0.12500335058E+03 0.  0.
    9000005    1    3    3    0    0  0.27505199510E+02  0.54869568078E+02 -0.10749618125E+03  0.12378866864E+03  0.10000000000E+01 0.  0.
    9000005    1    3    3    0    0 -0.27505199510E+02 -0.54869568078E+02 -0.16366854540E+03  0.17480159683E+03  0.10000000000E+01 0.  0.
<mgrwt>
<rscale>  0 0.12500335E+03</rscale>
<asrwt>0</asrwt>
<pdfrwt beam="1">  1        4 0.34281933E-02 0.12500335E+03</pdfrwt>
<pdfrwt beam="2">  1       -4 0.71219355E-01 0.12500335E+03</pdfrwt>
<totfact> 0.13009662E+03</totfact>
</mgrwt>
</event>
<event>
 5    1  0.1431256E-002  0.1249981E+03  0.7818608E-02  0.1235072E+00
          4   -1    0    0  501    0  0.00000000000E+00  0.00000000000E+00  0.48494765684E+02  0.48511392463E+02  0.12700000000E+01 0. -1.
         -4   -1    0    0    0  501 -0.00000000000E+00 -0.00000000000E+00 -0.80512010677E+02  0.80522026572E+02  0.12700000000E+01 0. -1.
         25    2    1    2    0    0  0.00000000000E+00  0.00000000000E+00 -0.32017244993E+02  0.12903341904E+03  0.12499807699E+03 0.  0.
    9000005    1    3    3    0    0  0.13218997191E+02  0.11744918027E+02  0.45863345025E+02  0.49164330598E+02  0.10000000000E+01 0.  0.
    9000005    1    3    3    0    0 -0.13218997191E+02 -0.11744918027E+02 -0.77880590019E+02  0.79869088438E+02  0.10000000000E+01 0.  0.
<mgrwt>
<rscale>  0 0.12499808E+03</rscale>
<asrwt>0</asrwt>
<pdfrwt beam="1">  1        4 0.12127022E-01 0.12499808E+03</pdfrwt>
<pdfrwt beam="2">  1       -4 0.20131333E-01 0.12499808E+03</pdfrwt>
<totfact> 0.19617369E+03</totfact>
</mgrwt>
</event>
<event>
 5    1  0.1431256E-002  0.1250013E+03  0.7818608E-02  0.1235067E+00
          4   -1    0    0  501    0  0.00000000000E+00  0.00000000000E+00  0.45909056939E+03  0.45909232601E+03  0.12700000000E+01 0. -1.
         -4   -1    0    0    0  501 -0.00000000000E+00 -0.00000000000E+00 -0.84596743286E+01  0.85544719151E+01  0.12700000000E+01 0. -1.
         25    2    1    2    0    0  0.00000000000E+00  0.00000000000E+00  0.45063089506E+03  0.46764679792E+03  0.12500129610E+03 0.  0.
    9000005    1    3    3    0    0 -0.25402188328E+02  0.56694053676E+02  0.25064603340E+03  0.25823230037E+03  0.10000000000E+01 0.  0.
    9000005    1    3    3    0    0  0.25402188328E+02 -0.56694053676E+02  0.19998486166E+03  0.20941449755E+03  0.10000000000E+01 0.  0.
<mgrwt>
<rscale>  0 0.12500130E+03</rscale>
<asrwt>0</asrwt>
<pdfrwt beam="1">  1        4 0.11478470E+00 0.12500130E+03</pdfrwt>
<pdfrwt beam="2">  1       -4 0.21269881E-02 0.12500130E+03</pdfrwt>
<totfact> 0.92930128E+02</totfact>
</mgrwt>
</event>
<event>
 5    1  0.1431256E-002  0.1250015E+03  0.7818608E-02  0.1235067E+00
          4   -1    0    0  501    0  0.00000000000E+00  0.00000000000E+00  0.21393344508E+02  0.21431007658E+02  0.12700000000E+01 0.  1.
         -4   -1    0    0    0  501 -0.00000000000E+00 -0.00000000000E+00 -0.18239571671E+03  0.18240013809E+03  0.12700000000E+01 0.  1.
         25    2    1    2    0    0  0.00000000000E+00  0.00000000000E+00 -0.16100237220E+03  0.20383114575E+03  0.12500148848E+03 0.  0.
    9000005    1    3    3    0    0 -0.21002414762E+02 -0.93013053341E+00 -0.17646449440E+03  0.17771517761E+03  0.10000000000E+01 0.  0.
    9000005    1    3    3    0    0  0.21002414762E+02  0.93013053341E+00  0.15462122201E+02  0.26115968134E+02  0.10000000000E+01 0.  0.
<mgrwt>
<rscale>  0 0.12500149E+03</rscale>
<asrwt>0</asrwt>
<pdfrwt beam="1">  1        4 0.53535972E-02 0.12500149E+03</pdfrwt>
<pdfrwt beam="2">  1       -4 0.45604185E-01 0.12500149E+03</pdfrwt>
<totfact> 0.16169222E+03</totfact>
</mgrwt>
</event>
<event>
 4    1  0.1431256E-002  0.1250677E+03  0.7818608E-02  0.1234963E+00
         -4   -1    0    0    0  501 -0.00000000000E+00  0.00000000000E+00  0.18773216061E+03  0.18773645631E+03  0.12700000000E+01 0.  1.
          4   -1    0    0  501    0  0.00000000000E+00 -0.00000000000E+00 -0.20806224603E+02  0.20844948603E+02  0.12700000000E+01 0.  1.
    9000005    1    1    2    0    0 -0.56883476840E+02 -0.25788189416E+02  0.88388598176E+02  0.10823264267E+03  0.10000000000E+01 0.  0.
    9000005    1    1    2    0    0  0.56883476840E+02  0.25788189416E+02  0.78537337828E+02  0.10034876224E+03  0.10000000000E+01 0.  0.
<mgrwt>
<rscale>  0 0.12506772E+03</rscale>
<asrwt>0</asrwt>
<pdfrwt beam="2">  1        4 0.52069337E-02 0.12506772E+03</pdfrwt>
<pdfrwt beam="1">  1       -4 0.46938417E-01 0.12506772E+03</pdfrwt>
<totfact> 0.15959120E+03</totfact>
</mgrwt>
</event>
<event>
 5    1  0.1431256E-002  0.1250078E+03  0.7818608E-02  0.1235057E+00
          4   -1    0    0  501    0  0.00000000000E+00  0.00000000000E+00  0.58783365333E+02  0.58797082750E+02  0.12700000000E+01 0.  1.
         -4   -1    0    0    0  501 -0.00000000000E+00 -0.00000000000E+00 -0.66432424029E+02  0.66444562324E+02  0.12700000000E+01 0.  1.
         25    2    1    2    0    0  0.00000000000E+00  0.00000000000E+00 -0.76490586958E+01  0.12524164507E+03  0.12500784600E+03 0.  0.
    9000005    1    3    3    0    0 -0.34449113746E+02  0.16254586167E+02 -0.53463004583E+02  0.65652462775E+02  0.10000000000E+01 0.  0.
    9000005    1    3    3    0    0  0.34449113746E+02 -0.16254586167E+02  0.45813945887E+02  0.59589182299E+02  0.10000000000E+01 0.  0.
<mgrwt>
<rscale>  0 0.12500785E+03</rscale>
<asrwt>0</asrwt>
<pdfrwt beam="1">  1        4 0.14699073E-01 0.12500785E+03</pdfrwt>
<pdfrwt beam="2">  1       -4 0.16611338E-01 0.12500785E+03</pdfrwt>
<totfact> 0.19818318E+03</totfact>
</mgrwt>
</event>
<event>
 5    1  0.1431256E-002  0.1250005E+03  0.7818608E-02  0.1235069E+00
          4   -1    0    0  501    0  0.00000000000E+00  0.00000000000E+00  0.71019715102E+02  0.71031069492E+02  0.12700000000E+01 0.  1.
         -4   -1    0    0    0  501 -0.00000000000E+00 -0.00000000000E+00 -0.54979645811E+02  0.54994312011E+02  0.12700000000E+01 0.  1.
         25    2    1    2    0    0  0.00000000000E+00  0.00000000000E+00  0.16040069291E+02  0.12602538150E+03  0.12500045184E+03 0.  0.
    9000005    1    3    3    0    0  0.33580775536E+02  0.49289165359E+02 -0.10792759166E+02  0.60618264227E+02  0.10000000000E+01 0.  0.
    9000005    1    3    3    0    0 -0.33580775536E+02 -0.49289165359E+02  0.26832828457E+02  0.65407117277E+02  0.10000000000E+01 0.  0.
<mgrwt>
<rscale>  0 0.12500045E+03</rscale>
<asrwt>0</asrwt>
<pdfrwt beam="1">  1        4 0.17758181E-01 0.12500045E+03</pdfrwt>
<pdfrwt beam="2">  1       -4 0.13748164E-01 0.12500045E+03</pdfrwt>
<totfact> 0.19779339E+03</totfact>
</mgrwt>
</event>
<event>
 5    1  0.1431256E-002  0.1249986E+03  0.7818608E-02  0.1235071E+00
         -4   -1    0    0    0  501 -0.00000000000E+00  0.00000000000E+00  0.33913303277E+01  0.36213286777E+01  0.12700000000E+01 0. -1.
          4   -1    0    0  501    0  0.00000000000E+00 -0.00000000000E+00 -0.11138017199E+04  0.11138024439E+04  0.12700000000E+01 0. -1.
         25    2    1    2    0    0  0.00000000000E+00  0.00000000000E+00 -0.11104103896E+04  0.11174237726E+04  0.12499861746E+03 0.  0.
    9000005    1    3    3    0    0  0.10224362556E+02  0.34061258029E+02 -0.95846202656E+02  0.10223600859E+03  0.10000000000E+01 0.  0.
    9000005    1    3    3    0    0 -0.10224362556E+02 -0.34061258029E+02 -0.10145641869E+04  0.10151877640E+04  0.10000000000E+01 0.  0.
<mgrwt>
<rscale>  0 0.12499862E+03</rscale>
<asrwt>0</asrwt>
<pdfrwt beam="2">  1        4 0.27847806E+00 0.12499862E+03</pdfrwt>
<pdfrwt beam="1">  1       -4 0.87667670E-03 0.12499862E+03</pdfrwt>
<totfact> 0.29760332E+02</totfact>
</mgrwt>
</event>
<event>
 5    1  0.1431256E-002  0.1249957E+03  0.7818608E-02  0.1235076E+00
          4   -1    0    0  501    0  0.00000000000E+00  0.00000000000E+00  0.49958903111E+02  0.49975042772E+02  0.12700000000E+01 0. -1.
         -4   -1    0    0    0  501 -0.00000000000E+00 -0.00000000000E+00 -0.78149912202E+02  0.78160230790E+02  0.12700000000E+01 0. -1.
         25    2    1    2    0    0  0.00000000000E+00  0.00000000000E+00 -0.28191009091E+02  0.12813527356E+03  0.12499566127E+03 0.  0.
    9000005    1    3    3    0    0 -0.25841635319E+02 -0.24664165180E+02  0.38464830510E+02  0.52503850775E+02  0.10000000000E+01 0.  0.
    9000005    1    3    3    0    0  0.25841635319E+02  0.24664165180E+02 -0.66655839601E+02  0.75631422788E+02  0.10000000000E+01 0.  0.
<mgrwt>
<rscale>  0 0.12499566E+03</rscale>
<asrwt>0</asrwt>
<pdfrwt beam="1">  1        4 0.12493033E-01 0.12499566E+03</pdfrwt>
<pdfrwt beam="2">  1       -4 0.19540785E-01 0.12499566E+03</pdfrwt>
<totfact> 0.19667169E+03</totfact>
</mgrwt>
</event>
<event>
 5    1  0.1431256E-002  0.1250003E+03  0.7818608E-02  0.1235069E+00
         -4   -1    0    0    0  501 -0.00000000000E+00  0.00000000000E+00  0.13138289998E+02  0.13199528933E+02  0.12700000000E+01 0.  1.
          4   -1    0    0  501    0  0.00000000000E+00 -0.00000000000E+00 -0.29656542431E+03  0.29656814359E+03  0.12700000000E+01 0.  1.
         25    2    1    2    0    0  0.00000000000E+00  0.00000000000E+00 -0.28342713431E+03  0.30976767253E+03  0.12500028192E+03 0.  0.
    9000005    1    3    3    0    0 -0.52615404532E+02 -0.33625438172E+02 -0.13553473739E+03  0.14923041220E+03  0.10000000000E+01 0.  0.
    9000005    1    3    3    0    0  0.52615404532E+02  0.33625438172E+02 -0.14789239692E+03  0.16053726033E+03  0.10000000000E+01 0.  0.
<mgrwt>
<rscale>  0 0.12500028E+03</rscale>
<asrwt>0</asrwt>
<pdfrwt beam="2">  1        4 0.74149329E-01 0.12500028E+03</pdfrwt>
<pdfrwt beam="1">  1       -4 0.32925682E-02 0.12500028E+03</pdfrwt>
<totfact> 0.12701568E+03</totfact>
</mgrwt>
</event>
<event>
 5    1  0.1431256E-002  0.1250035E+03  0.7818608E-02  0.1235064E+00
          4   -1    0    0  501    0  0.00000000000E+00  0.00000000000E+00  0.11491534621E+03  0.11492236377E+03  0.12700000000E+01 0.  1.
         -4   -1    0    0    0  501 -0.00000000000E+00 -0.00000000000E+00 -0.33974410682E+02  0.33998139378E+02  0.12700000000E+01 0.  1.
         25    2    1    2    0    0  0.00000000000E+00  0.00000000000E+00  0.80940935526E+02  0.14892050315E+03  0.12500352480E+03 0.  0.
    9000005    1    3    3    0    0  0.45279625126E+02 -0.35944417275E+02  0.68743545608E+02  0.89827170987E+02  0.10000000000E+01 0.  0.
    9000005    1    3    3    0    0 -0.45279625126E+02  0.35944417275E+02  0.12197389918E+02  0.59093332159E+02  0.10000000000E+01 0.  0.
<mgrwt>
<rscale>  0 0.12500352E+03</rscale>
<asrwt>0</asrwt>
<pdfrwt beam="1">  1        4 0.28732680E-01 0.12500352E+03</pdfrwt>
<pdfrwt beam="2">  1       -4 0.84974460E-02 0.12500352E+03</pdfrwt>
<totfact> 0.18590462E+03</totfact>
</mgrwt>
</event>
<event>
 5    1  0.1431256E-002  0.1250033E+03  0.7818608E-02  0.1235064E+00
         -4   -1    0    0    0  501 -0.00000000000E+00  0.00000000000E+00  0.57092160862E+01  0.58487646831E+01  0.12700000000E+01 0.  1.
          4   -1    0    0  501    0  0.00000000000E+00 -0.00000000000E+00 -0.67583493621E+03  0.67583612947E+03  0.12700000000E+01 0.  1.
         25    2    1    2    0    0  0.00000000000E+00  0.00000000000E+00 -0.67012572012E+03  0.68168489416E+03  0.12500325656E+03 0.  0.
    9000005    1    3    3    0    0 -0.20372630260E+02 -0.79366076344E+01 -0.65432394814E+03  0.65468989828E+03  0.10000000000E+01 0.  0.
    9000005    1    3    3    0    0  0.20372630260E+02  0.79366076344E+01 -0.15801771986E+02  0.26994995876E+02  0.10000000000E+01 0.  0.
<mgrwt>
<rscale>  0 0.12500326E+03</rscale>
<asrwt>0</asrwt>
<pdfrwt beam="2">  1        4 0.16897606E+00 0.12500326E+03</pdfrwt>
<pdfrwt beam="1">  1       -4 0.14448991E-02 0.12500326E+03</pdfrwt>
<totfact> 0.63994340E+02</totfact>
</mgrwt>
</event>
<event>
 5    1  0.1431256E-002  0.1250019E+03  0.7818608E-02  0.1235066E+00
         -4   -1    0    0    0  501 -0.00000000000E+00  0.00000000000E+00  0.15178716808E+02  0.15231754460E+02  0.12700000000E+01 0. -1.
          4   -1    0    0  501    0  0.00000000000E+00 -0.00000000000E+00 -0.25685473395E+03  0.25685787364E+03  0.12700000000E+01 0. -1.
         25    2    1    2    0    0  0.00000000000E+00  0.00000000000E+00 -0.24167601714E+03  0.27208962810E+03  0.12500187382E+03 0.  0.
    9000005    1    3    3    0    0  0.25367326360E+02  0.56970064674E+02 -0.12961995210E+03  0.14384513026E+03  0.10000000000E+01 0.  0.
    9000005    1    3    3    0    0 -0.25367326360E+02 -0.56970064674E+02 -0.11205606504E+03  0.12824449785E+03  0.10000000000E+01 0.  0.
<mgrwt>
<rscale>  0 0.12500187E+03</rscale>
<asrwt>0</asrwt>
<pdfrwt beam="2">  1        4 0.64220692E-01 0.12500187E+03</pdfrwt>
<pdfrwt beam="1">  1       -4 0.38017022E-02 0.12500187E+03</pdfrwt>
<totfact> 0.13790409E+03</totfact>
</mgrwt>
</event>
<event>
 5    1  0.1431256E-002  0.1250146E+03  0.7818608E-02  0.1235046E+00
         -4   -1    0    0    0  501 -0.00000000000E+00  0.00000000000E+00  0.26022626488E+02  0.26053598396E+02  0.12700000000E+01 0. -1.
          4   -1    0    0  501    0  0.00000000000E+00 -0.00000000000E+00 -0.15002188023E+03  0.15002725569E+03  0.12700000000E+01 0. -1.
         25    2    1    2    0    0  0.00000000000E+00  0.00000000000E+00 -0.12399925374E+03  0.17608085408E+03  0.12501460813E+03 0.  0.
    9000005    1    3    3    0    0  0.35124834559E+02 -0.47980094644E+02 -0.34895232503E+02  0.68953032829E+02  0.10000000000E+01 0.  0.
    9000005    1    3    3    0    0 -0.35124834559E+02  0.47980094644E+02 -0.89104021242E+02  0.10712782125E+03  0.10000000000E+01 0.  0.
<mgrwt>
<rscale>  0 0.12501461E+03</rscale>
<asrwt>0</asrwt>
<pdfrwt beam="2">  1        4 0.37510011E-01 0.12501461E+03</pdfrwt>
<pdfrwt beam="1">  1       -4 0.65102005E-02 0.12501461E+03</pdfrwt>
<totfact> 0.17320342E+03</totfact>
</mgrwt>
</event>
<event>
 5    1  0.1431256E-002  0.1249973E+03  0.7818608E-02  0.1235073E+00
         -4   -1    0    0    0  501 -0.00000000000E+00  0.00000000000E+00  0.32630987890E+02  0.32655692776E+02  0.12700000000E+01 0.  1.
          4   -1    0    0  501    0  0.00000000000E+00 -0.00000000000E+00 -0.11963133268E+03  0.11963807362E+03  0.12700000000E+01 0.  1.
         25    2    1    2    0    0  0.00000000000E+00  0.00000000000E+00 -0.87000344788E+02  0.15229376639E+03  0.12499732513E+03 0.  0.
    9000005    1    3    3    0    0  0.12951509185E+02 -0.60893879635E+02 -0.36907793886E+02  0.72380877425E+02  0.10000000000E+01 0.  0.
    9000005    1    3    3    0    0 -0.12951509185E+02  0.60893879635E+02 -0.50092550902E+02  0.79912888967E+02  0.10000000000E+01 0.  0.
<mgrwt>
<rscale>  0 0.12499733E+03</rscale>
<asrwt>0</asrwt>
<pdfrwt beam="2">  1        4 0.29911763E-01 0.12499733E+03</pdfrwt>
<pdfrwt beam="1">  1       -4 0.81616780E-02 0.12499733E+03</pdfrwt>
<totfact> 0.18427715E+03</totfact>
</mgrwt>
</event>
<event>
 5    1  0.1431256E-002  0.1249998E+03  0.7818608E-02  0.1235070E+00
         -4   -1    0    0    0  501 -0.00000000000E+00  0.00000000000E+00  0.10476137542E+03  0.10476907311E+03  0.12700000000E+01 0. -1.
          4   -1    0    0  501    0  0.00000000000E+00 -0.00000000000E+00 -0.37267096950E+02  0.37288730403E+02  0.12700000000E+01 0. -1.
         25    2    1    2    0    0  0.00000000000E+00  0.00000000000E+00  0.67494278471E+02  0.14205780351E+03  0.12499976765E+03 0.  0.
    9000005    1    3    3    0    0 -0.46530249739E+02 -0.41510172882E+02  0.29050791880E+02  0.68797580643E+02  0.10000000000E+01 0.  0.
    9000005    1    3    3    0    0  0.46530249739E+02  0.41510172882E+02  0.38443486591E+02  0.73260222869E+02  0.10000000000E+01 0.  0.
<mgrwt>
<rscale>  0 0.12499977E+03</rscale>
<asrwt>0</asrwt>
<pdfrwt beam="2">  1        4 0.93204408E-02 0.12499977E+03</pdfrwt>
<pdfrwt beam="1">  1       -4 0.26194010E-01 0.12499977E+03</pdfrwt>
<totfact> 0.18935661E+03</totfact>
</mgrwt>
</event>
<event>
 5    1  0.1431256E-002  0.1249971E+03  0.7818608E-02  0.1235074E+00
         -4   -1    0    0    0  501 -0.00000000000E+00  0.00000000000E+00  0.20426145796E+03  0.20426540605E+03  0.12700000000E+01 0.  1.
          4   -1    0    0  501    0  0.00000000000E+00 -0.00000000000E+00 -0.19097677962E+02  0.19139859026E+02  0.12700000000E+01 0.  1.
         25    2    1    2    0    0  0.00000000000E+00  0.00000000000E+00  0.18516378000E+03  0.22340526508E+03  0.12499714813E+03 0.  0.
    9000005    1    3    3    0    0 -0.46193586635E+02 -0.30228044831E+02  0.40245021314E+02  0.68324548158E+02  0.10000000000E+01 0.  0.
    9000005    1    3    3    0    0  0.46193586635E+02  0.30228044831E+02  0.14491875869E+03  0.15508071692E+03  0.10000000000E+01 0.  0.
<mgrwt>
<rscale>  0 0.12499715E+03</rscale>
<asrwt>0</asrwt>
<pdfrwt beam="2">  1        4 0.47801857E-02 0.12499715E+03</pdfrwt>
<pdfrwt beam="1">  1       -4 0.51071130E-01 0.12499715E+03</pdfrwt>
<totfact> 0.15426869E+03</totfact>
</mgrwt>
</event>
<event>
 5    1  0.1431256E-002  0.1249991E+03  0.7818608E-02  0.1235071E+00
         -4   -1    0    0    0  501 -0.00000000000E+00  0.00000000000E+00  0.10746318383E+03  0.10747068800E+03  0.12700000000E+01 0.  1.
          4   -1    0    0  501    0  0.00000000000E+00 -0.00000000000E+00 -0.36329251793E+02  0.36351443381E+02  0.12700000000E+01 0.  1.
         25    2    1    2    0    0  0.00000000000E+00  0.00000000000E+00  0.71133932037E+02  0.14382213138E+03  0.12499907675E+03 0.  0.
    9000005    1    3    3    0    0 -0.38473039603E+02 -0.33152876511E+02  0.77463201771E+02  0.92632799946E+02  0.10000000000E+01 0.  0.
    9000005    1    3    3    0    0  0.38473039603E+02  0.33152876511E+02 -0.63292697341E+01  0.51189331434E+02  0.10000000000E+01 0.  0.
<mgrwt>
<rscale>  0 0.12499908E+03</rscale>
<asrwt>0</asrwt>
<pdfrwt beam="2">  1        4 0.90860250E-02 0.12499908E+03</pdfrwt>
<pdfrwt beam="1">  1       -4 0.26869508E-01 0.12499908E+03</pdfrwt>
<totfact> 0.18846891E+03</totfact>
</mgrwt>
</event>
<event>
 5    1  0.1431256E-002  0.1249980E+03  0.7818608E-02  0.1235072E+00
         -4   -1    0    0    0  501 -0.00000000000E+00  0.00000000000E+00  0.43036292824E+03  0.43036480212E+03  0.12700000000E+01 0. -1.
          4   -1    0    0  501    0  0.00000000000E+00 -0.00000000000E+00 -0.90300237403E+01  0.91188940531E+01  0.12700000000E+01 0. -1.
         25    2    1    2    0    0  0.00000000000E+00  0.00000000000E+00  0.42133290450E+03  0.43948369617E+03  0.12499801113E+03 0.  0.
    9000005    1    3    3    0    0  0.45723733382E+02  0.24241971474E+02  0.87519048349E+02  0.10168046420E+03  0.10000000000E+01 0.  0.
    9000005    1    3    3    0    0 -0.45723733382E+02 -0.24241971474E+02  0.33381385615E+03  0.33780323197E+03  0.10000000000E+01 0.  0.
<mgrwt>
<rscale>  0 0.12499801E+03</rscale>
<asrwt>0</asrwt>
<pdfrwt beam="2">  1        4 0.22688491E-02 0.12499801E+03</pdfrwt>
<pdfrwt beam="1">  1       -4 0.10760207E+00 0.12499801E+03</pdfrwt>
<totfact> 0.97940622E+02</totfact>
</mgrwt>
</event>
<event>
 5    1  0.1431256E-002  0.1249969E+03  0.7818608E-02  0.1235074E+00
          4   -1    0    0  501    0  0.00000000000E+00  0.00000000000E+00  0.16785644097E+03  0.16786124530E+03  0.12700000000E+01 0. -1.
         -4   -1    0    0    0  501 -0.00000000000E+00 -0.00000000000E+00 -0.23247749217E+02  0.23282412754E+02  0.12700000000E+01 0. -1.
         25    2    1    2    0    0  0.00000000000E+00  0.00000000000E+00  0.14460869175E+03  0.19114365805E+03  0.12499689710E+03 0.  0.
    9000005    1    3    3    0    0  0.10507394820E+02 -0.33734554484E+02  0.15112249694E+03  0.15520127124E+03  0.10000000000E+01 0.  0.
    9000005    1    3    3    0    0 -0.10507394820E+02  0.33734554484E+02 -0.65138051901E+01  0.35942386818E+02  0.10000000000E+01 0.  0.
<mgrwt>
<rscale>  0 0.12499690E+03</rscale>
<asrwt>0</asrwt>
<pdfrwt beam="1">  1        4 0.41969043E-01 0.12499690E+03</pdfrwt>
<pdfrwt beam="2">  1       -4 0.58168709E-02 0.12499690E+03</pdfrwt>
<totfact> 0.16684113E+03</totfact>
</mgrwt>
</event>
<event>
 5    1  0.1431256E-002  0.1250029E+03  0.7818608E-02  0.1235065E+00
          4   -1    0    0  501    0  0.00000000000E+00  0.00000000000E+00  0.31298222963E+02  0.31323979004E+02  0.12700000000E+01 0. -1.
         -4   -1    0    0    0  501 -0.00000000000E+00 -0.00000000000E+00 -0.12473285962E+03  0.12473932487E+03  0.12700000000E+01 0. -1.
         25    2    1    2    0    0  0.00000000000E+00  0.00000000000E+00 -0.93434636656E+02  0.15606330387E+03  0.12500289392E+03 0.  0.
    9000005    1    3    3    0    0  0.42554806393E+02 -0.24866717114E+02  0.12503142985E+01  0.49313572706E+02  0.10000000000E+01 0.  0.
    9000005    1    3    3    0    0 -0.42554806393E+02  0.24866717114E+02 -0.94684950955E+02  0.10674973117E+03  0.10000000000E+01 0.  0.
<mgrwt>
<rscale>  0 0.12500289E+03</rscale>
<asrwt>0</asrwt>
<pdfrwt beam="1">  1        4 0.78285837E-02 0.12500289E+03</pdfrwt>
<pdfrwt beam="2">  1       -4 0.31187241E-01 0.12500289E+03</pdfrwt>
<totfact> 0.18243382E+03</totfact>
</mgrwt>
</event>
<event>
 5    1  0.1431256E-002  0.1249958E+03  0.7818608E-02  0.1235076E+00
          4   -1    0    0  501    0  0.00000000000E+00  0.00000000000E+00  0.86343295661E+02  0.86352635198E+02  0.12700000000E+01 0. -1.
         -4   -1    0    0    0  501 -0.00000000000E+00 -0.00000000000E+00 -0.45217158764E+02  0.45234990292E+02  0.12700000000E+01 0. -1.
         25    2    1    2    0    0  0.00000000000E+00  0.00000000000E+00  0.41126136897E+02  0.13158762549E+03  0.12499577611E+03 0.  0.
    9000005    1    3    3    0    0  0.35997651337E+02  0.27424071893E+02 -0.24803348516E+02  0.51615082278E+02  0.10000000000E+01 0.  0.
    9000005    1    3    3    0    0 -0.35997651337E+02 -0.27424071893E+02  0.65929485412E+02  0.79972543212E+02  0.10000000000E+01 0.  0.
<mgrwt>
<rscale>  0 0.12499578E+03</rscale>
<asrwt>0</asrwt>
<pdfrwt beam="1">  1        4 0.21589220E-01 0.12499578E+03</pdfrwt>
<pdfrwt beam="2">  1       -4 0.11307686E-01 0.12499578E+03</pdfrwt>
<totfact> 0.19481328E+03</totfact>
</mgrwt>
</event>
<event>
 5    1  0.1431256E-002  0.1249995E+03  0.7818608E-02  0.1235070E+00
         -4   -1    0    0    0  501 -0.00000000000E+00  0.00000000000E+00  0.27925984854E+02  0.27954848060E+02  0.12700000000E+01 0.  1.
          4   -1    0    0  501    0  0.00000000000E+00 -0.00000000000E+00 -0.13977357689E+03  0.13977934646E+03  0.12700000000E+01 0.  1.
         25    2    1    2    0    0  0.00000000000E+00  0.00000000000E+00 -0.11184759204E+03  0.16773419452E+03  0.12499950467E+03 0.  0.
    9000005    1    3    3    0    0  0.75449000084E+01 -0.30939189960E+02 -0.12807471577E+03  0.13197837630E+03  0.10000000000E+01 0.  0.
    9000005    1    3    3    0    0 -0.75449000084E+01  0.30939189960E+02  0.16227123737E+02  0.35755818216E+02  0.10000000000E+01 0.  0.
<mgrwt>
<rscale>  0 0.12499950E+03</rscale>
<asrwt>0</asrwt>
<pdfrwt beam="2">  1        4 0.34947721E-01 0.12499950E+03</pdfrwt>
<pdfrwt beam="1">  1       -4 0.69858257E-02 0.12499950E+03</pdfrwt>
<totfact> 0.17699935E+03</totfact>
</mgrwt>
</event>
<event>
 5    1  0.1431256E-002  0.1250031E+03  0.7818608E-02  0.1235064E+00
         -4   -1    0    0    0  501 -0.00000000000E+00  0.00000000000E+00  0.67587242829E+02  0.67599173761E+02  0.12700000000E+01 0.  1.
          4   -1    0    0  501    0  0.00000000000E+00 -0.00000000000E+00 -0.57774556203E+02  0.57788513084E+02  0.12700000000E+01 0.  1.
         25    2    1    2    0    0  0.00000000000E+00  0.00000000000E+00  0.98126866262E+01  0.12538768685E+03  0.12500313273E+03 0.  0.
    9000005    1    3    3    0    0 -0.47836487911E+02 -0.31792492088E+02 -0.19793659265E+02  0.60760851507E+02  0.10000000000E+01 0.  0.
    9000005    1    3    3    0    0  0.47836487911E+02  0.31792492088E+02  0.29606345891E+02  0.64626835338E+02  0.10000000000E+01 0.  0.
<mgrwt>
<rscale>  0 0.12500313E+03</rscale>
<asrwt>0</asrwt>
<pdfrwt beam="2">  1        4 0.14446875E-01 0.12500313E+03</pdfrwt>
<pdfrwt beam="1">  1       -4 0.16900047E-01 0.12500313E+03</pdfrwt>
<totfact> 0.19812593E+03</totfact>
</mgrwt>
</event>
<event>
 5    1  0.1431256E-002  0.1250071E+03  0.7818608E-02  0.1235058E+00
          4   -1    0    0  501    0  0.00000000000E+00  0.00000000000E+00  0.90112304215E+01  0.91002842653E+01  0.12700000000E+01 0. -1.
         -4   -1    0    0    0  501 -0.00000000000E+00 -0.00000000000E+00 -0.43131458844E+03  0.43131645819E+03  0.12700000000E+01 0. -1.
         25    2    1    2    0    0  0.00000000000E+00  0.00000000000E+00 -0.42230335802E+03  0.44041674245E+03  0.12500712314E+03 0.  0.
    9000005    1    3    3    0    0 -0.59113475206E+02  0.28007717840E+01 -0.14038597876E+03  0.15235311059E+03  0.10000000000E+01 0.  0.
    9000005    1    3    3    0    0  0.59113475206E+02 -0.28007717840E+01 -0.28191737926E+03  0.28806363186E+03  0.10000000000E+01 0.  0.
<mgrwt>
<rscale>  0 0.12500712E+03</rscale>
<asrwt>0</asrwt>
<pdfrwt beam="1">  1        4 0.22641745E-02 0.12500712E+03</pdfrwt>
<pdfrwt beam="2">  1       -4 0.10783994E+00 0.12500712E+03</pdfrwt>
<totfact> 0.97747582E+02</totfact>
</mgrwt>
</event>
<event>
 5    1  0.1431256E-002  0.1250020E+03  0.7818608E-02  0.1235066E+00
         -4   -1    0    0    0  501 -0.00000000000E+00  0.00000000000E+00  0.36436867910E+02  0.36458993994E+02  0.12700000000E+01 0.  1.
          4   -1    0    0  501    0  0.00000000000E+00 -0.00000000000E+00 -0.10715090655E+03  0.10715843258E+03  0.12700000000E+01 0.  1.
         25    2    1    2    0    0  0.00000000000E+00  0.00000000000E+00 -0.70714038637E+02  0.14361742658E+03  0.12500195981E+03 0.  0.
    9000005    1    3    3    0    0  0.23671695722E+02 -0.11263462687E+02  0.29819922776E+02  0.39717031163E+02  0.10000000000E+01 0.  0.
    9000005    1    3    3    0    0 -0.23671695722E+02  0.11263462687E+02 -0.10053396141E+03  0.10390039542E+03  0.10000000000E+01 0.  0.
<mgrwt>
<rscale>  0 0.12500196E+03</rscale>
<asrwt>0</asrwt>
<pdfrwt beam="2">  1        4 0.26791432E-01 0.12500196E+03</pdfrwt>
<pdfrwt beam="1">  1       -4 0.91129237E-02 0.12500196E+03</pdfrwt>
<totfact> 0.18855923E+03</totfact>
</mgrwt>
</event>
<event>
 5    1  0.1431256E-002  0.1250072E+03  0.7818608E-02  0.1235058E+00
          4   -1    0    0  501    0  0.00000000000E+00  0.00000000000E+00  0.52413808066E+03  0.52413961928E+03  0.12700000000E+01 0.  1.
         -4   -1    0    0    0  501 -0.00000000000E+00 -0.00000000000E+00 -0.73979105730E+01  0.75061295516E+01  0.12700000000E+01 0.  1.
         25    2    1    2    0    0  0.00000000000E+00  0.00000000000E+00  0.51674017009E+03  0.53164574883E+03  0.12500719527E+03 0.  0.
    9000005    1    3    3    0    0  0.50384830607E+01 -0.42274389345E+02  0.45294712792E+03  0.45494462410E+03  0.10000000000E+01 0.  0.
    9000005    1    3    3    0    0 -0.50384830607E+01  0.42274389345E+02  0.63793042164E+02  0.76701124728E+02  0.10000000000E+01 0.  0.
<mgrwt>
<rscale>  0 0.12500720E+03</rscale>
<asrwt>0</asrwt>
<pdfrwt beam="1">  1        4 0.13104825E+00 0.12500720E+03</pdfrwt>
<pdfrwt beam="2">  1       -4 0.18631972E-02 0.12500720E+03</pdfrwt>
<totfact> 0.82770578E+02</totfact>
</mgrwt>
</event>
<event>
 5    1  0.1431256E-002  0.1250004E+03  0.7818608E-02  0.1235069E+00
          4   -1    0    0  501    0  0.00000000000E+00  0.00000000000E+00  0.17373954313E+03  0.17374418479E+03  0.12700000000E+01 0.  1.
         -4   -1    0    0    0  501 -0.00000000000E+00 -0.00000000000E+00 -0.22460646030E+02  0.22496522400E+02  0.12700000000E+01 0.  1.
         25    2    1    2    0    0  0.00000000000E+00  0.00000000000E+00  0.15127889710E+03  0.19624070719E+03  0.12500044180E+03 0.  0.
    9000005    1    3    3    0    0 -0.99439412616E+00 -0.48420935652E+02  0.13764039750E+03  0.14591591707E+03  0.10000000000E+01 0.  0.
    9000005    1    3    3    0    0  0.99439412616E+00  0.48420935652E+02  0.13638499597E+02  0.50324790118E+02  0.10000000000E+01 0.  0.
<mgrwt>
<rscale>  0 0.12500044E+03</rscale>
<asrwt>0</asrwt>
<pdfrwt beam="1">  1        4 0.43439950E-01 0.12500044E+03</pdfrwt>
<pdfrwt beam="2">  1       -4 0.56202264E-02 0.12500044E+03</pdfrwt>
<totfact> 0.16473515E+03</totfact>
</mgrwt>
</event>
<event>
 5    1  0.1431256E-002  0.1249968E+03  0.7818608E-02  0.1235074E+00
          4   -1    0    0  501    0  0.00000000000E+00  0.00000000000E+00  0.55844956165E+02  0.55859395172E+02  0.12700000000E+01 0. -1.
         -4   -1    0    0    0  501 -0.00000000000E+00 -0.00000000000E+00 -0.69915339974E+02  0.69926873688E+02  0.12700000000E+01 0. -1.
         25    2    1    2    0    0  0.00000000000E+00  0.00000000000E+00 -0.14070383810E+02  0.12578626886E+03  0.12499683889E+03 0.  0.
    9000005    1    3    3    0    0 -0.27306552153E+02  0.39480801310E+00  0.49526985222E+02  0.56566119975E+02  0.10000000000E+01 0.  0.
    9000005    1    3    3    0    0  0.27306552153E+02 -0.39480801310E+00 -0.63597369032E+02  0.69220148885E+02  0.10000000000E+01 0.  0.
<mgrwt>
<rscale>  0 0.12499684E+03</rscale>
<asrwt>0</asrwt>
<pdfrwt beam="1">  1        4 0.13964486E-01 0.12499684E+03</pdfrwt>
<pdfrwt beam="2">  1       -4 0.17482082E-01 0.12499684E+03</pdfrwt>
<totfact> 0.19793938E+03</totfact>
</mgrwt>
</event>
<event>
 5    1  0.1431256E-002  0.1250012E+03  0.7818608E-02  0.1235067E+00
         -4   -1    0    0    0  501 -0.00000000000E+00  0.00000000000E+00  0.63044025309E+03  0.63044153227E+03  0.12700000000E+01 0.  1.
          4   -1    0    0  501    0  0.00000000000E+00 -0.00000000000E+00 -0.61298118525E+01  0.62599914813E+01  0.12700000000E+01 0.  1.
         25    2    1    2    0    0  0.00000000000E+00  0.00000000000E+00  0.62431044123E+03  0.63670152375E+03  0.12500121325E+03 0.  0.
    9000005    1    3    3    0    0 -0.31359240643E+02 -0.29054877802E+02  0.54433107110E+03  0.54600815274E+03  0.10000000000E+01 0.  0.
    9000005    1    3    3    0    0  0.31359240643E+02  0.29054877802E+02  0.79979370135E+02  0.90693371010E+02  0.10000000000E+01 0.  0.
<mgrwt>
<rscale>  0 0.12500121E+03</rscale>
<asrwt>0</asrwt>
<pdfrwt beam="2">  1        4 0.15488853E-02 0.12500121E+03</pdfrwt>
<pdfrwt beam="1">  1       -4 0.15762650E+00 0.12500121E+03</pdfrwt>
<totfact> 0.69051509E+02</totfact>
</mgrwt>
</event>
<event>
 5    1  0.1431256E-002  0.1249991E+03  0.7818608E-02  0.1235071E+00
         -4   -1    0    0    0  501 -0.00000000000E+00  0.00000000000E+00  0.14953149810E+02  0.15006984682E+02  0.12700000000E+01 0. -1.
          4   -1    0    0  501    0  0.00000000000E+00 -0.00000000000E+00 -0.26070389096E+03  0.26070698430E+03  0.12700000000E+01 0. -1.
         25    2    1    2    0    0  0.00000000000E+00  0.00000000000E+00 -0.24575074115E+03  0.27571396898E+03  0.12499906365E+03 0.  0.
    9000005    1    3    3    0    0  0.41748287537E+02 -0.41086934835E+02 -0.74846390684E+02  0.95047556122E+02  0.10000000000E+01 0.  0.
    9000005    1    3    3    0    0 -0.41748287537E+02  0.41086934835E+02 -0.17090435047E+03  0.18066641286E+03  0.10000000000E+01 0.  0.
<mgrwt>
<rscale>  0 0.12499906E+03</rscale>
<asrwt>0</asrwt>
<pdfrwt beam="2">  1        4 0.65183074E-01 0.12499906E+03</pdfrwt>
<pdfrwt beam="1">  1       -4 0.37454043E-02 0.12499906E+03</pdfrwt>
<totfact> 0.13680391E+03</totfact>
</mgrwt>
</event>
<event>
 5    1  0.1431256E-002  0.1250122E+03  0.7818608E-02  0.1235050E+00
          4   -1    0    0  501    0  0.00000000000E+00  0.00000000000E+00  0.47369035895E+02  0.47386057671E+02  0.12700000000E+01 0. -1.
         -4   -1    0    0    0  501 -0.00000000000E+00 -0.00000000000E+00 -0.82443601076E+02  0.82453382334E+02  0.12700000000E+01 0. -1.
         25    2    1    2    0    0  0.00000000000E+00  0.00000000000E+00 -0.35074565181E+02  0.12983944001E+03  0.12501221964E+03 0.  0.
    9000005    1    3    3    0    0 -0.47003227265E+02 -0.52258197514E+01 -0.59973291116E+02  0.76383297995E+02  0.10000000000E+01 0.  0.
    9000005    1    3    3    0    0  0.47003227265E+02  0.52258197514E+01  0.24898725935E+02  0.53456142010E+02  0.10000000000E+01 0.  0.
<mgrwt>
<rscale>  0 0.12501222E+03</rscale>
<asrwt>0</asrwt>
<pdfrwt beam="1">  1        4 0.11845609E-01 0.12501222E+03</pdfrwt>
<pdfrwt beam="2">  1       -4 0.20614250E-01 0.12501222E+03</pdfrwt>
<totfact> 0.19567436E+03</totfact>
</mgrwt>
</event>
<event>
 5    1  0.1431256E-002  0.1249992E+03  0.7818608E-02  0.1235071E+00
         -4   -1    0    0    0  501 -0.00000000000E+00  0.00000000000E+00  0.58336873315E+02  0.58350695696E+02  0.12700000000E+01 0.  1.
          4   -1    0    0  501    0  0.00000000000E+00 -0.00000000000E+00 -0.66931544678E+02  0.66943592472E+02  0.12700000000E+01 0.  1.
         25    2    1    2    0    0  0.00000000000E+00  0.00000000000E+00 -0.85946713631E+01  0.12529428817E+03  0.12499916108E+03 0.  0.
    9000005    1    3    3    0    0  0.38241041291E+01  0.26522387386E+02 -0.60885359119E+02  0.66528849081E+02  0.10000000000E+01 0.  0.
    9000005    1    3    3    0    0 -0.38241041291E+01 -0.26522387386E+02  0.52290687756E+02  0.58765439086E+02  0.10000000000E+01 0.  0.
<mgrwt>
<rscale>  0 0.12499916E+03</rscale>
<asrwt>0</asrwt>
<pdfrwt beam="2">  1        4 0.16736120E-01 0.12499916E+03</pdfrwt>
<pdfrwt beam="1">  1       -4 0.14587452E-01 0.12499916E+03</pdfrwt>
<totfact> 0.19819493E+03</totfact>
</mgrwt>
</event>
<event>
 5    1  0.1431256E-002  0.1250044E+03  0.7818608E-02  0.1235062E+00
         -4   -1    0    0    0  501 -0.00000000000E+00  0.00000000000E+00  0.58399639341E+02  0.58413446869E+02  0.12700000000E+01 0. -1.
          4   -1    0    0  501    0  0.00000000000E+00 -0.00000000000E+00 -0.66865248865E+02  0.66877308601E+02  0.12700000000E+01 0. -1.
         25    2    1    2    0    0  0.00000000000E+00  0.00000000000E+00 -0.84656095239E+01  0.12529075547E+03  0.12500442737E+03 0.  0.
    9000005    1    3    3    0    0 -0.11385473878E+01 -0.10880091847E+02 -0.65903034351E+02  0.66812293969E+02  0.10000000000E+01 0.  0.
    9000005    1    3    3    0    0  0.11385473878E+01  0.10880091847E+02  0.57437424827E+02  0.58478461501E+02  0.10000000000E+01 0.  0.
<mgrwt>
<rscale>  0 0.12500443E+03</rscale>
<asrwt>0</asrwt>
<pdfrwt beam="2">  1        4 0.16719546E-01 0.12500443E+03</pdfrwt>
<pdfrwt beam="1">  1       -4 0.14603143E-01 0.12500443E+03</pdfrwt>
<totfact> 0.19817242E+03</totfact>
</mgrwt>
</event>
<event>
 5    1  0.1431256E-002  0.1249916E+03  0.7818608E-02  0.1235082E+00
         -4   -1    0    0    0  501 -0.00000000000E+00  0.00000000000E+00  0.11055821798E+02  0.11128526211E+02  0.12700000000E+01 0. -1.
          4   -1    0    0  501    0  0.00000000000E+00 -0.00000000000E+00 -0.35204165987E+03  0.35204395064E+03  0.12700000000E+01 0. -1.
         25    2    1    2    0    0  0.00000000000E+00  0.00000000000E+00 -0.34098583807E+03  0.36317247685E+03  0.12499162443E+03 0.  0.
    9000005    1    3    3    0    0 -0.59814599494E+02  0.27238458171E+01 -0.22243049163E+03  0.23035088291E+03  0.10000000000E+01 0.  0.
    9000005    1    3    3    0    0  0.59814599494E+02 -0.27238458171E+01 -0.11855534644E+03  0.13282159395E+03  0.10000000000E+01 0.  0.
<mgrwt>
<rscale>  0 0.12499162E+03</rscale>
<asrwt>0</asrwt>
<pdfrwt beam="2">  1        4 0.88019752E-01 0.12499162E+03</pdfrwt>
<pdfrwt beam="1">  1       -4 0.27733310E-02 0.12499162E+03</pdfrwt>
<totfact> 0.11371513E+03</totfact>
</mgrwt>
</event>
<event>
 4    1  0.1431256E-002  0.1250997E+03  0.7818608E-02  0.1234914E+00
          4   -1    0    0  501    0  0.00000000000E+00  0.00000000000E+00  0.24144688339E+02  0.24178065989E+02  0.12700000000E+01 0. -1.
         -4   -1    0    0    0  501 -0.00000000000E+00 -0.00000000000E+00 -0.16189532365E+03  0.16190030488E+03  0.12700000000E+01 0. -1.
    9000005    1    1    2    0    0  0.10045579707E+02  0.58793954130E+02 -0.40895686089E+02  0.72326342743E+02  0.10000000000E+01 0.  0.
    9000005    1    1    2    0    0 -0.10045579707E+02 -0.58793954130E+02 -0.96854949227E+02  0.11375202813E+03  0.10000000000E+01 0.  0.
<mgrwt>
<rscale>  0 0.12509965E+03</rscale>
<asrwt>0</asrwt>
<pdfrwt beam="1">  1        4 0.60409674E-02 0.12509965E+03</pdfrwt>
<pdfrwt beam="2">  1       -4 0.40478623E-01 0.12509965E+03</pdfrwt>
<totfact> 0.16856162E+03</totfact>
</mgrwt>
</event>
<event>
 5    1  0.1431256E-002  0.1249955E+03  0.7818608E-02  0.1235076E+00
          4   -1    0    0  501    0  0.00000000000E+00  0.00000000000E+00  0.28240328569E+02  0.28268870825E+02  0.12700000000E+01 0. -1.
         -4   -1    0    0    0  501 -0.00000000000E+00 -0.00000000000E+00 -0.13821038066E+03  0.13821621549E+03  0.12700000000E+01 0. -1.
         25    2    1    2    0    0  0.00000000000E+00  0.00000000000E+00 -0.10997005209E+03  0.16648508631E+03  0.12499548634E+03 0.  0.
    9000005    1    3    3    0    0  0.13490915748E+02 -0.57241539174E+02 -0.83125289383E+02  0.10183031155E+03  0.10000000000E+01 0.  0.
    9000005    1    3    3    0    0 -0.13490915748E+02  0.57241539174E+02 -0.26844762711E+02  0.64654774763E+02  0.10000000000E+01 0.  0.
<mgrwt>
<rscale>  0 0.12499549E+03</rscale>
<asrwt>0</asrwt>
<pdfrwt beam="1">  1        4 0.70643797E-02 0.12499549E+03</pdfrwt>
<pdfrwt beam="2">  1       -4 0.34556890E-01 0.12499549E+03</pdfrwt>
<totfact> 0.17758621E+03</totfact>
</mgrwt>
</event>
<event>
 5    1  0.1431256E-002  0.1250022E+03  0.7818608E-02  0.1235066E+00
          4   -1    0    0  501    0  0.00000000000E+00  0.00000000000E+00  0.34817560614E+02  0.34840715078E+02  0.12700000000E+01 0.  1.
         -4   -1    0    0    0  501 -0.00000000000E+00 -0.00000000000E+00 -0.11213186666E+03  0.11213905841E+03  0.12700000000E+01 0.  1.
         25    2    1    2    0    0  0.00000000000E+00  0.00000000000E+00 -0.77314306044E+02  0.14697977348E+03  0.12500220756E+03 0.  0.
    9000005    1    3    3    0    0  0.26179181971E+02 -0.55991448712E+02 -0.49497403797E+02  0.79192075868E+02  0.10000000000E+01 0.  0.
    9000005    1    3    3    0    0 -0.26179181971E+02  0.55991448712E+02 -0.27816902247E+02  0.67787697617E+02  0.10000000000E+01 0.  0.
<mgrwt>
<rscale>  0 0.12500221E+03</rscale>
<asrwt>0</asrwt>
<pdfrwt beam="1">  1        4 0.87081837E-02 0.12500221E+03</pdfrwt>
<pdfrwt beam="2">  1       -4 0.28036759E-01 0.12500221E+03</pdfrwt>
<totfact> 0.18687329E+03</totfact>
</mgrwt>
</event>
<event>
 4    1  0.1431256E-002  0.1242528E+03  0.7818608E-02  0.1236242E+00
         -4   -1    0    0    0  501 -0.00000000000E+00  0.00000000000E+00  0.10454692929E+02  0.10531548046E+02  0.12700000000E+01 0. -1.
          4   -1    0    0  501    0  0.00000000000E+00 -0.00000000000E+00 -0.36775249330E+03  0.36775468621E+03  0.12700000000E+01 0. -1.
    9000005    1    1    2    0    0 -0.48714567535E+02  0.38436418617E+02 -0.16991920214E+03  0.18089776843E+03  0.10000000000E+01 0.  0.
    9000005    1    1    2    0    0  0.48714567535E+02 -0.38436418617E+02 -0.18737859823E+03  0.19738846582E+03  0.10000000000E+01 0.  0.
<mgrwt>
<rscale>  0 0.12425279E+03</rscale>
<asrwt>0</asrwt>
<pdfrwt beam="2">  1        4 0.91947961E-01 0.12425279E+03</pdfrwt>
<pdfrwt beam="1">  1       -4 0.26235555E-02 0.12425279E+03</pdfrwt>
<totfact> 0.11220584E+03</totfact>
</mgrwt>
</event>
<event>
 5    1  0.1431256E-002  0.1249964E+03  0.7818608E-02  0.1235075E+00
          4   -1    0    0  501    0  0.00000000000E+00  0.00000000000E+00  0.14577386095E+02  0.14632603506E+02  0.12700000000E+01 0. -1.
         -4   -1    0    0    0  501 -0.00000000000E+00 -0.00000000000E+00 -0.26738776409E+03  0.26739078011E+03  0.12700000000E+01 0. -1.
         25    2    1    2    0    0  0.00000000000E+00  0.00000000000E+00 -0.25281037800E+03  0.28202338361E+03  0.12499640667E+03 0.  0.
    9000005    1    3    3    0    0 -0.60469546073E+02  0.15612016198E+02 -0.13130929061E+03  0.14540780877E+03  0.10000000000E+01 0.  0.
    9000005    1    3    3    0    0  0.60469546073E+02 -0.15612016198E+02 -0.12150108739E+03  0.13661557484E+03  0.10000000000E+01 0.  0.
<mgrwt>
<rscale>  0 0.12499641E+03</rscale>
<asrwt>0</asrwt>
<pdfrwt beam="1">  1        4 0.36516266E-02 0.12499641E+03</pdfrwt>
<pdfrwt beam="2">  1       -4 0.66854204E-01 0.12499641E+03</pdfrwt>
<totfact> 0.13491388E+03</totfact>
</mgrwt>
</event>
<event>
 5    1  0.1431256E-002  0.1250009E+03  0.7818608E-02  0.1235068E+00
          4   -1    0    0  501    0  0.00000000000E+00  0.00000000000E+00  0.34212065828E+02  0.34235629806E+02  0.12700000000E+01 0.  1.
         -4   -1    0    0    0  501 -0.00000000000E+00 -0.00000000000E+00 -0.11411276180E+03  0.11411982871E+03  0.12700000000E+01 0.  1.
         25    2    1    2    0    0  0.00000000000E+00  0.00000000000E+00 -0.79900695969E+02  0.14835545852E+03  0.12500088342E+03 0.  0.
    9000005    1    3    3    0    0 -0.25287416018E+02 -0.52520547031E+02 -0.66685612483E+02  0.88576702250E+02  0.10000000000E+01 0.  0.
    9000005    1    3    3    0    0  0.25287416018E+02  0.52520547031E+02 -0.13215083486E+02  0.59778756267E+02  0.10000000000E+01 0.  0.
<mgrwt>
<rscale>  0 0.12500088E+03</rscale>
<asrwt>0</asrwt>
<pdfrwt beam="1">  1        4 0.85568456E-02 0.12500088E+03</pdfrwt>
<pdfrwt beam="2">  1       -4 0.28532018E-01 0.12500088E+03</pdfrwt>
<totfact> 0.18619557E+03</totfact>
</mgrwt>
</event>
<event>
 5    1  0.1431256E-002  0.1249474E+03  0.7818608E-02  0.1235152E+00
          4   -1    0    0  501    0  0.00000000000E+00  0.00000000000E+00  0.30027065203E+02  0.30053910639E+02  0.12700000000E+01 0. -1.
         -4   -1    0    0    0  501 -0.00000000000E+00 -0.00000000000E+00 -0.12989341844E+03  0.12989962685E+03  0.12700000000E+01 0. -1.
         25    2    1    2    0    0  0.00000000000E+00  0.00000000000E+00 -0.99866353239E+02  0.15995353748E+03  0.12494737150E+03 0.  0.
    9000005    1    3    3    0    0 -0.20580254151E+02  0.33876965694E+02 -0.11173709898E+03  0.11856380120E+03  0.10000000000E+01 0.  0.
    9000005    1    3    3    0    0  0.20580254151E+02 -0.33876965694E+02  0.11870745742E+02  0.41389736288E+02  0.10000000000E+01 0.  0.
<mgrwt>
<rscale>  0 0.12494737E+03</rscale>
<asrwt>0</asrwt>
<pdfrwt beam="1">  1        4 0.75108984E-02 0.12494737E+03</pdfrwt>
<pdfrwt beam="2">  1       -4 0.32477485E-01 0.12494737E+03</pdfrwt>
<totfact> 0.18082050E+03</totfact>
</mgrwt>
</event>
<event>
 5    1  0.1431256E-002  0.1250001E+03  0.7818608E-02  0.1235069E+00
         -4   -1    0    0    0  501 -0.00000000000E+00  0.00000000000E+00  0.78804816235E+02  0.78815049082E+02  0.12700000000E+01 0.  1.
          4   -1    0    0  501    0  0.00000000000E+00 -0.00000000000E+00 -0.49547135497E+02  0.49563409244E+02  0.12700000000E+01 0.  1.
         25    2    1    2    0    0  0.00000000000E+00  0.00000000000E+00  0.29257680738E+02  0.12837845833E+03  0.12500006672E+03 0.  0.
    9000005    1    3    3    0    0  0.18989591224E+02  0.17912427203E+02  0.72941867818E+02  0.77478872630E+02  0.10000000000E+01 0.  0.
    9000005    1    3    3    0    0 -0.18989591224E+02 -0.17912427203E+02 -0.43684187080E+02  0.50899585696E+02  0.10000000000E+01 0.  0.
<mgrwt>
<rscale>  0 0.12500007E+03</rscale>
<asrwt>0</asrwt>
<pdfrwt beam="2">  1        4 0.12390097E-01 0.12500007E+03</pdfrwt>
<pdfrwt beam="1">  1       -4 0.19704517E-01 0.12500007E+03</pdfrwt>
<totfact> 0.19651936E+03</totfact>
</mgrwt>
</event>
<event>
 5    1  0.1431256E-002  0.1249970E+03  0.7818608E-02  0.1235074E+00
          4   -1    0    0  501    0  0.00000000000E+00  0.00000000000E+00  0.24247326762E+02  0.24280563319E+02  0.12700000000E+01 0. -1.
         -4   -1    0    0    0  501 -0.00000000000E+00 -0.00000000000E+00 -0.16094644992E+03  0.16095146051E+03  0.12700000000E+01 0. -1.
         25    2    1    2    0    0  0.00000000000E+00  0.00000000000E+00 -0.13669912315E+03  0.18523202383E+03  0.12499700949E+03 0.  0.
    9000005    1    3    3    0    0  0.60076118822E+02 -0.17201377182E+02 -0.68069701471E+02  0.92409478346E+02  0.10000000000E+01 0.  0.
    9000005    1    3    3    0    0 -0.60076118822E+02  0.17201377182E+02 -0.68629421683E+02  0.92822545485E+02  0.10000000000E+01 0.  0.
<mgrwt>
<rscale>  0 0.12499701E+03</rscale>
<asrwt>0</asrwt>
<pdfrwt beam="1">  1        4 0.60666130E-02 0.12499701E+03</pdfrwt>
<pdfrwt beam="2">  1       -4 0.40241390E-01 0.12499701E+03</pdfrwt>
<totfact> 0.16932141E+03</totfact>
</mgrwt>
</event>
<event>
 5    1  0.1431256E-002  0.1249988E+03  0.7818608E-02  0.1235071E+00
          4   -1    0    0  501    0  0.00000000000E+00  0.00000000000E+00  0.59316553737E+02  0.59330147878E+02  0.12700000000E+01 0.  1.
         -4   -1    0    0    0  501 -0.00000000000E+00 -0.00000000000E+00 -0.65825754686E+02  0.65838004830E+02  0.12700000000E+01 0.  1.
         25    2    1    2    0    0  0.00000000000E+00  0.00000000000E+00 -0.65092009486E+01  0.12516815271E+03  0.12499878702E+03 0.  0.
    9000005    1    3    3    0    0 -0.33142022413E+02 -0.23907104296E+02 -0.50596888216E+02  0.65046048171E+02  0.10000000000E+01 0.  0.
    9000005    1    3    3    0    0  0.33142022413E+02  0.23907104296E+02  0.44087687267E+02  0.60122104538E+02  0.10000000000E+01 0.  0.
<mgrwt>
<rscale>  0 0.12499879E+03</rscale>
<asrwt>0</asrwt>
<pdfrwt beam="1">  1        4 0.14832369E-01 0.12499879E+03</pdfrwt>
<pdfrwt beam="2">  1       -4 0.16459669E-01 0.12499879E+03</pdfrwt>
<totfact> 0.19826501E+03</totfact>
</mgrwt>
</event>
<event>
 5    1  0.1431256E-002  0.1249995E+03  0.7818608E-02  0.1235070E+00
         -4   -1    0    0    0  501 -0.00000000000E+00  0.00000000000E+00  0.50003174174E+02  0.50019299550E+02  0.12700000000E+01 0.  1.
          4   -1    0    0  501    0  0.00000000000E+00 -0.00000000000E+00 -0.78085592483E+02  0.78095919570E+02  0.12700000000E+01 0.  1.
         25    2    1    2    0    0  0.00000000000E+00  0.00000000000E+00 -0.28082418309E+02  0.12811521912E+03  0.12499954861E+03 0.  0.
    9000005    1    3    3    0    0 -0.47300826974E+02  0.34514751023E+02 -0.36416191401E+02  0.68962129222E+02  0.10000000000E+01 0.  0.
    9000005    1    3    3    0    0  0.47300826974E+02 -0.34514751023E+02  0.83337730923E+01  0.59153089899E+02  0.10000000000E+01 0.  0.
<mgrwt>
<rscale>  0 0.12499955E+03</rscale>
<asrwt>0</asrwt>
<pdfrwt beam="2">  1        4 0.19524705E-01 0.12499955E+03</pdfrwt>
<pdfrwt beam="1">  1       -4 0.12504100E-01 0.12499955E+03</pdfrwt>
<totfact> 0.19666474E+03</totfact>
</mgrwt>
</event>
<event>
 5    1  0.1431256E-002  0.1249974E+03  0.7818608E-02  0.1235073E+00
          4   -1    0    0  501    0  0.00000000000E+00  0.00000000000E+00  0.17011673740E+03  0.17012147790E+03  0.12700000000E+01 0.  1.
         -4   -1    0    0    0  501 -0.00000000000E+00 -0.00000000000E+00 -0.22938610600E+02  0.22973740580E+02  0.12700000000E+01 0.  1.
         25    2    1    2    0    0  0.00000000000E+00  0.00000000000E+00  0.14717812680E+03  0.19309521848E+03  0.12499744954E+03 0.  0.
    9000005    1    3    3    0    0  0.11594631016E+02 -0.31162736446E+02  0.15532511000E+03  0.15884722662E+03  0.10000000000E+01 0.  0.
    9000005    1    3    3    0    0 -0.11594631016E+02  0.31162736446E+02 -0.81469831939E+01  0.34247991859E+02  0.10000000000E+01 0.  0.
<mgrwt>
<rscale>  0 0.12499745E+03</rscale>
<asrwt>0</asrwt>
<pdfrwt beam="1">  1        4 0.42534167E-01 0.12499745E+03</pdfrwt>
<pdfrwt beam="2">  1       -4 0.57396366E-02 0.12499745E+03</pdfrwt>
<totfact> 0.16603284E+03</totfact>
</mgrwt>
</event>
<event>
 5    1  0.1431256E-002  0.1249996E+03  0.7818608E-02  0.1235070E+00
         -4   -1    0    0    0  501 -0.00000000000E+00  0.00000000000E+00  0.19376620517E+02  0.19418195659E+02  0.12700000000E+01 0.  1.
          4   -1    0    0  501    0  0.00000000000E+00 -0.00000000000E+00 -0.20133515497E+03  0.20133916044E+03  0.12700000000E+01 0.  1.
         25    2    1    2    0    0  0.00000000000E+00  0.00000000000E+00 -0.18195853445E+03  0.22075735609E+03  0.12499960804E+03 0.  0.
    9000005    1    3    3    0    0 -0.12780057976E+02 -0.50422192351E+01 -0.19864362268E+03  0.19912067368E+03  0.10000000000E+01 0.  0.
    9000005    1    3    3    0    0  0.12780057976E+02  0.50422192351E+01  0.16685088229E+02  0.21636682414E+02  0.10000000000E+01 0.  0.
<mgrwt>
<rscale>  0 0.12499961E+03</rscale>
<asrwt>0</asrwt>
<pdfrwt beam="2">  1        4 0.50339480E-01 0.12499961E+03</pdfrwt>
<pdfrwt beam="1">  1       -4 0.48498533E-02 0.12499961E+03</pdfrwt>
<totfact> 0.15523434E+03</totfact>
</mgrwt>
</event>
<event>
 5    1  0.1431256E-002  0.1250051E+03  0.7818608E-02  0.1235061E+00
          4   -1    0    0  501    0  0.00000000000E+00  0.00000000000E+00  0.12591784442E+03  0.12592424883E+03  0.12700000000E+01 0.  1.
         -4   -1    0    0    0  501 -0.00000000000E+00 -0.00000000000E+00 -0.31004569755E+02  0.31030569536E+02  0.12700000000E+01 0.  1.
         25    2    1    2    0    0  0.00000000000E+00  0.00000000000E+00  0.94913274660E+02  0.15695481836E+03  0.12500514109E+03 0.  0.
    9000005    1    3    3    0    0  0.54662195939E+02  0.29884885660E+02  0.53672650973E+02  0.82236339402E+02  0.10000000000E+01 0.  0.
    9000005    1    3    3    0    0 -0.54662195939E+02 -0.29884885660E+02  0.41240623687E+02  0.74718478959E+02  0.10000000000E+01 0.  0.
<mgrwt>
<rscale>  0 0.12500514E+03</rscale>
<asrwt>0</asrwt>
<pdfrwt beam="1">  1        4 0.31483511E-01 0.12500514E+03</pdfrwt>
<pdfrwt beam="2">  1       -4 0.77551930E-02 0.12500514E+03</pdfrwt>
<totfact> 0.18199838E+03</totfact>
</mgrwt>
</event>
<event>
 5    1  0.1431256E-002  0.1249764E+03  0.7818608E-02  0.1235106E+00
         -4   -1    0    0    0  501 -0.00000000000E+00  0.00000000000E+00  0.63694370340E+03  0.63694496952E+03  0.12700000000E+01 0. -1.
          4   -1    0    0  501    0  0.00000000000E+00 -0.00000000000E+00 -0.60634235158E+01  0.61949983641E+01  0.12700000000E+01 0. -1.
         25    2    1    2    0    0  0.00000000000E+00  0.00000000000E+00  0.63088027989E+03  0.64313996789E+03  0.12497636075E+03 0.  0.
    9000005    1    3    3    0    0  0.21259869872E+02  0.34680258748E+02  0.55949032326E+03  0.56096802425E+03  0.10000000000E+01 0.  0.
    9000005    1    3    3    0    0 -0.21259869872E+02 -0.34680258748E+02  0.71389956630E+02  0.82171943639E+02  0.10000000000E+01 0.  0.
<mgrwt>
<rscale>  0 0.12497636E+03</rscale>
<asrwt>0</asrwt>
<pdfrwt beam="2">  1        4 0.15324610E-02 0.12497636E+03</pdfrwt>
<pdfrwt beam="1">  1       -4 0.15925253E+00 0.12497636E+03</pdfrwt>
<totfact> 0.68337901E+02</totfact>
</mgrwt>
</event>
<event>
 5    1  0.1431256E-002  0.1250005E+03  0.7818608E-02  0.1235068E+00
         -4   -1    0    0    0  501 -0.00000000000E+00  0.00000000000E+00  0.17439771780E+02  0.17485952640E+02  0.12700000000E+01 0. -1.
          4   -1    0    0  501    0  0.00000000000E+00 -0.00000000000E+00 -0.22364288840E+03  0.22364649435E+03  0.12700000000E+01 0. -1.
         25    2    1    2    0    0  0.00000000000E+00  0.00000000000E+00 -0.20620311662E+03  0.24113244699E+03  0.12500052674E+03 0.  0.
    9000005    1    3    3    0    0 -0.56521404964E+02 -0.84524019987E+01 -0.15187149663E+03  0.16227157424E+03  0.10000000000E+01 0.  0.
    9000005    1    3    3    0    0  0.56521404964E+02  0.84524019987E+01 -0.54331619994E+02  0.78860872743E+02  0.10000000000E+01 0.  0.
<mgrwt>
<rscale>  0 0.12500053E+03</rscale>
<asrwt>0</asrwt>
<pdfrwt beam="2">  1        4 0.55916936E-01 0.12500053E+03</pdfrwt>
<pdfrwt beam="1">  1       -4 0.43661670E-02 0.12500053E+03</pdfrwt>
<totfact> 0.14797338E+03</totfact>
</mgrwt>
</event>
<event>
 5    1  0.1431256E-002  0.1250029E+03  0.7818608E-02  0.1235065E+00
         -4   -1    0    0    0  501 -0.00000000000E+00  0.00000000000E+00  0.47776715385E+02  0.47793591966E+02  0.12700000000E+01 0.  1.
          4   -1    0    0  501    0  0.00000000000E+00 -0.00000000000E+00 -0.81728110749E+02  0.81737977627E+02  0.12700000000E+01 0.  1.
         25    2    1    2    0    0  0.00000000000E+00  0.00000000000E+00 -0.33951395364E+02  0.12953156959E+03  0.12500292106E+03 0.  0.
    9000005    1    3    3    0    0  0.42018921583E+02 -0.44042697912E+02 -0.23181550034E+01  0.60923910355E+02  0.10000000000E+01 0.  0.
    9000005    1    3    3    0    0 -0.42018921583E+02  0.44042697912E+02 -0.31633240360E+02  0.68607659237E+02  0.10000000000E+01 0.  0.
<mgrwt>
<rscale>  0 0.12500292E+03</rscale>
<asrwt>0</asrwt>
<pdfrwt beam="2">  1        4 0.20435370E-01 0.12500292E+03</pdfrwt>
<pdfrwt beam="1">  1       -4 0.11947522E-01 0.12500292E+03</pdfrwt>
<totfact> 0.19588262E+03</totfact>
</mgrwt>
</event>
<event>
 5    1  0.1431256E-002  0.1250056E+03  0.7818608E-02  0.1235061E+00
          4   -1    0    0  501    0  0.00000000000E+00  0.00000000000E+00  0.34111875900E+03  0.34112112312E+03  0.12700000000E+01 0. -1.
         -4   -1    0    0    0  501 -0.00000000000E+00 -0.00000000000E+00 -0.11414696387E+02  0.11485129238E+02  0.12700000000E+01 0. -1.
         25    2    1    2    0    0  0.00000000000E+00  0.00000000000E+00  0.32970406261E+03  0.35260625236E+03  0.12500560108E+03 0.  0.
    9000005    1    3    3    0    0 -0.62166160763E+02 -0.44140571195E+01  0.15177754949E+03  0.16407784730E+03  0.10000000000E+01 0.  0.
    9000005    1    3    3    0    0  0.62166160763E+02  0.44140571195E+01  0.17792651313E+03  0.18852840507E+03  0.10000000000E+01 0.  0.
<mgrwt>
<rscale>  0 0.12500560E+03</rscale>
<asrwt>0</asrwt>
<pdfrwt beam="1">  1        4 0.85288785E-01 0.12500560E+03</pdfrwt>
<pdfrwt beam="2">  1       -4 0.28627739E-02 0.12500560E+03</pdfrwt>
<totfact> 0.11613919E+03</totfact>
</mgrwt>
</event>
<event>
 5    1  0.1431256E-002  0.1249989E+03  0.7818608E-02  0.1235071E+00
          4   -1    0    0  501    0  0.00000000000E+00  0.00000000000E+00  0.23879466457E+02  0.23913214302E+02  0.12700000000E+01 0. -1.
         -4   -1    0    0    0  501 -0.00000000000E+00 -0.00000000000E+00 -0.16342746522E+03  0.16343239975E+03  0.12700000000E+01 0. -1.
         25    2    1    2    0    0  0.00000000000E+00  0.00000000000E+00 -0.13954799877E+03  0.18734561406E+03  0.12499894058E+03 0.  0.
    9000005    1    3    3    0    0  0.52312456459E+02 -0.14158779113E+02 -0.23140101447E+02  0.58936647527E+02  0.10000000000E+01 0.  0.
    9000005    1    3    3    0    0 -0.52312456459E+02  0.14158779113E+02 -0.11640789732E+03  0.12840896653E+03  0.10000000000E+01 0.  0.
<mgrwt>
<rscale>  0 0.12499894E+03</rscale>
<asrwt>0</asrwt>
<pdfrwt beam="1">  1        4 0.59747024E-02 0.12499894E+03</pdfrwt>
<pdfrwt beam="2">  1       -4 0.40861698E-01 0.12499894E+03</pdfrwt>
<totfact> 0.16842019E+03</totfact>
</mgrwt>
</event>
<event>
 5    1  0.1431256E-002  0.1250064E+03  0.7818608E-02  0.1235059E+00
         -4   -1    0    0    0  501 -0.00000000000E+00  0.00000000000E+00  0.19781382548E+03  0.19781790225E+03  0.12700000000E+01 0.  1.
          4   -1    0    0  501    0  0.00000000000E+00 -0.00000000000E+00 -0.19724429750E+02  0.19765273308E+02  0.12700000000E+01 0.  1.
         25    2    1    2    0    0  0.00000000000E+00  0.00000000000E+00  0.17808939573E+03  0.21758317556E+03  0.12500642149E+03 0.  0.
    9000005    1    3    3    0    0 -0.30358658772E+02  0.52827643971E+02  0.11324078417E+03  0.12859581381E+03  0.10000000000E+01 0.  0.
    9000005    1    3    3    0    0  0.30358658772E+02 -0.52827643971E+02  0.64848611564E+02  0.88987361753E+02  0.10000000000E+01 0.  0.
<mgrwt>
<rscale>  0 0.12500642E+03</rscale>
<asrwt>0</asrwt>
<pdfrwt beam="2">  1        4 0.49367225E-02 0.12500642E+03</pdfrwt>
<pdfrwt beam="1">  1       -4 0.49459071E-01 0.12500642E+03</pdfrwt>
<totfact> 0.15639062E+03</totfact>
</mgrwt>
</event>
<event>
 5    1  0.1431256E-002  0.1249954E+03  0.7818608E-02  0.1235076E+00
         -4   -1    0    0    0  501 -0.00000000000E+00  0.00000000000E+00  0.76662944014E+02  0.76673462716E+02  0.12700000000E+01 0.  1.
          4   -1    0    0  501    0  0.00000000000E+00 -0.00000000000E+00 -0.50927904892E+02  0.50943737561E+02  0.12700000000E+01 0.  1.
         25    2    1    2    0    0  0.00000000000E+00  0.00000000000E+00  0.25735039121E+02  0.12761720028E+03  0.12499543019E+03 0.  0.
    9000005    1    3    3    0    0  0.14897230207E+02  0.59394402952E+02  0.25592563030E+02  0.66374707927E+02  0.10000000000E+01 0.  0.
    9000005    1    3    3    0    0 -0.14897230207E+02 -0.59394402952E+02  0.14247609088E+00  0.61242492351E+02  0.10000000000E+01 0.  0.
<mgrwt>
<rscale>  0 0.12499543E+03</rscale>
<asrwt>0</asrwt>
<pdfrwt beam="2">  1        4 0.12735270E-01 0.12499543E+03</pdfrwt>
<pdfrwt beam="1">  1       -4 0.19169030E-01 0.12499543E+03</pdfrwt>
<totfact> 0.19695489E+03</totfact>
</mgrwt>
</event>
<event>
 5    1  0.1431256E-002  0.1249988E+03  0.7818608E-02  0.1235071E+00
         -4   -1    0    0    0  501 -0.00000000000E+00  0.00000000000E+00  0.62631689115E+02  0.62644563861E+02  0.12700000000E+01 0.  1.
          4   -1    0    0  501    0  0.00000000000E+00 -0.00000000000E+00 -0.62341668106E+02  0.62354602735E+02  0.12700000000E+01 0.  1.
         25    2    1    2    0    0  0.00000000000E+00  0.00000000000E+00  0.29002100911E+00  0.12499916660E+03  0.12499883014E+03 0.  0.
    9000005    1    3    3    0    0 -0.57157792702E+02  0.24075607511E+02 -0.75054179711E+01  0.62481832900E+02  0.10000000000E+01 0.  0.
    9000005    1    3    3    0    0  0.57157792702E+02 -0.24075607511E+02  0.77954389802E+01  0.62517333696E+02  0.10000000000E+01 0.  0.
<mgrwt>
<rscale>  0 0.12499883E+03</rscale>
<asrwt>0</asrwt>
<pdfrwt beam="2">  1        4 0.15588643E-01 0.12499883E+03</pdfrwt>
<pdfrwt beam="1">  1       -4 0.15661148E-01 0.12499883E+03</pdfrwt>
<totfact> 0.19835644E+03</totfact>
</mgrwt>
</event>
<event>
 5    1  0.1431256E-002  0.1249994E+03  0.7818608E-02  0.1235070E+00
         -4   -1    0    0    0  501 -0.00000000000E+00  0.00000000000E+00  0.86857816326E+02  0.86867100544E+02  0.12700000000E+01 0.  1.
          4   -1    0    0  501    0  0.00000000000E+00 -0.00000000000E+00 -0.44951841681E+02  0.44969778413E+02  0.12700000000E+01 0.  1.
         25    2    1    2    0    0  0.00000000000E+00  0.00000000000E+00  0.41905974645E+02  0.13183687896E+03  0.12499940777E+03 0.  0.
    9000005    1    3    3    0    0  0.23344702566E+02 -0.73760275198E+01  0.81594405847E+02  0.85194060741E+02  0.10000000000E+01 0.  0.
    9000005    1    3    3    0    0 -0.23344702566E+02  0.73760275198E+01 -0.39688431202E+02  0.46642818216E+02  0.10000000000E+01 0.  0.
<mgrwt>
<rscale>  0 0.12499941E+03</rscale>
<asrwt>0</asrwt>
<pdfrwt beam="2">  1        4 0.11241363E-01 0.12499941E+03</pdfrwt>
<pdfrwt beam="1">  1       -4 0.21717856E-01 0.12499941E+03</pdfrwt>
<totfact> 0.19466402E+03</totfact>
</mgrwt>
</event>
<event>
 5    1  0.1431256E-002  0.1249979E+03  0.7818608E-02  0.1235073E+00
          4   -1    0    0  501    0  0.00000000000E+00  0.00000000000E+00  0.10244541264E+04  0.10244549136E+04  0.12700000000E+01 0. -1.
         -4   -1    0    0    0  501 -0.00000000000E+00 -0.00000000000E+00 -0.37063160643E+01  0.39178666093E+01  0.12700000000E+01 0. -1.
         25    2    1    2    0    0  0.00000000000E+00  0.00000000000E+00  0.10207478104E+04  0.10283727802E+04  0.12499793106E+03 0.  0.
    9000005    1    3    3    0    0  0.24401000471E+02  0.53033866615E+02  0.69380744288E+03  0.69625984203E+03  0.10000000000E+01 0.  0.
    9000005    1    3    3    0    0 -0.24401000471E+02 -0.53033866615E+02  0.32694036749E+03  0.33211293821E+03  0.10000000000E+01 0.  0.
<mgrwt>
<rscale>  0 0.12499793E+03</rscale>
<asrwt>0</asrwt>
<pdfrwt beam="1">  1        4 0.25614017E+00 0.12499793E+03</pdfrwt>
<pdfrwt beam="2">  1       -4 0.95312088E-03 0.12499793E+03</pdfrwt>
<totfact> 0.35235158E+02</totfact>
</mgrwt>
</event>
<event>
 5    1  0.1431256E-002  0.1250017E+03  0.7818608E-02  0.1235067E+00
         -4   -1    0    0    0  501 -0.00000000000E+00  0.00000000000E+00  0.52570293644E+01  0.54082582907E+01  0.12700000000E+01 0. -1.
          4   -1    0    0  501    0  0.00000000000E+00 -0.00000000000E+00 -0.73238528019E+03  0.73238638131E+03  0.12700000000E+01 0. -1.
         25    2    1    2    0    0  0.00000000000E+00  0.00000000000E+00 -0.72712825082E+03  0.73779463960E+03  0.12500174833E+03 0.  0.
    9000005    1    3    3    0    0 -0.86468863874E+01  0.59569291110E+02 -0.46269601745E+03  0.46659604976E+03  0.10000000000E+01 0.  0.
    9000005    1    3    3    0    0  0.86468863874E+01 -0.59569291110E+02 -0.26443223337E+03  0.27119858985E+03  0.10000000000E+01 0.  0.
<mgrwt>
<rscale>  0 0.12500175E+03</rscale>
<asrwt>0</asrwt>
<pdfrwt beam="2">  1        4 0.18311502E+00 0.12500175E+03</pdfrwt>
<pdfrwt beam="1">  1       -4 0.13333011E-02 0.12500175E+03</pdfrwt>
<totfact> 0.58246470E+02</totfact>
</mgrwt>
</event>
<event>
 5    1  0.1431256E-002  0.1249989E+03  0.7818608E-02  0.1235071E+00
          4   -1    0    0  501    0  0.00000000000E+00  0.00000000000E+00  0.26292330907E+03  0.26292637630E+03  0.12700000000E+01 0.  1.
         -4   -1    0    0    0  501 -0.00000000000E+00 -0.00000000000E+00 -0.14826429379E+02  0.14880722702E+02  0.12700000000E+01 0.  1.
         25    2    1    2    0    0  0.00000000000E+00  0.00000000000E+00  0.24809687969E+03  0.27780709900E+03  0.12499889016E+03 0.  0.
    9000005    1    3    3    0    0  0.60094217926E+01 -0.62201646171E+02  0.12371359902E+03  0.13860451839E+03  0.10000000000E+01 0.  0.
    9000005    1    3    3    0    0 -0.60094217926E+01  0.62201646171E+02  0.12438328068E+03  0.13920258061E+03  0.10000000000E+01 0.  0.
<mgrwt>
<rscale>  0 0.12499889E+03</rscale>
<asrwt>0</asrwt>
<pdfrwt beam="1">  1        4 0.65737999E-01 0.12499889E+03</pdfrwt>
<pdfrwt beam="2">  1       -4 0.37137773E-02 0.12499889E+03</pdfrwt>
<totfact> 0.13617017E+03</totfact>
</mgrwt>
</event>
<event>
 5    1  0.1431256E-002  0.1249961E+03  0.7818608E-02  0.1235075E+00
         -4   -1    0    0    0  501 -0.00000000000E+00  0.00000000000E+00  0.38243893964E+02  0.38264975180E+02  0.12700000000E+01 0.  1.
          4   -1    0    0  501    0  0.00000000000E+00 -0.00000000000E+00 -0.10208089152E+03  0.10208879132E+03  0.12700000000E+01 0.  1.
         25    2    1    2    0    0  0.00000000000E+00  0.00000000000E+00 -0.63836997551E+02  0.14035376650E+03  0.12499606999E+03 0.  0.
    9000005    1    3    3    0    0 -0.29207466854E+01 -0.51569010820E+02 -0.71412578803E+02  0.88139945822E+02  0.10000000000E+01 0.  0.
    9000005    1    3    3    0    0  0.29207466854E+01  0.51569010820E+02  0.75755812522E+01  0.52213820675E+02  0.10000000000E+01 0.  0.
<mgrwt>
<rscale>  0 0.12499607E+03</rscale>
<asrwt>0</asrwt>
<pdfrwt beam="2">  1        4 0.25523845E-01 0.12499607E+03</pdfrwt>
<pdfrwt beam="1">  1       -4 0.95645963E-02 0.12499607E+03</pdfrwt>
<totfact> 0.19024002E+03</totfact>
</mgrwt>
</event>
<event>
 5    1  0.1431256E-002  0.1249964E+03  0.7818608E-02  0.1235075E+00
          4   -1    0    0  501    0  0.00000000000E+00  0.00000000000E+00  0.19170700648E+02  0.19212721393E+02  0.12700000000E+01 0. -1.
         -4   -1    0    0    0  501 -0.00000000000E+00 -0.00000000000E+00 -0.20348254716E+03  0.20348651036E+03  0.12700000000E+01 0. -1.
         25    2    1    2    0    0  0.00000000000E+00  0.00000000000E+00 -0.18431184652E+03  0.22269923176E+03  0.12499636418E+03 0.  0.
    9000005    1    3    3    0    0  0.22022802229E+02  0.58088575359E+02 -0.10420495462E+03  0.12132171682E+03  0.10000000000E+01 0.  0.
    9000005    1    3    3    0    0 -0.22022802229E+02 -0.58088575359E+02 -0.80106891901E+02  0.10137751494E+03  0.10000000000E+01 0.  0.
<mgrwt>
<rscale>  0 0.12499636E+03</rscale>
<asrwt>0</asrwt>
<pdfrwt beam="1">  1        4 0.47984238E-02 0.12499636E+03</pdfrwt>
<pdfrwt beam="2">  1       -4 0.50876378E-01 0.12499636E+03</pdfrwt>
<totfact> 0.15453037E+03</totfact>
</mgrwt>
</event>
<event>
 5    1  0.1431256E-002  0.1250485E+03  0.7818608E-02  0.1234993E+00
          4   -1    0    0  501    0  0.00000000000E+00  0.00000000000E+00  0.20965203478E+03  0.20965588136E+03  0.12700000000E+01 0. -1.
         -4   -1    0    0    0  501 -0.00000000000E+00 -0.00000000000E+00 -0.18620888971E+02  0.18664147611E+02  0.12700000000E+01 0. -1.
         25    2    1    2    0    0  0.00000000000E+00  0.00000000000E+00  0.19103114581E+03  0.22832002897E+03  0.12504853841E+03 0.  0.
    9000005    1    3    3    0    0  0.45525441349E+02  0.38959807608E+02  0.62963567965E+02  0.86924353950E+02  0.10000000000E+01 0.  0.
    9000005    1    3    3    0    0 -0.45525441349E+02 -0.38959807608E+02  0.12806757785E+03  0.14139567502E+03  0.10000000000E+01 0.  0.
<mgrwt>
<rscale>  0 0.12504854E+03</rscale>
<asrwt>0</asrwt>
<pdfrwt beam="1">  1        4 0.52418897E-01 0.12504854E+03</pdfrwt>
<pdfrwt beam="2">  1       -4 0.46611104E-02 0.12504854E+03</pdfrwt>
<totfact> 0.15230476E+03</totfact>
</mgrwt>
</event>
<event>
 5    1  0.1431256E-002  0.1249952E+03  0.7818608E-02  0.1235077E+00
          4   -1    0    0  501    0  0.00000000000E+00  0.00000000000E+00  0.22770340028E+02  0.22805729214E+02  0.12700000000E+01 0.  1.
         -4   -1    0    0    0  501 -0.00000000000E+00 -0.00000000000E+00 -0.17136577543E+03  0.17137048138E+03  0.12700000000E+01 0.  1.
         25    2    1    2    0    0  0.00000000000E+00  0.00000000000E+00 -0.14859543540E+03  0.19417621059E+03  0.12499518926E+03 0.  0.
    9000005    1    3    3    0    0 -0.41680532469E+02 -0.41665175401E+02 -0.10657460068E+03  0.12178833744E+03  0.10000000000E+01 0.  0.
    9000005    1    3    3    0    0  0.41680532469E+02  0.41665175401E+02 -0.42020834723E+02  0.72387873148E+02  0.10000000000E+01 0.  0.
<mgrwt>
<rscale>  0 0.12499519E+03</rscale>
<asrwt>0</asrwt>
<pdfrwt beam="1">  1        4 0.56975974E-02 0.12499519E+03</pdfrwt>
<pdfrwt beam="2">  1       -4 0.42846452E-01 0.12499519E+03</pdfrwt>
<totfact> 0.16559765E+03</totfact>
</mgrwt>
</event>
<event>
 5    1  0.1431256E-002  0.1249970E+03  0.7818608E-02  0.1235074E+00
         -4   -1    0    0    0  501 -0.00000000000E+00  0.00000000000E+00  0.25644780644E+03  0.25645095111E+03  0.12700000000E+01 0. -1.
          4   -1    0    0  501    0  0.00000000000E+00 -0.00000000000E+00 -0.15201697557E+02  0.15254655309E+02  0.12700000000E+01 0. -1.
         25    2    1    2    0    0  0.00000000000E+00  0.00000000000E+00  0.24124610888E+03  0.27170560642E+03  0.12499700601E+03 0.  0.
    9000005    1    3    3    0    0  0.35324924090E+02  0.26413701343E+02  0.21684515566E+03  0.22128794683E+03  0.10000000000E+01 0.  0.
    9000005    1    3    3    0    0 -0.35324924090E+02 -0.26413701343E+02  0.24400953226E+02  0.50417659594E+02  0.10000000000E+01 0.  0.
<mgrwt>
<rscale>  0 0.12499701E+03</rscale>
<asrwt>0</asrwt>
<pdfrwt beam="2">  1        4 0.38074373E-02 0.12499701E+03</pdfrwt>
<pdfrwt beam="1">  1       -4 0.64118963E-01 0.12499701E+03</pdfrwt>
<totfact> 0.13803782E+03</totfact>
</mgrwt>
</event>
<event>
 5    1  0.1431256E-002  0.1249928E+03  0.7818608E-02  0.1235081E+00
          4   -1    0    0  501    0  0.00000000000E+00  0.00000000000E+00  0.12261770553E+03  0.12262428230E+03  0.12700000000E+01 0.  1.
         -4   -1    0    0    0  501 -0.00000000000E+00 -0.00000000000E+00 -0.31833376696E+02  0.31858700097E+02  0.12700000000E+01 0.  1.
         25    2    1    2    0    0  0.00000000000E+00  0.00000000000E+00  0.90784328830E+02  0.15448298239E+03  0.12499278974E+03 0.  0.
    9000005    1    3    3    0    0  0.40556329010E+02 -0.47474167796E+02  0.48466375482E+02  0.79048099174E+02  0.10000000000E+01 0.  0.
    9000005    1    3    3    0    0 -0.40556329010E+02  0.47474167796E+02  0.42317953348E+02  0.75434883219E+02  0.10000000000E+01 0.  0.
<mgrwt>
<rscale>  0 0.12499279E+03</rscale>
<asrwt>0</asrwt>
<pdfrwt beam="1">  1        4 0.30658414E-01 0.12499279E+03</pdfrwt>
<pdfrwt beam="2">  1       -4 0.79623317E-02 0.12499279E+03</pdfrwt>
<totfact> 0.18323599E+03</totfact>
</mgrwt>
</event>
<event>
 5    1  0.1431256E-002  0.1250000E+03  0.7818608E-02  0.1235069E+00
         -4   -1    0    0    0  501 -0.00000000000E+00  0.00000000000E+00  0.11772473870E+02  0.11840778734E+02  0.12700000000E+01 0. -1.
          4   -1    0    0  501    0  0.00000000000E+00 -0.00000000000E+00 -0.33078278391E+03  0.33078522191E+03  0.12700000000E+01 0. -1.
         25    2    1    2    0    0  0.00000000000E+00  0.00000000000E+00 -0.31901031004E+03  0.34262600064E+03  0.12499999361E+03 0.  0.
    9000005    1    3    3    0    0 -0.21010903925E+02 -0.57356749043E+02 -0.19566100125E+03  0.20497678443E+03  0.10000000000E+01 0.  0.
    9000005    1    3    3    0    0  0.21010903925E+02  0.57356749043E+02 -0.12334930879E+03  0.13764921621E+03  0.10000000000E+01 0.  0.
<mgrwt>
<rscale>  0 0.12499999E+03</rscale>
<asrwt>0</asrwt>
<pdfrwt beam="2">  1        4 0.82704508E-01 0.12499999E+03</pdfrwt>
<pdfrwt beam="1">  1       -4 0.29519624E-02 0.12499999E+03</pdfrwt>
<totfact> 0.11855231E+03</totfact>
</mgrwt>
</event>
<event>
 5    1  0.1431256E-002  0.1249977E+03  0.7818608E-02  0.1235073E+00
          4   -1    0    0  501    0  0.00000000000E+00  0.00000000000E+00  0.54009125615E+02  0.54024055287E+02  0.12700000000E+01 0. -1.
         -4   -1    0    0    0  501 -0.00000000000E+00 -0.00000000000E+00 -0.72292615852E+02  0.72303770349E+02  0.12700000000E+01 0. -1.
         25    2    1    2    0    0  0.00000000000E+00  0.00000000000E+00 -0.18283490237E+02  0.12632782564E+03  0.12499773404E+03 0.  0.
    9000005    1    3    3    0    0  0.25854748037E+02 -0.35347765711E+02 -0.54193844174E+02  0.69684325951E+02  0.10000000000E+01 0.  0.
    9000005    1    3    3    0    0 -0.25854748037E+02  0.35347765711E+02  0.35910353937E+02  0.56643499686E+02  0.10000000000E+01 0.  0.
<mgrwt>
<rscale>  0 0.12499773E+03</rscale>
<asrwt>0</asrwt>
<pdfrwt beam="1">  1        4 0.13505542E-01 0.12499773E+03</pdfrwt>
<pdfrwt beam="2">  1       -4 0.18076414E-01 0.12499773E+03</pdfrwt>
<totfact> 0.19764263E+03</totfact>
</mgrwt>
</event>
<event>
 4    1  0.1431256E-002  0.1250639E+03  0.7818608E-02  0.1234969E+00
         -4   -1    0    0    0  501 -0.00000000000E+00  0.00000000000E+00  0.17945889772E+02  0.17990771515E+02  0.12700000000E+01 0. -1.
          4   -1    0    0  501    0  0.00000000000E+00 -0.00000000000E+00 -0.21757199681E+03  0.21757570337E+03  0.12700000000E+01 0. -1.
    9000005    1    1    2    0    0 -0.65640395249E+00  0.50628645300E+02 -0.30720352048E+02  0.59232006728E+02  0.10000000000E+01 0.  0.
    9000005    1    1    2    0    0  0.65640395249E+00 -0.50628645300E+02 -0.16890575499E+03  0.17633446816E+03  0.10000000000E+01 0.  0.
<mgrwt>
<rscale>  0 0.12506391E+03</rscale>
<asrwt>0</asrwt>
<pdfrwt beam="2">  1        4 0.54399064E-01 0.12506391E+03</pdfrwt>
<pdfrwt beam="1">  1       -4 0.44925467E-02 0.12506391E+03</pdfrwt>
<totfact> 0.14968378E+03</totfact>
</mgrwt>
</event>
<event>
 5    1  0.1431256E-002  0.1249608E+03  0.7818608E-02  0.1235131E+00
         -4   -1    0    0    0  501 -0.00000000000E+00  0.00000000000E+00  0.16110287681E+02  0.16160268227E+02  0.12700000000E+01 0.  1.
          4   -1    0    0  501    0  0.00000000000E+00 -0.00000000000E+00 -0.24189010691E+03  0.24189344084E+03  0.12700000000E+01 0.  1.
         25    2    1    2    0    0  0.00000000000E+00  0.00000000000E+00 -0.22577981923E+03  0.25805370906E+03  0.12496075380E+03 0.  0.
    9000005    1    3    3    0    0  0.21397093251E+02  0.42708924610E+02 -0.19603103029E+03  0.20176980120E+03  0.10000000000E+01 0.  0.
    9000005    1    3    3    0    0 -0.21397093251E+02 -0.42708924610E+02 -0.29748788938E+02  0.56283907861E+02  0.10000000000E+01 0.  0.
<mgrwt>
<rscale>  0 0.12496075E+03</rscale>
<asrwt>0</asrwt>
<pdfrwt beam="2">  1        4 0.60479179E-01 0.12496075E+03</pdfrwt>
<pdfrwt beam="1">  1       -4 0.40342370E-02 0.12496075E+03</pdfrwt>
<totfact> 0.14246712E+03</totfact>
</mgrwt>
</event>
<event>
 5    1  0.1431256E-002  0.1250021E+03  0.7818608E-02  0.1235066E+00
         -4   -1    0    0    0  501 -0.00000000000E+00  0.00000000000E+00  0.19710259374E+03  0.19710668522E+03  0.12700000000E+01 0. -1.
          4   -1    0    0  501    0  0.00000000000E+00 -0.00000000000E+00 -0.19794362673E+02  0.19835062229E+02  0.12700000000E+01 0. -1.
         25    2    1    2    0    0  0.00000000000E+00  0.00000000000E+00  0.17730823106E+03  0.21694174745E+03  0.12500205191E+03 0.  0.
    9000005    1    3    3    0    0 -0.59804258277E+02 -0.15990043589E+02  0.10349724817E+03  0.12060228514E+03  0.10000000000E+01 0.  0.
    9000005    1    3    3    0    0  0.59804258277E+02  0.15990043589E+02  0.73810982894E+02  0.96339462308E+02  0.10000000000E+01 0.  0.
<mgrwt>
<rscale>  0 0.12500205E+03</rscale>
<asrwt>0</asrwt>
<pdfrwt beam="2">  1        4 0.49541896E-02 0.12500205E+03</pdfrwt>
<pdfrwt beam="1">  1       -4 0.49281246E-01 0.12500205E+03</pdfrwt>
<totfact> 0.15664673E+03</totfact>
</mgrwt>
</event>
<event>
 5    1  0.1431256E-002  0.1250034E+03  0.7818608E-02  0.1235064E+00
         -4   -1    0    0    0  501 -0.00000000000E+00  0.00000000000E+00  0.54194481972E+02  0.54209360595E+02  0.12700000000E+01 0. -1.
          4   -1    0    0  501    0  0.00000000000E+00 -0.00000000000E+00 -0.72051939813E+02  0.72063131564E+02  0.12700000000E+01 0. -1.
         25    2    1    2    0    0  0.00000000000E+00  0.00000000000E+00 -0.17857457841E+02  0.12627249216E+03  0.12500341386E+03 0.  0.
    9000005    1    3    3    0    0 -0.32943590855E+01 -0.61510504009E+02  0.17171680914E+01  0.61630703156E+02  0.10000000000E+01 0.  0.
    9000005    1    3    3    0    0  0.32943590855E+01  0.61510504009E+02 -0.19574625933E+02  0.64641789004E+02  0.10000000000E+01 0.  0.
<mgrwt>
<rscale>  0 0.12500341E+03</rscale>
<asrwt>0</asrwt>
<pdfrwt beam="2">  1        4 0.18016244E-01 0.12500341E+03</pdfrwt>
<pdfrwt beam="1">  1       -4 0.13551879E-01 0.12500341E+03</pdfrwt>
<totfact> 0.19764624E+03</totfact>
</mgrwt>
</event>
<event>
 5    1  0.1431256E-002  0.1250064E+03  0.7818608E-02  0.1235059E+00
         -4   -1    0    0    0  501 -0.00000000000E+00  0.00000000000E+00  0.52689582398E+02  0.52704885858E+02  0.12700000000E+01 0. -1.
          4   -1    0    0  501    0  0.00000000000E+00 -0.00000000000E+00 -0.74113149243E+02  0.74124029779E+02  0.12700000000E+01 0. -1.
         25    2    1    2    0    0  0.00000000000E+00  0.00000000000E+00 -0.21423566845E+02  0.12682891564E+03  0.12500641834E+03 0.  0.
    9000005    1    3    3    0    0  0.19254657062E+02 -0.30755602572E+02  0.40912279459E+02  0.54694273180E+02  0.10000000000E+01 0.  0.
    9000005    1    3    3    0    0 -0.19254657062E+02  0.30755602572E+02 -0.62335846303E+02  0.72134642458E+02  0.10000000000E+01 0.  0.
<mgrwt>
<rscale>  0 0.12500642E+03</rscale>
<asrwt>0</asrwt>
<pdfrwt beam="2">  1        4 0.18531560E-01 0.12500642E+03</pdfrwt>
<pdfrwt beam="1">  1       -4 0.13175669E-01 0.12500642E+03</pdfrwt>
<totfact> 0.19733230E+03</totfact>
</mgrwt>
</event>
<event>
 5    1  0.1431256E-002  0.1250047E+03  0.7818608E-02  0.1235062E+00
         -4   -1    0    0    0  501 -0.00000000000E+00  0.00000000000E+00  0.10461308581E+02  0.10538115450E+02  0.12700000000E+01 0. -1.
          4   -1    0    0  501    0  0.00000000000E+00 -0.00000000000E+00 -0.37198416275E+03  0.37198633071E+03  0.12700000000E+01 0. -1.
         25    2    1    2    0    0  0.00000000000E+00  0.00000000000E+00 -0.36152285417E+03  0.38252444616E+03  0.12500471121E+03 0.  0.
    9000005    1    3    3    0    0 -0.58493893102E+01 -0.62079056070E+02 -0.19356993693E+03  0.20336751226E+03  0.10000000000E+01 0.  0.
    9000005    1    3    3    0    0  0.58493893102E+01  0.62079056070E+02 -0.16795291724E+03  0.17915693391E+03  0.10000000000E+01 0.  0.
<mgrwt>
<rscale>  0 0.12500471E+03</rscale>
<asrwt>0</asrwt>
<pdfrwt beam="2">  1        4 0.93005869E-01 0.12500471E+03</pdfrwt>
<pdfrwt beam="1">  1       -4 0.26252002E-02 0.12500471E+03</pdfrwt>
<totfact> 0.10937078E+03</totfact>
</mgrwt>
</event>
<event>
 5    1  0.1431256E-002  0.1250004E+03  0.7818608E-02  0.1235069E+00
          4   -1    0    0  501    0  0.00000000000E+00  0.00000000000E+00  0.27244918657E+02  0.27274502610E+02  0.12700000000E+01 0. -1.
         -4   -1    0    0    0  501 -0.00000000000E+00 -0.00000000000E+00 -0.14326618996E+03  0.14327181889E+03  0.12700000000E+01 0. -1.
         25    2    1    2    0    0  0.00000000000E+00  0.00000000000E+00 -0.11602127131E+03  0.17054632150E+03  0.12500044952E+03 0.  0.
    9000005    1    3    3    0    0 -0.20011247352E+02  0.43233807028E+02 -0.11319017817E+03  0.12281135340E+03  0.10000000000E+01 0.  0.
    9000005    1    3    3    0    0  0.20011247352E+02 -0.43233807028E+02 -0.28310931405E+01  0.47734968096E+02  0.10000000000E+01 0.  0.
<mgrwt>
<rscale>  0 0.12500045E+03</rscale>
<asrwt>0</asrwt>
<pdfrwt beam="1">  1        4 0.68156317E-02 0.12500045E+03</pdfrwt>
<pdfrwt beam="2">  1       -4 0.35820947E-01 0.12500045E+03</pdfrwt>
<totfact> 0.17572251E+03</totfact>
</mgrwt>
</event>
<event>
 5    1  0.1431256E-002  0.1249959E+03  0.7818608E-02  0.1235076E+00
         -4   -1    0    0    0  501 -0.00000000000E+00  0.00000000000E+00  0.32449239407E+03  0.32449487933E+03  0.12700000000E+01 0. -1.
          4   -1    0    0  501    0  0.00000000000E+00 -0.00000000000E+00 -0.12001202306E+02  0.12068212659E+02  0.12700000000E+01 0. -1.
         25    2    1    2    0    0  0.00000000000E+00  0.00000000000E+00  0.31249119176E+03  0.33656309198E+03  0.12499587976E+03 0.  0.
    9000005    1    3    3    0    0  0.42379627345E+02  0.31277961844E+01  0.32879654797E+02  0.53739069795E+02  0.10000000000E+01 0.  0.
    9000005    1    3    3    0    0 -0.42379627345E+02 -0.31277961844E+01  0.27961153697E+03  0.28282402219E+03  0.10000000000E+01 0.  0.
<mgrwt>
<rscale>  0 0.12499588E+03</rscale>
<asrwt>0</asrwt>
<pdfrwt beam="2">  1        4 0.30089874E-02 0.12499588E+03</pdfrwt>
<pdfrwt beam="1">  1       -4 0.81131789E-01 0.12499588E+03</pdfrwt>
<totfact> 0.12005965E+03</totfact>
</mgrwt>
</event>
<event>
 5    1  0.1431256E-002  0.1249989E+03  0.7818608E-02  0.1235071E+00
          4   -1    0    0  501    0  0.00000000000E+00  0.00000000000E+00  0.10930314303E+03  0.10931052088E+03  0.12700000000E+01 0. -1.
         -4   -1    0    0    0  501 -0.00000000000E+00 -0.00000000000E+00 -0.35717241963E+02  0.35739813562E+02  0.12700000000E+01 0. -1.
         25    2    1    2    0    0  0.00000000000E+00  0.00000000000E+00  0.73585901062E+02  0.14505033444E+03  0.12499885874E+03 0.  0.
    9000005    1    3    3    0    0  0.27695402156E+02  0.53904157028E+02  0.19099588386E+02  0.63549096940E+02  0.10000000000E+01 0.  0.
    9000005    1    3    3    0    0 -0.27695402156E+02 -0.53904157028E+02  0.54486312676E+02  0.81501237503E+02  0.10000000000E+01 0.  0.
<mgrwt>
<rscale>  0 0.12499886E+03</rscale>
<asrwt>0</asrwt>
<pdfrwt beam="1">  1        4 0.27329529E-01 0.12499886E+03</pdfrwt>
<pdfrwt beam="2">  1       -4 0.89330542E-02 0.12499886E+03</pdfrwt>
<totfact> 0.18785334E+03</totfact>
</mgrwt>
</event>
<event>
 5    1  0.1431256E-002  0.1249995E+03  0.7818608E-02  0.1235070E+00
         -4   -1    0    0    0  501 -0.00000000000E+00  0.00000000000E+00  0.38279876775E+01  0.40331612488E+01  0.12700000000E+01 0.  1.
          4   -1    0    0  501    0  0.00000000000E+00 -0.00000000000E+00 -0.99359803535E+03  0.99359884700E+03  0.12700000000E+01 0.  1.
         25    2    1    2    0    0  0.00000000000E+00  0.00000000000E+00 -0.98977004767E+03  0.99763200825E+03  0.12499950642E+03 0.  0.
    9000005    1    3    3    0    0  0.35861147350E+02 -0.51038972705E+02 -0.46478825145E+03  0.46895641302E+03  0.10000000000E+01 0.  0.
    9000005    1    3    3    0    0 -0.35861147350E+02  0.51038972705E+02 -0.52498179623E+03  0.52867559523E+03  0.10000000000E+01 0.  0.
<mgrwt>
<rscale>  0 0.12499951E+03</rscale>
<asrwt>0</asrwt>
<pdfrwt beam="2">  1        4 0.24842440E+00 0.12499951E+03</pdfrwt>
<pdfrwt beam="1">  1       -4 0.98274847E-03 0.12499951E+03</pdfrwt>
<totfact> 0.37269641E+02</totfact>
</mgrwt>
</event>
<event>
 4    1  0.1431256E-002  0.1255814E+03  0.7818608E-02  0.1234164E+00
         -4   -1    0    0    0  501 -0.00000000000E+00  0.00000000000E+00  0.18785898736E+03  0.18786328016E+03  0.12700000000E+01 0. -1.
          4   -1    0    0  501    0  0.00000000000E+00 -0.00000000000E+00 -0.20963637919E+02  0.21002071679E+02  0.12700000000E+01 0. -1.
    9000005    1    1    2    0    0  0.48102439127E+01  0.38356222089E+02  0.16572640789E+03  0.17017808464E+03  0.10000000000E+01 0.  0.
    9000005    1    1    2    0    0 -0.48102439127E+01 -0.38356222089E+02  0.11689415583E+01  0.38687267205E+02  0.10000000000E+01 0.  0.
<mgrwt>
<rscale>  0 0.12558136E+03</rscale>
<asrwt>0</asrwt>
<pdfrwt beam="2">  1        4 0.52462503E-02 0.12558136E+03</pdfrwt>
<pdfrwt beam="1">  1       -4 0.46970088E-01 0.12558136E+03</pdfrwt>
<totfact> 0.15760456E+03</totfact>
</mgrwt>
</event>
<event>
 5    1  0.1431256E-002  0.1250133E+03  0.7818608E-02  0.1235048E+00
         -4   -1    0    0    0  501 -0.00000000000E+00  0.00000000000E+00  0.47596105369E+02  0.47613045967E+02  0.12700000000E+01 0.  1.
          4   -1    0    0  501    0  0.00000000000E+00 -0.00000000000E+00 -0.82051848392E+02  0.82061676345E+02  0.12700000000E+01 0.  1.
         25    2    1    2    0    0  0.00000000000E+00  0.00000000000E+00 -0.34455743023E+02  0.12967472231E+03  0.12501334081E+03 0.  0.
    9000005    1    3    3    0    0 -0.34068943997E+02 -0.52394303441E+02 -0.17723024527E+02  0.64968927777E+02  0.10000000000E+01 0.  0.
    9000005    1    3    3    0    0  0.34068943997E+02  0.52394303441E+02 -0.16732718496E+02  0.64705794535E+02  0.10000000000E+01 0.  0.
<mgrwt>
<rscale>  0 0.12501334E+03</rscale>
<asrwt>0</asrwt>
<pdfrwt beam="2">  1        4 0.20516308E-01 0.12501334E+03</pdfrwt>
<pdfrwt beam="1">  1       -4 0.11902373E-01 0.12501334E+03</pdfrwt>
<totfact> 0.19575789E+03</totfact>
</mgrwt>
</event>
<event>
 5    1  0.1431256E-002  0.1249984E+03  0.7818608E-02  0.1235072E+00
          4   -1    0    0  501    0  0.00000000000E+00  0.00000000000E+00  0.82844207339E+02  0.82853941304E+02  0.12700000000E+01 0. -1.
         -4   -1    0    0    0  501 -0.00000000000E+00 -0.00000000000E+00 -0.47129454917E+02  0.47146563191E+02  0.12700000000E+01 0. -1.
         25    2    1    2    0    0  0.00000000000E+00  0.00000000000E+00  0.35714752422E+02  0.13000050450E+03  0.12499835050E+03 0.  0.
    9000005    1    3    3    0    0 -0.22951531803E+01 -0.11068818095E+02  0.81777111796E+02  0.82560780495E+02  0.10000000000E+01 0.  0.
    9000005    1    3    3    0    0  0.22951531803E+01  0.11068818095E+02 -0.46062359374E+02  0.47439724001E+02  0.10000000000E+01 0.  0.
<mgrwt>
<rscale>  0 0.12499835E+03</rscale>
<asrwt>0</asrwt>
<pdfrwt beam="1">  1        4 0.20714407E-01 0.12499835E+03</pdfrwt>
<pdfrwt beam="2">  1       -4 0.11785719E-01 0.12499835E+03</pdfrwt>
<totfact> 0.19565108E+03</totfact>
</mgrwt>
</event>
<event>
 5    1  0.1431256E-002  0.1250156E+03  0.7818608E-02  0.1235045E+00
         -4   -1    0    0    0  501 -0.00000000000E+00  0.00000000000E+00  0.24132900141E+02  0.24166294073E+02  0.12700000000E+01 0. -1.
          4   -1    0    0  501    0  0.00000000000E+00 -0.00000000000E+00 -0.16175660837E+03  0.16176159387E+03  0.12700000000E+01 0. -1.
         25    2    1    2    0    0  0.00000000000E+00  0.00000000000E+00 -0.13762370823E+03  0.18592788794E+03  0.12501557682E+03 0.  0.
    9000005    1    3    3    0    0 -0.69710841185E+01 -0.50814820492E+02 -0.15696814632E+02  0.53648224435E+02  0.10000000000E+01 0.  0.
    9000005    1    3    3    0    0  0.69710841185E+01  0.50814820492E+02 -0.12192689359E+03  0.13227966351E+03  0.10000000000E+01 0.  0.
<mgrwt>
<rscale>  0 0.12501558E+03</rscale>
<asrwt>0</asrwt>
<pdfrwt beam="2">  1        4 0.40443946E-01 0.12501558E+03</pdfrwt>
<pdfrwt beam="1">  1       -4 0.60380229E-02 0.12501558E+03</pdfrwt>
<totfact> 0.16895368E+03</totfact>
</mgrwt>
</event>
<event>
 5    1  0.1431256E-002  0.1249978E+03  0.7818608E-02  0.1235073E+00
         -4   -1    0    0    0  501 -0.00000000000E+00  0.00000000000E+00  0.15470486316E+02  0.15522527077E+02  0.12700000000E+01 0.  1.
          4   -1    0    0  501    0  0.00000000000E+00 -0.00000000000E+00 -0.25201034216E+03  0.25201354221E+03  0.12700000000E+01 0.  1.
         25    2    1    2    0    0  0.00000000000E+00  0.00000000000E+00 -0.23653985585E+03  0.26753606929E+03  0.12499777984E+03 0.  0.
    9000005    1    3    3    0    0 -0.25184556127E+02 -0.86543380427E+01 -0.23926847449E+03  0.24074792277E+03  0.10000000000E+01 0.  0.
    9000005    1    3    3    0    0  0.25184556127E+02  0.86543380427E+01  0.27286186381E+01  0.26788146520E+02  0.10000000000E+01 0.  0.
<mgrwt>
<rscale>  0 0.12499778E+03</rscale>
<asrwt>0</asrwt>
<pdfrwt beam="2">  1        4 0.63009478E-01 0.12499778E+03</pdfrwt>
<pdfrwt beam="1">  1       -4 0.38745275E-02 0.12499778E+03</pdfrwt>
<totfact> 0.13933028E+03</totfact>
</mgrwt>
</event>
<event>
 5    1  0.1431256E-002  0.1249997E+03  0.7818608E-02  0.1235070E+00
         -4   -1    0    0    0  501 -0.00000000000E+00  0.00000000000E+00  0.10085662371E+03  0.10086461940E+03  0.12700000000E+01 0. -1.
          4   -1    0    0  501    0  0.00000000000E+00 -0.00000000000E+00 -0.38710582190E+02  0.38731409392E+02  0.12700000000E+01 0. -1.
         25    2    1    2    0    0  0.00000000000E+00  0.00000000000E+00  0.62146041521E+02  0.13959602879E+03  0.12499968311E+03 0.  0.
    9000005    1    3    3    0    0  0.10574851649E+02  0.25119584751E+02  0.93874978448E+02  0.97756496480E+02  0.10000000000E+01 0.  0.
    9000005    1    3    3    0    0 -0.10574851649E+02 -0.25119584751E+02 -0.31728936927E+02  0.41839532310E+02  0.10000000000E+01 0.  0.
<mgrwt>
<rscale>  0 0.12499968E+03</rscale>
<asrwt>0</asrwt>
<pdfrwt beam="2">  1        4 0.96812485E-02 0.12499968E+03</pdfrwt>
<pdfrwt beam="1">  1       -4 0.25217759E-01 0.12499968E+03</pdfrwt>
<totfact> 0.19061169E+03</totfact>
</mgrwt>
</event>
<event>
 5    1  0.1431256E-002  0.1250005E+03  0.7818608E-02  0.1235068E+00
          4   -1    0    0  501    0  0.00000000000E+00  0.00000000000E+00  0.77678824733E+01  0.78710163333E+01  0.12700000000E+01 0. -1.
         -4   -1    0    0    0  501 -0.00000000000E+00 -0.00000000000E+00 -0.49945593748E+03  0.49945755213E+03  0.12700000000E+01 0. -1.
         25    2    1    2    0    0  0.00000000000E+00  0.00000000000E+00 -0.49168805500E+03  0.50732856846E+03  0.12500053179E+03 0.  0.
    9000005    1    3    3    0    0  0.51505746885E+02  0.33019589935E+02 -0.29752529975E+03  0.30375226628E+03  0.10000000000E+01 0.  0.
    9000005    1    3    3    0    0 -0.51505746885E+02 -0.33019589935E+02 -0.19416275526E+03  0.20357630218E+03  0.10000000000E+01 0.  0.
<mgrwt>
<rscale>  0 0.12500053E+03</rscale>
<asrwt>0</asrwt>
<pdfrwt beam="1">  1        4 0.19550659E-02 0.12500053E+03</pdfrwt>
<pdfrwt beam="2">  1       -4 0.12487697E+00 0.12500053E+03</pdfrwt>
<totfact> 0.86451973E+02</totfact>
</mgrwt>
</event>
<event>
 5    1  0.1431256E-002  0.1250015E+03  0.7818608E-02  0.1235067E+00
         -4   -1    0    0    0  501 -0.00000000000E+00  0.00000000000E+00  0.31144898420E+02  0.31170781151E+02  0.12700000000E+01 0.  1.
          4   -1    0    0  501    0  0.00000000000E+00 -0.00000000000E+00 -0.12534355006E+03  0.12534998381E+03  0.12700000000E+01 0.  1.
         25    2    1    2    0    0  0.00000000000E+00  0.00000000000E+00 -0.94198651637E+02  0.15652076496E+03  0.12500145556E+03 0.  0.
    9000005    1    3    3    0    0  0.53079930359E+02  0.63478956234E+01 -0.65720298793E+01  0.53869902195E+02  0.10000000000E+01 0.  0.
    9000005    1    3    3    0    0 -0.53079930359E+02 -0.63478956234E+01 -0.87626621757E+02  0.10265086276E+03  0.10000000000E+01 0.  0.
<mgrwt>
<rscale>  0 0.12500146E+03</rscale>
<asrwt>0</asrwt>
<pdfrwt beam="2">  1        4 0.31339926E-01 0.12500146E+03</pdfrwt>
<pdfrwt beam="1">  1       -4 0.77902645E-02 0.12500146E+03</pdfrwt>
<totfact> 0.18222115E+03</totfact>
</mgrwt>
</event>
<event>
 5    1  0.1431256E-002  0.1249978E+03  0.7818608E-02  0.1235073E+00
          4   -1    0    0  501    0  0.00000000000E+00  0.00000000000E+00  0.71215552836E+02  0.71226876007E+02  0.12700000000E+01 0. -1.
         -4   -1    0    0    0  501 -0.00000000000E+00 -0.00000000000E+00 -0.54826082044E+02  0.54840789312E+02  0.12700000000E+01 0. -1.
         25    2    1    2    0    0  0.00000000000E+00  0.00000000000E+00  0.16389470792E+02  0.12606766532E+03  0.12499776592E+03 0.  0.
    9000005    1    3    3    0    0 -0.43793582317E+02 -0.30507293856E+02 -0.24587904686E+02  0.58771914104E+02  0.10000000000E+01 0.  0.
    9000005    1    3    3    0    0  0.43793582317E+02  0.30507293856E+02  0.40977375478E+02  0.67295751215E+02  0.10000000000E+01 0.  0.
<mgrwt>
<rscale>  0 0.12499777E+03</rscale>
<asrwt>0</asrwt>
<pdfrwt beam="1">  1        4 0.17807142E-01 0.12499777E+03</pdfrwt>
<pdfrwt beam="2">  1       -4 0.13709774E-01 0.12499777E+03</pdfrwt>
<totfact> 0.19778297E+03</totfact>
</mgrwt>
</event>
<event>
 5    1  0.1431256E-002  0.1249948E+03  0.7818608E-02  0.1235077E+00
         -4   -1    0    0    0  501 -0.00000000000E+00  0.00000000000E+00  0.72258932271E+02  0.72270091967E+02  0.12700000000E+01 0.  1.
          4   -1    0    0  501    0  0.00000000000E+00 -0.00000000000E+00 -0.54031769334E+02  0.54046692752E+02  0.12700000000E+01 0.  1.
         25    2    1    2    0    0  0.00000000000E+00  0.00000000000E+00  0.18227162937E+02  0.12631678472E+03  0.12499480242E+03 0.  0.
    9000005    1    3    3    0    0  0.47260244490E+01 -0.35518579390E+02  0.60850946469E+02  0.70623951144E+02  0.10000000000E+01 0.  0.
    9000005    1    3    3    0    0 -0.47260244490E+01  0.35518579390E+02 -0.42623783532E+02  0.55692833575E+02  0.10000000000E+01 0.  0.
<mgrwt>
<rscale>  0 0.12499480E+03</rscale>
<asrwt>0</asrwt>
<pdfrwt beam="2">  1        4 0.13511203E-01 0.12499480E+03</pdfrwt>
<pdfrwt beam="1">  1       -4 0.18067993E-01 0.12499480E+03</pdfrwt>
<totfact> 0.19766214E+03</totfact>
</mgrwt>
</event>
<event>
 5    1  0.1431256E-002  0.1249978E+03  0.7818608E-02  0.1235073E+00
          4   -1    0    0  501    0  0.00000000000E+00  0.00000000000E+00  0.67567333968E+01  0.68750524503E+01  0.12700000000E+01 0.  1.
         -4   -1    0    0    0  501 -0.00000000000E+00 -0.00000000000E+00 -0.57296989482E+03  0.57297130231E+03  0.12700000000E+01 0.  1.
         25    2    1    2    0    0  0.00000000000E+00  0.00000000000E+00 -0.56621316143E+03  0.57984635476E+03  0.12499780382E+03 0.  0.
    9000005    1    3    3    0    0 -0.30012065232E+02 -0.22601857487E+02 -0.51474955319E+03  0.51611982187E+03  0.10000000000E+01 0.  0.
    9000005    1    3    3    0    0  0.30012065232E+02  0.22601857487E+02 -0.51463608236E+02  0.63726532889E+02  0.10000000000E+01 0.  0.
<mgrwt>
<rscale>  0 0.12499780E+03</rscale>
<asrwt>0</asrwt>
<pdfrwt beam="1">  1        4 0.17041511E-02 0.12499780E+03</pdfrwt>
<pdfrwt beam="2">  1       -4 0.14325728E+00 0.12499780E+03</pdfrwt>
<totfact> 0.76102527E+02</totfact>
</mgrwt>
</event>
<event>
 5    1  0.1431256E-002  0.1250064E+03  0.7818608E-02  0.1235059E+00
         -4   -1    0    0    0  501 -0.00000000000E+00  0.00000000000E+00  0.83745781214E+02  0.83755410399E+02  0.12700000000E+01 0. -1.
          4   -1    0    0  501    0  0.00000000000E+00 -0.00000000000E+00 -0.46627973426E+02  0.46645265631E+02  0.12700000000E+01 0. -1.
         25    2    1    2    0    0  0.00000000000E+00  0.00000000000E+00  0.37117807788E+02  0.13040067603E+03  0.12500641845E+03 0.  0.
    9000005    1    3    3    0    0 -0.58156658580E+02 -0.21952778753E+02  0.11836461467E+02  0.63286833166E+02  0.10000000000E+01 0.  0.
    9000005    1    3    3    0    0  0.58156658580E+02  0.21952778753E+02  0.25281346321E+02  0.67113842864E+02  0.10000000000E+01 0.  0.
<mgrwt>
<rscale>  0 0.12500642E+03</rscale>
<asrwt>0</asrwt>
<pdfrwt beam="2">  1        4 0.11660359E-01 0.12500642E+03</pdfrwt>
<pdfrwt beam="1">  1       -4 0.20939810E-01 0.12500642E+03</pdfrwt>
<totfact> 0.19539939E+03</totfact>
</mgrwt>
</event>
<event>
 5    1  0.1431256E-002  0.1250343E+03  0.7818608E-02  0.1235016E+00
         -4   -1    0    0    0  501 -0.00000000000E+00  0.00000000000E+00  0.88603943540E+01  0.89509490060E+01  0.12700000000E+01 0. -1.
          4   -1    0    0  501    0  0.00000000000E+00 -0.00000000000E+00 -0.43877453186E+03  0.43877636981E+03  0.12700000000E+01 0. -1.
         25    2    1    2    0    0  0.00000000000E+00  0.00000000000E+00 -0.42991413750E+03  0.44772731882E+03  0.12503434085E+03 0.  0.
    9000005    1    3    3    0    0 -0.26084428218E+02 -0.65234227152E+01 -0.12887411767E+02  0.29833501662E+02  0.10000000000E+01 0.  0.
    9000005    1    3    3    0    0  0.26084428218E+02  0.65234227152E+01 -0.41702672574E+03  0.41789381716E+03  0.10000000000E+01 0.  0.
<mgrwt>
<rscale>  0 0.12503434E+03</rscale>
<asrwt>0</asrwt>
<pdfrwt beam="2">  1        4 0.10970511E+00 0.12503434E+03</pdfrwt>
<pdfrwt beam="1">  1       -4 0.22266491E-02 0.12503434E+03</pdfrwt>
<totfact> 0.96351263E+02</totfact>
</mgrwt>
</event>
<event>
 5    1  0.1431256E-002  0.1249766E+03  0.7818608E-02  0.1235106E+00
          4   -1    0    0  501    0  0.00000000000E+00  0.00000000000E+00  0.66829115395E+02  0.66841181650E+02  0.12700000000E+01 0. -1.
         -4   -1    0    0    0  501 -0.00000000000E+00 -0.00000000000E+00 -0.58405191748E+02  0.58418997964E+02  0.12700000000E+01 0. -1.
         25    2    1    2    0    0  0.00000000000E+00  0.00000000000E+00  0.84239236462E+01  0.12526017961E+03  0.12497659824E+03 0.  0.
    9000005    1    3    3    0    0  0.65431807230E+01 -0.30728454939E+02  0.58341325197E+02  0.66270365795E+02  0.10000000000E+01 0.  0.
    9000005    1    3    3    0    0 -0.65431807230E+01  0.30728454939E+02 -0.49917401551E+02  0.58989813820E+02  0.10000000000E+01 0.  0.
<mgrwt>
<rscale>  0 0.12497660E+03</rscale>
<asrwt>0</asrwt>
<pdfrwt beam="1">  1        4 0.16710513E-01 0.12497660E+03</pdfrwt>
<pdfrwt beam="2">  1       -4 0.14604532E-01 0.12497660E+03</pdfrwt>
<totfact> 0.19831808E+03</totfact>
</mgrwt>
</event>
<event>
 5    1  0.1431256E-002  0.1249951E+03  0.7818608E-02  0.1235077E+00
         -4   -1    0    0    0  501 -0.00000000000E+00  0.00000000000E+00  0.14554716944E+03  0.14555271015E+03  0.12700000000E+01 0. -1.
          4   -1    0    0  501    0  0.00000000000E+00 -0.00000000000E+00 -0.26815214610E+02  0.26845272109E+02  0.12700000000E+01 0. -1.
         25    2    1    2    0    0  0.00000000000E+00  0.00000000000E+00  0.11873195483E+03  0.17239798226E+03  0.12499514866E+03 0.  0.
    9000005    1    3    3    0    0  0.26754407999E+02  0.53337745252E+02  0.84955696159E+02  0.10382284780E+03  0.10000000000E+01 0.  0.
    9000005    1    3    3    0    0 -0.26754407999E+02 -0.53337745252E+02  0.33776258672E+02  0.68575134457E+02  0.10000000000E+01 0.  0.
<mgrwt>
<rscale>  0 0.12499515E+03</rscale>
<asrwt>0</asrwt>
<pdfrwt beam="2">  1        4 0.67082535E-02 0.12499515E+03</pdfrwt>
<pdfrwt beam="1">  1       -4 0.36391242E-01 0.12499515E+03</pdfrwt>
<totfact> 0.17491396E+03</totfact>
</mgrwt>
</event>
<event>
 5    1  0.1431256E-002  0.1249998E+03  0.7818608E-02  0.1235070E+00
          4   -1    0    0  501    0  0.00000000000E+00  0.00000000000E+00  0.57332992293E+02  0.57347056640E+02  0.12700000000E+01 0. -1.
         -4   -1    0    0    0  501 -0.00000000000E+00 -0.00000000000E+00 -0.68104148515E+02  0.68115988908E+02  0.12700000000E+01 0. -1.
         25    2    1    2    0    0  0.00000000000E+00  0.00000000000E+00 -0.10771156222E+02  0.12546304555E+03  0.12499983197E+03 0.  0.
    9000005    1    3    3    0    0  0.21999726850E+02 -0.22326594990E+02 -0.59648611024E+02  0.67390070652E+02  0.10000000000E+01 0.  0.
    9000005    1    3    3    0    0 -0.21999726850E+02  0.22326594990E+02  0.48877454802E+02  0.58072974896E+02  0.10000000000E+01 0.  0.
<mgrwt>
<rscale>  0 0.12499983E+03</rscale>
<asrwt>0</asrwt>
<pdfrwt beam="1">  1        4 0.14336486E-01 0.12499983E+03</pdfrwt>
<pdfrwt beam="2">  1       -4 0.17029275E-01 0.12499983E+03</pdfrwt>
<totfact> 0.19810042E+03</totfact>
</mgrwt>
</event>
<event>
 5    1  0.1431256E-002  0.1249984E+03  0.7818608E-02  0.1235072E+00
         -4   -1    0    0    0  501 -0.00000000000E+00  0.00000000000E+00  0.85682056193E+01  0.86618154872E+01  0.12700000000E+01 0.  1.
          4   -1    0    0  501    0  0.00000000000E+00 -0.00000000000E+00 -0.45331754126E+03  0.45331932025E+03  0.12700000000E+01 0.  1.
         25    2    1    2    0    0  0.00000000000E+00  0.00000000000E+00 -0.44474933564E+03  0.46198113573E+03  0.12499839289E+03 0.  0.
    9000005    1    3    3    0    0 -0.10106353422E+02 -0.14125193146E+02 -0.51340571225E+00  0.17404684608E+02  0.10000000000E+01 0.  0.
    9000005    1    3    3    0    0  0.10106353422E+02  0.14125193146E+02 -0.44423592992E+03  0.44457645113E+03  0.10000000000E+01 0.  0.
<mgrwt>
<rscale>  0 0.12499839E+03</rscale>
<asrwt>0</asrwt>
<pdfrwt beam="2">  1        4 0.11334123E+00 0.12499839E+03</pdfrwt>
<pdfrwt beam="1">  1       -4 0.21539765E-02 0.12499839E+03</pdfrwt>
<totfact> 0.93908543E+02</totfact>
</mgrwt>
</event>
<event>
 5    1  0.1431256E-002  0.1249970E+03  0.7818608E-02  0.1235074E+00
          4   -1    0    0  501    0  0.00000000000E+00  0.00000000000E+00  0.23911113431E+02  0.23944816673E+02  0.12700000000E+01 0.  1.
         -4   -1    0    0    0  501 -0.00000000000E+00 -0.00000000000E+00 -0.16320637851E+03  0.16321131972E+03  0.12700000000E+01 0.  1.
         25    2    1    2    0    0  0.00000000000E+00  0.00000000000E+00 -0.13929526507E+03  0.18715613639E+03  0.12499699403E+03 0.  0.
    9000005    1    3    3    0    0  0.24016123985E+02  0.62008312195E+00  0.16727725131E+02  0.29291218862E+02  0.10000000000E+01 0.  0.
    9000005    1    3    3    0    0 -0.24016123985E+02 -0.62008312195E+00 -0.15602299021E+03  0.15786491753E+03  0.10000000000E+01 0.  0.
<mgrwt>
<rscale>  0 0.12499699E+03</rscale>
<asrwt>0</asrwt>
<pdfrwt beam="1">  1        4 0.59826094E-02 0.12499699E+03</pdfrwt>
<pdfrwt beam="2">  1       -4 0.40806422E-01 0.12499699E+03</pdfrwt>
<totfact> 0.16850759E+03</totfact>
</mgrwt>
</event>
<event>
 4    1  0.1431256E-002  0.1240418E+03  0.7818608E-02  0.1236574E+00
         -4   -1    0    0    0  501 -0.00000000000E+00  0.00000000000E+00  0.28109788169E+02  0.28138462839E+02  0.12700000000E+01 0. -1.
          4   -1    0    0  501    0  0.00000000000E+00 -0.00000000000E+00 -0.13674036176E+03  0.13674625931E+03  0.12700000000E+01 0. -1.
    9000005    1    1    2    0    0 -0.39428365408E+02 -0.47847100786E+02 -0.52607052966E+02  0.81316929813E+02  0.10000000000E+01 0.  0.
    9000005    1    1    2    0    0  0.39428365408E+02  0.47847100786E+02 -0.56023520626E+02  0.83567792334E+02  0.10000000000E+01 0.  0.
<mgrwt>
<rscale>  0 0.12404181E+03</rscale>
<asrwt>0</asrwt>
<pdfrwt beam="2">  1        4 0.34189410E-01 0.12404181E+03</pdfrwt>
<pdfrwt beam="1">  1       -4 0.70317689E-02 0.12404181E+03</pdfrwt>
<totfact> 0.18232925E+03</totfact>
</mgrwt>
</event>
<event>
 5    1  0.1431256E-002  0.1249971E+03  0.7818608E-02  0.1235074E+00
         -4   -1    0    0    0  501 -0.00000000000E+00  0.00000000000E+00  0.11491862864E+03  0.11492564600E+03  0.12700000000E+01 0. -1.
          4   -1    0    0  501    0  0.00000000000E+00 -0.00000000000E+00 -0.33969954883E+02  0.33993686690E+02  0.12700000000E+01 0. -1.
         25    2    1    2    0    0  0.00000000000E+00  0.00000000000E+00  0.80948673753E+02  0.14891933269E+03  0.12499711943E+03 0.  0.
    9000005    1    3    3    0    0 -0.44449189824E+02 -0.20829315735E+02 -0.55981070494E+01  0.49415884820E+02  0.10000000000E+01 0.  0.
    9000005    1    3    3    0    0  0.44449189824E+02  0.20829315735E+02  0.86546780803E+02  0.99503447866E+02  0.10000000000E+01 0.  0.
<mgrwt>
<rscale>  0 0.12499712E+03</rscale>
<asrwt>0</asrwt>
<pdfrwt beam="2">  1        4 0.84963325E-02 0.12499712E+03</pdfrwt>
<pdfrwt beam="1">  1       -4 0.28733500E-01 0.12499712E+03</pdfrwt>
<totfact> 0.18593292E+03</totfact>
</mgrwt>
</event>
<event>
 5    1  0.1431256E-002  0.1250096E+03  0.7818608E-02  0.1235054E+00
          4   -1    0    0  501    0  0.00000000000E+00  0.00000000000E+00  0.12656084925E+02  0.12719645657E+02  0.12700000000E+01 0. -1.
         -4   -1    0    0    0  501 -0.00000000000E+00 -0.00000000000E+00 -0.30785521397E+03  0.30785783353E+03  0.12700000000E+01 0. -1.
         25    2    1    2    0    0  0.00000000000E+00  0.00000000000E+00 -0.29519912904E+03  0.32057747919E+03  0.12500957714E+03 0.  0.
    9000005    1    3    3    0    0  0.55182343347E+02 -0.29323545489E+02 -0.14518402390E+03  0.15806442399E+03  0.10000000000E+01 0.  0.
    9000005    1    3    3    0    0 -0.55182343347E+02  0.29323545489E+02 -0.15001510514E+03  0.16251305519E+03  0.10000000000E+01 0.  0.
<mgrwt>
<rscale>  0 0.12500958E+03</rscale>
<asrwt>0</asrwt>
<pdfrwt beam="1">  1        4 0.31722948E-02 0.12500958E+03</pdfrwt>
<pdfrwt beam="2">  1       -4 0.76972052E-01 0.12500958E+03</pdfrwt>
<totfact> 0.12410602E+03</totfact>
</mgrwt>
</event>
<event>
 5    1  0.1431256E-002  0.1250098E+03  0.7818608E-02  0.1235054E+00
         -4   -1    0    0    0  501 -0.00000000000E+00  0.00000000000E+00  0.14334030519E+03  0.14334593120E+03  0.12700000000E+01 0. -1.
          4   -1    0    0  501    0  0.00000000000E+00 -0.00000000000E+00 -0.27234876998E+02  0.27264471847E+02  0.12700000000E+01 0. -1.
         25    2    1    2    0    0  0.00000000000E+00  0.00000000000E+00  0.11610542819E+03  0.17061040304E+03  0.12500975631E+03 0.  0.
    9000005    1    3    3    0    0 -0.13245173563E+02  0.76472257510E+01 -0.24648082072E+02  0.29024862347E+02  0.10000000000E+01 0.  0.
    9000005    1    3    3    0    0  0.13245173563E+02 -0.76472257510E+01  0.14075351026E+03  0.14158554070E+03  0.10000000000E+01 0.  0.
<mgrwt>
<rscale>  0 0.12500976E+03</rscale>
<asrwt>0</asrwt>
<pdfrwt beam="2">  1        4 0.68131218E-02 0.12500976E+03</pdfrwt>
<pdfrwt beam="1">  1       -4 0.35839479E-01 0.12500976E+03</pdfrwt>
<totfact> 0.17565572E+03</totfact>
</mgrwt>
</event>
<event>
 5    1  0.1431256E-002  0.1249984E+03  0.7818608E-02  0.1235072E+00
          4   -1    0    0  501    0  0.00000000000E+00  0.00000000000E+00  0.18370041605E+02  0.18413889556E+02  0.12700000000E+01 0. -1.
         -4   -1    0    0    0  501 -0.00000000000E+00 -0.00000000000E+00 -0.21233787283E+03  0.21234167076E+03  0.12700000000E+01 0. -1.
         25    2    1    2    0    0  0.00000000000E+00  0.00000000000E+00 -0.19396783123E+03  0.23075556031E+03  0.12499843624E+03 0.  0.
    9000005    1    3    3    0    0 -0.34490802125E+02 -0.38091317660E+02 -0.31335812224E+02  0.60195490197E+02  0.10000000000E+01 0.  0.
    9000005    1    3    3    0    0  0.34490802125E+02  0.38091317660E+02 -0.16263201900E+03  0.17056007011E+03  0.10000000000E+01 0.  0.
<mgrwt>
<rscale>  0 0.12499844E+03</rscale>
<asrwt>0</asrwt>
<pdfrwt beam="1">  1        4 0.45984668E-02 0.12499844E+03</pdfrwt>
<pdfrwt beam="2">  1       -4 0.53090416E-01 0.12499844E+03</pdfrwt>
<totfact> 0.15160899E+03</totfact>
</mgrwt>
</event>
<event>
 5    1  0.1431256E-002  0.1250005E+03  0.7818608E-02  0.1235068E+00
         -4   -1    0    0    0  501 -0.00000000000E+00  0.00000000000E+00  0.12407551746E+03  0.12408201696E+03  0.12700000000E+01 0.  1.
          4   -1    0    0  501    0  0.00000000000E+00 -0.00000000000E+00 -0.31462974277E+02  0.31488595560E+02  0.12700000000E+01 0.  1.
         25    2    1    2    0    0  0.00000000000E+00  0.00000000000E+00  0.92612543181E+02  0.15557061252E+03  0.12500052930E+03 0.  0.
    9000005    1    3    3    0    0  0.43230629803E+02 -0.10603448181E+02  0.10089638846E+03  0.11028327920E+03  0.10000000000E+01 0.  0.
    9000005    1    3    3    0    0 -0.43230629803E+02  0.10603448181E+02 -0.82838452802E+01  0.45287333318E+02  0.10000000000E+01 0.  0.
<mgrwt>
<rscale>  0 0.12500053E+03</rscale>
<asrwt>0</asrwt>
<pdfrwt beam="2">  1        4 0.78697587E-02 0.12500053E+03</pdfrwt>
<pdfrwt beam="1">  1       -4 0.31022894E-01 0.12500053E+03</pdfrwt>
<totfact> 0.18267997E+03</totfact>
</mgrwt>
</event>
<event>
 4    1  0.1431256E-002  0.1248900E+03  0.7818608E-02  0.1235241E+00
         -4   -1    0    0    0  501 -0.00000000000E+00  0.00000000000E+00  0.13821412358E+03  0.13821995825E+03  0.12700000000E+01 0.  1.
          4   -1    0    0  501    0  0.00000000000E+00 -0.00000000000E+00 -0.28191839842E+02  0.28220431139E+02  0.12700000000E+01 0.  1.
    9000005    1    1    2    0    0 -0.30769332792E+02 -0.41165478181E+02  0.10226132138E+03  0.11445403569E+03  0.10000000000E+01 0.  0.
    9000005    1    1    2    0    0  0.30769332792E+02  0.41165478181E+02  0.77609623611E+01  0.51986353701E+02  0.10000000000E+01 0.  0.
<mgrwt>
<rscale>  0 0.12488995E+03</rscale>
<asrwt>0</asrwt>
<pdfrwt beam="2">  1        4 0.70522633E-02 0.12488995E+03</pdfrwt>
<pdfrwt beam="1">  1       -4 0.34557834E-01 0.12488995E+03</pdfrwt>
<totfact> 0.17804267E+03</totfact>
</mgrwt>
</event>
<event>
 5    1  0.1431256E-002  0.1250001E+03  0.7818608E-02  0.1235069E+00
          4   -1    0    0  501    0  0.00000000000E+00  0.00000000000E+00  0.39947777159E+03  0.39947979034E+03  0.12700000000E+01 0. -1.
         -4   -1    0    0    0  501 -0.00000000000E+00 -0.00000000000E+00 -0.97351141156E+01  0.98176039258E+01  0.12700000000E+01 0. -1.
         25    2    1    2    0    0  0.00000000000E+00  0.00000000000E+00  0.38974265747E+03  0.40929739427E+03  0.12500007161E+03 0.  0.
    9000005    1    3    3    0    0  0.58764817996E+02  0.21227985894E+02  0.19863793924E+03  0.20823535273E+03  0.10000000000E+01 0.  0.
    9000005    1    3    3    0    0 -0.58764817996E+02 -0.21227985894E+02  0.19110471823E+03  0.20106204155E+03  0.10000000000E+01 0.  0.
<mgrwt>
<rscale>  0 0.12500007E+03</rscale>
<asrwt>0</asrwt>
<pdfrwt beam="1">  1        4 0.99880005E-01 0.12500007E+03</pdfrwt>
<pdfrwt beam="2">  1       -4 0.24443421E-02 0.12500007E+03</pdfrwt>
<totfact> 0.10380143E+03</totfact>
</mgrwt>
</event>
<event>
 5    1  0.1431256E-002  0.1250031E+03  0.7818608E-02  0.1235064E+00
         -4   -1    0    0    0  501 -0.00000000000E+00  0.00000000000E+00  0.68851599201E+01  0.70013089580E+01  0.12700000000E+01 0. -1.
          4   -1    0    0  501    0  0.00000000000E+00 -0.00000000000E+00 -0.56250885262E+03  0.56251028628E+03  0.12700000000E+01 0. -1.
         25    2    1    2    0    0  0.00000000000E+00  0.00000000000E+00 -0.55562369270E+03  0.56951159524E+03  0.12500307687E+03 0.  0.
    9000005    1    3    3    0    0  0.15498553643E+02  0.43639710446E+02 -0.86633604780E+02  0.98239559089E+02  0.10000000000E+01 0.  0.
    9000005    1    3    3    0    0 -0.15498553643E+02 -0.43639710446E+02 -0.46899008792E+03  0.47127203615E+03  0.10000000000E+01 0.  0.
<mgrwt>
<rscale>  0 0.12500308E+03</rscale>
<asrwt>0</asrwt>
<pdfrwt beam="2">  1        4 0.14064176E+00 0.12500308E+03</pdfrwt>
<pdfrwt beam="1">  1       -4 0.17359897E-02 0.12500308E+03</pdfrwt>
<totfact> 0.77472721E+02</totfact>
</mgrwt>
</event>
<event>
 5    1  0.1431256E-002  0.1249993E+03  0.7818608E-02  0.1235070E+00
          4   -1    0    0  501    0  0.00000000000E+00  0.00000000000E+00  0.11540141490E+03  0.11540840291E+03  0.12700000000E+01 0. -1.
         -4   -1    0    0    0  501 -0.00000000000E+00 -0.00000000000E+00 -0.33828914667E+02  0.33852745347E+02  0.12700000000E+01 0. -1.
         25    2    1    2    0    0  0.00000000000E+00  0.00000000000E+00  0.81572500237E+02  0.14926114826E+03  0.12499927033E+03 0.  0.
    9000005    1    3    3    0    0 -0.67371670734E+01 -0.30926342101E+02  0.10512771837E+03  0.10979373946E+03  0.10000000000E+01 0.  0.
    9000005    1    3    3    0    0  0.67371670734E+01  0.30926342101E+02 -0.23555218129E+02  0.39467408795E+02  0.10000000000E+01 0.  0.
<mgrwt>
<rscale>  0 0.12499927E+03</rscale>
<asrwt>0</asrwt>
<pdfrwt beam="1">  1        4 0.28854206E-01 0.12499927E+03</pdfrwt>
<pdfrwt beam="2">  1       -4 0.84610811E-02 0.12499927E+03</pdfrwt>
<totfact> 0.18575485E+03</totfact>
</mgrwt>
</event>
<event>
 5    1  0.1431256E-002  0.1249981E+03  0.7818608E-02  0.1235072E+00
         -4   -1    0    0    0  501 -0.00000000000E+00  0.00000000000E+00  0.15582885251E+02  0.15634551888E+02  0.12700000000E+01 0. -1.
          4   -1    0    0  501    0  0.00000000000E+00 -0.00000000000E+00 -0.25019984605E+03  0.25020306925E+03  0.12700000000E+01 0. -1.
         25    2    1    2    0    0  0.00000000000E+00  0.00000000000E+00 -0.23461696079E+03  0.26583762114E+03  0.12499809006E+03 0.  0.
    9000005    1    3    3    0    0  0.13571091058E+02 -0.35140525839E+02 -0.11267844536E+02  0.39331862265E+02  0.10000000000E+01 0.  0.
    9000005    1    3    3    0    0 -0.13571091058E+02  0.35140525839E+02 -0.22334911626E+03  0.22650575887E+03  0.10000000000E+01 0.  0.
<mgrwt>
<rscale>  0 0.12499809E+03</rscale>
<asrwt>0</asrwt>
<pdfrwt beam="2">  1        4 0.62556810E-01 0.12499809E+03</pdfrwt>
<pdfrwt beam="1">  1       -4 0.39025833E-02 0.12499809E+03</pdfrwt>
<totfact> 0.13986213E+03</totfact>
</mgrwt>
</event>
<event>
 5    1  0.1431256E-002  0.1250022E+03  0.7818608E-02  0.1235066E+00
          4   -1    0    0  501    0  0.00000000000E+00  0.00000000000E+00  0.10279390831E+03  0.10280175332E+03  0.12700000000E+01 0. -1.
         -4   -1    0    0    0  501 -0.00000000000E+00 -0.00000000000E+00 -0.37982205159E+02  0.38003431539E+02  0.12700000000E+01 0. -1.
         25    2    1    2    0    0  0.00000000000E+00  0.00000000000E+00  0.64811703149E+02  0.14080518486E+03  0.12500217285E+03 0.  0.
    9000005    1    3    3    0    0  0.50010304996E+02 -0.23537760908E+02  0.65252766285E+02  0.85521811850E+02  0.10000000000E+01 0.  0.
    9000005    1    3    3    0    0 -0.50010304996E+02  0.23537760908E+02 -0.44106313545E+00  0.55283373007E+02  0.10000000000E+01 0.  0.
<mgrwt>
<rscale>  0 0.12500217E+03</rscale>
<asrwt>0</asrwt>
<pdfrwt beam="1">  1        4 0.25702111E-01 0.12500217E+03</pdfrwt>
<pdfrwt beam="2">  1       -4 0.94991853E-02 0.12500217E+03</pdfrwt>
<totfact> 0.18998263E+03</totfact>
</mgrwt>
</event>
<event>
 5    1  0.1431256E-002  0.1249984E+03  0.7818608E-02  0.1235072E+00
         -4   -1    0    0    0  501 -0.00000000000E+00  0.00000000000E+00  0.47771956137E+03  0.47772124949E+03  0.12700000000E+01 0. -1.
          4   -1    0    0  501    0  0.00000000000E+00 -0.00000000000E+00 -0.81256351809E+01  0.82242839866E+01  0.12700000000E+01 0. -1.
         25    2    1    2    0    0  0.00000000000E+00  0.00000000000E+00  0.46959392619E+03  0.48594553348E+03  0.12499842396E+03 0.  0.
    9000005    1    3    3    0    0 -0.37067147674E+02 -0.38348787662E+02  0.36140122743E+03  0.36531691740E+03  0.10000000000E+01 0.  0.
    9000005    1    3    3    0    0  0.37067147674E+02  0.38348787662E+02  0.10819269876E+03  0.12062861608E+03  0.10000000000E+01 0.  0.
<mgrwt>
<rscale>  0 0.12499842E+03</rscale>
<asrwt>0</asrwt>
<pdfrwt beam="2">  1        4 0.20439509E-02 0.12499842E+03</pdfrwt>
<pdfrwt beam="1">  1       -4 0.11944243E+00 0.12499842E+03</pdfrwt>
<totfact> 0.89888109E+02</totfact>
</mgrwt>
</event>
<event>
 5    1  0.1431256E-002  0.1250084E+03  0.7818608E-02  0.1235056E+00
         -4   -1    0    0    0  501 -0.00000000000E+00  0.00000000000E+00  0.23341710970E+03  0.23342056465E+03  0.12700000000E+01 0. -1.
          4   -1    0    0  501    0  0.00000000000E+00 -0.00000000000E+00 -0.16709633501E+02  0.16757826581E+02  0.12700000000E+01 0. -1.
         25    2    1    2    0    0  0.00000000000E+00  0.00000000000E+00  0.21670747620E+03  0.25017839123E+03  0.12500838851E+03 0.  0.
    9000005    1    3    3    0    0 -0.19589771570E+02 -0.42404182138E+02  0.25260298846E+02  0.53112677496E+02  0.10000000000E+01 0.  0.
    9000005    1    3    3    0    0  0.19589771570E+02  0.42404182138E+02  0.19144717735E+03  0.19706571374E+03  0.10000000000E+01 0.  0.
<mgrwt>
<rscale>  0 0.12500839E+03</rscale>
<asrwt>0</asrwt>
<pdfrwt beam="2">  1        4 0.41838645E-02 0.12500839E+03</pdfrwt>
<pdfrwt beam="1">  1       -4 0.58360732E-01 0.12500839E+03</pdfrwt>
<totfact> 0.14489259E+03</totfact>
</mgrwt>
</event>
<event>
 5    1  0.1431256E-002  0.1250022E+03  0.7818608E-02  0.1235066E+00
         -4   -1    0    0    0  501 -0.00000000000E+00  0.00000000000E+00  0.13384777732E+03  0.13385380232E+03  0.12700000000E+01 0. -1.
          4   -1    0    0  501    0  0.00000000000E+00 -0.00000000000E+00 -0.29164813884E+02  0.29192452259E+02  0.12700000000E+01 0. -1.
         25    2    1    2    0    0  0.00000000000E+00  0.00000000000E+00  0.10468296344E+03  0.16304625458E+03  0.12500223317E+03 0.  0.
    9000005    1    3    3    0    0  0.32923013103E+02 -0.47493040711E+02  0.21313491829E+02  0.61601774663E+02  0.10000000000E+01 0.  0.
    9000005    1    3    3    0    0 -0.32923013103E+02  0.47493040711E+02  0.83369471613E+02  0.10144447991E+03  0.10000000000E+01 0.  0.
<mgrwt>
<rscale>  0 0.12500223E+03</rscale>
<asrwt>0</asrwt>
<pdfrwt beam="2">  1        4 0.72954116E-02 0.12500223E+03</pdfrwt>
<pdfrwt beam="1">  1       -4 0.33466151E-01 0.12500223E+03</pdfrwt>
<totfact> 0.17914399E+03</totfact>
</mgrwt>
</event>
<event>
 5    1  0.1431256E-002  0.1250000E+03  0.7818608E-02  0.1235069E+00
         -4   -1    0    0    0  501 -0.00000000000E+00  0.00000000000E+00  0.96336798193E+01  0.97170307636E+01  0.12700000000E+01 0. -1.
          4   -1    0    0  501    0  0.00000000000E+00 -0.00000000000E+00 -0.40364732891E+03  0.40364932681E+03  0.12700000000E+01 0. -1.
         25    2    1    2    0    0  0.00000000000E+00  0.00000000000E+00 -0.39401364909E+03  0.41336635758E+03  0.12499995962E+03 0.  0.
    9000005    1    3    3    0    0 -0.40735591951E+02 -0.40327064324E+02 -0.11469231943E+03  0.12822241888E+03  0.10000000000E+01 0.  0.
    9000005    1    3    3    0    0  0.40735591951E+02  0.40327064324E+02 -0.27932132966E+03  0.28514393869E+03  0.10000000000E+01 0.  0.
<mgrwt>
<rscale>  0 0.12499996E+03</rscale>
<asrwt>0</asrwt>
<pdfrwt beam="2">  1        4 0.10092244E+00 0.12499996E+03</pdfrwt>
<pdfrwt beam="1">  1       -4 0.24190899E-02 0.12499996E+03</pdfrwt>
<totfact> 0.10298077E+03</totfact>
</mgrwt>
</event>
<event>
 5    1  0.1431256E-002  0.1250011E+03  0.7818608E-02  0.1235068E+00
          4   -1    0    0  501    0  0.00000000000E+00  0.00000000000E+00  0.19200416116E+02  0.19242371970E+02  0.12700000000E+01 0. -1.
         -4   -1    0    0    0  501 -0.00000000000E+00 -0.00000000000E+00 -0.20318354947E+03  0.20318751850E+03  0.12700000000E+01 0. -1.
         25    2    1    2    0    0  0.00000000000E+00  0.00000000000E+00 -0.18398313335E+03  0.22242989047E+03  0.12500105126E+03 0.  0.
    9000005    1    3    3    0    0 -0.37284609414E+02  0.96883042178E+01 -0.17955135707E+03  0.18364012405E+03  0.10000000000E+01 0.  0.
    9000005    1    3    3    0    0  0.37284609414E+02 -0.96883042178E+01 -0.44317762866E+01  0.38789766419E+02  0.10000000000E+01 0.  0.
<mgrwt>
<rscale>  0 0.12500105E+03</rscale>
<asrwt>0</asrwt>
<pdfrwt beam="1">  1        4 0.48058453E-02 0.12500105E+03</pdfrwt>
<pdfrwt beam="2">  1       -4 0.50801621E-01 0.12500105E+03</pdfrwt>
<totfact> 0.15461260E+03</totfact>
</mgrwt>
</event>
<event>
 5    1  0.1431256E-002  0.1250009E+03  0.7818608E-02  0.1235068E+00
          4   -1    0    0  501    0  0.00000000000E+00  0.00000000000E+00  0.12487607807E+03  0.12488253590E+03  0.12700000000E+01 0. -1.
         -4   -1    0    0    0  501 -0.00000000000E+00 -0.00000000000E+00 -0.31261279993E+02  0.31287066446E+02  0.12700000000E+01 0. -1.
         25    2    1    2    0    0  0.00000000000E+00  0.00000000000E+00  0.93614798076E+02  0.15616960235E+03  0.12500085712E+03 0.  0.
    9000005    1    3    3    0    0  0.33334807530E+02 -0.43776322977E+02  0.97936205522E+01  0.55897145276E+02  0.10000000000E+01 0.  0.
    9000005    1    3    3    0    0 -0.33334807530E+02  0.43776322977E+02  0.83821177523E+02  0.10027245707E+03  0.10000000000E+01 0.  0.
<mgrwt>
<rscale>  0 0.12500086E+03</rscale>
<asrwt>0</asrwt>
<pdfrwt beam="1">  1        4 0.31223050E-01 0.12500086E+03</pdfrwt>
<pdfrwt beam="2">  1       -4 0.78193506E-02 0.12500086E+03</pdfrwt>
<totfact> 0.18239159E+03</totfact>
</mgrwt>
</event>
<event>
 5    1  0.1431256E-002  0.1249956E+03  0.7818608E-02  0.1235076E+00
         -4   -1    0    0    0  501 -0.00000000000E+00  0.00000000000E+00  0.82863234165E+01  0.83830815196E+01  0.12700000000E+01 0.  1.
          4   -1    0    0  501    0  0.00000000000E+00 -0.00000000000E+00 -0.46854269002E+03  0.46854441121E+03  0.12700000000E+01 0.  1.
         25    2    1    2    0    0  0.00000000000E+00  0.00000000000E+00 -0.46025636661E+03  0.47692749273E+03  0.12499564119E+03 0.  0.
    9000005    1    3    3    0    0  0.35412420296E+02  0.27977937832E+02 -0.39504541740E+03  0.39761625510E+03  0.10000000000E+01 0.  0.
    9000005    1    3    3    0    0 -0.35412420296E+02 -0.27977937832E+02 -0.65210949211E+02  0.79311237625E+02  0.10000000000E+01 0.  0.
<mgrwt>
<rscale>  0 0.12499564E+03</rscale>
<asrwt>0</asrwt>
<pdfrwt beam="2">  1        4 0.11714789E+00 0.12499564E+03</pdfrwt>
<pdfrwt beam="1">  1       -4 0.20838923E-02 0.12499564E+03</pdfrwt>
<totfact> 0.91384142E+02</totfact>
</mgrwt>
</event>
<event>
 5    1  0.1431256E-002  0.1250245E+03  0.7818608E-02  0.1235031E+00
          4   -1    0    0  501    0  0.00000000000E+00  0.00000000000E+00  0.95584855765E+01  0.96424865318E+01  0.12700000000E+01 0. -1.
         -4   -1    0    0    0  501 -0.00000000000E+00 -0.00000000000E+00 -0.40695485450E+03  0.40695683616E+03  0.12700000000E+01 0. -1.
         25    2    1    2    0    0  0.00000000000E+00  0.00000000000E+00 -0.39739636892E+03  0.41659932269E+03  0.12502448415E+03 0.  0.
    9000005    1    3    3    0    0  0.55348696496E+02  0.26806495568E+02 -0.23591002011E+03  0.24379623458E+03  0.10000000000E+01 0.  0.
    9000005    1    3    3    0    0 -0.55348696496E+02 -0.26806495568E+02 -0.16148634882E+03  0.17280308812E+03  0.10000000000E+01 0.  0.
<mgrwt>
<rscale>  0 0.12502448E+03</rscale>
<asrwt>0</asrwt>
<pdfrwt beam="1">  1        4 0.24003706E-02 0.12502448E+03</pdfrwt>
<pdfrwt beam="2">  1       -4 0.10174940E+00 0.12502448E+03</pdfrwt>
<totfact> 0.10227742E+03</totfact>
</mgrwt>
</event>
<event>
 5    1  0.1431256E-002  0.1250058E+03  0.7818608E-02  0.1235060E+00
         -4   -1    0    0    0  501 -0.00000000000E+00  0.00000000000E+00  0.29121566471E+02  0.29149245851E+02  0.12700000000E+01 0.  1.
          4   -1    0    0  501    0  0.00000000000E+00 -0.00000000000E+00 -0.13405406835E+03  0.13406008408E+03  0.12700000000E+01 0.  1.
         25    2    1    2    0    0  0.00000000000E+00  0.00000000000E+00 -0.10493250188E+03  0.16320932993E+03  0.12500582156E+03 0.  0.
    9000005    1    3    3    0    0  0.34785550952E+02 -0.50953619127E+02 -0.65477136534E+02  0.89969779737E+02  0.10000000000E+01 0.  0.
    9000005    1    3    3    0    0 -0.34785550952E+02  0.50953619127E+02 -0.39455365349E+02  0.73239550190E+02  0.10000000000E+01 0.  0.
<mgrwt>
<rscale>  0 0.12500582E+03</rscale>
<asrwt>0</asrwt>
<pdfrwt beam="2">  1        4 0.33517727E-01 0.12500582E+03</pdfrwt>
<pdfrwt beam="1">  1       -4 0.72846039E-02 0.12500582E+03</pdfrwt>
<totfact> 0.17905335E+03</totfact>
</mgrwt>
</event>
<event>
 5    1  0.1431256E-002  0.1250029E+03  0.7818608E-02  0.1235065E+00
         -4   -1    0    0    0  501 -0.00000000000E+00  0.00000000000E+00  0.13104911367E+02  0.13166305554E+02  0.12700000000E+01 0.  1.
          4   -1    0    0  501    0  0.00000000000E+00 -0.00000000000E+00 -0.29732968846E+03  0.29733240075E+03  0.12700000000E+01 0.  1.
         25    2    1    2    0    0  0.00000000000E+00  0.00000000000E+00 -0.28422477709E+03  0.31049870631E+03  0.12500289079E+03 0.  0.
    9000005    1    3    3    0    0 -0.61224614009E+02 -0.12097999345E+02 -0.13401929369E+03  0.14784108370E+03  0.10000000000E+01 0.  0.
    9000005    1    3    3    0    0  0.61224614009E+02  0.12097999345E+02 -0.15020548340E+03  0.16265762261E+03  0.10000000000E+01 0.  0.
<mgrwt>
<rscale>  0 0.12500289E+03</rscale>
<asrwt>0</asrwt>
<pdfrwt beam="2">  1        4 0.74340413E-01 0.12500289E+03</pdfrwt>
<pdfrwt beam="1">  1       -4 0.32842421E-02 0.12500289E+03</pdfrwt>
<totfact> 0.12680992E+03</totfact>
</mgrwt>
</event>
<event>
 5    1  0.1431256E-002  0.1249994E+03  0.7818608E-02  0.1235070E+00
         -4   -1    0    0    0  501 -0.00000000000E+00  0.00000000000E+00  0.56483439489E+02  0.56497715321E+02  0.12700000000E+01 0. -1.
          4   -1    0    0  501    0  0.00000000000E+00 -0.00000000000E+00 -0.69127937877E+02  0.69139602944E+02  0.12700000000E+01 0. -1.
         25    2    1    2    0    0  0.00000000000E+00  0.00000000000E+00 -0.12644498388E+02  0.12563731826E+03  0.12499940960E+03 0.  0.
    9000005    1    3    3    0    0  0.73963377150E+01  0.45810467141E+02 -0.48391656370E+02  0.67052644373E+02  0.10000000000E+01 0.  0.
    9000005    1    3    3    0    0 -0.73963377150E+01 -0.45810467141E+02  0.35747157981E+02  0.58584673892E+02  0.10000000000E+01 0.  0.
<mgrwt>
<rscale>  0 0.12499941E+03</rscale>
<asrwt>0</asrwt>
<pdfrwt beam="2">  1        4 0.17285227E-01 0.12499941E+03</pdfrwt>
<pdfrwt beam="1">  1       -4 0.14124102E-01 0.12499941E+03</pdfrwt>
<totfact> 0.19800805E+03</totfact>
</mgrwt>
</event>
<event>
 5    1  0.1431256E-002  0.1249985E+03  0.7818608E-02  0.1235072E+00
          4   -1    0    0  501    0  0.00000000000E+00  0.00000000000E+00  0.17009696344E+03  0.17010170449E+03  0.12700000000E+01 0.  1.
         -4   -1    0    0    0  501 -0.00000000000E+00 -0.00000000000E+00 -0.22941678371E+02  0.22976803662E+02  0.12700000000E+01 0.  1.
         25    2    1    2    0    0  0.00000000000E+00  0.00000000000E+00  0.14715528506E+03  0.19307850815E+03  0.12499852954E+03 0.  0.
    9000005    1    3    3    0    0  0.23926849096E+02  0.52685162025E+02  0.37124721427E+02  0.68756565841E+02  0.10000000000E+01 0.  0.
    9000005    1    3    3    0    0 -0.23926849096E+02 -0.52685162025E+02  0.11003056364E+03  0.12432194231E+03  0.10000000000E+01 0.  0.
<mgrwt>
<rscale>  0 0.12499853E+03</rscale>
<asrwt>0</asrwt>
<pdfrwt beam="1">  1        4 0.42529224E-01 0.12499853E+03</pdfrwt>
<pdfrwt beam="2">  1       -4 0.57404030E-02 0.12499853E+03</pdfrwt>
<totfact> 0.16603557E+03</totfact>
</mgrwt>
</event>
<event>
 5    1  0.1431256E-002  0.1249968E+03  0.7818608E-02  0.1235074E+00
         -4   -1    0    0    0  501 -0.00000000000E+00  0.00000000000E+00  0.22889180738E+02  0.22924386466E+02  0.12700000000E+01 0.  1.
          4   -1    0    0  501    0  0.00000000000E+00 -0.00000000000E+00 -0.17048187192E+03  0.17048660227E+03  0.12700000000E+01 0.  1.
         25    2    1    2    0    0  0.00000000000E+00  0.00000000000E+00 -0.14759269119E+03  0.19341098874E+03  0.12499683225E+03 0.  0.
    9000005    1    3    3    0    0  0.81598867882E+01  0.60535535177E+02 -0.94202137996E+02  0.11227723534E+03  0.10000000000E+01 0.  0.
    9000005    1    3    3    0    0 -0.81598867882E+01 -0.60535535177E+02 -0.53390553190E+02  0.81133753404E+02  0.10000000000E+01 0.  0.
<mgrwt>
<rscale>  0 0.12499683E+03</rscale>
<asrwt>0</asrwt>
<pdfrwt beam="2">  1        4 0.42625456E-01 0.12499683E+03</pdfrwt>
<pdfrwt beam="1">  1       -4 0.57272877E-02 0.12499683E+03</pdfrwt>
<totfact> 0.16590537E+03</totfact>
</mgrwt>
</event>
<event>
 5    1  0.1431256E-002  0.1249990E+03  0.7818608E-02  0.1235071E+00
         -4   -1    0    0    0  501 -0.00000000000E+00  0.00000000000E+00  0.14044902097E+03  0.14045476279E+03  0.12700000000E+01 0.  1.
          4   -1    0    0  501    0  0.00000000000E+00 -0.00000000000E+00 -0.27791321317E+02  0.27820324235E+02  0.12700000000E+01 0.  1.
         25    2    1    2    0    0  0.00000000000E+00  0.00000000000E+00  0.11265769965E+03  0.16827508703E+03  0.12499899049E+03 0.  0.
    9000005    1    3    3    0    0  0.31124242530E+02 -0.49814439292E+02  0.27613488998E+02  0.64913031124E+02  0.10000000000E+01 0.  0.
    9000005    1    3    3    0    0 -0.31124242530E+02  0.49814439292E+02  0.85044210654E+02  0.10336205590E+03  0.10000000000E+01 0.  0.
<mgrwt>
<rscale>  0 0.12499899E+03</rscale>
<asrwt>0</asrwt>
<pdfrwt beam="2">  1        4 0.69521736E-02 0.12499899E+03</pdfrwt>
<pdfrwt beam="1">  1       -4 0.35116598E-01 0.12499899E+03</pdfrwt>
<totfact> 0.17675544E+03</totfact>
</mgrwt>
</event>
<event>
 5    1  0.1431256E-002  0.1249966E+03  0.7818608E-02  0.1235075E+00
          4   -1    0    0  501    0  0.00000000000E+00  0.00000000000E+00  0.44138031476E+02  0.44156298787E+02  0.12700000000E+01 0. -1.
         -4   -1    0    0    0  501 -0.00000000000E+00 -0.00000000000E+00 -0.88454782222E+02  0.88463898839E+02  0.12700000000E+01 0. -1.
         25    2    1    2    0    0  0.00000000000E+00  0.00000000000E+00 -0.44316750746E+02  0.13262019763E+03  0.12499656964E+03 0.  0.
    9000005    1    3    3    0    0 -0.61116035989E+02 -0.13020940176E+02 -0.22759375182E+02  0.66510930656E+02  0.10000000000E+01 0.  0.
    9000005    1    3    3    0    0  0.61116035989E+02  0.13020940176E+02 -0.21557375564E+02  0.66109266970E+02  0.10000000000E+01 0.  0.
<mgrwt>
<rscale>  0 0.12499657E+03</rscale>
<asrwt>0</asrwt>
<pdfrwt beam="1">  1        4 0.11037931E-01 0.12499657E+03</pdfrwt>
<pdfrwt beam="2">  1       -4 0.22117118E-01 0.12499657E+03</pdfrwt>
<totfact> 0.19426082E+03</totfact>
</mgrwt>
</event>
<event>
 5    1  0.1431256E-002  0.1249971E+03  0.7818608E-02  0.1235074E+00
          4   -1    0    0  501    0  0.00000000000E+00  0.00000000000E+00  0.69293575738E+02  0.69305212925E+02  0.12700000000E+01 0.  1.
         -4   -1    0    0    0  501 -0.00000000000E+00 -0.00000000000E+00 -0.56346361982E+02  0.56360672535E+02  0.12700000000E+01 0.  1.
         25    2    1    2    0    0  0.00000000000E+00  0.00000000000E+00  0.12947213756E+02  0.12566588546E+03  0.12499713767E+03 0.  0.
    9000005    1    3    3    0    0 -0.46695142063E+02  0.23690584424E+02  0.40764609371E+02  0.66365905853E+02  0.10000000000E+01 0.  0.
    9000005    1    3    3    0    0  0.46695142063E+02 -0.23690584424E+02 -0.27817395615E+02  0.59299979607E+02  0.10000000000E+01 0.  0.
<mgrwt>
<rscale>  0 0.12499714E+03</rscale>
<asrwt>0</asrwt>
<pdfrwt beam="1">  1        4 0.17326637E-01 0.12499714E+03</pdfrwt>
<pdfrwt beam="2">  1       -4 0.14089834E-01 0.12499714E+03</pdfrwt>
<totfact> 0.19800312E+03</totfact>
</mgrwt>
</event>
<event>
 5    1  0.1431256E-002  0.1249984E+03  0.7818608E-02  0.1235072E+00
         -4   -1    0    0    0  501 -0.00000000000E+00  0.00000000000E+00  0.76461565888E+02  0.76472112289E+02  0.12700000000E+01 0.  1.
          4   -1    0    0  501    0  0.00000000000E+00 -0.00000000000E+00 -0.51064451674E+02  0.51080242019E+02  0.12700000000E+01 0.  1.
         25    2    1    2    0    0  0.00000000000E+00  0.00000000000E+00  0.25397114214E+02  0.12755235431E+03  0.12499835871E+03 0.  0.
    9000005    1    3    3    0    0 -0.43602879703E+02  0.85193709332E+00  0.58370287151E+02  0.72869934385E+02  0.10000000000E+01 0.  0.
    9000005    1    3    3    0    0  0.43602879703E+02 -0.85193709332E+00 -0.32973172937E+02  0.54682419924E+02  0.10000000000E+01 0.  0.
<mgrwt>
<rscale>  0 0.12499836E+03</rscale>
<asrwt>0</asrwt>
<pdfrwt beam="2">  1        4 0.12769405E-01 0.12499836E+03</pdfrwt>
<pdfrwt beam="1">  1       -4 0.19118683E-01 0.12499836E+03</pdfrwt>
<totfact> 0.19697681E+03</totfact>
</mgrwt>
</event>
<event>
 5    1  0.1431256E-002  0.1250013E+03  0.7818608E-02  0.1235067E+00
         -4   -1    0    0    0  501 -0.00000000000E+00  0.00000000000E+00  0.72474489163E+02  0.72485615673E+02  0.12700000000E+01 0. -1.
          4   -1    0    0  501    0  0.00000000000E+00 -0.00000000000E+00 -0.53876640504E+02  0.53891606879E+02  0.12700000000E+01 0. -1.
         25    2    1    2    0    0  0.00000000000E+00  0.00000000000E+00  0.18597848659E+02  0.12637722255E+03  0.12500128961E+03 0.  0.
    9000005    1    3    3    0    0 -0.19002174084E+02  0.20439554646E+02 -0.47231419309E+02  0.54869526916E+02  0.10000000000E+01 0.  0.
    9000005    1    3    3    0    0  0.19002174084E+02 -0.20439554646E+02  0.65829267968E+02  0.71507695636E+02  0.10000000000E+01 0.  0.
<mgrwt>
<rscale>  0 0.12500129E+03</rscale>
<asrwt>0</asrwt>
<pdfrwt beam="2">  1        4 0.13472422E-01 0.12500129E+03</pdfrwt>
<pdfrwt beam="1">  1       -4 0.18121884E-01 0.12500129E+03</pdfrwt>
<totfact> 0.19759953E+03</totfact>
</mgrwt>
</event>
<event>
 5    1  0.1431256E-002  0.1249995E+03  0.7818608E-02  0.1235070E+00
          4   -1    0    0  501    0  0.00000000000E+00  0.00000000000E+00  0.25817075030E+03  0.25817387399E+03  0.12700000000E+01 0. -1.
         -4   -1    0    0    0  501 -0.00000000000E+00 -0.00000000000E+00 -0.15100501014E+02  0.15153812420E+02  0.12700000000E+01 0. -1.
         25    2    1    2    0    0  0.00000000000E+00  0.00000000000E+00  0.24307024928E+03  0.27332768641E+03  0.12499951228E+03 0.  0.
    9000005    1    3    3    0    0  0.43252850378E+02  0.41431904140E+02  0.82553712944E+02  0.10199768266E+03  0.10000000000E+01 0.  0.
    9000005    1    3    3    0    0 -0.43252850378E+02 -0.41431904140E+02  0.16051653634E+03  0.17133000375E+03  0.10000000000E+01 0.  0.
<mgrwt>
<rscale>  0 0.12499951E+03</rscale>
<asrwt>0</asrwt>
<pdfrwt beam="1">  1        4 0.64549741E-01 0.12499951E+03</pdfrwt>
<pdfrwt beam="2">  1       -4 0.37821797E-02 0.12499951E+03</pdfrwt>
<totfact> 0.13753115E+03</totfact>
</mgrwt>
</event>
<event>
 5    1  0.1431256E-002  0.1250011E+03  0.7818608E-02  0.1235068E+00
         -4   -1    0    0    0  501 -0.00000000000E+00  0.00000000000E+00  0.26236566977E+02  0.26267286626E+02  0.12700000000E+01 0.  1.
          4   -1    0    0  501    0  0.00000000000E+00 -0.00000000000E+00 -0.14876786817E+03  0.14877328893E+03  0.12700000000E+01 0.  1.
         25    2    1    2    0    0  0.00000000000E+00  0.00000000000E+00 -0.12253130120E+03  0.17504057556E+03  0.12500113328E+03 0.  0.
    9000005    1    3    3    0    0  0.49267371034E+02 -0.53811648601E+01 -0.79600956599E+01  0.50205516697E+02  0.10000000000E+01 0.  0.
    9000005    1    3    3    0    0 -0.49267371034E+02  0.53811648601E+01 -0.11457120554E+03  0.12483505886E+03  0.10000000000E+01 0.  0.
<mgrwt>
<rscale>  0 0.12500113E+03</rscale>
<asrwt>0</asrwt>
<pdfrwt beam="2">  1        4 0.37196482E-01 0.12500113E+03</pdfrwt>
<pdfrwt beam="1">  1       -4 0.65636597E-02 0.12500113E+03</pdfrwt>
<totfact> 0.17371607E+03</totfact>
</mgrwt>
</event>
<event>
 5    1  0.1431256E-002  0.1250002E+03  0.7818608E-02  0.1235069E+00
          4   -1    0    0  501    0  0.00000000000E+00  0.00000000000E+00  0.34391684271E+03  0.34391918760E+03  0.12700000000E+01 0. -1.
         -4   -1    0    0    0  501 -0.00000000000E+00 -0.00000000000E+00 -0.11320265626E+02  0.11391282362E+02  0.12700000000E+01 0. -1.
         25    2    1    2    0    0  0.00000000000E+00  0.00000000000E+00  0.33259657709E+03  0.35531046996E+03  0.12500018791E+03 0.  0.
    9000005    1    3    3    0    0 -0.22083614785E+02 -0.50695466439E+02  0.24905034990E+03  0.25511721452E+03  0.10000000000E+01 0.  0.
    9000005    1    3    3    0    0  0.22083614785E+02  0.50695466439E+02  0.83546227191E+02  0.10019325545E+03  0.10000000000E+01 0.  0.
<mgrwt>
<rscale>  0 0.12500019E+03</rscale>
<asrwt>0</asrwt>
<pdfrwt beam="1">  1        4 0.85988375E-01 0.12500019E+03</pdfrwt>
<pdfrwt beam="2">  1       -4 0.28392368E-02 0.12500019E+03</pdfrwt>
<totfact> 0.11551629E+03</totfact>
</mgrwt>
</event>
<event>
 5    1  0.1431256E-002  0.1249979E+03  0.7818608E-02  0.1235073E+00
         -4   -1    0    0    0  501 -0.00000000000E+00  0.00000000000E+00  0.28571266978E+03  0.28571549236E+03  0.12700000000E+01 0. -1.
          4   -1    0    0  501    0  0.00000000000E+00 -0.00000000000E+00 -0.13639110405E+02  0.13698110550E+02  0.12700000000E+01 0. -1.
         25    2    1    2    0    0  0.00000000000E+00  0.00000000000E+00  0.27207355938E+03  0.29941360291E+03  0.12499793556E+03 0.  0.
    9000005    1    3    3    0    0 -0.54070701230E+02 -0.31328582130E+02  0.13600430138E+03  0.14967728880E+03  0.10000000000E+01 0.  0.
    9000005    1    3    3    0    0  0.54070701230E+02  0.31328582130E+02  0.13606925800E+03  0.14973631411E+03  0.10000000000E+01 0.  0.
<mgrwt>
<rscale>  0 0.12499794E+03</rscale>
<asrwt>0</asrwt>
<pdfrwt beam="2">  1        4 0.34175054E-02 0.12499794E+03</pdfrwt>
<pdfrwt beam="1">  1       -4 0.71435896E-01 0.12499794E+03</pdfrwt>
<totfact> 0.12988121E+03</totfact>
</mgrwt>
</event>
<event>
 5    1  0.1431256E-002  0.1250022E+03  0.7818608E-02  0.1235066E+00
         -4   -1    0    0    0  501 -0.00000000000E+00  0.00000000000E+00  0.11262990020E+03  0.11263706015E+03  0.12700000000E+01 0.  1.
          4   -1    0    0  501    0  0.00000000000E+00 -0.00000000000E+00 -0.34663479154E+02  0.34686736472E+02  0.12700000000E+01 0.  1.
         25    2    1    2    0    0  0.00000000000E+00  0.00000000000E+00  0.77966421050E+02  0.14732379663E+03  0.12500215294E+03 0.  0.
    9000005    1    3    3    0    0  0.39269277188E+02 -0.29018815335E+02 -0.69842978438E+01  0.49335060461E+02  0.10000000000E+01 0.  0.
    9000005    1    3    3    0    0 -0.39269277188E+02  0.29018815335E+02  0.84950718894E+02  0.97988736164E+02  0.10000000000E+01 0.  0.
<mgrwt>
<rscale>  0 0.12500215E+03</rscale>
<asrwt>0</asrwt>
<pdfrwt beam="2">  1        4 0.86696721E-02 0.12500215E+03</pdfrwt>
<pdfrwt beam="1">  1       -4 0.28161277E-01 0.12500215E+03</pdfrwt>
<totfact> 0.18670222E+03</totfact>
</mgrwt>
</event>
<event>
 5    1  0.1431256E-002  0.1249997E+03  0.7818608E-02  0.1235070E+00
         -4   -1    0    0    0  501 -0.00000000000E+00  0.00000000000E+00  0.75938703172E+02  0.75949322179E+02  0.12700000000E+01 0.  1.
          4   -1    0    0  501    0  0.00000000000E+00 -0.00000000000E+00 -0.51417184943E+02  0.51432866997E+02  0.12700000000E+01 0.  1.
         25    2    1    2    0    0  0.00000000000E+00  0.00000000000E+00  0.24521518229E+02  0.12738218918E+03  0.12499966905E+03 0.  0.
    9000005    1    3    3    0    0  0.57836281741E+02 -0.84907501303E+01 -0.10253346056E+02  0.59357050371E+02  0.10000000000E+01 0.  0.
    9000005    1    3    3    0    0 -0.57836281741E+02  0.84907501303E+01  0.34774864285E+02  0.68025138805E+02  0.10000000000E+01 0.  0.
<mgrwt>
<rscale>  0 0.12499967E+03</rscale>
<asrwt>0</asrwt>
<pdfrwt beam="2">  1        4 0.12857584E-01 0.12499967E+03</pdfrwt>
<pdfrwt beam="1">  1       -4 0.18987963E-01 0.12499967E+03</pdfrwt>
<totfact> 0.19706371E+03</totfact>
</mgrwt>
</event>
<event>
 5    1  0.1431256E-002  0.1250049E+03  0.7818608E-02  0.1235062E+00
         -4   -1    0    0    0  501 -0.00000000000E+00  0.00000000000E+00  0.11442968401E+03  0.11443673135E+03  0.12700000000E+01 0.  1.
          4   -1    0    0  501    0  0.00000000000E+00 -0.00000000000E+00 -0.34119424244E+02  0.34143052159E+02  0.12700000000E+01 0.  1.
         25    2    1    2    0    0  0.00000000000E+00  0.00000000000E+00  0.80310259767E+02  0.14857978351E+03  0.12500485689E+03 0.  0.
    9000005    1    3    3    0    0 -0.23667257255E+02  0.56576772073E+02  0.54442152950E+02  0.82012305309E+02  0.10000000000E+01 0.  0.
    9000005    1    3    3    0    0  0.23667257255E+02 -0.56576772073E+02  0.25868106817E+02  0.66567478204E+02  0.10000000000E+01 0.  0.
<mgrwt>
<rscale>  0 0.12500486E+03</rscale>
<asrwt>0</asrwt>
<pdfrwt beam="2">  1        4 0.85336906E-02 0.12500486E+03</pdfrwt>
<pdfrwt beam="1">  1       -4 0.28611255E-01 0.12500486E+03</pdfrwt>
<totfact> 0.18606731E+03</totfact>
</mgrwt>
</event>
<event>
 5    1  0.1431256E-002  0.1250021E+03  0.7818608E-02  0.1235066E+00
          4   -1    0    0  501    0  0.00000000000E+00  0.00000000000E+00  0.44863199648E+03  0.44863379405E+03  0.12700000000E+01 0.  1.
         -4   -1    0    0    0  501 -0.00000000000E+00 -0.00000000000E+00 -0.86591804236E+01  0.87518172746E+01  0.12700000000E+01 0.  1.
         25    2    1    2    0    0  0.00000000000E+00  0.00000000000E+00  0.43997281605E+03  0.45738561132E+03  0.12500207430E+03 0.  0.
    9000005    1    3    3    0    0 -0.35382865867E+02  0.44568678354E+02  0.12548256446E+03  0.13778674925E+03  0.10000000000E+01 0.  0.
    9000005    1    3    3    0    0  0.35382865867E+02 -0.44568678354E+02  0.31449025160E+03  0.31959886207E+03  0.10000000000E+01 0.  0.
<mgrwt>
<rscale>  0 0.12500207E+03</rscale>
<asrwt>0</asrwt>
<pdfrwt beam="1">  1        4 0.11216981E+00 0.12500207E+03</pdfrwt>
<pdfrwt beam="2">  1       -4 0.21765994E-02 0.12500207E+03</pdfrwt>
<totfact> 0.94701484E+02</totfact>
</mgrwt>
</event>
<event>
 5    1  0.1431256E-002  0.1249988E+03  0.7818608E-02  0.1235071E+00
         -4   -1    0    0    0  501 -0.00000000000E+00  0.00000000000E+00  0.51337273502E+02  0.51352979958E+02  0.12700000000E+01 0.  1.
          4   -1    0    0  501    0  0.00000000000E+00 -0.00000000000E+00 -0.76055866368E+02  0.76066469018E+02  0.12700000000E+01 0.  1.
         25    2    1    2    0    0  0.00000000000E+00  0.00000000000E+00 -0.24718592866E+02  0.12741944898E+03  0.12499882857E+03 0.  0.
    9000005    1    3    3    0    0  0.29855384885E+02  0.52827676089E+02  0.28654404967E+01  0.60756218751E+02  0.10000000000E+01 0.  0.
    9000005    1    3    3    0    0 -0.29855384885E+02 -0.52827676089E+02 -0.27584033362E+02  0.66663230226E+02  0.10000000000E+01 0.  0.
<mgrwt>
<rscale>  0 0.12499883E+03</rscale>
<asrwt>0</asrwt>
<pdfrwt beam="2">  1        4 0.19017255E-01 0.12499883E+03</pdfrwt>
<pdfrwt beam="1">  1       -4 0.12837607E-01 0.12499883E+03</pdfrwt>
<totfact> 0.19704722E+03</totfact>
</mgrwt>
</event>
<event>
 5    1  0.1431256E-002  0.1250005E+03  0.7818608E-02  0.1235069E+00
          4   -1    0    0  501    0  0.00000000000E+00  0.00000000000E+00  0.13199550047E+03  0.13200161000E+03  0.12700000000E+01 0.  1.
         -4   -1    0    0    0  501 -0.00000000000E+00 -0.00000000000E+00 -0.29573613692E+02  0.29600870373E+02  0.12700000000E+01 0.  1.
         25    2    1    2    0    0  0.00000000000E+00  0.00000000000E+00  0.10242188677E+03  0.16160248037E+03  0.12500047509E+03 0.  0.
    9000005    1    3    3    0    0  0.35398381314E+02 -0.21309008419E+02  0.11182398166E+03  0.11921712173E+03  0.10000000000E+01 0.  0.
    9000005    1    3    3    0    0 -0.35398381314E+02  0.21309008419E+02 -0.94020948834E+01  0.42385358647E+02  0.10000000000E+01 0.  0.
<mgrwt>
<rscale>  0 0.12500048E+03</rscale>
<asrwt>0</asrwt>
<pdfrwt beam="1">  1        4 0.33003045E-01 0.12500048E+03</pdfrwt>
<pdfrwt beam="2">  1       -4 0.73975744E-02 0.12500048E+03</pdfrwt>
<totfact> 0.17982401E+03</totfact>
</mgrwt>
</event>
<event>
 5    1  0.1431256E-002  0.1249932E+03  0.7818608E-02  0.1235080E+00
         -4   -1    0    0    0  501 -0.00000000000E+00  0.00000000000E+00  0.11859999509E+03  0.11860679464E+03  0.12700000000E+01 0.  1.
          4   -1    0    0  501    0  0.00000000000E+00 -0.00000000000E+00 -0.32912754869E+02  0.32937248414E+02  0.12700000000E+01 0.  1.
         25    2    1    2    0    0  0.00000000000E+00  0.00000000000E+00  0.85687240221E+02  0.15154404306E+03  0.12499317521E+03 0.  0.
    9000005    1    3    3    0    0 -0.14171103143E+02  0.40739764355E+02  0.97661497735E+02  0.10676758264E+03  0.10000000000E+01 0.  0.
    9000005    1    3    3    0    0  0.14171103143E+02 -0.40739764355E+02 -0.11974257514E+02  0.44776460412E+02  0.10000000000E+01 0.  0.
<mgrwt>
<rscale>  0 0.12499318E+03</rscale>
<asrwt>0</asrwt>
<pdfrwt beam="2">  1        4 0.82321004E-02 0.12499318E+03</pdfrwt>
<pdfrwt beam="1">  1       -4 0.29653910E-01 0.12499318E+03</pdfrwt>
<totfact> 0.18466052E+03</totfact>
</mgrwt>
</event>
<event>
 4    1  0.1431256E-002  0.1252106E+03  0.7818608E-02  0.1234740E+00
          4   -1    0    0  501    0  0.00000000000E+00  0.00000000000E+00  0.21734878773E+02  0.21771951113E+02  0.12700000000E+01 0. -1.
         -4   -1    0    0    0  501 -0.00000000000E+00 -0.00000000000E+00 -0.18013592300E+03  0.18014039984E+03  0.12700000000E+01 0. -1.
    9000005    1    1    2    0    0 -0.38935287957E+01  0.53134197329E+02 -0.13219594428E+03  0.14253129543E+03  0.10000000000E+01 0.  0.
    9000005    1    1    2    0    0  0.38935287957E+01 -0.53134197329E+02 -0.26205099949E+02  0.59381055528E+02  0.10000000000E+01 0.  0.
<mgrwt>
<rscale>  0 0.12521065E+03</rscale>
<asrwt>0</asrwt>
<pdfrwt beam="1">  1        4 0.54389139E-02 0.12521065E+03</pdfrwt>
<pdfrwt beam="2">  1       -4 0.45039170E-01 0.12521065E+03</pdfrwt>
<totfact> 0.16166891E+03</totfact>
</mgrwt>
</event>
<event>
 5    1  0.1431256E-002  0.1250034E+03  0.7818608E-02  0.1235064E+00
          4   -1    0    0  501    0  0.00000000000E+00  0.00000000000E+00  0.27020567072E+03  0.27020865528E+03  0.12700000000E+01 0. -1.
         -4   -1    0    0    0  501 -0.00000000000E+00 -0.00000000000E+00 -0.14426411777E+02  0.14482204830E+02  0.12700000000E+01 0. -1.
         25    2    1    2    0    0  0.00000000000E+00  0.00000000000E+00  0.25577925894E+03  0.28469086011E+03  0.12500342606E+03 0.  0.
    9000005    1    3    3    0    0 -0.37109191123E+01 -0.57536412564E+02  0.18279751884E+03  0.19167718327E+03  0.10000000000E+01 0.  0.
    9000005    1    3    3    0    0  0.37109191123E+01  0.57536412564E+02  0.72981740096E+02  0.93013676837E+02  0.10000000000E+01 0.  0.
<mgrwt>
<rscale>  0 0.12500343E+03</rscale>
<asrwt>0</asrwt>
<pdfrwt beam="1">  1        4 0.67558763E-01 0.12500343E+03</pdfrwt>
<pdfrwt beam="2">  1       -4 0.36139503E-02 0.12500343E+03</pdfrwt>
<totfact> 0.13410183E+03</totfact>
</mgrwt>
</event>
<event>
 5    1  0.1431256E-002  0.1250031E+03  0.7818608E-02  0.1235064E+00
         -4   -1    0    0    0  501 -0.00000000000E+00  0.00000000000E+00  0.48214035902E+01  0.49858632732E+01  0.12700000000E+01 0.  1.
          4   -1    0    0  501    0  0.00000000000E+00 -0.00000000000E+00 -0.79647749071E+03  0.79647850323E+03  0.12700000000E+01 0.  1.
         25    2    1    2    0    0  0.00000000000E+00  0.00000000000E+00 -0.79165608712E+03  0.80146436651E+03  0.12500308197E+03 0.  0.
    9000005    1    3    3    0    0 -0.28558664476E+02  0.45027216193E+02 -0.18684717537E+03  0.19430881210E+03  0.10000000000E+01 0.  0.
    9000005    1    3    3    0    0  0.28558664476E+02 -0.45027216193E+02 -0.60480891175E+03  0.60715555441E+03  0.10000000000E+01 0.  0.
<mgrwt>
<rscale>  0 0.12500308E+03</rscale>
<asrwt>0</asrwt>
<pdfrwt beam="2">  1        4 0.19913962E+00 0.12500308E+03</pdfrwt>
<pdfrwt beam="1">  1       -4 0.12260376E-02 0.12500308E+03</pdfrwt>
<totfact> 0.52345625E+02</totfact>
</mgrwt>
</event>
<event>
 4    1  0.1431256E-002  0.1250838E+03  0.7818608E-02  0.1234938E+00
          4   -1    0    0  501    0  0.00000000000E+00  0.00000000000E+00  0.10684732052E+03  0.10685486794E+03  0.12700000000E+01 0. -1.
         -4   -1    0    0    0  501 -0.00000000000E+00 -0.00000000000E+00 -0.36588340730E+02  0.36610375269E+02  0.12700000000E+01 0. -1.
    9000005    1    1    2    0    0  0.46078793798E+02  0.69012213492E+01  0.82967282850E+02  0.95160139331E+02  0.10000000000E+01 0.  0.
    9000005    1    1    2    0    0 -0.46078793798E+02 -0.69012213492E+01 -0.12708303060E+02  0.48305103877E+02  0.10000000000E+01 0.  0.
<mgrwt>
<rscale>  0 0.12508378E+03</rscale>
<asrwt>0</asrwt>
<pdfrwt beam="1">  1        4 0.26715528E-01 0.12508378E+03</pdfrwt>
<pdfrwt beam="2">  1       -4 0.91507830E-02 0.12508378E+03</pdfrwt>
<totfact> 0.18827659E+03</totfact>
</mgrwt>
</event>
<event>
 5    1  0.1431256E-002  0.1249888E+03  0.7818608E-02  0.1235087E+00
         -4   -1    0    0    0  501 -0.00000000000E+00  0.00000000000E+00  0.56254205366E+02  0.56268539357E+02  0.12700000000E+01 0.  1.
          4   -1    0    0  501    0  0.00000000000E+00 -0.00000000000E+00 -0.69397868400E+02  0.69409488101E+02  0.12700000000E+01 0.  1.
         25    2    1    2    0    0  0.00000000000E+00  0.00000000000E+00 -0.13143663034E+02  0.12567802746E+03  0.12498884233E+03 0.  0.
    9000005    1    3    3    0    0  0.24737343848E+02  0.69740274736E+01 -0.63841828007E+02  0.68828426127E+02  0.10000000000E+01 0.  0.
    9000005    1    3    3    0    0 -0.24737343848E+02 -0.69740274736E+01  0.50698164973E+02  0.56849601331E+02  0.10000000000E+01 0.  0.
<mgrwt>
<rscale>  0 0.12498884E+03</rscale>
<asrwt>0</asrwt>
<pdfrwt beam="2">  1        4 0.17352711E-01 0.12498884E+03</pdfrwt>
<pdfrwt beam="1">  1       -4 0.14066796E-01 0.12498884E+03</pdfrwt>
<totfact> 0.19803498E+03</totfact>
</mgrwt>
</event>
<event>
 5    1  0.1431256E-002  0.1250011E+03  0.7818608E-02  0.1235068E+00
         -4   -1    0    0    0  501 -0.00000000000E+00  0.00000000000E+00  0.18039984505E+03  0.18040431535E+03  0.12700000000E+01 0.  1.
          4   -1    0    0  501    0  0.00000000000E+00 -0.00000000000E+00 -0.21630300905E+02  0.21667552175E+02  0.12700000000E+01 0.  1.
         25    2    1    2    0    0  0.00000000000E+00  0.00000000000E+00  0.15876954415E+03  0.20207186752E+03  0.12500108597E+03 0.  0.
    9000005    1    3    3    0    0  0.38358809442E+02  0.31924053082E+02  0.14018926522E+03  0.14881052890E+03  0.10000000000E+01 0.  0.
    9000005    1    3    3    0    0 -0.38358809442E+02 -0.31924053082E+02  0.18580278926E+02  0.53261338624E+02  0.10000000000E+01 0.  0.
<mgrwt>
<rscale>  0 0.12500109E+03</rscale>
<asrwt>0</asrwt>
<pdfrwt beam="2">  1        4 0.54127905E-02 0.12500109E+03</pdfrwt>
<pdfrwt beam="1">  1       -4 0.45105176E-01 0.12500109E+03</pdfrwt>
<totfact> 0.16239008E+03</totfact>
</mgrwt>
</event>
<event>
 5    1  0.1431256E-002  0.1250003E+03  0.7818608E-02  0.1235069E+00
         -4   -1    0    0    0  501 -0.00000000000E+00  0.00000000000E+00  0.87387044373E+02  0.87396272370E+02  0.12700000000E+01 0.  1.
          4   -1    0    0  501    0  0.00000000000E+00 -0.00000000000E+00 -0.44680167969E+02  0.44698213719E+02  0.12700000000E+01 0.  1.
         25    2    1    2    0    0  0.00000000000E+00  0.00000000000E+00  0.42706876404E+02  0.13209448609E+03  0.12500030385E+03 0.  0.
    9000005    1    3    3    0    0  0.50600812951E+02  0.33830204201E+02  0.36311034053E+02  0.70883116337E+02  0.10000000000E+01 0.  0.
    9000005    1    3    3    0    0 -0.50600812951E+02 -0.33830204201E+02  0.63958423509E+01  0.61211369753E+02  0.10000000000E+01 0.  0.
<mgrwt>
<rscale>  0 0.12500030E+03</rscale>
<asrwt>0</asrwt>
<pdfrwt beam="2">  1        4 0.11173451E-01 0.12500030E+03</pdfrwt>
<pdfrwt beam="1">  1       -4 0.21850170E-01 0.12500030E+03</pdfrwt>
<totfact> 0.19452293E+03</totfact>
</mgrwt>
</event>
<event>
 5    1  0.1431256E-002  0.1250007E+03  0.7818608E-02  0.1235068E+00
         -4   -1    0    0    0  501 -0.00000000000E+00  0.00000000000E+00  0.10396438894E+02  0.10473721482E+02  0.12700000000E+01 0.  1.
          4   -1    0    0  501    0  0.00000000000E+00 -0.00000000000E+00 -0.37426383906E+03  0.37426599381E+03  0.12700000000E+01 0.  1.
         25    2    1    2    0    0  0.00000000000E+00  0.00000000000E+00 -0.36386740016E+03  0.38473971530E+03  0.12500065450E+03 0.  0.
    9000005    1    3    3    0    0  0.44870049423E+02 -0.37640857266E+02 -0.24902457304E+03  0.25582101839E+03  0.10000000000E+01 0.  0.
    9000005    1    3    3    0    0 -0.44870049423E+02  0.37640857266E+02 -0.11484282712E+03  0.12891869691E+03  0.10000000000E+01 0.  0.
<mgrwt>
<rscale>  0 0.12500065E+03</rscale>
<asrwt>0</asrwt>
<pdfrwt beam="2">  1        4 0.93575845E-01 0.12500065E+03</pdfrwt>
<pdfrwt beam="1">  1       -4 0.26090406E-02 0.12500065E+03</pdfrwt>
<totfact> 0.10890279E+03</totfact>
</mgrwt>
</event>
<event>
 5    1  0.1431256E-002  0.1249888E+03  0.7818608E-02  0.1235087E+00
          4   -1    0    0  501    0  0.00000000000E+00  0.00000000000E+00  0.21003396277E+02  0.21041757416E+02  0.12700000000E+01 0.  1.
         -4   -1    0    0    0  501 -0.00000000000E+00 -0.00000000000E+00 -0.18573845316E+03  0.18574279497E+03  0.12700000000E+01 0.  1.
         25    2    1    2    0    0  0.00000000000E+00  0.00000000000E+00 -0.16473505688E+03  0.20678455238E+03  0.12498884806E+03 0.  0.
    9000005    1    3    3    0    0  0.90898693759E+01  0.60146822366E+02 -0.58721006852E+02  0.84554258389E+02  0.10000000000E+01 0.  0.
    9000005    1    3    3    0    0 -0.90898693759E+01 -0.60146822366E+02 -0.10601405003E+03  0.12223029399E+03  0.10000000000E+01 0.  0.
<mgrwt>
<rscale>  0 0.12498885E+03</rscale>
<asrwt>0</asrwt>
<pdfrwt beam="1">  1        4 0.52561875E-02 0.12498885E+03</pdfrwt>
<pdfrwt beam="2">  1       -4 0.46439946E-01 0.12498885E+03</pdfrwt>
<totfact> 0.16058073E+03</totfact>
</mgrwt>
</event>
<event>
 5    1  0.1431256E-002  0.1249986E+03  0.7818608E-02  0.1235071E+00
          4   -1    0    0  501    0  0.00000000000E+00  0.00000000000E+00  0.33350986514E+02  0.33375158449E+02  0.12700000000E+01 0.  1.
         -4   -1    0    0    0  501 -0.00000000000E+00 -0.00000000000E+00 -0.11705279818E+03  0.11705968761E+03  0.12700000000E+01 0.  1.
         25    2    1    2    0    0  0.00000000000E+00  0.00000000000E+00 -0.83701811668E+02  0.15043484605E+03  0.12499859852E+03 0.  0.
    9000005    1    3    3    0    0  0.20215155182E+02  0.31706147972E+02 -0.10191988101E+03  0.10863974624E+03  0.10000000000E+01 0.  0.
    9000005    1    3    3    0    0 -0.20215155182E+02 -0.31706147972E+02  0.18218069339E+02  0.41795099816E+02  0.10000000000E+01 0.  0.
<mgrwt>
<rscale>  0 0.12499860E+03</rscale>
<asrwt>0</asrwt>
<pdfrwt beam="1">  1        4 0.83416296E-02 0.12499860E+03</pdfrwt>
<pdfrwt beam="2">  1       -4 0.29267081E-01 0.12499860E+03</pdfrwt>
<totfact> 0.18518024E+03</totfact>
</mgrwt>
</event>
<event>
 5    1  0.1431256E-002  0.1250028E+03  0.7818608E-02  0.1235065E+00
          4   -1    0    0  501    0  0.00000000000E+00  0.00000000000E+00  0.10043378598E+02  0.10123356838E+02  0.12700000000E+01 0.  1.
         -4   -1    0    0    0  501 -0.00000000000E+00 -0.00000000000E+00 -0.38733174715E+03  0.38733382921E+03  0.12700000000E+01 0.  1.
         25    2    1    2    0    0  0.00000000000E+00  0.00000000000E+00 -0.37728836855E+03  0.39745718604E+03  0.12500280675E+03 0.  0.
    9000005    1    3    3    0    0  0.33594367658E+02 -0.28004852420E+02 -0.33057529919E+03  0.33345746615E+03  0.10000000000E+01 0.  0.
    9000005    1    3    3    0    0 -0.33594367658E+02  0.28004852420E+02 -0.46713069355E+02  0.63999719890E+02  0.10000000000E+01 0.  0.
<mgrwt>
<rscale>  0 0.12500281E+03</rscale>
<asrwt>0</asrwt>
<pdfrwt beam="1">  1        4 0.25211035E-02 0.12500281E+03</pdfrwt>
<pdfrwt beam="2">  1       -4 0.96843145E-01 0.12500281E+03</pdfrwt>
<totfact> 0.10621090E+03</totfact>
</mgrwt>
</event>
<event>
 5    1  0.1431256E-002  0.1249999E+03  0.7818608E-02  0.1235069E+00
          4   -1    0    0  501    0  0.00000000000E+00  0.00000000000E+00  0.56250094931E+01  0.57665962055E+01  0.12700000000E+01 0.  1.
         -4   -1    0    0    0  501 -0.00000000000E+00 -0.00000000000E+00 -0.68566909857E+03  0.68567027472E+03  0.12700000000E+01 0.  1.
         25    2    1    2    0    0  0.00000000000E+00  0.00000000000E+00 -0.68004408908E+03  0.69143687093E+03  0.12499993354E+03 0.  0.
    9000005    1    3    3    0    0  0.42354531533E+02  0.22399500866E+02 -0.56194487657E+03  0.56398465252E+03  0.10000000000E+01 0.  0.
    9000005    1    3    3    0    0 -0.42354531533E+02 -0.22399500866E+02 -0.11809921251E+03  0.12745221841E+03  0.10000000000E+01 0.  0.
<mgrwt>
<rscale>  0 0.12499993E+03</rscale>
<asrwt>0</asrwt>
<pdfrwt beam="1">  1        4 0.14241001E-02 0.12499993E+03</pdfrwt>
<pdfrwt beam="2">  1       -4 0.17143484E+00 0.12499993E+03</pdfrwt>
<totfact> 0.62961724E+02</totfact>
</mgrwt>
</event>
<event>
 5    1  0.1431256E-002  0.1249980E+03  0.7818608E-02  0.1235072E+00
         -4   -1    0    0    0  501 -0.00000000000E+00  0.00000000000E+00  0.47147843696E+02  0.47164945300E+02  0.12700000000E+01 0. -1.
          4   -1    0    0  501    0  0.00000000000E+00 -0.00000000000E+00 -0.82811466268E+02  0.82821204081E+02  0.12700000000E+01 0. -1.
         25    2    1    2    0    0  0.00000000000E+00  0.00000000000E+00 -0.35663622572E+02  0.12998614938E+03  0.12499802021E+03 0.  0.
    9000005    1    3    3    0    0  0.11749585917E+02 -0.42799720666E+02 -0.63578884405E+02  0.77544460798E+02  0.10000000000E+01 0.  0.
    9000005    1    3    3    0    0 -0.11749585917E+02  0.42799720666E+02  0.27915261833E+02  0.52441688583E+02  0.10000000000E+01 0.  0.
<mgrwt>
<rscale>  0 0.12499802E+03</rscale>
<asrwt>0</asrwt>
<pdfrwt beam="2">  1        4 0.20706221E-01 0.12499802E+03</pdfrwt>
<pdfrwt beam="1">  1       -4 0.11790316E-01 0.12499802E+03</pdfrwt>
<totfact> 0.19566031E+03</totfact>
</mgrwt>
</event>
<event>
 5    1  0.1431256E-002  0.1250079E+03  0.7818608E-02  0.1235057E+00
         -4   -1    0    0    0  501 -0.00000000000E+00  0.00000000000E+00  0.51809016385E+01  0.53342892486E+01  0.12700000000E+01 0. -1.
          4   -1    0    0  501    0  0.00000000000E+00 -0.00000000000E+00 -0.74291299658E+03  0.74291408210E+03  0.12700000000E+01 0. -1.
         25    2    1    2    0    0  0.00000000000E+00  0.00000000000E+00 -0.73773209494E+03  0.74824837135E+03  0.12500792504E+03 0.  0.
    9000005    1    3    3    0    0 -0.47086449397E+02  0.10491930678E+02 -0.13105348533E+03  0.13965396644E+03  0.10000000000E+01 0.  0.
    9000005    1    3    3    0    0  0.47086449397E+02 -0.10491930678E+02 -0.60667860961E+03  0.60859440491E+03  0.10000000000E+01 0.  0.
<mgrwt>
<rscale>  0 0.12500793E+03</rscale>
<asrwt>0</asrwt>
<pdfrwt beam="2">  1        4 0.18574720E+00 0.12500793E+03</pdfrwt>
<pdfrwt beam="1">  1       -4 0.13145371E-02 0.12500793E+03</pdfrwt>
<totfact> 0.57227715E+02</totfact>
</mgrwt>
</event>
<event>
 5    1  0.1431256E-002  0.1250075E+03  0.7818608E-02  0.1235058E+00
         -4   -1    0    0    0  501 -0.00000000000E+00  0.00000000000E+00  0.60056467162E+02  0.60069893857E+02  0.12700000000E+01 0.  1.
          4   -1    0    0  501    0  0.00000000000E+00 -0.00000000000E+00 -0.65023836163E+02  0.65036237356E+02  0.12700000000E+01 0.  1.
         25    2    1    2    0    0  0.00000000000E+00  0.00000000000E+00 -0.49673690014E+01  0.12510613121E+03  0.12500747702E+03 0.  0.
    9000005    1    3    3    0    0  0.34439565894E+02  0.50058648452E+02  0.12148570239E+02  0.61972088416E+02  0.10000000000E+01 0.  0.
    9000005    1    3    3    0    0 -0.34439565894E+02 -0.50058648452E+02 -0.17115939240E+02  0.63134042797E+02  0.10000000000E+01 0.  0.
<mgrwt>
<rscale>  0 0.12500748E+03</rscale>
<asrwt>0</asrwt>
<pdfrwt beam="2">  1        4 0.16259188E-01 0.12500748E+03</pdfrwt>
<pdfrwt beam="1">  1       -4 0.15017345E-01 0.12500748E+03</pdfrwt>
<totfact> 0.19825832E+03</totfact>
</mgrwt>
</event>
<event>
 5    1  0.1431256E-002  0.1249985E+03  0.7818608E-02  0.1235072E+00
          4   -1    0    0  501    0  0.00000000000E+00  0.00000000000E+00  0.12574328151E+03  0.12574969481E+03  0.12700000000E+01 0. -1.
         -4   -1    0    0    0  501 -0.00000000000E+00 -0.00000000000E+00 -0.31044340969E+02  0.31070307468E+02  0.12700000000E+01 0. -1.
         25    2    1    2    0    0  0.00000000000E+00  0.00000000000E+00  0.94698940544E+02  0.15682000228E+03  0.12499849509E+03 0.  0.
    9000005    1    3    3    0    0 -0.19529486131E+02  0.59335870475E+02  0.45173011909E+02  0.77095702594E+02  0.10000000000E+01 0.  0.
    9000005    1    3    3    0    0  0.19529486131E+02 -0.59335870475E+02  0.49525928635E+02  0.79724299687E+02  0.10000000000E+01 0.  0.
<mgrwt>
<rscale>  0 0.12499850E+03</rscale>
<asrwt>0</asrwt>
<pdfrwt beam="1">  1        4 0.31439868E-01 0.12499850E+03</pdfrwt>
<pdfrwt beam="2">  1       -4 0.77651328E-02 0.12499850E+03</pdfrwt>
<totfact> 0.18209082E+03</totfact>
</mgrwt>
</event>
<event>
 5    1  0.1431256E-002  0.1250009E+03  0.7818608E-02  0.1235068E+00
         -4   -1    0    0    0  501 -0.00000000000E+00  0.00000000000E+00  0.33219175322E+03  0.33219418088E+03  0.12700000000E+01 0.  1.
          4   -1    0    0  501    0  0.00000000000E+00 -0.00000000000E+00 -0.11722425919E+02  0.11791020712E+02  0.12700000000E+01 0.  1.
         25    2    1    2    0    0  0.00000000000E+00  0.00000000000E+00  0.32046932730E+03  0.34398520159E+03  0.12500091668E+03 0.  0.
    9000005    1    3    3    0    0  0.57437014327E+02 -0.22966943174E+02  0.18466527331E+03  0.19475305970E+03  0.10000000000E+01 0.  0.
    9000005    1    3    3    0    0 -0.57437014327E+02  0.22966943174E+02  0.13580405399E+03  0.14923214189E+03  0.10000000000E+01 0.  0.
<mgrwt>
<rscale>  0 0.12500092E+03</rscale>
<asrwt>0</asrwt>
<pdfrwt beam="2">  1        4 0.29394841E-02 0.12500092E+03</pdfrwt>
<pdfrwt beam="1">  1       -4 0.83056820E-01 0.12500092E+03</pdfrwt>
<totfact> 0.11821834E+03</totfact>
</mgrwt>
</event>
<event>
 5    1  0.1431256E-002  0.1249929E+03  0.7818608E-02  0.1235080E+00
          4   -1    0    0  501    0  0.00000000000E+00  0.00000000000E+00  0.17848044596E+03  0.17848496432E+03  0.12700000000E+01 0. -1.
         -4   -1    0    0    0  501 -0.00000000000E+00 -0.00000000000E+00 -0.21860444164E+02  0.21897303922E+02  0.12700000000E+01 0. -1.
         25    2    1    2    0    0  0.00000000000E+00  0.00000000000E+00  0.15662000179E+03  0.20038226824E+03  0.12499291366E+03 0.  0.
    9000005    1    3    3    0    0 -0.11373337277E+02  0.58993058614E+02  0.50762257894E+02  0.78659650342E+02  0.10000000000E+01 0.  0.
    9000005    1    3    3    0    0  0.11373337277E+02 -0.58993058614E+02  0.10585774390E+03  0.12172261790E+03  0.10000000000E+01 0.  0.
<mgrwt>
<rscale>  0 0.12499291E+03</rscale>
<asrwt>0</asrwt>
<pdfrwt beam="1">  1        4 0.44625283E-01 0.12499291E+03</pdfrwt>
<pdfrwt beam="2">  1       -4 0.54702834E-02 0.12499291E+03</pdfrwt>
<totfact> 0.16309418E+03</totfact>
</mgrwt>
</event>
<event>
 5    1  0.1431256E-002  0.1249949E+03  0.7818608E-02  0.1235077E+00
         -4   -1    0    0    0  501 -0.00000000000E+00  0.00000000000E+00  0.37717975572E+01  0.39798689442E+01  0.12700000000E+01 0.  1.
          4   -1    0    0  501    0  0.00000000000E+00 -0.00000000000E+00 -0.10075576641E+04  0.10075584645E+04  0.12700000000E+01 0.  1.
         25    2    1    2    0    0  0.00000000000E+00  0.00000000000E+00 -0.10037858666E+04  0.10115383335E+04  0.12499493653E+03 0.  0.
    9000005    1    3    3    0    0  0.31120214722E+02  0.44799730065E+02 -0.74861212408E+03  0.75059749260E+03  0.10000000000E+01 0.  0.
    9000005    1    3    3    0    0 -0.31120214722E+02 -0.44799730065E+02 -0.25517374248E+03  0.26094084086E+03  0.10000000000E+01 0.  0.
<mgrwt>
<rscale>  0 0.12499494E+03</rscale>
<asrwt>0</asrwt>
<pdfrwt beam="2">  1        4 0.25191463E+00 0.12499494E+03</pdfrwt>
<pdfrwt beam="1">  1       -4 0.96906181E-03 0.12499494E+03</pdfrwt>
<totfact> 0.36342784E+02</totfact>
</mgrwt>
</event>
<event>
 5    1  0.1431256E-002  0.1249993E+03  0.7818608E-02  0.1235070E+00
          4   -1    0    0  501    0  0.00000000000E+00  0.00000000000E+00  0.58255336148E+02  0.58269177871E+02  0.12700000000E+01 0. -1.
         -4   -1    0    0    0  501 -0.00000000000E+00 -0.00000000000E+00 -0.67025343132E+02  0.67037374068E+02  0.12700000000E+01 0. -1.
         25    2    1    2    0    0  0.00000000000E+00  0.00000000000E+00 -0.87700069841E+01  0.12530655194E+03  0.12499927574E+03 0.  0.
    9000005    1    3    3    0    0  0.55664334711E+02 -0.26743477733E+02  0.52026577909E+01  0.61982250751E+02  0.10000000000E+01 0.  0.
    9000005    1    3    3    0    0 -0.55664334711E+02  0.26743477733E+02 -0.13972664775E+02  0.63324301188E+02  0.10000000000E+01 0.  0.
<mgrwt>
<rscale>  0 0.12499928E+03</rscale>
<asrwt>0</asrwt>
<pdfrwt beam="1">  1        4 0.14567068E-01 0.12499928E+03</pdfrwt>
<pdfrwt beam="2">  1       -4 0.16759570E-01 0.12499928E+03</pdfrwt>
<totfact> 0.19818775E+03</totfact>
</mgrwt>
</event>
<event>
 5    1  0.1431256E-002  0.1249973E+03  0.7818608E-02  0.1235074E+00
         -4   -1    0    0    0  501 -0.00000000000E+00  0.00000000000E+00  0.97737881116E+01  0.98559542435E+01  0.12700000000E+01 0. -1.
          4   -1    0    0  501    0  0.00000000000E+00 -0.00000000000E+00 -0.39789261846E+03  0.39789464526E+03  0.12700000000E+01 0. -1.
         25    2    1    2    0    0  0.00000000000E+00  0.00000000000E+00 -0.38811883035E+03  0.40775059950E+03  0.12499729966E+03 0.  0.
    9000005    1    3    3    0    0  0.19211093716E+02 -0.52649125606E+02 -0.28422996625E+03  0.28970445330E+03  0.10000000000E+01 0.  0.
    9000005    1    3    3    0    0 -0.19211093716E+02  0.52649125606E+02 -0.10388886410E+03  0.11804614620E+03  0.10000000000E+01 0.  0.
<mgrwt>
<rscale>  0 0.12499730E+03</rscale>
<asrwt>0</asrwt>
<pdfrwt beam="2">  1        4 0.99483625E-01 0.12499730E+03</pdfrwt>
<pdfrwt beam="1">  1       -4 0.24539725E-02 0.12499730E+03</pdfrwt>
<totfact> 0.10411916E+03</totfact>
</mgrwt>
</event>
<event>
 5    1  0.1431256E-002  0.1249942E+03  0.7818608E-02  0.1235078E+00
         -4   -1    0    0    0  501 -0.00000000000E+00  0.00000000000E+00  0.24934357108E+02  0.24966679082E+02  0.12700000000E+01 0. -1.
          4   -1    0    0  501    0  0.00000000000E+00 -0.00000000000E+00 -0.15651041252E+03  0.15651556513E+03  0.12700000000E+01 0. -1.
         25    2    1    2    0    0  0.00000000000E+00  0.00000000000E+00 -0.13157605542E+03  0.18148224421E+03  0.12499418629E+03 0.  0.
    9000005    1    3    3    0    0  0.13180636082E+02 -0.61068220576E+02 -0.63823942454E+02  0.89317144839E+02  0.10000000000E+01 0.  0.
    9000005    1    3    3    0    0 -0.13180636082E+02  0.61068220576E+02 -0.67752112962E+02  0.92165099374E+02  0.10000000000E+01 0.  0.
<mgrwt>
<rscale>  0 0.12499419E+03</rscale>
<asrwt>0</asrwt>
<pdfrwt beam="2">  1        4 0.39132285E-01 0.12499419E+03</pdfrwt>
<pdfrwt beam="1">  1       -4 0.62382740E-02 0.12499419E+03</pdfrwt>
<totfact> 0.17093552E+03</totfact>
</mgrwt>
</event>
<event>
 5    1  0.1431256E-002  0.1250008E+03  0.7818608E-02  0.1235068E+00
         -4   -1    0    0    0  501 -0.00000000000E+00  0.00000000000E+00  0.97673309572E+02  0.97681565829E+02  0.12700000000E+01 0.  1.
          4   -1    0    0  501    0  0.00000000000E+00 -0.00000000000E+00 -0.39973470672E+02  0.39993640214E+02  0.12700000000E+01 0.  1.
         25    2    1    2    0    0  0.00000000000E+00  0.00000000000E+00  0.57699838900E+02  0.13767520604E+03  0.12500076380E+03 0.  0.
    9000005    1    3    3    0    0  0.38884410284E+02 -0.36783733592E+02  0.64373232093E+02  0.83725464646E+02  0.10000000000E+01 0.  0.
    9000005    1    3    3    0    0 -0.38884410284E+02  0.36783733592E+02 -0.66733931930E+01  0.53949741397E+02  0.10000000000E+01 0.  0.
<mgrwt>
<rscale>  0 0.12500076E+03</rscale>
<asrwt>0</asrwt>
<pdfrwt beam="2">  1        4 0.99969210E-02 0.12500076E+03</pdfrwt>
<pdfrwt beam="1">  1       -4 0.24421880E-01 0.12500076E+03</pdfrwt>
<totfact> 0.19159572E+03</totfact>
</mgrwt>
</event>
<event>
 5    1  0.1431256E-002  0.1249978E+03  0.7818608E-02  0.1235073E+00
          4   -1    0    0  501    0  0.00000000000E+00  0.00000000000E+00  0.21317075435E+02  0.21354873100E+02  0.12700000000E+01 0. -1.
         -4   -1    0    0    0  501 -0.00000000000E+00 -0.00000000000E+00 -0.18303627516E+03  0.18304068106E+03  0.12700000000E+01 0. -1.
         25    2    1    2    0    0  0.00000000000E+00  0.00000000000E+00 -0.16171919972E+03  0.20439555416E+03  0.12499777199E+03 0.  0.
    9000005    1    3    3    0    0 -0.18534669109E+02  0.59604260910E+02 -0.75978917383E+02  0.98336146784E+02  0.10000000000E+01 0.  0.
    9000005    1    3    3    0    0  0.18534669109E+02 -0.59604260910E+02 -0.85740282338E+02  0.10605940738E+03  0.10000000000E+01 0.  0.
<mgrwt>
<rscale>  0 0.12499777E+03</rscale>
<asrwt>0</asrwt>
<pdfrwt beam="1">  1        4 0.53345449E-02 0.12499777E+03</pdfrwt>
<pdfrwt beam="2">  1       -4 0.45764340E-01 0.12499777E+03</pdfrwt>
<totfact> 0.16148369E+03</totfact>
</mgrwt>
</event>
<event>
 5    1  0.1431256E-002  0.1250054E+03  0.7818608E-02  0.1235061E+00
         -4   -1    0    0    0  501 -0.00000000000E+00  0.00000000000E+00  0.84455552390E+01  0.85405095453E+01  0.12700000000E+01 0. -1.
          4   -1    0    0  501    0  0.00000000000E+00 -0.00000000000E+00 -0.45988010437E+03  0.45988185797E+03  0.12700000000E+01 0. -1.
         25    2    1    2    0    0  0.00000000000E+00  0.00000000000E+00 -0.45143454913E+03  0.46842236752E+03  0.12500544886E+03 0.  0.
    9000005    1    3    3    0    0 -0.44561020002E+02 -0.13039884065E+02 -0.38246861421E+03  0.38527777504E+03  0.10000000000E+01 0.  0.
    9000005    1    3    3    0    0  0.44561020002E+02  0.13039884065E+02 -0.68965934914E+02  0.83144592480E+02  0.10000000000E+01 0.  0.
<mgrwt>
<rscale>  0 0.12500545E+03</rscale>
<asrwt>0</asrwt>
<pdfrwt beam="2">  1        4 0.11498203E+00 0.12500545E+03</pdfrwt>
<pdfrwt beam="1">  1       -4 0.21234788E-02 0.12500545E+03</pdfrwt>
<totfact> 0.92789620E+02</totfact>
</mgrwt>
</event>
<event>
 5    1  0.1431256E-002  0.1249986E+03  0.7818608E-02  0.1235071E+00
         -4   -1    0    0    0  501 -0.00000000000E+00  0.00000000000E+00  0.36816601454E+02  0.36838499463E+02  0.12700000000E+01 0. -1.
          4   -1    0    0  501    0  0.00000000000E+00 -0.00000000000E+00 -0.10604060902E+03  0.10604821385E+03  0.12700000000E+01 0. -1.
         25    2    1    2    0    0  0.00000000000E+00  0.00000000000E+00 -0.69224007568E+02  0.14288671332E+03  0.12499859847E+03 0.  0.
    9000005    1    3    3    0    0 -0.23578033048E+02 -0.33651717614E+02  0.19208780809E+02  0.45368921090E+02  0.10000000000E+01 0.  0.
    9000005    1    3    3    0    0  0.23578033048E+02  0.33651717614E+02 -0.88432788376E+02  0.97517792227E+02  0.10000000000E+01 0.  0.
<mgrwt>
<rscale>  0 0.12499860E+03</rscale>
<asrwt>0</asrwt>
<pdfrwt beam="2">  1        4 0.26513839E-01 0.12499860E+03</pdfrwt>
<pdfrwt beam="1">  1       -4 0.92078385E-02 0.12499860E+03</pdfrwt>
<totfact> 0.18894241E+03</totfact>
</mgrwt>
</event>
<event>
 5    1  0.1431256E-002  0.1249886E+03  0.7818608E-02  0.1235087E+00
         -4   -1    0    0    0  501 -0.00000000000E+00  0.00000000000E+00  0.54241743676E+01  0.55708677574E+01  0.12700000000E+01 0. -1.
          4   -1    0    0  501    0  0.00000000000E+00 -0.00000000000E+00 -0.71027041322E+03  0.71027154863E+03  0.12700000000E+01 0. -1.
         25    2    1    2    0    0  0.00000000000E+00  0.00000000000E+00 -0.70484623885E+03  0.71584241639E+03  0.12498857819E+03 0.  0.
    9000005    1    3    3    0    0  0.30121001182E+02  0.42503457522E+02 -0.55005248619E+03  0.55251475652E+03  0.10000000000E+01 0.  0.
    9000005    1    3    3    0    0 -0.30121001182E+02 -0.42503457522E+02 -0.15479375267E+03  0.16332765987E+03  0.10000000000E+01 0.  0.
<mgrwt>
<rscale>  0 0.12498858E+03</rscale>
<asrwt>0</asrwt>
<pdfrwt beam="2">  1        4 0.17758577E+00 0.12498858E+03</pdfrwt>
<pdfrwt beam="1">  1       -4 0.13745246E-02 0.12498858E+03</pdfrwt>
<totfact> 0.60449727E+02</totfact>
</mgrwt>
</event>
<event>
 5    1  0.1431256E-002  0.1249880E+03  0.7818608E-02  0.1235088E+00
          4   -1    0    0  501    0  0.00000000000E+00  0.00000000000E+00  0.38940031361E+02  0.38960735907E+02  0.12700000000E+01 0.  1.
         -4   -1    0    0    0  501 -0.00000000000E+00 -0.00000000000E+00 -0.10024392378E+03  0.10025196833E+03  0.12700000000E+01 0.  1.
         25    2    1    2    0    0  0.00000000000E+00  0.00000000000E+00 -0.61303892414E+02  0.13921270424E+03  0.12498803861E+03 0.  0.
    9000005    1    3    3    0    0  0.42380144068E+02  0.37762858797E+02 -0.15563348988E+01  0.56793769853E+02  0.10000000000E+01 0.  0.
    9000005    1    3    3    0    0 -0.42380144068E+02 -0.37762858797E+02 -0.59747557516E+02  0.82418934383E+02  0.10000000000E+01 0.  0.
<mgrwt>
<rscale>  0 0.12498804E+03</rscale>
<asrwt>0</asrwt>
<pdfrwt beam="1">  1        4 0.97386017E-02 0.12498804E+03</pdfrwt>
<pdfrwt beam="2">  1       -4 0.25064574E-01 0.12498804E+03</pdfrwt>
<totfact> 0.19086015E+03</totfact>
</mgrwt>
</event>
<event>
 5    1  0.1431256E-002  0.1249889E+03  0.7818608E-02  0.1235087E+00
         -4   -1    0    0    0  501 -0.00000000000E+00  0.00000000000E+00  0.63336297069E+03  0.63336424397E+03  0.12700000000E+01 0.  1.
          4   -1    0    0  501    0  0.00000000000E+00 -0.00000000000E+00 -0.60996965627E+01  0.62305054496E+01  0.12700000000E+01 0.  1.
         25    2    1    2    0    0  0.00000000000E+00  0.00000000000E+00  0.62726327412E+03  0.63959474942E+03  0.12498891318E+03 0.  0.
    9000005    1    3    3    0    0 -0.16043954866E+02  0.55256040979E+02  0.18892291070E+03  0.19749304985E+03  0.10000000000E+01 0.  0.
    9000005    1    3    3    0    0  0.16043954866E+02 -0.55256040979E+02  0.43834036342E+03  0.44210169956E+03  0.10000000000E+01 0.  0.
<mgrwt>
<rscale>  0 0.12498891E+03</rscale>
<asrwt>0</asrwt>
<pdfrwt beam="2">  1        4 0.15414347E-02 0.12498891E+03</pdfrwt>
<pdfrwt beam="1">  1       -4 0.15835722E+00 0.12498891E+03</pdfrwt>
<totfact> 0.68731489E+02</totfact>
</mgrwt>
</event>
<event>
 5    1  0.1431256E-002  0.1250008E+03  0.7818608E-02  0.1235068E+00
          4   -1    0    0  501    0  0.00000000000E+00  0.00000000000E+00  0.26613161772E+02  0.26643447215E+02  0.12700000000E+01 0. -1.
         -4   -1    0    0    0  501 -0.00000000000E+00 -0.00000000000E+00 -0.14666426668E+03  0.14666976519E+03  0.12700000000E+01 0. -1.
         25    2    1    2    0    0  0.00000000000E+00  0.00000000000E+00 -0.12005110490E+03  0.17331321240E+03  0.12500080721E+03 0.  0.
    9000005    1    3    3    0    0 -0.25104666963E+02  0.49947283672E+02 -0.98756365638E+02  0.11348477961E+03  0.10000000000E+01 0.  0.
    9000005    1    3    3    0    0  0.25104666963E+02 -0.49947283672E+02 -0.21294739266E+02  0.59828432789E+02  0.10000000000E+01 0.  0.
<mgrwt>
<rscale>  0 0.12500081E+03</rscale>
<asrwt>0</asrwt>
<pdfrwt beam="1">  1        4 0.66577639E-02 0.12500081E+03</pdfrwt>
<pdfrwt beam="2">  1       -4 0.36670537E-01 0.12500081E+03</pdfrwt>
<totfact> 0.17448308E+03</totfact>
</mgrwt>
</event>
<event>
 5    1  0.1431256E-002  0.1249977E+03  0.7818608E-02  0.1235073E+00
          4   -1    0    0  501    0  0.00000000000E+00  0.00000000000E+00  0.34004435088E+02  0.34028142848E+02  0.12700000000E+01 0.  1.
         -4   -1    0    0    0  501 -0.00000000000E+00 -0.00000000000E+00 -0.11480321342E+03  0.11481023784E+03  0.12700000000E+01 0.  1.
         25    2    1    2    0    0  0.00000000000E+00  0.00000000000E+00 -0.80798778333E+02  0.14883838068E+03  0.12499768392E+03 0.  0.
    9000005    1    3    3    0    0  0.57965058132E+02  0.17532998976E+01 -0.12676023525E+02  0.59369214220E+02  0.10000000000E+01 0.  0.
    9000005    1    3    3    0    0 -0.57965058132E+02 -0.17532998976E+01 -0.68122754808E+02  0.89469166462E+02  0.10000000000E+01 0.  0.
<mgrwt>
<rscale>  0 0.12499768E+03</rscale>
<asrwt>0</asrwt>
<pdfrwt beam="1">  1        4 0.85049506E-02 0.12499768E+03</pdfrwt>
<pdfrwt beam="2">  1       -4 0.28704644E-01 0.12499768E+03</pdfrwt>
<totfact> 0.18597048E+03</totfact>
</mgrwt>
</event>
<event>
 5    1  0.1431256E-002  0.1249998E+03  0.7818608E-02  0.1235070E+00
         -4   -1    0    0    0  501 -0.00000000000E+00  0.00000000000E+00  0.22942082105E+02  0.22977206778E+02  0.12700000000E+01 0.  1.
          4   -1    0    0  501    0  0.00000000000E+00 -0.00000000000E+00 -0.17009752414E+03  0.17010226518E+03  0.12700000000E+01 0.  1.
         25    2    1    2    0    0  0.00000000000E+00  0.00000000000E+00 -0.14715544203E+03  0.19307947196E+03  0.12499983348E+03 0.  0.
    9000005    1    3    3    0    0  0.43815343375E+02  0.40048814082E+02 -0.43405927518E+02  0.73544315676E+02  0.10000000000E+01 0.  0.
    9000005    1    3    3    0    0 -0.43815343375E+02 -0.40048814082E+02 -0.10374951452E+03  0.11953515628E+03  0.10000000000E+01 0.  0.
<mgrwt>
<rscale>  0 0.12499983E+03</rscale>
<asrwt>0</asrwt>
<pdfrwt beam="2">  1        4 0.42529361E-01 0.12499983E+03</pdfrwt>
<pdfrwt beam="1">  1       -4 0.57405042E-02 0.12499983E+03</pdfrwt>
<totfact> 0.16603017E+03</totfact>
</mgrwt>
</event>
<event>
 5    1  0.1431256E-002  0.1249994E+03  0.7818608E-02  0.1235070E+00
          4   -1    0    0  501    0  0.00000000000E+00  0.00000000000E+00  0.67192933434E+01  0.68382602345E+01  0.12700000000E+01 0. -1.
         -4   -1    0    0    0  501 -0.00000000000E+00 -0.00000000000E+00 -0.57612207362E+03  0.57612347341E+03  0.12700000000E+01 0. -1.
         25    2    1    2    0    0  0.00000000000E+00  0.00000000000E+00 -0.56940278028E+03  0.58296173364E+03  0.12499942682E+03 0.  0.
    9000005    1    3    3    0    0 -0.98956943254E+01  0.61698355924E+02 -0.28832076476E+03  0.29501605936E+03  0.10000000000E+01 0.  0.
    9000005    1    3    3    0    0  0.98956943254E+01 -0.61698355924E+02 -0.28108201552E+03  0.28794567428E+03  0.10000000000E+01 0.  0.
<mgrwt>
<rscale>  0 0.12499943E+03</rscale>
<asrwt>0</asrwt>
<pdfrwt beam="1">  1        4 0.16948711E-02 0.12499943E+03</pdfrwt>
<pdfrwt beam="2">  1       -4 0.14404540E+00 0.12499943E+03</pdfrwt>
<totfact> 0.75690454E+02</totfact>
</mgrwt>
</event>
<event>
 5    1  0.1431256E-002  0.1250001E+03  0.7818608E-02  0.1235069E+00
         -4   -1    0    0    0  501 -0.00000000000E+00  0.00000000000E+00  0.52088022633E+01  0.53613917053E+01  0.12700000000E+01 0.  1.
          4   -1    0    0  501    0  0.00000000000E+00 -0.00000000000E+00 -0.73895491076E+03  0.73895600210E+03  0.12700000000E+01 0.  1.
         25    2    1    2    0    0  0.00000000000E+00  0.00000000000E+00 -0.73374610849E+03  0.74431739380E+03  0.12500012393E+03 0.  0.
    9000005    1    3    3    0    0  0.45818258061E+02 -0.20348439434E+02 -0.14472139788E+03  0.15316218451E+03  0.10000000000E+01 0.  0.
    9000005    1    3    3    0    0 -0.45818258061E+02  0.20348439434E+02 -0.58902471061E+03  0.59115520929E+03  0.10000000000E+01 0.  0.
<mgrwt>
<rscale>  0 0.12500012E+03</rscale>
<asrwt>0</asrwt>
<pdfrwt beam="2">  1        4 0.18475759E+00 0.12500012E+03</pdfrwt>
<pdfrwt beam="1">  1       -4 0.13214132E-02 0.12500012E+03</pdfrwt>
<totfact> 0.57615704E+02</totfact>
</mgrwt>
</event>
<event>
 5    1  0.1431256E-002  0.1249991E+03  0.7818608E-02  0.1235071E+00
         -4   -1    0    0    0  501 -0.00000000000E+00  0.00000000000E+00  0.10960994990E+03  0.10961730711E+03  0.12700000000E+01 0. -1.
          4   -1    0    0  501    0  0.00000000000E+00 -0.00000000000E+00 -0.35617345477E+02  0.35639980343E+02  0.12700000000E+01 0. -1.
         25    2    1    2    0    0  0.00000000000E+00  0.00000000000E+00  0.73992604423E+02  0.14525728745E+03  0.12499909619E+03 0.  0.
    9000005    1    3    3    0    0 -0.61320551885E+02  0.87828413613E+01  0.46568030988E+02  0.77504386302E+02  0.10000000000E+01 0.  0.
    9000005    1    3    3    0    0  0.61320551885E+02 -0.87828413613E+01  0.27424573435E+02  0.67752901148E+02  0.10000000000E+01 0.  0.
<mgrwt>
<rscale>  0 0.12499910E+03</rscale>
<asrwt>0</asrwt>
<pdfrwt beam="2">  1        4 0.89080855E-02 0.12499910E+03</pdfrwt>
<pdfrwt beam="1">  1       -4 0.27406236E-01 0.12499910E+03</pdfrwt>
<totfact> 0.18774855E+03</totfact>
</mgrwt>
</event>
<event>
 5    1  0.1431256E-002  0.1249863E+03  0.7818608E-02  0.1235091E+00
         -4   -1    0    0    0  501 -0.00000000000E+00  0.00000000000E+00  0.24512955334E+02  0.24545832217E+02  0.12700000000E+01 0. -1.
          4   -1    0    0  501    0  0.00000000000E+00 -0.00000000000E+00 -0.15917749892E+03  0.15918256520E+03  0.12700000000E+01 0. -1.
         25    2    1    2    0    0  0.00000000000E+00  0.00000000000E+00 -0.13466454359E+03  0.18372839742E+03  0.12498633812E+03 0.  0.
    9000005    1    3    3    0    0 -0.35370174909E+02  0.14632012974E+02  0.52686270684E+01  0.38651047954E+02  0.10000000000E+01 0.  0.
    9000005    1    3    3    0    0  0.35370174909E+02 -0.14632012974E+02 -0.13993317066E+03  0.14507734946E+03  0.10000000000E+01 0.  0.
<mgrwt>
<rscale>  0 0.12498634E+03</rscale>
<asrwt>0</asrwt>
<pdfrwt beam="2">  1        4 0.39799115E-01 0.12498634E+03</pdfrwt>
<pdfrwt beam="1">  1       -4 0.61329822E-02 0.12498634E+03</pdfrwt>
<totfact> 0.17000386E+03</totfact>
</mgrwt>
</event>
<event>
 5    1  0.1431256E-002  0.1249997E+03  0.7818608E-02  0.1235070E+00
          4   -1    0    0  501    0  0.00000000000E+00  0.00000000000E+00  0.37167409073E+02  0.37189100516E+02  0.12700000000E+01 0.  1.
         -4   -1    0    0    0  501 -0.00000000000E+00 -0.00000000000E+00 -0.10504214559E+03  0.10504982270E+03  0.12700000000E+01 0.  1.
         25    2    1    2    0    0  0.00000000000E+00  0.00000000000E+00 -0.67874736515E+02  0.14223892322E+03  0.12499972568E+03 0.  0.
    9000005    1    3    3    0    0 -0.53842270037E+02  0.31426238149E+02 -0.29025273512E+02  0.68775467933E+02  0.10000000000E+01 0.  0.
    9000005    1    3    3    0    0  0.53842270037E+02 -0.31426238149E+02 -0.38849463003E+02  0.73463455286E+02  0.10000000000E+01 0.  0.
<mgrwt>
<rscale>  0 0.12499973E+03</rscale>
<asrwt>0</asrwt>
<pdfrwt beam="1">  1        4 0.92955235E-02 0.12499973E+03</pdfrwt>
<pdfrwt beam="2">  1       -4 0.26264207E-01 0.12499973E+03</pdfrwt>
<totfact> 0.18926503E+03</totfact>
</mgrwt>
</event>
<event>
 5    1  0.1431256E-002  0.1249980E+03  0.7818608E-02  0.1235072E+00
         -4   -1    0    0    0  501 -0.00000000000E+00  0.00000000000E+00  0.24033987135E+02  0.24067518310E+02  0.12700000000E+01 0. -1.
          4   -1    0    0  501    0  0.00000000000E+00 -0.00000000000E+00 -0.16237580995E+03  0.16238077644E+03  0.12700000000E+01 0. -1.
         25    2    1    2    0    0  0.00000000000E+00  0.00000000000E+00 -0.13834182281E+03  0.18644829475E+03  0.12499802669E+03 0.  0.
    9000005    1    3    3    0    0 -0.16852040523E+02  0.11282168031E+02 -0.15733815580E+03  0.15864291304E+03  0.10000000000E+01 0.  0.
    9000005    1    3    3    0    0  0.16852040523E+02 -0.11282168031E+02  0.18996332987E+02  0.27805381714E+02  0.10000000000E+01 0.  0.
<mgrwt>
<rscale>  0 0.12499803E+03</rscale>
<asrwt>0</asrwt>
<pdfrwt beam="2">  1        4 0.40598762E-01 0.12499803E+03</pdfrwt>
<pdfrwt beam="1">  1       -4 0.60133095E-02 0.12499803E+03</pdfrwt>
<totfact> 0.16880223E+03</totfact>
</mgrwt>
</event>
<event>
 5    1  0.1431256E-002  0.1249933E+03  0.7818608E-02  0.1235080E+00
         -4   -1    0    0    0  501 -0.00000000000E+00  0.00000000000E+00  0.45596809598E+03  0.45596986463E+03  0.12700000000E+01 0. -1.
          4   -1    0    0  501    0  0.00000000000E+00 -0.00000000000E+00 -0.85171532706E+01  0.86113181241E+01  0.12700000000E+01 0. -1.
         25    2    1    2    0    0  0.00000000000E+00  0.00000000000E+00  0.44745094271E+03  0.46458118275E+03  0.12499331678E+03 0.  0.
    9000005    1    3    3    0    0  0.27824087710E+02 -0.18438796423E+02  0.42007440120E+03  0.42139965782E+03  0.10000000000E+01 0.  0.
    9000005    1    3    3    0    0 -0.27824087710E+02  0.18438796423E+02  0.27376541511E+02  0.43181524933E+02  0.10000000000E+01 0.  0.
<mgrwt>
<rscale>  0 0.12499332E+03</rscale>
<asrwt>0</asrwt>
<pdfrwt beam="2">  1        4 0.21412801E-02 0.12499332E+03</pdfrwt>
<pdfrwt beam="1">  1       -4 0.11400401E+00 0.12499332E+03</pdfrwt>
<totfact> 0.93471043E+02</totfact>
</mgrwt>
</event>
<event>
 5    1  0.1431256E-002  0.1250020E+03  0.7818608E-02  0.1235066E+00
         -4   -1    0    0    0  501 -0.00000000000E+00  0.00000000000E+00  0.39007034571E+03  0.39007241316E+03  0.12700000000E+01 0.  1.
          4   -1    0    0  501    0  0.00000000000E+00 -0.00000000000E+00 -0.99721661496E+01  0.10052710964E+02  0.12700000000E+01 0.  1.
         25    2    1    2    0    0  0.00000000000E+00  0.00000000000E+00  0.38009817956E+03  0.40012512412E+03  0.12500195536E+03 0.  0.
    9000005    1    3    3    0    0  0.46619124981E+02 -0.51362166401E+01  0.32224676138E+03  0.32564351484E+03  0.10000000000E+01 0.  0.
    9000005    1    3    3    0    0 -0.46619124981E+02  0.51362166401E+01  0.57851418182E+02  0.74481609280E+02  0.10000000000E+01 0.  0.
<mgrwt>
<rscale>  0 0.12500196E+03</rscale>
<asrwt>0</asrwt>
<pdfrwt beam="2">  1        4 0.25033683E-02 0.12500196E+03</pdfrwt>
<pdfrwt beam="1">  1       -4 0.97527905E-01 0.12500196E+03</pdfrwt>
<totfact> 0.10566153E+03</totfact>
</mgrwt>
</event>
<event>
 5    1  0.1431256E-002  0.1249906E+03  0.7818608E-02  0.1235084E+00
          4   -1    0    0  501    0  0.00000000000E+00  0.00000000000E+00  0.65445188551E+01  0.66666053614E+01  0.12700000000E+01 0. -1.
         -4   -1    0    0    0  501 -0.00000000000E+00 -0.00000000000E+00 -0.59114645463E+03  0.59114781884E+03  0.12700000000E+01 0. -1.
         25    2    1    2    0    0  0.00000000000E+00  0.00000000000E+00 -0.58460193578E+03  0.59781442421E+03  0.12499064955E+03 0.  0.
    9000005    1    3    3    0    0 -0.61788459884E+02 -0.27544315370E+01 -0.24971863396E+03  0.25726600401E+03  0.10000000000E+01 0.  0.
    9000005    1    3    3    0    0  0.61788459884E+02  0.27544315370E+01 -0.33488330181E+03  0.34054842020E+03  0.10000000000E+01 0.  0.
<mgrwt>
<rscale>  0 0.12499065E+03</rscale>
<asrwt>0</asrwt>
<pdfrwt beam="1">  1        4 0.16515631E-02 0.12499065E+03</pdfrwt>
<pdfrwt beam="2">  1       -4 0.14780187E+00 0.12499065E+03</pdfrwt>
<totfact> 0.73794271E+02</totfact>
</mgrwt>
</event>
<event>
 5    1  0.1431256E-002  0.1249931E+03  0.7818608E-02  0.1235080E+00
         -4   -1    0    0    0  501 -0.00000000000E+00  0.00000000000E+00  0.90771185916E+01  0.91655322773E+01  0.12700000000E+01 0.  1.
          4   -1    0    0  501    0  0.00000000000E+00 -0.00000000000E+00 -0.42811772782E+03  0.42811961153E+03  0.12700000000E+01 0.  1.
         25    2    1    2    0    0  0.00000000000E+00  0.00000000000E+00 -0.41904060923E+03  0.43728514380E+03  0.12499305904E+03 0.  0.
    9000005    1    3    3    0    0  0.21213904253E+02  0.13931752028E+02 -0.97486966779E+01  0.27205891552E+02  0.10000000000E+01 0.  0.
    9000005    1    3    3    0    0 -0.21213904253E+02 -0.13931752028E+02 -0.40929191255E+03  0.41007925225E+03  0.10000000000E+01 0.  0.
<mgrwt>
<rscale>  0 0.12499306E+03</rscale>
<asrwt>0</asrwt>
<pdfrwt beam="2">  1        4 0.10704065E+00 0.12499306E+03</pdfrwt>
<pdfrwt beam="1">  1       -4 0.22805683E-02 0.12499306E+03</pdfrwt>
<totfact> 0.98360982E+02</totfact>
</mgrwt>
</event>
<event>
 5    1  0.1431256E-002  0.1249959E+03  0.7818608E-02  0.1235076E+00
          4   -1    0    0  501    0  0.00000000000E+00  0.00000000000E+00  0.27586859386E+02  0.27616077035E+02  0.12700000000E+01 0. -1.
         -4   -1    0    0    0  501 -0.00000000000E+00 -0.00000000000E+00 -0.14148193098E+03  0.14148763089E+03  0.12700000000E+01 0. -1.
         25    2    1    2    0    0  0.00000000000E+00  0.00000000000E+00 -0.11389507160E+03  0.16910370793E+03  0.12499590673E+03 0.  0.
    9000005    1    3    3    0    0  0.55586094451E+02  0.14059667688E+02 -0.90566005309E+02  0.10719463358E+03  0.10000000000E+01 0.  0.
    9000005    1    3    3    0    0 -0.55586094451E+02 -0.14059667688E+02 -0.23329066289E+02  0.61909074341E+02  0.10000000000E+01 0.  0.
<mgrwt>
<rscale>  0 0.12499591E+03</rscale>
<asrwt>0</asrwt>
<pdfrwt beam="1">  1        4 0.69010799E-02 0.12499591E+03</pdfrwt>
<pdfrwt beam="2">  1       -4 0.35374845E-01 0.12499591E+03</pdfrwt>
<totfact> 0.17639226E+03</totfact>
</mgrwt>
</event>
<event>
 5    1  0.1431256E-002  0.1250002E+03  0.7818608E-02  0.1235069E+00
         -4   -1    0    0    0  501 -0.00000000000E+00  0.00000000000E+00  0.30570265919E+02  0.30596634756E+02  0.12700000000E+01 0. -1.
          4   -1    0    0  501    0  0.00000000000E+00 -0.00000000000E+00 -0.12769522051E+03  0.12770153578E+03  0.12700000000E+01 0. -1.
         25    2    1    2    0    0  0.00000000000E+00  0.00000000000E+00 -0.97124954587E+02  0.15829817053E+03  0.12500021596E+03 0.  0.
    9000005    1    3    3    0    0 -0.20237797510E+02  0.59110570382E+02 -0.50182021827E+02  0.80142768193E+02  0.10000000000E+01 0.  0.
    9000005    1    3    3    0    0  0.20237797510E+02 -0.59110570382E+02 -0.46942932760E+02  0.78155402341E+02  0.10000000000E+01 0.  0.
<mgrwt>
<rscale>  0 0.12500022E+03</rscale>
<asrwt>0</asrwt>
<pdfrwt beam="2">  1        4 0.31927889E-01 0.12500022E+03</pdfrwt>
<pdfrwt beam="1">  1       -4 0.76466523E-02 0.12500022E+03</pdfrwt>
<totfact> 0.18138049E+03</totfact>
</mgrwt>
</event>
<event>
 5    1  0.1431256E-002  0.1249973E+03  0.7818608E-02  0.1235074E+00
         -4   -1    0    0    0  501 -0.00000000000E+00  0.00000000000E+00  0.53099147511E+02  0.53114332966E+02  0.12700000000E+01 0. -1.
          4   -1    0    0  501    0  0.00000000000E+00 -0.00000000000E+00 -0.73530788166E+02  0.73541754863E+02  0.12700000000E+01 0. -1.
         25    2    1    2    0    0  0.00000000000E+00  0.00000000000E+00 -0.20431640655E+02  0.12665608783E+03  0.12499725055E+03 0.  0.
    9000005    1    3    3    0    0 -0.35092579867E+02 -0.22545671983E+01  0.42127310387E+02  0.54884264734E+02  0.10000000000E+01 0.  0.
    9000005    1    3    3    0    0  0.35092579867E+02  0.22545671983E+01 -0.62558951042E+02  0.71771823095E+02  0.10000000000E+01 0.  0.
<mgrwt>
<rscale>  0 0.12499725E+03</rscale>
<asrwt>0</asrwt>
<pdfrwt beam="2">  1        4 0.18385966E-01 0.12499725E+03</pdfrwt>
<pdfrwt beam="1">  1       -4 0.13278056E-01 0.12499725E+03</pdfrwt>
<totfact> 0.19746777E+03</totfact>
</mgrwt>
</event>
<event>
 5    1  0.1431256E-002  0.1249751E+03  0.7818608E-02  0.1235108E+00
          4   -1    0    0  501    0  0.00000000000E+00  0.00000000000E+00  0.33910205185E+02  0.33933978778E+02  0.12700000000E+01 0. -1.
         -4   -1    0    0    0  501 -0.00000000000E+00 -0.00000000000E+00 -0.11508040392E+03  0.11508741142E+03  0.12700000000E+01 0. -1.
         25    2    1    2    0    0  0.00000000000E+00  0.00000000000E+00 -0.81170198736E+02  0.14902139020E+03  0.12497509181E+03 0.  0.
    9000005    1    3    3    0    0 -0.49184309650E+02 -0.95154243857E+00  0.53449562724E+01  0.49493133931E+02  0.10000000000E+01 0.  0.
    9000005    1    3    3    0    0  0.49184309650E+02  0.95154243857E+00 -0.86515155009E+02  0.99528256264E+02  0.10000000000E+01 0.  0.
<mgrwt>
<rscale>  0 0.12497509E+03</rscale>
<asrwt>0</asrwt>
<pdfrwt beam="1">  1        4 0.84813992E-02 0.12497509E+03</pdfrwt>
<pdfrwt beam="2">  1       -4 0.28773948E-01 0.12497509E+03</pdfrwt>
<totfact> 0.18597783E+03</totfact>
</mgrwt>
</event>
<event>
 5    1  0.1431256E-002  0.1249989E+03  0.7818608E-02  0.1235071E+00
         -4   -1    0    0    0  501 -0.00000000000E+00  0.00000000000E+00  0.25048837952E+02  0.25081012395E+02  0.12700000000E+01 0. -1.
          4   -1    0    0  501    0  0.00000000000E+00 -0.00000000000E+00 -0.15580783531E+03  0.15581301115E+03  0.12700000000E+01 0. -1.
         25    2    1    2    0    0  0.00000000000E+00  0.00000000000E+00 -0.13075899736E+03  0.18089402354E+03  0.12499892945E+03 0.  0.
    9000005    1    3    3    0    0  0.86081359662E+01  0.11650030083E+02 -0.15335186929E+03  0.15403771948E+03  0.10000000000E+01 0.  0.
    9000005    1    3    3    0    0 -0.86081359662E+01 -0.11650030083E+02  0.22592871938E+02  0.26856304067E+02  0.10000000000E+01 0.  0.
<mgrwt>
<rscale>  0 0.12499893E+03</rscale>
<asrwt>0</asrwt>
<pdfrwt beam="2">  1        4 0.38956625E-01 0.12499893E+03</pdfrwt>
<pdfrwt beam="1">  1       -4 0.62668787E-02 0.12499893E+03</pdfrwt>
<totfact> 0.17117012E+03</totfact>
</mgrwt>
</event>
<event>
 5    1  0.1431256E-002  0.1249979E+03  0.7818608E-02  0.1235073E+00
          4   -1    0    0  501    0  0.00000000000E+00  0.00000000000E+00  0.21838585495E+03  0.21838954770E+03  0.12700000000E+01 0.  1.
         -4   -1    0    0    0  501 -0.00000000000E+00 -0.00000000000E+00 -0.17859933571E+02  0.17905030778E+02  0.12700000000E+01 0.  1.
         25    2    1    2    0    0  0.00000000000E+00  0.00000000000E+00  0.20052592138E+03  0.23629457848E+03  0.12499793067E+03 0.  0.
    9000005    1    3    3    0    0  0.37729359671E+02  0.48643235056E+02  0.79951028811E+02  0.10091003868E+03  0.10000000000E+01 0.  0.
    9000005    1    3    3    0    0 -0.37729359671E+02 -0.48643235056E+02  0.12057489257E+03  0.13538453980E+03  0.10000000000E+01 0.  0.
<mgrwt>
<rscale>  0 0.12499793E+03</rscale>
<asrwt>0</asrwt>
<pdfrwt beam="1">  1        4 0.54602562E-01 0.12499793E+03</pdfrwt>
<pdfrwt beam="2">  1       -4 0.44710822E-02 0.12499793E+03</pdfrwt>
<totfact> 0.14965684E+03</totfact>
</mgrwt>
</event>
<event>
 5    1  0.1431256E-002  0.1249461E+03  0.7818608E-02  0.1235154E+00
          4   -1    0    0  501    0  0.00000000000E+00  0.00000000000E+00  0.10786048454E+02  0.10860558975E+02  0.12700000000E+01 0. -1.
         -4   -1    0    0    0  501 -0.00000000000E+00 -0.00000000000E+00 -0.36052414301E+03  0.36052637988E+03  0.12700000000E+01 0. -1.
         25    2    1    2    0    0  0.00000000000E+00  0.00000000000E+00 -0.34973809455E+03  0.37138693886E+03  0.12494608266E+03 0.  0.
    9000005    1    3    3    0    0  0.50264371882E+02 -0.19768667521E+01 -0.64792075324E+02  0.82033091540E+02  0.10000000000E+01 0.  0.
    9000005    1    3    3    0    0 -0.50264371882E+02  0.19768667521E+01 -0.28494601923E+03  0.28935384732E+03  0.10000000000E+01 0.  0.
<mgrwt>
<rscale>  0 0.12494608E+03</rscale>
<asrwt>0</asrwt>
<pdfrwt beam="1">  1        4 0.27061067E-02 0.12494608E+03</pdfrwt>
<pdfrwt beam="2">  1       -4 0.90140589E-01 0.12494608E+03</pdfrwt>
<totfact> 0.11197111E+03</totfact>
</mgrwt>
</event>
<event>
 5    1  0.1431256E-002  0.1249971E+03  0.7818608E-02  0.1235074E+00
         -4   -1    0    0    0  501 -0.00000000000E+00  0.00000000000E+00  0.11643916930E+03  0.11644609503E+03  0.12700000000E+01 0. -1.
          4   -1    0    0  501    0  0.00000000000E+00 -0.00000000000E+00 -0.33526045958E+02  0.33550091767E+02  0.12700000000E+01 0. -1.
         25    2    1    2    0    0  0.00000000000E+00  0.00000000000E+00  0.82913123341E+02  0.14999618679E+03  0.12499708009E+03 0.  0.
    9000005    1    3    3    0    0 -0.43713793853E+02 -0.81154793872E+01  0.94151494990E+02  0.10412617724E+03  0.10000000000E+01 0.  0.
    9000005    1    3    3    0    0  0.43713793853E+02  0.81154793872E+01 -0.11238371649E+02  0.45870009549E+02  0.10000000000E+01 0.  0.
<mgrwt>
<rscale>  0 0.12499708E+03</rscale>
<asrwt>0</asrwt>
<pdfrwt beam="2">  1        4 0.83853830E-02 0.12499708E+03</pdfrwt>
<pdfrwt beam="1">  1       -4 0.29113664E-01 0.12499708E+03</pdfrwt>
<totfact> 0.18540228E+03</totfact>
</mgrwt>
</event>
<event>
 5    1  0.1431256E-002  0.1250025E+03  0.7818608E-02  0.1235065E+00
         -4   -1    0    0    0  501 -0.00000000000E+00  0.00000000000E+00  0.10604057667E+04  0.10604065272E+04  0.12700000000E+01 0. -1.
          4   -1    0    0  501    0  0.00000000000E+00 -0.00000000000E+00 -0.35736394118E+01  0.37925978756E+01  0.12700000000E+01 0. -1.
         25    2    1    2    0    0  0.00000000000E+00  0.00000000000E+00  0.10568321273E+04  0.10641991251E+04  0.12500253024E+03 0.  0.
    9000005    1    3    3    0    0 -0.23369911067E+02  0.35770810823E+02  0.14017192441E+03  0.14654307231E+03  0.10000000000E+01 0.  0.
    9000005    1    3    3    0    0  0.23369911067E+02 -0.35770810823E+02  0.91666020288E+03  0.91765605278E+03  0.10000000000E+01 0.  0.
<mgrwt>
<rscale>  0 0.12500253E+03</rscale>
<asrwt>0</asrwt>
<pdfrwt beam="2">  1        4 0.92087479E-03 0.12500253E+03</pdfrwt>
<pdfrwt beam="1">  1       -4 0.26512889E+00 0.12500253E+03</pdfrwt>
<totfact> 0.32957201E+02</totfact>
</mgrwt>
</event>
<event>
 5    1  0.1431256E-002  0.1249959E+03  0.7818608E-02  0.1235076E+00
         -4   -1    0    0    0  501 -0.00000000000E+00  0.00000000000E+00  0.17513547479E+02  0.17559534314E+02  0.12700000000E+01 0. -1.
          4   -1    0    0  501    0  0.00000000000E+00 -0.00000000000E+00 -0.22268661246E+03  0.22269023389E+03  0.12700000000E+01 0. -1.
         25    2    1    2    0    0  0.00000000000E+00  0.00000000000E+00 -0.20517306498E+03  0.24024976820E+03  0.12499585804E+03 0.  0.
    9000005    1    3    3    0    0  0.60308725721E+02 -0.14451613722E+02 -0.87822946131E+02  0.10751679592E+03  0.10000000000E+01 0.  0.
    9000005    1    3    3    0    0 -0.60308725721E+02  0.14451613722E+02 -0.11735011885E+03  0.13273297228E+03  0.10000000000E+01 0.  0.
<mgrwt>
<rscale>  0 0.12499586E+03</rscale>
<asrwt>0</asrwt>
<pdfrwt beam="2">  1        4 0.55677845E-01 0.12499586E+03</pdfrwt>
<pdfrwt beam="1">  1       -4 0.43845886E-02 0.12499586E+03</pdfrwt>
<totfact> 0.14829266E+03</totfact>
</mgrwt>
</event>
<event>
 5    1  0.1431256E-002  0.1249954E+03  0.7818608E-02  0.1235076E+00
         -4   -1    0    0    0  501 -0.00000000000E+00  0.00000000000E+00  0.38669871795E+02  0.38690720911E+02  0.12700000000E+01 0.  1.
          4   -1    0    0  501    0  0.00000000000E+00 -0.00000000000E+00 -0.10095589157E+03  0.10096387940E+03  0.12700000000E+01 0.  1.
         25    2    1    2    0    0  0.00000000000E+00  0.00000000000E+00 -0.62286019778E+02  0.13965460031E+03  0.12499543643E+03 0.  0.
    9000005    1    3    3    0    0  0.10047976911E+02  0.17928590115E+02 -0.97077238388E+02  0.99233998189E+02  0.10000000000E+01 0.  0.
    9000005    1    3    3    0    0 -0.10047976911E+02 -0.17928590115E+02  0.34791218610E+02  0.40420602122E+02  0.10000000000E+01 0.  0.
<mgrwt>
<rscale>  0 0.12499544E+03</rscale>
<asrwt>0</asrwt>
<pdfrwt beam="2">  1        4 0.25242577E-01 0.12499544E+03</pdfrwt>
<pdfrwt beam="1">  1       -4 0.96710728E-02 0.12499544E+03</pdfrwt>
<totfact> 0.19060054E+03</totfact>
</mgrwt>
</event>
<event>
 5    1  0.1431256E-002  0.1250048E+03  0.7818608E-02  0.1235062E+00
          4   -1    0    0  501    0  0.00000000000E+00  0.00000000000E+00  0.60303205119E+02  0.60316576889E+02  0.12700000000E+01 0. -1.
         -4   -1    0    0    0  501 -0.00000000000E+00 -0.00000000000E+00 -0.64755025139E+02  0.64767477801E+02  0.12700000000E+01 0. -1.
         25    2    1    2    0    0  0.00000000000E+00  0.00000000000E+00 -0.44518200199E+01  0.12508405469E+03  0.12500480805E+03 0.  0.
    9000005    1    3    3    0    0  0.49610000124E+02  0.34232593259E+02  0.14292976230E+02  0.61954109815E+02  0.10000000000E+01 0.  0.
    9000005    1    3    3    0    0 -0.49610000124E+02 -0.34232593259E+02 -0.18744796250E+02  0.63129944875E+02  0.10000000000E+01 0.  0.
<mgrwt>
<rscale>  0 0.12500481E+03</rscale>
<asrwt>0</asrwt>
<pdfrwt beam="1">  1        4 0.15079029E-01 0.12500481E+03</pdfrwt>
<pdfrwt beam="2">  1       -4 0.16191984E-01 0.12500481E+03</pdfrwt>
<totfact> 0.19828267E+03</totfact>
</mgrwt>
</event>
<event>
 5    1  0.1431256E-002  0.1250018E+03  0.7818608E-02  0.1235066E+00
         -4   -1    0    0    0  501 -0.00000000000E+00  0.00000000000E+00  0.24002530116E+01  0.27155320877E+01  0.12700000000E+01 0. -1.
          4   -1    0    0  501    0  0.00000000000E+00 -0.00000000000E+00 -0.15268652625E+04  0.15268657907E+04  0.12700000000E+01 0. -1.
         25    2    1    2    0    0  0.00000000000E+00  0.00000000000E+00 -0.15244650095E+04  0.15295813228E+04  0.12500183113E+03 0.  0.
    9000005    1    3    3    0    0 -0.22897433036E+02 -0.77172508961E+01 -0.57012904239E+02  0.61929957620E+02  0.10000000000E+01 0.  0.
    9000005    1    3    3    0    0  0.22897433036E+02  0.77172508961E+01 -0.14674521053E+04  0.14676513652E+04  0.10000000000E+01 0.  0.
<mgrwt>
<rscale>  0 0.12500183E+03</rscale>
<asrwt>0</asrwt>
<pdfrwt beam="2">  1        4 0.38175266E+00 0.12500183E+03</pdfrwt>
<pdfrwt beam="1">  1       -4 0.63954440E-03 0.12500183E+03</pdfrwt>
<totfact> 0.11546415E+02</totfact>
</mgrwt>
</event>
<event>
 5    1  0.1431256E-002  0.1249854E+03  0.7818608E-02  0.1235092E+00
         -4   -1    0    0    0  501 -0.00000000000E+00  0.00000000000E+00  0.40143429723E+03  0.40143630614E+03  0.12700000000E+01 0.  1.
          4   -1    0    0  501    0  0.00000000000E+00 -0.00000000000E+00 -0.96849708448E+01  0.97678841242E+01  0.12700000000E+01 0.  1.
         25    2    1    2    0    0  0.00000000000E+00  0.00000000000E+00  0.39174932638E+03  0.41120419027E+03  0.12498540464E+03 0.  0.
    9000005    1    3    3    0    0  0.60581879783E+02  0.87478108523E+01  0.23718364749E+03  0.24495667166E+03  0.10000000000E+01 0.  0.
    9000005    1    3    3    0    0 -0.60581879783E+02 -0.87478108523E+01  0.15456567889E+03  0.16624751861E+03  0.10000000000E+01 0.  0.
<mgrwt>
<rscale>  0 0.12498540E+03</rscale>
<asrwt>0</asrwt>
<pdfrwt beam="2">  1        4 0.24318581E-02 0.12498540E+03</pdfrwt>
<pdfrwt beam="1">  1       -4 0.10036919E+00 0.12498540E+03</pdfrwt>
<totfact> 0.10345066E+03</totfact>
</mgrwt>
</event>
<event>
 5    1  0.1431256E-002  0.1250033E+03  0.7818608E-02  0.1235064E+00
         -4   -1    0    0    0  501 -0.00000000000E+00  0.00000000000E+00  0.27247404817E+02  0.27276986073E+02  0.12700000000E+01 0. -1.
          4   -1    0    0  501    0  0.00000000000E+00 -0.00000000000E+00 -0.14325960945E+03  0.14326523863E+03  0.12700000000E+01 0. -1.
         25    2    1    2    0    0  0.00000000000E+00  0.00000000000E+00 -0.11601220463E+03  0.17054222470E+03  0.12500327509E+03 0.  0.
    9000005    1    3    3    0    0 -0.80769121089E+01  0.32398235101E+02  0.14064340619E+02  0.36244831685E+02  0.10000000000E+01 0.  0.
    9000005    1    3    3    0    0  0.80769121089E+01 -0.32398235101E+02 -0.13007654525E+03  0.13429739302E+03  0.10000000000E+01 0.  0.
<mgrwt>
<rscale>  0 0.12500328E+03</rscale>
<asrwt>0</asrwt>
<pdfrwt beam="2">  1        4 0.35819302E-01 0.12500328E+03</pdfrwt>
<pdfrwt beam="1">  1       -4 0.68162529E-02 0.12500328E+03</pdfrwt>
<totfact> 0.17571283E+03</totfact>
</mgrwt>
</event>
<event>
 5    1  0.1431256E-002  0.1249958E+03  0.7818608E-02  0.1235076E+00
          4   -1    0    0  501    0  0.00000000000E+00  0.00000000000E+00  0.40147787221E+03  0.40147988091E+03  0.12700000000E+01 0. -1.
         -4   -1    0    0    0  501 -0.00000000000E+00 -0.00000000000E+00 -0.96855335921E+01  0.97684420950E+01  0.12700000000E+01 0. -1.
         25    2    1    2    0    0  0.00000000000E+00  0.00000000000E+00  0.39179233861E+03  0.41124832300E+03  0.12499578622E+03 0.  0.
    9000005    1    3    3    0    0  0.60769437938E+02  0.43171315572E+01  0.24165389512E+03  0.24921710864E+03  0.10000000000E+01 0.  0.
    9000005    1    3    3    0    0 -0.60769437938E+02 -0.43171315572E+01  0.15013844350E+03  0.16203121436E+03  0.10000000000E+01 0.  0.
<mgrwt>
<rscale>  0 0.12499579E+03</rscale>
<asrwt>0</asrwt>
<pdfrwt beam="1">  1        4 0.10038008E+00 0.12499579E+03</pdfrwt>
<pdfrwt beam="2">  1       -4 0.24319981E-02 0.12499579E+03</pdfrwt>
<totfact> 0.10341730E+03</totfact>
</mgrwt>
</event>
<event>
 5    1  0.1431256E-002  0.1250002E+03  0.7818608E-02  0.1235069E+00
         -4   -1    0    0    0  501 -0.00000000000E+00  0.00000000000E+00  0.38166836809E+02  0.38187960564E+02  0.12700000000E+01 0.  1.
          4   -1    0    0  501    0  0.00000000000E+00 -0.00000000000E+00 -0.10229365925E+03  0.10230154263E+03  0.12700000000E+01 0.  1.
         25    2    1    2    0    0  0.00000000000E+00  0.00000000000E+00 -0.64126822445E+02  0.14048950319E+03  0.12500020460E+03 0.  0.
    9000005    1    3    3    0    0 -0.54787080816E+02 -0.29012301168E+02 -0.23219060340E+02  0.66207723164E+02  0.10000000000E+01 0.  0.
    9000005    1    3    3    0    0  0.54787080816E+02  0.29012301168E+02 -0.40907762105E+02  0.74281780026E+02  0.10000000000E+01 0.  0.
<mgrwt>
<rscale>  0 0.12500020E+03</rscale>
<asrwt>0</asrwt>
<pdfrwt beam="2">  1        4 0.25577040E-01 0.12500020E+03</pdfrwt>
<pdfrwt beam="1">  1       -4 0.95453353E-02 0.12500020E+03</pdfrwt>
<totfact> 0.19015237E+03</totfact>
</mgrwt>
</event>
<event>
 5    1  0.1431256E-002  0.1249974E+03  0.7818608E-02  0.1235073E+00
          4   -1    0    0  501    0  0.00000000000E+00  0.00000000000E+00  0.41991175348E+02  0.42010376184E+02  0.12700000000E+01 0. -1.
         -4   -1    0    0    0  501 -0.00000000000E+00 -0.00000000000E+00 -0.92976783044E+02  0.92985456311E+02  0.12700000000E+01 0. -1.
         25    2    1    2    0    0  0.00000000000E+00  0.00000000000E+00 -0.50985607696E+02  0.13499583249E+03  0.12499737037E+03 0.  0.
    9000005    1    3    3    0    0 -0.50861647159E+02  0.20445529208E+02 -0.57895344087E+02  0.79735799258E+02  0.10000000000E+01 0.  0.
    9000005    1    3    3    0    0  0.50861647159E+02 -0.20445529208E+02  0.69097363910E+01  0.55260033236E+02  0.10000000000E+01 0.  0.
<mgrwt>
<rscale>  0 0.12499737E+03</rscale>
<asrwt>0</asrwt>
<pdfrwt beam="1">  1        4 0.10501278E-01 0.12499737E+03</pdfrwt>
<pdfrwt beam="2">  1       -4 0.23247680E-01 0.12499737E+03</pdfrwt>
<totfact> 0.19300539E+03</totfact>
</mgrwt>
</event>
<event>
 5    1  0.1431256E-002  0.1249993E+03  0.7818608E-02  0.1235070E+00
         -4   -1    0    0    0  501 -0.00000000000E+00  0.00000000000E+00  0.16894458868E+03  0.16894936207E+03  0.12700000000E+01 0. -1.
          4   -1    0    0  501    0  0.00000000000E+00 -0.00000000000E+00 -0.23098682292E+02  0.23133569194E+02  0.12700000000E+01 0. -1.
         25    2    1    2    0    0  0.00000000000E+00  0.00000000000E+00  0.14584590639E+03  0.19208293126E+03  0.12499929629E+03 0.  0.
    9000005    1    3    3    0    0  0.58559895954E+02 -0.11430155092E+02  0.44368287493E+02  0.74360303890E+02  0.10000000000E+01 0.  0.
    9000005    1    3    3    0    0 -0.58559895954E+02  0.11430155092E+02  0.10147761889E+03  0.11772262737E+03  0.10000000000E+01 0.  0.
<mgrwt>
<rscale>  0 0.12499930E+03</rscale>
<asrwt>0</asrwt>
<pdfrwt beam="2">  1        4 0.57796282E-02 0.12499930E+03</pdfrwt>
<pdfrwt beam="1">  1       -4 0.42241104E-01 0.12499930E+03</pdfrwt>
<totfact> 0.16644311E+03</totfact>
</mgrwt>
</event>
<event>
 5    1  0.1431256E-002  0.1250011E+03  0.7818608E-02  0.1235068E+00
         -4   -1    0    0    0  501 -0.00000000000E+00  0.00000000000E+00  0.26530974560E+03  0.26531278524E+03  0.12700000000E+01 0. -1.
          4   -1    0    0  501    0  0.00000000000E+00 -0.00000000000E+00 -0.14693100290E+02  0.14747884463E+02  0.12700000000E+01 0. -1.
         25    2    1    2    0    0  0.00000000000E+00  0.00000000000E+00  0.25061664531E+03  0.28006066970E+03  0.12500110322E+03 0.  0.
    9000005    1    3    3    0    0  0.84609744198E+01 -0.61916655405E+02  0.12476574664E+03  0.13954480227E+03  0.10000000000E+01 0.  0.
    9000005    1    3    3    0    0 -0.84609744198E+01  0.61916655405E+02  0.12585089867E+03  0.14051586743E+03  0.10000000000E+01 0.  0.
<mgrwt>
<rscale>  0 0.12500110E+03</rscale>
<asrwt>0</asrwt>
<pdfrwt beam="2">  1        4 0.36805030E-02 0.12500110E+03</pdfrwt>
<pdfrwt beam="1">  1       -4 0.66334665E-01 0.12500110E+03</pdfrwt>
<totfact> 0.13548544E+03</totfact>
</mgrwt>
</event>
<event>
 5    1  0.1431256E-002  0.1250020E+03  0.7818608E-02  0.1235066E+00
         -4   -1    0    0    0  501 -0.00000000000E+00  0.00000000000E+00  0.21891407438E+02  0.21928215149E+02  0.12700000000E+01 0.  1.
          4   -1    0    0  501    0  0.00000000000E+00 -0.00000000000E+00 -0.17825444988E+03  0.17825897397E+03  0.12700000000E+01 0.  1.
         25    2    1    2    0    0  0.00000000000E+00  0.00000000000E+00 -0.15636304244E+03  0.20018718912E+03  0.12500203857E+03 0.  0.
    9000005    1    3    3    0    0 -0.58410586456E+02 -0.21123254207E+02 -0.89205989511E+02  0.10870463211E+03  0.10000000000E+01 0.  0.
    9000005    1    3    3    0    0  0.58410586456E+02  0.21123254207E+02 -0.67157052931E+02  0.91482557009E+02  0.10000000000E+01 0.  0.
<mgrwt>
<rscale>  0 0.12500204E+03</rscale>
<asrwt>0</asrwt>
<pdfrwt beam="2">  1        4 0.44568775E-01 0.12500204E+03</pdfrwt>
<pdfrwt beam="1">  1       -4 0.54780189E-02 0.12500204E+03</pdfrwt>
<totfact> 0.16313780E+03</totfact>
</mgrwt>
</event>
<event>
 5    1  0.1431256E-002  0.1250006E+03  0.7818608E-02  0.1235068E+00
         -4   -1    0    0    0  501 -0.00000000000E+00  0.00000000000E+00  0.20536927719E+03  0.20537320398E+03  0.12700000000E+01 0.  1.
          4   -1    0    0  501    0  0.00000000000E+00 -0.00000000000E+00 -0.18995483486E+02  0.19037890977E+02  0.12700000000E+01 0.  1.
         25    2    1    2    0    0  0.00000000000E+00  0.00000000000E+00  0.18637379371E+03  0.22441109496E+03  0.12500059424E+03 0.  0.
    9000005    1    3    3    0    0  0.59768133307E+02  0.18056978270E+02  0.97937751418E+02  0.11615114023E+03  0.10000000000E+01 0.  0.
    9000005    1    3    3    0    0 -0.59768133307E+02 -0.18056978270E+02  0.88436042288E+02  0.10825995473E+03  0.10000000000E+01 0.  0.
<mgrwt>
<rscale>  0 0.12500059E+03</rscale>
<asrwt>0</asrwt>
<pdfrwt beam="2">  1        4 0.47546626E-02 0.12500059E+03</pdfrwt>
<pdfrwt beam="1">  1       -4 0.51348112E-01 0.12500059E+03</pdfrwt>
<totfact> 0.15388882E+03</totfact>
</mgrwt>
</event>
<event>
 5    1  0.1431256E-002  0.1249999E+03  0.7818608E-02  0.1235069E+00
         -4   -1    0    0    0  501 -0.00000000000E+00  0.00000000000E+00  0.27306001938E+02  0.27335519784E+02  0.12700000000E+01 0.  1.
          4   -1    0    0  501    0  0.00000000000E+00 -0.00000000000E+00 -0.14294479741E+03  0.14295043899E+03  0.12700000000E+01 0.  1.
         25    2    1    2    0    0  0.00000000000E+00  0.00000000000E+00 -0.11563879548E+03  0.17028595877E+03  0.12499990695E+03 0.  0.
    9000005    1    3    3    0    0  0.38069532181E+02 -0.49408852204E+02 -0.63046083752E+02  0.88692348221E+02  0.10000000000E+01 0.  0.
    9000005    1    3    3    0    0 -0.38069532181E+02  0.49408852204E+02 -0.52592711724E+02  0.81593610553E+02  0.10000000000E+01 0.  0.
<mgrwt>
<rscale>  0 0.12499991E+03</rscale>
<asrwt>0</asrwt>
<pdfrwt beam="2">  1        4 0.35740592E-01 0.12499991E+03</pdfrwt>
<pdfrwt beam="1">  1       -4 0.68308958E-02 0.12499991E+03</pdfrwt>
<totfact> 0.17584195E+03</totfact>
</mgrwt>
</event>
<event>
 5    1  0.1431256E-002  0.1250103E+03  0.7818608E-02  0.1235053E+00
          4   -1    0    0  501    0  0.00000000000E+00  0.00000000000E+00  0.50820139019E+03  0.50820297706E+03  0.12700000000E+01 0.  1.
         -4   -1    0    0    0  501 -0.00000000000E+00 -0.00000000000E+00 -0.76336225943E+01  0.77385459818E+01  0.12700000000E+01 0.  1.
         25    2    1    2    0    0  0.00000000000E+00  0.00000000000E+00  0.50056776760E+03  0.51594152304E+03  0.12501026054E+03 0.  0.
    9000005    1    3    3    0    0 -0.22445664657E+02 -0.26090973629E+02  0.46558515112E+03  0.46685659437E+03  0.10000000000E+01 0.  0.
    9000005    1    3    3    0    0  0.22445664657E+02  0.26090973629E+02  0.34982616481E+02  0.49084928671E+02  0.10000000000E+01 0.  0.
<mgrwt>
<rscale>  0 0.12501026E+03</rscale>
<asrwt>0</asrwt>
<pdfrwt beam="1">  1        4 0.12706366E+00 0.12501026E+03</pdfrwt>
<pdfrwt beam="2">  1       -4 0.19217194E-02 0.12501026E+03</pdfrwt>
<totfact> 0.85106000E+02</totfact>
</mgrwt>
</event>
<event>
 5    1  0.1431256E-002  0.1250001E+03  0.7818608E-02  0.1235069E+00
          4   -1    0    0  501    0  0.00000000000E+00  0.00000000000E+00  0.25219195780E+03  0.25219515554E+03  0.12700000000E+01 0. -1.
         -4   -1    0    0    0  501 -0.00000000000E+00 -0.00000000000E+00 -0.15459883522E+02  0.15511959854E+02  0.12700000000E+01 0. -1.
         25    2    1    2    0    0  0.00000000000E+00  0.00000000000E+00  0.23673207427E+03  0.26770711539E+03  0.12500009857E+03 0.  0.
    9000005    1    3    3    0    0  0.14355806234E+02 -0.38604659603E+02  0.21902035278E+03  0.22286166976E+03  0.10000000000E+01 0.  0.
    9000005    1    3    3    0    0 -0.14355806234E+02  0.38604659603E+02  0.17711721490E+02  0.44845445631E+02  0.10000000000E+01 0.  0.
<mgrwt>
<rscale>  0 0.12500010E+03</rscale>
<asrwt>0</asrwt>
<pdfrwt beam="1">  1        4 0.63054898E-01 0.12500010E+03</pdfrwt>
<pdfrwt beam="2">  1       -4 0.38718802E-02 0.12500010E+03</pdfrwt>
<totfact> 0.13926936E+03</totfact>
</mgrwt>
</event>
<event>
 5    1  0.1431256E-002  0.1250022E+03  0.7818608E-02  0.1235066E+00
          4   -1    0    0  501    0  0.00000000000E+00  0.00000000000E+00  0.24598028830E+01  0.27683081879E+01  0.12700000000E+01 0.  1.
         -4   -1    0    0    0  501 -0.00000000000E+00 -0.00000000000E+00 -0.14940703704E+04  0.14940709101E+04  0.12700000000E+01 0.  1.
         25    2    1    2    0    0  0.00000000000E+00  0.00000000000E+00 -0.14916105675E+04  0.14968392183E+04  0.12500224189E+03 0.  0.
    9000005    1    3    3    0    0  0.23455108686E+02  0.33356561631E+00 -0.14394106797E+04  0.14396021528E+04  0.10000000000E+01 0.  0.
    9000005    1    3    3    0    0 -0.23455108686E+02 -0.33356561631E+00 -0.52199887758E+02  0.57237065539E+02  0.10000000000E+01 0.  0.
<mgrwt>
<rscale>  0 0.12500224E+03</rscale>
<asrwt>0</asrwt>
<pdfrwt beam="1">  1        4 0.65358648E-03 0.12500224E+03</pdfrwt>
<pdfrwt beam="2">  1       -4 0.37355329E+00 0.12500224E+03</pdfrwt>
<totfact> 0.12596810E+02</totfact>
</mgrwt>
</event>
<event>
 5    1  0.1431256E-002  0.1249999E+03  0.7818608E-02  0.1235069E+00
         -4   -1    0    0    0  501 -0.00000000000E+00  0.00000000000E+00  0.24311836425E+03  0.24312168134E+03  0.12700000000E+01 0.  1.
          4   -1    0    0  501    0  0.00000000000E+00 -0.00000000000E+00 -0.16038714539E+02  0.16088917429E+02  0.12700000000E+01 0.  1.
         25    2    1    2    0    0  0.00000000000E+00  0.00000000000E+00  0.22707964971E+03  0.25921059877E+03  0.12499986880E+03 0.  0.
    9000005    1    3    3    0    0  0.23168883655E+02 -0.57850290422E+02  0.12321941891E+03  0.13808504072E+03  0.10000000000E+01 0.  0.
    9000005    1    3    3    0    0 -0.23168883655E+02  0.57850290422E+02  0.10386023080E+03  0.12112555805E+03  0.10000000000E+01 0.  0.
<mgrwt>
<rscale>  0 0.12499987E+03</rscale>
<asrwt>0</asrwt>
<pdfrwt beam="2">  1        4 0.40163686E-02 0.12499987E+03</pdfrwt>
<pdfrwt beam="1">  1       -4 0.60786281E-01 0.12499987E+03</pdfrwt>
<totfact> 0.14196578E+03</totfact>
</mgrwt>
</event>
<event>
 5    1  0.1431256E-002  0.1250012E+03  0.7818608E-02  0.1235067E+00
         -4   -1    0    0    0  501 -0.00000000000E+00  0.00000000000E+00  0.12551206120E+03  0.12551848632E+03  0.12700000000E+01 0. -1.
          4   -1    0    0  501    0  0.00000000000E+00 -0.00000000000E+00 -0.31102920782E+02  0.31128838417E+02  0.12700000000E+01 0. -1.
         25    2    1    2    0    0  0.00000000000E+00  0.00000000000E+00  0.94409140421E+02  0.15664732473E+03  0.12500119420E+03 0.  0.
    9000005    1    3    3    0    0 -0.27862213660E+02  0.38612357290E+02  0.97924661496E+02  0.10889194835E+03  0.10000000000E+01 0.  0.
    9000005    1    3    3    0    0  0.27862213660E+02 -0.38612357290E+02 -0.35155210749E+01  0.47755376388E+02  0.10000000000E+01 0.  0.
<mgrwt>
<rscale>  0 0.12500119E+03</rscale>
<asrwt>0</asrwt>
<pdfrwt beam="2">  1        4 0.77797731E-02 0.12500119E+03</pdfrwt>
<pdfrwt beam="1">  1       -4 0.31382058E-01 0.12500119E+03</pdfrwt>
<totfact> 0.18216181E+03</totfact>
</mgrwt>
</event>
<event>
 5    1  0.1431256E-002  0.1249974E+03  0.7818608E-02  0.1235073E+00
         -4   -1    0    0    0  501 -0.00000000000E+00  0.00000000000E+00  0.15129532131E+03  0.15130065152E+03  0.12700000000E+01 0. -1.
          4   -1    0    0  501    0  0.00000000000E+00 -0.00000000000E+00 -0.25796218458E+02  0.25827461872E+02  0.12700000000E+01 0. -1.
         25    2    1    2    0    0  0.00000000000E+00  0.00000000000E+00  0.12549910285E+03  0.17712811339E+03  0.12499737492E+03 0.  0.
    9000005    1    3    3    0    0  0.42047184226E+02  0.45504274674E+02  0.51195452208E+02  0.80377727274E+02  0.10000000000E+01 0.  0.
    9000005    1    3    3    0    0 -0.42047184226E+02 -0.45504274674E+02  0.74303650641E+02  0.96750386116E+02  0.10000000000E+01 0.  0.
<mgrwt>
<rscale>  0 0.12499737E+03</rscale>
<asrwt>0</asrwt>
<pdfrwt beam="2">  1        4 0.64536264E-02 0.12499737E+03</pdfrwt>
<pdfrwt beam="1">  1       -4 0.37828402E-01 0.12499737E+03</pdfrwt>
<totfact> 0.17281302E+03</totfact>
</mgrwt>
</event>
<event>
 5    1  0.1431256E-002  0.1249953E+03  0.7818608E-02  0.1235077E+00
          4   -1    0    0  501    0  0.00000000000E+00  0.00000000000E+00  0.27445734094E+02  0.27475101819E+02  0.12700000000E+01 0.  1.
         -4   -1    0    0    0  501 -0.00000000000E+00 -0.00000000000E+00 -0.14220731707E+03  0.14221298790E+03  0.12700000000E+01 0.  1.
         25    2    1    2    0    0  0.00000000000E+00  0.00000000000E+00 -0.11476158297E+03  0.16968808972E+03  0.12499530738E+03 0.  0.
    9000005    1    3    3    0    0  0.37726871451E+02 -0.49061910517E+02 -0.45657858101E+02  0.76915719456E+02  0.10000000000E+01 0.  0.
    9000005    1    3    3    0    0 -0.37726871451E+02  0.49061910517E+02 -0.69103724871E+02  0.92772370262E+02  0.10000000000E+01 0.  0.
<mgrwt>
<rscale>  0 0.12499531E+03</rscale>
<asrwt>0</asrwt>
<pdfrwt beam="1">  1        4 0.68658137E-02 0.12499531E+03</pdfrwt>
<pdfrwt beam="2">  1       -4 0.35556207E-01 0.12499531E+03</pdfrwt>
<totfact> 0.17613044E+03</totfact>
</mgrwt>
</event>
<event>
 5    1  0.1431256E-002  0.1250019E+03  0.7818608E-02  0.1235066E+00
         -4   -1    0    0    0  501 -0.00000000000E+00  0.00000000000E+00  0.54852240630E+01  0.56303270794E+01  0.12700000000E+01 0. -1.
          4   -1    0    0  501    0  0.00000000000E+00 -0.00000000000E+00 -0.70271935742E+03  0.70272050503E+03  0.12700000000E+01 0. -1.
         25    2    1    2    0    0  0.00000000000E+00  0.00000000000E+00 -0.69723413336E+03  0.70835083211E+03  0.12500185853E+03 0.  0.
    9000005    1    3    3    0    0  0.39740303542E+01  0.59616219478E+02 -0.45240933596E+03  0.45633879279E+03  0.10000000000E+01 0.  0.
    9000005    1    3    3    0    0 -0.39740303542E+01 -0.59616219478E+02 -0.24482479740E+03  0.25201203932E+03  0.10000000000E+01 0.  0.
<mgrwt>
<rscale>  0 0.12500186E+03</rscale>
<asrwt>0</asrwt>
<pdfrwt beam="2">  1        4 0.17569782E+00 0.12500186E+03</pdfrwt>
<pdfrwt beam="1">  1       -4 0.13895897E-02 0.12500186E+03</pdfrwt>
<totfact> 0.61197427E+02</totfact>
</mgrwt>
</event>
<event>
 5    1  0.1431256E-002  0.1249997E+03  0.7818608E-02  0.1235070E+00
          4   -1    0    0  501    0  0.00000000000E+00  0.00000000000E+00  0.58400016517E+02  0.58413823956E+02  0.12700000000E+01 0. -1.
         -4   -1    0    0    0  501 -0.00000000000E+00 -0.00000000000E+00 -0.66859738216E+02  0.66871798946E+02  0.12700000000E+01 0. -1.
         25    2    1    2    0    0  0.00000000000E+00  0.00000000000E+00 -0.84597216992E+01  0.12528562290E+03  0.12499968166E+03 0.  0.
    9000005    1    3    3    0    0 -0.13993021104E+02  0.59959160944E+02  0.64868608479E+01  0.61919181070E+02  0.10000000000E+01 0.  0.
    9000005    1    3    3    0    0  0.13993021104E+02 -0.59959160944E+02 -0.14946582547E+02  0.63366441833E+02  0.10000000000E+01 0.  0.
<mgrwt>
<rscale>  0 0.12499968E+03</rscale>
<asrwt>0</asrwt>
<pdfrwt beam="1">  1        4 0.14603238E-01 0.12499968E+03</pdfrwt>
<pdfrwt beam="2">  1       -4 0.16718168E-01 0.12499968E+03</pdfrwt>
<totfact> 0.19819721E+03</totfact>
</mgrwt>
</event>
<event>
 5    1  0.1431256E-002  0.1250021E+03  0.7818608E-02  0.1235066E+00
          4   -1    0    0  501    0  0.00000000000E+00  0.00000000000E+00  0.16782911474E+03  0.16783391986E+03  0.12700000000E+01 0. -1.
         -4   -1    0    0    0  501 -0.00000000000E+00 -0.00000000000E+00 -0.23253497184E+02  0.23288152166E+02  0.12700000000E+01 0. -1.
         25    2    1    2    0    0  0.00000000000E+00  0.00000000000E+00  0.14457561756E+03  0.19112207202E+03  0.12500214887E+03 0.  0.
    9000005    1    3    3    0    0 -0.17874667725E+02 -0.52497429042E+02  0.28241818338E+02  0.62242140913E+02  0.10000000000E+01 0.  0.
    9000005    1    3    3    0    0  0.17874667725E+02  0.52497429042E+02  0.11633379922E+03  0.12887993111E+03  0.10000000000E+01 0.  0.
<mgrwt>
<rscale>  0 0.12500215E+03</rscale>
<asrwt>0</asrwt>
<pdfrwt beam="1">  1        4 0.41962210E-01 0.12500215E+03</pdfrwt>
<pdfrwt beam="2">  1       -4 0.58183069E-02 0.12500215E+03</pdfrwt>
<totfact> 0.16682980E+03</totfact>
</mgrwt>
</event>
<event>
 5    1  0.1431256E-002  0.1250030E+03  0.7818608E-02  0.1235065E+00
         -4   -1    0    0    0  501 -0.00000000000E+00  0.00000000000E+00  0.39767244570E+02  0.39787518655E+02  0.12700000000E+01 0. -1.
          4   -1    0    0  501    0  0.00000000000E+00 -0.00000000000E+00 -0.98183100626E+02  0.98191314018E+02  0.12700000000E+01 0. -1.
         25    2    1    2    0    0  0.00000000000E+00  0.00000000000E+00 -0.58415856056E+02  0.13797883267E+03  0.12500298407E+03 0.  0.
    9000005    1    3    3    0    0  0.25325100838E+02  0.56869450749E+02 -0.35247800161E+02  0.71546506394E+02  0.10000000000E+01 0.  0.
    9000005    1    3    3    0    0 -0.25325100838E+02 -0.56869450749E+02 -0.23168055895E+02  0.66432326279E+02  0.10000000000E+01 0.  0.
<mgrwt>
<rscale>  0 0.12500298E+03</rscale>
<asrwt>0</asrwt>
<pdfrwt beam="2">  1        4 0.24549336E-01 0.12500298E+03</pdfrwt>
<pdfrwt beam="1">  1       -4 0.99453723E-02 0.12500298E+03</pdfrwt>
<totfact> 0.19142891E+03</totfact>
</mgrwt>
</event>
<event>
 5    1  0.1431256E-002  0.1249935E+03  0.7818608E-02  0.1235079E+00
         -4   -1    0    0    0  501 -0.00000000000E+00  0.00000000000E+00  0.32323567354E+03  0.32323816846E+03  0.12700000000E+01 0.  1.
          4   -1    0    0  501    0  0.00000000000E+00 -0.00000000000E+00 -0.12047663830E+02  0.12114417186E+02  0.12700000000E+01 0.  1.
         25    2    1    2    0    0  0.00000000000E+00  0.00000000000E+00  0.31118800971E+03  0.33535258565E+03  0.12499351708E+03 0.  0.
    9000005    1    3    3    0    0 -0.37089935815E+02  0.27398244438E+02  0.42446947018E+02  0.62682297726E+02  0.10000000000E+01 0.  0.
    9000005    1    3    3    0    0  0.37089935815E+02 -0.27398244438E+02  0.26874106269E+03  0.27267028792E+03  0.10000000000E+01 0.  0.
<mgrwt>
<rscale>  0 0.12499352E+03</rscale>
<asrwt>0</asrwt>
<pdfrwt beam="2">  1        4 0.30205721E-02 0.12499352E+03</pdfrwt>
<pdfrwt beam="1">  1       -4 0.80817572E-01 0.12499352E+03</pdfrwt>
<totfact> 0.12036832E+03</totfact>
</mgrwt>
</event>
<event>
 5    1  0.1431256E-002  0.1249993E+03  0.7818608E-02  0.1235070E+00
          4   -1    0    0  501    0  0.00000000000E+00  0.00000000000E+00  0.84674734072E+02  0.84684257629E+02  0.12700000000E+01 0. -1.
         -4   -1    0    0    0  501 -0.00000000000E+00 -0.00000000000E+00 -0.46111028409E+02  0.46128514402E+02  0.12700000000E+01 0. -1.
         25    2    1    2    0    0  0.00000000000E+00  0.00000000000E+00  0.38563705663E+02  0.13081277203E+03  0.12499928773E+03 0.  0.
    9000005    1    3    3    0    0 -0.61125257129E+02 -0.43146922879E+01  0.64523350787E+01  0.61624234329E+02  0.10000000000E+01 0.  0.
    9000005    1    3    3    0    0  0.61125257129E+02  0.43146922879E+01  0.32111370584E+02  0.69188537703E+02  0.10000000000E+01 0.  0.
<mgrwt>
<rscale>  0 0.12499929E+03</rscale>
<asrwt>0</asrwt>
<pdfrwt beam="1">  1        4 0.21172060E-01 0.12499929E+03</pdfrwt>
<pdfrwt beam="2">  1       -4 0.11531133E-01 0.12499929E+03</pdfrwt>
<totfact> 0.19521113E+03</totfact>
</mgrwt>
</event>
<event>
 5    1  0.1431256E-002  0.1250017E+03  0.7818608E-02  0.1235067E+00
         -4   -1    0    0    0  501 -0.00000000000E+00  0.00000000000E+00  0.42114645401E+02  0.42133789971E+02  0.12700000000E+01 0.  1.
          4   -1    0    0  501    0  0.00000000000E+00 -0.00000000000E+00 -0.92710787102E+02  0.92719485250E+02  0.12700000000E+01 0.  1.
         25    2    1    2    0    0  0.00000000000E+00  0.00000000000E+00 -0.50596141701E+02  0.13485327522E+03  0.12500174512E+03 0.  0.
    9000005    1    3    3    0    0  0.37940876284E+02  0.46798125486E+02 -0.73825147522E+01  0.60704828196E+02  0.10000000000E+01 0.  0.
    9000005    1    3    3    0    0 -0.37940876284E+02 -0.46798125486E+02 -0.43213626949E+02  0.74148447025E+02  0.10000000000E+01 0.  0.
<mgrwt>
<rscale>  0 0.12500175E+03</rscale>
<asrwt>0</asrwt>
<pdfrwt beam="2">  1        4 0.23181177E-01 0.12500175E+03</pdfrwt>
<pdfrwt beam="1">  1       -4 0.10532142E-01 0.12500175E+03</pdfrwt>
<totfact> 0.19306039E+03</totfact>
</mgrwt>
</event>
<event>
 5    1  0.1431256E-002  0.1249950E+03  0.7818608E-02  0.1235077E+00
         -4   -1    0    0    0  501 -0.00000000000E+00  0.00000000000E+00  0.11839373367E+04  0.11839380179E+04  0.12700000000E+01 0. -1.
          4   -1    0    0  501    0  0.00000000000E+00 -0.00000000000E+00 -0.31761795083E+01  0.34206748266E+01  0.12700000000E+01 0. -1.
         25    2    1    2    0    0  0.00000000000E+00  0.00000000000E+00  0.11807611572E+04  0.11873586927E+04  0.12499501896E+03 0.  0.
    9000005    1    3    3    0    0  0.60746245013E+02  0.79317391313E+01  0.47329683665E+03  0.47724617793E+03  0.10000000000E+01 0.  0.
    9000005    1    3    3    0    0 -0.60746245013E+02 -0.79317391313E+01  0.70746432054E+03  0.71011251475E+03  0.10000000000E+01 0.  0.
<mgrwt>
<rscale>  0 0.12499502E+03</rscale>
<asrwt>0</asrwt>
<pdfrwt beam="2">  1        4 0.82469236E-03 0.12499502E+03</pdfrwt>
<pdfrwt beam="1">  1       -4 0.29601483E+00 0.12499502E+03</pdfrwt>
<totfact> 0.25872287E+02</totfact>
</mgrwt>
</event>
<event>
 5    1  0.1431256E-002  0.1250291E+03  0.7818608E-02  0.1235024E+00
          4   -1    0    0  501    0  0.00000000000E+00  0.00000000000E+00  0.96240163907E+01  0.97074503084E+01  0.12700000000E+01 0.  1.
         -4   -1    0    0    0  501 -0.00000000000E+00 -0.00000000000E+00 -0.40423749296E+03  0.40423948794E+03  0.12700000000E+01 0.  1.
         25    2    1    2    0    0  0.00000000000E+00  0.00000000000E+00 -0.39461347657E+03  0.41394693825E+03  0.12502908382E+03 0.  0.
    9000005    1    3    3    0    0  0.44157993757E+02 -0.39027989553E+02 -0.12833736830E+03  0.14122532522E+03  0.10000000000E+01 0.  0.
    9000005    1    3    3    0    0 -0.44157993757E+02  0.39027989553E+02 -0.26627610827E+03  0.27272161303E+03  0.10000000000E+01 0.  0.
<mgrwt>
<rscale>  0 0.12502908E+03</rscale>
<asrwt>0</asrwt>
<pdfrwt beam="1">  1        4 0.24166841E-02 0.12502908E+03</pdfrwt>
<pdfrwt beam="2">  1       -4 0.10107000E+00 0.12502908E+03</pdfrwt>
<totfact> 0.10279612E+03</totfact>
</mgrwt>
</event>
<event>
 5    1  0.1431256E-002  0.1249995E+03  0.7818608E-02  0.1235070E+00
          4   -1    0    0  501    0  0.00000000000E+00  0.00000000000E+00  0.13542131917E+03  0.13542727416E+03  0.12700000000E+01 0.  1.
         -4   -1    0    0    0  501 -0.00000000000E+00 -0.00000000000E+00 -0.28824346302E+02  0.28852310821E+02  0.12700000000E+01 0.  1.
         25    2    1    2    0    0  0.00000000000E+00  0.00000000000E+00  0.10659697287E+03  0.16427958498E+03  0.12499946966E+03 0.  0.
    9000005    1    3    3    0    0 -0.25270947262E+02  0.15636295138E+02  0.12554718211E+03  0.12902019004E+03  0.10000000000E+01 0.  0.
    9000005    1    3    3    0    0  0.25270947262E+02 -0.15636295138E+02 -0.18950209244E+02  0.35259394941E+02  0.10000000000E+01 0.  0.
<mgrwt>
<rscale>  0 0.12499947E+03</rscale>
<asrwt>0</asrwt>
<pdfrwt beam="1">  1        4 0.33859569E-01 0.12499947E+03</pdfrwt>
<pdfrwt beam="2">  1       -4 0.72103267E-02 0.12499947E+03</pdfrwt>
<totfact> 0.17858411E+03</totfact>
</mgrwt>
</event>
<event>
 5    1  0.1431256E-002  0.1249997E+03  0.7818608E-02  0.1235070E+00
          4   -1    0    0  501    0  0.00000000000E+00  0.00000000000E+00  0.12923105911E+03  0.12923729933E+03  0.12700000000E+01 0. -1.
         -4   -1    0    0    0  501 -0.00000000000E+00 -0.00000000000E+00 -0.30206386582E+02  0.30233072791E+02  0.12700000000E+01 0. -1.
         25    2    1    2    0    0  0.00000000000E+00  0.00000000000E+00  0.99024672526E+02  0.15947037212E+03  0.12499965526E+03 0.  0.
    9000005    1    3    3    0    0 -0.23172253696E+01 -0.58984099510E+02  0.75680634133E+02  0.95984644143E+02  0.10000000000E+01 0.  0.
    9000005    1    3    3    0    0  0.23172253696E+01  0.58984099510E+02  0.23344038392E+02  0.63485727978E+02  0.10000000000E+01 0.  0.
<mgrwt>
<rscale>  0 0.12499966E+03</rscale>
<asrwt>0</asrwt>
<pdfrwt beam="1">  1        4 0.32311880E-01 0.12499966E+03</pdfrwt>
<pdfrwt beam="2">  1       -4 0.75557125E-02 0.12499966E+03</pdfrwt>
<totfact> 0.18082853E+03</totfact>
</mgrwt>
</event>
<event>
 5    1  0.1431256E-002  0.1250017E+03  0.7818608E-02  0.1235067E+00
          4   -1    0    0  501    0  0.00000000000E+00  0.00000000000E+00  0.34545502117E+01  0.36806001094E+01  0.12700000000E+01 0.  1.
         -4   -1    0    0    0  501 -0.00000000000E+00 -0.00000000000E+00 -0.10947347655E+04  0.10947355021E+04  0.12700000000E+01 0.  1.
         25    2    1    2    0    0  0.00000000000E+00  0.00000000000E+00 -0.10912802153E+04  0.10984161022E+04  0.12500170179E+03 0.  0.
    9000005    1    3    3    0    0  0.32745861421E+02  0.46400174515E+01 -0.79707907933E+02  0.86302791317E+02  0.10000000000E+01 0.  0.
    9000005    1    3    3    0    0 -0.32745861421E+02 -0.46400174515E+01 -0.10115723073E+04  0.10121133109E+04  0.10000000000E+01 0.  0.
<mgrwt>
<rscale>  0 0.12500170E+03</rscale>
<asrwt>0</asrwt>
<pdfrwt beam="1">  1        4 0.89198962E-03 0.12500170E+03</pdfrwt>
<pdfrwt beam="2">  1       -4 0.27371089E+00 0.12500170E+03</pdfrwt>
<totfact> 0.30876243E+02</totfact>
</mgrwt>
</event>
<event>
 5    1  0.1431256E-002  0.1249991E+03  0.7818608E-02  0.1235071E+00
         -4   -1    0    0    0  501 -0.00000000000E+00  0.00000000000E+00  0.19344259752E+03  0.19344676641E+03  0.12700000000E+01 0. -1.
          4   -1    0    0  501    0  0.00000000000E+00 -0.00000000000E+00 -0.20168682684E+02  0.20208628385E+02  0.12700000000E+01 0. -1.
         25    2    1    2    0    0  0.00000000000E+00  0.00000000000E+00  0.17327391483E+03  0.21365539479E+03  0.12499911265E+03 0.  0.
    9000005    1    3    3    0    0  0.36292258097E+02  0.49181077895E+02  0.10887620932E+03  0.12486366716E+03  0.10000000000E+01 0.  0.
    9000005    1    3    3    0    0 -0.36292258097E+02 -0.49181077895E+02  0.64397705511E+02  0.88791727632E+02  0.10000000000E+01 0.  0.
<mgrwt>
<rscale>  0 0.12499911E+03</rscale>
<asrwt>0</asrwt>
<pdfrwt beam="2">  1        4 0.50476850E-02 0.12499911E+03</pdfrwt>
<pdfrwt beam="1">  1       -4 0.48366164E-01 0.12499911E+03</pdfrwt>
<totfact> 0.15789801E+03</totfact>
</mgrwt>
</event>
<event>
 5    1  0.1431256E-002  0.1250024E+03  0.7818608E-02  0.1235066E+00
         -4   -1    0    0    0  501 -0.00000000000E+00  0.00000000000E+00  0.15213815899E+03  0.15214345968E+03  0.12700000000E+01 0. -1.
          4   -1    0    0  501    0  0.00000000000E+00 -0.00000000000E+00 -0.25655193581E+02  0.25686608528E+02  0.12700000000E+01 0. -1.
         25    2    1    2    0    0  0.00000000000E+00  0.00000000000E+00  0.12648296541E+03  0.17783006820E+03  0.12500237045E+03 0.  0.
    9000005    1    3    3    0    0  0.11390905134E+02  0.56824294066E+02  0.96502815817E+02  0.11257240593E+03  0.10000000000E+01 0.  0.
    9000005    1    3    3    0    0 -0.11390905134E+02 -0.56824294066E+02  0.29980149597E+02  0.65257662276E+02  0.10000000000E+01 0.  0.
<mgrwt>
<rscale>  0 0.12500237E+03</rscale>
<asrwt>0</asrwt>
<pdfrwt beam="2">  1        4 0.64183880E-02 0.12500237E+03</pdfrwt>
<pdfrwt beam="1">  1       -4 0.38039128E-01 0.12500237E+03</pdfrwt>
<totfact> 0.17248605E+03</totfact>
</mgrwt>
</event>
<event>
 5    1  0.1431256E-002  0.1249985E+03  0.7818608E-02  0.1235072E+00
          4   -1    0    0  501    0  0.00000000000E+00  0.00000000000E+00  0.15504348261E+02  0.15556275743E+02  0.12700000000E+01 0.  1.
         -4   -1    0    0    0  501 -0.00000000000E+00 -0.00000000000E+00 -0.25146460907E+03  0.25146781606E+03  0.12700000000E+01 0.  1.
         25    2    1    2    0    0  0.00000000000E+00  0.00000000000E+00 -0.23596026081E+03  0.26702409181E+03  0.12499848368E+03 0.  0.
    9000005    1    3    3    0    0  0.15351208142E+01 -0.44752402391E+02 -0.21109625988E+03  0.21579565578E+03  0.10000000000E+01 0.  0.
    9000005    1    3    3    0    0 -0.15351208142E+01  0.44752402391E+02 -0.24864000925E+02  0.51228436026E+02  0.10000000000E+01 0.  0.
<mgrwt>
<rscale>  0 0.12499848E+03</rscale>
<asrwt>0</asrwt>
<pdfrwt beam="1">  1        4 0.38829797E-02 0.12499848E+03</pdfrwt>
<pdfrwt beam="2">  1       -4 0.62873031E-01 0.12499848E+03</pdfrwt>
<totfact> 0.13948831E+03</totfact>
</mgrwt>
</event>
<event>
 5    1  0.1431256E-002  0.1250512E+03  0.7818608E-02  0.1234989E+00
         -4   -1    0    0    0  501 -0.00000000000E+00  0.00000000000E+00  0.90510125490E+02  0.90519035104E+02  0.12700000000E+01 0. -1.
          4   -1    0    0  501    0  0.00000000000E+00 -0.00000000000E+00 -0.43173143469E+02  0.43191818866E+02  0.12700000000E+01 0. -1.
         25    2    1    2    0    0  0.00000000000E+00  0.00000000000E+00  0.47336982021E+02  0.13371085397E+03  0.12505119992E+03 0.  0.
    9000005    1    3    3    0    0  0.12559359840E+02 -0.43525893203E+02 -0.22398762861E+02  0.50546468486E+02  0.10000000000E+01 0.  0.
    9000005    1    3    3    0    0 -0.12559359840E+02  0.43525893203E+02  0.69735744882E+02  0.83164385484E+02  0.10000000000E+01 0.  0.
<mgrwt>
<rscale>  0 0.12505120E+03</rscale>
<asrwt>0</asrwt>
<pdfrwt beam="2">  1        4 0.10796734E-01 0.12505120E+03</pdfrwt>
<pdfrwt beam="1">  1       -4 0.22630979E-01 0.12505120E+03</pdfrwt>
<totfact> 0.19343754E+03</totfact>
</mgrwt>
</event>
<event>
 5    1  0.1431256E-002  0.1250032E+03  0.7818608E-02  0.1235064E+00
         -4   -1    0    0    0  501 -0.00000000000E+00  0.00000000000E+00  0.14129490213E+02  0.14186451060E+02  0.12700000000E+01 0. -1.
          4   -1    0    0  501    0  0.00000000000E+00 -0.00000000000E+00 -0.27586049287E+03  0.27586341625E+03  0.12700000000E+01 0. -1.
         25    2    1    2    0    0  0.00000000000E+00  0.00000000000E+00 -0.26173100265E+03  0.29004986731E+03  0.12500323106E+03 0.  0.
    9000005    1    3    3    0    0  0.22518088608E+02 -0.56424623823E+02 -0.16486060173E+03  0.17570094050E+03  0.10000000000E+01 0.  0.
    9000005    1    3    3    0    0 -0.22518088608E+02  0.56424623823E+02 -0.96870400924E+02  0.11434892681E+03  0.10000000000E+01 0.  0.
<mgrwt>
<rscale>  0 0.12500323E+03</rscale>
<asrwt>0</asrwt>
<pdfrwt beam="2">  1        4 0.68972591E-01 0.12500323E+03</pdfrwt>
<pdfrwt beam="1">  1       -4 0.35398590E-02 0.12500323E+03</pdfrwt>
<totfact> 0.13253601E+03</totfact>
</mgrwt>
</event>
<event>
 4    1  0.1431256E-002  0.1248786E+03  0.7818608E-02  0.1235259E+00
          4   -1    0    0  501    0  0.00000000000E+00  0.00000000000E+00  0.12935656987E+03  0.12936280404E+03  0.12700000000E+01 0.  1.
         -4   -1    0    0    0  501 -0.00000000000E+00 -0.00000000000E+00 -0.30118563226E+02  0.30145327180E+02  0.12700000000E+01 0.  1.
    9000005    1    1    2    0    0  0.13387033116E+02  0.50027244858E+02  0.50828212568E+01  0.52045873570E+02  0.10000000000E+01 0.  0.
    9000005    1    1    2    0    0 -0.13387033116E+02 -0.50027244858E+02  0.94155185392E+02  0.10746225765E+03  0.10000000000E+01 0.  0.
<mgrwt>
<rscale>  0 0.12487859E+03</rscale>
<asrwt>0</asrwt>
<pdfrwt beam="1">  1        4 0.32343267E-01 0.12487859E+03</pdfrwt>
<pdfrwt beam="2">  1       -4 0.75337656E-02 0.12487859E+03</pdfrwt>
<totfact> 0.18132045E+03</totfact>
</mgrwt>
</event>
<event>
 5    1  0.1431256E-002  0.1250036E+03  0.7818608E-02  0.1235064E+00
          4   -1    0    0  501    0  0.00000000000E+00  0.00000000000E+00  0.56076474706E+02  0.56090854116E+02  0.12700000000E+01 0.  1.
         -4   -1    0    0    0  501 -0.00000000000E+00 -0.00000000000E+00 -0.69634210664E+02  0.69645790934E+02  0.12700000000E+01 0.  1.
         25    2    1    2    0    0  0.00000000000E+00  0.00000000000E+00 -0.13557735958E+02  0.12573664505E+03  0.12500356677E+03 0.  0.
    9000005    1    3    3    0    0  0.35046026602E+02  0.20584045390E+02 -0.54528791337E+02  0.68017027206E+02  0.10000000000E+01 0.  0.
    9000005    1    3    3    0    0 -0.35046026602E+02 -0.20584045390E+02  0.40971055379E+02  0.57719617844E+02  0.10000000000E+01 0.  0.
<mgrwt>
<rscale>  0 0.12500357E+03</rscale>
<asrwt>0</asrwt>
<pdfrwt beam="1">  1        4 0.14022364E-01 0.12500357E+03</pdfrwt>
<pdfrwt beam="2">  1       -4 0.17411798E-01 0.12500357E+03</pdfrwt>
<totfact> 0.19793506E+03</totfact>
</mgrwt>
</event>
<event>
 5    1  0.1431256E-002  0.1250016E+03  0.7818608E-02  0.1235067E+00
          4   -1    0    0  501    0  0.00000000000E+00  0.00000000000E+00  0.33606286890E+02  0.33630275326E+02  0.12700000000E+01 0.  1.
         -4   -1    0    0    0  501 -0.00000000000E+00 -0.00000000000E+00 -0.11616975301E+03  0.11617669480E+03  0.12700000000E+01 0.  1.
         25    2    1    2    0    0  0.00000000000E+00  0.00000000000E+00 -0.82563466120E+02  0.14980697012E+03  0.12500160943E+03 0.  0.
    9000005    1    3    3    0    0  0.18415885858E+02 -0.23443812405E+02  0.24540832209E+02  0.38626540585E+02  0.10000000000E+01 0.  0.
    9000005    1    3    3    0    0 -0.18415885858E+02  0.23443812405E+02 -0.10710429833E+03  0.11118042954E+03  0.10000000000E+01 0.  0.
<mgrwt>
<rscale>  0 0.12500161E+03</rscale>
<asrwt>0</asrwt>
<pdfrwt beam="1">  1        4 0.84054383E-02 0.12500161E+03</pdfrwt>
<pdfrwt beam="2">  1       -4 0.29046304E-01 0.12500161E+03</pdfrwt>
<totfact> 0.18547582E+03</totfact>
</mgrwt>
</event>
<event>
 5    1  0.1431256E-002  0.1250041E+03  0.7818608E-02  0.1235063E+00
         -4   -1    0    0    0  501 -0.00000000000E+00  0.00000000000E+00  0.52934776070E+01  0.54436940745E+01  0.12700000000E+01 0.  1.
          4   -1    0    0  501    0  0.00000000000E+00 -0.00000000000E+00 -0.72750884329E+03  0.72750995179E+03  0.12700000000E+01 0.  1.
         25    2    1    2    0    0  0.00000000000E+00  0.00000000000E+00 -0.72221536568E+03  0.73295364587E+03  0.12500405021E+03 0.  0.
    9000005    1    3    3    0    0  0.21310544431E+01  0.58420581312E+02 -0.23158041899E+03  0.23884722350E+03  0.10000000000E+01 0.  0.
    9000005    1    3    3    0    0 -0.21310544431E+01 -0.58420581312E+02 -0.49063494669E+03  0.49410642237E+03  0.10000000000E+01 0.  0.
<mgrwt>
<rscale>  0 0.12500405E+03</rscale>
<asrwt>0</asrwt>
<pdfrwt beam="2">  1        4 0.18189579E+00 0.12500405E+03</pdfrwt>
<pdfrwt beam="1">  1       -4 0.13422875E-02 0.12500405E+03</pdfrwt>
<totfact> 0.58717912E+02</totfact>
</mgrwt>
</event>
<event>
 5    1  0.1431256E-002  0.1250096E+03  0.7818608E-02  0.1235054E+00
          4   -1    0    0  501    0  0.00000000000E+00  0.00000000000E+00  0.76241283681E+02  0.76251860550E+02  0.12700000000E+01 0.  1.
         -4   -1    0    0    0  501 -0.00000000000E+00 -0.00000000000E+00 -0.51221255193E+02  0.51236997214E+02  0.12700000000E+01 0.  1.
         25    2    1    2    0    0  0.00000000000E+00  0.00000000000E+00  0.25020028488E+02  0.12748885776E+03  0.12500962774E+03 0.  0.
    9000005    1    3    3    0    0 -0.55683754950E+02 -0.60312965260E+01 -0.15767025713E+02  0.58194984345E+02  0.10000000000E+01 0.  0.
    9000005    1    3    3    0    0  0.55683754950E+02  0.60312965260E+01  0.40787054201E+02  0.69293873419E+02  0.10000000000E+01 0.  0.
<mgrwt>
<rscale>  0 0.12500963E+03</rscale>
<asrwt>0</asrwt>
<pdfrwt beam="1">  1        4 0.19063611E-01 0.12500963E+03</pdfrwt>
<pdfrwt beam="2">  1       -4 0.12808604E-01 0.12500963E+03</pdfrwt>
<totfact> 0.19695967E+03</totfact>
</mgrwt>
</event>
<event>
 5    1  0.1431256E-002  0.1249995E+03  0.7818608E-02  0.1235070E+00
          4   -1    0    0  501    0  0.00000000000E+00  0.00000000000E+00  0.31908654443E+02  0.31933918149E+02  0.12700000000E+01 0.  1.
         -4   -1    0    0    0  501 -0.00000000000E+00 -0.00000000000E+00 -0.12234182662E+03  0.12234841822E+03  0.12700000000E+01 0.  1.
         25    2    1    2    0    0  0.00000000000E+00  0.00000000000E+00 -0.90433172180E+02  0.15428233637E+03  0.12499952274E+03 0.  0.
    9000005    1    3    3    0    0  0.61331925257E+02 -0.11029036317E+02 -0.39430605490E+02  0.73749693878E+02  0.10000000000E+01 0.  0.
    9000005    1    3    3    0    0 -0.61331925257E+02  0.11029036317E+02 -0.51002566690E+02  0.80532642492E+02  0.10000000000E+01 0.  0.
<mgrwt>
<rscale>  0 0.12499952E+03</rscale>
<asrwt>0</asrwt>
<pdfrwt beam="1">  1        4 0.79811458E-02 0.12499952E+03</pdfrwt>
<pdfrwt beam="2">  1       -4 0.30589437E-01 0.12499952E+03</pdfrwt>
<totfact> 0.18330407E+03</totfact>
</mgrwt>
</event>
<event>
 5    1  0.1431256E-002  0.1249980E+03  0.7818608E-02  0.1235072E+00
          4   -1    0    0  501    0  0.00000000000E+00  0.00000000000E+00  0.55381863951E+01  0.56819370418E+01  0.12700000000E+01 0.  1.
         -4   -1    0    0    0  501 -0.00000000000E+00 -0.00000000000E+00 -0.69612718734E+03  0.69612834582E+03  0.12700000000E+01 0.  1.
         25    2    1    2    0    0  0.00000000000E+00  0.00000000000E+00 -0.69058900095E+03  0.70181028287E+03  0.12499801960E+03 0.  0.
    9000005    1    3    3    0    0 -0.37665892998E+02  0.49387655497E+02 -0.38389491862E+03  0.38888837544E+03  0.10000000000E+01 0.  0.
    9000005    1    3    3    0    0  0.37665892998E+02 -0.49387655497E+02 -0.30669408233E+03  0.31292190743E+03  0.10000000000E+01 0.  0.
<mgrwt>
<rscale>  0 0.12499802E+03</rscale>
<asrwt>0</asrwt>
<pdfrwt beam="1">  1        4 0.14026626E-02 0.12499802E+03</pdfrwt>
<pdfrwt beam="2">  1       -4 0.17404962E+00 0.12499802E+03</pdfrwt>
<totfact> 0.61879900E+02</totfact>
</mgrwt>
</event>
<event>
 5    1  0.1431256E-002  0.1249998E+03  0.7818608E-02  0.1235070E+00
         -4   -1    0    0    0  501 -0.00000000000E+00  0.00000000000E+00  0.63620759699E+02  0.63633434330E+02  0.12700000000E+01 0. -1.
          4   -1    0    0  501    0  0.00000000000E+00 -0.00000000000E+00 -0.61373459453E+02  0.61386598091E+02  0.12700000000E+01 0. -1.
         25    2    1    2    0    0  0.00000000000E+00  0.00000000000E+00  0.22473002457E+01  0.12502003242E+03  0.12499983259E+03 0.  0.
    9000005    1    3    3    0    0  0.31245075147E+02 -0.36123014399E+02  0.41430443578E+02  0.63234551832E+02  0.10000000000E+01 0.  0.
    9000005    1    3    3    0    0 -0.31245075147E+02  0.36123014399E+02 -0.39183143333E+02  0.61785480589E+02  0.10000000000E+01 0.  0.
<mgrwt>
<rscale>  0 0.12499983E+03</rscale>
<asrwt>0</asrwt>
<pdfrwt beam="2">  1        4 0.15346592E-01 0.12499983E+03</pdfrwt>
<pdfrwt beam="1">  1       -4 0.15908417E-01 0.12499983E+03</pdfrwt>
<totfact> 0.19834047E+03</totfact>
</mgrwt>
</event>
<event>
 5    1  0.1431256E-002  0.1250001E+03  0.7818608E-02  0.1235069E+00
         -4   -1    0    0    0  501 -0.00000000000E+00  0.00000000000E+00  0.12697335372E+02  0.12760690637E+02  0.12700000000E+01 0. -1.
          4   -1    0    0  501    0  0.00000000000E+00 -0.00000000000E+00 -0.30681343392E+03  0.30681606238E+03  0.12700000000E+01 0. -1.
         25    2    1    2    0    0  0.00000000000E+00  0.00000000000E+00 -0.29411609855E+03  0.31957675302E+03  0.12500008657E+03 0.  0.
    9000005    1    3    3    0    0 -0.27447282234E+02 -0.24116676330E+02 -0.17442900381E+02  0.40499656207E+02  0.10000000000E+01 0.  0.
    9000005    1    3    3    0    0  0.27447282234E+02  0.24116676330E+02 -0.27667319817E+03  0.27907709681E+03  0.10000000000E+01 0.  0.
<mgrwt>
<rscale>  0 0.12500009E+03</rscale>
<asrwt>0</asrwt>
<pdfrwt beam="2">  1        4 0.76711582E-01 0.12500009E+03</pdfrwt>
<pdfrwt beam="1">  1       -4 0.31825828E-02 0.12500009E+03</pdfrwt>
<totfact> 0.12439569E+03</totfact>
</mgrwt>
</event>
<event>
 4    1  0.1431256E-002  0.1252447E+03  0.7818608E-02  0.1234687E+00
          4   -1    0    0  501    0  0.00000000000E+00  0.00000000000E+00  0.31176234870E+02  0.31202091607E+02  0.12700000000E+01 0.  1.
         -4   -1    0    0    0  501 -0.00000000000E+00 -0.00000000000E+00 -0.12570551711E+03  0.12571193234E+03  0.12700000000E+01 0.  1.
    9000005    1    1    2    0    0 -0.56119750334E+02 -0.21794280780E+02 -0.68824733022E+02  0.91445398615E+02  0.10000000000E+01 0.  0.
    9000005    1    1    2    0    0  0.56119750334E+02  0.21794280780E+02 -0.25704549222E+02  0.65468625333E+02  0.10000000000E+01 0.  0.
<mgrwt>
<rscale>  0 0.12524466E+03</rscale>
<asrwt>0</asrwt>
<pdfrwt beam="1">  1        4 0.77980930E-02 0.12524466E+03</pdfrwt>
<pdfrwt beam="2">  1       -4 0.31430412E-01 0.12524466E+03</pdfrwt>
<totfact> 0.18100785E+03</totfact>
</mgrwt>
</event>
<event>
 5    1  0.1431256E-002  0.1250043E+03  0.7818608E-02  0.1235063E+00
          4   -1    0    0  501    0  0.00000000000E+00  0.00000000000E+00  0.53987464157E+02  0.54002399818E+02  0.12700000000E+01 0.  1.
         -4   -1    0    0    0  501 -0.00000000000E+00 -0.00000000000E+00 -0.72329237968E+02  0.72340386819E+02  0.12700000000E+01 0.  1.
         25    2    1    2    0    0  0.00000000000E+00  0.00000000000E+00 -0.18341773811E+02  0.12634278664E+03  0.12500431620E+03 0.  0.
    9000005    1    3    3    0    0 -0.20956291488E+02 -0.56912394704E+02  0.60681187499E+01  0.60959075526E+02  0.10000000000E+01 0.  0.
    9000005    1    3    3    0    0  0.20956291488E+02  0.56912394704E+02 -0.24409892561E+02  0.65383711111E+02  0.10000000000E+01 0.  0.
<mgrwt>
<rscale>  0 0.12500432E+03</rscale>
<asrwt>0</asrwt>
<pdfrwt beam="1">  1        4 0.13500127E-01 0.12500432E+03</pdfrwt>
<pdfrwt beam="2">  1       -4 0.18085570E-01 0.12500432E+03</pdfrwt>
<totfact> 0.19760413E+03</totfact>
</mgrwt>
</event>
<event>
 5    1  0.1431256E-002  0.1250002E+03  0.7818608E-02  0.1235069E+00
         -4   -1    0    0    0  501 -0.00000000000E+00  0.00000000000E+00  0.18111388646E+03  0.18111833913E+03  0.12700000000E+01 0.  1.
          4   -1    0    0  501    0  0.00000000000E+00 -0.00000000000E+00 -0.21544561976E+02  0.21581961234E+02  0.12700000000E+01 0.  1.
         25    2    1    2    0    0  0.00000000000E+00  0.00000000000E+00  0.15956932449E+03  0.20270030037E+03  0.12500016980E+03 0.  0.
    9000005    1    3    3    0    0 -0.27235244064E+02 -0.44207002712E+02  0.23394858751E+02  0.56959082015E+02  0.10000000000E+01 0.  0.
    9000005    1    3    3    0    0  0.27235244064E+02  0.44207002712E+02  0.13617446574E+03  0.14574121835E+03  0.10000000000E+01 0.  0.
<mgrwt>
<rscale>  0 0.12500017E+03</rscale>
<asrwt>0</asrwt>
<pdfrwt beam="2">  1        4 0.53913721E-02 0.12500017E+03</pdfrwt>
<pdfrwt beam="1">  1       -4 0.45283703E-01 0.12500017E+03</pdfrwt>
<totfact> 0.16214421E+03</totfact>
</mgrwt>
</event>
<event>
 5    1  0.1431256E-002  0.1249996E+03  0.7818608E-02  0.1235070E+00
         -4   -1    0    0    0  501 -0.00000000000E+00  0.00000000000E+00  0.10417652136E+03  0.10418426226E+03  0.12700000000E+01 0. -1.
          4   -1    0    0  501    0  0.00000000000E+00 -0.00000000000E+00 -0.37476322571E+02  0.37497835317E+02  0.12700000000E+01 0. -1.
         25    2    1    2    0    0  0.00000000000E+00  0.00000000000E+00  0.66700198786E+02  0.14168209757E+03  0.12499960102E+03 0.  0.
    9000005    1    3    3    0    0 -0.54761700236E+02 -0.27484541774E+02  0.47277427542E+02  0.77397667951E+02  0.10000000000E+01 0.  0.
    9000005    1    3    3    0    0  0.54761700236E+02  0.27484541774E+02  0.19422771244E+02  0.64284429624E+02  0.10000000000E+01 0.  0.
<mgrwt>
<rscale>  0 0.12499960E+03</rscale>
<asrwt>0</asrwt>
<pdfrwt beam="2">  1        4 0.93727375E-02 0.12499960E+03</pdfrwt>
<pdfrwt beam="1">  1       -4 0.26047787E-01 0.12499960E+03</pdfrwt>
<totfact> 0.18954793E+03</totfact>
</mgrwt>
</event>
<event>
 5    1  0.1431256E-002  0.1250004E+03  0.7818608E-02  0.1235069E+00
          4   -1    0    0  501    0  0.00000000000E+00  0.00000000000E+00  0.27755282439E+02  0.27784322976E+02  0.12700000000E+01 0.  1.
         -4   -1    0    0    0  501 -0.00000000000E+00 -0.00000000000E+00 -0.14063434137E+03  0.14064007563E+03  0.12700000000E+01 0.  1.
         25    2    1    2    0    0  0.00000000000E+00  0.00000000000E+00 -0.11287905893E+03  0.16842439860E+03  0.12500038440E+03 0.  0.
    9000005    1    3    3    0    0 -0.61927649157E+02 -0.65315475536E+01 -0.63515472746E+02  0.88954539635E+02  0.10000000000E+01 0.  0.
    9000005    1    3    3    0    0  0.61927649157E+02  0.65315475536E+01 -0.49363586185E+02  0.79469858969E+02  0.10000000000E+01 0.  0.
<mgrwt>
<rscale>  0 0.12500038E+03</rscale>
<asrwt>0</asrwt>
<pdfrwt beam="1">  1        4 0.69431678E-02 0.12500038E+03</pdfrwt>
<pdfrwt beam="2">  1       -4 0.35162930E-01 0.12500038E+03</pdfrwt>
<totfact> 0.17668191E+03</totfact>
</mgrwt>
</event>
<event>
 5    1  0.1431256E-002  0.1249982E+03  0.7818608E-02  0.1235072E+00
         -4   -1    0    0    0  501 -0.00000000000E+00  0.00000000000E+00  0.34045162350E+02  0.34068841768E+02  0.12700000000E+01 0.  1.
          4   -1    0    0  501    0  0.00000000000E+00 -0.00000000000E+00 -0.11466687847E+03  0.11467391124E+03  0.12700000000E+01 0.  1.
         25    2    1    2    0    0  0.00000000000E+00  0.00000000000E+00 -0.80621716120E+02  0.14874275300E+03  0.12499818183E+03 0.  0.
    9000005    1    3    3    0    0 -0.58843839778E+02 -0.19922893166E+02 -0.48347904823E+02  0.78727625727E+02  0.10000000000E+01 0.  0.
    9000005    1    3    3    0    0  0.58843839778E+02  0.19922893166E+02 -0.32273811298E+02  0.70015127276E+02  0.10000000000E+01 0.  0.
<mgrwt>
<rscale>  0 0.12499818E+03</rscale>
<asrwt>0</asrwt>
<pdfrwt beam="2">  1        4 0.28670558E-01 0.12499818E+03</pdfrwt>
<pdfrwt beam="1">  1       -4 0.85151299E-02 0.12499818E+03</pdfrwt>
<totfact> 0.18601560E+03</totfact>
</mgrwt>
</event>
<event>
 5    1  0.1431256E-002  0.1249943E+03  0.7818608E-02  0.1235078E+00
          4   -1    0    0  501    0  0.00000000000E+00  0.00000000000E+00  0.44617509949E+02  0.44635581032E+02  0.12700000000E+01 0.  1.
         -4   -1    0    0    0  501 -0.00000000000E+00 -0.00000000000E+00 -0.87501298185E+02  0.87510514134E+02  0.12700000000E+01 0.  1.
         25    2    1    2    0    0  0.00000000000E+00  0.00000000000E+00 -0.42883788236E+02  0.13214609517E+03  0.12499428457E+03 0.  0.
    9000005    1    3    3    0    0  0.38446428471E+02 -0.40125608148E+02 -0.51655015169E+02  0.75877749594E+02  0.10000000000E+01 0.  0.
    9000005    1    3    3    0    0 -0.38446428471E+02  0.40125608148E+02  0.87712269329E+01  0.56268345571E+02  0.10000000000E+01 0.  0.
<mgrwt>
<rscale>  0 0.12499428E+03</rscale>
<asrwt>0</asrwt>
<pdfrwt beam="1">  1        4 0.11157788E-01 0.12499428E+03</pdfrwt>
<pdfrwt beam="2">  1       -4 0.21878735E-01 0.12499428E+03</pdfrwt>
<totfact> 0.19452283E+03</totfact>
</mgrwt>
</event>
<event>
 5    1  0.1431256E-002  0.1250005E+03  0.7818608E-02  0.1235068E+00
          4   -1    0    0  501    0  0.00000000000E+00  0.00000000000E+00  0.68407615685E+02  0.68419403561E+02  0.12700000000E+01 0.  1.
         -4   -1    0    0    0  501 -0.00000000000E+00 -0.00000000000E+00 -0.57079280292E+02  0.57093407138E+02  0.12700000000E+01 0.  1.
         25    2    1    2    0    0  0.00000000000E+00  0.00000000000E+00  0.11328335393E+02  0.12551281070E+03  0.12500053787E+03 0.  0.
    9000005    1    3    3    0    0  0.50360981681E+02 -0.35930228786E+02 -0.32079814285E+01  0.61955637042E+02  0.10000000000E+01 0.  0.
    9000005    1    3    3    0    0 -0.50360981681E+02  0.35930228786E+02  0.14536316821E+02  0.63557173657E+02  0.10000000000E+01 0.  0.
<mgrwt>
<rscale>  0 0.12500054E+03</rscale>
<asrwt>0</asrwt>
<pdfrwt beam="1">  1        4 0.17105143E-01 0.12500054E+03</pdfrwt>
<pdfrwt beam="2">  1       -4 0.14273060E-01 0.12500054E+03</pdfrwt>
<totfact> 0.19807021E+03</totfact>
</mgrwt>
</event>
<event>
 5    1  0.1431256E-002  0.1250082E+03  0.7818608E-02  0.1235056E+00
          4   -1    0    0  501    0  0.00000000000E+00  0.00000000000E+00  0.39030230704E+02  0.39050887427E+02  0.12700000000E+01 0.  1.
         -4   -1    0    0    0  501 -0.00000000000E+00 -0.00000000000E+00 -0.10004467885E+03  0.10005273942E+03  0.12700000000E+01 0.  1.
         25    2    1    2    0    0  0.00000000000E+00  0.00000000000E+00 -0.61014448143E+02  0.13910362685E+03  0.12500822421E+03 0.  0.
    9000005    1    3    3    0    0 -0.13878870858E+01  0.51447431901E+02  0.89446309721E+01  0.52247209524E+02  0.10000000000E+01 0.  0.
    9000005    1    3    3    0    0  0.13878870858E+01 -0.51447431901E+02 -0.69959079115E+02  0.86856417325E+02  0.10000000000E+01 0.  0.
<mgrwt>
<rscale>  0 0.12500822E+03</rscale>
<asrwt>0</asrwt>
<pdfrwt beam="1">  1        4 0.97611475E-02 0.12500822E+03</pdfrwt>
<pdfrwt beam="2">  1       -4 0.25014759E-01 0.12500822E+03</pdfrwt>
<totfact> 0.19082633E+03</totfact>
</mgrwt>
</event>
<event>
 5    1  0.1431256E-002  0.1249850E+03  0.7818608E-02  0.1235093E+00
         -4   -1    0    0    0  501 -0.00000000000E+00  0.00000000000E+00  0.22272219373E+02  0.22308398773E+02  0.12700000000E+01 0.  1.
          4   -1    0    0  501    0  0.00000000000E+00 -0.00000000000E+00 -0.17516368756E+03  0.17516829148E+03  0.12700000000E+01 0.  1.
         25    2    1    2    0    0  0.00000000000E+00  0.00000000000E+00 -0.15289146819E+03  0.19747669026E+03  0.12498496769E+03 0.  0.
    9000005    1    3    3    0    0 -0.29033392391E+02 -0.39050836947E+02 -0.14514335933E+02  0.50789484025E+02  0.10000000000E+01 0.  0.
    9000005    1    3    3    0    0  0.29033392391E+02  0.39050836947E+02 -0.13837713226E+03  0.14668720623E+03  0.10000000000E+01 0.  0.
<mgrwt>
<rscale>  0 0.12498497E+03</rscale>
<asrwt>0</asrwt>
<pdfrwt beam="2">  1        4 0.43796016E-01 0.12498497E+03</pdfrwt>
<pdfrwt beam="1">  1       -4 0.55731533E-02 0.12498497E+03</pdfrwt>
<totfact> 0.16429291E+03</totfact>
</mgrwt>
</event>
<event>
 5    1  0.1431256E-002  0.1250008E+03  0.7818608E-02  0.1235068E+00
          4   -1    0    0  501    0  0.00000000000E+00  0.00000000000E+00  0.21724017843E+03  0.21724389065E+03  0.12700000000E+01 0.  1.
         -4   -1    0    0    0  501 -0.00000000000E+00 -0.00000000000E+00 -0.17955197841E+02  0.18000056375E+02  0.12700000000E+01 0.  1.
         25    2    1    2    0    0  0.00000000000E+00  0.00000000000E+00  0.19928498059E+03  0.23524394703E+03  0.12500084449E+03 0.  0.
    9000005    1    3    3    0    0  0.39869601244E+00  0.62249171877E+02  0.89303051935E+02  0.10886300309E+03  0.10000000000E+01 0.  0.
    9000005    1    3    3    0    0 -0.39869601244E+00 -0.62249171877E+02  0.10998192866E+03  0.12638094393E+03  0.10000000000E+01 0.  0.
<mgrwt>
<rscale>  0 0.12500084E+03</rscale>
<asrwt>0</asrwt>
<pdfrwt beam="1">  1        4 0.54316115E-01 0.12500084E+03</pdfrwt>
<pdfrwt beam="2">  1       -4 0.44948709E-02 0.12500084E+03</pdfrwt>
<totfact> 0.15001435E+03</totfact>
</mgrwt>
</event>
<event>
 5    1  0.1431256E-002  0.1249831E+03  0.7818608E-02  0.1235096E+00
         -4   -1    0    0    0  501 -0.00000000000E+00  0.00000000000E+00  0.17588866063E+02  0.17634656486E+02  0.12700000000E+01 0. -1.
          4   -1    0    0  501    0  0.00000000000E+00 -0.00000000000E+00 -0.22169016961E+03  0.22169380732E+03  0.12700000000E+01 0. -1.
         25    2    1    2    0    0  0.00000000000E+00  0.00000000000E+00 -0.20410130355E+03  0.23932846380E+03  0.12498308476E+03 0.  0.
    9000005    1    3    3    0    0 -0.52331312488E+02  0.33968207854E+02 -0.10862500725E+03  0.12527089690E+03  0.10000000000E+01 0.  0.
    9000005    1    3    3    0    0  0.52331312488E+02 -0.33968207854E+02 -0.95476296299E+02  0.11405756690E+03  0.10000000000E+01 0.  0.
<mgrwt>
<rscale>  0 0.12498308E+03</rscale>
<asrwt>0</asrwt>
<pdfrwt beam="2">  1        4 0.55428712E-01 0.12498308E+03</pdfrwt>
<pdfrwt beam="1">  1       -4 0.44033957E-02 0.12498308E+03</pdfrwt>
<totfact> 0.14865407E+03</totfact>
</mgrwt>
</event>
<event>
 5    1  0.1431256E-002  0.1249988E+03  0.7818608E-02  0.1235071E+00
          4   -1    0    0  501    0  0.00000000000E+00  0.00000000000E+00  0.12688641180E+03  0.12689276733E+03  0.12700000000E+01 0.  1.
         -4   -1    0    0    0  501 -0.00000000000E+00 -0.00000000000E+00 -0.30764569450E+02  0.30790771887E+02  0.12700000000E+01 0.  1.
         25    2    1    2    0    0  0.00000000000E+00  0.00000000000E+00  0.96121842354E+02  0.15768353922E+03  0.12499875984E+03 0.  0.
    9000005    1    3    3    0    0  0.53686878280E+02 -0.12368840390E+02  0.85267193776E+02  0.10152223129E+03  0.10000000000E+01 0.  0.
    9000005    1    3    3    0    0 -0.53686878280E+02  0.12368840390E+02  0.10854648578E+02  0.56161307925E+02  0.10000000000E+01 0.  0.
<mgrwt>
<rscale>  0 0.12499876E+03</rscale>
<asrwt>0</asrwt>
<pdfrwt beam="1">  1        4 0.31725672E-01 0.12499876E+03</pdfrwt>
<pdfrwt beam="2">  1       -4 0.76952122E-02 0.12499876E+03</pdfrwt>
<totfact> 0.18167842E+03</totfact>
</mgrwt>
</event>
<event>
 5    1  0.1431256E-002  0.1249992E+03  0.7818608E-02  0.1235070E+00
         -4   -1    0    0    0  501 -0.00000000000E+00  0.00000000000E+00  0.18928849395E+02  0.18971405836E+02  0.12700000000E+01 0. -1.
          4   -1    0    0  501    0  0.00000000000E+00 -0.00000000000E+00 -0.20608612728E+03  0.20609004041E+03  0.12700000000E+01 0. -1.
         25    2    1    2    0    0  0.00000000000E+00  0.00000000000E+00 -0.18715727788E+03  0.22506144625E+03  0.12499923169E+03 0.  0.
    9000005    1    3    3    0    0  0.59169039886E+02  0.13723764680E+02 -0.67123808761E+02  0.90531335463E+02  0.10000000000E+01 0.  0.
    9000005    1    3    3    0    0 -0.59169039886E+02 -0.13723764680E+02 -0.12003346912E+03  0.13453011078E+03  0.10000000000E+01 0.  0.
<mgrwt>
<rscale>  0 0.12499923E+03</rscale>
<asrwt>0</asrwt>
<pdfrwt beam="2">  1        4 0.51527334E-01 0.12499923E+03</pdfrwt>
<pdfrwt beam="1">  1       -4 0.47380217E-02 0.12499923E+03</pdfrwt>
<totfact> 0.15365670E+03</totfact>
</mgrwt>
</event>
<event>
 5    1  0.1431256E-002  0.1250011E+03  0.7818608E-02  0.1235068E+00
          4   -1    0    0  501    0  0.00000000000E+00  0.00000000000E+00  0.50251878682E+01  0.51831856141E+01  0.12700000000E+01 0.  1.
         -4   -1    0    0    0  501 -0.00000000000E+00 -0.00000000000E+00 -0.76515748425E+03  0.76515853821E+03  0.12700000000E+01 0.  1.
         25    2    1    2    0    0  0.00000000000E+00  0.00000000000E+00 -0.76013229638E+03  0.77034172382E+03  0.12500105387E+03 0.  0.
    9000005    1    3    3    0    0  0.54305345812E+02  0.24502333630E+02 -0.26380834691E+03  0.27045383864E+03  0.10000000000E+01 0.  0.
    9000005    1    3    3    0    0 -0.54305345812E+02 -0.24502333630E+02 -0.49632394947E+03  0.49988788518E+03  0.10000000000E+01 0.  0.
<mgrwt>
<rscale>  0 0.12500105E+03</rscale>
<asrwt>0</asrwt>
<pdfrwt beam="1">  1        4 0.12761810E-02 0.12500105E+03</pdfrwt>
<pdfrwt beam="2">  1       -4 0.19130886E+00 0.12500105E+03</pdfrwt>
<totfact> 0.55160033E+02</totfact>
</mgrwt>
</event>
<event>
 5    1  0.1431256E-002  0.1249976E+03  0.7818608E-02  0.1235073E+00
          4   -1    0    0  501    0  0.00000000000E+00  0.00000000000E+00  0.16133470958E+02  0.16183379905E+02  0.12700000000E+01 0. -1.
         -4   -1    0    0    0  501 -0.00000000000E+00 -0.00000000000E+00 -0.24168592164E+03  0.24168925838E+03  0.12700000000E+01 0. -1.
         25    2    1    2    0    0  0.00000000000E+00  0.00000000000E+00 -0.22555245068E+03  0.25787263829E+03  0.12499755826E+03 0.  0.
    9000005    1    3    3    0    0 -0.30960463872E+02 -0.59759280905E+01 -0.14717685264E+01  0.31582085781E+02  0.10000000000E+01 0.  0.
    9000005    1    3    3    0    0  0.30960463872E+02  0.59759280905E+01 -0.22408068215E+03  0.22629055251E+03  0.10000000000E+01 0.  0.
<mgrwt>
<rscale>  0 0.12499756E+03</rscale>
<asrwt>0</asrwt>
<pdfrwt beam="1">  1        4 0.40400242E-02 0.12499756E+03</pdfrwt>
<pdfrwt beam="2">  1       -4 0.60428125E-01 0.12499756E+03</pdfrwt>
<totfact> 0.14240519E+03</totfact>
</mgrwt>
</event>
<event>
 5    1  0.1431256E-002  0.1249994E+03  0.7818608E-02  0.1235070E+00
          4   -1    0    0  501    0  0.00000000000E+00  0.00000000000E+00  0.67941328871E+01  0.69118117514E+01  0.12700000000E+01 0.  1.
         -4   -1    0    0    0  501 -0.00000000000E+00 -0.00000000000E+00 -0.56988471567E+03  0.56988613078E+03  0.12700000000E+01 0.  1.
         25    2    1    2    0    0  0.00000000000E+00  0.00000000000E+00 -0.56309058278E+03  0.57679794253E+03  0.12499944835E+03 0.  0.
    9000005    1    3    3    0    0  0.61068844880E+02 -0.13115781827E+02 -0.29052617590E+03  0.29716642885E+03  0.10000000000E+01 0.  0.
    9000005    1    3    3    0    0 -0.61068844880E+02  0.13115781827E+02 -0.27256440688E+03  0.27963151368E+03  0.10000000000E+01 0.  0.
<mgrwt>
<rscale>  0 0.12499945E+03</rscale>
<asrwt>0</asrwt>
<pdfrwt beam="1">  1        4 0.17134219E-02 0.12499945E+03</pdfrwt>
<pdfrwt beam="2">  1       -4 0.14248590E+00 0.12499945E+03</pdfrwt>
<totfact> 0.76503085E+02</totfact>
</mgrwt>
</event>
<event>
 5    1  0.1431256E-002  0.1249975E+03  0.7818608E-02  0.1235073E+00
         -4   -1    0    0    0  501 -0.00000000000E+00  0.00000000000E+00  0.17212187751E+02  0.17258977581E+02  0.12700000000E+01 0.  1.
          4   -1    0    0  501    0  0.00000000000E+00 -0.00000000000E+00 -0.22658115990E+03  0.22658471908E+03  0.12700000000E+01 0.  1.
         25    2    1    2    0    0  0.00000000000E+00  0.00000000000E+00 -0.20936897215E+03  0.24384369666E+03  0.12499752759E+03 0.  0.
    9000005    1    3    3    0    0  0.47016821760E+02  0.26668490095E+02 -0.43512248949E+02  0.69398167850E+02  0.10000000000E+01 0.  0.
    9000005    1    3    3    0    0 -0.47016821760E+02 -0.26668490095E+02 -0.16585672320E+03  0.17444552881E+03  0.10000000000E+01 0.  0.
<mgrwt>
<rscale>  0 0.12499753E+03</rscale>
<asrwt>0</asrwt>
<pdfrwt beam="2">  1        4 0.56651574E-01 0.12499753E+03</pdfrwt>
<pdfrwt beam="1">  1       -4 0.43093413E-02 0.12499753E+03</pdfrwt>
<totfact> 0.14705782E+03</totfact>
</mgrwt>
</event>
<event>
 5    1  0.1431256E-002  0.1250014E+03  0.7818608E-02  0.1235067E+00
          4   -1    0    0  501    0  0.00000000000E+00  0.00000000000E+00  0.17720565568E+02  0.17766016550E+02  0.12700000000E+01 0.  1.
         -4   -1    0    0    0  501 -0.00000000000E+00 -0.00000000000E+00 -0.22011117345E+03  0.22011483725E+03  0.12700000000E+01 0.  1.
         25    2    1    2    0    0  0.00000000000E+00  0.00000000000E+00 -0.20239060788E+03  0.23788085380E+03  0.12500136978E+03 0.  0.
    9000005    1    3    3    0    0  0.16944654246E+02  0.22744591112E+02 -0.20716664944E+03  0.20910155038E+03  0.10000000000E+01 0.  0.
    9000005    1    3    3    0    0 -0.16944654246E+02 -0.22744591112E+02  0.47760415558E+01  0.28779303419E+02  0.10000000000E+01 0.  0.
<mgrwt>
<rscale>  0 0.12500137E+03</rscale>
<asrwt>0</asrwt>
<pdfrwt beam="1">  1        4 0.44362814E-02 0.12500137E+03</pdfrwt>
<pdfrwt beam="2">  1       -4 0.55033924E-01 0.12500137E+03</pdfrwt>
<totfact> 0.14909271E+03</totfact>
</mgrwt>
</event>
<event>
 5    1  0.1431256E-002  0.1250024E+03  0.7818608E-02  0.1235066E+00
          4   -1    0    0  501    0  0.00000000000E+00  0.00000000000E+00  0.22094421727E+01  0.25484377007E+01  0.12700000000E+01 0. -1.
         -4   -1    0    0    0  501 -0.00000000000E+00 -0.00000000000E+00 -0.16417358988E+04  0.16417363901E+04  0.12700000000E+01 0. -1.
         25    2    1    2    0    0  0.00000000000E+00  0.00000000000E+00 -0.16395264567E+04  0.16442848278E+04  0.12500237072E+03 0.  0.
    9000005    1    3    3    0    0 -0.26273269017E+02 -0.43306105882E+02 -0.33830155667E+03  0.34207403690E+03  0.10000000000E+01 0.  0.
    9000005    1    3    3    0    0  0.26273269017E+02  0.43306105882E+02 -0.13012249000E+04  0.13022107909E+04  0.10000000000E+01 0.  0.
<mgrwt>
<rscale>  0 0.12500237E+03</rscale>
<asrwt>0</asrwt>
<pdfrwt beam="1">  1        4 0.59480202E-03 0.12500237E+03</pdfrwt>
<pdfrwt beam="2">  1       -4 0.41047252E+00 0.12500237E+03</pdfrwt>
<totfact> 0.83591375E+01</totfact>
</mgrwt>
</event>
<event>
 5    1  0.1431256E-002  0.1249985E+03  0.7818608E-02  0.1235072E+00
         -4   -1    0    0    0  501 -0.00000000000E+00  0.00000000000E+00  0.79479558188E+01  0.80487826221E+01  0.12700000000E+01 0. -1.
          4   -1    0    0  501    0  0.00000000000E+00 -0.00000000000E+00 -0.48826741355E+03  0.48826906521E+03  0.12700000000E+01 0. -1.
         25    2    1    2    0    0  0.00000000000E+00  0.00000000000E+00 -0.48031945774E+03  0.49631784783E+03  0.12499849837E+03 0.  0.
    9000005    1    3    3    0    0  0.11811279926E+02  0.53039305416E+02 -0.11761815270E+03  0.12956737281E+03  0.10000000000E+01 0.  0.
    9000005    1    3    3    0    0 -0.11811279926E+02 -0.53039305416E+02 -0.36270130503E+03  0.36675047502E+03  0.10000000000E+01 0.  0.
<mgrwt>
<rscale>  0 0.12499850E+03</rscale>
<asrwt>0</asrwt>
<pdfrwt beam="2">  1        4 0.12207956E+00 0.12499850E+03</pdfrwt>
<pdfrwt beam="1">  1       -4 0.19998004E-02 0.12499850E+03</pdfrwt>
<totfact> 0.88198599E+02</totfact>
</mgrwt>
</event>
<event>
 5    1  0.1431256E-002  0.1249971E+03  0.7818608E-02  0.1235074E+00
         -4   -1    0    0    0  501 -0.00000000000E+00  0.00000000000E+00  0.16552753256E+02  0.16601401758E+02  0.12700000000E+01 0.  1.
          4   -1    0    0  501    0  0.00000000000E+00 -0.00000000000E+00 -0.23558043140E+03  0.23558385462E+03  0.12700000000E+01 0.  1.
         25    2    1    2    0    0  0.00000000000E+00  0.00000000000E+00 -0.21902767814E+03  0.25218525638E+03  0.12499711894E+03 0.  0.
    9000005    1    3    3    0    0  0.54505320974E+02  0.30151215596E+02 -0.99397161634E+02  0.11730610196E+03  0.10000000000E+01 0.  0.
    9000005    1    3    3    0    0 -0.54505320974E+02 -0.30151215596E+02 -0.11963051651E+03  0.13487915442E+03  0.10000000000E+01 0.  0.
<mgrwt>
<rscale>  0 0.12499712E+03</rscale>
<asrwt>0</asrwt>
<pdfrwt beam="2">  1        4 0.58901606E-01 0.12499712E+03</pdfrwt>
<pdfrwt beam="1">  1       -4 0.41446980E-02 0.12499712E+03</pdfrwt>
<totfact> 0.14426531E+03</totfact>
</mgrwt>
</event>
<event>
 5    1  0.1431256E-002  0.1250240E+03  0.7818608E-02  0.1235032E+00
         -4   -1    0    0    0  501 -0.00000000000E+00  0.00000000000E+00  0.87889280956E+03  0.87889372713E+03  0.12700000000E+01 0. -1.
          4   -1    0    0  501    0  0.00000000000E+00 -0.00000000000E+00 -0.43545931657E+01  0.45360094399E+01  0.12700000000E+01 0. -1.
         25    2    1    2    0    0  0.00000000000E+00  0.00000000000E+00  0.87453821639E+03  0.88342973657E+03  0.12502402781E+03 0.  0.
    9000005    1    3    3    0    0 -0.32401957419E+02  0.51200079463E+02  0.32885211799E+03  0.33438907053E+03  0.10000000000E+01 0.  0.
    9000005    1    3    3    0    0  0.32401957419E+02 -0.51200079463E+02  0.54568609840E+03  0.54904066604E+03  0.10000000000E+01 0.  0.
<mgrwt>
<rscale>  0 0.12502403E+03</rscale>
<asrwt>0</asrwt>
<pdfrwt beam="2">  1        4 0.11114403E-02 0.12502403E+03</pdfrwt>
<pdfrwt beam="1">  1       -4 0.21974595E+00 0.12502403E+03</pdfrwt>
<totfact> 0.45529554E+02</totfact>
</mgrwt>
</event>
<event>
 5    1  0.1431256E-002  0.1249986E+03  0.7818608E-02  0.1235072E+00
          4   -1    0    0  501    0  0.00000000000E+00  0.00000000000E+00  0.96241478146E+02  0.96249857225E+02  0.12700000000E+01 0. -1.
         -4   -1    0    0    0  501 -0.00000000000E+00 -0.00000000000E+00 -0.40566989720E+02  0.40586864315E+02  0.12700000000E+01 0. -1.
         25    2    1    2    0    0  0.00000000000E+00  0.00000000000E+00  0.55674488427E+02  0.13683672154E+03  0.12499855879E+03 0.  0.
    9000005    1    3    3    0    0  0.56211088677E+02 -0.58956109165E+00  0.57719437500E+02  0.80576470125E+02  0.10000000000E+01 0.  0.
    9000005    1    3    3    0    0 -0.56211088677E+02  0.58956109165E+00 -0.20449490731E+01  0.56260251414E+02  0.10000000000E+01 0.  0.
<mgrwt>
<rscale>  0 0.12499856E+03</rscale>
<asrwt>0</asrwt>
<pdfrwt beam="1">  1        4 0.24063901E-01 0.12499856E+03</pdfrwt>
<pdfrwt beam="2">  1       -4 0.10145279E-01 0.12499856E+03</pdfrwt>
<totfact> 0.19204005E+03</totfact>
</mgrwt>
</event>
<event>
 4    1  0.1431256E-002  0.1249381E+03  0.7818608E-02  0.1235166E+00
         -4   -1    0    0    0  501 -0.00000000000E+00  0.00000000000E+00  0.15613649919E+03  0.15614166414E+03  0.12700000000E+01 0. -1.
          4   -1    0    0  501    0  0.00000000000E+00 -0.00000000000E+00 -0.24971688609E+02  0.25003962325E+02  0.12700000000E+01 0. -1.
    9000005    1    1    2    0    0 -0.27676141249E+02  0.19660072368E+02  0.14159963498E+03  0.14561574045E+03  0.10000000000E+01 0.  0.
    9000005    1    1    2    0    0  0.27676141249E+02 -0.19660072368E+02 -0.10434824398E+02  0.35529886014E+02  0.10000000000E+01 0.  0.
<mgrwt>
<rscale>  0 0.12493811E+03</rscale>
<asrwt>0</asrwt>
<pdfrwt beam="2">  1        4 0.62476021E-02 0.12493811E+03</pdfrwt>
<pdfrwt beam="1">  1       -4 0.39038804E-01 0.12493811E+03</pdfrwt>
<totfact> 0.17130307E+03</totfact>
</mgrwt>
</event>
<event>
 5    1  0.1431256E-002  0.1250099E+03  0.7818608E-02  0.1235054E+00
         -4   -1    0    0    0  501 -0.00000000000E+00  0.00000000000E+00  0.57760826127E+02  0.57774786325E+02  0.12700000000E+01 0.  1.
          4   -1    0    0  501    0  0.00000000000E+00 -0.00000000000E+00 -0.67610647930E+02  0.67622574733E+02  0.12700000000E+01 0.  1.
         25    2    1    2    0    0  0.00000000000E+00  0.00000000000E+00 -0.98498218029E+01  0.12539736106E+03  0.12500991629E+03 0.  0.
    9000005    1    3    3    0    0  0.12710340495E+02 -0.50596345372E+02  0.29595799492E+02  0.59987117518E+02  0.10000000000E+01 0.  0.
    9000005    1    3    3    0    0 -0.12710340495E+02  0.50596345372E+02 -0.39445621295E+02  0.65410243540E+02  0.10000000000E+01 0.  0.
<mgrwt>
<rscale>  0 0.12500992E+03</rscale>
<asrwt>0</asrwt>
<pdfrwt beam="2">  1        4 0.16905898E-01 0.12500992E+03</pdfrwt>
<pdfrwt beam="1">  1       -4 0.14443442E-01 0.12500992E+03</pdfrwt>
<totfact> 0.19808925E+03</totfact>
</mgrwt>
</event>
<event>
 5    1  0.1431256E-002  0.1250007E+03  0.7818608E-02  0.1235068E+00
          4   -1    0    0  501    0  0.00000000000E+00  0.00000000000E+00  0.81377428042E+02  0.81387337434E+02  0.12700000000E+01 0.  1.
         -4   -1    0    0    0  501 -0.00000000000E+00 -0.00000000000E+00 -0.47980969809E+02  0.47997774571E+02  0.12700000000E+01 0.  1.
         25    2    1    2    0    0  0.00000000000E+00  0.00000000000E+00  0.33396458233E+02  0.12938511201E+03  0.12500073514E+03 0.  0.
    9000005    1    3    3    0    0  0.25241841639E+02 -0.57156289666E+02  0.15516280231E+02  0.64387475256E+02  0.10000000000E+01 0.  0.
    9000005    1    3    3    0    0 -0.25241841639E+02  0.57156289666E+02  0.17880178001E+02  0.64997636750E+02  0.10000000000E+01 0.  0.
<mgrwt>
<rscale>  0 0.12500074E+03</rscale>
<asrwt>0</asrwt>
<pdfrwt beam="1">  1        4 0.20347696E-01 0.12500074E+03</pdfrwt>
<pdfrwt beam="2">  1       -4 0.11998582E-01 0.12500074E+03</pdfrwt>
<totfact> 0.19597160E+03</totfact>
</mgrwt>
</event>
<event>
 5    1  0.1431256E-002  0.1249847E+03  0.7818608E-02  0.1235093E+00
         -4   -1    0    0    0  501 -0.00000000000E+00  0.00000000000E+00  0.10676652814E+04  0.10676660368E+04  0.12700000000E+01 0. -1.
          4   -1    0    0  501    0  0.00000000000E+00 -0.00000000000E+00 -0.35467728719E+01  0.37672931668E+01  0.12700000000E+01 0. -1.
         25    2    1    2    0    0  0.00000000000E+00  0.00000000000E+00  0.10641185085E+04  0.10714333299E+04  0.12498472003E+03 0.  0.
    9000005    1    3    3    0    0  0.28919004069E+02 -0.32901497451E+02  0.15007915213E+03  0.15634439304E+03  0.10000000000E+01 0.  0.
    9000005    1    3    3    0    0 -0.28919004069E+02  0.32901497451E+02  0.91403935642E+03  0.91508893688E+03  0.10000000000E+01 0.  0.
<mgrwt>
<rscale>  0 0.12498472E+03</rscale>
<asrwt>0</asrwt>
<pdfrwt beam="2">  1        4 0.91435238E-03 0.12498472E+03</pdfrwt>
<pdfrwt beam="1">  1       -4 0.26694406E+00 0.12498472E+03</pdfrwt>
<totfact> 0.32522694E+02</totfact>
</mgrwt>
</event>
<event>
 5    1  0.1431256E-002  0.1249936E+03  0.7818608E-02  0.1235079E+00
         -4   -1    0    0    0  501 -0.00000000000E+00  0.00000000000E+00  0.34934129159E+02  0.34957206411E+02  0.12700000000E+01 0.  1.
          4   -1    0    0  501    0  0.00000000000E+00 -0.00000000000E+00 -0.11174253573E+03  0.11174975253E+03  0.12700000000E+01 0.  1.
         25    2    1    2    0    0  0.00000000000E+00  0.00000000000E+00 -0.76808406572E+02  0.14670695895E+03  0.12499360177E+03 0.  0.
    9000005    1    3    3    0    0  0.11950961607E+02 -0.34587767716E+02  0.21047841591E+02  0.42227370206E+02  0.10000000000E+01 0.  0.
    9000005    1    3    3    0    0 -0.11950961607E+02  0.34587767716E+02 -0.97856248163E+02  0.10447958874E+03  0.10000000000E+01 0.  0.
<mgrwt>
<rscale>  0 0.12499360E+03</rscale>
<asrwt>0</asrwt>
<pdfrwt beam="2">  1        4 0.27939420E-01 0.12499360E+03</pdfrwt>
<pdfrwt beam="1">  1       -4 0.87373193E-02 0.12499360E+03</pdfrwt>
<totfact> 0.18704680E+03</totfact>
</mgrwt>
</event>
<event>
 5    1  0.1431256E-002  0.1249880E+03  0.7818608E-02  0.1235088E+00
         -4   -1    0    0    0  501 -0.00000000000E+00  0.00000000000E+00  0.11940618050E+02  0.12007966498E+02  0.12700000000E+01 0. -1.
          4   -1    0    0  501    0  0.00000000000E+00 -0.00000000000E+00 -0.32608857143E+03  0.32609104452E+03  0.12700000000E+01 0. -1.
         25    2    1    2    0    0  0.00000000000E+00  0.00000000000E+00 -0.31414795338E+03  0.33809901102E+03  0.12498801799E+03 0.  0.
    9000005    1    3    3    0    0 -0.19847540884E+02 -0.34801278500E+02 -0.27359858068E+02  0.48524382509E+02  0.10000000000E+01 0.  0.
    9000005    1    3    3    0    0  0.19847540884E+02  0.34801278500E+02 -0.28678809532E+03  0.28957462851E+03  0.10000000000E+01 0.  0.
<mgrwt>
<rscale>  0 0.12498802E+03</rscale>
<asrwt>0</asrwt>
<pdfrwt beam="2">  1        4 0.81530841E-01 0.12498802E+03</pdfrwt>
<pdfrwt beam="1">  1       -4 0.29938833E-02 0.12498802E+03</pdfrwt>
<totfact> 0.11969945E+03</totfact>
</mgrwt>
</event>
<event>
 5    1  0.1431256E-002  0.1250017E+03  0.7818608E-02  0.1235067E+00
          4   -1    0    0  501    0  0.00000000000E+00  0.00000000000E+00  0.48112224627E+02  0.48128983561E+02  0.12700000000E+01 0. -1.
         -4   -1    0    0    0  501 -0.00000000000E+00 -0.00000000000E+00 -0.81156703371E+02  0.81166639711E+02  0.12700000000E+01 0. -1.
         25    2    1    2    0    0  0.00000000000E+00  0.00000000000E+00 -0.33044478743E+02  0.12929562327E+03  0.12500168248E+03 0.  0.
    9000005    1    3    3    0    0  0.25654130096E+01  0.46425527796E+02 -0.59711124077E+02  0.75685727278E+02  0.10000000000E+01 0.  0.
    9000005    1    3    3    0    0 -0.25654130096E+01 -0.46425527796E+02  0.26666645334E+02  0.53609895993E+02  0.10000000000E+01 0.  0.
<mgrwt>
<rscale>  0 0.12500168E+03</rscale>
<asrwt>0</asrwt>
<pdfrwt beam="1">  1        4 0.12031393E-01 0.12500168E+03</pdfrwt>
<pdfrwt beam="2">  1       -4 0.20292513E-01 0.12500168E+03</pdfrwt>
<totfact> 0.19601555E+03</totfact>
</mgrwt>
</event>
<event>
 5    1  0.1431256E-002  0.1249971E+03  0.7818608E-02  0.1235074E+00
          4   -1    0    0  501    0  0.00000000000E+00  0.00000000000E+00  0.81299058920E+01  0.82285034978E+01  0.12700000000E+01 0. -1.
         -4   -1    0    0    0  501 -0.00000000000E+00 -0.00000000000E+00 -0.47746136453E+03  0.47746305356E+03  0.12700000000E+01 0. -1.
         25    2    1    2    0    0  0.00000000000E+00  0.00000000000E+00 -0.46933145864E+03  0.48569155706E+03  0.12499708210E+03 0.  0.
    9000005    1    3    3    0    0 -0.80052085048E+01  0.40385437163E+02 -0.41733137994E+03  0.41935849530E+03  0.10000000000E+01 0.  0.
    9000005    1    3    3    0    0  0.80052085048E+01 -0.40385437163E+02 -0.52000078699E+02  0.66333061762E+02  0.10000000000E+01 0.  0.
<mgrwt>
<rscale>  0 0.12499708E+03</rscale>
<asrwt>0</asrwt>
<pdfrwt beam="1">  1        4 0.20450139E-02 0.12499708E+03</pdfrwt>
<pdfrwt beam="2">  1       -4 0.11937778E+00 0.12499708E+03</pdfrwt>
<totfact> 0.89932865E+02</totfact>
</mgrwt>
</event>
<event>
 5    1  0.1431256E-002  0.1249953E+03  0.7818608E-02  0.1235077E+00
          4   -1    0    0  501    0  0.00000000000E+00  0.00000000000E+00  0.81395833731E+02  0.81405740883E+02  0.12700000000E+01 0. -1.
         -4   -1    0    0    0  501 -0.00000000000E+00 -0.00000000000E+00 -0.47965908461E+02  0.47982718498E+02  0.12700000000E+01 0. -1.
         25    2    1    2    0    0  0.00000000000E+00  0.00000000000E+00  0.33429925270E+02  0.12938845938E+03  0.12499525398E+03 0.  0.
    9000005    1    3    3    0    0  0.52328571823E+01  0.61020387668E+02  0.38656704861E+01  0.61374375058E+02  0.10000000000E+01 0.  0.
    9000005    1    3    3    0    0 -0.52328571823E+01 -0.61020387668E+02  0.29564254784E+02  0.68014084323E+02  0.10000000000E+01 0.  0.
<mgrwt>
<rscale>  0 0.12499525E+03</rscale>
<asrwt>0</asrwt>
<pdfrwt beam="1">  1        4 0.20352298E-01 0.12499525E+03</pdfrwt>
<pdfrwt beam="2">  1       -4 0.11994817E-01 0.12499525E+03</pdfrwt>
<totfact> 0.19599486E+03</totfact>
</mgrwt>
</event>
<event>
 5    1  0.1431256E-002  0.1249997E+03  0.7818608E-02  0.1235070E+00
         -4   -1    0    0    0  501 -0.00000000000E+00  0.00000000000E+00  0.62502332675E+03  0.62502461702E+03  0.12700000000E+01 0. -1.
          4   -1    0    0  501    0  0.00000000000E+00 -0.00000000000E+00 -0.61839102231E+01  0.63129743899E+01  0.12700000000E+01 0. -1.
         25    2    1    2    0    0  0.00000000000E+00  0.00000000000E+00  0.61883941653E+03  0.63133759141E+03  0.12499972352E+03 0.  0.
    9000005    1    3    3    0    0  0.56922430199E+01  0.60193981351E+02  0.22963833010E+03  0.23746679699E+03  0.10000000000E+01 0.  0.
    9000005    1    3    3    0    0 -0.56922430199E+01 -0.60193981351E+02  0.38920108643E+03  0.39387079442E+03  0.10000000000E+01 0.  0.
<mgrwt>
<rscale>  0 0.12499972E+03</rscale>
<asrwt>0</asrwt>
<pdfrwt beam="2">  1        4 0.15622719E-02 0.12499972E+03</pdfrwt>
<pdfrwt beam="1">  1       -4 0.15627212E+00 0.12499972E+03</pdfrwt>
<totfact> 0.69687957E+02</totfact>
</mgrwt>
</event>
<event>
 5    1  0.1431256E-002  0.1250086E+03  0.7818608E-02  0.1235056E+00
          4   -1    0    0  501    0  0.00000000000E+00  0.00000000000E+00  0.14585635782E+02  0.14640822079E+02  0.12700000000E+01 0.  1.
         -4   -1    0    0    0  501 -0.00000000000E+00 -0.00000000000E+00 -0.26728903499E+03  0.26729205212E+03  0.12700000000E+01 0.  1.
         25    2    1    2    0    0  0.00000000000E+00  0.00000000000E+00 -0.25270339921E+03  0.28193287420E+03  0.12500855004E+03 0.  0.
    9000005    1    3    3    0    0  0.44024443755E+02  0.31811354325E+02 -0.19607213449E+03  0.20345858506E+03  0.10000000000E+01 0.  0.
    9000005    1    3    3    0    0 -0.44024443755E+02 -0.31811354325E+02 -0.56631264720E+02  0.78474289138E+02  0.10000000000E+01 0.  0.
<mgrwt>
<rscale>  0 0.12500855E+03</rscale>
<asrwt>0</asrwt>
<pdfrwt beam="1">  1        4 0.36536852E-02 0.12500855E+03</pdfrwt>
<pdfrwt beam="2">  1       -4 0.66829518E-01 0.12500855E+03</pdfrwt>
<totfact> 0.13490323E+03</totfact>
</mgrwt>
</event>
<event>
 5    1  0.1431256E-002  0.1249895E+03  0.7818608E-02  0.1235086E+00
         -4   -1    0    0    0  501 -0.00000000000E+00  0.00000000000E+00  0.55304572572E+01  0.56744037109E+01  0.12700000000E+01 0.  1.
          4   -1    0    0  501    0  0.00000000000E+00 -0.00000000000E+00 -0.69698029411E+03  0.69698145117E+03  0.12700000000E+01 0.  1.
         25    2    1    2    0    0  0.00000000000E+00  0.00000000000E+00 -0.69144983685E+03  0.70265585488E+03  0.12498949363E+03 0.  0.
    9000005    1    3    3    0    0 -0.27350331066E+02  0.54869298319E+02 -0.27781769658E+03  0.28450369600E+03  0.10000000000E+01 0.  0.
    9000005    1    3    3    0    0  0.27350331066E+02 -0.54869298319E+02 -0.41363214028E+03  0.41815215888E+03  0.10000000000E+01 0.  0.
<mgrwt>
<rscale>  0 0.12498949E+03</rscale>
<asrwt>0</asrwt>
<pdfrwt beam="2">  1        4 0.17426292E+00 0.12498949E+03</pdfrwt>
<pdfrwt beam="1">  1       -4 0.14007546E-02 0.12498949E+03</pdfrwt>
<totfact> 0.61803810E+02</totfact>
</mgrwt>
</event>
<event>
 5    1  0.1431256E-002  0.1250008E+03  0.7818608E-02  0.1235068E+00
         -4   -1    0    0    0  501 -0.00000000000E+00  0.00000000000E+00  0.33474524393E+03  0.33474765307E+03  0.12700000000E+01 0.  1.
          4   -1    0    0  501    0  0.00000000000E+00 -0.00000000000E+00 -0.11632456765E+02  0.11701578970E+02  0.12700000000E+01 0.  1.
         25    2    1    2    0    0  0.00000000000E+00  0.00000000000E+00  0.32311278716E+03  0.34644923203E+03  0.12500078859E+03 0.  0.
    9000005    1    3    3    0    0  0.88686247812E+01  0.58037670407E+02  0.10222422592E+03  0.11788899888E+03  0.10000000000E+01 0.  0.
    9000005    1    3    3    0    0 -0.88686247812E+01 -0.58037670407E+02  0.22088856125E+03  0.22856023316E+03  0.10000000000E+01 0.  0.
<mgrwt>
<rscale>  0 0.12500079E+03</rscale>
<asrwt>0</asrwt>
<pdfrwt beam="2">  1        4 0.29170558E-02 0.12500079E+03</pdfrwt>
<pdfrwt beam="1">  1       -4 0.83695248E-01 0.12500079E+03</pdfrwt>
<totfact> 0.11762259E+03</totfact>
</mgrwt>
</event>
<event>
 5    1  0.1431256E-002  0.1250026E+03  0.7818608E-02  0.1235065E+00
         -4   -1    0    0    0  501 -0.00000000000E+00  0.00000000000E+00  0.15782716652E+02  0.15833731238E+02  0.12700000000E+01 0. -1.
          4   -1    0    0  501    0  0.00000000000E+00 -0.00000000000E+00 -0.24705999073E+03  0.24706325490E+03  0.12700000000E+01 0. -1.
         25    2    1    2    0    0  0.00000000000E+00  0.00000000000E+00 -0.23127727408E+03  0.26289698614E+03  0.12500259123E+03 0.  0.
    9000005    1    3    3    0    0  0.44720024605E+02 -0.29287648221E+02 -0.47561930332E+02  0.71559654526E+02  0.10000000000E+01 0.  0.
    9000005    1    3    3    0    0 -0.44720024605E+02  0.29287648221E+02 -0.18371534375E+03  0.19133733161E+03  0.10000000000E+01 0.  0.
<mgrwt>
<rscale>  0 0.12500259E+03</rscale>
<asrwt>0</asrwt>
<pdfrwt beam="2">  1        4 0.61771770E-01 0.12500259E+03</pdfrwt>
<pdfrwt beam="1">  1       -4 0.39524648E-02 0.12500259E+03</pdfrwt>
<totfact> 0.14077759E+03</totfact>
</mgrwt>
</event>
<event>
 5    1  0.1431256E-002  0.1249989E+03  0.7818608E-02  0.1235071E+00
         -4   -1    0    0    0  501 -0.00000000000E+00  0.00000000000E+00  0.45188376513E+03  0.45188554977E+03  0.12700000000E+01 0.  1.
          4   -1    0    0  501    0  0.00000000000E+00 -0.00000000000E+00 -0.85957598369E+01  0.86890728604E+01  0.12700000000E+01 0.  1.
         25    2    1    2    0    0  0.00000000000E+00  0.00000000000E+00  0.44328800529E+03  0.46057462263E+03  0.12499890948E+03 0.  0.
    9000005    1    3    3    0    0 -0.75331161884E+01 -0.58773820019E+02  0.29478849262E+03  0.30068648978E+03  0.10000000000E+01 0.  0.
    9000005    1    3    3    0    0  0.75331161884E+01  0.58773820019E+02  0.14849951268E+03  0.15988813284E+03  0.10000000000E+01 0.  0.
<mgrwt>
<rscale>  0 0.12499891E+03</rscale>
<asrwt>0</asrwt>
<pdfrwt beam="2">  1        4 0.21608274E-02 0.12499891E+03</pdfrwt>
<pdfrwt beam="1">  1       -4 0.11298282E+00 0.12499891E+03</pdfrwt>
<totfact> 0.94151333E+02</totfact>
</mgrwt>
</event>
<event>
 5    1  0.1431256E-002  0.1249985E+03  0.7818608E-02  0.1235072E+00
          4   -1    0    0  501    0  0.00000000000E+00  0.00000000000E+00  0.50148902514E+02  0.50164981046E+02  0.12700000000E+01 0. -1.
         -4   -1    0    0    0  501 -0.00000000000E+00 -0.00000000000E+00 -0.77857373977E+02  0.77867731330E+02  0.12700000000E+01 0. -1.
         25    2    1    2    0    0  0.00000000000E+00  0.00000000000E+00 -0.27708471463E+02  0.12803271238E+03  0.12499846418E+03 0.  0.
    9000005    1    3    3    0    0 -0.95417289086E+01  0.56279681790E+02  0.12193501132E+02  0.58379179875E+02  0.10000000000E+01 0.  0.
    9000005    1    3    3    0    0  0.95417289086E+01 -0.56279681790E+02 -0.39901972595E+02  0.69653532501E+02  0.10000000000E+01 0.  0.
<mgrwt>
<rscale>  0 0.12499846E+03</rscale>
<asrwt>0</asrwt>
<pdfrwt beam="1">  1        4 0.12540530E-01 0.12499846E+03</pdfrwt>
<pdfrwt beam="2">  1       -4 0.19467648E-01 0.12499846E+03</pdfrwt>
<totfact> 0.19671459E+03</totfact>
</mgrwt>
</event>
<event>
 5    1  0.1431256E-002  0.1249971E+03  0.7818608E-02  0.1235074E+00
          4   -1    0    0  501    0  0.00000000000E+00  0.00000000000E+00  0.44684940688E+01  0.46454643732E+01  0.12700000000E+01 0.  1.
         -4   -1    0    0    0  501 -0.00000000000E+00 -0.00000000000E+00 -0.85698501727E+03  0.85698595830E+03  0.12700000000E+01 0.  1.
         25    2    1    2    0    0  0.00000000000E+00  0.00000000000E+00 -0.85251652320E+03  0.86163142267E+03  0.12499714480E+03 0.  0.
    9000005    1    3    3    0    0  0.38436124413E+02  0.47653259027E+02 -0.51260317888E+03  0.51624721573E+03  0.10000000000E+01 0.  0.
    9000005    1    3    3    0    0 -0.38436124413E+02 -0.47653259027E+02 -0.33991334432E+03  0.34538420694E+03  0.10000000000E+01 0.  0.
<mgrwt>
<rscale>  0 0.12499714E+03</rscale>
<asrwt>0</asrwt>
<pdfrwt beam="1">  1        4 0.11393654E-02 0.12499714E+03</pdfrwt>
<pdfrwt beam="2">  1       -4 0.21426794E+00 0.12499714E+03</pdfrwt>
<totfact> 0.47287901E+02</totfact>
</mgrwt>
</event>
<event>
 5    1  0.1431256E-002  0.1250003E+03  0.7818608E-02  0.1235069E+00
         -4   -1    0    0    0  501 -0.00000000000E+00  0.00000000000E+00  0.18059407135E+02  0.18104007459E+02  0.12700000000E+01 0.  1.
          4   -1    0    0  501    0  0.00000000000E+00 -0.00000000000E+00 -0.21598778059E+03  0.21599151434E+03  0.12700000000E+01 0.  1.
         25    2    1    2    0    0  0.00000000000E+00  0.00000000000E+00 -0.19792837346E+03  0.23409552180E+03  0.12500028922E+03 0.  0.
    9000005    1    3    3    0    0 -0.59758614721E+02 -0.24462754821E+01 -0.13289122409E+03  0.14573315936E+03  0.10000000000E+01 0.  0.
    9000005    1    3    3    0    0  0.59758614721E+02  0.24462754821E+01 -0.65037149370E+02  0.88362362436E+02  0.10000000000E+01 0.  0.
<mgrwt>
<rscale>  0 0.12500029E+03</rscale>
<asrwt>0</asrwt>
<pdfrwt beam="2">  1        4 0.54002979E-01 0.12500029E+03</pdfrwt>
<pdfrwt beam="1">  1       -4 0.45208942E-02 0.12500029E+03</pdfrwt>
<totfact> 0.15041966E+03</totfact>
</mgrwt>
</event>
<event>
 5    1  0.1431256E-002  0.1249965E+03  0.7818608E-02  0.1235075E+00
         -4   -1    0    0    0  501 -0.00000000000E+00  0.00000000000E+00  0.21457453779E+03  0.21457829613E+03  0.12700000000E+01 0. -1.
          4   -1    0    0  501    0  0.00000000000E+00 -0.00000000000E+00 -0.18177524317E+02  0.18221835536E+02  0.12700000000E+01 0. -1.
         25    2    1    2    0    0  0.00000000000E+00  0.00000000000E+00  0.19639701347E+03  0.23280013166E+03  0.12499645755E+03 0.  0.
    9000005    1    3    3    0    0  0.41517938932E+01 -0.43479699075E+02  0.18143387894E+03  0.18661986511E+03  0.10000000000E+01 0.  0.
    9000005    1    3    3    0    0 -0.41517938932E+01  0.43479699075E+02  0.14963134532E+02  0.46180266556E+02  0.10000000000E+01 0.  0.
<mgrwt>
<rscale>  0 0.12499646E+03</rscale>
<asrwt>0</asrwt>
<pdfrwt beam="2">  1        4 0.45503898E-02 0.12499646E+03</pdfrwt>
<pdfrwt beam="1">  1       -4 0.53649643E-01 0.12499646E+03</pdfrwt>
<totfact> 0.15089002E+03</totfact>
</mgrwt>
</event>
<event>
 5    1  0.1431256E-002  0.1249997E+03  0.7818608E-02  0.1235070E+00
         -4   -1    0    0    0  501 -0.00000000000E+00  0.00000000000E+00  0.34004727106E+03  0.34004964264E+03  0.12700000000E+01 0. -1.
          4   -1    0    0  501    0  0.00000000000E+00 -0.00000000000E+00 -0.11449789302E+02  0.11520007598E+02  0.12700000000E+01 0. -1.
         25    2    1    2    0    0  0.00000000000E+00  0.00000000000E+00  0.32859748176E+03  0.35156965023E+03  0.12499965579E+03 0.  0.
    9000005    1    3    3    0    0  0.23358238855E+02 -0.55681340564E+02  0.20958099088E+03  0.21810825465E+03  0.10000000000E+01 0.  0.
    9000005    1    3    3    0    0 -0.23358238855E+02  0.55681340564E+02  0.11901649088E+03  0.13346139559E+03  0.10000000000E+01 0.  0.
<mgrwt>
<rscale>  0 0.12499966E+03</rscale>
<asrwt>0</asrwt>
<pdfrwt beam="2">  1        4 0.28715212E-02 0.12499966E+03</pdfrwt>
<pdfrwt beam="1">  1       -4 0.85020888E-01 0.12499966E+03</pdfrwt>
<totfact> 0.11640063E+03</totfact>
</mgrwt>
</event>
<event>
 5    1  0.1431256E-002  0.1249985E+03  0.7818608E-02  0.1235072E+00
          4   -1    0    0  501    0  0.00000000000E+00  0.00000000000E+00  0.30264341434E+03  0.30264607901E+03  0.12700000000E+01 0.  1.
         -4   -1    0    0    0  501 -0.00000000000E+00 -0.00000000000E+00 -0.12872824127E+02  0.12935319903E+02  0.12700000000E+01 0.  1.
         25    2    1    2    0    0  0.00000000000E+00  0.00000000000E+00  0.28977059021E+03  0.31558139891E+03  0.12499849755E+03 0.  0.
    9000005    1    3    3    0    0 -0.79577414733E+01 -0.53783832209E+02  0.67105030174E+02  0.86371936016E+02  0.10000000000E+01 0.  0.
    9000005    1    3    3    0    0  0.79577414733E+01  0.53783832209E+02  0.22266556004E+03  0.22920946290E+03  0.10000000000E+01 0.  0.
<mgrwt>
<rscale>  0 0.12499850E+03</rscale>
<asrwt>0</asrwt>
<pdfrwt beam="1">  1        4 0.75668994E-01 0.12499850E+03</pdfrwt>
<pdfrwt beam="2">  1       -4 0.32263513E-02 0.12499850E+03</pdfrwt>
<totfact> 0.12545759E+03</totfact>
</mgrwt>
</event>
<event>
 5    1  0.1431256E-002  0.1250009E+03  0.7818608E-02  0.1235068E+00
         -4   -1    0    0    0  501 -0.00000000000E+00  0.00000000000E+00  0.51923618491E+02  0.51939147636E+02  0.12700000000E+01 0. -1.
          4   -1    0    0  501    0  0.00000000000E+00 -0.00000000000E+00 -0.75199689896E+02  0.75210413245E+02  0.12700000000E+01 0. -1.
         25    2    1    2    0    0  0.00000000000E+00  0.00000000000E+00 -0.23276071405E+02  0.12714956088E+03  0.12500094132E+03 0.  0.
    9000005    1    3    3    0    0  0.41893662542E+02 -0.42683161742E+02 -0.30070709065E+02  0.66949076178E+02  0.10000000000E+01 0.  0.
    9000005    1    3    3    0    0 -0.41893662542E+02  0.42683161742E+02  0.67946376594E+01  0.60200484702E+02  0.10000000000E+01 0.  0.
<mgrwt>
<rscale>  0 0.12500094E+03</rscale>
<asrwt>0</asrwt>
<pdfrwt beam="2">  1        4 0.18803204E-01 0.12500094E+03</pdfrwt>
<pdfrwt beam="1">  1       -4 0.12984186E-01 0.12500094E+03</pdfrwt>
<totfact> 0.19718454E+03</totfact>
</mgrwt>
</event>
<event>
 5    1  0.1431256E-002  0.1250019E+03  0.7818608E-02  0.1235066E+00
          4   -1    0    0  501    0  0.00000000000E+00  0.00000000000E+00  0.93418579806E+01  0.94277892705E+01  0.12700000000E+01 0. -1.
         -4   -1    0    0    0  501 -0.00000000000E+00 -0.00000000000E+00 -0.41615621137E+03  0.41615814922E+03  0.12700000000E+01 0. -1.
         25    2    1    2    0    0  0.00000000000E+00  0.00000000000E+00 -0.40681435339E+03  0.42558593849E+03  0.12500189165E+03 0.  0.
    9000005    1    3    3    0    0  0.30694810493E+02  0.49061169086E+02 -0.12311271298E+03  0.13604010365E+03  0.10000000000E+01 0.  0.
    9000005    1    3    3    0    0 -0.30694810493E+02 -0.49061169086E+02 -0.28370164042E+03  0.28954583485E+03  0.10000000000E+01 0.  0.
<mgrwt>
<rscale>  0 0.12500189E+03</rscale>
<asrwt>0</asrwt>
<pdfrwt beam="1">  1        4 0.23464495E-02 0.12500189E+03</pdfrwt>
<pdfrwt beam="2">  1       -4 0.10404997E+00 0.12500189E+03</pdfrwt>
<totfact> 0.10056616E+03</totfact>
</mgrwt>
</event>
<event>
 5    1  0.1431256E-002  0.1250005E+03  0.7818608E-02  0.1235069E+00
          4   -1    0    0  501    0  0.00000000000E+00  0.00000000000E+00  0.43928283420E+02  0.43946637917E+02  0.12700000000E+01 0.  1.
         -4   -1    0    0    0  501 -0.00000000000E+00 -0.00000000000E+00 -0.88882525994E+02  0.88891598743E+02  0.12700000000E+01 0.  1.
         25    2    1    2    0    0  0.00000000000E+00  0.00000000000E+00 -0.44954242574E+02  0.13283823666E+03  0.12500045277E+03 0.  0.
    9000005    1    3    3    0    0 -0.40656397242E+02 -0.40503955537E+02  0.38076327327E+01  0.57524004710E+02  0.10000000000E+01 0.  0.
    9000005    1    3    3    0    0  0.40656397242E+02  0.40503955537E+02 -0.48761875307E+02  0.75314231951E+02  0.10000000000E+01 0.  0.
<mgrwt>
<rscale>  0 0.12500045E+03</rscale>
<asrwt>0</asrwt>
<pdfrwt beam="1">  1        4 0.10985499E-01 0.12500045E+03</pdfrwt>
<pdfrwt beam="2">  1       -4 0.22224060E-01 0.12500045E+03</pdfrwt>
<totfact> 0.19412771E+03</totfact>
</mgrwt>
</event>
<event>
 5    1  0.1431256E-002  0.1250023E+03  0.7818608E-02  0.1235066E+00
          4   -1    0    0  501    0  0.00000000000E+00  0.00000000000E+00  0.17470277097E+02  0.17516377532E+02  0.12700000000E+01 0. -1.
         -4   -1    0    0    0  501 -0.00000000000E+00 -0.00000000000E+00 -0.22325981333E+03  0.22326342546E+03  0.12700000000E+01 0. -1.
         25    2    1    2    0    0  0.00000000000E+00  0.00000000000E+00 -0.20578953623E+03  0.24077980299E+03  0.12500232120E+03 0.  0.
    9000005    1    3    3    0    0 -0.57531763403E+02  0.24016157856E+02 -0.11122777949E+03  0.12751195461E+03  0.10000000000E+01 0.  0.
    9000005    1    3    3    0    0  0.57531763403E+02 -0.24016157856E+02 -0.94561756742E+02  0.11326784838E+03  0.10000000000E+01 0.  0.
<mgrwt>
<rscale>  0 0.12500232E+03</rscale>
<asrwt>0</asrwt>
<pdfrwt beam="1">  1        4 0.43737841E-02 0.12500232E+03</pdfrwt>
<pdfrwt beam="2">  1       -4 0.55821158E-01 0.12500232E+03</pdfrwt>
<totfact> 0.14808833E+03</totfact>
</mgrwt>
</event>
<event>
 5    1  0.1431256E-002  0.1249947E+03  0.7818608E-02  0.1235078E+00
         -4   -1    0    0    0  501 -0.00000000000E+00  0.00000000000E+00  0.21257454306E+03  0.21257833676E+03  0.12700000000E+01 0. -1.
          4   -1    0    0  501    0  0.00000000000E+00 -0.00000000000E+00 -0.18348451472E+02  0.18392350894E+02  0.12700000000E+01 0. -1.
         25    2    1    2    0    0  0.00000000000E+00  0.00000000000E+00  0.19422609159E+03  0.23097068765E+03  0.12499473549E+03 0.  0.
    9000005    1    3    3    0    0 -0.54648260724E+02  0.17407754115E+02  0.14295515516E+03  0.15403453733E+03  0.10000000000E+01 0.  0.
    9000005    1    3    3    0    0  0.54648260724E+02 -0.17407754115E+02  0.51270936427E+02  0.76936150317E+02  0.10000000000E+01 0.  0.
<mgrwt>
<rscale>  0 0.12499474E+03</rscale>
<asrwt>0</asrwt>
<pdfrwt beam="2">  1        4 0.45930745E-02 0.12499474E+03</pdfrwt>
<pdfrwt beam="1">  1       -4 0.53149597E-01 0.12499474E+03</pdfrwt>
<totfact> 0.15154528E+03</totfact>
</mgrwt>
</event>
<event>
 5    1  0.1431256E-002  0.1249974E+03  0.7818608E-02  0.1235073E+00
          4   -1    0    0  501    0  0.00000000000E+00  0.00000000000E+00  0.37067978875E+02  0.37089728468E+02  0.12700000000E+01 0.  1.
         -4   -1    0    0    0  501 -0.00000000000E+00 -0.00000000000E+00 -0.10531981172E+03  0.10532746860E+03  0.12700000000E+01 0.  1.
         25    2    1    2    0    0  0.00000000000E+00  0.00000000000E+00 -0.68251832849E+02  0.14241719707E+03  0.12499738131E+03 0.  0.
    9000005    1    3    3    0    0  0.50638194269E+02 -0.18871770815E+02  0.16274541638E+01  0.54074199574E+02  0.10000000000E+01 0.  0.
    9000005    1    3    3    0    0 -0.50638194269E+02  0.18871770815E+02 -0.69879287013E+02  0.88342997493E+02  0.10000000000E+01 0.  0.
<mgrwt>
<rscale>  0 0.12499738E+03</rscale>
<asrwt>0</asrwt>
<pdfrwt beam="1">  1        4 0.92706708E-02 0.12499738E+03</pdfrwt>
<pdfrwt beam="2">  1       -4 0.26333628E-01 0.12499738E+03</pdfrwt>
<totfact> 0.18918512E+03</totfact>
</mgrwt>
</event>
<event>
 5    1  0.1431256E-002  0.1250003E+03  0.7818608E-02  0.1235069E+00
          4   -1    0    0  501    0  0.00000000000E+00  0.00000000000E+00  0.11305651055E+02  0.11376759019E+02  0.12700000000E+01 0. -1.
         -4   -1    0    0    0  501 -0.00000000000E+00 -0.00000000000E+00 -0.34435950228E+03  0.34436184416E+03  0.12700000000E+01 0. -1.
         25    2    1    2    0    0  0.00000000000E+00  0.00000000000E+00 -0.33305385122E+03  0.35573860317E+03  0.12500034389E+03 0.  0.
    9000005    1    3    3    0    0 -0.43729924468E+02 -0.42425700829E+02 -0.12698783374E+03  0.14085153993E+03  0.10000000000E+01 0.  0.
    9000005    1    3    3    0    0  0.43729924468E+02  0.42425700829E+02 -0.20606601749E+03  0.21488706324E+03  0.10000000000E+01 0.  0.
<mgrwt>
<rscale>  0 0.12500034E+03</rscale>
<asrwt>0</asrwt>
<pdfrwt beam="1">  1        4 0.28355951E-02 0.12500034E+03</pdfrwt>
<pdfrwt beam="2">  1       -4 0.86099022E-01 0.12500034E+03</pdfrwt>
<totfact> 0.11541549E+03</totfact>
</mgrwt>
</event>
<event>
 5    1  0.1431256E-002  0.1249926E+03  0.7818608E-02  0.1235081E+00
          4   -1    0    0  501    0  0.00000000000E+00  0.00000000000E+00  0.15883171149E+03  0.15883678880E+03  0.12700000000E+01 0. -1.
         -4   -1    0    0    0  501 -0.00000000000E+00 -0.00000000000E+00 -0.24568873325E+02  0.24601675481E+02  0.12700000000E+01 0. -1.
         25    2    1    2    0    0  0.00000000000E+00  0.00000000000E+00  0.13426283817E+03  0.18343846428E+03  0.12499264164E+03 0.  0.
    9000005    1    3    3    0    0  0.16701778038E+02  0.60115430925E+02  0.72210162273E+02  0.95436481287E+02  0.10000000000E+01 0.  0.
    9000005    1    3    3    0    0 -0.16701778038E+02 -0.60115430925E+02  0.62052675892E+02  0.88001982991E+02  0.10000000000E+01 0.  0.
<mgrwt>
<rscale>  0 0.12499264E+03</rscale>
<asrwt>0</asrwt>
<pdfrwt beam="1">  1        4 0.39712662E-01 0.12499264E+03</pdfrwt>
<pdfrwt beam="2">  1       -4 0.61469534E-02 0.12499264E+03</pdfrwt>
<totfact> 0.17010286E+03</totfact>
</mgrwt>
</event>
<event>
 5    1  0.1431256E-002  0.1249977E+03  0.7818608E-02  0.1235073E+00
         -4   -1    0    0    0  501 -0.00000000000E+00  0.00000000000E+00  0.10125884049E+03  0.10126680442E+03  0.12700000000E+01 0. -1.
          4   -1    0    0  501    0  0.00000000000E+00 -0.00000000000E+00 -0.38555551671E+02  0.38576462573E+02  0.12700000000E+01 0. -1.
         25    2    1    2    0    0  0.00000000000E+00  0.00000000000E+00  0.62703288818E+02  0.13984326699E+03  0.12499774756E+03 0.  0.
    9000005    1    3    3    0    0  0.28683096951E+02  0.58250936526E+01 -0.30418617595E+02  0.42224922299E+02  0.10000000000E+01 0.  0.
    9000005    1    3    3    0    0 -0.28683096951E+02 -0.58250936526E+01  0.93121906412E+02  0.97618344693E+02  0.10000000000E+01 0.  0.
<mgrwt>
<rscale>  0 0.12499775E+03</rscale>
<asrwt>0</asrwt>
<pdfrwt beam="2">  1        4 0.96424973E-02 0.12499775E+03</pdfrwt>
<pdfrwt beam="1">  1       -4 0.25318319E-01 0.12499775E+03</pdfrwt>
<totfact> 0.19049364E+03</totfact>
</mgrwt>
</event>
<event>
 5    1  0.1431256E-002  0.1249998E+03  0.7818608E-02  0.1235070E+00
         -4   -1    0    0    0  501 -0.00000000000E+00  0.00000000000E+00  0.43626616641E+02  0.43645098002E+02  0.12700000000E+01 0.  1.
          4   -1    0    0  501    0  0.00000000000E+00 -0.00000000000E+00 -0.89496042494E+02  0.89505053053E+02  0.12700000000E+01 0.  1.
         25    2    1    2    0    0  0.00000000000E+00  0.00000000000E+00 -0.45869425852E+02  0.13315015105E+03  0.12499983399E+03 0.  0.
    9000005    1    3    3    0    0  0.62457504673E+02 -0.20507337241E+01 -0.22607736182E+02  0.66462434007E+02  0.10000000000E+01 0.  0.
    9000005    1    3    3    0    0 -0.62457504673E+02  0.20507337241E+01 -0.23261689670E+02  0.66687717048E+02  0.10000000000E+01 0.  0.
<mgrwt>
<rscale>  0 0.12499983E+03</rscale>
<asrwt>0</asrwt>
<pdfrwt beam="2">  1        4 0.22377447E-01 0.12499983E+03</pdfrwt>
<pdfrwt beam="1">  1       -4 0.10910091E-01 0.12499983E+03</pdfrwt>
<totfact> 0.19396549E+03</totfact>
</mgrwt>
</event>
<event>
 5    1  0.1431256E-002  0.1250016E+03  0.7818608E-02  0.1235067E+00
         -4   -1    0    0    0  501 -0.00000000000E+00  0.00000000000E+00  0.15414977299E+02  0.15467204826E+02  0.12700000000E+01 0. -1.
          4   -1    0    0  501    0  0.00000000000E+00 -0.00000000000E+00 -0.25293037693E+03  0.25293356534E+03  0.12700000000E+01 0. -1.
         25    2    1    2    0    0  0.00000000000E+00  0.00000000000E+00 -0.23751539963E+03  0.26840077017E+03  0.12500163344E+03 0.  0.
    9000005    1    3    3    0    0 -0.11852864934E+02  0.25410637272E+02  0.11610188198E+01  0.28080934073E+02  0.10000000000E+01 0.  0.
    9000005    1    3    3    0    0  0.11852864934E+02 -0.25410637272E+02 -0.23867641845E+03  0.24031983609E+03  0.10000000000E+01 0.  0.
<mgrwt>
<rscale>  0 0.12500163E+03</rscale>
<asrwt>0</asrwt>
<pdfrwt beam="2">  1        4 0.63239508E-01 0.12500163E+03</pdfrwt>
<pdfrwt beam="1">  1       -4 0.38606721E-02 0.12500163E+03</pdfrwt>
<totfact> 0.13904789E+03</totfact>
</mgrwt>
</event>
<event>
 4    1  0.1431256E-002  0.1249351E+03  0.7818608E-02  0.1235171E+00
          4   -1    0    0  501    0  0.00000000000E+00  0.00000000000E+00  0.75431660244E+02  0.75442350620E+02  0.12700000000E+01 0. -1.
         -4   -1    0    0    0  501 -0.00000000000E+00 -0.00000000000E+00 -0.51709362655E+02  0.51724956125E+02  0.12700000000E+01 0. -1.
    9000005    1    1    2    0    0  0.47210528121E+01 -0.24656367944E+02  0.70075394807E+02  0.74443171461E+02  0.10000000000E+01 0.  0.
    9000005    1    1    2    0    0 -0.47210528121E+01  0.24656367944E+02 -0.46353097218E+02  0.52724135285E+02  0.10000000000E+01 0.  0.
<mgrwt>
<rscale>  0 0.12493509E+03</rscale>
<asrwt>0</asrwt>
<pdfrwt beam="1">  1        4 0.18861200E-01 0.12493509E+03</pdfrwt>
<pdfrwt beam="2">  1       -4 0.12930626E-01 0.12493509E+03</pdfrwt>
<totfact> 0.19747857E+03</totfact>
</mgrwt>
</event>
<event>
 5    1  0.1431256E-002  0.1250014E+03  0.7818608E-02  0.1235067E+00
          4   -1    0    0  501    0  0.00000000000E+00  0.00000000000E+00  0.30231664194E+02  0.30258328109E+02  0.12700000000E+01 0. -1.
         -4   -1    0    0    0  501 -0.00000000000E+00 -0.00000000000E+00 -0.12912680292E+03  0.12913304818E+03  0.12700000000E+01 0. -1.
         25    2    1    2    0    0  0.00000000000E+00  0.00000000000E+00 -0.98895138725E+02  0.15939137629E+03  0.12500144948E+03 0.  0.
    9000005    1    3    3    0    0 -0.47112602580E+02  0.29676256778E+02 -0.85627249254E+02  0.10214354288E+03  0.10000000000E+01 0.  0.
    9000005    1    3    3    0    0  0.47112602580E+02 -0.29676256778E+02 -0.13267889471E+02  0.57247833402E+02  0.10000000000E+01 0.  0.
<mgrwt>
<rscale>  0 0.12500145E+03</rscale>
<asrwt>0</asrwt>
<pdfrwt beam="1">  1        4 0.75620300E-02 0.12500145E+03</pdfrwt>
<pdfrwt beam="2">  1       -4 0.32285813E-01 0.12500145E+03</pdfrwt>
<totfact> 0.18085825E+03</totfact>
</mgrwt>
</event>
<event>
 5    1  0.1431256E-002  0.1250030E+03  0.7818608E-02  0.1235065E+00
         -4   -1    0    0    0  501 -0.00000000000E+00  0.00000000000E+00  0.87430929625E+01  0.88348500016E+01  0.12700000000E+01 0. -1.
          4   -1    0    0  501    0  0.00000000000E+00 -0.00000000000E+00 -0.44437742025E+03  0.44437923503E+03  0.12700000000E+01 0. -1.
         25    2    1    2    0    0  0.00000000000E+00  0.00000000000E+00 -0.43563432728E+03  0.45321408503E+03  0.12500295901E+03 0.  0.
    9000005    1    3    3    0    0 -0.82246023481E+00 -0.62476339781E+02 -0.21342810732E+03  0.22238823365E+03  0.10000000000E+01 0.  0.
    9000005    1    3    3    0    0  0.82246023481E+00  0.62476339781E+02 -0.22220621996E+03  0.23082585138E+03  0.10000000000E+01 0.  0.
<mgrwt>
<rscale>  0 0.12500296E+03</rscale>
<asrwt>0</asrwt>
<pdfrwt beam="2">  1        4 0.11110598E+00 0.12500296E+03</pdfrwt>
<pdfrwt beam="1">  1       -4 0.21974712E-02 0.12500296E+03</pdfrwt>
<totfact> 0.95436393E+02</totfact>
</mgrwt>
</event>
<event>
 5    1  0.1431256E-002  0.1250079E+03  0.7818608E-02  0.1235057E+00
         -4   -1    0    0    0  501 -0.00000000000E+00  0.00000000000E+00  0.41808951338E+02  0.41828235822E+02  0.12700000000E+01 0.  1.
          4   -1    0    0  501    0  0.00000000000E+00 -0.00000000000E+00 -0.93397599563E+02  0.93406233754E+02  0.12700000000E+01 0.  1.
         25    2    1    2    0    0  0.00000000000E+00  0.00000000000E+00 -0.51588648225E+02  0.13523446958E+03  0.12500789229E+03 0.  0.
    9000005    1    3    3    0    0 -0.19942300204E+02  0.54811381844E+02 -0.50075066848E+02  0.76879745297E+02  0.10000000000E+01 0.  0.
    9000005    1    3    3    0    0  0.19942300204E+02 -0.54811381844E+02 -0.15135813768E+01  0.58354724279E+02  0.10000000000E+01 0.  0.
<mgrwt>
<rscale>  0 0.12500789E+03</rscale>
<asrwt>0</asrwt>
<pdfrwt beam="2">  1        4 0.23352889E-01 0.12500789E+03</pdfrwt>
<pdfrwt beam="1">  1       -4 0.10455728E-01 0.12500789E+03</pdfrwt>
<totfact> 0.19283312E+03</totfact>
</mgrwt>
</event>
<event>
 5    1  0.1431256E-002  0.1250007E+03  0.7818608E-02  0.1235068E+00
         -4   -1    0    0    0  501 -0.00000000000E+00  0.00000000000E+00  0.19278630591E+02  0.19320416596E+02  0.12700000000E+01 0.  1.
          4   -1    0    0  501    0  0.00000000000E+00 -0.00000000000E+00 -0.20235979627E+03  0.20236378146E+03  0.12700000000E+01 0.  1.
         25    2    1    2    0    0  0.00000000000E+00  0.00000000000E+00 -0.18308116568E+03  0.22168419805E+03  0.12500068176E+03 0.  0.
    9000005    1    3    3    0    0 -0.47061870413E+02  0.33818709947E+02 -0.13300960826E+03  0.14508990550E+03  0.10000000000E+01 0.  0.
    9000005    1    3    3    0    0  0.47061870413E+02 -0.33818709947E+02 -0.50071557420E+02  0.76594292553E+02  0.10000000000E+01 0.  0.
<mgrwt>
<rscale>  0 0.12500068E+03</rscale>
<asrwt>0</asrwt>
<pdfrwt beam="2">  1        4 0.50595664E-01 0.12500068E+03</pdfrwt>
<pdfrwt beam="1">  1       -4 0.48253797E-02 0.12500068E+03</pdfrwt>
<totfact> 0.15488834E+03</totfact>
</mgrwt>
</event>
<event>
 5    1  0.1431256E-002  0.1250359E+03  0.7818608E-02  0.1235013E+00
          4   -1    0    0  501    0  0.00000000000E+00  0.00000000000E+00  0.80861972885E+02  0.80871945438E+02  0.12700000000E+01 0. -1.
         -4   -1    0    0    0  501 -0.00000000000E+00 -0.00000000000E+00 -0.48314070947E+02  0.48330759889E+02  0.12700000000E+01 0. -1.
         25    2    1    2    0    0  0.00000000000E+00  0.00000000000E+00  0.32547901939E+02  0.12920270533E+03  0.12503588742E+03 0.  0.
    9000005    1    3    3    0    0 -0.12001950171E+02  0.57150798920E+02 -0.67678674698E+01  0.58796808206E+02  0.10000000000E+01 0.  0.
    9000005    1    3    3    0    0  0.12001950171E+02 -0.57150798920E+02  0.39315769408E+02  0.70405897120E+02  0.10000000000E+01 0.  0.
<mgrwt>
<rscale>  0 0.12503589E+03</rscale>
<asrwt>0</asrwt>
<pdfrwt beam="1">  1        4 0.20218826E-01 0.12503589E+03</pdfrwt>
<pdfrwt beam="2">  1       -4 0.12081851E-01 0.12503589E+03</pdfrwt>
<totfact> 0.19590926E+03</totfact>
</mgrwt>
</event>
<event>
 5    1  0.1431256E-002  0.1250014E+03  0.7818608E-02  0.1235067E+00
          4   -1    0    0  501    0  0.00000000000E+00  0.00000000000E+00  0.49495493263E+02  0.49511783985E+02  0.12700000000E+01 0.  1.
         -4   -1    0    0    0  501 -0.00000000000E+00 -0.00000000000E+00 -0.78888725780E+02  0.78898947745E+02  0.12700000000E+01 0.  1.
         25    2    1    2    0    0  0.00000000000E+00  0.00000000000E+00 -0.29393232517E+02  0.12841073173E+03  0.12500141561E+03 0.  0.
    9000005    1    3    3    0    0 -0.48634439434E+02  0.12563358234E+01  0.25596260898E+02  0.54982321256E+02  0.10000000000E+01 0.  0.
    9000005    1    3    3    0    0  0.48634439434E+02 -0.12563358234E+01 -0.54989493414E+02  0.73428410474E+02  0.10000000000E+01 0.  0.
<mgrwt>
<rscale>  0 0.12500142E+03</rscale>
<asrwt>0</asrwt>
<pdfrwt beam="1">  1        4 0.12377188E-01 0.12500142E+03</pdfrwt>
<pdfrwt beam="2">  1       -4 0.19725495E-01 0.12500142E+03</pdfrwt>
<totfact> 0.19649566E+03</totfact>
</mgrwt>
</event>
<event>
 5    1  0.1431256E-002  0.1250025E+03  0.7818608E-02  0.1235065E+00
          4   -1    0    0  501    0  0.00000000000E+00  0.00000000000E+00  0.14495404438E+03  0.14495960776E+03  0.12700000000E+01 0.  1.
         -4   -1    0    0    0  501 -0.00000000000E+00 -0.00000000000E+00 -0.26928208653E+02  0.26958140167E+02  0.12700000000E+01 0.  1.
         25    2    1    2    0    0  0.00000000000E+00  0.00000000000E+00  0.11802583573E+03  0.17191774793E+03  0.12500245659E+03 0.  0.
    9000005    1    3    3    0    0 -0.12358363066E+02  0.48655255240E+02  0.11020236474E+03  0.12110171012E+03  0.10000000000E+01 0.  0.
    9000005    1    3    3    0    0  0.12358363066E+02 -0.48655255240E+02  0.78234709893E+01  0.50816037808E+02  0.10000000000E+01 0.  0.
<mgrwt>
<rscale>  0 0.12500246E+03</rscale>
<asrwt>0</asrwt>
<pdfrwt beam="1">  1        4 0.36242947E-01 0.12500246E+03</pdfrwt>
<pdfrwt beam="2">  1       -4 0.67364892E-02 0.12500246E+03</pdfrwt>
<totfact> 0.17509896E+03</totfact>
</mgrwt>
</event>
<event>
 5    1  0.1431256E-002  0.1249993E+03  0.7818608E-02  0.1235070E+00
         -4   -1    0    0    0  501 -0.00000000000E+00  0.00000000000E+00  0.73644156947E+03  0.73644266453E+03  0.12700000000E+01 0.  1.
          4   -1    0    0  501    0  0.00000000000E+00 -0.00000000000E+00 -0.52270263338E+01  0.53790988367E+01  0.12700000000E+01 0.  1.
         25    2    1    2    0    0  0.00000000000E+00  0.00000000000E+00  0.73121454313E+03  0.74182176337E+03  0.12499928205E+03 0.  0.
    9000005    1    3    3    0    0 -0.50152356163E+02  0.14998865584E+02  0.16304836299E+03  0.17124833860E+03  0.10000000000E+01 0.  0.
    9000005    1    3    3    0    0  0.50152356163E+02 -0.14998865584E+02  0.56816618014E+03  0.57057342477E+03  0.10000000000E+01 0.  0.
<mgrwt>
<rscale>  0 0.12499928E+03</rscale>
<asrwt>0</asrwt>
<pdfrwt beam="2">  1        4 0.13259024E-02 0.12499928E+03</pdfrwt>
<pdfrwt beam="1">  1       -4 0.18412956E+00 0.12499928E+03</pdfrwt>
<totfact> 0.57857948E+02</totfact>
</mgrwt>
</event>
<event>
 5    1  0.1431256E-002  0.1249982E+03  0.7818608E-02  0.1235072E+00
          4   -1    0    0  501    0  0.00000000000E+00  0.00000000000E+00  0.50013226437E+01  0.51600511806E+01  0.12700000000E+01 0. -1.
         -4   -1    0    0    0  501 -0.00000000000E+00 -0.00000000000E+00 -0.76866134476E+03  0.76866239392E+03  0.12700000000E+01 0. -1.
         25    2    1    2    0    0  0.00000000000E+00  0.00000000000E+00 -0.76366002212E+03  0.77382244510E+03  0.12499818864E+03 0.  0.
    9000005    1    3    3    0    0  0.51256489821E+02 -0.34776867358E+02 -0.43305888927E+03  0.43746732430E+03  0.10000000000E+01 0.  0.
    9000005    1    3    3    0    0 -0.51256489821E+02  0.34776867358E+02 -0.33060113284E+03  0.33635512080E+03  0.10000000000E+01 0.  0.
<mgrwt>
<rscale>  0 0.12499819E+03</rscale>
<asrwt>0</asrwt>
<pdfrwt beam="1">  1        4 0.12703055E-02 0.12499819E+03</pdfrwt>
<pdfrwt beam="2">  1       -4 0.19218491E+00 0.12499819E+03</pdfrwt>
<totfact> 0.54842807E+02</totfact>
</mgrwt>
</event>
<event>
 5    1  0.1431256E-002  0.1249992E+03  0.7818608E-02  0.1235071E+00
         -4   -1    0    0    0  501 -0.00000000000E+00  0.00000000000E+00  0.93334583087E+02  0.93343223107E+02  0.12700000000E+01 0.  1.
          4   -1    0    0  501    0  0.00000000000E+00 -0.00000000000E+00 -0.41831349969E+02  0.41850624132E+02  0.12700000000E+01 0.  1.
         25    2    1    2    0    0  0.00000000000E+00  0.00000000000E+00  0.51503233118E+02  0.13519384724E+03  0.12499917324E+03 0.  0.
    9000005    1    3    3    0    0 -0.56322966483E+02 -0.26537483962E+02  0.31544136210E+02  0.69803632697E+02  0.10000000000E+01 0.  0.
    9000005    1    3    3    0    0  0.56322966483E+02  0.26537483962E+02  0.19959096907E+02  0.65390214542E+02  0.10000000000E+01 0.  0.
<mgrwt>
<rscale>  0 0.12499917E+03</rscale>
<asrwt>0</asrwt>
<pdfrwt beam="2">  1        4 0.10461327E-01 0.12499917E+03</pdfrwt>
<pdfrwt beam="1">  1       -4 0.23337135E-01 0.12499917E+03</pdfrwt>
<totfact> 0.19289360E+03</totfact>
</mgrwt>
</event>
<event>
 5    1  0.1431256E-002  0.1250012E+03  0.7818608E-02  0.1235067E+00
          4   -1    0    0  501    0  0.00000000000E+00  0.00000000000E+00  0.11444646601E+03  0.11445351232E+03  0.12700000000E+01 0.  1.
         -4   -1    0    0    0  501 -0.00000000000E+00 -0.00000000000E+00 -0.34112428680E+02  0.34136061437E+02  0.12700000000E+01 0.  1.
         25    2    1    2    0    0  0.00000000000E+00  0.00000000000E+00  0.80334037328E+02  0.14858957375E+03  0.12500121549E+03 0.  0.
    9000005    1    3    3    0    0  0.35780214716E+02 -0.45876059521E+02  0.13047621493E+02  0.59632851927E+02  0.10000000000E+01 0.  0.
    9000005    1    3    3    0    0 -0.35780214716E+02  0.45876059521E+02  0.67286415835E+02  0.88956721827E+02  0.10000000000E+01 0.  0.
<mgrwt>
<rscale>  0 0.12500122E+03</rscale>
<asrwt>0</asrwt>
<pdfrwt beam="1">  1        4 0.28615451E-01 0.12500122E+03</pdfrwt>
<pdfrwt beam="2">  1       -4 0.85319421E-02 0.12500122E+03</pdfrwt>
<totfact> 0.18607823E+03</totfact>
</mgrwt>
</event>
<event>
 5    1  0.1431256E-002  0.1250000E+03  0.7818608E-02  0.1235069E+00
         -4   -1    0    0    0  501 -0.00000000000E+00  0.00000000000E+00  0.90854763207E+01  0.91738094581E+01  0.12700000000E+01 0. -1.
          4   -1    0    0  501    0  0.00000000000E+00 -0.00000000000E+00 -0.42777522752E+03  0.42777711273E+03  0.12700000000E+01 0. -1.
         25    2    1    2    0    0  0.00000000000E+00  0.00000000000E+00 -0.41868975120E+03  0.43695092219E+03  0.12500000258E+03 0.  0.
    9000005    1    3    3    0    0 -0.60653813353E+02 -0.54046945825E+00 -0.26190386038E+03  0.26883788658E+03  0.10000000000E+01 0.  0.
    9000005    1    3    3    0    0  0.60653813353E+02  0.54046945825E+00 -0.15678589082E+03  0.16811303561E+03  0.10000000000E+01 0.  0.
<mgrwt>
<rscale>  0 0.12500000E+03</rscale>
<asrwt>0</asrwt>
<pdfrwt beam="2">  1        4 0.10695502E+00 0.12500000E+03</pdfrwt>
<pdfrwt beam="1">  1       -4 0.22826478E-02 0.12500000E+03</pdfrwt>
<totfact> 0.98407911E+02</totfact>
</mgrwt>
</event>
<event>
 5    1  0.1431256E-002  0.1250044E+03  0.7818608E-02  0.1235062E+00
          4   -1    0    0  501    0  0.00000000000E+00  0.00000000000E+00  0.10053132396E+02  0.10133033651E+02  0.12700000000E+01 0.  1.
         -4   -1    0    0    0  501 -0.00000000000E+00 -0.00000000000E+00 -0.38696853695E+03  0.38697062096E+03  0.12700000000E+01 0.  1.
         25    2    1    2    0    0  0.00000000000E+00  0.00000000000E+00 -0.37691540455E+03  0.39710365461E+03  0.12500436120E+03 0.  0.
    9000005    1    3    3    0    0  0.24168782822E+02  0.54241463864E+01 -0.61912546368E+01  0.25551576490E+02  0.10000000000E+01 0.  0.
    9000005    1    3    3    0    0 -0.24168782822E+02 -0.54241463864E+01 -0.37072414992E+03  0.37155207812E+03  0.10000000000E+01 0.  0.
<mgrwt>
<rscale>  0 0.12500436E+03</rscale>
<asrwt>0</asrwt>
<pdfrwt beam="1">  1        4 0.25235325E-02 0.12500436E+03</pdfrwt>
<pdfrwt beam="2">  1       -4 0.96752333E-01 0.12500436E+03</pdfrwt>
<totfact> 0.10628052E+03</totfact>
</mgrwt>
</event>
<event>
 5    1  0.1431256E-002  0.1249908E+03  0.7818608E-02  0.1235084E+00
         -4   -1    0    0    0  501 -0.00000000000E+00  0.00000000000E+00  0.43022482147E+03  0.43022669595E+03  0.12700000000E+01 0. -1.
          4   -1    0    0  501    0  0.00000000000E+00 -0.00000000000E+00 -0.90319033815E+01  0.91207553795E+01  0.12700000000E+01 0. -1.
         25    2    1    2    0    0  0.00000000000E+00  0.00000000000E+00  0.42119291809E+03  0.43934745133E+03  0.12499083463E+03 0.  0.
    9000005    1    3    3    0    0 -0.31705460091E+02  0.14867728306E+02  0.28682098667E+02  0.45276355070E+02  0.10000000000E+01 0.  0.
    9000005    1    3    3    0    0  0.31705460091E+02 -0.14867728306E+02  0.39251081942E+03  0.39407109626E+03  0.10000000000E+01 0.  0.
<mgrwt>
<rscale>  0 0.12499083E+03</rscale>
<asrwt>0</asrwt>
<pdfrwt beam="2">  1        4 0.22693168E-02 0.12499083E+03</pdfrwt>
<pdfrwt beam="1">  1       -4 0.10756754E+00 0.12499083E+03</pdfrwt>
<totfact> 0.97981884E+02</totfact>
</mgrwt>
</event>
<event>
 5    1  0.1431256E-002  0.1249975E+03  0.7818608E-02  0.1235073E+00
          4   -1    0    0  501    0  0.00000000000E+00  0.00000000000E+00  0.32121075142E+02  0.32146171907E+02  0.12700000000E+01 0. -1.
         -4   -1    0    0    0  501 -0.00000000000E+00 -0.00000000000E+00 -0.12152947084E+03  0.12153610650E+03  0.12700000000E+01 0. -1.
         25    2    1    2    0    0  0.00000000000E+00  0.00000000000E+00 -0.89408395701E+02  0.15368227841E+03  0.12499752587E+03 0.  0.
    9000005    1    3    3    0    0 -0.33926176837E+02  0.14052205310E+02  0.17462474856E+02  0.40674168423E+02  0.10000000000E+01 0.  0.
    9000005    1    3    3    0    0  0.33926176837E+02 -0.14052205310E+02 -0.10687087056E+03  0.11300810998E+03  0.10000000000E+01 0.  0.
<mgrwt>
<rscale>  0 0.12499753E+03</rscale>
<asrwt>0</asrwt>
<pdfrwt beam="1">  1        4 0.80342356E-02 0.12499753E+03</pdfrwt>
<pdfrwt beam="2">  1       -4 0.30386333E-01 0.12499753E+03</pdfrwt>
<totfact> 0.18360249E+03</totfact>
</mgrwt>
</event>
<event>
 5    1  0.1431256E-002  0.1250007E+03  0.7818608E-02  0.1235068E+00
         -4   -1    0    0    0  501 -0.00000000000E+00  0.00000000000E+00  0.27763903034E+03  0.27764193499E+03  0.12700000000E+01 0.  1.
          4   -1    0    0  501    0  0.00000000000E+00 -0.00000000000E+00 -0.14038034419E+02  0.14095364854E+02  0.12700000000E+01 0.  1.
         25    2    1    2    0    0  0.00000000000E+00  0.00000000000E+00  0.26360099592E+03  0.29173729985E+03  0.12500066829E+03 0.  0.
    9000005    1    3    3    0    0  0.14027213913E+02  0.31871385142E+02  0.25290970073E+03  0.25529760015E+03  0.10000000000E+01 0.  0.
    9000005    1    3    3    0    0 -0.14027213913E+02 -0.31871385142E+02  0.10691295191E+02  0.36439699696E+02  0.10000000000E+01 0.  0.
<mgrwt>
<rscale>  0 0.12500067E+03</rscale>
<asrwt>0</asrwt>
<pdfrwt beam="2">  1        4 0.35170381E-02 0.12500067E+03</pdfrwt>
<pdfrwt beam="1">  1       -4 0.69417285E-01 0.12500067E+03</pdfrwt>
<totfact> 0.13205632E+03</totfact>
</mgrwt>
</event>
<event>
 5    1  0.1431256E-002  0.1249495E+03  0.7818608E-02  0.1235148E+00
         -4   -1    0    0    0  501 -0.00000000000E+00  0.00000000000E+00  0.17660210009E+03  0.17660666651E+03  0.12700000000E+01 0. -1.
          4   -1    0    0  501    0  0.00000000000E+00 -0.00000000000E+00 -0.22077973479E+02  0.22114470669E+02  0.12700000000E+01 0. -1.
         25    2    1    2    0    0  0.00000000000E+00  0.00000000000E+00  0.15452412661E+03  0.19872113718E+03  0.12494952844E+03 0.  0.
    9000005    1    3    3    0    0 -0.10379756212E+02  0.16647484907E+01 -0.20668863724E+02  0.23210184277E+02  0.10000000000E+01 0.  0.
    9000005    1    3    3    0    0  0.10379756212E+02 -0.16647484907E+01  0.17519299033E+03  0.17551095290E+03  0.10000000000E+01 0.  0.
<mgrwt>
<rscale>  0 0.12494953E+03</rscale>
<asrwt>0</asrwt>
<pdfrwt beam="2">  1        4 0.55246263E-02 0.12494953E+03</pdfrwt>
<pdfrwt beam="1">  1       -4 0.44155658E-01 0.12494953E+03</pdfrwt>
<totfact> 0.16392502E+03</totfact>
</mgrwt>
</event>
<event>
 5    1  0.1431256E-002  0.1249988E+03  0.7818608E-02  0.1235071E+00
          4   -1    0    0  501    0  0.00000000000E+00  0.00000000000E+00  0.31490215115E+03  0.31490471210E+03  0.12700000000E+01 0.  1.
         -4   -1    0    0    0  501 -0.00000000000E+00 -0.00000000000E+00 -0.12369288542E+02  0.12434315383E+02  0.12700000000E+01 0.  1.
         25    2    1    2    0    0  0.00000000000E+00  0.00000000000E+00  0.30253286261E+03  0.32733902748E+03  0.12499882380E+03 0.  0.
    9000005    1    3    3    0    0  0.35857170986E+02  0.79692624322E+01  0.18873013797E+02  0.41309036598E+02  0.10000000000E+01 0.  0.
    9000005    1    3    3    0    0 -0.35857170986E+02 -0.79692624322E+01  0.28365984881E+03  0.28602999088E+03  0.10000000000E+01 0.  0.
<mgrwt>
<rscale>  0 0.12499882E+03</rscale>
<asrwt>0</asrwt>
<pdfrwt beam="1">  1        4 0.78733985E-01 0.12499882E+03</pdfrwt>
<pdfrwt beam="2">  1       -4 0.31007707E-02 0.12499882E+03</pdfrwt>
<totfact> 0.12238331E+03</totfact>
</mgrwt>
</event>
<event>
 5    1  0.1431256E-002  0.1249599E+03  0.7818608E-02  0.1235132E+00
          4   -1    0    0  501    0  0.00000000000E+00  0.00000000000E+00  0.87940810865E+02  0.87949980759E+02  0.12700000000E+01 0. -1.
         -4   -1    0    0    0  501 -0.00000000000E+00 -0.00000000000E+00 -0.44370033365E+02  0.44388205199E+02  0.12700000000E+01 0. -1.
         25    2    1    2    0    0  0.00000000000E+00  0.00000000000E+00  0.43570777500E+02  0.13233818596E+03  0.12495992482E+03 0.  0.
    9000005    1    3    3    0    0 -0.27045506618E+02 -0.54083467263E+02  0.38404799830E+02  0.71640836883E+02  0.10000000000E+01 0.  0.
    9000005    1    3    3    0    0  0.27045506618E+02  0.54083467263E+02  0.51659776700E+01  0.60697349075E+02  0.10000000000E+01 0.  0.
<mgrwt>
<rscale>  0 0.12495992E+03</rscale>
<asrwt>0</asrwt>
<pdfrwt beam="1">  1        4 0.21988620E-01 0.12495992E+03</pdfrwt>
<pdfrwt beam="2">  1       -4 0.11095926E-01 0.12495992E+03</pdfrwt>
<totfact> 0.19457679E+03</totfact>
</mgrwt>
</event>
<event>
 5    1  0.1431256E-002  0.1249976E+03  0.7818608E-02  0.1235073E+00
         -4   -1    0    0    0  501 -0.00000000000E+00  0.00000000000E+00  0.58547787402E+01  0.59909376643E+01  0.12700000000E+01 0.  1.
          4   -1    0    0  501    0  0.00000000000E+00 -0.00000000000E+00 -0.65935905484E+03  0.65936027792E+03  0.12700000000E+01 0.  1.
         25    2    1    2    0    0  0.00000000000E+00  0.00000000000E+00 -0.65350427610E+03  0.66535121558E+03  0.12499760477E+03 0.  0.
    9000005    1    3    3    0    0 -0.40761337091E+02 -0.22242640490E+02 -0.10415011823E+03  0.11403713775E+03  0.10000000000E+01 0.  0.
    9000005    1    3    3    0    0  0.40761337091E+02  0.22242640490E+02 -0.54935415786E+03  0.55131407783E+03  0.10000000000E+01 0.  0.
<mgrwt>
<rscale>  0 0.12499760E+03</rscale>
<asrwt>0</asrwt>
<pdfrwt beam="2">  1        4 0.16485669E+00 0.12499760E+03</pdfrwt>
<pdfrwt beam="1">  1       -4 0.14808697E-02 0.12499760E+03</pdfrwt>
<totfact> 0.65785149E+02</totfact>
</mgrwt>
</event>
<event>
 5    1  0.1431256E-002  0.1250008E+03  0.7818608E-02  0.1235068E+00
          4   -1    0    0  501    0  0.00000000000E+00  0.00000000000E+00  0.57132752191E+02  0.57146865818E+02  0.12700000000E+01 0. -1.
         -4   -1    0    0    0  501 -0.00000000000E+00 -0.00000000000E+00 -0.68343864373E+02  0.68355663244E+02  0.12700000000E+01 0. -1.
         25    2    1    2    0    0  0.00000000000E+00  0.00000000000E+00 -0.11211112183E+02  0.12550252906E+03  0.12500078306E+03 0.  0.
    9000005    1    3    3    0    0  0.59628796981E+02  0.28119485944E+01 -0.24167557136E+02  0.64409403834E+02  0.10000000000E+01 0.  0.
    9000005    1    3    3    0    0 -0.59628796981E+02 -0.28119485944E+01  0.12956444953E+02  0.61093125228E+02  0.10000000000E+01 0.  0.
<mgrwt>
<rscale>  0 0.12500078E+03</rscale>
<asrwt>0</asrwt>
<pdfrwt beam="1">  1        4 0.14286427E-01 0.12500078E+03</pdfrwt>
<pdfrwt beam="2">  1       -4 0.17089205E-01 0.12500078E+03</pdfrwt>
<totfact> 0.19807464E+03</totfact>
</mgrwt>
</event>
<event>
 5    1  0.1431256E-002  0.1249997E+03  0.7818608E-02  0.1235070E+00
         -4   -1    0    0    0  501 -0.00000000000E+00  0.00000000000E+00  0.43541340071E+02  0.43559857612E+02  0.12700000000E+01 0.  1.
          4   -1    0    0  501    0  0.00000000000E+00 -0.00000000000E+00 -0.89671040249E+02  0.89680033226E+02  0.12700000000E+01 0.  1.
         25    2    1    2    0    0  0.00000000000E+00  0.00000000000E+00 -0.46129700178E+02  0.13323989084E+03  0.12499967709E+03 0.  0.
    9000005    1    3    3    0    0  0.12865421850E+02  0.40773290668E+02 -0.71646214672E+02  0.83439561289E+02  0.10000000000E+01 0.  0.
    9000005    1    3    3    0    0 -0.12865421850E+02 -0.40773290668E+02  0.25516514494E+02  0.49800329549E+02  0.10000000000E+01 0.  0.
<mgrwt>
<rscale>  0 0.12499968E+03</rscale>
<asrwt>0</asrwt>
<pdfrwt beam="2">  1        4 0.22421199E-01 0.12499968E+03</pdfrwt>
<pdfrwt beam="1">  1       -4 0.10888774E-01 0.12499968E+03</pdfrwt>
<totfact> 0.19391877E+03</totfact>
</mgrwt>
</event>
<event>
 5    1  0.1431256E-002  0.1249944E+03  0.7818608E-02  0.1235078E+00
         -4   -1    0    0    0  501 -0.00000000000E+00  0.00000000000E+00  0.13366740127E+03  0.13367343440E+03  0.12700000000E+01 0.  1.
          4   -1    0    0  501    0  0.00000000000E+00 -0.00000000000E+00 -0.29200531220E+02  0.29228135820E+02  0.12700000000E+01 0.  1.
         25    2    1    2    0    0  0.00000000000E+00  0.00000000000E+00  0.10446687005E+03  0.16290157022E+03  0.12499437843E+03 0.  0.
    9000005    1    3    3    0    0 -0.44405955094E+02  0.15410756714E+02 -0.14309357459E+01  0.47036452326E+02  0.10000000000E+01 0.  0.
    9000005    1    3    3    0    0  0.44405955094E+02 -0.15410756714E+02  0.10589780580E+03  0.11586511789E+03  0.10000000000E+01 0.  0.
<mgrwt>
<rscale>  0 0.12499438E+03</rscale>
<asrwt>0</asrwt>
<pdfrwt beam="2">  1        4 0.73043377E-02 0.12499438E+03</pdfrwt>
<pdfrwt beam="1">  1       -4 0.33421054E-01 0.12499438E+03</pdfrwt>
<totfact> 0.17924392E+03</totfact>
</mgrwt>
</event>
<event>
 5    1  0.1431256E-002  0.1250090E+03  0.7818608E-02  0.1235055E+00
          4   -1    0    0  501    0  0.00000000000E+00  0.00000000000E+00  0.35892597106E+02  0.35915058499E+02  0.12700000000E+01 0.  1.
         -4   -1    0    0    0  501 -0.00000000000E+00 -0.00000000000E+00 -0.10878712732E+03  0.10879454017E+03  0.12700000000E+01 0.  1.
         25    2    1    2    0    0  0.00000000000E+00  0.00000000000E+00 -0.72894530219E+02  0.14470959867E+03  0.12500902132E+03 0.  0.
    9000005    1    3    3    0    0  0.49568775418E+02  0.12092818956E+02 -0.78225222084E+02  0.93399599232E+02  0.10000000000E+01 0.  0.
    9000005    1    3    3    0    0 -0.49568775418E+02 -0.12092818956E+02  0.53306918652E+01  0.51309999440E+02  0.10000000000E+01 0.  0.
<mgrwt>
<rscale>  0 0.12500902E+03</rscale>
<asrwt>0</asrwt>
<pdfrwt beam="1">  1        4 0.89768838E-02 0.12500902E+03</pdfrwt>
<pdfrwt beam="2">  1       -4 0.27200515E-01 0.12500902E+03</pdfrwt>
<totfact> 0.18797985E+03</totfact>
</mgrwt>
</event>
<event>
 5    1  0.1431256E-002  0.1249999E+03  0.7818608E-02  0.1235070E+00
          4   -1    0    0  501    0  0.00000000000E+00  0.00000000000E+00  0.33626356752E+03  0.33626596578E+03  0.12700000000E+01 0.  1.
         -4   -1    0    0    0  501 -0.00000000000E+00 -0.00000000000E+00 -0.11579446942E+02  0.11648883701E+02  0.12700000000E+01 0.  1.
         25    2    1    2    0    0  0.00000000000E+00  0.00000000000E+00  0.32468412057E+03  0.34791484948E+03  0.12499985733E+03 0.  0.
    9000005    1    3    3    0    0  0.37325717696E+02 -0.12350588533E+02  0.27143220574E+02  0.47785988132E+02  0.10000000000E+01 0.  0.
    9000005    1    3    3    0    0 -0.37325717696E+02  0.12350588533E+02  0.29754090000E+03  0.30012886134E+03  0.10000000000E+01 0.  0.
<mgrwt>
<rscale>  0 0.12499986E+03</rscale>
<asrwt>0</asrwt>
<pdfrwt beam="1">  1        4 0.84074868E-01 0.12499986E+03</pdfrwt>
<pdfrwt beam="2">  1       -4 0.29038412E-02 0.12499986E+03</pdfrwt>
<totfact> 0.11727251E+03</totfact>
</mgrwt>
</event>
<event>
 5    1  0.1431256E-002  0.1249953E+03  0.7818608E-02  0.1235077E+00
         -4   -1    0    0    0  501 -0.00000000000E+00  0.00000000000E+00  0.11374817769E+04  0.11374824859E+04  0.12700000000E+01 0.  1.
          4   -1    0    0  501    0  0.00000000000E+00 -0.00000000000E+00 -0.33157033856E+01  0.35506040249E+01  0.12700000000E+01 0.  1.
         25    2    1    2    0    0  0.00000000000E+00  0.00000000000E+00  0.11341660735E+04  0.11410330899E+04  0.12499531968E+03 0.  0.
    9000005    1    3    3    0    0  0.13537587914E+02  0.57819899048E+02  0.74469261554E+03  0.74705722583E+03  0.10000000000E+01 0.  0.
    9000005    1    3    3    0    0 -0.13537587914E+02 -0.57819899048E+02  0.38947345800E+03  0.39397586411E+03  0.10000000000E+01 0.  0.
<mgrwt>
<rscale>  0 0.12499532E+03</rscale>
<asrwt>0</asrwt>
<pdfrwt beam="2">  1        4 0.85837694E-03 0.12499532E+03</pdfrwt>
<pdfrwt beam="1">  1       -4 0.28439993E+00 0.12499532E+03</pdfrwt>
<totfact> 0.28410535E+02</totfact>
</mgrwt>
</event>
<event>
 5    1  0.1431256E-002  0.1249988E+03  0.7818608E-02  0.1235071E+00
         -4   -1    0    0    0  501 -0.00000000000E+00  0.00000000000E+00  0.61994556575E+03  0.61994686659E+03  0.12700000000E+01 0.  1.
          4   -1    0    0  501    0  0.00000000000E+00 -0.00000000000E+00 -0.62355213961E+01  0.63635388803E+01  0.12700000000E+01 0.  1.
         25    2    1    2    0    0  0.00000000000E+00  0.00000000000E+00  0.61371004435E+03  0.62631040547E+03  0.12499882183E+03 0.  0.
    9000005    1    3    3    0    0 -0.23957619588E+02 -0.33106341973E+02  0.54374127429E+03  0.54527568329E+03  0.10000000000E+01 0.  0.
    9000005    1    3    3    0    0  0.23957619588E+02  0.33106341973E+02  0.69968770061E+02  0.81034722181E+02  0.10000000000E+01 0.  0.
<mgrwt>
<rscale>  0 0.12499882E+03</rscale>
<asrwt>0</asrwt>
<pdfrwt beam="2">  1        4 0.15750452E-02 0.12499882E+03</pdfrwt>
<pdfrwt beam="1">  1       -4 0.15500255E+00 0.12499882E+03</pdfrwt>
<totfact> 0.70289501E+02</totfact>
</mgrwt>
</event>
<event>
 5    1  0.1431256E-002  0.1250047E+03  0.7818608E-02  0.1235062E+00
         -4   -1    0    0    0  501 -0.00000000000E+00  0.00000000000E+00  0.60901729144E+02  0.60914969529E+02  0.12700000000E+01 0. -1.
          4   -1    0    0  501    0  0.00000000000E+00 -0.00000000000E+00 -0.64118557071E+02  0.64131133320E+02  0.12700000000E+01 0. -1.
         25    2    1    2    0    0  0.00000000000E+00  0.00000000000E+00 -0.32168279270E+01  0.12504610285E+03  0.12500471933E+03 0.  0.
    9000005    1    3    3    0    0 -0.26995450797E+02 -0.13913315871E+02 -0.56245267695E+02  0.63928591884E+02  0.10000000000E+01 0.  0.
    9000005    1    3    3    0    0  0.26995450797E+02  0.13913315871E+02  0.53028439768E+02  0.61117510964E+02  0.10000000000E+01 0.  0.
<mgrwt>
<rscale>  0 0.12500472E+03</rscale>
<asrwt>0</asrwt>
<pdfrwt beam="2">  1        4 0.16032866E-01 0.12500472E+03</pdfrwt>
<pdfrwt beam="1">  1       -4 0.15228659E-01 0.12500472E+03</pdfrwt>
<totfact> 0.19830365E+03</totfact>
</mgrwt>
</event>
<event>
 5    1  0.1431256E-002  0.1250032E+03  0.7818608E-02  0.1235064E+00
          4   -1    0    0  501    0  0.00000000000E+00  0.00000000000E+00  0.22099763340E+02  0.22136224603E+02  0.12700000000E+01 0. -1.
         -4   -1    0    0    0  501 -0.00000000000E+00 -0.00000000000E+00 -0.17657989721E+03  0.17658446420E+03  0.12700000000E+01 0. -1.
         25    2    1    2    0    0  0.00000000000E+00  0.00000000000E+00 -0.15448013387E+03  0.19872068881E+03  0.12500320156E+03 0.  0.
    9000005    1    3    3    0    0 -0.38671123696E+02 -0.20294522839E+02 -0.14830141665E+03  0.15460153184E+03  0.10000000000E+01 0.  0.
    9000005    1    3    3    0    0  0.38671123696E+02  0.20294522839E+02 -0.61787172136E+01  0.44119156968E+02  0.10000000000E+01 0.  0.
<mgrwt>
<rscale>  0 0.12500320E+03</rscale>
<asrwt>0</asrwt>
<pdfrwt beam="1">  1        4 0.55300699E-02 0.12500320E+03</pdfrwt>
<pdfrwt beam="2">  1       -4 0.44150099E-01 0.12500320E+03</pdfrwt>
<totfact> 0.16372183E+03</totfact>
</mgrwt>
</event>
<event>
 5    1  0.1431256E-002  0.1249980E+03  0.7818608E-02  0.1235072E+00
          4   -1    0    0  501    0  0.00000000000E+00  0.00000000000E+00  0.10849885251E+03  0.10850628505E+03  0.12700000000E+01 0.  1.
         -4   -1    0    0    0  501 -0.00000000000E+00 -0.00000000000E+00 -0.35981644070E+02  0.36004049911E+02  0.12700000000E+01 0.  1.
         25    2    1    2    0    0  0.00000000000E+00  0.00000000000E+00  0.72517208437E+02  0.14451033496E+03  0.12499796555E+03 0.  0.
    9000005    1    3    3    0    0 -0.66221721988E+01 -0.27985192629E+02 -0.27882618153E+02  0.40068248854E+02  0.10000000000E+01 0.  0.
    9000005    1    3    3    0    0  0.66221721988E+01  0.27985192629E+02  0.10039982659E+03  0.10444208611E+03  0.10000000000E+01 0.  0.
<mgrwt>
<rscale>  0 0.12499797E+03</rscale>
<asrwt>0</asrwt>
<pdfrwt beam="1">  1        4 0.27128443E-01 0.12499797E+03</pdfrwt>
<pdfrwt beam="2">  1       -4 0.89991409E-02 0.12499797E+03</pdfrwt>
<totfact> 0.18812820E+03</totfact>
</mgrwt>
</event>
<event>
 5    1  0.1431256E-002  0.1249941E+03  0.7818608E-02  0.1235079E+00
         -4   -1    0    0    0  501 -0.00000000000E+00  0.00000000000E+00  0.11663592568E+03  0.11664283972E+03  0.12700000000E+01 0.  1.
          4   -1    0    0  501    0  0.00000000000E+00 -0.00000000000E+00 -0.33467850073E+02  0.33491937664E+02  0.12700000000E+01 0.  1.
         25    2    1    2    0    0  0.00000000000E+00  0.00000000000E+00  0.83168075604E+02  0.15013477739E+03  0.12499409018E+03 0.  0.
    9000005    1    3    3    0    0  0.59500945951E+02 -0.92698657814E+01  0.61632116848E+02  0.86173144353E+02  0.10000000000E+01 0.  0.
    9000005    1    3    3    0    0 -0.59500945951E+02  0.92698657814E+01  0.21535958756E+02  0.63961633033E+02  0.10000000000E+01 0.  0.
<mgrwt>
<rscale>  0 0.12499409E+03</rscale>
<asrwt>0</asrwt>
<pdfrwt beam="2">  1        4 0.83708378E-02 0.12499409E+03</pdfrwt>
<pdfrwt beam="1">  1       -4 0.29162856E-01 0.12499409E+03</pdfrwt>
<totfact> 0.18534705E+03</totfact>
</mgrwt>
</event>
<event>
 5    1  0.1431256E-002  0.1250016E+03  0.7818608E-02  0.1235067E+00
         -4   -1    0    0    0  501 -0.00000000000E+00  0.00000000000E+00  0.18770872777E+02  0.18813786563E+02  0.12700000000E+01 0.  1.
          4   -1    0    0  501    0  0.00000000000E+00 -0.00000000000E+00 -0.20782459136E+03  0.20782847176E+03  0.12700000000E+01 0.  1.
         25    2    1    2    0    0  0.00000000000E+00  0.00000000000E+00 -0.18905371858E+03  0.22664225832E+03  0.12500161898E+03 0.  0.
    9000005    1    3    3    0    0 -0.37692816555E+02 -0.46406757038E+02 -0.12751436866E+03  0.14083767157E+03  0.10000000000E+01 0.  0.
    9000005    1    3    3    0    0  0.37692816555E+02  0.46406757038E+02 -0.61539349921E+02  0.85804586750E+02  0.10000000000E+01 0.  0.
<mgrwt>
<rscale>  0 0.12500162E+03</rscale>
<asrwt>0</asrwt>
<pdfrwt beam="2">  1        4 0.51961990E-01 0.12500162E+03</pdfrwt>
<pdfrwt beam="1">  1       -4 0.46985681E-02 0.12500162E+03</pdfrwt>
<totfact> 0.15307467E+03</totfact>
</mgrwt>
</event>
<event>
 5    1  0.1431256E-002  0.1249998E+03  0.7818608E-02  0.1235070E+00
          4   -1    0    0  501    0  0.00000000000E+00  0.00000000000E+00  0.17013559042E+03  0.17014033040E+03  0.12700000000E+01 0.  1.
         -4   -1    0    0    0  501 -0.00000000000E+00 -0.00000000000E+00 -0.22936932729E+02  0.22972065275E+02  0.12700000000E+01 0.  1.
         25    2    1    2    0    0  0.00000000000E+00  0.00000000000E+00  0.14719865769E+03  0.19311239567E+03  0.12499981014E+03 0.  0.
    9000005    1    3    3    0    0 -0.34035276987E+02 -0.51272056519E+02  0.56816387794E+02  0.83763511036E+02  0.10000000000E+01 0.  0.
    9000005    1    3    3    0    0  0.34035276987E+02  0.51272056519E+02  0.90382269896E+02  0.10934888463E+03  0.10000000000E+01 0.  0.
<mgrwt>
<rscale>  0 0.12499981E+03</rscale>
<asrwt>0</asrwt>
<pdfrwt beam="1">  1        4 0.42538881E-01 0.12499981E+03</pdfrwt>
<pdfrwt beam="2">  1       -4 0.57392173E-02 0.12499981E+03</pdfrwt>
<totfact> 0.16601671E+03</totfact>
</mgrwt>
</event>
<event>
 5    1  0.1431256E-002  0.1249986E+03  0.7818608E-02  0.1235072E+00
         -4   -1    0    0    0  501 -0.00000000000E+00  0.00000000000E+00  0.72159401878E+03  0.72159513637E+03  0.12700000000E+01 0. -1.
          4   -1    0    0  501    0  0.00000000000E+00 -0.00000000000E+00 -0.53376128933E+01  0.54866211276E+01  0.12700000000E+01 0. -1.
         25    2    1    2    0    0  0.00000000000E+00  0.00000000000E+00  0.71625640589E+03  0.72708175750E+03  0.12499857247E+03 0.  0.
    9000005    1    3    3    0    0 -0.32500077461E+01 -0.10530885328E+02  0.33139062013E+00  0.11071220163E+02  0.10000000000E+01 0.  0.
    9000005    1    3    3    0    0  0.32500077461E+01  0.10530885328E+02  0.71592501527E+03  0.71601053734E+03  0.10000000000E+01 0.  0.
<mgrwt>
<rscale>  0 0.12499857E+03</rscale>
<asrwt>0</asrwt>
<pdfrwt beam="2">  1        4 0.13531696E-02 0.12499857E+03</pdfrwt>
<pdfrwt beam="1">  1       -4 0.18041719E+00 0.12499857E+03</pdfrwt>
<totfact> 0.59306234E+02</totfact>
</mgrwt>
</event>
<event>
 5    1  0.1431256E-002  0.1250005E+03  0.7818608E-02  0.1235068E+00
          4   -1    0    0  501    0  0.00000000000E+00  0.00000000000E+00  0.68533471912E+02  0.68545238145E+02  0.12700000000E+01 0.  1.
         -4   -1    0    0    0  501 -0.00000000000E+00 -0.00000000000E+00 -0.56974422665E+02  0.56988575504E+02  0.12700000000E+01 0.  1.
         25    2    1    2    0    0  0.00000000000E+00  0.00000000000E+00  0.11559049247E+02  0.12553381365E+03  0.12500050700E+03 0.  0.
    9000005    1    3    3    0    0 -0.43164987569E+02 -0.44145855674E+02 -0.39161444709E+01  0.61874137671E+02  0.10000000000E+01 0.  0.
    9000005    1    3    3    0    0  0.43164987569E+02  0.44145855674E+02  0.15475193718E+02  0.63659675978E+02  0.10000000000E+01 0.  0.
<mgrwt>
<rscale>  0 0.12500051E+03</rscale>
<asrwt>0</asrwt>
<pdfrwt beam="1">  1        4 0.17136608E-01 0.12500051E+03</pdfrwt>
<pdfrwt beam="2">  1       -4 0.14246846E-01 0.12500051E+03</pdfrwt>
<totfact> 0.19805898E+03</totfact>
</mgrwt>
</event>
<event>
 5    1  0.1431256E-002  0.1250035E+03  0.7818608E-02  0.1235064E+00
         -4   -1    0    0    0  501 -0.00000000000E+00  0.00000000000E+00  0.47134520473E+02  0.47151626910E+02  0.12700000000E+01 0. -1.
          4   -1    0    0  501    0  0.00000000000E+00 -0.00000000000E+00 -0.82842153421E+02  0.82851887627E+02  0.12700000000E+01 0. -1.
         25    2    1    2    0    0  0.00000000000E+00  0.00000000000E+00 -0.35707632948E+02  0.13000351454E+03  0.12500351492E+03 0.  0.
    9000005    1    3    3    0    0 -0.46247808923E+02  0.41050976625E+02 -0.27238454962E+02  0.67579404709E+02  0.10000000000E+01 0.  0.
    9000005    1    3    3    0    0  0.46247808923E+02 -0.41050976625E+02 -0.84691779856E+01  0.62424109828E+02  0.10000000000E+01 0.  0.
<mgrwt>
<rscale>  0 0.12500351E+03</rscale>
<asrwt>0</asrwt>
<pdfrwt beam="2">  1        4 0.20713893E-01 0.12500351E+03</pdfrwt>
<pdfrwt beam="1">  1       -4 0.11786985E-01 0.12500351E+03</pdfrwt>
<totfact> 0.19562588E+03</totfact>
</mgrwt>
</event>
<event>
 5    1  0.1431256E-002  0.1249949E+03  0.7818608E-02  0.1235077E+00
         -4   -1    0    0    0  501 -0.00000000000E+00  0.00000000000E+00  0.67202833867E+01  0.68392330563E+01  0.12700000000E+01 0.  1.
          4   -1    0    0  501    0  0.00000000000E+00 -0.00000000000E+00 -0.57599709143E+03  0.57599849152E+03  0.12700000000E+01 0.  1.
         25    2    1    2    0    0  0.00000000000E+00  0.00000000000E+00 -0.56927680804E+03  0.58283772458E+03  0.12499491596E+03 0.  0.
    9000005    1    3    3    0    0 -0.47095417388E+02  0.40504037673E+02 -0.25288385746E+03  0.26040315046E+03  0.10000000000E+01 0.  0.
    9000005    1    3    3    0    0  0.47095417388E+02 -0.40504037673E+02 -0.31639295059E+03  0.32243457412E+03  0.10000000000E+01 0.  0.
<mgrwt>
<rscale>  0 0.12499492E+03</rscale>
<asrwt>0</asrwt>
<pdfrwt beam="2">  1        4 0.14401415E+00 0.12499492E+03</pdfrwt>
<pdfrwt beam="1">  1       -4 0.16951165E-02 0.12499492E+03</pdfrwt>
<totfact> 0.75714418E+02</totfact>
</mgrwt>
</event>
<event>
 5    1  0.1431256E-002  0.1250013E+03  0.7818608E-02  0.1235067E+00
         -4   -1    0    0    0  501 -0.00000000000E+00  0.00000000000E+00  0.45785669316E+02  0.45803279519E+02  0.12700000000E+01 0.  1.
          4   -1    0    0  501    0  0.00000000000E+00 -0.00000000000E+00 -0.85279067229E+02  0.85288523304E+02  0.12700000000E+01 0.  1.
         25    2    1    2    0    0  0.00000000000E+00  0.00000000000E+00 -0.39493397913E+02  0.13109180282E+03  0.12500132915E+03 0.  0.
    9000005    1    3    3    0    0  0.16393362469E+02 -0.24857015057E+02  0.37873172920E+02  0.48187039312E+02  0.10000000000E+01 0.  0.
    9000005    1    3    3    0    0 -0.16393362469E+02  0.24857015057E+02 -0.77366570833E+02  0.82904763512E+02  0.10000000000E+01 0.  0.
<mgrwt>
<rscale>  0 0.12500133E+03</rscale>
<asrwt>0</asrwt>
<pdfrwt beam="2">  1        4 0.21323150E-01 0.12500133E+03</pdfrwt>
<pdfrwt beam="1">  1       -4 0.11449801E-01 0.12500133E+03</pdfrwt>
<totfact> 0.19505262E+03</totfact>
</mgrwt>
</event>
<event>
 5    1  0.1431256E-002  0.1250024E+03  0.7818608E-02  0.1235066E+00
          4   -1    0    0  501    0  0.00000000000E+00  0.00000000000E+00  0.26197145165E+02  0.26227910988E+02  0.12700000000E+01 0. -1.
         -4   -1    0    0    0  501 -0.00000000000E+00 -0.00000000000E+00 -0.14899439246E+03  0.14899980498E+03  0.12700000000E+01 0. -1.
         25    2    1    2    0    0  0.00000000000E+00  0.00000000000E+00 -0.12279724730E+03  0.17522771597E+03  0.12500235398E+03 0.  0.
    9000005    1    3    3    0    0  0.10953062719E+02 -0.29856477283E+02 -0.13680971842E+03  0.14046094785E+03  0.10000000000E+01 0.  0.
    9000005    1    3    3    0    0 -0.10953062719E+02  0.29856477283E+02  0.14012471118E+02  0.34766768120E+02  0.10000000000E+01 0.  0.
<mgrwt>
<rscale>  0 0.12500235E+03</rscale>
<asrwt>0</asrwt>
<pdfrwt beam="1">  1        4 0.65538090E-02 0.12500235E+03</pdfrwt>
<pdfrwt beam="2">  1       -4 0.37253118E-01 0.12500235E+03</pdfrwt>
<totfact> 0.17362852E+03</totfact>
</mgrwt>
</event>
<event>
 5    1  0.1431256E-002  0.1250008E+03  0.7818608E-02  0.1235068E+00
          4   -1    0    0  501    0  0.00000000000E+00  0.00000000000E+00  0.11085506460E+03  0.11086233917E+03  0.12700000000E+01 0. -1.
         -4   -1    0    0    0  501 -0.00000000000E+00 -0.00000000000E+00 -0.35218024584E+02  0.35240915930E+02  0.12700000000E+01 0. -1.
         25    2    1    2    0    0  0.00000000000E+00  0.00000000000E+00  0.75637040013E+02  0.14610325510E+03  0.12500079732E+03 0.  0.
    9000005    1    3    3    0    0  0.25279778655E+02  0.54840496606E+02  0.19017152755E+02  0.63318238887E+02  0.10000000000E+01 0.  0.
    9000005    1    3    3    0    0 -0.25279778655E+02 -0.54840496606E+02  0.56619887259E+02  0.82785016217E+02  0.10000000000E+01 0.  0.
<mgrwt>
<rscale>  0 0.12500080E+03</rscale>
<asrwt>0</asrwt>
<pdfrwt beam="1">  1        4 0.27717537E-01 0.12500080E+03</pdfrwt>
<pdfrwt beam="2">  1       -4 0.88082770E-02 0.12500080E+03</pdfrwt>
<totfact> 0.18731711E+03</totfact>
</mgrwt>
</event>
<event>
 5    1  0.1431256E-002  0.1250031E+03  0.7818608E-02  0.1235064E+00
          4   -1    0    0  501    0  0.00000000000E+00  0.00000000000E+00  0.62748335833E+02  0.62761186651E+02  0.12700000000E+01 0. -1.
         -4   -1    0    0    0  501 -0.00000000000E+00 -0.00000000000E+00 -0.62230070576E+02  0.62243028396E+02  0.12700000000E+01 0. -1.
         25    2    1    2    0    0  0.00000000000E+00  0.00000000000E+00  0.51826525694E+00  0.12500421505E+03  0.12500314068E+03 0.  0.
    9000005    1    3    3    0    0  0.12846366804E+02 -0.55183603732E+02  0.26625758960E+02  0.62611423088E+02  0.10000000000E+01 0.  0.
    9000005    1    3    3    0    0 -0.12846366804E+02  0.55183603732E+02 -0.26107493703E+02  0.62392791958E+02  0.10000000000E+01 0.  0.
<mgrwt>
<rscale>  0 0.12500314E+03</rscale>
<asrwt>0</asrwt>
<pdfrwt beam="1">  1        4 0.15690310E-01 0.12500314E+03</pdfrwt>
<pdfrwt beam="2">  1       -4 0.15560744E-01 0.12500314E+03</pdfrwt>
<totfact> 0.19833369E+03</totfact>
</mgrwt>
</event>
<event>
 5    1  0.1431256E-002  0.1250013E+03  0.7818608E-02  0.1235067E+00
         -4   -1    0    0    0  501 -0.00000000000E+00  0.00000000000E+00  0.36969690215E+03  0.36969908352E+03  0.12700000000E+01 0.  1.
          4   -1    0    0  501    0  0.00000000000E+00 -0.00000000000E+00 -0.10525918744E+02  0.10602257561E+02  0.12700000000E+01 0.  1.
         25    2    1    2    0    0  0.00000000000E+00  0.00000000000E+00  0.35917098340E+03  0.38030134108E+03  0.12500125884E+03 0.  0.
    9000005    1    3    3    0    0 -0.17522678529E+02  0.23808459076E+02  0.34709446619E+03  0.34835248736E+03  0.10000000000E+01 0.  0.
    9000005    1    3    3    0    0  0.17522678529E+02 -0.23808459076E+02  0.12076517208E+02  0.31948853724E+02  0.10000000000E+01 0.  0.
<mgrwt>
<rscale>  0 0.12500126E+03</rscale>
<asrwt>0</asrwt>
<pdfrwt beam="2">  1        4 0.26412948E-02 0.12500126E+03</pdfrwt>
<pdfrwt beam="1">  1       -4 0.92434037E-01 0.12500126E+03</pdfrwt>
<totfact> 0.10986222E+03</totfact>
</mgrwt>
</event>
<event>
 5    1  0.1431256E-002  0.1249985E+03  0.7818608E-02  0.1235072E+00
         -4   -1    0    0    0  501 -0.00000000000E+00  0.00000000000E+00  0.17245697074E+02  0.17292396236E+02  0.12700000000E+01 0. -1.
          4   -1    0    0  501    0  0.00000000000E+00 -0.00000000000E+00 -0.22614566493E+03  0.22614923097E+03  0.12700000000E+01 0. -1.
         25    2    1    2    0    0  0.00000000000E+00  0.00000000000E+00 -0.20889996786E+03  0.24344162720E+03  0.12499851713E+03 0.  0.
    9000005    1    3    3    0    0  0.25015605175E+02 -0.56883974506E+02 -0.11730831866E+03  0.13275469365E+03  0.10000000000E+01 0.  0.
    9000005    1    3    3    0    0 -0.25015605175E+02  0.56883974506E+02 -0.91591649195E+02  0.11068693356E+03  0.10000000000E+01 0.  0.
<mgrwt>
<rscale>  0 0.12499852E+03</rscale>
<asrwt>0</asrwt>
<pdfrwt beam="2">  1        4 0.56542690E-01 0.12499852E+03</pdfrwt>
<pdfrwt beam="1">  1       -4 0.43177081E-02 0.12499852E+03</pdfrwt>
<totfact> 0.14719118E+03</totfact>
</mgrwt>
</event>
<event>
 5    1  0.1431256E-002  0.1250009E+03  0.7818608E-02  0.1235068E+00
         -4   -1    0    0    0  501 -0.00000000000E+00  0.00000000000E+00  0.39616275794E+03  0.39616479358E+03  0.12700000000E+01 0.  1.
          4   -1    0    0  501    0  0.00000000000E+00 -0.00000000000E+00 -0.98173935374E+01  0.98991977386E+01  0.12700000000E+01 0.  1.
         25    2    1    2    0    0  0.00000000000E+00  0.00000000000E+00  0.38634536440E+03  0.40606399132E+03  0.12500089782E+03 0.  0.
    9000005    1    3    3    0    0  0.27640016148E+02 -0.52804147578E+01  0.37443289802E+03  0.37549014420E+03  0.10000000000E+01 0.  0.
    9000005    1    3    3    0    0 -0.27640016148E+02  0.52804147578E+01  0.11912466381E+02  0.30573847124E+02  0.10000000000E+01 0.  0.
<mgrwt>
<rscale>  0 0.12500090E+03</rscale>
<asrwt>0</asrwt>
<pdfrwt beam="2">  1        4 0.24648284E-02 0.12500090E+03</pdfrwt>
<pdfrwt beam="1">  1       -4 0.99051168E-01 0.12500090E+03</pdfrwt>
<totfact> 0.10445135E+03</totfact>
</mgrwt>
</event>
<event>
 5    1  0.1431256E-002  0.1250016E+03  0.7818608E-02  0.1235067E+00
          4   -1    0    0  501    0  0.00000000000E+00  0.00000000000E+00  0.34495525468E+02  0.34518895946E+02  0.12700000000E+01 0. -1.
         -4   -1    0    0    0  501 -0.00000000000E+00 -0.00000000000E+00 -0.11317691540E+03  0.11318404074E+03  0.12700000000E+01 0. -1.
         25    2    1    2    0    0  0.00000000000E+00  0.00000000000E+00 -0.78681389930E+02  0.14770293669E+03  0.12500158553E+03 0.  0.
    9000005    1    3    3    0    0  0.34547786562E+02 -0.34189646148E+02 -0.85753513532E+02  0.98575587968E+02  0.10000000000E+01 0.  0.
    9000005    1    3    3    0    0 -0.34547786562E+02  0.34189646148E+02  0.70721236021E+01  0.49127348721E+02  0.10000000000E+01 0.  0.
<mgrwt>
<rscale>  0 0.12500159E+03</rscale>
<asrwt>0</asrwt>
<pdfrwt beam="1">  1        4 0.86276936E-02 0.12500159E+03</pdfrwt>
<pdfrwt beam="2">  1       -4 0.28298040E-01 0.12500159E+03</pdfrwt>
<totfact> 0.18651619E+03</totfact>
</mgrwt>
</event>
<event>
 5    1  0.1431256E-002  0.1250005E+03  0.7818608E-02  0.1235068E+00
         -4   -1    0    0    0  501 -0.00000000000E+00  0.00000000000E+00  0.39851185650E+02  0.39871417052E+02  0.12700000000E+01 0.  1.
          4   -1    0    0  501    0  0.00000000000E+00 -0.00000000000E+00 -0.97972517082E+02  0.97980748126E+02  0.12700000000E+01 0.  1.
         25    2    1    2    0    0  0.00000000000E+00  0.00000000000E+00 -0.58121331432E+02  0.13785216518E+03  0.12500052111E+03 0.  0.
    9000005    1    3    3    0    0 -0.22618976314E+02 -0.36139317557E+02 -0.79448638954E+02  0.90170696984E+02  0.10000000000E+01 0.  0.
    9000005    1    3    3    0    0  0.22618976314E+02  0.36139317557E+02  0.21327307523E+02  0.47681468194E+02  0.10000000000E+01 0.  0.
<mgrwt>
<rscale>  0 0.12500052E+03</rscale>
<asrwt>0</asrwt>
<pdfrwt beam="2">  1        4 0.24496687E-01 0.12500052E+03</pdfrwt>
<pdfrwt beam="1">  1       -4 0.99663544E-02 0.12500052E+03</pdfrwt>
<totfact> 0.19150534E+03</totfact>
</mgrwt>
</event>
<event>
 5    1  0.1431256E-002  0.1249986E+03  0.7818608E-02  0.1235071E+00
         -4   -1    0    0    0  501 -0.00000000000E+00  0.00000000000E+00  0.11659624676E+03  0.11660316316E+03  0.12700000000E+01 0.  1.
          4   -1    0    0  501    0  0.00000000000E+00 -0.00000000000E+00 -0.33481688180E+02  0.33505765823E+02  0.12700000000E+01 0.  1.
         25    2    1    2    0    0  0.00000000000E+00  0.00000000000E+00  0.83114558582E+02  0.15010892898E+03  0.12499864284E+03 0.  0.
    9000005    1    3    3    0    0  0.56321714741E+02  0.26789383407E+02  0.46263545894E+02  0.77660300626E+02  0.10000000000E+01 0.  0.
    9000005    1    3    3    0    0 -0.56321714741E+02 -0.26789383407E+02  0.36851012689E+02  0.72448628357E+02  0.10000000000E+01 0.  0.
<mgrwt>
<rscale>  0 0.12499864E+03</rscale>
<asrwt>0</asrwt>
<pdfrwt beam="2">  1        4 0.83742964E-02 0.12499864E+03</pdfrwt>
<pdfrwt beam="1">  1       -4 0.29152936E-01 0.12499864E+03</pdfrwt>
<totfact> 0.18534011E+03</totfact>
</mgrwt>
</event>
<event>
 5    1  0.1431256E-002  0.1249939E+03  0.7818608E-02  0.1235079E+00
         -4   -1    0    0    0  501 -0.00000000000E+00  0.00000000000E+00  0.88342613330E+02  0.88351741522E+02  0.12700000000E+01 0.  1.
          4   -1    0    0  501    0  0.00000000000E+00 -0.00000000000E+00 -0.44192203694E+02  0.44210448621E+02  0.12700000000E+01 0.  1.
         25    2    1    2    0    0  0.00000000000E+00  0.00000000000E+00  0.44150409636E+02  0.13256219014E+03  0.12499390219E+03 0.  0.
    9000005    1    3    3    0    0  0.56477221471E+02  0.26544201114E+02  0.18622675000E+02  0.65131215113E+02  0.10000000000E+01 0.  0.
    9000005    1    3    3    0    0 -0.56477221471E+02 -0.26544201114E+02  0.25527734636E+02  0.67430975030E+02  0.10000000000E+01 0.  0.
<mgrwt>
<rscale>  0 0.12499390E+03</rscale>
<asrwt>0</asrwt>
<pdfrwt beam="2">  1        4 0.11051473E-01 0.12499390E+03</pdfrwt>
<pdfrwt beam="1">  1       -4 0.22089075E-01 0.12499390E+03</pdfrwt>
<totfact> 0.19430367E+03</totfact>
</mgrwt>
</event>
<event>
 5    1  0.1431256E-002  0.1249913E+03  0.7818608E-02  0.1235083E+00
         -4   -1    0    0    0  501 -0.00000000000E+00  0.00000000000E+00  0.32438041463E+01  0.34835564212E+01  0.12700000000E+01 0.  1.
          4   -1    0    0  501    0  0.00000000000E+00 -0.00000000000E+00 -0.11609010514E+04  0.11609017461E+04  0.12700000000E+01 0.  1.
         25    2    1    2    0    0  0.00000000000E+00  0.00000000000E+00 -0.11576572473E+04  0.11643853025E+04  0.12499132191E+03 0.  0.
    9000005    1    3    3    0    0  0.32245267496E+02  0.80104445594E+01 -0.10718396079E+04  0.10723549177E+04  0.10000000000E+01 0.  0.
    9000005    1    3    3    0    0 -0.32245267496E+02 -0.80104445594E+01 -0.85817639373E+02  0.92030384795E+02  0.10000000000E+01 0.  0.
<mgrwt>
<rscale>  0 0.12499132E+03</rscale>
<asrwt>0</asrwt>
<pdfrwt beam="2">  1        4 0.29025395E+00 0.12499132E+03</pdfrwt>
<pdfrwt beam="1">  1       -4 0.84101088E-03 0.12499132E+03</pdfrwt>
<totfact> 0.27114480E+02</totfact>
</mgrwt>
</event>
<event>
 5    1  0.1431256E-002  0.1249994E+03  0.7818608E-02  0.1235070E+00
         -4   -1    0    0    0  501 -0.00000000000E+00  0.00000000000E+00  0.26963714309E+02  0.26993606453E+02  0.12700000000E+01 0. -1.
          4   -1    0    0  501    0  0.00000000000E+00 -0.00000000000E+00 -0.14475627621E+03  0.14476184719E+03  0.12700000000E+01 0. -1.
         25    2    1    2    0    0  0.00000000000E+00  0.00000000000E+00 -0.11779256190E+03  0.17175545364E+03  0.12499939287E+03 0.  0.
    9000005    1    3    3    0    0  0.57277679131E+01  0.57326330941E+02 -0.92161255826E+02  0.10869136405E+03  0.10000000000E+01 0.  0.
    9000005    1    3    3    0    0 -0.57277679131E+01 -0.57326330941E+02 -0.25631306070E+02  0.63064089586E+02  0.10000000000E+01 0.  0.
<mgrwt>
<rscale>  0 0.12499939E+03</rscale>
<asrwt>0</asrwt>
<pdfrwt beam="2">  1        4 0.36193500E-01 0.12499939E+03</pdfrwt>
<pdfrwt beam="1">  1       -4 0.67453619E-02 0.12499939E+03</pdfrwt>
<totfact> 0.17518405E+03</totfact>
</mgrwt>
</event>
<event>
 5    1  0.1431256E-002  0.1250078E+03  0.7818608E-02  0.1235057E+00
         -4   -1    0    0    0  501 -0.00000000000E+00  0.00000000000E+00  0.62446888987E+01  0.63725222198E+01  0.12700000000E+01 0. -1.
          4   -1    0    0  501    0  0.00000000000E+00 -0.00000000000E+00 -0.61914238873E+03  0.61914369125E+03  0.12700000000E+01 0. -1.
         25    2    1    2    0    0  0.00000000000E+00  0.00000000000E+00 -0.61289769983E+03  0.62551621347E+03  0.12500777121E+03 0.  0.
    9000005    1    3    3    0    0  0.55550398333E+02 -0.23121045714E+02 -0.39096839837E+03  0.39557264571E+03  0.10000000000E+01 0.  0.
    9000005    1    3    3    0    0 -0.55550398333E+02  0.23121045714E+02 -0.22192930146E+03  0.22994356776E+03  0.10000000000E+01 0.  0.
<mgrwt>
<rscale>  0 0.12500777E+03</rscale>
<asrwt>0</asrwt>
<pdfrwt beam="2">  1        4 0.15480153E+00 0.12500777E+03</pdfrwt>
<pdfrwt beam="1">  1       -4 0.15773163E-02 0.12500777E+03</pdfrwt>
<totfact> 0.70369755E+02</totfact>
</mgrwt>
</event>
<event>
 5    1  0.1431256E-002  0.1250000E+03  0.7818608E-02  0.1235069E+00
         -4   -1    0    0    0  501 -0.00000000000E+00  0.00000000000E+00  0.21261374995E+03  0.21261754295E+03  0.12700000000E+01 0.  1.
          4   -1    0    0  501    0  0.00000000000E+00 -0.00000000000E+00 -0.18346606497E+02  0.18390510323E+02  0.12700000000E+01 0.  1.
         25    2    1    2    0    0  0.00000000000E+00  0.00000000000E+00  0.19426714346E+03  0.23100805327E+03  0.12499999060E+03 0.  0.
    9000005    1    3    3    0    0  0.61599670678E+02  0.47178787076E+01  0.11451634611E+03  0.13012214006E+03  0.10000000000E+01 0.  0.
    9000005    1    3    3    0    0 -0.61599670678E+02 -0.47178787076E+01  0.79750797349E+02  0.10088591321E+03  0.10000000000E+01 0.  0.
<mgrwt>
<rscale>  0 0.12499999E+03</rscale>
<asrwt>0</asrwt>
<pdfrwt beam="2">  1        4 0.45926138E-02 0.12499999E+03</pdfrwt>
<pdfrwt beam="1">  1       -4 0.53159399E-01 0.12499999E+03</pdfrwt>
<totfact> 0.15151362E+03</totfact>
</mgrwt>
</event>
<event>
 5    1  0.1431256E-002  0.1249945E+03  0.7818608E-02  0.1235078E+00
         -4   -1    0    0    0  501 -0.00000000000E+00  0.00000000000E+00  0.65798414734E+02  0.65810669967E+02  0.12700000000E+01 0. -1.
          4   -1    0    0  501    0  0.00000000000E+00 -0.00000000000E+00 -0.59337089565E+02  0.59350679002E+02  0.12700000000E+01 0. -1.
         25    2    1    2    0    0  0.00000000000E+00  0.00000000000E+00  0.64613251693E+01  0.12516134897E+03  0.12499445809E+03 0.  0.
    9000005    1    3    3    0    0 -0.48379673923E+02  0.27486372756E+02  0.31708221613E+02  0.64050799011E+02  0.10000000000E+01 0.  0.
    9000005    1    3    3    0    0  0.48379673923E+02 -0.27486372756E+02 -0.25246896444E+02  0.61110549958E+02  0.10000000000E+01 0.  0.
<mgrwt>
<rscale>  0 0.12499446E+03</rscale>
<asrwt>0</asrwt>
<pdfrwt beam="2">  1        4 0.14837503E-01 0.12499446E+03</pdfrwt>
<pdfrwt beam="1">  1       -4 0.16452834E-01 0.12499446E+03</pdfrwt>
<totfact> 0.19828879E+03</totfact>
</mgrwt>
</event>
<event>
 5    1  0.1431256E-002  0.1249924E+03  0.7818608E-02  0.1235081E+00
         -4   -1    0    0    0  501 -0.00000000000E+00  0.00000000000E+00  0.65046693970E+02  0.65059090806E+02  0.12700000000E+01 0.  1.
          4   -1    0    0  501    0  0.00000000000E+00 -0.00000000000E+00 -0.60020908327E+02  0.60034342975E+02  0.12700000000E+01 0.  1.
         25    2    1    2    0    0  0.00000000000E+00  0.00000000000E+00  0.50257856431E+01  0.12509343378E+03  0.12499243439E+03 0.  0.
    9000005    1    3    3    0    0 -0.50647804014E+02 -0.19181345658E+02 -0.28683645483E+02  0.61293356825E+02  0.10000000000E+01 0.  0.
    9000005    1    3    3    0    0  0.50647804014E+02  0.19181345658E+02  0.33709431127E+02  0.63800076956E+02  0.10000000000E+01 0.  0.
<mgrwt>
<rscale>  0 0.12499243E+03</rscale>
<asrwt>0</asrwt>
<pdfrwt beam="2">  1        4 0.15008456E-01 0.12499243E+03</pdfrwt>
<pdfrwt beam="1">  1       -4 0.16264902E-01 0.12499243E+03</pdfrwt>
<totfact> 0.19833500E+03</totfact>
</mgrwt>
</event>
<event>
 5    1  0.1431256E-002  0.1249983E+03  0.7818608E-02  0.1235072E+00
          4   -1    0    0  501    0  0.00000000000E+00  0.00000000000E+00  0.27439643639E+02  0.27469017875E+02  0.12700000000E+01 0.  1.
         -4   -1    0    0    0  501 -0.00000000000E+00 -0.00000000000E+00 -0.14224572284E+03  0.14225139214E+03  0.12700000000E+01 0.  1.
         25    2    1    2    0    0  0.00000000000E+00  0.00000000000E+00 -0.11480607920E+03  0.16972041001E+03  0.12499832701E+03 0.  0.
    9000005    1    3    3    0    0 -0.61852820652E+02  0.79901774551E+01 -0.52052091927E+02  0.81240597193E+02  0.10000000000E+01 0.  0.
    9000005    1    3    3    0    0  0.61852820652E+02 -0.79901774551E+01 -0.62753987272E+02  0.88479812821E+02  0.10000000000E+01 0.  0.
<mgrwt>
<rscale>  0 0.12499833E+03</rscale>
<asrwt>0</asrwt>
<pdfrwt beam="1">  1        4 0.68642917E-02 0.12499833E+03</pdfrwt>
<pdfrwt beam="2">  1       -4 0.35565809E-01 0.12499833E+03</pdfrwt>
<totfact> 0.17610349E+03</totfact>
</mgrwt>
</event>
<event>
 5    1  0.1431256E-002  0.1249940E+03  0.7818608E-02  0.1235079E+00
         -4   -1    0    0    0  501 -0.00000000000E+00  0.00000000000E+00  0.95363285655E+02  0.95371741888E+02  0.12700000000E+01 0. -1.
          4   -1    0    0  501    0  0.00000000000E+00 -0.00000000000E+00 -0.40937729064E+02  0.40957423758E+02  0.12700000000E+01 0. -1.
         25    2    1    2    0    0  0.00000000000E+00  0.00000000000E+00  0.54425556591E+02  0.13632916565E+03  0.12499400064E+03 0.  0.
    9000005    1    3    3    0    0  0.28477143545E+02 -0.23436979401E+02  0.82231739387E+02  0.90129344114E+02  0.10000000000E+01 0.  0.
    9000005    1    3    3    0    0 -0.28477143545E+02  0.23436979401E+02 -0.27806182796E+02  0.46199821532E+02  0.10000000000E+01 0.  0.
<mgrwt>
<rscale>  0 0.12499400E+03</rscale>
<asrwt>0</asrwt>
<pdfrwt beam="2">  1        4 0.10237951E-01 0.12499400E+03</pdfrwt>
<pdfrwt beam="1">  1       -4 0.23844340E-01 0.12499400E+03</pdfrwt>
<totfact> 0.19232433E+03</totfact>
</mgrwt>
</event>
<event>
 5    1  0.1431256E-002  0.1250006E+03  0.7818608E-02  0.1235068E+00
         -4   -1    0    0    0  501 -0.00000000000E+00  0.00000000000E+00  0.81474128968E+02  0.81484026601E+02  0.12700000000E+01 0.  1.
          4   -1    0    0  501    0  0.00000000000E+00 -0.00000000000E+00 -0.47923897805E+02  0.47940722573E+02  0.12700000000E+01 0.  1.
         25    2    1    2    0    0  0.00000000000E+00  0.00000000000E+00  0.33550231163E+02  0.12942474917E+03  0.12500059075E+03 0.  0.
    9000005    1    3    3    0    0 -0.60786841663E+02  0.13659741310E+02  0.21811243560E+02  0.66017868775E+02  0.10000000000E+01 0.  0.
    9000005    1    3    3    0    0  0.60786841663E+02 -0.13659741310E+02  0.11738987603E+02  0.63406880399E+02  0.10000000000E+01 0.  0.
<mgrwt>
<rscale>  0 0.12500059E+03</rscale>
<asrwt>0</asrwt>
<pdfrwt beam="2">  1        4 0.11984315E-01 0.12500059E+03</pdfrwt>
<pdfrwt beam="1">  1       -4 0.20371872E-01 0.12500059E+03</pdfrwt>
<totfact> 0.19595087E+03</totfact>
</mgrwt>
</event>
<event>
 5    1  0.1431256E-002  0.1249998E+03  0.7818608E-02  0.1235070E+00
         -4   -1    0    0    0  501 -0.00000000000E+00  0.00000000000E+00  0.10065615801E+03  0.10066416962E+03  0.12700000000E+01 0.  1.
          4   -1    0    0  501    0  0.00000000000E+00 -0.00000000000E+00 -0.38787788392E+02  0.38808574160E+02  0.12700000000E+01 0.  1.
         25    2    1    2    0    0  0.00000000000E+00  0.00000000000E+00  0.61868369620E+02  0.13947274378E+03  0.12499980440E+03 0.  0.
    9000005    1    3    3    0    0  0.30124722662E+02  0.53988678592E+02  0.41097096700E+02  0.74244512853E+02  0.10000000000E+01 0.  0.
    9000005    1    3    3    0    0 -0.30124722662E+02 -0.53988678592E+02  0.20771272919E+02  0.65228230930E+02  0.10000000000E+01 0.  0.
<mgrwt>
<rscale>  0 0.12499980E+03</rscale>
<asrwt>0</asrwt>
<pdfrwt beam="2">  1        4 0.97005468E-02 0.12499980E+03</pdfrwt>
<pdfrwt beam="1">  1       -4 0.25167639E-01 0.12499980E+03</pdfrwt>
<totfact> 0.19067435E+03</totfact>
</mgrwt>
</event>
<event>
 4    1  0.1431256E-002  0.1249087E+03  0.7818608E-02  0.1235212E+00
          4   -1    0    0  501    0  0.00000000000E+00  0.00000000000E+00  0.11800750911E+03  0.11801434280E+03  0.12700000000E+01 0.  1.
         -4   -1    0    0    0  501 -0.00000000000E+00 -0.00000000000E+00 -0.33033366627E+02  0.33057770807E+02  0.12700000000E+01 0.  1.
    9000005    1    1    2    0    0 -0.25583378415E+02  0.40386325640E+02 -0.61022431467E+01  0.48205828706E+02  0.10000000000E+01 0.  0.
    9000005    1    1    2    0    0  0.25583378415E+02 -0.40386325640E+02  0.91076385627E+02  0.10286628490E+03  0.10000000000E+01 0.  0.
<mgrwt>
<rscale>  0 0.12490868E+03</rscale>
<asrwt>0</asrwt>
<pdfrwt beam="1">  1        4 0.29505782E-01 0.12490868E+03</pdfrwt>
<pdfrwt beam="2">  1       -4 0.82622465E-02 0.12490868E+03</pdfrwt>
<totfact> 0.18525525E+03</totfact>
</mgrwt>
</event>
<event>
 5    1  0.1431256E-002  0.1250006E+03  0.7818608E-02  0.1235068E+00
         -4   -1    0    0    0  501 -0.00000000000E+00  0.00000000000E+00  0.41343041919E+02  0.41362543624E+02  0.12700000000E+01 0. -1.
          4   -1    0    0  501    0  0.00000000000E+00 -0.00000000000E+00 -0.94438702795E+02  0.94447241811E+02  0.12700000000E+01 0. -1.
         25    2    1    2    0    0  0.00000000000E+00  0.00000000000E+00 -0.53095660877E+02  0.13580978543E+03  0.12500059446E+03 0.  0.
    9000005    1    3    3    0    0  0.11668734407E+02 -0.37197739936E+02 -0.79612404667E+02  0.88650810464E+02  0.10000000000E+01 0.  0.
    9000005    1    3    3    0    0 -0.11668734407E+02  0.37197739936E+02  0.26516743791E+02  0.47158974971E+02  0.10000000000E+01 0.  0.
<mgrwt>
<rscale>  0 0.12500059E+03</rscale>
<asrwt>0</asrwt>
<pdfrwt beam="2">  1        4 0.23613180E-01 0.12500059E+03</pdfrwt>
<pdfrwt beam="1">  1       -4 0.10339266E-01 0.12500059E+03</pdfrwt>
<totfact> 0.19256538E+03</totfact>
</mgrwt>
</event>
<event>
 5    1  0.1431256E-002  0.1249983E+03  0.7818608E-02  0.1235072E+00
         -4   -1    0    0    0  501 -0.00000000000E+00  0.00000000000E+00  0.56980786776E+02  0.56994938035E+02  0.12700000000E+01 0.  1.
          4   -1    0    0  501    0  0.00000000000E+00 -0.00000000000E+00 -0.68523417768E+02  0.68535185726E+02  0.12700000000E+01 0.  1.
         25    2    1    2    0    0  0.00000000000E+00  0.00000000000E+00 -0.11542630992E+02  0.12553012376E+03  0.12499831855E+03 0.  0.
    9000005    1    3    3    0    0  0.61613698687E+02  0.32940876767E+01 -0.15715262350E+02  0.63679418576E+02  0.10000000000E+01 0.  0.
    9000005    1    3    3    0    0 -0.61613698687E+02 -0.32940876767E+01  0.41726313588E+01  0.61850705185E+02  0.10000000000E+01 0.  0.
<mgrwt>
<rscale>  0 0.12499832E+03</rscale>
<asrwt>0</asrwt>
<pdfrwt beam="2">  1        4 0.17134094E-01 0.12499832E+03</pdfrwt>
<pdfrwt beam="1">  1       -4 0.14248437E-01 0.12499832E+03</pdfrwt>
<totfact> 0.19807112E+03</totfact>
</mgrwt>
</event>
<event>
 5    1  0.1431256E-002  0.1250030E+03  0.7818608E-02  0.1235065E+00
          4   -1    0    0  501    0  0.00000000000E+00  0.00000000000E+00  0.10629724216E+02  0.10705322830E+02  0.12700000000E+01 0. -1.
         -4   -1    0    0    0  501 -0.00000000000E+00 -0.00000000000E+00 -0.36612246025E+03  0.36612466292E+03  0.12700000000E+01 0. -1.
         25    2    1    2    0    0  0.00000000000E+00  0.00000000000E+00 -0.35549273603E+03  0.37682998575E+03  0.12500301112E+03 0.  0.
    9000005    1    3    3    0    0 -0.59872043523E+02  0.79454938725E+01 -0.22613423217E+03  0.23406299030E+03  0.10000000000E+01 0.  0.
    9000005    1    3    3    0    0  0.59872043523E+02 -0.79454938725E+01 -0.12935850386E+03  0.14276699545E+03  0.10000000000E+01 0.  0.
<mgrwt>
<rscale>  0 0.12500301E+03</rscale>
<asrwt>0</asrwt>
<pdfrwt beam="1">  1        4 0.26671574E-02 0.12500301E+03</pdfrwt>
<pdfrwt beam="2">  1       -4 0.91540298E-01 0.12500301E+03</pdfrwt>
<totfact> 0.11061811E+03</totfact>
</mgrwt>
</event>
<event>
 5    1  0.1431256E-002  0.1250002E+03  0.7818608E-02  0.1235069E+00
         -4   -1    0    0    0  501 -0.00000000000E+00  0.00000000000E+00  0.22213455896E+03  0.22213818939E+03  0.12700000000E+01 0.  1.
          4   -1    0    0  501    0  0.00000000000E+00 -0.00000000000E+00 -0.17558405276E+02  0.17604274930E+02  0.12700000000E+01 0.  1.
         25    2    1    2    0    0  0.00000000000E+00  0.00000000000E+00  0.20457615369E+03  0.23974246432E+03  0.12500018616E+03 0.  0.
    9000005    1    3    3    0    0  0.46287834650E+02  0.40963995982E+02  0.11993403735E+03  0.13492881797E+03  0.10000000000E+01 0.  0.
    9000005    1    3    3    0    0 -0.46287834650E+02 -0.40963995982E+02  0.84642116333E+02  0.10481364635E+03  0.10000000000E+01 0.  0.
<mgrwt>
<rscale>  0 0.12500019E+03</rscale>
<asrwt>0</asrwt>
<pdfrwt beam="2">  1        4 0.43957889E-02 0.12500019E+03</pdfrwt>
<pdfrwt beam="1">  1       -4 0.55539827E-01 0.12500019E+03</pdfrwt>
<totfact> 0.14845265E+03</totfact>
</mgrwt>
</event>
<event>
 5    1  0.1431256E-002  0.1250032E+03  0.7818608E-02  0.1235064E+00
         -4   -1    0    0    0  501 -0.00000000000E+00  0.00000000000E+00  0.88824328665E+01  0.89727651049E+01  0.12700000000E+01 0.  1.
          4   -1    0    0  501    0  0.00000000000E+00 -0.00000000000E+00 -0.43747914305E+03  0.43748098645E+03  0.12700000000E+01 0.  1.
         25    2    1    2    0    0  0.00000000000E+00  0.00000000000E+00 -0.42859671018E+03  0.44645375155E+03  0.12500324914E+03 0.  0.
    9000005    1    3    3    0    0 -0.14752763753E+02  0.57441440284E+02 -0.28467576239E+03  0.29078936156E+03  0.10000000000E+01 0.  0.
    9000005    1    3    3    0    0  0.14752763753E+02 -0.57441440284E+02 -0.14392094779E+03  0.15566438999E+03  0.10000000000E+01 0.  0.
<mgrwt>
<rscale>  0 0.12500325E+03</rscale>
<asrwt>0</asrwt>
<pdfrwt beam="2">  1        4 0.10938124E+00 0.12500325E+03</pdfrwt>
<pdfrwt beam="1">  1       -4 0.22321316E-02 0.12500325E+03</pdfrwt>
<totfact> 0.96650067E+02</totfact>
</mgrwt>
</event>
<event>
 5    1  0.1431256E-002  0.1249966E+03  0.7818608E-02  0.1235075E+00
         -4   -1    0    0    0  501 -0.00000000000E+00  0.00000000000E+00  0.57991664968E+03  0.57991804031E+03  0.12700000000E+01 0.  1.
          4   -1    0    0  501    0  0.00000000000E+00 -0.00000000000E+00 -0.66742379734E+01  0.67939938568E+01  0.12700000000E+01 0.  1.
         25    2    1    2    0    0  0.00000000000E+00  0.00000000000E+00  0.57324241171E+03  0.58671203417E+03  0.12499659378E+03 0.  0.
    9000005    1    3    3    0    0 -0.20971604688E+02 -0.25747212364E+02  0.38144944755E+02  0.50584226376E+02  0.10000000000E+01 0.  0.
    9000005    1    3    3    0    0  0.20971604688E+02  0.25747212364E+02  0.53509746696E+03  0.53612780779E+03  0.10000000000E+01 0.  0.
<mgrwt>
<rscale>  0 0.12499659E+03</rscale>
<asrwt>0</asrwt>
<pdfrwt beam="2">  1        4 0.16837028E-02 0.12499659E+03</pdfrwt>
<pdfrwt beam="1">  1       -4 0.14499430E+00 0.12499659E+03</pdfrwt>
<totfact> 0.75206449E+02</totfact>
</mgrwt>
</event>
<event>
 5    1  0.1431256E-002  0.1249995E+03  0.7818608E-02  0.1235070E+00
          4   -1    0    0  501    0  0.00000000000E+00  0.00000000000E+00  0.94145107601E+03  0.94145193261E+03  0.12700000000E+01 0.  1.
         -4   -1    0    0    0  501 -0.00000000000E+00 -0.00000000000E+00 -0.40510884934E+01  0.42454938442E+01  0.12700000000E+01 0.  1.
         25    2    1    2    0    0  0.00000000000E+00  0.00000000000E+00  0.93739998752E+03  0.94569742646E+03  0.12499954324E+03 0.  0.
    9000005    1    3    3    0    0  0.48373479399E+02 -0.90770427335E+01  0.17736662532E+03  0.18407146979E+03  0.10000000000E+01 0.  0.
    9000005    1    3    3    0    0 -0.48373479399E+02  0.90770427335E+01  0.76003336220E+03  0.76162595667E+03  0.10000000000E+01 0.  0.
<mgrwt>
<rscale>  0 0.12499954E+03</rscale>
<asrwt>0</asrwt>
<pdfrwt beam="1">  1        4 0.23538726E+00 0.12499954E+03</pdfrwt>
<pdfrwt beam="2">  1       -4 0.10371795E-02 0.12499954E+03</pdfrwt>
<totfact> 0.40886465E+02</totfact>
</mgrwt>
</event>
<event>
 5    1  0.1431256E-002  0.1249976E+03  0.7818608E-02  0.1235073E+00
         -4   -1    0    0    0  501 -0.00000000000E+00  0.00000000000E+00  0.22465573635E+03  0.22465932604E+03  0.12700000000E+01 0.  1.
          4   -1    0    0  501    0  0.00000000000E+00 -0.00000000000E+00 -0.17360128459E+02  0.17406520621E+02  0.12700000000E+01 0.  1.
         25    2    1    2    0    0  0.00000000000E+00  0.00000000000E+00  0.20729560790E+03  0.24206584666E+03  0.12499762025E+03 0.  0.
    9000005    1    3    3    0    0  0.12151598361E+02  0.38858484317E+01  0.22211644339E+03  0.22248477607E+03  0.10000000000E+01 0.  0.
    9000005    1    3    3    0    0 -0.12151598361E+02 -0.38858484317E+01 -0.14820835492E+02  0.19581070590E+02  0.10000000000E+01 0.  0.
<mgrwt>
<rscale>  0 0.12499762E+03</rscale>
<asrwt>0</asrwt>
<pdfrwt beam="2">  1        4 0.43462799E-02 0.12499762E+03</pdfrwt>
<pdfrwt beam="1">  1       -4 0.56170182E-01 0.12499762E+03</pdfrwt>
<totfact> 0.14766354E+03</totfact>
</mgrwt>
</event>
<event>
 5    1  0.1431256E-002  0.1249977E+03  0.7818608E-02  0.1235073E+00
          4   -1    0    0  501    0  0.00000000000E+00  0.00000000000E+00  0.13422430755E+02  0.13482379144E+02  0.12700000000E+01 0.  1.
         -4   -1    0    0    0  501 -0.00000000000E+00 -0.00000000000E+00 -0.29030373710E+03  0.29030651504E+03  0.12700000000E+01 0.  1.
         25    2    1    2    0    0  0.00000000000E+00  0.00000000000E+00 -0.27688130635E+03  0.30378889419E+03  0.12499773768E+03 0.  0.
    9000005    1    3    3    0    0  0.14570346943E+02 -0.24693181731E+02 -0.27338688274E+03  0.27488804246E+03  0.10000000000E+01 0.  0.
    9000005    1    3    3    0    0 -0.14570346943E+02  0.24693181731E+02 -0.34944236069E+01  0.28900851724E+02  0.10000000000E+01 0.  0.
<mgrwt>
<rscale>  0 0.12499774E+03</rscale>
<asrwt>0</asrwt>
<pdfrwt beam="1">  1        4 0.33634494E-02 0.12499774E+03</pdfrwt>
<pdfrwt beam="2">  1       -4 0.72583755E-01 0.12499774E+03</pdfrwt>
<totfact> 0.12866195E+03</totfact>
</mgrwt>
</event>
<event>
 5    1  0.1431256E-002  0.1250012E+03  0.7818608E-02  0.1235067E+00
          4   -1    0    0  501    0  0.00000000000E+00  0.00000000000E+00  0.25416888735E+02  0.25448597859E+02  0.12700000000E+01 0. -1.
         -4   -1    0    0    0  501 -0.00000000000E+00 -0.00000000000E+00 -0.15355988886E+03  0.15356514047E+03  0.12700000000E+01 0. -1.
         25    2    1    2    0    0  0.00000000000E+00  0.00000000000E+00 -0.12814300013E+03  0.17901373833E+03  0.12500116011E+03 0.  0.
    9000005    1    3    3    0    0  0.21843296367E+02  0.41244473797E+02 -0.12358689735E+03  0.13210964163E+03  0.10000000000E+01 0.  0.
    9000005    1    3    3    0    0 -0.21843296367E+02 -0.41244473797E+02 -0.45561027810E+01  0.46904096703E+02  0.10000000000E+01 0.  0.
<mgrwt>
<rscale>  0 0.12500116E+03</rscale>
<asrwt>0</asrwt>
<pdfrwt beam="1">  1        4 0.63588427E-02 0.12500116E+03</pdfrwt>
<pdfrwt beam="2">  1       -4 0.38394590E-01 0.12500116E+03</pdfrwt>
<totfact> 0.17197526E+03</totfact>
</mgrwt>
</event>
<event>
 5    1  0.1431256E-002  0.1250087E+03  0.7818608E-02  0.1235056E+00
         -4   -1    0    0    0  501 -0.00000000000E+00  0.00000000000E+00  0.66741026919E+02  0.66753109098E+02  0.12700000000E+01 0. -1.
          4   -1    0    0  501    0  0.00000000000E+00 -0.00000000000E+00 -0.58512384942E+02  0.58526165872E+02  0.12700000000E+01 0. -1.
         25    2    1    2    0    0  0.00000000000E+00  0.00000000000E+00  0.82286419768E+01  0.12527927497E+03  0.12500874445E+03 0.  0.
    9000005    1    3    3    0    0 -0.57720298922E+02  0.10772232109E+02 -0.17335798828E+02  0.61230742387E+02  0.10000000000E+01 0.  0.
    9000005    1    3    3    0    0  0.57720298922E+02 -0.10772232109E+02  0.25564440805E+02  0.64048532582E+02  0.10000000000E+01 0.  0.
<mgrwt>
<rscale>  0 0.12500874E+03</rscale>
<asrwt>0</asrwt>
<pdfrwt beam="2">  1        4 0.14631329E-01 0.12500874E+03</pdfrwt>
<pdfrwt beam="1">  1       -4 0.16688490E-01 0.12500874E+03</pdfrwt>
<totfact> 0.19815863E+03</totfact>
</mgrwt>
</event>
<event>
 5    1  0.1431256E-002  0.1250098E+03  0.7818608E-02  0.1235054E+00
          4   -1    0    0  501    0  0.00000000000E+00  0.00000000000E+00  0.10188017505E+02  0.10266869079E+02  0.12700000000E+01 0.  1.
         -4   -1    0    0    0  501 -0.00000000000E+00 -0.00000000000E+00 -0.38191784530E+03  0.38191995687E+03  0.12700000000E+01 0.  1.
         25    2    1    2    0    0  0.00000000000E+00  0.00000000000E+00 -0.37172982779E+03  0.39218682595E+03  0.12500976593E+03 0.  0.
    9000005    1    3    3    0    0 -0.45898165479E+01 -0.52148965058E+02 -0.78771170908E+02  0.94585825253E+02  0.10000000000E+01 0.  0.
    9000005    1    3    3    0    0  0.45898165479E+01  0.52148965058E+02 -0.29295865689E+03  0.29760100070E+03  0.10000000000E+01 0.  0.
<mgrwt>
<rscale>  0 0.12500977E+03</rscale>
<asrwt>0</asrwt>
<pdfrwt beam="1">  1        4 0.25571260E-02 0.12500977E+03</pdfrwt>
<pdfrwt beam="2">  1       -4 0.95489534E-01 0.12500977E+03</pdfrwt>
<totfact> 0.10729544E+03</totfact>
</mgrwt>
</event>
<event>
 4    1  0.1431256E-002  0.1249086E+03  0.7818608E-02  0.1235212E+00
          4   -1    0    0  501    0  0.00000000000E+00  0.00000000000E+00  0.15423526387E+03  0.15424049248E+03  0.12700000000E+01 0. -1.
         -4   -1    0    0    0  501 -0.00000000000E+00 -0.00000000000E+00 -0.25267935806E+02  0.25299831618E+02  0.12700000000E+01 0. -1.
    9000005    1    1    2    0    0  0.49040888168E+02 -0.23918419789E+02  0.10813913227E+03  0.12112873914E+03  0.10000000000E+01 0.  0.
    9000005    1    1    2    0    0 -0.49040888168E+02  0.23918419789E+02  0.20828195795E+02  0.58411584960E+02  0.10000000000E+01 0.  0.
<mgrwt>
<rscale>  0 0.12490859E+03</rscale>
<asrwt>0</asrwt>
<pdfrwt beam="1">  1        4 0.38563455E-01 0.12490859E+03</pdfrwt>
<pdfrwt beam="2">  1       -4 0.63216247E-02 0.12490859E+03</pdfrwt>
<totfact> 0.17211579E+03</totfact>
</mgrwt>
</event>
<event>
 5    1  0.1431256E-002  0.1250004E+03  0.7818608E-02  0.1235069E+00
          4   -1    0    0  501    0  0.00000000000E+00  0.00000000000E+00  0.33614424457E+02  0.33638407090E+02  0.12700000000E+01 0. -1.
         -4   -1    0    0    0  501 -0.00000000000E+00 -0.00000000000E+00 -0.11613935957E+03  0.11614630318E+03  0.12700000000E+01 0. -1.
         25    2    1    2    0    0  0.00000000000E+00  0.00000000000E+00 -0.82524935118E+02  0.14978471027E+03  0.12500037806E+03 0.  0.
    9000005    1    3    3    0    0 -0.33363759715E+02 -0.43928996783E+02 -0.76451278401E+02  0.94279876908E+02  0.10000000000E+01 0.  0.
    9000005    1    3    3    0    0  0.33363759715E+02  0.43928996783E+02 -0.60736567174E+01  0.55504833363E+02  0.10000000000E+01 0.  0.
<mgrwt>
<rscale>  0 0.12500038E+03</rscale>
<asrwt>0</asrwt>
<pdfrwt beam="1">  1        4 0.84074722E-02 0.12500038E+03</pdfrwt>
<pdfrwt beam="2">  1       -4 0.29038705E-01 0.12500038E+03</pdfrwt>
<totfact> 0.18549209E+03</totfact>
</mgrwt>
</event>
<event>
 5    1  0.1431256E-002  0.1250131E+03  0.7818608E-02  0.1235049E+00
         -4   -1    0    0    0  501 -0.00000000000E+00  0.00000000000E+00  0.20163391790E+02  0.20203347953E+02  0.12700000000E+01 0.  1.
          4   -1    0    0  501    0  0.00000000000E+00 -0.00000000000E+00 -0.19353646667E+03  0.19354063354E+03  0.12700000000E+01 0.  1.
         25    2    1    2    0    0  0.00000000000E+00  0.00000000000E+00 -0.17337307488E+03  0.21374398149E+03  0.12501306544E+03 0.  0.
    9000005    1    3    3    0    0 -0.21499627407E+02  0.58651245968E+02 -0.90047448981E+02  0.10959810993E+03  0.10000000000E+01 0.  0.
    9000005    1    3    3    0    0  0.21499627407E+02 -0.58651245968E+02 -0.83325625899E+02  0.10414587156E+03  0.10000000000E+01 0.  0.
<mgrwt>
<rscale>  0 0.12501307E+03</rscale>
<asrwt>0</asrwt>
<pdfrwt beam="2">  1        4 0.48389626E-01 0.12501307E+03</pdfrwt>
<pdfrwt beam="1">  1       -4 0.50463639E-02 0.12501307E+03</pdfrwt>
<totfact> 0.15781352E+03</totfact>
</mgrwt>
</event>
<event>
 5    1  0.1431256E-002  0.1250008E+03  0.7818608E-02  0.1235068E+00
         -4   -1    0    0    0  501 -0.00000000000E+00  0.00000000000E+00  0.63819319745E+02  0.63831954949E+02  0.12700000000E+01 0.  1.
          4   -1    0    0  501    0  0.00000000000E+00 -0.00000000000E+00 -0.61183453088E+02  0.61196632520E+02  0.12700000000E+01 0.  1.
         25    2    1    2    0    0  0.00000000000E+00  0.00000000000E+00  0.26358666569E+01  0.12502858747E+03  0.12500079956E+03 0.  0.
    9000005    1    3    3    0    0 -0.37836208228E+02 -0.23261333130E+02 -0.42653546649E+02  0.61587282078E+02  0.10000000000E+01 0.  0.
    9000005    1    3    3    0    0  0.37836208228E+02  0.23261333130E+02  0.45289413306E+02  0.63441305391E+02  0.10000000000E+01 0.  0.
<mgrwt>
<rscale>  0 0.12500080E+03</rscale>
<asrwt>0</asrwt>
<pdfrwt beam="2">  1        4 0.15299090E-01 0.12500080E+03</pdfrwt>
<pdfrwt beam="1">  1       -4 0.15958057E-01 0.12500080E+03</pdfrwt>
<totfact> 0.19833134E+03</totfact>
</mgrwt>
</event>
<event>
 5    1  0.1431256E-002  0.1250006E+03  0.7818608E-02  0.1235068E+00
          4   -1    0    0  501    0  0.00000000000E+00  0.00000000000E+00  0.13535303040E+02  0.13594753709E+02  0.12700000000E+01 0.  1.
         -4   -1    0    0    0  501 -0.00000000000E+00 -0.00000000000E+00 -0.28790658166E+03  0.28790938273E+03  0.12700000000E+01 0.  1.
         25    2    1    2    0    0  0.00000000000E+00  0.00000000000E+00 -0.27437127862E+03  0.30150413644E+03  0.12500058303E+03 0.  0.
    9000005    1    3    3    0    0 -0.42029532865E+02 -0.44812095400E+02 -0.16475884846E+03  0.17584391850E+03  0.10000000000E+01 0.  0.
    9000005    1    3    3    0    0  0.42029532865E+02  0.44812095400E+02 -0.10961243016E+03  0.12566021794E+03  0.10000000000E+01 0.  0.
<mgrwt>
<rscale>  0 0.12500058E+03</rscale>
<asrwt>0</asrwt>
<pdfrwt beam="1">  1        4 0.33916082E-02 0.12500058E+03</pdfrwt>
<pdfrwt beam="2">  1       -4 0.71984407E-01 0.12500058E+03</pdfrwt>
<totfact> 0.12928834E+03</totfact>
</mgrwt>
</event>
<event>
 5    1  0.1431256E-002  0.1249989E+03  0.7818608E-02  0.1235071E+00
         -4   -1    0    0    0  501 -0.00000000000E+00  0.00000000000E+00  0.16962853966E+03  0.16963329381E+03  0.12700000000E+01 0.  1.
          4   -1    0    0  501    0  0.00000000000E+00 -0.00000000000E+00 -0.23005257242E+02  0.23040285605E+02  0.12700000000E+01 0.  1.
         25    2    1    2    0    0  0.00000000000E+00  0.00000000000E+00  0.14662328242E+03  0.19267357941E+03  0.12499888502E+03 0.  0.
    9000005    1    3    3    0    0 -0.55494147894E+02 -0.21316589174E+02  0.43614817523E+02  0.73737709024E+02  0.10000000000E+01 0.  0.
    9000005    1    3    3    0    0  0.55494147894E+02  0.21316589174E+02  0.10300846490E+03  0.11893587039E+03  0.10000000000E+01 0.  0.
<mgrwt>
<rscale>  0 0.12499889E+03</rscale>
<asrwt>0</asrwt>
<pdfrwt beam="2">  1        4 0.57562872E-02 0.12499889E+03</pdfrwt>
<pdfrwt beam="1">  1       -4 0.42412107E-01 0.12499889E+03</pdfrwt>
<totfact> 0.16620096E+03</totfact>
</mgrwt>
</event>
<event>
 5    1  0.1431256E-002  0.1250012E+03  0.7818608E-02  0.1235067E+00
          4   -1    0    0  501    0  0.00000000000E+00  0.00000000000E+00  0.10640681098E+04  0.10640688677E+04  0.12700000000E+01 0.  1.
         -4   -1    0    0    0  501 -0.00000000000E+00 -0.00000000000E+00 -0.35605047688E+01  0.37802240950E+01  0.12700000000E+01 0.  1.
         25    2    1    2    0    0  0.00000000000E+00  0.00000000000E+00  0.10605076050E+04  0.10678490918E+04  0.12500121001E+03 0.  0.
    9000005    1    3    3    0    0  0.46601651440E+02 -0.23425191462E+02  0.23619688198E+03  0.24188927337E+03  0.10000000000E+01 0.  0.
    9000005    1    3    3    0    0 -0.46601651440E+02  0.23425191462E+02  0.82431072306E+03  0.82595981844E+03  0.10000000000E+01 0.  0.
<mgrwt>
<rscale>  0 0.12500121E+03</rscale>
<asrwt>0</asrwt>
<pdfrwt beam="1">  1        4 0.26604469E+00 0.12500121E+03</pdfrwt>
<pdfrwt beam="2">  1       -4 0.91768548E-03 0.12500121E+03</pdfrwt>
<totfact> 0.32731847E+02</totfact>
</mgrwt>
</event>
<event>
 5    1  0.1431256E-002  0.1249991E+03  0.7818608E-02  0.1235071E+00
          4   -1    0    0  501    0  0.00000000000E+00  0.00000000000E+00  0.12590406542E+03  0.12591047053E+03  0.12700000000E+01 0.  1.
         -4   -1    0    0    0  501 -0.00000000000E+00 -0.00000000000E+00 -0.31004960057E+02  0.31030959510E+02  0.12700000000E+01 0.  1.
         25    2    1    2    0    0  0.00000000000E+00  0.00000000000E+00  0.94899105366E+02  0.15694143004E+03  0.12499908906E+03 0.  0.
    9000005    1    3    3    0    0  0.46894483229E+02 -0.19630774153E+02  0.93078274955E+02  0.10606142145E+03  0.10000000000E+01 0.  0.
    9000005    1    3    3    0    0 -0.46894483229E+02  0.19630774153E+02  0.18208304112E+01  0.50880008595E+02  0.10000000000E+01 0.  0.
<mgrwt>
<rscale>  0 0.12499909E+03</rscale>
<asrwt>0</asrwt>
<pdfrwt beam="1">  1        4 0.31480067E-01 0.12499909E+03</pdfrwt>
<pdfrwt beam="2">  1       -4 0.77552906E-02 0.12499909E+03</pdfrwt>
<totfact> 0.18203037E+03</totfact>
</mgrwt>
</event>
<event>
 5    1  0.1431256E-002  0.1249995E+03  0.7818608E-02  0.1235070E+00
          4   -1    0    0  501    0  0.00000000000E+00  0.00000000000E+00  0.33031033443E+01  0.35388404462E+01  0.12700000000E+01 0.  1.
         -4   -1    0    0    0  501 -0.00000000000E+00 -0.00000000000E+00 -0.11416078828E+04  0.11416085892E+04  0.12700000000E+01 0.  1.
         25    2    1    2    0    0  0.00000000000E+00  0.00000000000E+00 -0.11383047794E+04  0.11451474297E+04  0.12499945892E+03 0.  0.
    9000005    1    3    3    0    0  0.55474245074E+02  0.18021679016E+02 -0.77462597444E+03  0.77681952412E+03  0.10000000000E+01 0.  0.
    9000005    1    3    3    0    0 -0.55474245074E+02 -0.18021679016E+02 -0.36367880501E+03  0.36832790553E+03  0.10000000000E+01 0.  0.
<mgrwt>
<rscale>  0 0.12499946E+03</rscale>
<asrwt>0</asrwt>
<pdfrwt beam="1">  1        4 0.85533519E-03 0.12499946E+03</pdfrwt>
<pdfrwt beam="2">  1       -4 0.28543022E+00 0.12499946E+03</pdfrwt>
<totfact> 0.28176504E+02</totfact>
</mgrwt>
</event>
<event>
 5    1  0.1431256E-002  0.1250137E+03  0.7818608E-02  0.1235048E+00
         -4   -1    0    0    0  501 -0.00000000000E+00  0.00000000000E+00  0.53660471431E+02  0.53675498080E+02  0.12700000000E+01 0.  1.
          4   -1    0    0  501    0  0.00000000000E+00 -0.00000000000E+00 -0.72780842866E+02  0.72791922548E+02  0.12700000000E+01 0.  1.
         25    2    1    2    0    0  0.00000000000E+00  0.00000000000E+00 -0.19120371436E+02  0.12646742063E+03  0.12501367876E+03 0.  0.
    9000005    1    3    3    0    0  0.61956247832E+02  0.66996755646E+01 -0.14373951492E+02  0.63961494507E+02  0.10000000000E+01 0.  0.
    9000005    1    3    3    0    0 -0.61956247832E+02 -0.66996755646E+01 -0.47464199434E+01  0.62505926122E+02  0.10000000000E+01 0.  0.
<mgrwt>
<rscale>  0 0.12501368E+03</rscale>
<asrwt>0</asrwt>
<pdfrwt beam="2">  1        4 0.18198474E-01 0.12501368E+03</pdfrwt>
<pdfrwt beam="1">  1       -4 0.13418381E-01 0.12501368E+03</pdfrwt>
<totfact> 0.19749363E+03</totfact>
</mgrwt>
</event>
<event>
 5    1  0.1431256E-002  0.1250001E+03  0.7818608E-02  0.1235069E+00
         -4   -1    0    0    0  501 -0.00000000000E+00  0.00000000000E+00  0.27634692189E+02  0.27663859318E+02  0.12700000000E+01 0.  1.
          4   -1    0    0  501    0  0.00000000000E+00 -0.00000000000E+00 -0.14124687825E+03  0.14125258764E+03  0.12700000000E+01 0.  1.
         25    2    1    2    0    0  0.00000000000E+00  0.00000000000E+00 -0.11361218606E+03  0.16891644696E+03  0.12500014893E+03 0.  0.
    9000005    1    3    3    0    0  0.45175117492E+02 -0.41355550584E+02 -0.73585808298E+02  0.95744159024E+02  0.10000000000E+01 0.  0.
    9000005    1    3    3    0    0 -0.45175117492E+02  0.41355550584E+02 -0.40026377761E+02  0.73172287932E+02  0.10000000000E+01 0.  0.
<mgrwt>
<rscale>  0 0.12500015E+03</rscale>
<asrwt>0</asrwt>
<pdfrwt beam="2">  1        4 0.35316077E-01 0.12500015E+03</pdfrwt>
<pdfrwt beam="1">  1       -4 0.69130330E-02 0.12500015E+03</pdfrwt>
<totfact> 0.17645970E+03</totfact>
</mgrwt>
</event>
<event>
 5    1  0.1431256E-002  0.1250067E+03  0.7818608E-02  0.1235059E+00
          4   -1    0    0  501    0  0.00000000000E+00  0.00000000000E+00  0.67348542058E+02  0.67360515269E+02  0.12700000000E+01 0.  1.
         -4   -1    0    0    0  501 -0.00000000000E+00 -0.00000000000E+00 -0.57982631187E+02  0.57996537994E+02  0.12700000000E+01 0.  1.
         25    2    1    2    0    0  0.00000000000E+00  0.00000000000E+00  0.93659108713E+01  0.12535705326E+03  0.12500668189E+03 0.  0.
    9000005    1    3    3    0    0 -0.59281107816E+02 -0.49607688145E+00 -0.15150542369E+02  0.61196689209E+02  0.10000000000E+01 0.  0.
    9000005    1    3    3    0    0  0.59281107816E+02  0.49607688145E+00  0.24516453240E+02  0.64160364054E+02  0.10000000000E+01 0.  0.
<mgrwt>
<rscale>  0 0.12500668E+03</rscale>
<asrwt>0</asrwt>
<pdfrwt beam="1">  1        4 0.16840370E-01 0.12500668E+03</pdfrwt>
<pdfrwt beam="2">  1       -4 0.14498893E-01 0.12500668E+03</pdfrwt>
<totfact> 0.19812606E+03</totfact>
</mgrwt>
</event>
<event>
 4    1  0.1431256E-002  0.1251573E+03  0.7818608E-02  0.1234824E+00
         -4   -1    0    0    0  501 -0.00000000000E+00  0.00000000000E+00  0.88721290524E+01  0.89625651419E+01  0.12700000000E+01 0.  1.
          4   -1    0    0  501    0  0.00000000000E+00 -0.00000000000E+00 -0.43906273967E+03  0.43906457642E+03  0.12700000000E+01 0.  1.
    9000005    1    1    2    0    0 -0.32034492517E+02 -0.43633502885E+02 -0.10274720049E+03  0.11613818706E+03  0.10000000000E+01 0.  0.
    9000005    1    1    2    0    0  0.32034492517E+02  0.43633502885E+02 -0.32744341013E+03  0.33188895450E+03  0.10000000000E+01 0.  0.
<mgrwt>
<rscale>  0 0.12515733E+03</rscale>
<asrwt>0</asrwt>
<pdfrwt beam="2">  1        4 0.10977715E+00 0.12515733E+03</pdfrwt>
<pdfrwt beam="1">  1       -4 0.22295678E-02 0.12515733E+03</pdfrwt>
<totfact> 0.96028520E+02</totfact>
</mgrwt>
</event>
<event>
 5    1  0.1431256E-002  0.1249999E+03  0.7818608E-02  0.1235069E+00
          4   -1    0    0  501    0  0.00000000000E+00  0.00000000000E+00  0.62932962828E+02  0.62945775953E+02  0.12700000000E+01 0.  1.
         -4   -1    0    0    0  501 -0.00000000000E+00 -0.00000000000E+00 -0.62044301146E+02  0.62057297755E+02  0.12700000000E+01 0.  1.
         25    2    1    2    0    0  0.00000000000E+00  0.00000000000E+00  0.88866168249E+00  0.12500307371E+03  0.12499991487E+03 0.  0.
    9000005    1    3    3    0    0  0.43386974524E+02  0.35214721133E+02 -0.27533840967E+02  0.62302636711E+02  0.10000000000E+01 0.  0.
    9000005    1    3    3    0    0 -0.43386974524E+02 -0.35214721133E+02  0.28422502649E+02  0.62700436997E+02  0.10000000000E+01 0.  0.
<mgrwt>
<rscale>  0 0.12499991E+03</rscale>
<asrwt>0</asrwt>
<pdfrwt beam="1">  1        4 0.15736467E-01 0.12499991E+03</pdfrwt>
<pdfrwt beam="2">  1       -4 0.15514301E-01 0.12499991E+03</pdfrwt>
<totfact> 0.19834928E+03</totfact>
</mgrwt>
</event>
<event>
 5    1  0.1431256E-002  0.1250002E+03  0.7818608E-02  0.1235069E+00
         -4   -1    0    0    0  501 -0.00000000000E+00  0.00000000000E+00  0.14947829107E+03  0.14948368607E+03  0.12700000000E+01 0. -1.
          4   -1    0    0  501    0  0.00000000000E+00 -0.00000000000E+00 -0.26111352944E+02  0.26142219733E+02  0.12700000000E+01 0. -1.
         25    2    1    2    0    0  0.00000000000E+00  0.00000000000E+00  0.12336693812E+03  0.17562590580E+03  0.12500022947E+03 0.  0.
    9000005    1    3    3    0    0 -0.18536876716E+02 -0.50124341439E+02  0.10719345362E+03  0.11978105820E+03  0.10000000000E+01 0.  0.
    9000005    1    3    3    0    0  0.18536876716E+02  0.50124341439E+02  0.16173484499E+02  0.55844847603E+02  0.10000000000E+01 0.  0.
<mgrwt>
<rscale>  0 0.12500023E+03</rscale>
<asrwt>0</asrwt>
<pdfrwt beam="2">  1        4 0.65323711E-02 0.12500023E+03</pdfrwt>
<pdfrwt beam="1">  1       -4 0.37374105E-01 0.12500023E+03</pdfrwt>
<totfact> 0.17346148E+03</totfact>
</mgrwt>
</event>
<event>
 5    1  0.1431256E-002  0.1249973E+03  0.7818608E-02  0.1235074E+00
          4   -1    0    0  501    0  0.00000000000E+00  0.00000000000E+00  0.52819707902E+03  0.52819860581E+03  0.12700000000E+01 0.  1.
         -4   -1    0    0    0  501 -0.00000000000E+00 -0.00000000000E+00 -0.73390458916E+01  0.74481202057E+01  0.12700000000E+01 0.  1.
         25    2    1    2    0    0  0.00000000000E+00  0.00000000000E+00  0.52085803313E+03  0.53564672602E+03  0.12499729766E+03 0.  0.
    9000005    1    3    3    0    0 -0.54831406955E+02  0.16951717705E+02  0.15448346804E+03  0.16480286958E+03  0.10000000000E+01 0.  0.
    9000005    1    3    3    0    0  0.54831406955E+02 -0.16951717705E+02  0.36637456508E+03  0.37084385644E+03  0.10000000000E+01 0.  0.
<mgrwt>
<rscale>  0 0.12499730E+03</rscale>
<asrwt>0</asrwt>
<pdfrwt beam="1">  1        4 0.13206307E+00 0.12499730E+03</pdfrwt>
<pdfrwt beam="2">  1       -4 0.18485870E-02 0.12499730E+03</pdfrwt>
<totfact> 0.82208002E+02</totfact>
</mgrwt>
</event>
<event>
 5    1  0.1431256E-002  0.1249935E+03  0.7818608E-02  0.1235079E+00
          4   -1    0    0  501    0  0.00000000000E+00  0.00000000000E+00  0.78954851840E+02  0.78965065245E+02  0.12700000000E+01 0. -1.
         -4   -1    0    0    0  501 -0.00000000000E+00 -0.00000000000E+00 -0.49447779850E+02  0.49464086286E+02  0.12700000000E+01 0. -1.
         25    2    1    2    0    0  0.00000000000E+00  0.00000000000E+00  0.29507071990E+02  0.12842915153E+03  0.12499351849E+03 0.  0.
    9000005    1    3    3    0    0  0.36445770191E+02  0.22985825703E+02  0.61254566056E+02  0.74898359200E+02  0.10000000000E+01 0.  0.
    9000005    1    3    3    0    0 -0.36445770191E+02 -0.22985825703E+02 -0.31747494067E+02  0.53530792331E+02  0.10000000000E+01 0.  0.
<mgrwt>
<rscale>  0 0.12499352E+03</rscale>
<asrwt>0</asrwt>
<pdfrwt beam="1">  1        4 0.19742028E-01 0.12499352E+03</pdfrwt>
<pdfrwt beam="2">  1       -4 0.12365260E-01 0.12499352E+03</pdfrwt>
<totfact> 0.19652189E+03</totfact>
</mgrwt>
</event>
<event>
 5    1  0.1431256E-002  0.1249957E+03  0.7818608E-02  0.1235076E+00
         -4   -1    0    0    0  501 -0.00000000000E+00  0.00000000000E+00  0.41412232508E+02  0.41431701646E+02  0.12700000000E+01 0.  1.
          4   -1    0    0  501    0  0.00000000000E+00 -0.00000000000E+00 -0.94273599476E+02  0.94282153445E+02  0.12700000000E+01 0.  1.
         25    2    1    2    0    0  0.00000000000E+00  0.00000000000E+00 -0.52861366968E+02  0.13571385509E+03  0.12499570531E+03 0.  0.
    9000005    1    3    3    0    0  0.18614990803E+02 -0.10195208078E+02 -0.90245722889E+02  0.92713271165E+02  0.10000000000E+01 0.  0.
    9000005    1    3    3    0    0 -0.18614990803E+02  0.10195208078E+02  0.37384355921E+02  0.43000583926E+02  0.10000000000E+01 0.  0.
<mgrwt>
<rscale>  0 0.12499571E+03</rscale>
<asrwt>0</asrwt>
<pdfrwt beam="2">  1        4 0.23571902E-01 0.12499571E+03</pdfrwt>
<pdfrwt beam="1">  1       -4 0.10356561E-01 0.12499571E+03</pdfrwt>
<totfact> 0.19263742E+03</totfact>
</mgrwt>
</event>
<event>
 5    1  0.1431256E-002  0.1249995E+03  0.7818608E-02  0.1235070E+00
         -4   -1    0    0    0  501 -0.00000000000E+00  0.00000000000E+00  0.33795994487E+01  0.36103451959E+01  0.12700000000E+01 0. -1.
          4   -1    0    0  501    0  0.00000000000E+00 -0.00000000000E+00 -0.11174376880E+04  0.11174384097E+04  0.12700000000E+01 0. -1.
         25    2    1    2    0    0  0.00000000000E+00  0.00000000000E+00 -0.11140580885E+04  0.11210487549E+04  0.12499954471E+03 0.  0.
    9000005    1    3    3    0    0  0.59443285983E+02  0.13140198088E+02 -0.43049718876E+03  0.43478155272E+03  0.10000000000E+01 0.  0.
    9000005    1    3    3    0    0 -0.59443285983E+02 -0.13140198088E+02 -0.68356089978E+03  0.68626720216E+03  0.10000000000E+01 0.  0.
<mgrwt>
<rscale>  0 0.12499954E+03</rscale>
<asrwt>0</asrwt>
<pdfrwt beam="2">  1        4 0.27938713E+00 0.12499954E+03</pdfrwt>
<pdfrwt beam="1">  1       -4 0.87383712E-03 0.12499954E+03</pdfrwt>
<totfact> 0.29549552E+02</totfact>
</mgrwt>
</event>
<event>
 5    1  0.1431256E-002  0.1249986E+03  0.7818608E-02  0.1235071E+00
         -4   -1    0    0    0  501 -0.00000000000E+00  0.00000000000E+00  0.29917591705E+03  0.29917861261E+03  0.12700000000E+01 0. -1.
          4   -1    0    0  501    0  0.00000000000E+00 -0.00000000000E+00 -0.13022771005E+02  0.13084550610E+02  0.12700000000E+01 0. -1.
         25    2    1    2    0    0  0.00000000000E+00  0.00000000000E+00  0.28615314604E+03  0.31226316322E+03  0.12499864044E+03 0.  0.
    9000005    1    3    3    0    0 -0.12920585744E+02  0.27347617676E+02  0.27968425393E+03  0.28131675319E+03  0.10000000000E+01 0.  0.
    9000005    1    3    3    0    0  0.12920585744E+02 -0.27347617676E+02  0.64688921144E+01  0.30946410029E+02  0.10000000000E+01 0.  0.
<mgrwt>
<rscale>  0 0.12499864E+03</rscale>
<asrwt>0</asrwt>
<pdfrwt beam="2">  1        4 0.32637522E-02 0.12499864E+03</pdfrwt>
<pdfrwt beam="1">  1       -4 0.74802037E-01 0.12499864E+03</pdfrwt>
<totfact> 0.12634580E+03</totfact>
</mgrwt>
</event>
<event>
 5    1  0.1431256E-002  0.1249951E+03  0.7818608E-02  0.1235077E+00
         -4   -1    0    0    0  501 -0.00000000000E+00  0.00000000000E+00  0.90288141766E+03  0.90288231086E+03  0.12700000000E+01 0.  1.
          4   -1    0    0  501    0  0.00000000000E+00 -0.00000000000E+00 -0.42319631827E+01  0.44184174067E+01  0.12700000000E+01 0.  1.
         25    2    1    2    0    0  0.00000000000E+00  0.00000000000E+00  0.89864945448E+03  0.90730072826E+03  0.12499507779E+03 0.  0.
    9000005    1    3    3    0    0 -0.61180342160E+02  0.99838421038E+01  0.50658609692E+03  0.51036573647E+03  0.10000000000E+01 0.  0.
    9000005    1    3    3    0    0  0.61180342160E+02 -0.99838421038E+01  0.39206335756E+03  0.39693499180E+03  0.10000000000E+01 0.  0.
<mgrwt>
<rscale>  0 0.12499508E+03</rscale>
<asrwt>0</asrwt>
<pdfrwt beam="2">  1        4 0.10814091E-02 0.12499508E+03</pdfrwt>
<pdfrwt beam="1">  1       -4 0.22574379E+00 0.12499508E+03</pdfrwt>
<totfact> 0.43725164E+02</totfact>
</mgrwt>
</event>
<event>
 5    1  0.1431256E-002  0.1249987E+03  0.7818608E-02  0.1235071E+00
         -4   -1    0    0    0  501 -0.00000000000E+00  0.00000000000E+00  0.32489493240E+03  0.32489741458E+03  0.12700000000E+01 0.  1.
          4   -1    0    0  501    0  0.00000000000E+00 -0.00000000000E+00 -0.11986800621E+02  0.12053891036E+02  0.12700000000E+01 0.  1.
         25    2    1    2    0    0  0.00000000000E+00  0.00000000000E+00  0.31290813178E+03  0.33695130562E+03  0.12499873368E+03 0.  0.
    9000005    1    3    3    0    0 -0.89736394268E+01  0.58653293098E+02  0.10360059950E+03  0.11939354761E+03  0.10000000000E+01 0.  0.
    9000005    1    3    3    0    0  0.89736394268E+01 -0.58653293098E+02  0.20930753229E+03  0.21755775800E+03  0.10000000000E+01 0.  0.
<mgrwt>
<rscale>  0 0.12499873E+03</rscale>
<asrwt>0</asrwt>
<pdfrwt beam="2">  1        4 0.30053969E-02 0.12499873E+03</pdfrwt>
<pdfrwt beam="1">  1       -4 0.81232426E-01 0.12499873E+03</pdfrwt>
<totfact> 0.11995517E+03</totfact>
</mgrwt>
</event>
<event>
 5    1  0.1431256E-002  0.1249900E+03  0.7818608E-02  0.1235085E+00
         -4   -1    0    0    0  501 -0.00000000000E+00  0.00000000000E+00  0.12278527086E+03  0.12279183865E+03  0.12700000000E+01 0. -1.
          4   -1    0    0  501    0  0.00000000000E+00 -0.00000000000E+00 -0.31788469558E+02  0.31813828704E+02  0.12700000000E+01 0. -1.
         25    2    1    2    0    0  0.00000000000E+00  0.00000000000E+00  0.90996801298E+02  0.15460566735E+03  0.12498997772E+03 0.  0.
    9000005    1    3    3    0    0  0.43681437511E+02 -0.14005387230E+02 -0.69866109517E+01  0.46411545838E+02  0.10000000000E+01 0.  0.
    9000005    1    3    3    0    0 -0.43681437511E+02  0.14005387230E+02  0.97983412250E+02  0.10819412152E+03  0.10000000000E+01 0.  0.
<mgrwt>
<rscale>  0 0.12498998E+03</rscale>
<asrwt>0</asrwt>
<pdfrwt beam="2">  1        4 0.79511084E-02 0.12498998E+03</pdfrwt>
<pdfrwt beam="1">  1       -4 0.30700308E-01 0.12498998E+03</pdfrwt>
<totfact> 0.18318884E+03</totfact>
</mgrwt>
</event>
<event>
 5    1  0.1431256E-002  0.1249945E+03  0.7818608E-02  0.1235078E+00
         -4   -1    0    0    0  501 -0.00000000000E+00  0.00000000000E+00  0.17721577786E+03  0.17722032847E+03  0.12700000000E+01 0.  1.
          4   -1    0    0  501    0  0.00000000000E+00 -0.00000000000E+00 -0.22017249235E+02  0.22053846918E+02  0.12700000000E+01 0.  1.
         25    2    1    2    0    0  0.00000000000E+00  0.00000000000E+00  0.15519852863E+03  0.19927417539E+03  0.12499445463E+03 0.  0.
    9000005    1    3    3    0    0 -0.49369496025E+02 -0.24484768511E+02  0.12457063618E+03  0.13621928801E+03  0.10000000000E+01 0.  0.
    9000005    1    3    3    0    0  0.49369496025E+02  0.24484768511E+02  0.30627892444E+02  0.63054887379E+02  0.10000000000E+01 0.  0.
<mgrwt>
<rscale>  0 0.12499445E+03</rscale>
<asrwt>0</asrwt>
<pdfrwt beam="2">  1        4 0.55094560E-02 0.12499445E+03</pdfrwt>
<pdfrwt beam="1">  1       -4 0.44309086E-01 0.12499445E+03</pdfrwt>
<totfact> 0.16353242E+03</totfact>
</mgrwt>
</event>
<event>
 5    1  0.1431256E-002  0.1249930E+03  0.7818608E-02  0.1235080E+00
          4   -1    0    0  501    0  0.00000000000E+00  0.00000000000E+00  0.62666449753E+03  0.62666578442E+03  0.12700000000E+01 0. -1.
         -4   -1    0    0    0  501 -0.00000000000E+00 -0.00000000000E+00 -0.61666977135E+01  0.62961147297E+01  0.12700000000E+01 0. -1.
         25    2    1    2    0    0  0.00000000000E+00  0.00000000000E+00  0.62049779982E+03  0.63296189915E+03  0.12499298460E+03 0.  0.
    9000005    1    3    3    0    0  0.25173985045E+02  0.38655281737E+02  0.52370937064E+03  0.52573801957E+03  0.10000000000E+01 0.  0.
    9000005    1    3    3    0    0 -0.25173985045E+02 -0.38655281737E+02  0.96788429180E+02  0.10722387958E+03  0.10000000000E+01 0.  0.
<mgrwt>
<rscale>  0 0.12499298E+03</rscale>
<asrwt>0</asrwt>
<pdfrwt beam="1">  1        4 0.15668242E+00 0.12499298E+03</pdfrwt>
<pdfrwt beam="2">  1       -4 0.15580128E-02 0.12499298E+03</pdfrwt>
<totfact> 0.69505811E+02</totfact>
</mgrwt>
</event>
<event>
 5    1  0.1431256E-002  0.1249997E+03  0.7818608E-02  0.1235070E+00
          4   -1    0    0  501    0  0.00000000000E+00  0.00000000000E+00  0.15429200739E+03  0.15429723408E+03  0.12700000000E+01 0. -1.
         -4   -1    0    0    0  501 -0.00000000000E+00 -0.00000000000E+00 -0.25295536104E+02  0.25327397158E+02  0.12700000000E+01 0. -1.
         25    2    1    2    0    0  0.00000000000E+00  0.00000000000E+00  0.12899647129E+03  0.17962463124E+03  0.12499967417E+03 0.  0.
    9000005    1    3    3    0    0  0.15583698111E+02 -0.60288175670E+02  0.72063176622E+02  0.95245037652E+02  0.10000000000E+01 0.  0.
    9000005    1    3    3    0    0 -0.15583698111E+02  0.60288175670E+02  0.56933294664E+02  0.84379593586E+02  0.10000000000E+01 0.  0.
<mgrwt>
<rscale>  0 0.12499967E+03</rscale>
<asrwt>0</asrwt>
<pdfrwt beam="1">  1        4 0.38577637E-01 0.12499967E+03</pdfrwt>
<pdfrwt beam="2">  1       -4 0.63285201E-02 0.12499967E+03</pdfrwt>
<totfact> 0.17171603E+03</totfact>
</mgrwt>
</event>
<event>
 5    1  0.1431256E-002  0.1250173E+03  0.7818608E-02  0.1235042E+00
          4   -1    0    0  501    0  0.00000000000E+00  0.00000000000E+00  0.98512831351E+03  0.98512913214E+03  0.12700000000E+01 0.  1.
         -4   -1    0    0    0  501 -0.00000000000E+00 -0.00000000000E+00 -0.38638104667E+01  0.40671773163E+01  0.12700000000E+01 0.  1.
         25    2    1    2    0    0  0.00000000000E+00  0.00000000000E+00  0.98126450305E+03  0.98919630945E+03  0.12501725360E+03 0.  0.
    9000005    1    3    3    0    0  0.11648314908E+02 -0.52325434422E+02  0.74490415875E+03  0.74683119917E+03  0.10000000000E+01 0.  0.
    9000005    1    3    3    0    0 -0.11648314908E+02  0.52325434422E+02  0.23636034429E+03  0.24236511028E+03  0.10000000000E+01 0.  0.
<mgrwt>
<rscale>  0 0.12501725E+03</rscale>
<asrwt>0</asrwt>
<pdfrwt beam="1">  1        4 0.24630760E+00 0.12501725E+03</pdfrwt>
<pdfrwt beam="2">  1       -4 0.99147582E-03 0.12501725E+03</pdfrwt>
<totfact> 0.37826302E+02</totfact>
</mgrwt>
</event>
<event>
 5    1  0.1431256E-002  0.1250012E+03  0.7818608E-02  0.1235067E+00
         -4   -1    0    0    0  501 -0.00000000000E+00  0.00000000000E+00  0.67529966438E+02  0.67541907488E+02  0.12700000000E+01 0. -1.
          4   -1    0    0  501    0  0.00000000000E+00 -0.00000000000E+00 -0.57821809510E+02  0.57835754988E+02  0.12700000000E+01 0. -1.
         25    2    1    2    0    0  0.00000000000E+00  0.00000000000E+00  0.97081569277E+01  0.12537766248E+03  0.12500123974E+03 0.  0.
    9000005    1    3    3    0    0 -0.55803568483E+02 -0.21530602834E+02  0.23011697171E+02  0.64094799481E+02  0.10000000000E+01 0.  0.
    9000005    1    3    3    0    0  0.55803568483E+02  0.21530602834E+02 -0.13303540243E+02  0.61282862995E+02  0.10000000000E+01 0.  0.
<mgrwt>
<rscale>  0 0.12500124E+03</rscale>
<asrwt>0</asrwt>
<pdfrwt beam="2">  1        4 0.14458688E-01 0.12500124E+03</pdfrwt>
<pdfrwt beam="1">  1       -4 0.16885727E-01 0.12500124E+03</pdfrwt>
<totfact> 0.19814013E+03</totfact>
</mgrwt>
</event>
<event>
 5    1  0.1431256E-002  0.1249961E+03  0.7818608E-02  0.1235075E+00
         -4   -1    0    0    0  501 -0.00000000000E+00  0.00000000000E+00  0.55929145002E+02  0.55943562280E+02  0.12700000000E+01 0. -1.
          4   -1    0    0  501    0  0.00000000000E+00 -0.00000000000E+00 -0.69809266674E+02  0.69820817910E+02  0.12700000000E+01 0. -1.
         25    2    1    2    0    0  0.00000000000E+00  0.00000000000E+00 -0.13880121673E+02  0.12576438019E+03  0.12499608613E+03 0.  0.
    9000005    1    3    3    0    0 -0.30771089055E+02 -0.21465524440E+02 -0.57220987173E+02  0.68431498845E+02  0.10000000000E+01 0.  0.
    9000005    1    3    3    0    0  0.30771089055E+02  0.21465524440E+02  0.43340865500E+02  0.57332881346E+02  0.10000000000E+01 0.  0.
<mgrwt>
<rscale>  0 0.12499609E+03</rscale>
<asrwt>0</asrwt>
<pdfrwt beam="2">  1        4 0.17455563E-01 0.12499609E+03</pdfrwt>
<pdfrwt beam="1">  1       -4 0.13985532E-01 0.12499609E+03</pdfrwt>
<totfact> 0.19795470E+03</totfact>
</mgrwt>
</event>
<event>
 5    1  0.1431256E-002  0.1250011E+03  0.7818608E-02  0.1235068E+00
         -4   -1    0    0    0  501 -0.00000000000E+00  0.00000000000E+00  0.20614491858E+01  0.24212543745E+01  0.12700000000E+01 0. -1.
          4   -1    0    0  501    0  0.00000000000E+00 -0.00000000000E+00 -0.17424793367E+04  0.17424797995E+04  0.12700000000E+01 0. -1.
         25    2    1    2    0    0  0.00000000000E+00  0.00000000000E+00 -0.17404178875E+04  0.17449010539E+04  0.12500105877E+03 0.  0.
    9000005    1    3    3    0    0 -0.27942514610E+02 -0.31502686585E+02 -0.15147672375E+04  0.15153527600E+04  0.10000000000E+01 0.  0.
    9000005    1    3    3    0    0  0.27942514610E+02  0.31502686585E+02 -0.22565065003E+03  0.22954829392E+03  0.10000000000E+01 0.  0.
<mgrwt>
<rscale>  0 0.12500106E+03</rscale>
<asrwt>0</asrwt>
<pdfrwt beam="2">  1        4 0.43566022E+00 0.12500106E+03</pdfrwt>
<pdfrwt beam="1">  1       -4 0.56040178E-03 0.12500106E+03</pdfrwt>
<totfact> 0.61500939E+01</totfact>
</mgrwt>
</event>
<event>
 5    1  0.1431256E-002  0.1249943E+03  0.7818608E-02  0.1235078E+00
         -4   -1    0    0    0  501 -0.00000000000E+00  0.00000000000E+00  0.30411965125E+03  0.30412230299E+03  0.12700000000E+01 0.  1.
          4   -1    0    0  501    0  0.00000000000E+00 -0.00000000000E+00 -0.12809172725E+02  0.12871977544E+02  0.12700000000E+01 0.  1.
         25    2    1    2    0    0  0.00000000000E+00  0.00000000000E+00  0.29131047852E+03  0.31699428053E+03  0.12499431584E+03 0.  0.
    9000005    1    3    3    0    0  0.34972169796E+02 -0.41801902852E+02  0.22317948892E+03  0.22974014890E+03  0.10000000000E+01 0.  0.
    9000005    1    3    3    0    0 -0.34972169796E+02  0.41801902852E+02  0.68130989598E+02  0.87254131627E+02  0.10000000000E+01 0.  0.
<mgrwt>
<rscale>  0 0.12499432E+03</rscale>
<asrwt>0</asrwt>
<pdfrwt beam="2">  1        4 0.32104752E-02 0.12499432E+03</pdfrwt>
<pdfrwt beam="1">  1       -4 0.76038097E-01 0.12499432E+03</pdfrwt>
<totfact> 0.12509406E+03</totfact>
</mgrwt>
</event>
<event>
 5    1  0.1431256E-002  0.1250000E+03  0.7818608E-02  0.1235069E+00
          4   -1    0    0  501    0  0.00000000000E+00  0.00000000000E+00  0.30644628157E+01  0.33172024884E+01  0.12700000000E+01 0.  1.
         -4   -1    0    0    0  501 -0.00000000000E+00 -0.00000000000E+00 -0.12239567181E+04  0.12239573770E+04  0.12700000000E+01 0.  1.
         25    2    1    2    0    0  0.00000000000E+00  0.00000000000E+00 -0.12208922553E+04  0.12272745795E+04  0.12499997766E+03 0.  0.
    9000005    1    3    3    0    0 -0.53071859238E+00  0.21756821015E+02 -0.35296796608E+02  0.41478967847E+02  0.10000000000E+01 0.  0.
    9000005    1    3    3    0    0  0.53071859238E+00 -0.21756821015E+02 -0.11855954587E+04  0.11857956116E+04  0.10000000000E+01 0.  0.
<mgrwt>
<rscale>  0 0.12499998E+03</rscale>
<asrwt>0</asrwt>
<pdfrwt beam="1">  1        4 0.79779472E-03 0.12499998E+03</pdfrwt>
<pdfrwt beam="2">  1       -4 0.30601925E+00 0.12499998E+03</pdfrwt>
<totfact> 0.23803438E+02</totfact>
</mgrwt>
</event>
<event>
 4    1  0.1431256E-002  0.1241421E+03  0.7818608E-02  0.1236416E+00
          4   -1    0    0  501    0  0.00000000000E+00  0.00000000000E+00  0.13667458620E+03  0.13668048658E+03  0.12700000000E+01 0.  1.
         -4   -1    0    0    0  501 -0.00000000000E+00 -0.00000000000E+00 -0.28168864003E+02  0.28197478596E+02  0.12700000000E+01 0.  1.
    9000005    1    1    2    0    0 -0.26598954382E+02  0.21682999819E+02 -0.14428206445E+02  0.37240166442E+02  0.10000000000E+01 0.  0.
    9000005    1    1    2    0    0  0.26598954382E+02 -0.21682999819E+02  0.12293392864E+03  0.12763779874E+03  0.10000000000E+01 0.  0.
<mgrwt>
<rscale>  0 0.12414206E+03</rscale>
<asrwt>0</asrwt>
<pdfrwt beam="1">  1        4 0.34172960E-01 0.12414206E+03</pdfrwt>
<pdfrwt beam="2">  1       -4 0.70465305E-02 0.12414206E+03</pdfrwt>
<totfact> 0.18190562E+03</totfact>
</mgrwt>
</event>
<event>
 5    1  0.1431256E-002  0.1250172E+03  0.7818608E-02  0.1235042E+00
          4   -1    0    0  501    0  0.00000000000E+00  0.00000000000E+00  0.89319946522E+03  0.89320036810E+03  0.12700000000E+01 0. -1.
         -4   -1    0    0    0  501 -0.00000000000E+00 -0.00000000000E+00 -0.42814295381E+01  0.44658189495E+01  0.12700000000E+01 0. -1.
         25    2    1    2    0    0  0.00000000000E+00  0.00000000000E+00  0.88891803568E+03  0.89766618705E+03  0.12501723564E+03 0.  0.
    9000005    1    3    3    0    0 -0.12815579693E+02 -0.31688324021E+01  0.58086367888E+01  0.14457553147E+02  0.10000000000E+01 0.  0.
    9000005    1    3    3    0    0  0.12815579693E+02  0.31688324021E+01  0.88310939890E+03  0.88320863390E+03  0.10000000000E+01 0.  0.
<mgrwt>
<rscale>  0 0.12501724E+03</rscale>
<asrwt>0</asrwt>
<pdfrwt beam="1">  1        4 0.22332301E+00 0.12501724E+03</pdfrwt>
<pdfrwt beam="2">  1       -4 0.10935190E-02 0.12501724E+03</pdfrwt>
<totfact> 0.44435791E+02</totfact>
</mgrwt>
</event>
<event>
 5    1  0.1431256E-002  0.1249986E+03  0.7818608E-02  0.1235071E+00
         -4   -1    0    0    0  501 -0.00000000000E+00  0.00000000000E+00  0.16473618248E+02  0.16522499756E+02  0.12700000000E+01 0. -1.
          4   -1    0    0  501    0  0.00000000000E+00 -0.00000000000E+00 -0.23671455016E+03  0.23671795698E+03  0.12700000000E+01 0. -1.
         25    2    1    2    0    0  0.00000000000E+00  0.00000000000E+00 -0.22024093191E+03  0.25324045674E+03  0.12499864335E+03 0.  0.
    9000005    1    3    3    0    0  0.61698128785E+02  0.97790676808E+01 -0.10668474080E+03  0.12363220931E+03  0.10000000000E+01 0.  0.
    9000005    1    3    3    0    0 -0.61698128785E+02 -0.97790676808E+01 -0.11355619112E+03  0.12960824743E+03  0.10000000000E+01 0.  0.
<mgrwt>
<rscale>  0 0.12499864E+03</rscale>
<asrwt>0</asrwt>
<pdfrwt beam="2">  1        4 0.59185163E-01 0.12499864E+03</pdfrwt>
<pdfrwt beam="1">  1       -4 0.41249414E-02 0.12499864E+03</pdfrwt>
<totfact> 0.14391259E+03</totfact>
</mgrwt>
</event>
<event>
 5    1  0.1431256E-002  0.1249997E+03  0.7818608E-02  0.1235070E+00
         -4   -1    0    0    0  501 -0.00000000000E+00  0.00000000000E+00  0.12517399032E+03  0.12518043279E+03  0.12700000000E+01 0.  1.
          4   -1    0    0  501    0  0.00000000000E+00 -0.00000000000E+00 -0.31186223974E+02  0.31212072436E+02  0.12700000000E+01 0.  1.
         25    2    1    2    0    0  0.00000000000E+00  0.00000000000E+00  0.93987766349E+02  0.15639250523E+03  0.12499966187E+03 0.  0.
    9000005    1    3    3    0    0 -0.26933595658E+02  0.45742854280E+02  0.88251304202E+02  0.10299087332E+03  0.10000000000E+01 0.  0.
    9000005    1    3    3    0    0  0.26933595658E+02 -0.45742854280E+02  0.57364621467E+01  0.53401631911E+02  0.10000000000E+01 0.  0.
<mgrwt>
<rscale>  0 0.12499966E+03</rscale>
<asrwt>0</asrwt>
<pdfrwt beam="2">  1        4 0.78005924E-02 0.12499966E+03</pdfrwt>
<pdfrwt beam="1">  1       -4 0.31297534E-01 0.12499966E+03</pdfrwt>
<totfact> 0.18229005E+03</totfact>
</mgrwt>
</event>
<event>
 5    1  0.1431256E-002  0.1249872E+03  0.7818608E-02  0.1235089E+00
         -4   -1    0    0    0  501 -0.00000000000E+00  0.00000000000E+00  0.51918387492E+02  0.51933918202E+02  0.12700000000E+01 0.  1.
          4   -1    0    0  501    0  0.00000000000E+00 -0.00000000000E+00 -0.75190706220E+02  0.75201430850E+02  0.12700000000E+01 0.  1.
         25    2    1    2    0    0  0.00000000000E+00  0.00000000000E+00 -0.23272318728E+02  0.12713534905E+03  0.12498718398E+03 0.  0.
    9000005    1    3    3    0    0 -0.54791198172E+02  0.26830272263E+02 -0.25377981635E+02  0.66083135963E+02  0.10000000000E+01 0.  0.
    9000005    1    3    3    0    0  0.54791198172E+02 -0.26830272263E+02  0.21056629074E+01  0.61052213089E+02  0.10000000000E+01 0.  0.
<mgrwt>
<rscale>  0 0.12498718E+03</rscale>
<asrwt>0</asrwt>
<pdfrwt beam="2">  1        4 0.18800958E-01 0.12498718E+03</pdfrwt>
<pdfrwt beam="1">  1       -4 0.12982879E-01 0.12498718E+03</pdfrwt>
<totfact> 0.19725565E+03</totfact>
</mgrwt>
</event>
<event>
 5    1  0.1431256E-002  0.1249985E+03  0.7818608E-02  0.1235072E+00
          4   -1    0    0  501    0  0.00000000000E+00  0.00000000000E+00  0.56765251380E+02  0.56779456357E+02  0.12700000000E+01 0. -1.
         -4   -1    0    0    0  501 -0.00000000000E+00 -0.00000000000E+00 -0.68783771981E+02  0.68795495405E+02  0.12700000000E+01 0. -1.
         25    2    1    2    0    0  0.00000000000E+00  0.00000000000E+00 -0.12018520602E+02  0.12557495176E+03  0.12499849468E+03 0.  0.
    9000005    1    3    3    0    0 -0.29747960111E+00 -0.29761874936E+02  0.49192285939E+02  0.57504249319E+02  0.10000000000E+01 0.  0.
    9000005    1    3    3    0    0  0.29747960111E+00  0.29761874936E+02 -0.61210806540E+02  0.68070702443E+02  0.10000000000E+01 0.  0.
<mgrwt>
<rscale>  0 0.12499849E+03</rscale>
<asrwt>0</asrwt>
<pdfrwt beam="1">  1        4 0.14194554E-01 0.12499849E+03</pdfrwt>
<pdfrwt beam="2">  1       -4 0.17199184E-01 0.12499849E+03</pdfrwt>
<totfact> 0.19804604E+03</totfact>
</mgrwt>
</event>
<event>
 5    1  0.1431256E-002  0.1250040E+03  0.7818608E-02  0.1235063E+00
          4   -1    0    0  501    0  0.00000000000E+00  0.00000000000E+00  0.17208376539E+02  0.17255176704E+02  0.12700000000E+01 0.  1.
         -4   -1    0    0    0  501 -0.00000000000E+00 -0.00000000000E+00 -0.22665476702E+03  0.22665832505E+03  0.12700000000E+01 0.  1.
         25    2    1    2    0    0  0.00000000000E+00  0.00000000000E+00 -0.20944639048E+03  0.24391350175E+03  0.12500402334E+03 0.  0.
    9000005    1    3    3    0    0  0.18128334882E+02 -0.42503999933E+02 -0.18682112562E+03  0.19245352560E+03  0.10000000000E+01 0.  0.
    9000005    1    3    3    0    0 -0.18128334882E+02  0.42503999933E+02 -0.22625264860E+02  0.51459976155E+02  0.10000000000E+01 0.  0.
<mgrwt>
<rscale>  0 0.12500402E+03</rscale>
<asrwt>0</asrwt>
<pdfrwt beam="1">  1        4 0.43083896E-02 0.12500402E+03</pdfrwt>
<pdfrwt beam="2">  1       -4 0.56669977E-01 0.12500402E+03</pdfrwt>
<totfact> 0.14701211E+03</totfact>
</mgrwt>
</event>
<event>
 5    1  0.1431256E-002  0.1250002E+03  0.7818608E-02  0.1235069E+00
         -4   -1    0    0    0  501 -0.00000000000E+00  0.00000000000E+00  0.75837830586E+02  0.75848463715E+02  0.12700000000E+01 0.  1.
          4   -1    0    0  501    0  0.00000000000E+00 -0.00000000000E+00 -0.51486039096E+02  0.51501700183E+02  0.12700000000E+01 0.  1.
         25    2    1    2    0    0  0.00000000000E+00  0.00000000000E+00  0.24351791490E+02  0.12735016390E+03  0.12500021798E+03 0.  0.
    9000005    1    3    3    0    0 -0.20690460790E+02 -0.15187048336E+01  0.72232049988E+02  0.75158969375E+02  0.10000000000E+01 0.  0.
    9000005    1    3    3    0    0  0.20690460790E+02  0.15187048336E+01 -0.47880258497E+02  0.52191194524E+02  0.10000000000E+01 0.  0.
<mgrwt>
<rscale>  0 0.12500022E+03</rscale>
<asrwt>0</asrwt>
<pdfrwt beam="2">  1        4 0.12874797E-01 0.12500022E+03</pdfrwt>
<pdfrwt beam="1">  1       -4 0.18962744E-01 0.12500022E+03</pdfrwt>
<totfact> 0.19707869E+03</totfact>
</mgrwt>
</event>
<event>
 5    1  0.1431256E-002  0.1249965E+03  0.7818608E-02  0.1235075E+00
          4   -1    0    0  501    0  0.00000000000E+00  0.00000000000E+00  0.15640729228E+03  0.15641244828E+03  0.12700000000E+01 0. -1.
         -4   -1    0    0    0  501 -0.00000000000E+00 -0.00000000000E+00 -0.24951746186E+02  0.24984045663E+02  0.12700000000E+01 0. -1.
         25    2    1    2    0    0  0.00000000000E+00  0.00000000000E+00  0.13145554609E+03  0.18139649394E+03  0.12499650962E+03 0.  0.
    9000005    1    3    3    0    0 -0.13282711254E+02 -0.14824409861E+02 -0.20235448089E+02  0.28401882074E+02  0.10000000000E+01 0.  0.
    9000005    1    3    3    0    0  0.13282711254E+02  0.14824409861E+02  0.15169099418E+03  0.15299461187E+03  0.10000000000E+01 0.  0.
<mgrwt>
<rscale>  0 0.12499651E+03</rscale>
<asrwt>0</asrwt>
<pdfrwt beam="1">  1        4 0.39106504E-01 0.12499651E+03</pdfrwt>
<pdfrwt beam="2">  1       -4 0.62426186E-02 0.12499651E+03</pdfrwt>
<totfact> 0.17096322E+03</totfact>
</mgrwt>
</event>
<event>
 5    1  0.1431256E-002  0.1250003E+03  0.7818608E-02  0.1235069E+00
         -4   -1    0    0    0  501 -0.00000000000E+00  0.00000000000E+00  0.55570298546E+01  0.57003053256E+01  0.12700000000E+01 0. -1.
          4   -1    0    0  501    0  0.00000000000E+00 -0.00000000000E+00 -0.69385141832E+03  0.69385258060E+03  0.12700000000E+01 0. -1.
         25    2    1    2    0    0  0.00000000000E+00  0.00000000000E+00 -0.68829438847E+03  0.69955288593E+03  0.12500030005E+03 0.  0.
    9000005    1    3    3    0    0 -0.61344045819E+02 -0.11851419900E+02 -0.33680620177E+03  0.34255359531E+03  0.10000000000E+01 0.  0.
    9000005    1    3    3    0    0  0.61344045819E+02  0.11851419900E+02 -0.35148818670E+03  0.35699929061E+03  0.10000000000E+01 0.  0.
<mgrwt>
<rscale>  0 0.12500030E+03</rscale>
<asrwt>0</asrwt>
<pdfrwt beam="2">  1        4 0.17348062E+00 0.12500030E+03</pdfrwt>
<pdfrwt beam="1">  1       -4 0.14073145E-02 0.12500030E+03</pdfrwt>
<totfact> 0.62112286E+02</totfact>
</mgrwt>
</event>
<event>
 5    1  0.1431256E-002  0.1250043E+03  0.7818608E-02  0.1235062E+00
         -4   -1    0    0    0  501 -0.00000000000E+00  0.00000000000E+00  0.33941867723E+03  0.33942105320E+03  0.12700000000E+01 0. -1.
          4   -1    0    0  501    0  0.00000000000E+00 -0.00000000000E+00 -0.11471990454E+02  0.11542073686E+02  0.12700000000E+01 0. -1.
         25    2    1    2    0    0  0.00000000000E+00  0.00000000000E+00  0.32794668678E+03  0.35096312689E+03  0.12500434818E+03 0.  0.
    9000005    1    3    3    0    0  0.32662664766E+02  0.53276655484E+02  0.16543242601E+03  0.17684495827E+03  0.10000000000E+01 0.  0.
    9000005    1    3    3    0    0 -0.32662664766E+02 -0.53276655484E+02  0.16251426077E+03  0.17411816862E+03  0.10000000000E+01 0.  0.
<mgrwt>
<rscale>  0 0.12500435E+03</rscale>
<asrwt>0</asrwt>
<pdfrwt beam="2">  1        4 0.28770552E-02 0.12500435E+03</pdfrwt>
<pdfrwt beam="1">  1       -4 0.84863722E-01 0.12500435E+03</pdfrwt>
<totfact> 0.11653225E+03</totfact>
</mgrwt>
</event>
<event>
 5    1  0.1431256E-002  0.1250099E+03  0.7818608E-02  0.1235054E+00
         -4   -1    0    0    0  501 -0.00000000000E+00  0.00000000000E+00  0.33864881125E+03  0.33865119262E+03  0.12700000000E+01 0. -1.
          4   -1    0    0  501    0  0.00000000000E+00 -0.00000000000E+00 -0.11499264414E+02  0.11569182429E+02  0.12700000000E+01 0. -1.
         25    2    1    2    0    0  0.00000000000E+00  0.00000000000E+00  0.32714954684E+03  0.35022037505E+03  0.12500994002E+03 0.  0.
    9000005    1    3    3    0    0 -0.43520743266E+02  0.12792869678E+02  0.43135954329E+02  0.62605296620E+02  0.10000000000E+01 0.  0.
    9000005    1    3    3    0    0  0.43520743266E+02 -0.12792869678E+02  0.28401359251E+03  0.28761507843E+03  0.10000000000E+01 0.  0.
<mgrwt>
<rscale>  0 0.12500994E+03</rscale>
<asrwt>0</asrwt>
<pdfrwt beam="2">  1        4 0.28838536E-02 0.12500994E+03</pdfrwt>
<pdfrwt beam="1">  1       -4 0.84671239E-01 0.12500994E+03</pdfrwt>
<totfact> 0.11669417E+03</totfact>
</mgrwt>
</event>
<event>
 5    1  0.1431256E-002  0.1249996E+03  0.7818608E-02  0.1235070E+00
          4   -1    0    0  501    0  0.00000000000E+00  0.00000000000E+00  0.68056027242E+02  0.68067876006E+02  0.12700000000E+01 0. -1.
         -4   -1    0    0    0  501 -0.00000000000E+00 -0.00000000000E+00 -0.57373302350E+02  0.57387356818E+02  0.12700000000E+01 0. -1.
         25    2    1    2    0    0  0.00000000000E+00  0.00000000000E+00  0.10682724893E+02  0.12545523282E+03  0.12499957933E+03 0.  0.
    9000005    1    3    3    0    0 -0.36214348294E+01  0.50777852330E+02 -0.31036016884E+02  0.59630021143E+02  0.10000000000E+01 0.  0.
    9000005    1    3    3    0    0  0.36214348294E+01 -0.50777852330E+02  0.41718741776E+02  0.65825211681E+02  0.10000000000E+01 0.  0.
<mgrwt>
<rscale>  0 0.12499958E+03</rscale>
<asrwt>0</asrwt>
<pdfrwt beam="1">  1        4 0.17017245E-01 0.12499958E+03</pdfrwt>
<pdfrwt beam="2">  1       -4 0.14346564E-01 0.12499958E+03</pdfrwt>
<totfact> 0.19810582E+03</totfact>
</mgrwt>
</event>
<event>
 5    1  0.1431256E-002  0.1250015E+03  0.7818608E-02  0.1235067E+00
          4   -1    0    0  501    0  0.00000000000E+00  0.00000000000E+00  0.28288096680E+02  0.28316590787E+02  0.12700000000E+01 0.  1.
         -4   -1    0    0    0  501 -0.00000000000E+00 -0.00000000000E+00 -0.13799051904E+03  0.13799636316E+03  0.12700000000E+01 0.  1.
         25    2    1    2    0    0  0.00000000000E+00  0.00000000000E+00 -0.10970242236E+03  0.16631295395E+03  0.12500150870E+03 0.  0.
    9000005    1    3    3    0    0 -0.24237076530E+02  0.57567352803E+02 -0.52220911894E+02  0.81421493640E+02  0.10000000000E+01 0.  0.
    9000005    1    3    3    0    0  0.24237076530E+02 -0.57567352803E+02 -0.57481510468E+02  0.84891460308E+02  0.10000000000E+01 0.  0.
<mgrwt>
<rscale>  0 0.12500151E+03</rscale>
<asrwt>0</asrwt>
<pdfrwt beam="1">  1        4 0.70763168E-02 0.12500151E+03</pdfrwt>
<pdfrwt beam="2">  1       -4 0.34501920E-01 0.12500151E+03</pdfrwt>
<totfact> 0.17764020E+03</totfact>
</mgrwt>
</event>
<event>
 5    1  0.1431256E-002  0.1250083E+03  0.7818608E-02  0.1235056E+00
          4   -1    0    0  501    0  0.00000000000E+00  0.00000000000E+00  0.12904217806E+03  0.12904842742E+03  0.12700000000E+01 0.  1.
         -4   -1    0    0    0  501 -0.00000000000E+00 -0.00000000000E+00 -0.30254820576E+02  0.30281464101E+02  0.12700000000E+01 0.  1.
         25    2    1    2    0    0  0.00000000000E+00  0.00000000000E+00  0.98787357486E+02  0.15932989152E+03  0.12500828906E+03 0.  0.
    9000005    1    3    3    0    0 -0.72960251447E+01  0.62064910283E+02  0.48507875392E+02  0.79115731978E+02  0.10000000000E+01 0.  0.
    9000005    1    3    3    0    0  0.72960251447E+01 -0.62064910283E+02  0.50279482094E+02  0.80214159542E+02  0.10000000000E+01 0.  0.
<mgrwt>
<rscale>  0 0.12500829E+03</rscale>
<asrwt>0</asrwt>
<pdfrwt beam="1">  1        4 0.32264656E-01 0.12500829E+03</pdfrwt>
<pdfrwt beam="2">  1       -4 0.75678169E-02 0.12500829E+03</pdfrwt>
<totfact> 0.18085851E+03</totfact>
</mgrwt>
</event>
<event>
 5    1  0.1431256E-002  0.1249976E+03  0.7818608E-02  0.1235073E+00
          4   -1    0    0  501    0  0.00000000000E+00  0.00000000000E+00  0.57524206026E+02  0.57538223634E+02  0.12700000000E+01 0. -1.
         -4   -1    0    0    0  501 -0.00000000000E+00 -0.00000000000E+00 -0.67875388193E+02  0.67887268485E+02  0.12700000000E+01 0. -1.
         25    2    1    2    0    0  0.00000000000E+00  0.00000000000E+00 -0.10351182167E+02  0.12542549212E+03  0.12499762838E+03 0.  0.
    9000005    1    3    3    0    0 -0.57826646294E+01 -0.50753408992E+02  0.30944208055E+02  0.59731831938E+02  0.10000000000E+01 0.  0.
    9000005    1    3    3    0    0  0.57826646294E+01  0.50753408992E+02 -0.41295390221E+02  0.65693660181E+02  0.10000000000E+01 0.  0.
<mgrwt>
<rscale>  0 0.12499763E+03</rscale>
<asrwt>0</asrwt>
<pdfrwt beam="1">  1        4 0.14384289E-01 0.12499763E+03</pdfrwt>
<pdfrwt beam="2">  1       -4 0.16972084E-01 0.12499763E+03</pdfrwt>
<totfact> 0.19813097E+03</totfact>
</mgrwt>
</event>
<event>
 5    1  0.1431256E-002  0.1249985E+03  0.7818608E-02  0.1235072E+00
         -4   -1    0    0    0  501 -0.00000000000E+00  0.00000000000E+00  0.62626533330E+01  0.63901272889E+01  0.12700000000E+01 0.  1.
          4   -1    0    0  501    0  0.00000000000E+00 -0.00000000000E+00 -0.61730989356E+03  0.61731119995E+03  0.12700000000E+01 0.  1.
         25    2    1    2    0    0  0.00000000000E+00  0.00000000000E+00 -0.61104724023E+03  0.62370132724E+03  0.12499846325E+03 0.  0.
    9000005    1    3    3    0    0 -0.51372219709E+02 -0.35019345881E+02 -0.27408694053E+03  0.28105179329E+03  0.10000000000E+01 0.  0.
    9000005    1    3    3    0    0  0.51372219709E+02  0.35019345881E+02 -0.33696029970E+03  0.34264953395E+03  0.10000000000E+01 0.  0.
<mgrwt>
<rscale>  0 0.12499846E+03</rscale>
<asrwt>0</asrwt>
<pdfrwt beam="2">  1        4 0.15434337E+00 0.12499846E+03</pdfrwt>
<pdfrwt beam="1">  1       -4 0.15817630E-02 0.12499846E+03</pdfrwt>
<totfact> 0.70600898E+02</totfact>
</mgrwt>
</event>
<event>
 5    1  0.1431256E-002  0.1250016E+03  0.7818608E-02  0.1235067E+00
         -4   -1    0    0    0  501 -0.00000000000E+00  0.00000000000E+00  0.16567279478E+04  0.16567284345E+04  0.12700000000E+01 0. -1.
          4   -1    0    0  501    0  0.00000000000E+00 -0.00000000000E+00 -0.21863347358E+01  0.25284302594E+01  0.12700000000E+01 0. -1.
         25    2    1    2    0    0  0.00000000000E+00  0.00000000000E+00  0.16545416130E+04  0.16592568648E+04  0.12500157651E+03 0.  0.
    9000005    1    3    3    0    0 -0.44440405890E+02  0.43843651076E+02  0.78941551003E+03  0.79188071254E+03  0.10000000000E+01 0.  0.
    9000005    1    3    3    0    0  0.44440405890E+02 -0.43843651076E+02  0.86512610298E+03  0.86737615224E+03  0.10000000000E+01 0.  0.
<mgrwt>
<rscale>  0 0.12500158E+03</rscale>
<asrwt>0</asrwt>
<pdfrwt beam="2">  1        4 0.58940667E-03 0.12500158E+03</pdfrwt>
<pdfrwt beam="1">  1       -4 0.41422467E+00 0.12500158E+03</pdfrwt>
<totfact> 0.79970077E+01</totfact>
</mgrwt>
</event>
<event>
 5    1  0.1431256E-002  0.1250062E+03  0.7818608E-02  0.1235060E+00
         -4   -1    0    0    0  501 -0.00000000000E+00  0.00000000000E+00  0.35772300316E+01  0.37959813882E+01  0.12700000000E+01 0. -1.
          4   -1    0    0  501    0  0.00000000000E+00 -0.00000000000E+00 -0.10594644595E+04  0.10594652207E+04  0.12700000000E+01 0. -1.
         25    2    1    2    0    0  0.00000000000E+00  0.00000000000E+00 -0.10558872295E+04  0.10632612021E+04  0.12500616978E+03 0.  0.
    9000005    1    3    3    0    0 -0.18624277735E+02 -0.55219593123E+02 -0.71994739411E+03  0.72230278794E+03  0.10000000000E+01 0.  0.
    9000005    1    3    3    0    0  0.18624277735E+02  0.55219593123E+02 -0.33593983537E+03  0.34095841414E+03  0.10000000000E+01 0.  0.
<mgrwt>
<rscale>  0 0.12500617E+03</rscale>
<asrwt>0</asrwt>
<pdfrwt beam="2">  1        4 0.26489251E+00 0.12500617E+03</pdfrwt>
<pdfrwt beam="1">  1       -4 0.92175020E-03 0.12500617E+03</pdfrwt>
<totfact> 0.33012974E+02</totfact>
</mgrwt>
</event>
<event>
 4    1  0.1431256E-002  0.1250680E+03  0.7818608E-02  0.1234963E+00
         -4   -1    0    0    0  501 -0.00000000000E+00  0.00000000000E+00  0.13413488552E+03  0.13414089762E+03  0.12700000000E+01 0.  1.
          4   -1    0    0  501    0  0.00000000000E+00 -0.00000000000E+00 -0.29133001205E+02  0.29160669732E+02  0.12700000000E+01 0.  1.
    9000005    1    1    2    0    0 -0.21122162218E+02 -0.39320736944E+02  0.10967274040E+03  0.11841189162E+03  0.10000000000E+01 0.  0.
    9000005    1    1    2    0    0  0.21122162218E+02  0.39320736944E+02 -0.46708560821E+01  0.44889675730E+02  0.10000000000E+01 0.  0.
<mgrwt>
<rscale>  0 0.12506801E+03</rscale>
<asrwt>0</asrwt>
<pdfrwt beam="2">  1        4 0.72874604E-02 0.12506801E+03</pdfrwt>
<pdfrwt beam="1">  1       -4 0.33537931E-01 0.12506801E+03</pdfrwt>
<totfact> 0.17875218E+03</totfact>
</mgrwt>
</event>
<event>
 5    1  0.1431256E-002  0.1249999E+03  0.7818608E-02  0.1235069E+00
          4   -1    0    0  501    0  0.00000000000E+00  0.00000000000E+00  0.54977758773E+02  0.54992425475E+02  0.12700000000E+01 0. -1.
         -4   -1    0    0    0  501 -0.00000000000E+00 -0.00000000000E+00 -0.71021508215E+02  0.71032862318E+02  0.12700000000E+01 0. -1.
         25    2    1    2    0    0  0.00000000000E+00  0.00000000000E+00 -0.16043749442E+02  0.12602528779E+03  0.12499988507E+03 0.  0.
    9000005    1    3    3    0    0  0.39304586939E+02  0.33867733659E+02 -0.43141066294E+02  0.67483520497E+02  0.10000000000E+01 0.  0.
    9000005    1    3    3    0    0 -0.39304586939E+02 -0.33867733659E+02  0.27097316852E+02  0.58541767297E+02  0.10000000000E+01 0.  0.
<mgrwt>
<rscale>  0 0.12499989E+03</rscale>
<asrwt>0</asrwt>
<pdfrwt beam="1">  1        4 0.13747692E-01 0.12499989E+03</pdfrwt>
<pdfrwt beam="2">  1       -4 0.17758630E-01 0.12499989E+03</pdfrwt>
<totfact> 0.19779607E+03</totfact>
</mgrwt>
</event>
<event>
 5    1  0.1431256E-002  0.1249981E+03  0.7818608E-02  0.1235072E+00
          4   -1    0    0  501    0  0.00000000000E+00  0.00000000000E+00  0.95733663932E+01  0.96572379125E+01  0.12700000000E+01 0. -1.
         -4   -1    0    0    0  501 -0.00000000000E+00 -0.00000000000E+00 -0.40615626913E+03  0.40615825469E+03  0.12700000000E+01 0. -1.
         25    2    1    2    0    0  0.00000000000E+00  0.00000000000E+00 -0.39658290273E+03  0.41581549260E+03  0.12499810057E+03 0.  0.
    9000005    1    3    3    0    0  0.12811508854E+02  0.54297739177E+02 -0.29195399306E+03  0.29723814241E+03  0.10000000000E+01 0.  0.
    9000005    1    3    3    0    0 -0.12811508854E+02 -0.54297739177E+02 -0.10462890967E+03  0.11857735019E+03  0.10000000000E+01 0.  0.
<mgrwt>
<rscale>  0 0.12499810E+03</rscale>
<asrwt>0</asrwt>
<pdfrwt beam="1">  1        4 0.24040751E-02 0.12499810E+03</pdfrwt>
<pdfrwt beam="2">  1       -4 0.10154974E+00 0.12499810E+03</pdfrwt>
<totfact> 0.10249496E+03</totfact>
</mgrwt>
</event>
<event>
 5    1  0.1431256E-002  0.1249965E+03  0.7818608E-02  0.1235075E+00
          4   -1    0    0  501    0  0.00000000000E+00  0.00000000000E+00  0.14713504817E+03  0.14714052908E+03  0.12700000000E+01 0.  1.
         -4   -1    0    0    0  501 -0.00000000000E+00 -0.00000000000E+00 -0.26526068874E+02  0.26556453640E+02  0.12700000000E+01 0.  1.
         25    2    1    2    0    0  0.00000000000E+00  0.00000000000E+00  0.12060897929E+03  0.17369698272E+03  0.12499646363E+03 0.  0.
    9000005    1    3    3    0    0 -0.22798454546E+02 -0.54410335729E+02  0.88944549983E+02  0.10673512606E+03  0.10000000000E+01 0.  0.
    9000005    1    3    3    0    0  0.22798454546E+02  0.54410335729E+02  0.31664429308E+02  0.66961856659E+02  0.10000000000E+01 0.  0.
<mgrwt>
<rscale>  0 0.12499646E+03</rscale>
<asrwt>0</asrwt>
<pdfrwt beam="1">  1        4 0.36788245E-01 0.12499646E+03</pdfrwt>
<pdfrwt beam="2">  1       -4 0.66360005E-02 0.12499646E+03</pdfrwt>
<totfact> 0.17433006E+03</totfact>
</mgrwt>
</event>
<event>
 5    1  0.1431256E-002  0.1250005E+03  0.7818608E-02  0.1235069E+00
          4   -1    0    0  501    0  0.00000000000E+00  0.00000000000E+00  0.77700696787E+03  0.77700800576E+03  0.12700000000E+01 0.  1.
         -4   -1    0    0    0  501 -0.00000000000E+00 -0.00000000000E+00 -0.49460756105E+01  0.51065217070E+01  0.12700000000E+01 0.  1.
         25    2    1    2    0    0  0.00000000000E+00  0.00000000000E+00  0.77206089226E+03  0.78211452747E+03  0.12500045089E+03 0.  0.
    9000005    1    3    3    0    0 -0.49066398804E+02 -0.28782456635E+01  0.14455306352E+03  0.15268393486E+03  0.10000000000E+01 0.  0.
    9000005    1    3    3    0    0  0.49066398804E+02  0.28782456635E+01  0.62750782873E+03  0.62943059261E+03  0.10000000000E+01 0.  0.
<mgrwt>
<rscale>  0 0.12500045E+03</rscale>
<asrwt>0</asrwt>
<pdfrwt beam="1">  1        4 0.19427198E+00 0.12500045E+03</pdfrwt>
<pdfrwt beam="2">  1       -4 0.12567041E-02 0.12500045E+03</pdfrwt>
<totfact> 0.54080651E+02</totfact>
</mgrwt>
</event>
<event>
 5    1  0.1431256E-002  0.1250023E+03  0.7818608E-02  0.1235066E+00
          4   -1    0    0  501    0  0.00000000000E+00  0.00000000000E+00  0.25295042390E+03  0.25295361205E+03  0.12700000000E+01 0. -1.
         -4   -1    0    0    0  501 -0.00000000000E+00 -0.00000000000E+00 -0.15413915016E+02  0.15466146130E+02  0.12700000000E+01 0. -1.
         25    2    1    2    0    0  0.00000000000E+00  0.00000000000E+00  0.23753650888E+03  0.26841975818E+03  0.12500229410E+03 0.  0.
    9000005    1    3    3    0    0 -0.42675349091E+02 -0.12494315716E+02  0.21305730852E+03  0.21765043087E+03  0.10000000000E+01 0.  0.
    9000005    1    3    3    0    0  0.42675349091E+02  0.12494315716E+02  0.24479200364E+02  0.50769327312E+02  0.10000000000E+01 0.  0.
<mgrwt>
<rscale>  0 0.12500229E+03</rscale>
<asrwt>0</asrwt>
<pdfrwt beam="1">  1        4 0.63244534E-01 0.12500229E+03</pdfrwt>
<pdfrwt beam="2">  1       -4 0.38604062E-02 0.12500229E+03</pdfrwt>
<totfact> 0.13903985E+03</totfact>
</mgrwt>
</event>
<event>
 5    1  0.1431256E-002  0.1250041E+03  0.7818608E-02  0.1235063E+00
         -4   -1    0    0    0  501 -0.00000000000E+00  0.00000000000E+00  0.33128787095E+02  0.33153121035E+02  0.12700000000E+01 0.  1.
          4   -1    0    0  501    0  0.00000000000E+00 -0.00000000000E+00 -0.11784769603E+03  0.11785453898E+03  0.12700000000E+01 0.  1.
         25    2    1    2    0    0  0.00000000000E+00  0.00000000000E+00 -0.84718908934E+02  0.15100766002E+03  0.12500407935E+03 0.  0.
    9000005    1    3    3    0    0 -0.33206773745E+02  0.98921020068E+01 -0.10518775793E+03  0.11075201092E+03  0.10000000000E+01 0.  0.
    9000005    1    3    3    0    0  0.33206773745E+02 -0.98921020068E+01  0.20468849000E+02  0.40255649095E+02  0.10000000000E+01 0.  0.
<mgrwt>
<rscale>  0 0.12500408E+03</rscale>
<asrwt>0</asrwt>
<pdfrwt beam="2">  1        4 0.29465820E-01 0.12500408E+03</pdfrwt>
<pdfrwt beam="1">  1       -4 0.82860942E-02 0.12500408E+03</pdfrwt>
<totfact> 0.18487590E+03</totfact>
</mgrwt>
</event>
<event>
 5    1  0.1431256E-002  0.1250192E+03  0.7818608E-02  0.1235039E+00
         -4   -1    0    0    0  501 -0.00000000000E+00  0.00000000000E+00  0.95233397138E+02  0.95241864904E+02  0.12700000000E+01 0. -1.
          4   -1    0    0  501    0  0.00000000000E+00 -0.00000000000E+00 -0.41010126152E+02  0.41029786095E+02  0.12700000000E+01 0. -1.
         25    2    1    2    0    0  0.00000000000E+00  0.00000000000E+00  0.54223270985E+02  0.13627165100E+03  0.12501919752E+03 0.  0.
    9000005    1    3    3    0    0  0.19945116829E+02  0.59841100842E+01  0.91346489361E+02  0.93695242022E+02  0.10000000000E+01 0.  0.
    9000005    1    3    3    0    0 -0.19945116829E+02 -0.59841100842E+01 -0.37123218376E+02  0.42576408978E+02  0.10000000000E+01 0.  0.
<mgrwt>
<rscale>  0 0.12501920E+03</rscale>
<asrwt>0</asrwt>
<pdfrwt beam="2">  1        4 0.10256048E-01 0.12501920E+03</pdfrwt>
<pdfrwt beam="1">  1       -4 0.23811865E-01 0.12501920E+03</pdfrwt>
<totfact> 0.19224124E+03</totfact>
</mgrwt>
</event>
<event>
 5    1  0.1431256E-002  0.1249987E+03  0.7818608E-02  0.1235071E+00
          4   -1    0    0  501    0  0.00000000000E+00  0.00000000000E+00  0.48728701022E+02  0.48745248007E+02  0.12700000000E+01 0. -1.
         -4   -1    0    0    0  501 -0.00000000000E+00 -0.00000000000E+00 -0.80126433325E+02  0.80136497412E+02  0.12700000000E+01 0. -1.
         25    2    1    2    0    0  0.00000000000E+00  0.00000000000E+00 -0.31397732304E+02  0.12888174542E+03  0.12499874683E+03 0.  0.
    9000005    1    3    3    0    0 -0.19740609534E+02  0.58561002856E+02 -0.25265507058E+02  0.66771465217E+02  0.10000000000E+01 0.  0.
    9000005    1    3    3    0    0  0.19740609534E+02 -0.58561002856E+02 -0.61322252452E+01  0.62110280202E+02  0.10000000000E+01 0.  0.
<mgrwt>
<rscale>  0 0.12499875E+03</rscale>
<asrwt>0</asrwt>
<pdfrwt beam="1">  1        4 0.12185502E-01 0.12499875E+03</pdfrwt>
<pdfrwt beam="2">  1       -4 0.20034935E-01 0.12499875E+03</pdfrwt>
<totfact> 0.19625266E+03</totfact>
</mgrwt>
</event>
<event>
 5    1  0.1431256E-002  0.1250032E+03  0.7818608E-02  0.1235064E+00
          4   -1    0    0  501    0  0.00000000000E+00  0.00000000000E+00  0.39921460004E+02  0.39941655810E+02  0.12700000000E+01 0. -1.
         -4   -1    0    0    0  501 -0.00000000000E+00 -0.00000000000E+00 -0.97804371647E+02  0.97812616841E+02  0.12700000000E+01 0. -1.
         25    2    1    2    0    0  0.00000000000E+00  0.00000000000E+00 -0.57882911643E+02  0.13775427265E+03  0.12500323265E+03 0.  0.
    9000005    1    3    3    0    0 -0.21022948761E+02  0.37506777021E+02 -0.78918711666E+02  0.89877059076E+02  0.10000000000E+01 0.  0.
    9000005    1    3    3    0    0  0.21022948761E+02 -0.37506777021E+02  0.21035800023E+02  0.47877213575E+02  0.10000000000E+01 0.  0.
<mgrwt>
<rscale>  0 0.12500323E+03</rscale>
<asrwt>0</asrwt>
<pdfrwt beam="1">  1        4 0.99839203E-02 0.12500323E+03</pdfrwt>
<pdfrwt beam="2">  1       -4 0.24454648E-01 0.12500323E+03</pdfrwt>
<totfact> 0.19154382E+03</totfact>
</mgrwt>
</event>
<event>
 5    1  0.1431256E-002  0.1249846E+03  0.7818608E-02  0.1235093E+00
          4   -1    0    0  501    0  0.00000000000E+00  0.00000000000E+00  0.36138659379E+02  0.36160967931E+02  0.12700000000E+01 0. -1.
         -4   -1    0    0    0  501 -0.00000000000E+00 -0.00000000000E+00 -0.10800451654E+03  0.10801198310E+03  0.12700000000E+01 0. -1.
         25    2    1    2    0    0  0.00000000000E+00  0.00000000000E+00 -0.71865857164E+02  0.14417295103E+03  0.12498455258E+03 0.  0.
    9000005    1    3    3    0    0 -0.47095402303E+02  0.29387857079E+02 -0.69018454593E+02  0.88578609925E+02  0.10000000000E+01 0.  0.
    9000005    1    3    3    0    0  0.47095402303E+02 -0.29387857079E+02 -0.28474025711E+01  0.55594341108E+02  0.10000000000E+01 0.  0.
<mgrwt>
<rscale>  0 0.12498455E+03</rscale>
<asrwt>0</asrwt>
<pdfrwt beam="1">  1        4 0.90383870E-02 0.12498455E+03</pdfrwt>
<pdfrwt beam="2">  1       -4 0.27004850E-01 0.12498455E+03</pdfrwt>
<totfact> 0.18835636E+03</totfact>
</mgrwt>
</event>
<event>
 5    1  0.1431256E-002  0.1249904E+03  0.7818608E-02  0.1235084E+00
         -4   -1    0    0    0  501 -0.00000000000E+00  0.00000000000E+00  0.44122943825E+01  0.45914313365E+01  0.12700000000E+01 0. -1.
          4   -1    0    0  501    0  0.00000000000E+00 -0.00000000000E+00 -0.86738308146E+03  0.86738401121E+03  0.12700000000E+01 0. -1.
         25    2    1    2    0    0  0.00000000000E+00  0.00000000000E+00 -0.86297078707E+03  0.87197544254E+03  0.12499037185E+03 0.  0.
    9000005    1    3    3    0    0 -0.49979206075E+02  0.35260635735E+02 -0.34230418034E+03  0.34772745843E+03  0.10000000000E+01 0.  0.
    9000005    1    3    3    0    0  0.49979206075E+02 -0.35260635735E+02 -0.52066660674E+03  0.52424798411E+03  0.10000000000E+01 0.  0.
<mgrwt>
<rscale>  0 0.12499037E+03</rscale>
<asrwt>0</asrwt>
<pdfrwt beam="2">  1        4 0.21686771E+00 0.12499037E+03</pdfrwt>
<pdfrwt beam="1">  1       -4 0.11255849E-02 0.12499037E+03</pdfrwt>
<totfact> 0.46466992E+02</totfact>
</mgrwt>
</event>
<event>
 5    1  0.1431256E-002  0.1249963E+03  0.7818608E-02  0.1235075E+00
          4   -1    0    0  501    0  0.00000000000E+00  0.00000000000E+00  0.10664360209E+03  0.10665116393E+03  0.12700000000E+01 0.  1.
         -4   -1    0    0    0  501 -0.00000000000E+00 -0.00000000000E+00 -0.36606981874E+02  0.36629005199E+02  0.12700000000E+01 0.  1.
         25    2    1    2    0    0  0.00000000000E+00  0.00000000000E+00  0.70036620220E+02  0.14328016913E+03  0.12499631472E+03 0.  0.
    9000005    1    3    3    0    0  0.31357460812E+02 -0.45815587366E+02  0.21407632911E+01  0.55569247446E+02  0.10000000000E+01 0.  0.
    9000005    1    3    3    0    0 -0.31357460812E+02  0.45815587366E+02  0.67895856929E+02  0.87710921683E+02  0.10000000000E+01 0.  0.
<mgrwt>
<rscale>  0 0.12499631E+03</rscale>
<asrwt>0</asrwt>
<pdfrwt beam="1">  1        4 0.26664598E-01 0.12499631E+03</pdfrwt>
<pdfrwt beam="2">  1       -4 0.91554437E-02 0.12499631E+03</pdfrwt>
<totfact> 0.18875394E+03</totfact>
</mgrwt>
</event>
<event>
 5    1  0.1431256E-002  0.1250530E+03  0.7818608E-02  0.1234986E+00
         -4   -1    0    0    0  501 -0.00000000000E+00  0.00000000000E+00  0.28684449005E+01  0.31370170779E+01  0.12700000000E+01 0. -1.
          4   -1    0    0  501    0  0.00000000000E+00 -0.00000000000E+00 -0.13017343943E+04  0.13017350138E+04  0.12700000000E+01 0. -1.
         25    2    1    2    0    0  0.00000000000E+00  0.00000000000E+00 -0.12988659494E+04  0.13048720309E+04  0.12505303878E+03 0.  0.
    9000005    1    3    3    0    0 -0.34295036249E+02 -0.10355090623E+02 -0.11840636774E+04  0.11846059132E+04  0.10000000000E+01 0.  0.
    9000005    1    3    3    0    0  0.34295036249E+02  0.10355090623E+02 -0.11480227197E+03  0.12026611768E+03  0.10000000000E+01 0.  0.
<mgrwt>
<rscale>  0 0.12505304E+03</rscale>
<asrwt>0</asrwt>
<pdfrwt beam="2">  1        4 0.32546531E+00 0.12505304E+03</pdfrwt>
<pdfrwt beam="1">  1       -4 0.75076465E-03 0.12505304E+03</pdfrwt>
<totfact> 0.20071246E+02</totfact>
</mgrwt>
</event>
<event>
 5    1  0.1431256E-002  0.1249909E+03  0.7818608E-02  0.1235084E+00
         -4   -1    0    0    0  501 -0.00000000000E+00  0.00000000000E+00  0.79696929194E+02  0.79707047512E+02  0.12700000000E+01 0.  1.
          4   -1    0    0  501    0  0.00000000000E+00 -0.00000000000E+00 -0.48985209376E+02  0.49001669743E+02  0.12700000000E+01 0.  1.
         25    2    1    2    0    0  0.00000000000E+00  0.00000000000E+00  0.30711719818E+02  0.12870871725E+03  0.12499089632E+03 0.  0.
    9000005    1    3    3    0    0 -0.26711536386E+02 -0.51552108766E+02  0.39141736148E+02  0.70030005019E+02  0.10000000000E+01 0.  0.
    9000005    1    3    3    0    0  0.26711536386E+02  0.51552108766E+02 -0.84300163296E+01  0.58678712236E+02  0.10000000000E+01 0.  0.
<mgrwt>
<rscale>  0 0.12499090E+03</rscale>
<asrwt>0</asrwt>
<pdfrwt beam="2">  1        4 0.12249625E-01 0.12499090E+03</pdfrwt>
<pdfrwt beam="1">  1       -4 0.19927554E-01 0.12499090E+03</pdfrwt>
<totfact> 0.19638232E+03</totfact>
</mgrwt>
</event>
<event>
 5    1  0.1431256E-002  0.1249977E+03  0.7818608E-02  0.1235073E+00
          4   -1    0    0  501    0  0.00000000000E+00  0.00000000000E+00  0.61873333543E+01  0.63163275752E+01  0.12700000000E+01 0.  1.
         -4   -1    0    0    0  501 -0.00000000000E+00 -0.00000000000E+00 -0.62466426202E+03  0.62466555304E+03  0.12700000000E+01 0.  1.
         25    2    1    2    0    0  0.00000000000E+00  0.00000000000E+00 -0.61847692867E+03  0.63098188061E+03  0.12499768943E+03 0.  0.
    9000005    1    3    3    0    0 -0.47035206550E+02 -0.29105764609E+02 -0.45603306304E+03  0.45937632805E+03  0.10000000000E+01 0.  0.
    9000005    1    3    3    0    0  0.47035206550E+02  0.29105764609E+02 -0.16244386563E+03  0.17160555256E+03  0.10000000000E+01 0.  0.
<mgrwt>
<rscale>  0 0.12499769E+03</rscale>
<asrwt>0</asrwt>
<pdfrwt beam="1">  1        4 0.15631211E-02 0.12499769E+03</pdfrwt>
<pdfrwt beam="2">  1       -4 0.15618214E+00 0.12499769E+03</pdfrwt>
<totfact> 0.69733561E+02</totfact>
</mgrwt>
</event>
<event>
 5    1  0.1431256E-002  0.1250016E+03  0.7818608E-02  0.1235067E+00
         -4   -1    0    0    0  501 -0.00000000000E+00  0.00000000000E+00  0.12747889210E+02  0.12810994470E+02  0.12700000000E+01 0.  1.
          4   -1    0    0  501    0  0.00000000000E+00 -0.00000000000E+00 -0.30561019470E+03  0.30561283350E+03  0.12700000000E+01 0.  1.
         25    2    1    2    0    0  0.00000000000E+00  0.00000000000E+00 -0.29286230549E+03  0.31842382797E+03  0.12500161698E+03 0.  0.
    9000005    1    3    3    0    0  0.37426383744E+02 -0.48328856502E+02 -0.17954077555E+03  0.18966365665E+03  0.10000000000E+01 0.  0.
    9000005    1    3    3    0    0 -0.37426383744E+02  0.48328856502E+02 -0.11332152994E+03  0.12876017132E+03  0.10000000000E+01 0.  0.
<mgrwt>
<rscale>  0 0.12500162E+03</rscale>
<asrwt>0</asrwt>
<pdfrwt beam="2">  1        4 0.76410743E-01 0.12500162E+03</pdfrwt>
<pdfrwt beam="1">  1       -4 0.31951913E-02 0.12500162E+03</pdfrwt>
<totfact> 0.12469504E+03</totfact>
</mgrwt>
</event>
<event>
 5    1  0.1431256E-002  0.1249981E+03  0.7818608E-02  0.1235072E+00
          4   -1    0    0  501    0  0.00000000000E+00  0.00000000000E+00  0.83212084019E+03  0.83212180934E+03  0.12700000000E+01 0.  1.
         -4   -1    0    0    0  501 -0.00000000000E+00 -0.00000000000E+00 -0.46072955552E+01  0.47791288258E+01  0.12700000000E+01 0.  1.
         25    2    1    2    0    0  0.00000000000E+00  0.00000000000E+00  0.82751354463E+03  0.83690093816E+03  0.12499805498E+03 0.  0.
    9000005    1    3    3    0    0  0.43394645390E+02  0.38735120479E+02  0.56667153955E+03  0.56965001408E+03  0.10000000000E+01 0.  0.
    9000005    1    3    3    0    0 -0.43394645390E+02 -0.38735120479E+02  0.26084200508E+03  0.26725092408E+03  0.10000000000E+01 0.  0.
<mgrwt>
<rscale>  0 0.12499805E+03</rscale>
<asrwt>0</asrwt>
<pdfrwt beam="1">  1        4 0.20805185E+00 0.12499805E+03</pdfrwt>
<pdfrwt beam="2">  1       -4 0.11734240E-02 0.12499805E+03</pdfrwt>
<totfact> 0.49315287E+02</totfact>
</mgrwt>
</event>
<event>
 5    1  0.1431256E-002  0.1249987E+03  0.7818608E-02  0.1235071E+00
         -4   -1    0    0    0  501 -0.00000000000E+00  0.00000000000E+00  0.15857313249E+03  0.15857821808E+03  0.12700000000E+01 0. -1.
          4   -1    0    0  501    0  0.00000000000E+00 -0.00000000000E+00 -0.24611366328E+02  0.24644111924E+02  0.12700000000E+01 0. -1.
         25    2    1    2    0    0  0.00000000000E+00  0.00000000000E+00  0.13396176617E+03  0.18322233000E+03  0.12499866966E+03 0.  0.
    9000005    1    3    3    0    0  0.35764321371E+02  0.27702290416E+01  0.14198610575E+03  0.14645072577E+03  0.10000000000E+01 0.  0.
    9000005    1    3    3    0    0 -0.35764321371E+02 -0.27702290416E+01 -0.80243395844E+01  0.36771604233E+02  0.10000000000E+01 0.  0.
<mgrwt>
<rscale>  0 0.12499867E+03</rscale>
<asrwt>0</asrwt>
<pdfrwt beam="2">  1        4 0.61575706E-02 0.12499867E+03</pdfrwt>
<pdfrwt beam="1">  1       -4 0.39648011E-01 0.12499867E+03</pdfrwt>
<totfact> 0.17017147E+03</totfact>
</mgrwt>
</event>
<event>
 5    1  0.1431256E-002  0.1249999E+03  0.7818608E-02  0.1235069E+00
          4   -1    0    0  501    0  0.00000000000E+00  0.00000000000E+00  0.23859388293E+03  0.23859726292E+03  0.12700000000E+01 0. -1.
         -4   -1    0    0    0  501 -0.00000000000E+00 -0.00000000000E+00 -0.16343802057E+02  0.16393070660E+02  0.12700000000E+01 0. -1.
         25    2    1    2    0    0  0.00000000000E+00  0.00000000000E+00  0.22225008087E+03  0.25499033358E+03  0.12499988708E+03 0.  0.
    9000005    1    3    3    0    0 -0.21331598343E+02  0.54860777023E+02  0.68310868847E+02  0.90178249850E+02  0.10000000000E+01 0.  0.
    9000005    1    3    3    0    0  0.21331598343E+02 -0.54860777023E+02  0.15393921202E+03  0.16481208373E+03  0.10000000000E+01 0.  0.
<mgrwt>
<rscale>  0 0.12499989E+03</rscale>
<asrwt>0</asrwt>
<pdfrwt beam="1">  1        4 0.59655051E-01 0.12499989E+03</pdfrwt>
<pdfrwt beam="2">  1       -4 0.40925317E-02 0.12499989E+03</pdfrwt>
<totfact> 0.14333479E+03</totfact>
</mgrwt>
</event>
<event>
 5    1  0.1431256E-002  0.1249993E+03  0.7818608E-02  0.1235070E+00
          4   -1    0    0  501    0  0.00000000000E+00  0.00000000000E+00  0.45792867641E+03  0.45793043749E+03  0.12700000000E+01 0.  1.
         -4   -1    0    0    0  501 -0.00000000000E+00 -0.00000000000E+00 -0.84811018945E+01  0.85756626184E+01  0.12700000000E+01 0.  1.
         25    2    1    2    0    0  0.00000000000E+00  0.00000000000E+00  0.44944757452E+03  0.46650610011E+03  0.12499927680E+03 0.  0.
    9000005    1    3    3    0    0 -0.64737474901E+01 -0.28362484188E+02  0.43113342592E+03  0.43211499727E+03  0.10000000000E+01 0.  0.
    9000005    1    3    3    0    0  0.64737474901E+01  0.28362484188E+02  0.18314148595E+02  0.34391102841E+02  0.10000000000E+01 0.  0.
<mgrwt>
<rscale>  0 0.12499928E+03</rscale>
<asrwt>0</asrwt>
<pdfrwt beam="1">  1        4 0.11449419E+00 0.12499928E+03</pdfrwt>
<pdfrwt beam="2">  1       -4 0.21323160E-02 0.12499928E+03</pdfrwt>
<totfact> 0.93128813E+02</totfact>
</mgrwt>
</event>
<event>
 5    1  0.1431256E-002  0.1250010E+03  0.7818608E-02  0.1235068E+00
          4   -1    0    0  501    0  0.00000000000E+00  0.00000000000E+00  0.18152887357E+02  0.18197258568E+02  0.12700000000E+01 0.  1.
         -4   -1    0    0    0  501 -0.00000000000E+00 -0.00000000000E+00 -0.21488056889E+03  0.21488432187E+03  0.12700000000E+01 0.  1.
         25    2    1    2    0    0  0.00000000000E+00  0.00000000000E+00 -0.19672768153E+03  0.23308158044E+03  0.12500096983E+03 0.  0.
    9000005    1    3    3    0    0 -0.10193902651E+01  0.49486850669E+02 -0.27230324292E+02  0.56502018607E+02  0.10000000000E+01 0.  0.
    9000005    1    3    3    0    0  0.10193902651E+01 -0.49486850669E+02 -0.16949735724E+03  0.17657956183E+03  0.10000000000E+01 0.  0.
<mgrwt>
<rscale>  0 0.12500097E+03</rscale>
<asrwt>0</asrwt>
<pdfrwt beam="1">  1        4 0.45442380E-02 0.12500097E+03</pdfrwt>
<pdfrwt beam="2">  1       -4 0.53726150E-01 0.12500097E+03</pdfrwt>
<totfact> 0.15077486E+03</totfact>
</mgrwt>
</event>
<event>
 5    1  0.1431256E-002  0.1250006E+03  0.7818608E-02  0.1235068E+00
         -4   -1    0    0    0  501 -0.00000000000E+00  0.00000000000E+00  0.22123638445E+03  0.22124002961E+03  0.12700000000E+01 0. -1.
          4   -1    0    0  501    0  0.00000000000E+00 -0.00000000000E+00 -0.17629980503E+02  0.17675664416E+02  0.12700000000E+01 0. -1.
         25    2    1    2    0    0  0.00000000000E+00  0.00000000000E+00  0.20360640394E+03  0.23891569403E+03  0.12500056450E+03 0.  0.
    9000005    1    3    3    0    0  0.28615299160E+02  0.55351243298E+02  0.92698870782E+02  0.11169904263E+03  0.10000000000E+01 0.  0.
    9000005    1    3    3    0    0 -0.28615299160E+02 -0.55351243298E+02  0.11090753316E+03  0.12721665140E+03  0.10000000000E+01 0.  0.
<mgrwt>
<rscale>  0 0.12500056E+03</rscale>
<asrwt>0</asrwt>
<pdfrwt beam="2">  1        4 0.44136612E-02 0.12500056E+03</pdfrwt>
<pdfrwt beam="1">  1       -4 0.55315263E-01 0.12500056E+03</pdfrwt>
<totfact> 0.14873687E+03</totfact>
</mgrwt>
</event>
<event>
 5    1  0.1431256E-002  0.1249993E+03  0.7818608E-02  0.1235070E+00
         -4   -1    0    0    0  501 -0.00000000000E+00  0.00000000000E+00  0.51928100632E+02  0.51943628438E+02  0.12700000000E+01 0. -1.
          4   -1    0    0  501    0  0.00000000000E+00 -0.00000000000E+00 -0.75191203985E+02  0.75201928543E+02  0.12700000000E+01 0. -1.
         25    2    1    2    0    0  0.00000000000E+00  0.00000000000E+00 -0.23263103352E+02  0.12714555698E+03  0.12499928273E+03 0.  0.
    9000005    1    3    3    0    0  0.41048032984E+02  0.36064501839E+02  0.19214309196E+02  0.57929085809E+02  0.10000000000E+01 0.  0.
    9000005    1    3    3    0    0 -0.41048032984E+02 -0.36064501839E+02 -0.42477412549E+02  0.69216471172E+02  0.10000000000E+01 0.  0.
<mgrwt>
<rscale>  0 0.12499928E+03</rscale>
<asrwt>0</asrwt>
<pdfrwt beam="2">  1        4 0.18801082E-01 0.12499928E+03</pdfrwt>
<pdfrwt beam="1">  1       -4 0.12985307E-01 0.12499928E+03</pdfrwt>
<totfact> 0.19719435E+03</totfact>
</mgrwt>
</event>
<event>
 5    1  0.1431256E-002  0.1250102E+03  0.7818608E-02  0.1235053E+00
          4   -1    0    0  501    0  0.00000000000E+00  0.00000000000E+00  0.14212314834E+03  0.14212882253E+03  0.12700000000E+01 0.  1.
         -4   -1    0    0    0  501 -0.00000000000E+00 -0.00000000000E+00 -0.27468562040E+02  0.27497905385E+02  0.12700000000E+01 0.  1.
         25    2    1    2    0    0  0.00000000000E+00  0.00000000000E+00  0.11465458630E+03  0.16962672791E+03  0.12501021024E+03 0.  0.
    9000005    1    3    3    0    0 -0.42536119806E+02  0.17686283554E+02  0.11463555799E+03  0.12354933132E+03  0.10000000000E+01 0.  0.
    9000005    1    3    3    0    0  0.42536119806E+02 -0.17686283554E+02  0.19028301158E-01  0.46077396587E+02  0.10000000000E+01 0.  0.
<mgrwt>
<rscale>  0 0.12501021E+03</rscale>
<asrwt>0</asrwt>
<pdfrwt beam="1">  1        4 0.35535163E-01 0.12501021E+03</pdfrwt>
<pdfrwt beam="2">  1       -4 0.68715179E-02 0.12501021E+03</pdfrwt>
<totfact> 0.17609722E+03</totfact>
</mgrwt>
</event>
<event>
 5    1  0.1431256E-002  0.1249987E+03  0.7818608E-02  0.1235071E+00
          4   -1    0    0  501    0  0.00000000000E+00  0.00000000000E+00  0.43631742646E+01  0.45442479756E+01  0.12700000000E+01 0.  1.
         -4   -1    0    0    0  501 -0.00000000000E+00 -0.00000000000E+00 -0.87687817629E+03  0.87687909597E+03  0.12700000000E+01 0.  1.
         25    2    1    2    0    0  0.00000000000E+00  0.00000000000E+00 -0.87251500202E+03  0.88142334394E+03  0.12499872998E+03 0.  0.
    9000005    1    3    3    0    0  0.44979581683E+02  0.16006995099E+02 -0.72057943566E+03  0.72216003057E+03  0.10000000000E+01 0.  0.
    9000005    1    3    3    0    0 -0.44979581683E+02 -0.16006995099E+02 -0.15193556636E+03  0.15926331337E+03  0.10000000000E+01 0.  0.
<mgrwt>
<rscale>  0 0.12499873E+03</rscale>
<asrwt>0</asrwt>
<pdfrwt beam="1">  1        4 0.11135457E-02 0.12499873E+03</pdfrwt>
<pdfrwt beam="2">  1       -4 0.21924170E+00 0.12499873E+03</pdfrwt>
<totfact> 0.45712762E+02</totfact>
</mgrwt>
</event>
<event>
 5    1  0.1431256E-002  0.1249987E+03  0.7818608E-02  0.1235071E+00
          4   -1    0    0  501    0  0.00000000000E+00  0.00000000000E+00  0.17028197208E+02  0.17075491212E+02  0.12700000000E+01 0. -1.
         -4   -1    0    0    0  501 -0.00000000000E+00 -0.00000000000E+00 -0.22902687533E+03  0.22903039650E+03  0.12700000000E+01 0. -1.
         25    2    1    2    0    0  0.00000000000E+00  0.00000000000E+00 -0.21199867812E+03  0.24610588772E+03  0.12499867377E+03 0.  0.
    9000005    1    3    3    0    0 -0.45333936572E+02  0.29880226417E+02 -0.16691260752E+03  0.17552439228E+03  0.10000000000E+01 0.  0.
    9000005    1    3    3    0    0  0.45333936572E+02 -0.29880226417E+02 -0.45086070599E+02  0.70581495435E+02  0.10000000000E+01 0.  0.
<mgrwt>
<rscale>  0 0.12499867E+03</rscale>
<asrwt>0</asrwt>
<pdfrwt beam="1">  1        4 0.42634019E-02 0.12499867E+03</pdfrwt>
<pdfrwt beam="2">  1       -4 0.57263061E-01 0.12499867E+03</pdfrwt>
<totfact> 0.14628837E+03</totfact>
</mgrwt>
</event>
<event>
 5    1  0.1431256E-002  0.1249975E+03  0.7818608E-02  0.1235073E+00
         -4   -1    0    0    0  501 -0.00000000000E+00  0.00000000000E+00  0.26024828242E+02  0.26055797532E+02  0.12700000000E+01 0. -1.
          4   -1    0    0  501    0  0.00000000000E+00 -0.00000000000E+00 -0.14996818081E+03  0.14997355819E+03  0.12700000000E+01 0. -1.
         25    2    1    2    0    0  0.00000000000E+00  0.00000000000E+00 -0.12394335257E+03  0.17602935572E+03  0.12499751769E+03 0.  0.
    9000005    1    3    3    0    0 -0.40719153780E+02  0.42748783610E+02 -0.90818277916E+02  0.10832574758E+03  0.10000000000E+01 0.  0.
    9000005    1    3    3    0    0  0.40719153780E+02 -0.42748783610E+02 -0.33125074650E+02  0.67703608140E+02  0.10000000000E+01 0.  0.
<mgrwt>
<rscale>  0 0.12499752E+03</rscale>
<asrwt>0</asrwt>
<pdfrwt beam="2">  1        4 0.37496586E-01 0.12499752E+03</pdfrwt>
<pdfrwt beam="1">  1       -4 0.65107508E-02 0.12499752E+03</pdfrwt>
<totfact> 0.17329475E+03</totfact>
</mgrwt>
</event>
<event>
 5    1  0.1431256E-002  0.1250014E+03  0.7818608E-02  0.1235067E+00
          4   -1    0    0  501    0  0.00000000000E+00  0.00000000000E+00  0.21604480388E+02  0.21641776102E+02  0.12700000000E+01 0.  1.
         -4   -1    0    0    0  501 -0.00000000000E+00 -0.00000000000E+00 -0.18061610289E+03  0.18062056783E+03  0.12700000000E+01 0.  1.
         25    2    1    2    0    0  0.00000000000E+00  0.00000000000E+00 -0.15901162250E+03  0.20226234393E+03  0.12500143872E+03 0.  0.
    9000005    1    3    3    0    0 -0.56255853512E+02 -0.16234225836E+02 -0.44163860166E+02  0.73346558799E+02  0.10000000000E+01 0.  0.
    9000005    1    3    3    0    0  0.56255853512E+02  0.16234225836E+02 -0.11484776233E+03  0.12891578513E+03  0.10000000000E+01 0.  0.
<mgrwt>
<rscale>  0 0.12500144E+03</rscale>
<asrwt>0</asrwt>
<pdfrwt beam="1">  1        4 0.54063407E-02 0.12500144E+03</pdfrwt>
<pdfrwt beam="2">  1       -4 0.45159241E-01 0.12500144E+03</pdfrwt>
<totfact> 0.16231313E+03</totfact>
</mgrwt>
</event>
<event>
 5    1  0.1431256E-002  0.1249922E+03  0.7818608E-02  0.1235081E+00
          4   -1    0    0  501    0  0.00000000000E+00  0.00000000000E+00  0.10015162714E+03  0.10015967910E+03  0.12700000000E+01 0.  1.
         -4   -1    0    0    0  501 -0.00000000000E+00 -0.00000000000E+00 -0.38978559857E+02  0.38999243949E+02  0.12700000000E+01 0.  1.
         25    2    1    2    0    0  0.00000000000E+00  0.00000000000E+00  0.61173067278E+02  0.13915892305E+03  0.12499224658E+03 0.  0.
    9000005    1    3    3    0    0  0.62195405956E+02 -0.27102586199E+00  0.37305748351E+02  0.72533170599E+02  0.10000000000E+01 0.  0.
    9000005    1    3    3    0    0 -0.62195405956E+02  0.27102586199E+00  0.23867318927E+02  0.66625752452E+02  0.10000000000E+01 0.  0.
<mgrwt>
<rscale>  0 0.12499225E+03</rscale>
<asrwt>0</asrwt>
<pdfrwt beam="1">  1        4 0.25041499E-01 0.12499225E+03</pdfrwt>
<pdfrwt beam="2">  1       -4 0.97482320E-02 0.12499225E+03</pdfrwt>
<totfact> 0.19086904E+03</totfact>
</mgrwt>
</event>
<event>
 4    1  0.1431256E-002  0.1249343E+03  0.7818608E-02  0.1235172E+00
         -4   -1    0    0    0  501 -0.00000000000E+00  0.00000000000E+00  0.12187476271E+03  0.12188137957E+03  0.12700000000E+01 0.  1.
          4   -1    0    0  501    0  0.00000000000E+00 -0.00000000000E+00 -0.31997592348E+02  0.32022785889E+02  0.12700000000E+01 0.  1.
    9000005    1    1    2    0    0 -0.14332038442E+02  0.35296002447E+02 -0.16035537102E+02  0.41344329294E+02  0.10000000000E+01 0.  0.
    9000005    1    1    2    0    0  0.14332038442E+02 -0.35296002447E+02  0.10591270746E+03  0.11255983616E+03  0.10000000000E+01 0.  0.
<mgrwt>
<rscale>  0 0.12493433E+03</rscale>
<asrwt>0</asrwt>
<pdfrwt beam="2">  1        4 0.80033744E-02 0.12493433E+03</pdfrwt>
<pdfrwt beam="1">  1       -4 0.30472667E-01 0.12493433E+03</pdfrwt>
<totfact> 0.18376519E+03</totfact>
</mgrwt>
</event>
<event>
 5    1  0.1431256E-002  0.1249924E+03  0.7818608E-02  0.1235081E+00
         -4   -1    0    0    0  501 -0.00000000000E+00  0.00000000000E+00  0.12580880595E+03  0.12581521591E+03  0.12700000000E+01 0.  1.
          4   -1    0    0  501    0  0.00000000000E+00 -0.00000000000E+00 -0.31025125663E+02  0.31051108232E+02  0.12700000000E+01 0.  1.
         25    2    1    2    0    0  0.00000000000E+00  0.00000000000E+00  0.94783680282E+02  0.15686632414E+03  0.12499239017E+03 0.  0.
    9000005    1    3    3    0    0  0.39322012404E+02  0.42819482752E+02  0.76148912754E+02  0.95809110612E+02  0.10000000000E+01 0.  0.
    9000005    1    3    3    0    0 -0.39322012404E+02 -0.42819482752E+02  0.18634767528E+02  0.61057213525E+02  0.10000000000E+01 0.  0.
<mgrwt>
<rscale>  0 0.12499239E+03</rscale>
<asrwt>0</asrwt>
<pdfrwt beam="2">  1        4 0.77603305E-02 0.12499239E+03</pdfrwt>
<pdfrwt beam="1">  1       -4 0.31456250E-01 0.12499239E+03</pdfrwt>
<totfact> 0.18209456E+03</totfact>
</mgrwt>
</event>
<event>
 5    1  0.1431256E-002  0.1249968E+03  0.7818608E-02  0.1235074E+00
          4   -1    0    0  501    0  0.00000000000E+00  0.00000000000E+00  0.14893749973E+02  0.14947798776E+02  0.12700000000E+01 0.  1.
         -4   -1    0    0    0  501 -0.00000000000E+00 -0.00000000000E+00 -0.26173036407E+03  0.26173344528E+03  0.12700000000E+01 0.  1.
         25    2    1    2    0    0  0.00000000000E+00  0.00000000000E+00 -0.24683661410E+03  0.27668124405E+03  0.12499678697E+03 0.  0.
    9000005    1    3    3    0    0  0.44405348118E+02  0.42022963391E+02 -0.15204749986E+03  0.16388168478E+03  0.10000000000E+01 0.  0.
    9000005    1    3    3    0    0 -0.44405348118E+02 -0.42022963391E+02 -0.94789114242E+02  0.11279955927E+03  0.10000000000E+01 0.  0.
<mgrwt>
<rscale>  0 0.12499679E+03</rscale>
<asrwt>0</asrwt>
<pdfrwt beam="1">  1        4 0.37305796E-02 0.12499679E+03</pdfrwt>
<pdfrwt beam="2">  1       -4 0.65439717E-01 0.12499679E+03</pdfrwt>
<totfact> 0.13651737E+03</totfact>
</mgrwt>
</event>
<event>
 5    1  0.1431256E-002  0.1249973E+03  0.7818608E-02  0.1235073E+00
          4   -1    0    0  501    0  0.00000000000E+00  0.00000000000E+00  0.29230022584E+02  0.29257599359E+02  0.12700000000E+01 0.  1.
         -4   -1    0    0    0  501 -0.00000000000E+00 -0.00000000000E+00 -0.13353899666E+03  0.13354503559E+03  0.12700000000E+01 0.  1.
         25    2    1    2    0    0  0.00000000000E+00  0.00000000000E+00 -0.10430897408E+03  0.16280263495E+03  0.12499734346E+03 0.  0.
    9000005    1    3    3    0    0 -0.42246109476E+01  0.80940055295E+01 -0.13267198845E+03  0.13298953636E+03  0.10000000000E+01 0.  0.
    9000005    1    3    3    0    0  0.42246109476E+01 -0.80940055295E+01  0.28363014368E+02  0.29813098584E+02  0.10000000000E+01 0.  0.
<mgrwt>
<rscale>  0 0.12499734E+03</rscale>
<asrwt>0</asrwt>
<pdfrwt beam="1">  1        4 0.73117080E-02 0.12499734E+03</pdfrwt>
<pdfrwt beam="2">  1       -4 0.33388950E-01 0.12499734E+03</pdfrwt>
<totfact> 0.17927757E+03</totfact>
</mgrwt>
</event>
<event>
 5    1  0.1431256E-002  0.1249912E+03  0.7818608E-02  0.1235083E+00
         -4   -1    0    0    0  501 -0.00000000000E+00  0.00000000000E+00  0.91022347130E+02  0.91031206611E+02  0.12700000000E+01 0. -1.
          4   -1    0    0  501    0  0.00000000000E+00 -0.00000000000E+00 -0.42888897242E+02  0.42907696356E+02  0.12700000000E+01 0. -1.
         25    2    1    2    0    0  0.00000000000E+00  0.00000000000E+00  0.48133449889E+02  0.13393890297E+03  0.12499120261E+03 0.  0.
    9000005    1    3    3    0    0 -0.44166675370E+02  0.36294152519E+02  0.51106817509E+02  0.76686814487E+02  0.10000000000E+01 0.  0.
    9000005    1    3    3    0    0  0.44166675370E+02 -0.36294152519E+02 -0.29733676206E+01  0.57252088480E+02  0.10000000000E+01 0.  0.
<mgrwt>
<rscale>  0 0.12499120E+03</rscale>
<asrwt>0</asrwt>
<pdfrwt beam="2">  1        4 0.10725682E-01 0.12499120E+03</pdfrwt>
<pdfrwt beam="1">  1       -4 0.22759044E-01 0.12499120E+03</pdfrwt>
<totfact> 0.19358835E+03</totfact>
</mgrwt>
</event>
<event>
 5    1  0.1431256E-002  0.1250023E+03  0.7818608E-02  0.1235066E+00
          4   -1    0    0  501    0  0.00000000000E+00  0.00000000000E+00  0.29392483429E+02  0.29419907922E+02  0.12700000000E+01 0.  1.
         -4   -1    0    0    0  501 -0.00000000000E+00 -0.00000000000E+00 -0.13281213353E+03  0.13281820550E+03  0.12700000000E+01 0.  1.
         25    2    1    2    0    0  0.00000000000E+00  0.00000000000E+00 -0.10341965010E+03  0.16223811342E+03  0.12500232566E+03 0.  0.
    9000005    1    3    3    0    0 -0.21792620670E+02 -0.86865321789E+01 -0.12688638154E+03  0.12904079966E+03  0.10000000000E+01 0.  0.
    9000005    1    3    3    0    0  0.21792620670E+02  0.86865321789E+01  0.23466731436E+02  0.33197313766E+02  0.10000000000E+01 0.  0.
<mgrwt>
<rscale>  0 0.12500233E+03</rscale>
<asrwt>0</asrwt>
<pdfrwt beam="1">  1        4 0.73523083E-02 0.12500233E+03</pdfrwt>
<pdfrwt beam="2">  1       -4 0.33207219E-01 0.12500233E+03</pdfrwt>
<totfact> 0.17951961E+03</totfact>
</mgrwt>
</event>
<event>
 5    1  0.1431256E-002  0.1250076E+03  0.7818608E-02  0.1235057E+00
          4   -1    0    0  501    0  0.00000000000E+00  0.00000000000E+00  0.14618769075E+02  0.14673830763E+02  0.12700000000E+01 0.  1.
         -4   -1    0    0    0  501 -0.00000000000E+00 -0.00000000000E+00 -0.26668141374E+03  0.26668443774E+03  0.12700000000E+01 0.  1.
         25    2    1    2    0    0  0.00000000000E+00  0.00000000000E+00 -0.25206264467E+03  0.28135826851E+03  0.12500759345E+03 0.  0.
    9000005    1    3    3    0    0  0.21775778837E+02 -0.32900095993E+02 -0.16943509239E+02  0.42949777248E+02  0.10000000000E+01 0.  0.
    9000005    1    3    3    0    0 -0.21775778837E+02  0.32900095993E+02 -0.23511913543E+03  0.23840849126E+03  0.10000000000E+01 0.  0.
<mgrwt>
<rscale>  0 0.12500759E+03</rscale>
<asrwt>0</asrwt>
<pdfrwt beam="1">  1        4 0.36619538E-02 0.12500759E+03</pdfrwt>
<pdfrwt beam="2">  1       -4 0.66677598E-01 0.12500759E+03</pdfrwt>
<totfact> 0.13507741E+03</totfact>
</mgrwt>
</event>
<event>
 5    1  0.1431256E-002  0.1250023E+03  0.7818608E-02  0.1235066E+00
         -4   -1    0    0    0  501 -0.00000000000E+00  0.00000000000E+00  0.18945453352E+03  0.18945879017E+03  0.12700000000E+01 0.  1.
          4   -1    0    0  501    0  0.00000000000E+00 -0.00000000000E+00 -0.20595111517E+02  0.20634231713E+02  0.12700000000E+01 0.  1.
         25    2    1    2    0    0  0.00000000000E+00  0.00000000000E+00  0.16885942201E+03  0.21009302188E+03  0.12500229375E+03 0.  0.
    9000005    1    3    3    0    0  0.41724953021E+02  0.41959475991E+01  0.16230344958E+03  0.16763647403E+03  0.10000000000E+01 0.  0.
    9000005    1    3    3    0    0 -0.41724953021E+02 -0.41959475991E+01  0.65559724279E+01  0.42456547850E+02  0.10000000000E+01 0.  0.
<mgrwt>
<rscale>  0 0.12500229E+03</rscale>
<asrwt>0</asrwt>
<pdfrwt beam="2">  1        4 0.51542001E-02 0.12500229E+03</pdfrwt>
<pdfrwt beam="1">  1       -4 0.47369054E-01 0.12500229E+03</pdfrwt>
<totfact> 0.15924880E+03</totfact>
</mgrwt>
</event>
<event>
 5    1  0.1431256E-002  0.1250023E+03  0.7818608E-02  0.1235066E+00
         -4   -1    0    0    0  501 -0.00000000000E+00  0.00000000000E+00  0.57158783173E+01  0.58552681355E+01  0.12700000000E+01 0.  1.
          4   -1    0    0  501    0  0.00000000000E+00 -0.00000000000E+00 -0.67505589736E+03  0.67505709201E+03  0.12700000000E+01 0.  1.
         25    2    1    2    0    0  0.00000000000E+00  0.00000000000E+00 -0.66934001905E+03  0.68091236014E+03  0.12500232436E+03 0.  0.
    9000005    1    3    3    0    0 -0.60362814369E+02 -0.15112903985E+02 -0.36611598257E+03  0.37136771793E+03  0.10000000000E+01 0.  0.
    9000005    1    3    3    0    0  0.60362814369E+02  0.15112903985E+02 -0.30322403647E+03  0.30954464221E+03  0.10000000000E+01 0.  0.
<mgrwt>
<rscale>  0 0.12500232E+03</rscale>
<asrwt>0</asrwt>
<pdfrwt beam="2">  1        4 0.16878128E+00 0.12500232E+03</pdfrwt>
<pdfrwt beam="1">  1       -4 0.14465449E-02 0.12500232E+03</pdfrwt>
<totfact> 0.64078705E+02</totfact>
</mgrwt>
</event>
<event>
 5    1  0.1431256E-002  0.1249986E+03  0.7818608E-02  0.1235071E+00
         -4   -1    0    0    0  501 -0.00000000000E+00  0.00000000000E+00  0.54491901399E+02  0.54506698837E+02  0.12700000000E+01 0. -1.
          4   -1    0    0  501    0  0.00000000000E+00 -0.00000000000E+00 -0.71653219219E+02  0.71664473238E+02  0.12700000000E+01 0. -1.
         25    2    1    2    0    0  0.00000000000E+00  0.00000000000E+00 -0.17161317820E+02  0.12617117208E+03  0.12499861533E+03 0.  0.
    9000005    1    3    3    0    0 -0.19589965710E+02  0.42978310661E+02  0.32720913157E+02  0.57467904970E+02  0.10000000000E+01 0.  0.
    9000005    1    3    3    0    0  0.19589965710E+02 -0.42978310661E+02 -0.49882230977E+02  0.68703267106E+02  0.10000000000E+01 0.  0.
<mgrwt>
<rscale>  0 0.12499862E+03</rscale>
<asrwt>0</asrwt>
<pdfrwt beam="2">  1        4 0.17916561E-01 0.12499862E+03</pdfrwt>
<pdfrwt beam="1">  1       -4 0.13626232E-01 0.12499862E+03</pdfrwt>
<totfact> 0.19772313E+03</totfact>
</mgrwt>
</event>
<event>
 4    1  0.1431256E-002  0.1248856E+03  0.7818608E-02  0.1235248E+00
         -4   -1    0    0    0  501 -0.00000000000E+00  0.00000000000E+00  0.29071328233E+03  0.29071605635E+03  0.12700000000E+01 0. -1.
          4   -1    0    0  501    0  0.00000000000E+00 -0.00000000000E+00 -0.13379283561E+02  0.13439424415E+02  0.12700000000E+01 0. -1.
    9000005    1    1    2    0    0  0.23030378451E+02  0.13060467296E+02  0.95767094262E+00  0.26512096696E+02  0.10000000000E+01 0.  0.
    9000005    1    1    2    0    0 -0.23030378451E+02 -0.13060467296E+02  0.27637632782E+03  0.27764338407E+03  0.10000000000E+01 0.  0.
<mgrwt>
<rscale>  0 0.12488559E+03</rscale>
<asrwt>0</asrwt>
<pdfrwt beam="2">  1        4 0.33526851E-02 0.12488559E+03</pdfrwt>
<pdfrwt beam="1">  1       -4 0.72686187E-01 0.12488559E+03</pdfrwt>
<totfact> 0.12889130E+03</totfact>
</mgrwt>
</event>
<event>
 5    1  0.1431256E-002  0.1250029E+03  0.7818608E-02  0.1235065E+00
         -4   -1    0    0    0  501 -0.00000000000E+00  0.00000000000E+00  0.30836878138E+02  0.30863019186E+02  0.12700000000E+01 0.  1.
          4   -1    0    0  501    0  0.00000000000E+00 -0.00000000000E+00 -0.12659749187E+03  0.12660386190E+03  0.12700000000E+01 0.  1.
         25    2    1    2    0    0  0.00000000000E+00  0.00000000000E+00 -0.95760613733E+02  0.15746688109E+03  0.12500289395E+03 0.  0.
    9000005    1    3    3    0    0 -0.45137581852E+02 -0.38657589542E+02 -0.23531122434E+02  0.63925927820E+02  0.10000000000E+01 0.  0.
    9000005    1    3    3    0    0  0.45137581852E+02  0.38657589542E+02 -0.72229491300E+02  0.93540953267E+02  0.10000000000E+01 0.  0.
<mgrwt>
<rscale>  0 0.12500289E+03</rscale>
<asrwt>0</asrwt>
<pdfrwt beam="2">  1        4 0.31653436E-01 0.12500289E+03</pdfrwt>
<pdfrwt beam="1">  1       -4 0.77132837E-02 0.12500289E+03</pdfrwt>
<totfact> 0.18176399E+03</totfact>
</mgrwt>
</event>
<event>
 5    1  0.1431256E-002  0.1250045E+03  0.7818608E-02  0.1235062E+00
         -4   -1    0    0    0  501 -0.00000000000E+00  0.00000000000E+00  0.26143175895E+02  0.26174005156E+02  0.12700000000E+01 0. -1.
          4   -1    0    0  501    0  0.00000000000E+00 -0.00000000000E+00 -0.14930682797E+03  0.14931222916E+03  0.12700000000E+01 0. -1.
         25    2    1    2    0    0  0.00000000000E+00  0.00000000000E+00 -0.12316365207E+03  0.17548623432E+03  0.12500453289E+03 0.  0.
    9000005    1    3    3    0    0 -0.20173953219E+02  0.31171411916E+02 -0.13215022912E+03  0.13727100337E+03  0.10000000000E+01 0.  0.
    9000005    1    3    3    0    0  0.20173953219E+02 -0.31171411916E+02  0.89865770501E+01  0.38215230948E+02  0.10000000000E+01 0.  0.
<mgrwt>
<rscale>  0 0.12500453E+03</rscale>
<asrwt>0</asrwt>
<pdfrwt beam="2">  1        4 0.37331233E-01 0.12500453E+03</pdfrwt>
<pdfrwt beam="1">  1       -4 0.65403232E-02 0.12500453E+03</pdfrwt>
<totfact> 0.17350572E+03</totfact>
</mgrwt>
</event>
<event>
 5    1  0.1431256E-002  0.1250001E+03  0.7818608E-02  0.1235069E+00
          4   -1    0    0  501    0  0.00000000000E+00  0.00000000000E+00  0.90835124268E+02  0.90844002007E+02  0.12700000000E+01 0.  1.
         -4   -1    0    0    0  501 -0.00000000000E+00 -0.00000000000E+00 -0.42983446775E+02  0.43002204556E+02  0.12700000000E+01 0.  1.
         25    2    1    2    0    0  0.00000000000E+00  0.00000000000E+00  0.47851677493E+02  0.13384620656E+03  0.12500009589E+03 0.  0.
    9000005    1    3    3    0    0 -0.56612402721E+01 -0.61604956059E+02  0.14466898121E+02  0.63541414791E+02  0.10000000000E+01 0.  0.
    9000005    1    3    3    0    0  0.56612402721E+01  0.61604956059E+02  0.33384779372E+02  0.70304791772E+02  0.10000000000E+01 0.  0.
<mgrwt>
<rscale>  0 0.12500010E+03</rscale>
<asrwt>0</asrwt>
<pdfrwt beam="1">  1        4 0.22712235E-01 0.12500010E+03</pdfrwt>
<pdfrwt beam="2">  1       -4 0.10749316E-01 0.12500010E+03</pdfrwt>
<totfact> 0.19359700E+03</totfact>
</mgrwt>
</event>
<event>
 5    1  0.1431256E-002  0.1249997E+03  0.7818608E-02  0.1235070E+00
          4   -1    0    0  501    0  0.00000000000E+00  0.00000000000E+00  0.35926434450E+03  0.35926658922E+03  0.12700000000E+01 0.  1.
         -4   -1    0    0    0  501 -0.00000000000E+00 -0.00000000000E+00 -0.10833480691E+02  0.10907667206E+02  0.12700000000E+01 0.  1.
         25    2    1    2    0    0  0.00000000000E+00  0.00000000000E+00  0.34843086381E+03  0.37017425643E+03  0.12499965306E+03 0.  0.
    9000005    1    3    3    0    0 -0.24937773799E+02  0.10523534375E+02  0.74122051982E+01  0.28081633210E+02  0.10000000000E+01 0.  0.
    9000005    1    3    3    0    0  0.24937773799E+02 -0.10523534375E+02  0.34101865861E+03  0.34209262322E+03  0.10000000000E+01 0.  0.
<mgrwt>
<rscale>  0 0.12499965E+03</rscale>
<asrwt>0</asrwt>
<pdfrwt beam="1">  1        4 0.89825647E-01 0.12499965E+03</pdfrwt>
<pdfrwt beam="2">  1       -4 0.27179239E-02 0.12499965E+03</pdfrwt>
<totfact> 0.11210607E+03</totfact>
</mgrwt>
</event>
<event>
 5    1  0.1431256E-002  0.1249994E+03  0.7818608E-02  0.1235070E+00
         -4   -1    0    0    0  501 -0.00000000000E+00  0.00000000000E+00  0.94165621969E+01  0.95018179107E+01  0.12700000000E+01 0.  1.
          4   -1    0    0  501    0  0.00000000000E+00 -0.00000000000E+00 -0.41286818018E+03  0.41287013346E+03  0.12700000000E+01 0.  1.
         25    2    1    2    0    0  0.00000000000E+00  0.00000000000E+00 -0.40345161798E+03  0.42237195137E+03  0.12499942901E+03 0.  0.
    9000005    1    3    3    0    0 -0.23532241228E+01  0.49455399967E+02 -0.72887398786E+02  0.88118937530E+02  0.10000000000E+01 0.  0.
    9000005    1    3    3    0    0  0.23532241228E+01 -0.49455399967E+02 -0.33056421919E+03  0.33425301384E+03  0.10000000000E+01 0.  0.
<mgrwt>
<rscale>  0 0.12499943E+03</rscale>
<asrwt>0</asrwt>
<pdfrwt beam="2">  1        4 0.10322789E+00 0.12499943E+03</pdfrwt>
<pdfrwt beam="1">  1       -4 0.23650431E-02 0.12499943E+03</pdfrwt>
<totfact> 0.10119716E+03</totfact>
</mgrwt>
</event>
<event>
 5    1  0.1431256E-002  0.1250004E+03  0.7818608E-02  0.1235069E+00
         -4   -1    0    0    0  501 -0.00000000000E+00  0.00000000000E+00  0.83564057120E+01  0.84523615885E+01  0.12700000000E+01 0. -1.
          4   -1    0    0  501    0  0.00000000000E+00 -0.00000000000E+00 -0.46469366893E+03  0.46469540437E+03  0.12700000000E+01 0. -1.
         25    2    1    2    0    0  0.00000000000E+00  0.00000000000E+00 -0.45633726322E+03  0.47314776596E+03  0.12500044252E+03 0.  0.
    9000005    1    3    3    0    0 -0.53237043159E+02 -0.16814525868E+02 -0.33444809558E+03  0.33907733585E+03  0.10000000000E+01 0.  0.
    9000005    1    3    3    0    0  0.53237043159E+02  0.16814525868E+02 -0.12188916764E+03  0.13407043012E+03  0.10000000000E+01 0.  0.
<mgrwt>
<rscale>  0 0.12500044E+03</rscale>
<asrwt>0</asrwt>
<pdfrwt beam="2">  1        4 0.11618554E+00 0.12500044E+03</pdfrwt>
<pdfrwt beam="1">  1       -4 0.21013144E-02 0.12500044E+03</pdfrwt>
<totfact> 0.92003557E+02</totfact>
</mgrwt>
</event>
<event>
 5    1  0.1431256E-002  0.1250023E+03  0.7818608E-02  0.1235066E+00
          4   -1    0    0  501    0  0.00000000000E+00  0.00000000000E+00  0.48258551528E+02  0.48275259663E+02  0.12700000000E+01 0. -1.
         -4   -1    0    0    0  501 -0.00000000000E+00 -0.00000000000E+00 -0.80911415670E+02  0.80921382129E+02  0.12700000000E+01 0. -1.
         25    2    1    2    0    0  0.00000000000E+00  0.00000000000E+00 -0.32652864142E+02  0.12919664179E+03  0.12500225084E+03 0.  0.
    9000005    1    3    3    0    0  0.60198743199E+02  0.12940461466E+02 -0.52888414295E+01  0.61808705449E+02  0.10000000000E+01 0.  0.
    9000005    1    3    3    0    0 -0.60198743199E+02 -0.12940461466E+02 -0.27364022713E+02  0.67387936344E+02  0.10000000000E+01 0.  0.
<mgrwt>
<rscale>  0 0.12500225E+03</rscale>
<asrwt>0</asrwt>
<pdfrwt beam="1">  1        4 0.12067972E-01 0.12500225E+03</pdfrwt>
<pdfrwt beam="2">  1       -4 0.20231188E-01 0.12500225E+03</pdfrwt>
<totfact> 0.19606639E+03</totfact>
</mgrwt>
</event>
<event>
 4    1  0.1431256E-002  0.1250984E+03  0.7818608E-02  0.1234916E+00
         -4   -1    0    0    0  501 -0.00000000000E+00  0.00000000000E+00  0.57038299517E+01  0.58435071761E+01  0.12700000000E+01 0.  1.
          4   -1    0    0  501    0  0.00000000000E+00 -0.00000000000E+00 -0.67748842715E+03  0.67748961750E+03  0.12700000000E+01 0.  1.
    9000005    1    1    2    0    0  0.20538549370E+02 -0.59069761500E+02 -0.33905305998E+03  0.34477390593E+03  0.10000000000E+01 0.  0.
    9000005    1    1    2    0    0 -0.20538549370E+02  0.59069761500E+02 -0.33273153722E+03  0.33855921874E+03  0.10000000000E+01 0.  0.
<mgrwt>
<rscale>  0 0.12509842E+03</rscale>
<asrwt>0</asrwt>
<pdfrwt beam="2">  1        4 0.16938944E+00 0.12509842E+03</pdfrwt>
<pdfrwt beam="1">  1       -4 0.14435682E-02 0.12509842E+03</pdfrwt>
<totfact> 0.63680560E+02</totfact>
</mgrwt>
</event>
<event>
 5    1  0.1431256E-002  0.1249991E+03  0.7818608E-02  0.1235071E+00
         -4   -1    0    0    0  501 -0.00000000000E+00  0.00000000000E+00  0.12148775609E+02  0.12214976414E+02  0.12700000000E+01 0. -1.
          4   -1    0    0  501    0  0.00000000000E+00 -0.00000000000E+00 -0.32058848911E+03  0.32059100463E+03  0.12700000000E+01 0. -1.
         25    2    1    2    0    0  0.00000000000E+00  0.00000000000E+00 -0.30843971350E+03  0.33280598104E+03  0.12499905661E+03 0.  0.
    9000005    1    3    3    0    0  0.44765762471E+02 -0.13402839684E+02 -0.43748885332E+02  0.64020110661E+02  0.10000000000E+01 0.  0.
    9000005    1    3    3    0    0 -0.44765762471E+02  0.13402839684E+02 -0.26469082817E+03  0.26878587038E+03  0.10000000000E+01 0.  0.
<mgrwt>
<rscale>  0 0.12499906E+03</rscale>
<asrwt>0</asrwt>
<pdfrwt beam="2">  1        4 0.80155684E-01 0.12499906E+03</pdfrwt>
<pdfrwt beam="1">  1       -4 0.30457845E-02 0.12499906E+03</pdfrwt>
<totfact> 0.12099250E+03</totfact>
</mgrwt>
</event>
<event>
 5    1  0.1431256E-002  0.1249997E+03  0.7818608E-02  0.1235070E+00
          4   -1    0    0  501    0  0.00000000000E+00  0.00000000000E+00  0.70982332804E+03  0.70982446417E+03  0.12700000000E+01 0. -1.
         -4   -1    0    0    0  501 -0.00000000000E+00 -0.00000000000E+00 -0.54286769333E+01  0.55752518550E+01  0.12700000000E+01 0. -1.
         25    2    1    2    0    0  0.00000000000E+00  0.00000000000E+00  0.70439465111E+03  0.71539971602E+03  0.12499971671E+03 0.  0.
    9000005    1    3    3    0    0 -0.94695648313E+01  0.46598859335E+02  0.58425964812E+03  0.58619234281E+03  0.10000000000E+01 0.  0.
    9000005    1    3    3    0    0  0.94695648313E+01 -0.46598859335E+02  0.12013500299E+03  0.12920737322E+03  0.10000000000E+01 0.  0.
<mgrwt>
<rscale>  0 0.12499972E+03</rscale>
<asrwt>0</asrwt>
<pdfrwt beam="1">  1        4 0.17747424E+00 0.12499972E+03</pdfrwt>
<pdfrwt beam="2">  1       -4 0.13756335E-02 0.12499972E+03</pdfrwt>
<totfact> 0.60479381E+02</totfact>
</mgrwt>
</event>
<event>
 5    1  0.1431256E-002  0.1250261E+03  0.7818608E-02  0.1235028E+00
         -4   -1    0    0    0  501 -0.00000000000E+00  0.00000000000E+00  0.35323175673E+02  0.35345998920E+02  0.12700000000E+01 0.  1.
          4   -1    0    0  501    0  0.00000000000E+00 -0.00000000000E+00 -0.11057006957E+03  0.11057736289E+03  0.12700000000E+01 0.  1.
         25    2    1    2    0    0  0.00000000000E+00  0.00000000000E+00 -0.75246893896E+02  0.14592336181E+03  0.12502612720E+03 0.  0.
    9000005    1    3    3    0    0 -0.31058696848E+02 -0.27013905971E+02  0.17275579463E+02  0.44652428954E+02  0.10000000000E+01 0.  0.
    9000005    1    3    3    0    0  0.31058696848E+02  0.27013905971E+02 -0.92522473359E+02  0.10127093286E+03  0.10000000000E+01 0.  0.
<mgrwt>
<rscale>  0 0.12502613E+03</rscale>
<asrwt>0</asrwt>
<pdfrwt beam="2">  1        4 0.27646281E-01 0.12502613E+03</pdfrwt>
<pdfrwt beam="1">  1       -4 0.88345588E-02 0.12502613E+03</pdfrwt>
<totfact> 0.18729666E+03</totfact>
</mgrwt>
</event>
<event>
 5    1  0.1431256E-002  0.1249997E+03  0.7818608E-02  0.1235070E+00
          4   -1    0    0  501    0  0.00000000000E+00  0.00000000000E+00  0.18237379550E+03  0.18237821741E+03  0.12700000000E+01 0.  1.
         -4   -1    0    0    0  501 -0.00000000000E+00 -0.00000000000E+00 -0.21395296057E+02  0.21432955778E+02  0.12700000000E+01 0.  1.
         25    2    1    2    0    0  0.00000000000E+00  0.00000000000E+00  0.16097849944E+03  0.20381117319E+03  0.12499966813E+03 0.  0.
    9000005    1    3    3    0    0  0.41826812393E+02 -0.11719046690E+01  0.48095074321E+01  0.42130594077E+02  0.10000000000E+01 0.  0.
    9000005    1    3    3    0    0 -0.41826812393E+02  0.11719046690E+01  0.15616899201E+03  0.16168057911E+03  0.10000000000E+01 0.  0.
<mgrwt>
<rscale>  0 0.12499967E+03</rscale>
<asrwt>0</asrwt>
<pdfrwt beam="1">  1        4 0.45598708E-01 0.12499967E+03</pdfrwt>
<pdfrwt beam="2">  1       -4 0.53540843E-02 0.12499967E+03</pdfrwt>
<totfact> 0.16170689E+03</totfact>
</mgrwt>
</event>
<event>
 5    1  0.1431256E-002  0.1249999E+03  0.7818608E-02  0.1235069E+00
         -4   -1    0    0    0  501 -0.00000000000E+00  0.00000000000E+00  0.16785969528E+02  0.16833944071E+02  0.12700000000E+01 0.  1.
          4   -1    0    0  501    0  0.00000000000E+00 -0.00000000000E+00 -0.23232713746E+03  0.23233060861E+03  0.12700000000E+01 0.  1.
         25    2    1    2    0    0  0.00000000000E+00  0.00000000000E+00 -0.21554116793E+03  0.24916455269E+03  0.12499991697E+03 0.  0.
    9000005    1    3    3    0    0 -0.17098263287E+02  0.35776481564E+02 -0.11492355263E+02  0.41296264602E+02  0.10000000000E+01 0.  0.
    9000005    1    3    3    0    0  0.17098263287E+02 -0.35776481564E+02 -0.20404881267E+03  0.20786828808E+03  0.10000000000E+01 0.  0.
<mgrwt>
<rscale>  0 0.12499992E+03</rscale>
<asrwt>0</asrwt>
<pdfrwt beam="2">  1        4 0.58088205E-01 0.12499992E+03</pdfrwt>
<pdfrwt beam="1">  1       -4 0.42029238E-02 0.12499992E+03</pdfrwt>
<totfact> 0.14525849E+03</totfact>
</mgrwt>
</event>
<event>
 5    1  0.1431256E-002  0.1250004E+03  0.7818608E-02  0.1235069E+00
          4   -1    0    0  501    0  0.00000000000E+00  0.00000000000E+00  0.15253043931E+03  0.15253572636E+03  0.12700000000E+01 0. -1.
         -4   -1    0    0    0  501 -0.00000000000E+00 -0.00000000000E+00 -0.25588315136E+02  0.25619812089E+02  0.12700000000E+01 0. -1.
         25    2    1    2    0    0  0.00000000000E+00  0.00000000000E+00  0.12694212417E+03  0.17815553845E+03  0.12500037196E+03 0.  0.
    9000005    1    3    3    0    0 -0.16467699712E+02 -0.58211865576E+02  0.41141283290E+02  0.73167011818E+02  0.10000000000E+01 0.  0.
    9000005    1    3    3    0    0  0.16467699712E+02  0.58211865576E+02  0.85800840882E+02  0.10498852663E+03  0.10000000000E+01 0.  0.
<mgrwt>
<rscale>  0 0.12500037E+03</rscale>
<asrwt>0</asrwt>
<pdfrwt beam="1">  1        4 0.38137207E-01 0.12500037E+03</pdfrwt>
<pdfrwt beam="2">  1       -4 0.64016769E-02 0.12500037E+03</pdfrwt>
<totfact> 0.17235201E+03</totfact>
</mgrwt>
</event>
<event>
 5    1  0.1431256E-002  0.1249998E+03  0.7818608E-02  0.1235070E+00
         -4   -1    0    0    0  501 -0.00000000000E+00  0.00000000000E+00  0.10072860112E+03  0.10073660697E+03  0.12700000000E+01 0. -1.
          4   -1    0    0  501    0  0.00000000000E+00 -0.00000000000E+00 -0.38759904883E+02  0.38780705597E+02  0.12700000000E+01 0. -1.
         25    2    1    2    0    0  0.00000000000E+00  0.00000000000E+00  0.61968696237E+02  0.13951731257E+03  0.12499984477E+03 0.  0.
    9000005    1    3    3    0    0 -0.11519240787E+02 -0.61210748390E+02  0.25315975766E+02  0.67240964120E+02  0.10000000000E+01 0.  0.
    9000005    1    3    3    0    0  0.11519240787E+02  0.61210748390E+02  0.36652720471E+02  0.72276348446E+02  0.10000000000E+01 0.  0.
<mgrwt>
<rscale>  0 0.12499984E+03</rscale>
<asrwt>0</asrwt>
<pdfrwt beam="2">  1        4 0.96935771E-02 0.12499984E+03</pdfrwt>
<pdfrwt beam="1">  1       -4 0.25185751E-01 0.12499984E+03</pdfrwt>
<totfact> 0.19065132E+03</totfact>
</mgrwt>
</event>
<event>
 5    1  0.1431256E-002  0.1250002E+03  0.7818608E-02  0.1235069E+00
         -4   -1    0    0    0  501 -0.00000000000E+00  0.00000000000E+00  0.59759119649E+01  0.61093718018E+01  0.12700000000E+01 0.  1.
          4   -1    0    0  501    0  0.00000000000E+00 -0.00000000000E+00 -0.64631577488E+03  0.64631702264E+03  0.12700000000E+01 0.  1.
         25    2    1    2    0    0  0.00000000000E+00  0.00000000000E+00 -0.64033986292E+03  0.65242639445E+03  0.12500024052E+03 0.  0.
    9000005    1    3    3    0    0 -0.56458059577E+02 -0.34178516825E+01 -0.45885982318E+03  0.46233378800E+03  0.10000000000E+01 0.  0.
    9000005    1    3    3    0    0  0.56458059577E+02  0.34178516825E+01 -0.18148003974E+03  0.19009260644E+03  0.10000000000E+01 0.  0.
<mgrwt>
<rscale>  0 0.12500024E+03</rscale>
<asrwt>0</asrwt>
<pdfrwt beam="2">  1        4 0.16159555E+00 0.12500024E+03</pdfrwt>
<pdfrwt beam="1">  1       -4 0.15108186E-02 0.12500024E+03</pdfrwt>
<totfact> 0.67233696E+02</totfact>
</mgrwt>
</event>
<event>
 5    1  0.1431256E-002  0.1249990E+03  0.7818608E-02  0.1235071E+00
          4   -1    0    0  501    0  0.00000000000E+00  0.00000000000E+00  0.29336922776E+01  0.31967875093E+01  0.12700000000E+01 0. -1.
         -4   -1    0    0    0  501 -0.00000000000E+00 -0.00000000000E+00 -0.12740861828E+04  0.12740868158E+04  0.12700000000E+01 0. -1.
         25    2    1    2    0    0  0.00000000000E+00  0.00000000000E+00 -0.12711524905E+04  0.12772836033E+04  0.12499899611E+03 0.  0.
    9000005    1    3    3    0    0  0.37683623614E+02 -0.30435446277E+02 -0.10390154999E+04  0.10401445000E+04  0.10000000000E+01 0.  0.
    9000005    1    3    3    0    0 -0.37683623614E+02  0.30435446277E+02 -0.23213699063E+03  0.23713910326E+03  0.10000000000E+01 0.  0.
<mgrwt>
<rscale>  0 0.12499900E+03</rscale>
<asrwt>0</asrwt>
<pdfrwt beam="1">  1        4 0.76639346E-03 0.12499900E+03</pdfrwt>
<pdfrwt beam="2">  1       -4 0.31855270E+00 0.12499900E+03</pdfrwt>
<totfact> 0.21368251E+02</totfact>
</mgrwt>
</event>
<event>
 5    1  0.1431256E-002  0.1249998E+03  0.7818608E-02  0.1235070E+00
         -4   -1    0    0    0  501 -0.00000000000E+00  0.00000000000E+00  0.12163229965E+02  0.12229352525E+02  0.12700000000E+01 0.  1.
          4   -1    0    0  501    0  0.00000000000E+00 -0.00000000000E+00 -0.32021348523E+03  0.32021600370E+03  0.12700000000E+01 0.  1.
         25    2    1    2    0    0  0.00000000000E+00  0.00000000000E+00 -0.30805025527E+03  0.33244535622E+03  0.12499982042E+03 0.  0.
    9000005    1    3    3    0    0 -0.10592567617E+02 -0.44593444102E+02 -0.26700072217E+03  0.27090803492E+03  0.10000000000E+01 0.  0.
    9000005    1    3    3    0    0  0.10592567617E+02  0.44593444102E+02 -0.41049533099E+02  0.61537321304E+02  0.10000000000E+01 0.  0.
<mgrwt>
<rscale>  0 0.12499982E+03</rscale>
<asrwt>0</asrwt>
<pdfrwt beam="2">  1        4 0.80061924E-01 0.12499982E+03</pdfrwt>
<pdfrwt beam="1">  1       -4 0.30493887E-02 0.12499982E+03</pdfrwt>
<totfact> 0.12108135E+03</totfact>
</mgrwt>
</event>
<event>
 5    1  0.1431256E-002  0.1250065E+03  0.7818608E-02  0.1235059E+00
          4   -1    0    0  501    0  0.00000000000E+00  0.00000000000E+00  0.76906294441E+02  0.76916779864E+02  0.12700000000E+01 0. -1.
         -4   -1    0    0    0  501 -0.00000000000E+00 -0.00000000000E+00 -0.50775759124E+02  0.50791639219E+02  0.12700000000E+01 0. -1.
         25    2    1    2    0    0  0.00000000000E+00  0.00000000000E+00  0.26130535318E+02  0.12770841908E+03  0.12500654154E+03 0.  0.
    9000005    1    3    3    0    0 -0.19810712897E+02  0.19470347359E+02 -0.44127777340E+02  0.52151888794E+02  0.10000000000E+01 0.  0.
    9000005    1    3    3    0    0  0.19810712897E+02 -0.19470347359E+02  0.70258312658E+02  0.75556530289E+02  0.10000000000E+01 0.  0.
<mgrwt>
<rscale>  0 0.12500654E+03</rscale>
<asrwt>0</asrwt>
<pdfrwt beam="1">  1        4 0.19229869E-01 0.12500654E+03</pdfrwt>
<pdfrwt beam="2">  1       -4 0.12697236E-01 0.12500654E+03</pdfrwt>
<totfact> 0.19685409E+03</totfact>
</mgrwt>
</event>
<event>
 5    1  0.1431256E-002  0.1249977E+03  0.7818608E-02  0.1235073E+00
         -4   -1    0    0    0  501 -0.00000000000E+00  0.00000000000E+00  0.39423042892E+02  0.39443493898E+02  0.12700000000E+01 0.  1.
          4   -1    0    0  501    0  0.00000000000E+00 -0.00000000000E+00 -0.99031628390E+02  0.99039771414E+02  0.12700000000E+01 0.  1.
         25    2    1    2    0    0  0.00000000000E+00  0.00000000000E+00 -0.59608585498E+02  0.13848326531E+03  0.12499772520E+03 0.  0.
    9000005    1    3    3    0    0 -0.21337670532E+02 -0.28912447682E+02 -0.86446240076E+02  0.93622530611E+02  0.10000000000E+01 0.  0.
    9000005    1    3    3    0    0  0.21337670532E+02  0.28912447682E+02  0.26837654577E+02  0.44860734701E+02  0.10000000000E+01 0.  0.
<mgrwt>
<rscale>  0 0.12499773E+03</rscale>
<asrwt>0</asrwt>
<pdfrwt beam="2">  1        4 0.24761481E-01 0.12499773E+03</pdfrwt>
<pdfrwt beam="1">  1       -4 0.98593352E-02 0.12499773E+03</pdfrwt>
<totfact> 0.19119221E+03</totfact>
</mgrwt>
</event>
<event>
 5    1  0.1431256E-002  0.1249999E+03  0.7818608E-02  0.1235069E+00
         -4   -1    0    0    0  501 -0.00000000000E+00  0.00000000000E+00  0.99901971179E+01  0.10070597721E+02  0.12700000000E+01 0.  1.
          4   -1    0    0  501    0  0.00000000000E+00 -0.00000000000E+00 -0.38935895588E+03  0.38936102710E+03  0.12700000000E+01 0.  1.
         25    2    1    2    0    0  0.00000000000E+00  0.00000000000E+00 -0.37936875876E+03  0.39943162482E+03  0.12499987113E+03 0.  0.
    9000005    1    3    3    0    0  0.79047421911E+01 -0.49841543863E+01 -0.38712932502E+03  0.38724338734E+03  0.10000000000E+01 0.  0.
    9000005    1    3    3    0    0 -0.79047421911E+01  0.49841543863E+01  0.77605662656E+01  0.12188237478E+02  0.10000000000E+01 0.  0.
<mgrwt>
<rscale>  0 0.12499987E+03</rscale>
<asrwt>0</asrwt>
<pdfrwt beam="2">  1        4 0.97349997E-01 0.12499987E+03</pdfrwt>
<pdfrwt beam="1">  1       -4 0.25078596E-02 0.12499987E+03</pdfrwt>
<totfact> 0.10580952E+03</totfact>
</mgrwt>
</event>
<event>
 5    1  0.1431256E-002  0.1250048E+03  0.7818608E-02  0.1235062E+00
          4   -1    0    0  501    0  0.00000000000E+00  0.00000000000E+00  0.35582444901E+02  0.35605101954E+02  0.12700000000E+01 0. -1.
         -4   -1    0    0    0  501 -0.00000000000E+00 -0.00000000000E+00 -0.10972736865E+03  0.10973471799E+03  0.12700000000E+01 0. -1.
         25    2    1    2    0    0  0.00000000000E+00  0.00000000000E+00 -0.74144923751E+02  0.14533981994E+03  0.12500477408E+03 0.  0.
    9000005    1    3    3    0    0  0.53408043137E+02 -0.28419184991E+02 -0.55288981321E+02  0.81963044128E+02  0.10000000000E+01 0.  0.
    9000005    1    3    3    0    0 -0.53408043137E+02  0.28419184991E+02 -0.18855942430E+02  0.63376775811E+02  0.10000000000E+01 0.  0.
<mgrwt>
<rscale>  0 0.12500477E+03</rscale>
<asrwt>0</asrwt>
<pdfrwt beam="1">  1        4 0.88993622E-02 0.12500477E+03</pdfrwt>
<pdfrwt beam="2">  1       -4 0.27435592E-01 0.12500477E+03</pdfrwt>
<totfact> 0.18768235E+03</totfact>
</mgrwt>
</event>
<event>
 5    1  0.1431256E-002  0.1249977E+03  0.7818608E-02  0.1235073E+00
         -4   -1    0    0    0  501 -0.00000000000E+00  0.00000000000E+00  0.18233440777E+03  0.18233883063E+03  0.12700000000E+01 0. -1.
          4   -1    0    0  501    0  0.00000000000E+00 -0.00000000000E+00 -0.21399256551E+02  0.21436909314E+02  0.12700000000E+01 0. -1.
         25    2    1    2    0    0  0.00000000000E+00  0.00000000000E+00  0.16093515122E+03  0.20377573994E+03  0.12499771715E+03 0.  0.
    9000005    1    3    3    0    0 -0.95403092103E+01 -0.28540894036E+02  0.16975192762E+03  0.17240161560E+03  0.10000000000E+01 0.  0.
    9000005    1    3    3    0    0  0.95403092103E+01  0.28540894036E+02 -0.88167764006E+01  0.31374124343E+02  0.10000000000E+01 0.  0.
<mgrwt>
<rscale>  0 0.12499772E+03</rscale>
<asrwt>0</asrwt>
<pdfrwt beam="2">  1        4 0.53550737E-02 0.12499772E+03</pdfrwt>
<pdfrwt beam="1">  1       -4 0.45588861E-01 0.12499772E+03</pdfrwt>
<totfact> 0.16172816E+03</totfact>
</mgrwt>
</event>
<event>
 5    1  0.1431256E-002  0.1249998E+03  0.7818608E-02  0.1235070E+00
          4   -1    0    0  501    0  0.00000000000E+00  0.00000000000E+00  0.12244587172E+03  0.12245245772E+03  0.12700000000E+01 0. -1.
         -4   -1    0    0    0  501 -0.00000000000E+00 -0.00000000000E+00 -0.31881681978E+02  0.31906967041E+02  0.12700000000E+01 0. -1.
         25    2    1    2    0    0  0.00000000000E+00  0.00000000000E+00  0.90564189747E+02  0.15435942476E+03  0.12499983820E+03 0.  0.
    9000005    1    3    3    0    0 -0.57871154641E+02  0.55349633960E+01  0.73591054876E+02  0.93788857105E+02  0.10000000000E+01 0.  0.
    9000005    1    3    3    0    0  0.57871154641E+02 -0.55349633960E+01  0.16973134870E+02  0.60570567659E+02  0.10000000000E+01 0.  0.
<mgrwt>
<rscale>  0 0.12499984E+03</rscale>
<asrwt>0</asrwt>
<pdfrwt beam="1">  1        4 0.30615451E-01 0.12499984E+03</pdfrwt>
<pdfrwt beam="2">  1       -4 0.79744045E-02 0.12499984E+03</pdfrwt>
<totfact> 0.18326553E+03</totfact>
</mgrwt>
</event>
<event>
 5    1  0.1431256E-002  0.1249998E+03  0.7818608E-02  0.1235070E+00
         -4   -1    0    0    0  501 -0.00000000000E+00  0.00000000000E+00  0.12633279415E+03  0.12633917752E+03  0.12700000000E+01 0. -1.
          4   -1    0    0  501    0  0.00000000000E+00 -0.00000000000E+00 -0.30900010366E+02  0.30926098050E+02  0.12700000000E+01 0. -1.
         25    2    1    2    0    0  0.00000000000E+00  0.00000000000E+00  0.95432783780E+02  0.15726527557E+03  0.12499980272E+03 0.  0.
    9000005    1    3    3    0    0 -0.46390870252E+01  0.61987761861E+02  0.55795265819E+02  0.83535114992E+02  0.10000000000E+01 0.  0.
    9000005    1    3    3    0    0  0.46390870252E+01 -0.61987761861E+02  0.39637517960E+02  0.73730160579E+02  0.10000000000E+01 0.  0.
<mgrwt>
<rscale>  0 0.12499980E+03</rscale>
<asrwt>0</asrwt>
<pdfrwt beam="2">  1        4 0.77290616E-02 0.12499980E+03</pdfrwt>
<pdfrwt beam="1">  1       -4 0.31587257E-01 0.12499980E+03</pdfrwt>
<totfact> 0.18187302E+03</totfact>
</mgrwt>
</event>
<event>
 5    1  0.1431256E-002  0.1250044E+03  0.7818608E-02  0.1235062E+00
          4   -1    0    0  501    0  0.00000000000E+00  0.00000000000E+00  0.19811387568E+02  0.19852052221E+02  0.12700000000E+01 0.  1.
         -4   -1    0    0    0  501 -0.00000000000E+00 -0.00000000000E+00 -0.19694102567E+03  0.19694512051E+03  0.12700000000E+01 0.  1.
         25    2    1    2    0    0  0.00000000000E+00  0.00000000000E+00 -0.17712963810E+03  0.21679717273E+03  0.12500442156E+03 0.  0.
    9000005    1    3    3    0    0  0.89594600877E+01 -0.41926862732E+01 -0.19558316192E+03  0.19583570607E+03  0.10000000000E+01 0.  0.
    9000005    1    3    3    0    0 -0.89594600877E+01  0.41926862732E+01  0.18453523820E+02  0.20961466662E+02  0.10000000000E+01 0.  0.
<mgrwt>
<rscale>  0 0.12500442E+03</rscale>
<asrwt>0</asrwt>
<pdfrwt beam="1">  1        4 0.49584424E-02 0.12500442E+03</pdfrwt>
<pdfrwt beam="2">  1       -4 0.49240845E-01 0.12500442E+03</pdfrwt>
<totfact> 0.15669242E+03</totfact>
</mgrwt>
</event>
<event>
 5    1  0.1431256E-002  0.1250010E+03  0.7818608E-02  0.1235068E+00
          4   -1    0    0  501    0  0.00000000000E+00  0.00000000000E+00  0.66578018799E+02  0.66590130554E+02  0.12700000000E+01 0. -1.
         -4   -1    0    0    0  501 -0.00000000000E+00 -0.00000000000E+00 -0.58648373162E+02  0.58662122145E+02  0.12700000000E+01 0. -1.
         25    2    1    2    0    0  0.00000000000E+00  0.00000000000E+00  0.79296456367E+01  0.12525225270E+03  0.12500099010E+03 0.  0.
    9000005    1    3    3    0    0 -0.48761657238E+02 -0.17445134503E+02  0.39010545563E+02  0.64844850216E+02  0.10000000000E+01 0.  0.
    9000005    1    3    3    0    0  0.48761657238E+02  0.17445134503E+02 -0.31080899927E+02  0.60407402483E+02  0.10000000000E+01 0.  0.
<mgrwt>
<rscale>  0 0.12500099E+03</rscale>
<asrwt>0</asrwt>
<pdfrwt beam="1">  1        4 0.16647737E-01 0.12500099E+03</pdfrwt>
<pdfrwt beam="2">  1       -4 0.14665326E-01 0.12500099E+03</pdfrwt>
<totfact> 0.19820922E+03</totfact>
</mgrwt>
</event>
<event>
 5    1  0.1431256E-002  0.1249854E+03  0.7818608E-02  0.1235092E+00
          4   -1    0    0  501    0  0.00000000000E+00  0.00000000000E+00  0.20634019026E+03  0.20634409857E+03  0.12700000000E+01 0. -1.
         -4   -1    0    0    0  501 -0.00000000000E+00 -0.00000000000E+00 -0.18901311218E+02  0.18943929523E+02  0.12700000000E+01 0. -1.
         25    2    1    2    0    0  0.00000000000E+00  0.00000000000E+00  0.18743887904E+03  0.22528802810E+03  0.12498544806E+03 0.  0.
    9000005    1    3    3    0    0 -0.45135432357E+01  0.37799000004E+02  0.44048387893E+01  0.38334567672E+02  0.10000000000E+01 0.  0.
    9000005    1    3    3    0    0  0.45135432357E+01 -0.37799000004E+02  0.18303404025E+03  0.18695346042E+03  0.10000000000E+01 0.  0.
<mgrwt>
<rscale>  0 0.12498545E+03</rscale>
<asrwt>0</asrwt>
<pdfrwt beam="1">  1        4 0.51590863E-01 0.12498545E+03</pdfrwt>
<pdfrwt beam="2">  1       -4 0.47311437E-02 0.12498545E+03</pdfrwt>
<totfact> 0.15362310E+03</totfact>
</mgrwt>
</event>
<event>
 5    1  0.1431256E-002  0.1250003E+03  0.7818608E-02  0.1235069E+00
          4   -1    0    0  501    0  0.00000000000E+00  0.00000000000E+00  0.41599310531E+03  0.41599504391E+03  0.12700000000E+01 0.  1.
         -4   -1    0    0    0  501 -0.00000000000E+00 -0.00000000000E+00 -0.93453176391E+01  0.94312174069E+01  0.12700000000E+01 0.  1.
         25    2    1    2    0    0  0.00000000000E+00  0.00000000000E+00  0.40664778767E+03  0.42542626132E+03  0.12500032243E+03 0.  0.
    9000005    1    3    3    0    0 -0.59459954701E+01  0.20574839035E+02  0.35181103811E+01  0.21726848922E+02  0.10000000000E+01 0.  0.
    9000005    1    3    3    0    0  0.59459954701E+01 -0.20574839035E+02  0.40312967729E+03  0.40369941240E+03  0.10000000000E+01 0.  0.
<mgrwt>
<rscale>  0 0.12500032E+03</rscale>
<asrwt>0</asrwt>
<pdfrwt beam="1">  1        4 0.10400925E+00 0.12500032E+03</pdfrwt>
<pdfrwt beam="2">  1       -4 0.23473094E-02 0.12500032E+03</pdfrwt>
<totfact> 0.10060064E+03</totfact>
</mgrwt>
</event>
<event>
 5    1  0.1431256E-002  0.1250018E+03  0.7818608E-02  0.1235066E+00
         -4   -1    0    0    0  501 -0.00000000000E+00  0.00000000000E+00  0.13742092625E+03  0.13742679459E+03  0.12700000000E+01 0. -1.
          4   -1    0    0  501    0  0.00000000000E+00 -0.00000000000E+00 -0.28405590384E+02  0.28433966748E+02  0.12700000000E+01 0. -1.
         25    2    1    2    0    0  0.00000000000E+00  0.00000000000E+00  0.10901533587E+03  0.16586076134E+03  0.12500179478E+03 0.  0.
    9000005    1    3    3    0    0  0.51435586537E+02 -0.32720754642E+02  0.36261686408E+02  0.70937840733E+02  0.10000000000E+01 0.  0.
    9000005    1    3    3    0    0 -0.51435586537E+02  0.32720754642E+02  0.72753649458E+02  0.94922920605E+02  0.10000000000E+01 0.  0.
<mgrwt>
<rscale>  0 0.12500179E+03</rscale>
<asrwt>0</asrwt>
<pdfrwt beam="2">  1        4 0.71056782E-02 0.12500179E+03</pdfrwt>
<pdfrwt beam="1">  1       -4 0.34359512E-01 0.12500179E+03</pdfrwt>
<totfact> 0.17784635E+03</totfact>
</mgrwt>
</event>
<event>
 5    1  0.1431256E-002  0.1249930E+03  0.7818608E-02  0.1235080E+00
         -4   -1    0    0    0  501 -0.00000000000E+00  0.00000000000E+00  0.14133214242E+03  0.14133784837E+03  0.12700000000E+01 0.  1.
          4   -1    0    0  501    0  0.00000000000E+00 -0.00000000000E+00 -0.27614857969E+02  0.27644046025E+02  0.12700000000E+01 0.  1.
         25    2    1    2    0    0  0.00000000000E+00  0.00000000000E+00  0.11371728445E+03  0.16898189439E+03  0.12499303920E+03 0.  0.
    9000005    1    3    3    0    0 -0.72132300435E+01  0.10431790358E+02 -0.25863174535E+02  0.28822850914E+02  0.10000000000E+01 0.  0.
    9000005    1    3    3    0    0  0.72132300435E+01 -0.10431790358E+02  0.13958045899E+03  0.14015904348E+03  0.10000000000E+01 0.  0.
<mgrwt>
<rscale>  0 0.12499304E+03</rscale>
<asrwt>0</asrwt>
<pdfrwt beam="2">  1        4 0.69080763E-02 0.12499304E+03</pdfrwt>
<pdfrwt beam="1">  1       -4 0.35337397E-01 0.12499304E+03</pdfrwt>
<totfact> 0.17645917E+03</totfact>
</mgrwt>
</event>
<event>
 5    1  0.1431256E-002  0.1250013E+03  0.7818608E-02  0.1235067E+00
          4   -1    0    0  501    0  0.00000000000E+00  0.00000000000E+00  0.13507743979E+03  0.13508340994E+03  0.12700000000E+01 0. -1.
         -4   -1    0    0    0  501 -0.00000000000E+00 -0.00000000000E+00 -0.28898629655E+02  0.28926522362E+02  0.12700000000E+01 0. -1.
         25    2    1    2    0    0  0.00000000000E+00  0.00000000000E+00  0.10617881013E+03  0.16400993230E+03  0.12500127268E+03 0.  0.
    9000005    1    3    3    0    0 -0.19115023219E+02  0.54903763134E+02  0.23011245572E+02  0.62532589437E+02  0.10000000000E+01 0.  0.
    9000005    1    3    3    0    0  0.19115023219E+02 -0.54903763134E+02  0.83167564561E+02  0.10147734286E+03  0.10000000000E+01 0.  0.
<mgrwt>
<rscale>  0 0.12500127E+03</rscale>
<asrwt>0</asrwt>
<pdfrwt beam="1">  1        4 0.33773592E-01 0.12500127E+03</pdfrwt>
<pdfrwt beam="2">  1       -4 0.72288904E-02 0.12500127E+03</pdfrwt>
<totfact> 0.17870130E+03</totfact>
</mgrwt>
</event>
<event>
 5    1  0.1431256E-002  0.1250041E+03  0.7818608E-02  0.1235063E+00
         -4   -1    0    0    0  501 -0.00000000000E+00  0.00000000000E+00  0.60911831203E+03  0.60911963599E+03  0.12700000000E+01 0. -1.
          4   -1    0    0  501    0  0.00000000000E+00 -0.00000000000E+00 -0.63491581393E+01  0.64749292720E+01  0.12700000000E+01 0. -1.
         25    2    1    2    0    0  0.00000000000E+00  0.00000000000E+00  0.60276915389E+03  0.61559456526E+03  0.12500406353E+03 0.  0.
    9000005    1    3    3    0    0  0.19541684444E+02  0.25380388348E+02  0.56564148816E+03  0.56654861634E+03  0.10000000000E+01 0.  0.
    9000005    1    3    3    0    0 -0.19541684444E+02 -0.25380388348E+02  0.37127665729E+02  0.49045948927E+02  0.10000000000E+01 0.  0.
<mgrwt>
<rscale>  0 0.12500406E+03</rscale>
<asrwt>0</asrwt>
<pdfrwt beam="2">  1        4 0.16031765E-02 0.12500406E+03</pdfrwt>
<pdfrwt beam="1">  1       -4 0.15229545E+00 0.12500406E+03</pdfrwt>
<totfact> 0.71568271E+02</totfact>
</mgrwt>
</event>
<event>
 5    1  0.1431256E-002  0.1250013E+03  0.7818608E-02  0.1235067E+00
          4   -1    0    0  501    0  0.00000000000E+00  0.00000000000E+00  0.25488823970E+02  0.25520443714E+02  0.12700000000E+01 0. -1.
         -4   -1    0    0    0  501 -0.00000000000E+00 -0.00000000000E+00 -0.15312740078E+03  0.15313266722E+03  0.12700000000E+01 0. -1.
         25    2    1    2    0    0  0.00000000000E+00  0.00000000000E+00 -0.12763857681E+03  0.17865311094E+03  0.12500131102E+03 0.  0.
    9000005    1    3    3    0    0  0.28344386703E+02  0.50858762930E+02 -0.96263105921E+02  0.11250601578E+03  0.10000000000E+01 0.  0.
    9000005    1    3    3    0    0 -0.28344386703E+02 -0.50858762930E+02 -0.31375470893E+02  0.66147095160E+02  0.10000000000E+01 0.  0.
<mgrwt>
<rscale>  0 0.12500131E+03</rscale>
<asrwt>0</asrwt>
<pdfrwt beam="1">  1        4 0.63768172E-02 0.12500131E+03</pdfrwt>
<pdfrwt beam="2">  1       -4 0.38286458E-01 0.12500131E+03</pdfrwt>
<totfact> 0.17213149E+03</totfact>
</mgrwt>
</event>
<event>
 5    1  0.1431256E-002  0.1249984E+03  0.7818608E-02  0.1235072E+00
          4   -1    0    0  501    0  0.00000000000E+00  0.00000000000E+00  0.69263762963E+02  0.69275405158E+02  0.12700000000E+01 0. -1.
         -4   -1    0    0    0  501 -0.00000000000E+00 -0.00000000000E+00 -0.56371789774E+02  0.56386093873E+02  0.12700000000E+01 0. -1.
         25    2    1    2    0    0  0.00000000000E+00  0.00000000000E+00  0.12891973189E+02  0.12566149903E+03  0.12499843745E+03 0.  0.
    9000005    1    3    3    0    0  0.49765281717E+02  0.14537654206E+02 -0.28627844517E+02  0.59232424700E+02  0.10000000000E+01 0.  0.
    9000005    1    3    3    0    0 -0.49765281717E+02 -0.14537654206E+02  0.41519817706E+02  0.66429074331E+02  0.10000000000E+01 0.  0.
<mgrwt>
<rscale>  0 0.12499844E+03</rscale>
<asrwt>0</asrwt>
<pdfrwt beam="1">  1        4 0.17319184E-01 0.12499844E+03</pdfrwt>
<pdfrwt beam="2">  1       -4 0.14096191E-01 0.12499844E+03</pdfrwt>
<totfact> 0.19799947E+03</totfact>
</mgrwt>
</event>
<event>
 5    1  0.1431256E-002  0.1249989E+03  0.7818608E-02  0.1235071E+00
          4   -1    0    0  501    0  0.00000000000E+00  0.00000000000E+00  0.39309134336E+02  0.39329644573E+02  0.12700000000E+01 0.  1.
         -4   -1    0    0    0  501 -0.00000000000E+00 -0.00000000000E+00 -0.99320338586E+02  0.99328457941E+02  0.12700000000E+01 0.  1.
         25    2    1    2    0    0  0.00000000000E+00  0.00000000000E+00 -0.60011204250E+02  0.13865810251E+03  0.12499889902E+03 0.  0.
    9000005    1    3    3    0    0 -0.44101776224E+02 -0.70618369064E+01 -0.78489214007E+02  0.90312750606E+02  0.10000000000E+01 0.  0.
    9000005    1    3    3    0    0  0.44101776224E+02  0.70618369064E+01  0.18478009756E+02  0.48345351908E+02  0.10000000000E+01 0.  0.
<mgrwt>
<rscale>  0 0.12499890E+03</rscale>
<asrwt>0</asrwt>
<pdfrwt beam="1">  1        4 0.98308625E-02 0.12499890E+03</pdfrwt>
<pdfrwt beam="2">  1       -4 0.24833663E-01 0.12499890E+03</pdfrwt>
<totfact> 0.19109694E+03</totfact>
</mgrwt>
</event>
<event>
 5    1  0.1431256E-002  0.1250049E+03  0.7818608E-02  0.1235062E+00
         -4   -1    0    0    0  501 -0.00000000000E+00  0.00000000000E+00  0.25877796113E+03  0.25878107749E+03  0.12700000000E+01 0.  1.
          4   -1    0    0  501    0  0.00000000000E+00 -0.00000000000E+00 -0.15066257537E+02  0.15119689685E+02  0.12700000000E+01 0.  1.
         25    2    1    2    0    0  0.00000000000E+00  0.00000000000E+00  0.24371170360E+03  0.27390076718E+03  0.12500494306E+03 0.  0.
    9000005    1    3    3    0    0 -0.22238075918E+02 -0.56670603047E+02  0.15280185062E+03  0.16448554594E+03  0.10000000000E+01 0.  0.
    9000005    1    3    3    0    0  0.22238075918E+02  0.56670603047E+02  0.90909852978E+02  0.10941522124E+03  0.10000000000E+01 0.  0.
<mgrwt>
<rscale>  0 0.12500494E+03</rscale>
<asrwt>0</asrwt>
<pdfrwt beam="2">  1        4 0.37736329E-02 0.12500494E+03</pdfrwt>
<pdfrwt beam="1">  1       -4 0.64701559E-01 0.12500494E+03</pdfrwt>
<totfact> 0.13733849E+03</totfact>
</mgrwt>
</event>
<event>
 5    1  0.1431256E-002  0.1249997E+03  0.7818608E-02  0.1235070E+00
         -4   -1    0    0    0  501 -0.00000000000E+00  0.00000000000E+00  0.14907495545E+04  0.14907500955E+04  0.12700000000E+01 0. -1.
          4   -1    0    0  501    0  0.00000000000E+00 -0.00000000000E+00 -0.24658549097E+01  0.27736871553E+01  0.12700000000E+01 0. -1.
         25    2    1    2    0    0  0.00000000000E+00  0.00000000000E+00  0.14882836996E+04  0.14935237826E+04  0.12499967520E+03 0.  0.
    9000005    1    3    3    0    0 -0.62228163987E+02  0.14213793885E+01  0.81052170620E+03  0.81290885156E+03  0.10000000000E+01 0.  0.
    9000005    1    3    3    0    0  0.62228163987E+02 -0.14213793885E+01  0.67776199337E+03  0.68061493106E+03  0.10000000000E+01 0.  0.
<mgrwt>
<rscale>  0 0.12499968E+03</rscale>
<asrwt>0</asrwt>
<pdfrwt beam="2">  1        4 0.65501090E-03 0.12499968E+03</pdfrwt>
<pdfrwt beam="1">  1       -4 0.37272564E+00 0.12499968E+03</pdfrwt>
<totfact> 0.12707174E+02</totfact>
</mgrwt>
</event>
<event>
 5    1  0.1431256E-002  0.1249980E+03  0.7818608E-02  0.1235072E+00
          4   -1    0    0  501    0  0.00000000000E+00  0.00000000000E+00  0.87573127975E+03  0.87573220063E+03  0.12700000000E+01 0.  1.
         -4   -1    0    0    0  501 -0.00000000000E+00 -0.00000000000E+00 -0.43690738812E+01  0.45499128101E+01  0.12700000000E+01 0.  1.
         25    2    1    2    0    0  0.00000000000E+00  0.00000000000E+00  0.87136220586E+03  0.88028211344E+03  0.12499802174E+03 0.  0.
    9000005    1    3    3    0    0  0.36376228305E+02 -0.25445875534E+02  0.12594466098E+03  0.13354317728E+03  0.10000000000E+01 0.  0.
    9000005    1    3    3    0    0 -0.36376228305E+02  0.25445875534E+02  0.74541754488E+03  0.74673893617E+03  0.10000000000E+01 0.  0.
<mgrwt>
<rscale>  0 0.12499802E+03</rscale>
<asrwt>0</asrwt>
<pdfrwt beam="1">  1        4 0.21895554E+00 0.12499802E+03</pdfrwt>
<pdfrwt beam="2">  1       -4 0.11149884E-02 0.12499802E+03</pdfrwt>
<totfact> 0.45802816E+02</totfact>
</mgrwt>
</event>
<event>
 5    1  0.1431256E-002  0.1250032E+03  0.7818608E-02  0.1235064E+00
          4   -1    0    0  501    0  0.00000000000E+00  0.00000000000E+00  0.13845931916E+02  0.13904054467E+02  0.12700000000E+01 0. -1.
         -4   -1    0    0    0  501 -0.00000000000E+00 -0.00000000000E+00 -0.28148632127E+03  0.28148918622E+03  0.12700000000E+01 0. -1.
         25    2    1    2    0    0  0.00000000000E+00  0.00000000000E+00 -0.26764038935E+03  0.29539324069E+03  0.12500315449E+03 0.  0.
    9000005    1    3    3    0    0 -0.24378042702E+02  0.37223781668E+02 -0.23751494871E+03  0.24164902182E+03  0.10000000000E+01 0.  0.
    9000005    1    3    3    0    0  0.24378042702E+02 -0.37223781668E+02 -0.30125440638E+02  0.53744218864E+02  0.10000000000E+01 0.  0.
<mgrwt>
<rscale>  0 0.12500315E+03</rscale>
<asrwt>0</asrwt>
<pdfrwt beam="1">  1        4 0.34691073E-02 0.12500315E+03</pdfrwt>
<pdfrwt beam="2">  1       -4 0.70379185E-01 0.12500315E+03</pdfrwt>
<totfact> 0.13100213E+03</totfact>
</mgrwt>
</event>
<event>
 5    1  0.1431256E-002  0.1249988E+03  0.7818608E-02  0.1235071E+00
         -4   -1    0    0    0  501 -0.00000000000E+00  0.00000000000E+00  0.10158290219E+03  0.10159084071E+03  0.12700000000E+01 0.  1.
          4   -1    0    0  501    0  0.00000000000E+00 -0.00000000000E+00 -0.38433147423E+02  0.38454124887E+02  0.12700000000E+01 0.  1.
         25    2    1    2    0    0  0.00000000000E+00  0.00000000000E+00  0.63149754766E+02  0.14004496560E+03  0.12499880345E+03 0.  0.
    9000005    1    3    3    0    0  0.47517868814E+02 -0.40160655058E+02  0.38141160557E+02  0.72983383040E+02  0.10000000000E+01 0.  0.
    9000005    1    3    3    0    0 -0.47517868814E+02  0.40160655058E+02  0.25008594209E+02  0.67061582561E+02  0.10000000000E+01 0.  0.
<mgrwt>
<rscale>  0 0.12499880E+03</rscale>
<asrwt>0</asrwt>
<pdfrwt beam="2">  1        4 0.96119014E-02 0.12499880E+03</pdfrwt>
<pdfrwt beam="1">  1       -4 0.25399340E-01 0.12499880E+03</pdfrwt>
<totfact> 0.19038573E+03</totfact>
</mgrwt>
</event>
<event>
 5    1  0.1431256E-002  0.1250016E+03  0.7818608E-02  0.1235067E+00
          4   -1    0    0  501    0  0.00000000000E+00  0.00000000000E+00  0.16395633042E+02  0.16444746360E+02  0.12700000000E+01 0. -1.
         -4   -1    0    0    0  501 -0.00000000000E+00 -0.00000000000E+00 -0.23784831907E+03  0.23785170965E+03  0.12700000000E+01 0. -1.
         25    2    1    2    0    0  0.00000000000E+00  0.00000000000E+00 -0.22145268603E+03  0.25429645601E+03  0.12500158156E+03 0.  0.
    9000005    1    3    3    0    0  0.28319946703E+02  0.29989997003E+02 -0.20623080303E+03  0.21031776773E+03  0.10000000000E+01 0.  0.
    9000005    1    3    3    0    0 -0.28319946703E+02 -0.29989997003E+02 -0.15221882994E+02  0.43978688286E+02  0.10000000000E+01 0.  0.
<mgrwt>
<rscale>  0 0.12500158E+03</rscale>
<asrwt>0</asrwt>
<pdfrwt beam="1">  1        4 0.41054720E-02 0.12500158E+03</pdfrwt>
<pdfrwt beam="2">  1       -4 0.59468632E-01 0.12500158E+03</pdfrwt>
<totfact> 0.14355626E+03</totfact>
</mgrwt>
</event>
<event>
 5    1  0.1431256E-002  0.1250038E+03  0.7818608E-02  0.1235063E+00
         -4   -1    0    0    0  501 -0.00000000000E+00  0.00000000000E+00  0.72647079357E+01  0.73748817882E+01  0.12700000000E+01 0.  1.
          4   -1    0    0  501    0  0.00000000000E+00 -0.00000000000E+00 -0.53357707900E+03  0.53357859040E+03  0.12700000000E+01 0.  1.
         25    2    1    2    0    0  0.00000000000E+00  0.00000000000E+00 -0.52631237106E+03  0.54095347219E+03  0.12500378849E+03 0.  0.
    9000005    1    3    3    0    0 -0.25458638637E+02  0.55916111869E+02 -0.21367623625E+03  0.22233597952E+03  0.10000000000E+01 0.  0.
    9000005    1    3    3    0    0  0.25458638637E+02 -0.55916111869E+02 -0.31263613481E+03  0.31861749267E+03  0.10000000000E+01 0.  0.
<mgrwt>
<rscale>  0 0.12500379E+03</rscale>
<asrwt>0</asrwt>
<pdfrwt beam="2">  1        4 0.13340810E+00 0.12500379E+03</pdfrwt>
<pdfrwt beam="1">  1       -4 0.18301394E-02 0.12500379E+03</pdfrwt>
<totfact> 0.81434531E+02</totfact>
</mgrwt>
</event>
<event>
 5    1  0.1431256E-002  0.1249979E+03  0.7818608E-02  0.1235073E+00
         -4   -1    0    0    0  501 -0.00000000000E+00  0.00000000000E+00  0.30930534317E+02  0.30956596278E+02  0.12700000000E+01 0.  1.
          4   -1    0    0  501    0  0.00000000000E+00 -0.00000000000E+00 -0.12620438846E+03  0.12621077833E+03  0.12700000000E+01 0.  1.
         25    2    1    2    0    0  0.00000000000E+00  0.00000000000E+00 -0.95273854146E+02  0.15716737461E+03  0.12499790541E+03 0.  0.
    9000005    1    3    3    0    0 -0.39233842221E+01 -0.55309750347E+02 -0.11400567746E+02  0.56617438763E+02  0.10000000000E+01 0.  0.
    9000005    1    3    3    0    0  0.39233842221E+01  0.55309750347E+02 -0.83873286400E+02  0.10054993585E+03  0.10000000000E+01 0.  0.
<mgrwt>
<rscale>  0 0.12499791E+03</rscale>
<asrwt>0</asrwt>
<pdfrwt beam="2">  1        4 0.31555152E-01 0.12499791E+03</pdfrwt>
<pdfrwt beam="1">  1       -4 0.77366904E-02 0.12499791E+03</pdfrwt>
<totfact> 0.18192768E+03</totfact>
</mgrwt>
</event>
<event>
 5    1  0.1431256E-002  0.1249963E+03  0.7818608E-02  0.1235075E+00
          4   -1    0    0  501    0  0.00000000000E+00  0.00000000000E+00  0.72618095470E+02  0.72629199980E+02  0.12700000000E+01 0.  1.
         -4   -1    0    0    0  501 -0.00000000000E+00 -0.00000000000E+00 -0.53765750272E+02  0.53780747506E+02  0.12700000000E+01 0.  1.
         25    2    1    2    0    0  0.00000000000E+00  0.00000000000E+00  0.18852345198E+02  0.12640994749E+03  0.12499625556E+03 0.  0.
    9000005    1    3    3    0    0  0.60920410838E+02  0.84761882800E+01 -0.17383289299E+01  0.61539938348E+02  0.10000000000E+01 0.  0.
    9000005    1    3    3    0    0 -0.60920410838E+02 -0.84761882800E+01  0.20590674128E+02  0.64870009137E+02  0.10000000000E+01 0.  0.
<mgrwt>
<rscale>  0 0.12499626E+03</rscale>
<asrwt>0</asrwt>
<pdfrwt beam="1">  1        4 0.18157786E-01 0.12499626E+03</pdfrwt>
<pdfrwt beam="2">  1       -4 0.13444700E-01 0.12499626E+03</pdfrwt>
<totfact> 0.19760514E+03</totfact>
</mgrwt>
</event>
<event>
 5    1  0.1431256E-002  0.1250058E+03  0.7818608E-02  0.1235060E+00
         -4   -1    0    0    0  501 -0.00000000000E+00  0.00000000000E+00  0.37599282792E+02  0.37620725225E+02  0.12700000000E+01 0.  1.
          4   -1    0    0  501    0  0.00000000000E+00 -0.00000000000E+00 -0.10384626913E+03  0.10385403465E+03  0.12700000000E+01 0.  1.
         25    2    1    2    0    0  0.00000000000E+00  0.00000000000E+00 -0.66246986337E+02  0.14147475987E+03  0.12500577779E+03 0.  0.
    9000005    1    3    3    0    0 -0.55373610466E+01 -0.33043343389E+02  0.26581713857E+02  0.42779813245E+02  0.10000000000E+01 0.  0.
    9000005    1    3    3    0    0  0.55373610466E+01  0.33043343389E+02 -0.92828700194E+02  0.98694946626E+02  0.10000000000E+01 0.  0.
<mgrwt>
<rscale>  0 0.12500578E+03</rscale>
<asrwt>0</asrwt>
<pdfrwt beam="2">  1        4 0.25965218E-01 0.12500578E+03</pdfrwt>
<pdfrwt beam="1">  1       -4 0.94034719E-02 0.12500578E+03</pdfrwt>
<totfact> 0.18962594E+03</totfact>
</mgrwt>
</event>
<event>
 5    1  0.1431256E-002  0.1250017E+03  0.7818608E-02  0.1235067E+00
         -4   -1    0    0    0  501 -0.00000000000E+00  0.00000000000E+00  0.84726177729E+03  0.84726272912E+03  0.12700000000E+01 0.  1.
          4   -1    0    0  501    0  0.00000000000E+00 -0.00000000000E+00 -0.45221376617E+01  0.46970872922E+01  0.12700000000E+01 0.  1.
         25    2    1    2    0    0  0.00000000000E+00  0.00000000000E+00  0.84273963962E+03  0.85195981641E+03  0.12500171431E+03 0.  0.
    9000005    1    3    3    0    0  0.49602801882E+02 -0.37538705121E+02  0.38061010894E+03  0.38566131172E+03  0.10000000000E+01 0.  0.
    9000005    1    3    3    0    0 -0.49602801882E+02  0.37538705121E+02  0.46212953069E+03  0.46629850468E+03  0.10000000000E+01 0.  0.
<mgrwt>
<rscale>  0 0.12500171E+03</rscale>
<asrwt>0</asrwt>
<pdfrwt beam="2">  1        4 0.11525220E-02 0.12500171E+03</pdfrwt>
<pdfrwt beam="1">  1       -4 0.21183746E+00 0.12500171E+03</pdfrwt>
<totfact> 0.48068385E+02</totfact>
</mgrwt>
</event>
<event>
 5    1  0.1431256E-002  0.1249953E+03  0.7818608E-02  0.1235077E+00
         -4   -1    0    0    0  501 -0.00000000000E+00  0.00000000000E+00  0.12993628992E+02  0.13055546499E+02  0.12700000000E+01 0. -1.
          4   -1    0    0  501    0  0.00000000000E+00 -0.00000000000E+00 -0.29982753597E+03  0.29983022567E+03  0.12700000000E+01 0. -1.
         25    2    1    2    0    0  0.00000000000E+00  0.00000000000E+00 -0.28683390698E+03  0.31288577217E+03  0.12499526485E+03 0.  0.
    9000005    1    3    3    0    0 -0.25488463537E+02 -0.51241216807E+02 -0.20622784463E+03  0.21402394253E+03  0.10000000000E+01 0.  0.
    9000005    1    3    3    0    0  0.25488463537E+02  0.51241216807E+02 -0.80606062347E+02  0.98861829643E+02  0.10000000000E+01 0.  0.
<mgrwt>
<rscale>  0 0.12499526E+03</rscale>
<asrwt>0</asrwt>
<pdfrwt beam="2">  1        4 0.74964937E-01 0.12499526E+03</pdfrwt>
<pdfrwt beam="1">  1       -4 0.32564841E-02 0.12499526E+03</pdfrwt>
<totfact> 0.12618811E+03</totfact>
</mgrwt>
</event>
<event>
 5    1  0.1431256E-002  0.1250054E+03  0.7818608E-02  0.1235061E+00
          4   -1    0    0  501    0  0.00000000000E+00  0.00000000000E+00  0.34094556894E+03  0.34094793427E+03  0.12700000000E+01 0.  1.
         -4   -1    0    0    0  501 -0.00000000000E+00 -0.00000000000E+00 -0.11420497597E+02  0.11490894890E+02  0.12700000000E+01 0.  1.
         25    2    1    2    0    0  0.00000000000E+00  0.00000000000E+00  0.32952507134E+03  0.35243882916E+03  0.12500542249E+03 0.  0.
    9000005    1    3    3    0    0 -0.49795340444E+02  0.31074467389E+02  0.22525733708E+03  0.23278115551E+03  0.10000000000E+01 0.  0.
    9000005    1    3    3    0    0  0.49795340444E+02 -0.31074467389E+02  0.10426773427E+03  0.11965767365E+03  0.10000000000E+01 0.  0.
<mgrwt>
<rscale>  0 0.12500542E+03</rscale>
<asrwt>0</asrwt>
<pdfrwt beam="1">  1        4 0.85245487E-01 0.12500542E+03</pdfrwt>
<pdfrwt beam="2">  1       -4 0.28642197E-02 0.12500542E+03</pdfrwt>
<totfact> 0.11617928E+03</totfact>
</mgrwt>
</event>
<event>
 5    1  0.1431256E-002  0.1249989E+03  0.7818608E-02  0.1235071E+00
          4   -1    0    0  501    0  0.00000000000E+00  0.00000000000E+00  0.50146687926E+02  0.50162767168E+02  0.12700000000E+01 0.  1.
         -4   -1    0    0    0  501 -0.00000000000E+00 -0.00000000000E+00 -0.77861416407E+02  0.77871773223E+02  0.12700000000E+01 0.  1.
         25    2    1    2    0    0  0.00000000000E+00  0.00000000000E+00 -0.27714728481E+02  0.12803454039E+03  0.12499894943E+03 0.  0.
    9000005    1    3    3    0    0  0.36131273855E+02  0.14321129282E+02  0.36265876775E+02  0.53167447865E+02  0.10000000000E+01 0.  0.
    9000005    1    3    3    0    0 -0.36131273855E+02 -0.14321129282E+02 -0.63980605256E+02  0.74867092525E+02  0.10000000000E+01 0.  0.
<mgrwt>
<rscale>  0 0.12499895E+03</rscale>
<asrwt>0</asrwt>
<pdfrwt beam="1">  1        4 0.12539977E-01 0.12499895E+03</pdfrwt>
<pdfrwt beam="2">  1       -4 0.19468658E-01 0.12499895E+03</pdfrwt>
<totfact> 0.19671137E+03</totfact>
</mgrwt>
</event>
<event>
 5    1  0.1431256E-002  0.1249968E+03  0.7818608E-02  0.1235074E+00
         -4   -1    0    0    0  501 -0.00000000000E+00  0.00000000000E+00  0.53498882832E+03  0.53499033573E+03  0.12700000000E+01 0. -1.
          4   -1    0    0  501    0  0.00000000000E+00 -0.00000000000E+00 -0.72444182516E+01  0.73548960430E+01  0.12700000000E+01 0. -1.
         25    2    1    2    0    0  0.00000000000E+00  0.00000000000E+00  0.52774441007E+03  0.54234523178E+03  0.12499675224E+03 0.  0.
    9000005    1    3    3    0    0 -0.50629852975E+02 -0.28468199222E+02  0.36387612403E+03  0.36848426563E+03  0.10000000000E+01 0.  0.
    9000005    1    3    3    0    0  0.50629852975E+02  0.28468199222E+02  0.16386828604E+03  0.17386096615E+03  0.10000000000E+01 0.  0.
<mgrwt>
<rscale>  0 0.12499675E+03</rscale>
<asrwt>0</asrwt>
<pdfrwt beam="2">  1        4 0.18251028E-02 0.12499675E+03</pdfrwt>
<pdfrwt beam="1">  1       -4 0.13376120E+00 0.12499675E+03</pdfrwt>
<totfact> 0.81249425E+02</totfact>
</mgrwt>
</event>
<event>
 5    1  0.1431256E-002  0.1250077E+03  0.7818608E-02  0.1235057E+00
         -4   -1    0    0    0  501 -0.00000000000E+00  0.00000000000E+00  0.26030190187E+02  0.26061153105E+02  0.12700000000E+01 0.  1.
          4   -1    0    0  501    0  0.00000000000E+00 -0.00000000000E+00 -0.14996184419E+03  0.14996722180E+03  0.12700000000E+01 0.  1.
         25    2    1    2    0    0  0.00000000000E+00  0.00000000000E+00 -0.12393165401E+03  0.17602837490E+03  0.12500773539E+03 0.  0.
    9000005    1    3    3    0    0 -0.54489764984E+02  0.25061268137E+02 -0.86699907966E+02  0.10542805931E+03  0.10000000000E+01 0.  0.
    9000005    1    3    3    0    0  0.54489764984E+02 -0.25061268137E+02 -0.37231746042E+02  0.70600315594E+02  0.10000000000E+01 0.  0.
<mgrwt>
<rscale>  0 0.12500774E+03</rscale>
<asrwt>0</asrwt>
<pdfrwt beam="2">  1        4 0.37495001E-01 0.12500774E+03</pdfrwt>
<pdfrwt beam="1">  1       -4 0.65120905E-02 0.12500774E+03</pdfrwt>
<totfact> 0.17325412E+03</totfact>
</mgrwt>
</event>
<event>
 5    1  0.1431256E-002  0.1249948E+03  0.7818608E-02  0.1235077E+00
         -4   -1    0    0    0  501 -0.00000000000E+00  0.00000000000E+00  0.74907044501E+02  0.74917809737E+02  0.12700000000E+01 0. -1.
          4   -1    0    0  501    0  0.00000000000E+00 -0.00000000000E+00 -0.52121347573E+02  0.52136817824E+02  0.12700000000E+01 0. -1.
         25    2    1    2    0    0  0.00000000000E+00  0.00000000000E+00  0.22785696928E+02  0.12705462756E+03  0.12499476149E+03 0.  0.
    9000005    1    3    3    0    0 -0.35110703496E+01  0.61453818757E+02  0.22341761155E+02  0.65490867656E+02  0.10000000000E+01 0.  0.
    9000005    1    3    3    0    0  0.35110703496E+01 -0.61453818757E+02  0.44393577272E+00  0.61563759906E+02  0.10000000000E+01 0.  0.
<mgrwt>
<rscale>  0 0.12499476E+03</rscale>
<asrwt>0</asrwt>
<pdfrwt beam="2">  1        4 0.13033616E-01 0.12499476E+03</pdfrwt>
<pdfrwt beam="1">  1       -4 0.18730040E-01 0.12499476E+03</pdfrwt>
<totfact> 0.19726453E+03</totfact>
</mgrwt>
</event>
<event>
 5    1  0.1431256E-002  0.1249997E+03  0.7818608E-02  0.1235070E+00
          4   -1    0    0  501    0  0.00000000000E+00  0.00000000000E+00  0.10849160869E+02  0.10923240891E+02  0.12700000000E+01 0. -1.
         -4   -1    0    0    0  501 -0.00000000000E+00 -0.00000000000E+00 -0.35874903752E+03  0.35875128547E+03  0.12700000000E+01 0. -1.
         25    2    1    2    0    0  0.00000000000E+00  0.00000000000E+00 -0.34789987665E+03  0.36967452636E+03  0.12499972504E+03 0.  0.
    9000005    1    3    3    0    0 -0.80598589822E+01  0.44606840374E+02 -0.46730005377E+02  0.65110866508E+02  0.10000000000E+01 0.  0.
    9000005    1    3    3    0    0  0.80598589822E+01 -0.44606840374E+02 -0.30116987128E+03  0.30456365985E+03  0.10000000000E+01 0.  0.
<mgrwt>
<rscale>  0 0.12499973E+03</rscale>
<asrwt>0</asrwt>
<pdfrwt beam="1">  1        4 0.27218324E-02 0.12499973E+03</pdfrwt>
<pdfrwt beam="2">  1       -4 0.89696761E-01 0.12499973E+03</pdfrwt>
<totfact> 0.11221819E+03</totfact>
</mgrwt>
</event>
<event>
 5    1  0.1431256E-002  0.1250004E+03  0.7818608E-02  0.1235069E+00
         -4   -1    0    0    0  501 -0.00000000000E+00  0.00000000000E+00  0.43515083357E+02  0.43533612067E+02  0.12700000000E+01 0. -1.
          4   -1    0    0  501    0  0.00000000000E+00 -0.00000000000E+00 -0.89726229885E+02  0.89735217330E+02  0.12700000000E+01 0. -1.
         25    2    1    2    0    0  0.00000000000E+00  0.00000000000E+00 -0.46211146528E+02  0.13326882940E+03  0.12500044330E+03 0.  0.
    9000005    1    3    3    0    0 -0.54696678862E+02  0.20628923059E+02  0.44634582169E+00  0.58467754957E+02  0.10000000000E+01 0.  0.
    9000005    1    3    3    0    0  0.54696678862E+02 -0.20628923059E+02 -0.46657492349E+02  0.74801074440E+02  0.10000000000E+01 0.  0.
<mgrwt>
<rscale>  0 0.12500044E+03</rscale>
<asrwt>0</asrwt>
<pdfrwt beam="2">  1        4 0.22434997E-01 0.12500044E+03</pdfrwt>
<pdfrwt beam="1">  1       -4 0.10882211E-01 0.12500044E+03</pdfrwt>
<totfact> 0.19390002E+03</totfact>
</mgrwt>
</event>
<event>
 5    1  0.1431256E-002  0.1249945E+03  0.7818608E-02  0.1235078E+00
         -4   -1    0    0    0  501 -0.00000000000E+00  0.00000000000E+00  0.54276528109E+03  0.54276676691E+03  0.12700000000E+01 0. -1.
          4   -1    0    0  501    0  0.00000000000E+00 -0.00000000000E+00 -0.71387659902E+01  0.72508537333E+01  0.12700000000E+01 0. -1.
         25    2    1    2    0    0  0.00000000000E+00  0.00000000000E+00  0.53562651510E+03  0.55001762064E+03  0.12499447722E+03 0.  0.
    9000005    1    3    3    0    0  0.12717254234E+00 -0.34213725052E+02  0.37716961133E+02  0.50932939360E+02  0.10000000000E+01 0.  0.
    9000005    1    3    3    0    0 -0.12717254234E+00  0.34213725052E+02  0.49790955397E+03  0.49908468128E+03  0.10000000000E+01 0.  0.
<mgrwt>
<rscale>  0 0.12499448E+03</rscale>
<asrwt>0</asrwt>
<pdfrwt beam="2">  1        4 0.17988885E-02 0.12499448E+03</pdfrwt>
<pdfrwt beam="1">  1       -4 0.13570549E+00 0.12499448E+03</pdfrwt>
<totfact> 0.80174336E+02</totfact>
</mgrwt>
</event>
<event>
 5    1  0.1431256E-002  0.1250009E+03  0.7818608E-02  0.1235068E+00
          4   -1    0    0  501    0  0.00000000000E+00  0.00000000000E+00  0.67906145548E+01  0.69083533517E+01  0.12700000000E+01 0.  1.
         -4   -1    0    0    0  501 -0.00000000000E+00 -0.00000000000E+00 -0.57018827076E+03  0.57018968511E+03  0.12700000000E+01 0.  1.
         25    2    1    2    0    0  0.00000000000E+00  0.00000000000E+00 -0.56339765620E+03  0.57709803846E+03  0.12500090794E+03 0.  0.
    9000005    1    3    3    0    0 -0.38398254410E+01  0.38241951199E+02 -0.54204216119E+02  0.66455158837E+02  0.10000000000E+01 0.  0.
    9000005    1    3    3    0    0  0.38398254410E+01 -0.38241951199E+02 -0.50919344008E+03  0.51064287963E+03  0.10000000000E+01 0.  0.
<mgrwt>
<rscale>  0 0.12500091E+03</rscale>
<asrwt>0</asrwt>
<pdfrwt beam="1">  1        4 0.17125497E-02 0.12500091E+03</pdfrwt>
<pdfrwt beam="2">  1       -4 0.14256180E+00 0.12500091E+03</pdfrwt>
<totfact> 0.76460719E+02</totfact>
</mgrwt>
</event>
<event>
 5    1  0.1431256E-002  0.1249917E+03  0.7818608E-02  0.1235082E+00
         -4   -1    0    0    0  501 -0.00000000000E+00  0.00000000000E+00  0.23787320684E+02  0.23821199074E+02  0.12700000000E+01 0.  1.
          4   -1    0    0  501    0  0.00000000000E+00 -0.00000000000E+00 -0.16404076675E+03  0.16404568284E+03  0.12700000000E+01 0.  1.
         25    2    1    2    0    0  0.00000000000E+00  0.00000000000E+00 -0.14025344607E+03  0.18786688191E+03  0.12499174446E+03 0.  0.
    9000005    1    3    3    0    0  0.37733421389E+02  0.14240839271E+02 -0.14186605609E+03  0.14749098435E+03  0.10000000000E+01 0.  0.
    9000005    1    3    3    0    0 -0.37733421389E+02 -0.14240839271E+02  0.16126100210E+01  0.40375897562E+02  0.10000000000E+01 0.  0.
<mgrwt>
<rscale>  0 0.12499174E+03</rscale>
<asrwt>0</asrwt>
<pdfrwt beam="2">  1        4 0.41015038E-01 0.12499174E+03</pdfrwt>
<pdfrwt beam="1">  1       -4 0.59516800E-02 0.12499174E+03</pdfrwt>
<totfact> 0.16822899E+03</totfact>
</mgrwt>
</event>
<event>
 5    1  0.1431256E-002  0.1250077E+03  0.7818608E-02  0.1235057E+00
         -4   -1    0    0    0  501 -0.00000000000E+00  0.00000000000E+00  0.29940720083E+03  0.29940989430E+03  0.12700000000E+01 0.  1.
          4   -1    0    0  501    0  0.00000000000E+00 -0.00000000000E+00 -0.13014568700E+02  0.13076387056E+02  0.12700000000E+01 0.  1.
         25    2    1    2    0    0  0.00000000000E+00  0.00000000000E+00  0.28639263213E+03  0.31248628136E+03  0.12500774497E+03 0.  0.
    9000005    1    3    3    0    0  0.14995433078E+01  0.34188706953E+02  0.12476222476E+02  0.36438611945E+02  0.10000000000E+01 0.  0.
    9000005    1    3    3    0    0 -0.14995433078E+01 -0.34188706953E+02  0.27391640965E+03  0.27604766941E+03  0.10000000000E+01 0.  0.
<mgrwt>
<rscale>  0 0.12500774E+03</rscale>
<asrwt>0</asrwt>
<pdfrwt beam="2">  1        4 0.32617061E-02 0.12500774E+03</pdfrwt>
<pdfrwt beam="1">  1       -4 0.74859865E-01 0.12500774E+03</pdfrwt>
<totfact> 0.12625943E+03</totfact>
</mgrwt>
</event>
<event>
 5    1  0.1431256E-002  0.1249959E+03  0.7818608E-02  0.1235076E+00
         -4   -1    0    0    0  501 -0.00000000000E+00  0.00000000000E+00  0.18631919027E+02  0.18675152118E+02  0.12700000000E+01 0. -1.
          4   -1    0    0  501    0  0.00000000000E+00 -0.00000000000E+00 -0.20935165592E+03  0.20935550802E+03  0.12700000000E+01 0. -1.
         25    2    1    2    0    0  0.00000000000E+00  0.00000000000E+00 -0.19071973690E+03  0.22803066014E+03  0.12499585562E+03 0.  0.
    9000005    1    3    3    0    0 -0.87460706188E+01 -0.50784296565E+02 -0.15984468929E+03  0.16794898994E+03  0.10000000000E+01 0.  0.
    9000005    1    3    3    0    0  0.87460706188E+01  0.50784296565E+02 -0.30875047611E+02  0.60081670198E+02  0.10000000000E+01 0.  0.
<mgrwt>
<rscale>  0 0.12499586E+03</rscale>
<asrwt>0</asrwt>
<pdfrwt beam="2">  1        4 0.52343792E-01 0.12499586E+03</pdfrwt>
<pdfrwt beam="1">  1       -4 0.46638661E-02 0.12499586E+03</pdfrwt>
<totfact> 0.15259396E+03</totfact>
</mgrwt>
</event>
<event>
 5    1  0.1431256E-002  0.1250029E+03  0.7818608E-02  0.1235065E+00
          4   -1    0    0  501    0  0.00000000000E+00  0.00000000000E+00  0.18208500464E+02  0.18252736484E+02  0.12700000000E+01 0.  1.
         -4   -1    0    0    0  501 -0.00000000000E+00 -0.00000000000E+00 -0.21423249613E+03  0.21423626046E+03  0.12700000000E+01 0.  1.
         25    2    1    2    0    0  0.00000000000E+00  0.00000000000E+00 -0.19602399566E+03  0.23248899694E+03  0.12500290727E+03 0.  0.
    9000005    1    3    3    0    0  0.34321036972E+02 -0.50265962174E+02 -0.12436911175E+03  0.13846760087E+03  0.10000000000E+01 0.  0.
    9000005    1    3    3    0    0 -0.34321036972E+02  0.50265962174E+02 -0.71654883907E+02  0.94021396074E+02  0.10000000000E+01 0.  0.
<mgrwt>
<rscale>  0 0.12500291E+03</rscale>
<asrwt>0</asrwt>
<pdfrwt beam="1">  1        4 0.45581258E-02 0.12500291E+03</pdfrwt>
<pdfrwt beam="2">  1       -4 0.53564116E-01 0.12500291E+03</pdfrwt>
<totfact> 0.15097770E+03</totfact>
</mgrwt>
</event>
<event>
 5    1  0.1431256E-002  0.1250066E+03  0.7818608E-02  0.1235059E+00
          4   -1    0    0  501    0  0.00000000000E+00  0.00000000000E+00  0.25681401333E+02  0.25712784260E+02  0.12700000000E+01 0.  1.
         -4   -1    0    0    0  501 -0.00000000000E+00 -0.00000000000E+00 -0.15199344501E+03  0.15199875074E+03  0.12700000000E+01 0.  1.
         25    2    1    2    0    0  0.00000000000E+00  0.00000000000E+00 -0.12631204367E+03  0.17771153500E+03  0.12500662900E+03 0.  0.
    9000005    1    3    3    0    0  0.40407867648E+02 -0.46566924570E+02 -0.77680890484E+02  0.99179609690E+02  0.10000000000E+01 0.  0.
    9000005    1    3    3    0    0 -0.40407867648E+02  0.46566924570E+02 -0.48631153190E+02  0.78531925306E+02  0.10000000000E+01 0.  0.
<mgrwt>
<rscale>  0 0.12500663E+03</rscale>
<asrwt>0</asrwt>
<pdfrwt beam="1">  1        4 0.64249368E-02 0.12500663E+03</pdfrwt>
<pdfrwt beam="2">  1       -4 0.38002945E-01 0.12500663E+03</pdfrwt>
<totfact> 0.17252078E+03</totfact>
</mgrwt>
</event>
<event>
 5    1  0.1431256E-002  0.1249987E+03  0.7818608E-02  0.1235071E+00
          4   -1    0    0  501    0  0.00000000000E+00  0.00000000000E+00  0.16169797116E+02  0.16219594285E+02  0.12700000000E+01 0. -1.
         -4   -1    0    0    0  501 -0.00000000000E+00 -0.00000000000E+00 -0.24114916606E+03  0.24115251023E+03  0.12700000000E+01 0. -1.
         25    2    1    2    0    0  0.00000000000E+00  0.00000000000E+00 -0.22497936895E+03  0.25737210452E+03  0.12499873493E+03 0.  0.
    9000005    1    3    3    0    0 -0.52917264153E+02 -0.23936712675E+02 -0.15997928967E+03  0.17019863743E+03  0.10000000000E+01 0.  0.
    9000005    1    3    3    0    0  0.52917264153E+02  0.23936712675E+02 -0.65000079279E+02  0.87173467095E+02  0.10000000000E+01 0.  0.
<mgrwt>
<rscale>  0 0.12499873E+03</rscale>
<asrwt>0</asrwt>
<pdfrwt beam="1">  1        4 0.40490927E-02 0.12499873E+03</pdfrwt>
<pdfrwt beam="2">  1       -4 0.60293923E-01 0.12499873E+03</pdfrwt>
<totfact> 0.14256342E+03</totfact>
</mgrwt>
</event>
<event>
 5    1  0.1431256E-002  0.1249991E+03  0.7818608E-02  0.1235071E+00
          4   -1    0    0  501    0  0.00000000000E+00  0.00000000000E+00  0.70203418799E+02  0.70214905192E+02  0.12700000000E+01 0. -1.
         -4   -1    0    0    0  501 -0.00000000000E+00 -0.00000000000E+00 -0.55617750331E+02  0.55632248308E+02  0.12700000000E+01 0. -1.
         25    2    1    2    0    0  0.00000000000E+00  0.00000000000E+00  0.14585668469E+02  0.12584715350E+03  0.12499905727E+03 0.  0.
    9000005    1    3    3    0    0  0.40507252725E+02 -0.47147548634E+02  0.13775638444E+02  0.63674932902E+02  0.10000000000E+01 0.  0.
    9000005    1    3    3    0    0 -0.40507252725E+02  0.47147548634E+02  0.81003002425E+00  0.62172220599E+02  0.10000000000E+01 0.  0.
<mgrwt>
<rscale>  0 0.12499906E+03</rscale>
<asrwt>0</asrwt>
<pdfrwt beam="1">  1        4 0.17554103E-01 0.12499906E+03</pdfrwt>
<pdfrwt beam="2">  1       -4 0.13907686E-01 0.12499906E+03</pdfrwt>
<totfact> 0.19789618E+03</totfact>
</mgrwt>
</event>
<event>
 5    1  0.1431256E-002  0.1249830E+03  0.7818608E-02  0.1235096E+00
          4   -1    0    0  501    0  0.00000000000E+00  0.00000000000E+00  0.63833053537E+02  0.63845686024E+02  0.12700000000E+01 0.  1.
         -4   -1    0    0    0  501 -0.00000000000E+00 -0.00000000000E+00 -0.61152907745E+02  0.61166093759E+02  0.12700000000E+01 0.  1.
         25    2    1    2    0    0  0.00000000000E+00  0.00000000000E+00  0.26801457922E+01  0.12501177978E+03  0.12498304646E+03 0.  0.
    9000005    1    3    3    0    0  0.34574501746E+02  0.47901037581E+02  0.21698742099E+02  0.62942362372E+02  0.10000000000E+01 0.  0.
    9000005    1    3    3    0    0 -0.34574501746E+02 -0.47901037581E+02 -0.19018596307E+02  0.62069417411E+02  0.10000000000E+01 0.  0.
<mgrwt>
<rscale>  0 0.12498305E+03</rscale>
<asrwt>0</asrwt>
<pdfrwt beam="1">  1        4 0.15961491E-01 0.12498305E+03</pdfrwt>
<pdfrwt beam="2">  1       -4 0.15291454E-01 0.12498305E+03</pdfrwt>
<totfact> 0.19842287E+03</totfact>
</mgrwt>
</event>
<event>
 5    1  0.1431256E-002  0.1249982E+03  0.7818608E-02  0.1235072E+00
          4   -1    0    0  501    0  0.00000000000E+00  0.00000000000E+00  0.12637818442E+04  0.12637824824E+04  0.12700000000E+01 0.  1.
         -4   -1    0    0    0  501 -0.00000000000E+00 -0.00000000000E+00 -0.29597102234E+01  0.32206807676E+01  0.12700000000E+01 0.  1.
         25    2    1    2    0    0  0.00000000000E+00  0.00000000000E+00  0.12608221340E+04  0.12670031631E+04  0.12499824703E+03 0.  0.
    9000005    1    3    3    0    0  0.44566184052E+02 -0.10444307516E+01  0.18650885970E+03  0.19176493512E+03  0.10000000000E+01 0.  0.
    9000005    1    3    3    0    0 -0.44566184052E+02  0.10444307516E+01  0.10743132743E+04  0.10752382280E+04  0.10000000000E+01 0.  0.
<mgrwt>
<rscale>  0 0.12499825E+03</rscale>
<asrwt>0</asrwt>
<pdfrwt beam="1">  1        4 0.31597813E+00 0.12499825E+03</pdfrwt>
<pdfrwt beam="2">  1       -4 0.77262872E-03 0.12499825E+03</pdfrwt>
<totfact> 0.21855148E+02</totfact>
</mgrwt>
</event>
<event>
 5    1  0.1431256E-002  0.1249981E+03  0.7818608E-02  0.1235072E+00
         -4   -1    0    0    0  501 -0.00000000000E+00  0.00000000000E+00  0.51056960630E+02  0.51072753292E+02  0.12700000000E+01 0. -1.
          4   -1    0    0  501    0  0.00000000000E+00 -0.00000000000E+00 -0.76472502563E+02  0.76483047457E+02  0.12700000000E+01 0. -1.
         25    2    1    2    0    0  0.00000000000E+00  0.00000000000E+00 -0.25415541933E+02  0.12755580075E+03  0.12499813012E+03 0.  0.
    9000005    1    3    3    0    0  0.19417440873E+02 -0.13647954622E+02 -0.71699189373E+02  0.75531962984E+02  0.10000000000E+01 0.  0.
    9000005    1    3    3    0    0 -0.19417440873E+02  0.13647954622E+02  0.46283647440E+02  0.52023837765E+02  0.10000000000E+01 0.  0.
<mgrwt>
<rscale>  0 0.12499813E+03</rscale>
<asrwt>0</asrwt>
<pdfrwt beam="2">  1        4 0.19121418E-01 0.12499813E+03</pdfrwt>
<pdfrwt beam="1">  1       -4 0.12767532E-01 0.12499813E+03</pdfrwt>
<totfact> 0.19697598E+03</totfact>
</mgrwt>
</event>
<event>
 5    1  0.1431256E-002  0.1250031E+03  0.7818608E-02  0.1235064E+00
          4   -1    0    0  501    0  0.00000000000E+00  0.00000000000E+00  0.56437810239E+02  0.56452097610E+02  0.12700000000E+01 0. -1.
         -4   -1    0    0    0  501 -0.00000000000E+00 -0.00000000000E+00 -0.69187907612E+02  0.69199562569E+02  0.12700000000E+01 0. -1.
         25    2    1    2    0    0  0.00000000000E+00  0.00000000000E+00 -0.12750097374E+02  0.12565166018E+03  0.12500309885E+03 0.  0.
    9000005    1    3    3    0    0  0.18688135572E+02  0.36248422515E+01  0.53457371428E+02  0.56754528035E+02  0.10000000000E+01 0.  0.
    9000005    1    3    3    0    0 -0.18688135572E+02 -0.36248422515E+01 -0.66207468802E+02  0.68897132144E+02  0.10000000000E+01 0.  0.
<mgrwt>
<rscale>  0 0.12500310E+03</rscale>
<asrwt>0</asrwt>
<pdfrwt beam="1">  1        4 0.14112695E-01 0.12500310E+03</pdfrwt>
<pdfrwt beam="2">  1       -4 0.17300220E-01 0.12500310E+03</pdfrwt>
<totfact> 0.19798320E+03</totfact>
</mgrwt>
</event>
<event>
 5    1  0.1431256E-002  0.1250006E+03  0.7818608E-02  0.1235068E+00
          4   -1    0    0  501    0  0.00000000000E+00  0.00000000000E+00  0.15101932415E+02  0.15155238786E+02  0.12700000000E+01 0. -1.
         -4   -1    0    0    0  501 -0.00000000000E+00 -0.00000000000E+00 -0.25815073064E+03  0.25815385458E+03  0.12700000000E+01 0. -1.
         25    2    1    2    0    0  0.00000000000E+00  0.00000000000E+00 -0.24304879823E+03  0.27330909336E+03  0.12500056877E+03 0.  0.
    9000005    1    3    3    0    0 -0.20938673479E+02 -0.57452373503E+02 -0.14970198237E+03  0.16171235819E+03  0.10000000000E+01 0.  0.
    9000005    1    3    3    0    0  0.20938673479E+02  0.57452373503E+02 -0.93346815863E+02  0.11159673517E+03  0.10000000000E+01 0.  0.
<mgrwt>
<rscale>  0 0.12500057E+03</rscale>
<asrwt>0</asrwt>
<pdfrwt beam="1">  1        4 0.37825377E-02 0.12500057E+03</pdfrwt>
<pdfrwt beam="2">  1       -4 0.64544722E-01 0.12500057E+03</pdfrwt>
<totfact> 0.13753353E+03</totfact>
</mgrwt>
</event>
<event>
 5    1  0.1431256E-002  0.1250005E+03  0.7818608E-02  0.1235069E+00
         -4   -1    0    0    0  501 -0.00000000000E+00  0.00000000000E+00  0.49710318491E+01  0.51306975788E+01  0.12700000000E+01 0.  1.
          4   -1    0    0  501    0  0.00000000000E+00 -0.00000000000E+00 -0.77322802405E+03  0.77322906701E+03  0.12700000000E+01 0.  1.
         25    2    1    2    0    0  0.00000000000E+00  0.00000000000E+00 -0.76825699220E+03  0.77835976459E+03  0.12500046829E+03 0.  0.
    9000005    1    3    3    0    0 -0.22035354125E+02  0.28517507968E+02 -0.70203209997E+03  0.70295723517E+03  0.10000000000E+01 0.  0.
    9000005    1    3    3    0    0  0.22035354125E+02 -0.28517507968E+02 -0.66224892226E+02  0.75402529416E+02  0.10000000000E+01 0.  0.
<mgrwt>
<rscale>  0 0.12500047E+03</rscale>
<asrwt>0</asrwt>
<pdfrwt beam="2">  1        4 0.19332669E+00 0.12500047E+03</pdfrwt>
<pdfrwt beam="1">  1       -4 0.12628492E-02 0.12500047E+03</pdfrwt>
<totfact> 0.54423289E+02</totfact>
</mgrwt>
</event>
<event>
 5    1  0.1431256E-002  0.1250023E+03  0.7818608E-02  0.1235066E+00
          4   -1    0    0  501    0  0.00000000000E+00  0.00000000000E+00  0.17874696494E+03  0.17875147657E+03  0.12700000000E+01 0.  1.
         -4   -1    0    0    0  501 -0.00000000000E+00 -0.00000000000E+00 -0.21831089716E+02  0.21867998953E+02  0.12700000000E+01 0.  1.
         25    2    1    2    0    0  0.00000000000E+00  0.00000000000E+00  0.15691587523E+03  0.20061947553E+03  0.12500232822E+03 0.  0.
    9000005    1    3    3    0    0  0.58305492844E+02  0.93730280456E+01  0.45644703776E+02  0.74644645711E+02  0.10000000000E+01 0.  0.
    9000005    1    3    3    0    0 -0.58305492844E+02 -0.93730280456E+01  0.11127117145E+03  0.12597482981E+03  0.10000000000E+01 0.  0.
<mgrwt>
<rscale>  0 0.12500233E+03</rscale>
<asrwt>0</asrwt>
<pdfrwt beam="1">  1        4 0.44691917E-01 0.12500233E+03</pdfrwt>
<pdfrwt beam="2">  1       -4 0.54629502E-02 0.12500233E+03</pdfrwt>
<totfact> 0.16296389E+03</totfact>
</mgrwt>
</event>
<event>
 5    1  0.1431256E-002  0.1249991E+03  0.7818608E-02  0.1235071E+00
          4   -1    0    0  501    0  0.00000000000E+00  0.00000000000E+00  0.34778966762E+02  0.34802146903E+02  0.12700000000E+01 0.  1.
         -4   -1    0    0    0  501 -0.00000000000E+00 -0.00000000000E+00 -0.11225067607E+03  0.11225786021E+03  0.12700000000E+01 0.  1.
         25    2    1    2    0    0  0.00000000000E+00  0.00000000000E+00 -0.77471709308E+02  0.14706000711E+03  0.12499911979E+03 0.  0.
    9000005    1    3    3    0    0 -0.47272651390E+01 -0.51289416658E+02  0.28966034625E+01  0.51597883760E+02  0.10000000000E+01 0.  0.
    9000005    1    3    3    0    0  0.47272651390E+01  0.51289416658E+02 -0.80368312770E+02  0.95462123349E+02  0.10000000000E+01 0.  0.
<mgrwt>
<rscale>  0 0.12499912E+03</rscale>
<asrwt>0</asrwt>
<pdfrwt beam="1">  1        4 0.86985375E-02 0.12499912E+03</pdfrwt>
<pdfrwt beam="2">  1       -4 0.28066464E-01 0.12499912E+03</pdfrwt>
<totfact> 0.18684674E+03</totfact>
</mgrwt>
</event>
<event>
 5    1  0.1431256E-002  0.1249980E+03  0.7818608E-02  0.1235072E+00
          4   -1    0    0  501    0  0.00000000000E+00  0.00000000000E+00  0.70417714763E+02  0.70429166205E+02  0.12700000000E+01 0.  1.
         -4   -1    0    0    0  501 -0.00000000000E+00 -0.00000000000E+00 -0.55447574493E+02  0.55462116956E+02  0.12700000000E+01 0.  1.
         25    2    1    2    0    0  0.00000000000E+00  0.00000000000E+00  0.14970140269E+02  0.12589128316E+03  0.12499804029E+03 0.  0.
    9000005    1    3    3    0    0 -0.15194241294E+02  0.40042581012E+02  0.53316902782E+02  0.68395653260E+02  0.10000000000E+01 0.  0.
    9000005    1    3    3    0    0  0.15194241294E+02 -0.40042581012E+02 -0.38346762513E+02  0.57495629902E+02  0.10000000000E+01 0.  0.
<mgrwt>
<rscale>  0 0.12499804E+03</rscale>
<asrwt>0</asrwt>
<pdfrwt beam="1">  1        4 0.17607678E-01 0.12499804E+03</pdfrwt>
<pdfrwt beam="2">  1       -4 0.13865143E-01 0.12499804E+03</pdfrwt>
<totfact> 0.19787703E+03</totfact>
</mgrwt>
</event>
<event>
 5    1  0.1431256E-002  0.1250073E+03  0.7818608E-02  0.1235058E+00
         -4   -1    0    0    0  501 -0.00000000000E+00  0.00000000000E+00  0.62024064667E+02  0.62037065515E+02  0.12700000000E+01 0.  1.
          4   -1    0    0  501    0  0.00000000000E+00 -0.00000000000E+00 -0.62960960923E+02  0.62973768352E+02  0.12700000000E+01 0.  1.
         25    2    1    2    0    0  0.00000000000E+00  0.00000000000E+00 -0.93689625683E+00  0.12501083387E+03  0.12500732302E+03 0.  0.
    9000005    1    3    3    0    0  0.59662981854E+02  0.14721775565E+02 -0.11840030519E+02  0.62590641491E+02  0.10000000000E+01 0.  0.
    9000005    1    3    3    0    0 -0.59662981854E+02 -0.14721775565E+02  0.10903134262E+02  0.62420192376E+02  0.10000000000E+01 0.  0.
<mgrwt>
<rscale>  0 0.12500732E+03</rscale>
<asrwt>0</asrwt>
<pdfrwt beam="2">  1        4 0.15743466E-01 0.12500732E+03</pdfrwt>
<pdfrwt beam="1">  1       -4 0.15509242E-01 0.12500732E+03</pdfrwt>
<totfact> 0.19831070E+03</totfact>
</mgrwt>
</event>
<event>
 5    1  0.1431256E-002  0.1250025E+03  0.7818608E-02  0.1235065E+00
         -4   -1    0    0    0  501 -0.00000000000E+00  0.00000000000E+00  0.25311834462E+03  0.25312153066E+03  0.12700000000E+01 0. -1.
          4   -1    0    0  501    0  0.00000000000E+00 -0.00000000000E+00 -0.15403717222E+02  0.15455982798E+02  0.12700000000E+01 0. -1.
         25    2    1    2    0    0  0.00000000000E+00  0.00000000000E+00  0.23771462740E+03  0.26857751346E+03  0.12500254660E+03 0.  0.
    9000005    1    3    3    0    0  0.31885747658E+02 -0.65718722144E+00  0.23432757837E+03  0.23649005641E+03  0.10000000000E+01 0.  0.
    9000005    1    3    3    0    0 -0.31885747658E+02  0.65718722144E+00  0.33870490370E+01  0.32087457050E+02  0.10000000000E+01 0.  0.
<mgrwt>
<rscale>  0 0.12500255E+03</rscale>
<asrwt>0</asrwt>
<pdfrwt beam="2">  1        4 0.38578607E-02 0.12500255E+03</pdfrwt>
<pdfrwt beam="1">  1       -4 0.63286518E-01 0.12500255E+03</pdfrwt>
<totfact> 0.13898986E+03</totfact>
</mgrwt>
</event>
<event>
 4    1  0.1431256E-002  0.1249190E+03  0.7818608E-02  0.1235196E+00
         -4   -1    0    0    0  501 -0.00000000000E+00  0.00000000000E+00  0.24824303961E+02  0.24856769041E+02  0.12700000000E+01 0.  1.
          4   -1    0    0  501    0  0.00000000000E+00 -0.00000000000E+00 -0.15701418342E+03  0.15701931949E+03  0.12700000000E+01 0.  1.
    9000005    1    1    2    0    0  0.18131796974E+02 -0.22945586338E+02  0.14245744039E+02  0.32545402397E+02  0.10000000000E+01 0.  0.
    9000005    1    1    2    0    0 -0.18131796974E+02  0.22945586338E+02 -0.14643562349E+03  0.14933068614E+03  0.10000000000E+01 0.  0.
<mgrwt>
<rscale>  0 0.12491896E+03</rscale>
<asrwt>0</asrwt>
<pdfrwt beam="2">  1        4 0.39258243E-01 0.12491896E+03</pdfrwt>
<pdfrwt beam="1">  1       -4 0.62107766E-02 0.12491896E+03</pdfrwt>
<totfact> 0.17106428E+03</totfact>
</mgrwt>
</event>
<event>
 5    1  0.1431256E-002  0.1249986E+03  0.7818608E-02  0.1235071E+00
          4   -1    0    0  501    0  0.00000000000E+00  0.00000000000E+00  0.18705257622E+03  0.18705688753E+03  0.12700000000E+01 0.  1.
         -4   -1    0    0    0  501 -0.00000000000E+00 -0.00000000000E+00 -0.20858828994E+02  0.20897455515E+02  0.12700000000E+01 0.  1.
         25    2    1    2    0    0  0.00000000000E+00  0.00000000000E+00  0.16619374723E+03  0.20795434304E+03  0.12499858868E+03 0.  0.
    9000005    1    3    3    0    0  0.29690475674E+02 -0.50478012908E+02  0.11937854669E+03  0.13297289778E+03  0.10000000000E+01 0.  0.
    9000005    1    3    3    0    0 -0.29690475674E+02  0.50478012908E+02  0.46815200535E+02  0.74981445265E+02  0.10000000000E+01 0.  0.
<mgrwt>
<rscale>  0 0.12499859E+03</rscale>
<asrwt>0</asrwt>
<pdfrwt beam="1">  1        4 0.46768512E-01 0.12499859E+03</pdfrwt>
<pdfrwt beam="2">  1       -4 0.52200744E-02 0.12499859E+03</pdfrwt>
<totfact> 0.16008938E+03</totfact>
</mgrwt>
</event>
<event>
 5    1  0.1431256E-002  0.1249884E+03  0.7818608E-02  0.1235087E+00
         -4   -1    0    0    0  501 -0.00000000000E+00  0.00000000000E+00  0.27269007675E+02  0.27298565522E+02  0.12700000000E+01 0.  1.
          4   -1    0    0  501    0  0.00000000000E+00 -0.00000000000E+00 -0.14311222667E+03  0.14311786164E+03  0.12700000000E+01 0.  1.
         25    2    1    2    0    0  0.00000000000E+00  0.00000000000E+00 -0.11584321899E+03  0.17041642716E+03  0.12498842851E+03 0.  0.
    9000005    1    3    3    0    0  0.61107232120E+02  0.53260575029E+01 -0.41670354977E+02  0.74161170364E+02  0.10000000000E+01 0.  0.
    9000005    1    3    3    0    0 -0.61107232120E+02 -0.53260575029E+01 -0.74172864013E+02  0.96255256801E+02  0.10000000000E+01 0.  0.
<mgrwt>
<rscale>  0 0.12498843E+03</rscale>
<asrwt>0</asrwt>
<pdfrwt beam="2">  1        4 0.35782454E-01 0.12498843E+03</pdfrwt>
<pdfrwt beam="1">  1       -4 0.68216514E-02 0.12498843E+03</pdfrwt>
<totfact> 0.17583003E+03</totfact>
</mgrwt>
</event>
<event>
 5    1  0.1431256E-002  0.1249966E+03  0.7818608E-02  0.1235075E+00
         -4   -1    0    0    0  501 -0.00000000000E+00  0.00000000000E+00  0.56069040027E+02  0.56083421343E+02  0.12700000000E+01 0. -1.
          4   -1    0    0  501    0  0.00000000000E+00 -0.00000000000E+00 -0.69635645715E+02  0.69647225746E+02  0.12700000000E+01 0. -1.
         25    2    1    2    0    0  0.00000000000E+00  0.00000000000E+00 -0.13566605688E+02  0.12573064709E+03  0.12499657126E+03 0.  0.
    9000005    1    3    3    0    0  0.47201340681E+02  0.11852830695E+02 -0.46212739747E+02  0.67119844104E+02  0.10000000000E+01 0.  0.
    9000005    1    3    3    0    0 -0.47201340681E+02 -0.11852830695E+02  0.32646134059E+02  0.58610802985E+02  0.10000000000E+01 0.  0.
<mgrwt>
<rscale>  0 0.12499657E+03</rscale>
<asrwt>0</asrwt>
<pdfrwt beam="2">  1        4 0.17412157E-01 0.12499657E+03</pdfrwt>
<pdfrwt beam="1">  1       -4 0.14020505E-01 0.12499657E+03</pdfrwt>
<totfact> 0.19797070E+03</totfact>
</mgrwt>
</event>
<event>
 5    1  0.1431256E-002  0.1250003E+03  0.7818608E-02  0.1235069E+00
         -4   -1    0    0    0  501 -0.00000000000E+00  0.00000000000E+00  0.41049588479E+03  0.41049784936E+03  0.12700000000E+01 0.  1.
          4   -1    0    0  501    0  0.00000000000E+00 -0.00000000000E+00 -0.94716057834E+01  0.95563704468E+01  0.12700000000E+01 0.  1.
         25    2    1    2    0    0  0.00000000000E+00  0.00000000000E+00  0.40102427900E+03  0.42005421980E+03  0.12500030090E+03 0.  0.
    9000005    1    3    3    0    0  0.22335324026E+02 -0.10546923462E+02  0.76118655651E+01  0.25865900163E+02  0.10000000000E+01 0.  0.
    9000005    1    3    3    0    0 -0.22335324026E+02  0.10546923462E+02  0.39341241344E+03  0.39418831964E+03  0.10000000000E+01 0.  0.
<mgrwt>
<rscale>  0 0.12500030E+03</rscale>
<asrwt>0</asrwt>
<pdfrwt beam="2">  1        4 0.23787425E-02 0.12500030E+03</pdfrwt>
<pdfrwt beam="1">  1       -4 0.10263481E+00 0.12500030E+03</pdfrwt>
<totfact> 0.10164987E+03</totfact>
</mgrwt>
</event>
<event>
 5    1  0.1431256E-002  0.1249976E+03  0.7818608E-02  0.1235073E+00
         -4   -1    0    0    0  501 -0.00000000000E+00  0.00000000000E+00  0.43016116018E+02  0.43034859559E+02  0.12700000000E+01 0. -1.
          4   -1    0    0  501    0  0.00000000000E+00 -0.00000000000E+00 -0.90762528102E+02  0.90771412942E+02  0.12700000000E+01 0. -1.
         25    2    1    2    0    0  0.00000000000E+00  0.00000000000E+00 -0.47746412084E+02  0.13380627250E+03  0.12499759475E+03 0.  0.
    9000005    1    3    3    0    0  0.43796646161E+02  0.14043522786E+02  0.21413312006E+02  0.50743439756E+02  0.10000000000E+01 0.  0.
    9000005    1    3    3    0    0 -0.43796646161E+02 -0.14043522786E+02 -0.69159724091E+02  0.83062832744E+02  0.10000000000E+01 0.  0.
<mgrwt>
<rscale>  0 0.12499759E+03</rscale>
<asrwt>0</asrwt>
<pdfrwt beam="2">  1        4 0.22694085E-01 0.12499759E+03</pdfrwt>
<pdfrwt beam="1">  1       -4 0.10757483E-01 0.12499759E+03</pdfrwt>
<totfact> 0.19362934E+03</totfact>
</mgrwt>
</event>
<event>
 5    1  0.1431256E-002  0.1249983E+03  0.7818608E-02  0.1235072E+00
         -4   -1    0    0    0  501 -0.00000000000E+00  0.00000000000E+00  0.11884258995E+03  0.11884937563E+03  0.12700000000E+01 0. -1.
          4   -1    0    0  501    0  0.00000000000E+00 -0.00000000000E+00 -0.32848205977E+02  0.32872747617E+02  0.12700000000E+01 0. -1.
         25    2    1    2    0    0  0.00000000000E+00  0.00000000000E+00  0.85994383977E+02  0.15172212324E+03  0.12499827441E+03 0.  0.
    9000005    1    3    3    0    0  0.38671565167E+02 -0.20338949378E+02 -0.11230724006E+02  0.45125291976E+02  0.10000000000E+01 0.  0.
    9000005    1    3    3    0    0 -0.38671565167E+02  0.20338949378E+02  0.97225107983E+02  0.10659683127E+03  0.10000000000E+01 0.  0.
<mgrwt>
<rscale>  0 0.12499827E+03</rscale>
<asrwt>0</asrwt>
<pdfrwt beam="2">  1        4 0.82159674E-02 0.12499827E+03</pdfrwt>
<pdfrwt beam="1">  1       -4 0.29714563E-01 0.12499827E+03</pdfrwt>
<totfact> 0.18455168E+03</totfact>
</mgrwt>
</event>
<event>
 5    1  0.1431256E-002  0.1250174E+03  0.7818608E-02  0.1235042E+00
          4   -1    0    0  501    0  0.00000000000E+00  0.00000000000E+00  0.24943939609E+02  0.24976249182E+02  0.12700000000E+01 0. -1.
         -4   -1    0    0    0  501 -0.00000000000E+00 -0.00000000000E+00 -0.15650851393E+03  0.15651366660E+03  0.12700000000E+01 0. -1.
         25    2    1    2    0    0  0.00000000000E+00  0.00000000000E+00 -0.13156457432E+03  0.18148991578E+03  0.12501740804E+03 0.  0.
    9000005    1    3    3    0    0 -0.17945289154E+02 -0.18856777744E+02  0.16707017927E+02  0.30947308732E+02  0.10000000000E+01 0.  0.
    9000005    1    3    3    0    0  0.17945289154E+02  0.18856777744E+02 -0.14827159224E+03  0.15054260705E+03  0.10000000000E+01 0.  0.
<mgrwt>
<rscale>  0 0.12501741E+03</rscale>
<asrwt>0</asrwt>
<pdfrwt beam="1">  1        4 0.62406681E-02 0.12501741E+03</pdfrwt>
<pdfrwt beam="2">  1       -4 0.39131808E-01 0.12501741E+03</pdfrwt>
<totfact> 0.17084024E+03</totfact>
</mgrwt>
</event>
<event>
 5    1  0.1431256E-002  0.1250001E+03  0.7818608E-02  0.1235069E+00
         -4   -1    0    0    0  501 -0.00000000000E+00  0.00000000000E+00  0.43911840710E+01  0.45711483837E+01  0.12700000000E+01 0. -1.
          4   -1    0    0  501    0  0.00000000000E+00 -0.00000000000E+00 -0.87152540555E+03  0.87152633088E+03  0.12700000000E+01 0. -1.
         25    2    1    2    0    0  0.00000000000E+00  0.00000000000E+00 -0.86713422148E+03  0.87609747926E+03  0.12500014046E+03 0.  0.
    9000005    1    3    3    0    0  0.24986664218E+02 -0.31267102910E+02 -0.76993659269E+03  0.77097686209E+03  0.10000000000E+01 0.  0.
    9000005    1    3    3    0    0 -0.24986664218E+02  0.31267102910E+02 -0.97197628782E+02  0.10512061717E+03  0.10000000000E+01 0.  0.
<mgrwt>
<rscale>  0 0.12500014E+03</rscale>
<asrwt>0</asrwt>
<pdfrwt beam="2">  1        4 0.21790338E+00 0.12500014E+03</pdfrwt>
<pdfrwt beam="1">  1       -4 0.11204102E-02 0.12500014E+03</pdfrwt>
<totfact> 0.46130256E+02</totfact>
</mgrwt>
</event>
<event>
 5    1  0.1431256E-002  0.1250036E+03  0.7818608E-02  0.1235064E+00
         -4   -1    0    0    0  501 -0.00000000000E+00  0.00000000000E+00  0.31603223169E+03  0.31603478347E+03  0.12700000000E+01 0. -1.
          4   -1    0    0  501    0  0.00000000000E+00 -0.00000000000E+00 -0.12325775134E+02  0.12391030331E+02  0.12700000000E+01 0. -1.
         25    2    1    2    0    0  0.00000000000E+00  0.00000000000E+00  0.30370645655E+03  0.32842581380E+03  0.12500361363E+03 0.  0.
    9000005    1    3    3    0    0  0.30569487385E+02  0.41892076592E+02  0.60233716887E+02  0.79489246380E+02  0.10000000000E+01 0.  0.
    9000005    1    3    3    0    0 -0.30569487385E+02 -0.41892076592E+02  0.24347273967E+03  0.24893656742E+03  0.10000000000E+01 0.  0.
<mgrwt>
<rscale>  0 0.12500361E+03</rscale>
<asrwt>0</asrwt>
<pdfrwt beam="2">  1        4 0.30899196E-02 0.12500361E+03</pdfrwt>
<pdfrwt beam="1">  1       -4 0.79016535E-01 0.12500361E+03</pdfrwt>
<totfact> 0.12209165E+03</totfact>
</mgrwt>
</event>
<event>
 5    1  0.1431256E-002  0.1250015E+03  0.7818608E-02  0.1235067E+00
         -4   -1    0    0    0  501 -0.00000000000E+00  0.00000000000E+00  0.19076435148E+03  0.19076857890E+03  0.12700000000E+01 0.  1.
          4   -1    0    0  501    0  0.00000000000E+00 -0.00000000000E+00 -0.20453181616E+02  0.20492572757E+02  0.12700000000E+01 0.  1.
         25    2    1    2    0    0  0.00000000000E+00  0.00000000000E+00  0.17031116987E+03  0.21126115166E+03  0.12500151847E+03 0.  0.
    9000005    1    3    3    0    0 -0.27721544780E+02  0.45561754180E+02  0.30105312732E+02  0.61251019123E+02  0.10000000000E+01 0.  0.
    9000005    1    3    3    0    0  0.27721544780E+02 -0.45561754180E+02  0.14020585713E+03  0.15001013254E+03  0.10000000000E+01 0.  0.
<mgrwt>
<rscale>  0 0.12500152E+03</rscale>
<asrwt>0</asrwt>
<pdfrwt beam="2">  1        4 0.51187478E-02 0.12500152E+03</pdfrwt>
<pdfrwt beam="1">  1       -4 0.47696540E-01 0.12500152E+03</pdfrwt>
<totfact> 0.15880286E+03</totfact>
</mgrwt>
</event>
<event>
 5    1  0.1431256E-002  0.1250058E+03  0.7818608E-02  0.1235060E+00
         -4   -1    0    0    0  501 -0.00000000000E+00  0.00000000000E+00  0.23260696526E+02  0.23295340798E+02  0.12700000000E+01 0.  1.
          4   -1    0    0  501    0  0.00000000000E+00 -0.00000000000E+00 -0.16778692407E+03  0.16779173039E+03  0.12700000000E+01 0.  1.
         25    2    1    2    0    0  0.00000000000E+00  0.00000000000E+00 -0.14452622754E+03  0.19108707119E+03  0.12500575318E+03 0.  0.
    9000005    1    3    3    0    0  0.14130426215E+02 -0.57120613011E+02 -0.40082855844E+02  0.71204414950E+02  0.10000000000E+01 0.  0.
    9000005    1    3    3    0    0 -0.14130426215E+02  0.57120613011E+02 -0.10444337170E+03  0.11988265624E+03  0.10000000000E+01 0.  0.
<mgrwt>
<rscale>  0 0.12500575E+03</rscale>
<asrwt>0</asrwt>
<pdfrwt beam="2">  1        4 0.41951659E-01 0.12500575E+03</pdfrwt>
<pdfrwt beam="1">  1       -4 0.58201060E-02 0.12500575E+03</pdfrwt>
<totfact> 0.16683040E+03</totfact>
</mgrwt>
</event>
<event>
 5    1  0.1431256E-002  0.1250008E+03  0.7818608E-02  0.1235068E+00
          4   -1    0    0  501    0  0.00000000000E+00  0.00000000000E+00  0.23049687340E+03  0.23050037212E+03  0.12700000000E+01 0.  1.
         -4   -1    0    0    0  501 -0.00000000000E+00 -0.00000000000E+00 -0.16919880351E+02  0.16967476273E+02  0.12700000000E+01 0.  1.
         25    2    1    2    0    0  0.00000000000E+00  0.00000000000E+00  0.21357699305E+03  0.24746784839E+03  0.12500081611E+03 0.  0.
    9000005    1    3    3    0    0  0.37610060374E+02 -0.48984269765E+01  0.84616742085E+01  0.38873013243E+02  0.10000000000E+01 0.  0.
    9000005    1    3    3    0    0 -0.37610060374E+02  0.48984269765E+01  0.20511531884E+03  0.20859483515E+03  0.10000000000E+01 0.  0.
<mgrwt>
<rscale>  0 0.12500082E+03</rscale>
<asrwt>0</asrwt>
<pdfrwt beam="1">  1        4 0.57630605E-01 0.12500082E+03</pdfrwt>
<pdfrwt beam="2">  1       -4 0.42363569E-02 0.12500082E+03</pdfrwt>
<totfact> 0.14582320E+03</totfact>
</mgrwt>
</event>
<event>
 5    1  0.1431256E-002  0.1250008E+03  0.7818608E-02  0.1235068E+00
          4   -1    0    0  501    0  0.00000000000E+00  0.00000000000E+00  0.84729455896E+02  0.84738973303E+02  0.12700000000E+01 0.  1.
         -4   -1    0    0    0  501 -0.00000000000E+00 -0.00000000000E+00 -0.46082345488E+02  0.46099842361E+02  0.12700000000E+01 0.  1.
         25    2    1    2    0    0  0.00000000000E+00  0.00000000000E+00  0.38647110408E+02  0.13083881566E+03  0.12500078616E+03 0.  0.
    9000005    1    3    3    0    0  0.58375669755E+02  0.85855710326E+01  0.40873160587E+02  0.71784720558E+02  0.10000000000E+01 0.  0.
    9000005    1    3    3    0    0 -0.58375669755E+02 -0.85855710326E+01 -0.22260501790E+01  0.59054095105E+02  0.10000000000E+01 0.  0.
<mgrwt>
<rscale>  0 0.12500079E+03</rscale>
<asrwt>0</asrwt>
<pdfrwt beam="1">  1        4 0.21185741E-01 0.12500079E+03</pdfrwt>
<pdfrwt beam="2">  1       -4 0.11523963E-01 0.12500079E+03</pdfrwt>
<totfact> 0.19519036E+03</totfact>
</mgrwt>
</event>
<event>
 5    1  0.1431256E-002  0.1249991E+03  0.7818608E-02  0.1235071E+00
         -4   -1    0    0    0  501 -0.00000000000E+00  0.00000000000E+00  0.22892013231E+02  0.22927214610E+02  0.12700000000E+01 0. -1.
          4   -1    0    0  501    0  0.00000000000E+00 -0.00000000000E+00 -0.17046686784E+03  0.17047159860E+03  0.12700000000E+01 0. -1.
         25    2    1    2    0    0  0.00000000000E+00  0.00000000000E+00 -0.14757485461E+03  0.19339881321E+03  0.12499905296E+03 0.  0.
    9000005    1    3    3    0    0 -0.15793330981E+02  0.43560850676E+02 -0.89115978157E+01  0.47195270851E+02  0.10000000000E+01 0.  0.
    9000005    1    3    3    0    0  0.15793330981E+02 -0.43560850676E+02 -0.13866325679E+03  0.14620354236E+03  0.10000000000E+01 0.  0.
<mgrwt>
<rscale>  0 0.12499905E+03</rscale>
<asrwt>0</asrwt>
<pdfrwt beam="2">  1        4 0.42621705E-01 0.12499905E+03</pdfrwt>
<pdfrwt beam="1">  1       -4 0.57279953E-02 0.12499905E+03</pdfrwt>
<totfact> 0.16590184E+03</totfact>
</mgrwt>
</event>
<event>
 5    1  0.1431256E-002  0.1250076E+03  0.7818608E-02  0.1235057E+00
          4   -1    0    0  501    0  0.00000000000E+00  0.00000000000E+00  0.16085705568E+03  0.16086206906E+03  0.12700000000E+01 0.  1.
         -4   -1    0    0    0  501 -0.00000000000E+00 -0.00000000000E+00 -0.24264935686E+02  0.24298148157E+02  0.12700000000E+01 0.  1.
         25    2    1    2    0    0  0.00000000000E+00  0.00000000000E+00  0.13659212000E+03  0.18516021722E+03  0.12500759495E+03 0.  0.
    9000005    1    3    3    0    0  0.34714291696E+02  0.42133756997E+02  0.23237896285E+02  0.59340840493E+02  0.10000000000E+01 0.  0.
    9000005    1    3    3    0    0 -0.34714291696E+02 -0.42133756997E+02  0.11335422371E+03  0.12581937673E+03  0.10000000000E+01 0.  0.
<mgrwt>
<rscale>  0 0.12500759E+03</rscale>
<asrwt>0</asrwt>
<pdfrwt beam="1">  1        4 0.40219041E-01 0.12500759E+03</pdfrwt>
<pdfrwt beam="2">  1       -4 0.60710123E-02 0.12500759E+03</pdfrwt>
<totfact> 0.16931039E+03</totfact>
</mgrwt>
</event>
<event>
 5    1  0.1431256E-002  0.1250013E+03  0.7818608E-02  0.1235067E+00
          4   -1    0    0  501    0  0.00000000000E+00  0.00000000000E+00  0.33597052545E+02  0.33621047570E+02  0.12700000000E+01 0. -1.
         -4   -1    0    0    0  501 -0.00000000000E+00 -0.00000000000E+00 -0.11620109917E+03  0.11620803909E+03  0.12700000000E+01 0. -1.
         25    2    1    2    0    0  0.00000000000E+00  0.00000000000E+00 -0.82604046628E+02  0.14982908666E+03  0.12500130675E+03 0.  0.
    9000005    1    3    3    0    0 -0.49909222885E+02  0.22328583612E+02 -0.50284520723E+01  0.54916131559E+02  0.10000000000E+01 0.  0.
    9000005    1    3    3    0    0  0.49909222885E+02 -0.22328583612E+02 -0.77575594555E+02  0.94912955100E+02  0.10000000000E+01 0.  0.
<mgrwt>
<rscale>  0 0.12500131E+03</rscale>
<asrwt>0</asrwt>
<pdfrwt beam="1">  1        4 0.84031303E-02 0.12500131E+03</pdfrwt>
<pdfrwt beam="2">  1       -4 0.29054141E-01 0.12500131E+03</pdfrwt>
<totfact> 0.18546624E+03</totfact>
</mgrwt>
</event>
<event>
 5    1  0.1431256E-002  0.1250000E+03  0.7818608E-02  0.1235069E+00
         -4   -1    0    0    0  501 -0.00000000000E+00  0.00000000000E+00  0.57135072274E+02  0.57149185328E+02  0.12700000000E+01 0. -1.
          4   -1    0    0  501    0  0.00000000000E+00 -0.00000000000E+00 -0.68340273241E+02  0.68352072731E+02  0.12700000000E+01 0. -1.
         25    2    1    2    0    0  0.00000000000E+00  0.00000000000E+00 -0.11205200967E+02  0.12550125806E+03  0.12500003698E+03 0.  0.
    9000005    1    3    3    0    0 -0.53902846261E+02  0.61888237977E+01 -0.36733929519E+02  0.65530145376E+02  0.10000000000E+01 0.  0.
    9000005    1    3    3    0    0  0.53902846261E+02 -0.61888237977E+01  0.25528728552E+02  0.59971112684E+02  0.10000000000E+01 0.  0.
<mgrwt>
<rscale>  0 0.12500004E+03</rscale>
<asrwt>0</asrwt>
<pdfrwt beam="2">  1        4 0.17088307E-01 0.12500004E+03</pdfrwt>
<pdfrwt beam="1">  1       -4 0.14287007E-01 0.12500004E+03</pdfrwt>
<totfact> 0.19807878E+03</totfact>
</mgrwt>
</event>
<event>
 4    1  0.1431256E-002  0.1251079E+03  0.7818608E-02  0.1234901E+00
         -4   -1    0    0    0  501 -0.00000000000E+00  0.00000000000E+00  0.11834575090E+03  0.11835256506E+03  0.12700000000E+01 0. -1.
          4   -1    0    0  501    0  0.00000000000E+00 -0.00000000000E+00 -0.33044154434E+02  0.33068550652E+02  0.12700000000E+01 0. -1.
    9000005    1    1    2    0    0  0.60585787202E+02  0.15113565311E+02  0.38296908832E+02  0.73257837078E+02  0.10000000000E+01 0.  0.
    9000005    1    1    2    0    0 -0.60585787202E+02 -0.15113565311E+02  0.47004687636E+02  0.78163278635E+02  0.10000000000E+01 0.  0.
<mgrwt>
<rscale>  0 0.12510792E+03</rscale>
<asrwt>0</asrwt>
<pdfrwt beam="2">  1        4 0.82649400E-02 0.12510792E+03</pdfrwt>
<pdfrwt beam="1">  1       -4 0.29590339E-01 0.12510792E+03</pdfrwt>
<totfact> 0.18422824E+03</totfact>
</mgrwt>
</event>
<event>
 5    1  0.1431256E-002  0.1249991E+03  0.7818608E-02  0.1235071E+00
         -4   -1    0    0    0  501 -0.00000000000E+00  0.00000000000E+00  0.12890742137E+02  0.12953151464E+02  0.12700000000E+01 0. -1.
          4   -1    0    0  501    0  0.00000000000E+00 -0.00000000000E+00 -0.30222785825E+03  0.30223052659E+03  0.12700000000E+01 0. -1.
         25    2    1    2    0    0  0.00000000000E+00  0.00000000000E+00 -0.28933711611E+03  0.31518367805E+03  0.12499913660E+03 0.  0.
    9000005    1    3    3    0    0  0.26776723215E+02 -0.18931811637E+02 -0.10536131271E+02  0.34458909735E+02  0.10000000000E+01 0.  0.
    9000005    1    3    3    0    0 -0.26776723215E+02  0.18931811637E+02 -0.27880098484E+03  0.28072476832E+03  0.10000000000E+01 0.  0.
<mgrwt>
<rscale>  0 0.12499914E+03</rscale>
<asrwt>0</asrwt>
<pdfrwt beam="2">  1        4 0.75565076E-01 0.12499914E+03</pdfrwt>
<pdfrwt beam="1">  1       -4 0.32308212E-02 0.12499914E+03</pdfrwt>
<totfact> 0.12556178E+03</totfact>
</mgrwt>
</event>
<event>
 5    1  0.1431256E-002  0.1250028E+03  0.7818608E-02  0.1235065E+00
         -4   -1    0    0    0  501 -0.00000000000E+00  0.00000000000E+00  0.96032440324E+02  0.96040837640E+02  0.12700000000E+01 0. -1.
          4   -1    0    0  501    0  0.00000000000E+00 -0.00000000000E+00 -0.40658115725E+02  0.40677945797E+02  0.12700000000E+01 0. -1.
         25    2    1    2    0    0  0.00000000000E+00  0.00000000000E+00  0.55374324599E+02  0.13671878344E+03  0.12500283965E+03 0.  0.
    9000005    1    3    3    0    0 -0.48325432626E+02 -0.34710460178E+02  0.67840121931E+01  0.59893124026E+02  0.10000000000E+01 0.  0.
    9000005    1    3    3    0    0  0.48325432626E+02  0.34710460178E+02  0.48590312406E+02  0.76825659411E+02  0.10000000000E+01 0.  0.
<mgrwt>
<rscale>  0 0.12500284E+03</rscale>
<asrwt>0</asrwt>
<pdfrwt beam="2">  1        4 0.10168057E-01 0.12500284E+03</pdfrwt>
<pdfrwt beam="1">  1       -4 0.24011638E-01 0.12500284E+03</pdfrwt>
<totfact> 0.19208211E+03</totfact>
</mgrwt>
</event>
<event>
 5    1  0.1431256E-002  0.1250013E+03  0.7818608E-02  0.1235067E+00
         -4   -1    0    0    0  501 -0.00000000000E+00  0.00000000000E+00  0.17781849941E+03  0.17782303459E+03  0.12700000000E+01 0.  1.
          4   -1    0    0  501    0  0.00000000000E+00 -0.00000000000E+00 -0.21944912521E+02  0.21981630639E+02  0.12700000000E+01 0.  1.
         25    2    1    2    0    0  0.00000000000E+00  0.00000000000E+00  0.15587358689E+03  0.19980466523E+03  0.12500131663E+03 0.  0.
    9000005    1    3    3    0    0 -0.35072068745E+02  0.32527021398E+02  0.13655738523E+02  0.49754761799E+02  0.10000000000E+01 0.  0.
    9000005    1    3    3    0    0  0.35072068745E+02 -0.32527021398E+02  0.14221784836E+03  0.15004990343E+03  0.10000000000E+01 0.  0.
<mgrwt>
<rscale>  0 0.12500132E+03</rscale>
<asrwt>0</asrwt>
<pdfrwt beam="2">  1        4 0.54913849E-02 0.12500132E+03</pdfrwt>
<pdfrwt beam="1">  1       -4 0.44459781E-01 0.12500132E+03</pdfrwt>
<totfact> 0.16329368E+03</totfact>
</mgrwt>
</event>
<event>
 5    1  0.1431256E-002  0.1249982E+03  0.7818608E-02  0.1235072E+00
         -4   -1    0    0    0  501 -0.00000000000E+00  0.00000000000E+00  0.36526161978E+03  0.36526382764E+03  0.12700000000E+01 0. -1.
          4   -1    0    0  501    0  0.00000000000E+00 -0.00000000000E+00 -0.10654127693E+02  0.10729554366E+02  0.12700000000E+01 0. -1.
         25    2    1    2    0    0  0.00000000000E+00  0.00000000000E+00  0.35460749208E+03  0.37599338200E+03  0.12499819947E+03 0.  0.
    9000005    1    3    3    0    0 -0.33492635437E+02 -0.43333129639E+02  0.86782688841E+02  0.10262432380E+03  0.10000000000E+01 0.  0.
    9000005    1    3    3    0    0  0.33492635437E+02  0.43333129639E+02  0.26782480324E+03  0.27336905821E+03  0.10000000000E+01 0.  0.
<mgrwt>
<rscale>  0 0.12499820E+03</rscale>
<asrwt>0</asrwt>
<pdfrwt beam="2">  1        4 0.26732363E-02 0.12499820E+03</pdfrwt>
<pdfrwt beam="1">  1       -4 0.91325106E-01 0.12499820E+03</pdfrwt>
<totfact> 0.11081461E+03</totfact>
</mgrwt>
</event>
<event>
 5    1  0.1431256E-002  0.1250000E+03  0.7818608E-02  0.1235069E+00
         -4   -1    0    0    0  501 -0.00000000000E+00  0.00000000000E+00  0.14261517935E+03  0.14262083397E+03  0.12700000000E+01 0.  1.
          4   -1    0    0  501    0  0.00000000000E+00 -0.00000000000E+00 -0.27369207397E+02  0.27398657149E+02  0.12700000000E+01 0.  1.
         25    2    1    2    0    0  0.00000000000E+00  0.00000000000E+00  0.11524597195E+03  0.17001949112E+03  0.12499997323E+03 0.  0.
    9000005    1    3    3    0    0 -0.27259281924E+02  0.42139770056E+02  0.69780361324E+01  0.50680584641E+02  0.10000000000E+01 0.  0.
    9000005    1    3    3    0    0  0.27259281924E+02 -0.42139770056E+02  0.10826793582E+03  0.11933890647E+03  0.10000000000E+01 0.  0.
<mgrwt>
<rscale>  0 0.12499997E+03</rscale>
<asrwt>0</asrwt>
<pdfrwt beam="2">  1        4 0.68466899E-02 0.12499997E+03</pdfrwt>
<pdfrwt beam="1">  1       -4 0.35658183E-01 0.12499997E+03</pdfrwt>
<totfact> 0.17596179E+03</totfact>
</mgrwt>
</event>
<event>
 5    1  0.1431256E-002  0.1250021E+03  0.7818608E-02  0.1235066E+00
         -4   -1    0    0    0  501 -0.00000000000E+00  0.00000000000E+00  0.44074501746E+02  0.44092795377E+02  0.12700000000E+01 0. -1.
          4   -1    0    0  501    0  0.00000000000E+00 -0.00000000000E+00 -0.88590064761E+02  0.88599167459E+02  0.12700000000E+01 0. -1.
         25    2    1    2    0    0  0.00000000000E+00  0.00000000000E+00 -0.44515563016E+02  0.13269196284E+03  0.12500208658E+03 0.  0.
    9000005    1    3    3    0    0 -0.42085355328E+02  0.75149308080E+01 -0.70644014968E+02  0.82578618110E+02  0.10000000000E+01 0.  0.
    9000005    1    3    3    0    0  0.42085355328E+02 -0.75149308080E+01  0.26128451953E+02  0.50113344725E+02  0.10000000000E+01 0.  0.
<mgrwt>
<rscale>  0 0.12500209E+03</rscale>
<asrwt>0</asrwt>
<pdfrwt beam="2">  1        4 0.22150940E-01 0.12500209E+03</pdfrwt>
<pdfrwt beam="1">  1       -4 0.11022050E-01 0.12500209E+03</pdfrwt>
<totfact> 0.19419778E+03</totfact>
</mgrwt>
</event>
<event>
 5    1  0.1431256E-002  0.1250003E+03  0.7818608E-02  0.1235069E+00
          4   -1    0    0  501    0  0.00000000000E+00  0.00000000000E+00  0.18116272813E+03  0.18116717960E+03  0.12700000000E+01 0.  1.
         -4   -1    0    0    0  501 -0.00000000000E+00 -0.00000000000E+00 -0.21538805810E+02  0.21576215047E+02  0.12700000000E+01 0.  1.
         25    2    1    2    0    0  0.00000000000E+00  0.00000000000E+00  0.15962392232E+03  0.20274339464E+03  0.12500034998E+03 0.  0.
    9000005    1    3    3    0    0  0.20013508672E+02  0.27182095400E+02  0.16511234332E+03  0.16853039120E+03  0.10000000000E+01 0.  0.
    9000005    1    3    3    0    0 -0.20013508672E+02 -0.27182095400E+02 -0.54884210035E+01  0.34213003446E+02  0.10000000000E+01 0.  0.
<mgrwt>
<rscale>  0 0.12500035E+03</rscale>
<asrwt>0</asrwt>
<pdfrwt beam="1">  1        4 0.45295914E-01 0.12500035E+03</pdfrwt>
<pdfrwt beam="2">  1       -4 0.53899341E-02 0.12500035E+03</pdfrwt>
<totfact> 0.16212647E+03</totfact>
</mgrwt>
</event>
<event>
 5    1  0.1431256E-002  0.1250007E+03  0.7818608E-02  0.1235068E+00
          4   -1    0    0  501    0  0.00000000000E+00  0.00000000000E+00  0.24245976313E+03  0.24246308923E+03  0.12700000000E+01 0.  1.
         -4   -1    0    0    0  501 -0.00000000000E+00 -0.00000000000E+00 -0.16082637947E+02  0.16132704155E+02  0.12700000000E+01 0.  1.
         25    2    1    2    0    0  0.00000000000E+00  0.00000000000E+00  0.22637712519E+03  0.25859579338E+03  0.12500072619E+03 0.  0.
    9000005    1    3    3    0    0 -0.61909427193E+02 -0.82993190193E+01  0.10924189354E+03  0.12584294647E+03  0.10000000000E+01 0.  0.
    9000005    1    3    3    0    0  0.61909427193E+02  0.82993190193E+01  0.11713523165E+03  0.13275284692E+03  0.10000000000E+01 0.  0.
<mgrwt>
<rscale>  0 0.12500073E+03</rscale>
<asrwt>0</asrwt>
<pdfrwt beam="1">  1        4 0.60621613E-01 0.12500073E+03</pdfrwt>
<pdfrwt beam="2">  1       -4 0.40273336E-02 0.12500073E+03</pdfrwt>
<totfact> 0.14216116E+03</totfact>
</mgrwt>
</event>
<event>
 5    1  0.1431256E-002  0.1249923E+03  0.7818608E-02  0.1235081E+00
          4   -1    0    0  501    0  0.00000000000E+00  0.00000000000E+00  0.11188130503E+03  0.11188851289E+03  0.12700000000E+01 0. -1.
         -4   -1    0    0    0  501 -0.00000000000E+00 -0.00000000000E+00 -0.34890028874E+02  0.34913135276E+02  0.12700000000E+01 0. -1.
         25    2    1    2    0    0  0.00000000000E+00  0.00000000000E+00  0.76991276159E+02  0.14680164816E+03  0.12499226896E+03 0.  0.
    9000005    1    3    3    0    0 -0.45697107772E+02 -0.17490180537E+02 -0.71529674441E+01  0.49460054763E+02  0.10000000000E+01 0.  0.
    9000005    1    3    3    0    0  0.45697107772E+02  0.17490180537E+02  0.84144243603E+02  0.97341593399E+02  0.10000000000E+01 0.  0.
<mgrwt>
<rscale>  0 0.12499227E+03</rscale>
<asrwt>0</asrwt>
<pdfrwt beam="1">  1        4 0.27974115E-01 0.12499227E+03</pdfrwt>
<pdfrwt beam="2">  1       -4 0.87262965E-02 0.12499227E+03</pdfrwt>
<totfact> 0.18700536E+03</totfact>
</mgrwt>
</event>
<event>
 5    1  0.1431256E-002  0.1249959E+03  0.7818608E-02  0.1235076E+00
          4   -1    0    0  501    0  0.00000000000E+00  0.00000000000E+00  0.11849078418E+03  0.11849759000E+03  0.12700000000E+01 0. -1.
         -4   -1    0    0    0  501 -0.00000000000E+00 -0.00000000000E+00 -0.32944553611E+02  0.32969023531E+02  0.12700000000E+01 0. -1.
         25    2    1    2    0    0  0.00000000000E+00  0.00000000000E+00  0.85546230566E+02  0.15146661353E+03  0.12499590973E+03 0.  0.
    9000005    1    3    3    0    0  0.30310649450E+02  0.54567194329E+02  0.39202970219E+02  0.73716938630E+02  0.10000000000E+01 0.  0.
    9000005    1    3    3    0    0 -0.30310649450E+02 -0.54567194329E+02  0.46343260347E+02  0.77749674897E+02  0.10000000000E+01 0.  0.
<mgrwt>
<rscale>  0 0.12499591E+03</rscale>
<asrwt>0</asrwt>
<pdfrwt beam="1">  1        4 0.29626605E-01 0.12499591E+03</pdfrwt>
<pdfrwt beam="2">  1       -4 0.82400480E-02 0.12499591E+03</pdfrwt>
<totfact> 0.18468659E+03</totfact>
</mgrwt>
</event>
<event>
 5    1  0.1431256E-002  0.1249981E+03  0.7818608E-02  0.1235072E+00
         -4   -1    0    0    0  501 -0.00000000000E+00  0.00000000000E+00  0.31510144706E+01  0.33973213262E+01  0.12700000000E+01 0.  1.
          4   -1    0    0  501    0  0.00000000000E+00 -0.00000000000E+00 -0.11927675019E+04  0.11927681780E+04  0.12700000000E+01 0.  1.
         25    2    1    2    0    0  0.00000000000E+00  0.00000000000E+00 -0.11896164874E+04  0.11961654993E+04  0.12499805860E+03 0.  0.
    9000005    1    3    3    0    0 -0.17110451596E+02  0.35098734141E+02 -0.12791604083E+03  0.13374678387E+03  0.10000000000E+01 0.  0.
    9000005    1    3    3    0    0  0.17110451596E+02 -0.35098734141E+02 -0.10617004466E+04  0.10624187155E+04  0.10000000000E+01 0.  0.
<mgrwt>
<rscale>  0 0.12499806E+03</rscale>
<asrwt>0</asrwt>
<pdfrwt beam="2">  1        4 0.29822126E+00 0.12499806E+03</pdfrwt>
<pdfrwt beam="1">  1       -4 0.81863058E-03 0.12499806E+03</pdfrwt>
<totfact> 0.25405509E+02</totfact>
</mgrwt>
</event>
<event>
 5    1  0.1431256E-002  0.1249999E+03  0.7818608E-02  0.1235069E+00
          4   -1    0    0  501    0  0.00000000000E+00  0.00000000000E+00  0.25297354647E+02  0.25329213413E+02  0.12700000000E+01 0.  1.
         -4   -1    0    0    0  501 -0.00000000000E+00 -0.00000000000E+00 -0.15428149077E+03  0.15428671781E+03  0.12700000000E+01 0.  1.
         25    2    1    2    0    0  0.00000000000E+00  0.00000000000E+00 -0.12898413612E+03  0.17961593123E+03  0.12499990152E+03 0.  0.
    9000005    1    3    3    0    0 -0.87209287467E+01  0.35731588968E+02 -0.13708815169E+03  0.14193999571E+03  0.10000000000E+01 0.  0.
    9000005    1    3    3    0    0  0.87209287467E+01 -0.35731588968E+02  0.81040155716E+01  0.37675935513E+02  0.10000000000E+01 0.  0.
<mgrwt>
<rscale>  0 0.12499990E+03</rscale>
<asrwt>0</asrwt>
<pdfrwt beam="1">  1        4 0.63289748E-02 0.12499990E+03</pdfrwt>
<pdfrwt beam="2">  1       -4 0.38575006E-01 0.12499990E+03</pdfrwt>
<totfact> 0.17171890E+03</totfact>
</mgrwt>
</event>
<event>
 5    1  0.1431256E-002  0.1250070E+03  0.7818608E-02  0.1235058E+00
         -4   -1    0    0    0  501 -0.00000000000E+00  0.00000000000E+00  0.19576105254E+02  0.19617257630E+02  0.12700000000E+01 0.  1.
          4   -1    0    0  501    0  0.00000000000E+00 -0.00000000000E+00 -0.19931151267E+03  0.19931555881E+03  0.12700000000E+01 0.  1.
         25    2    1    2    0    0  0.00000000000E+00  0.00000000000E+00 -0.17973540742E+03  0.21893281644E+03  0.12500704554E+03 0.  0.
    9000005    1    3    3    0    0 -0.25067504327E+02  0.57068824309E+02 -0.81945830504E+02  0.10296285553E+03  0.10000000000E+01 0.  0.
    9000005    1    3    3    0    0  0.25067504327E+02 -0.57068824309E+02 -0.97789576917E+02  0.11596996092E+03  0.10000000000E+01 0.  0.
<mgrwt>
<rscale>  0 0.12500705E+03</rscale>
<asrwt>0</asrwt>
<pdfrwt beam="2">  1        4 0.49833522E-01 0.12500705E+03</pdfrwt>
<pdfrwt beam="1">  1       -4 0.48996767E-02 0.12500705E+03</pdfrwt>
<totfact> 0.15588464E+03</totfact>
</mgrwt>
</event>
<event>
 4    1  0.1431256E-002  0.1253074E+03  0.7818608E-02  0.1234590E+00
         -4   -1    0    0    0  501 -0.00000000000E+00  0.00000000000E+00  0.42371069777E+01  0.44233443841E+01  0.12700000000E+01 0. -1.
          4   -1    0    0  501    0  0.00000000000E+00 -0.00000000000E+00 -0.90634552883E+03  0.90634641861E+03  0.12700000000E+01 0. -1.
    9000005    1    1    2    0    0 -0.23289714252E+02  0.51162073064E+01 -0.30001563161E+02  0.38336407751E+02  0.10000000000E+01 0.  0.
    9000005    1    1    2    0    0  0.23289714252E+02 -0.51162073064E+01 -0.87210685869E+03  0.87243335524E+03  0.10000000000E+01 0.  0.
<mgrwt>
<rscale>  0 0.12530745E+03</rscale>
<asrwt>0</asrwt>
<pdfrwt beam="2">  1        4 0.22660912E+00 0.12530745E+03</pdfrwt>
<pdfrwt beam="1">  1       -4 0.10826707E-02 0.12530745E+03</pdfrwt>
<totfact> 0.43158365E+02</totfact>
</mgrwt>
</event>
<event>
 5    1  0.1431256E-002  0.1249992E+03  0.7818608E-02  0.1235071E+00
         -4   -1    0    0    0  501 -0.00000000000E+00  0.00000000000E+00  0.18058437931E+03  0.18058884503E+03  0.12700000000E+01 0. -1.
          4   -1    0    0  501    0  0.00000000000E+00 -0.00000000000E+00 -0.21607499268E+02  0.21644789780E+02  0.12700000000E+01 0. -1.
         25    2    1    2    0    0  0.00000000000E+00  0.00000000000E+00  0.15897688004E+03  0.20223363481E+03  0.12499917865E+03 0.  0.
    9000005    1    3    3    0    0 -0.20757359927E+02 -0.51831708769E+02  0.34078022429E+02  0.65419459167E+02  0.10000000000E+01 0.  0.
    9000005    1    3    3    0    0  0.20757359927E+02  0.51831708769E+02  0.12489885761E+03  0.13681417564E+03  0.10000000000E+01 0.  0.
<mgrwt>
<rscale>  0 0.12499918E+03</rscale>
<asrwt>0</asrwt>
<pdfrwt beam="2">  1        4 0.54070944E-02 0.12499918E+03</pdfrwt>
<pdfrwt beam="1">  1       -4 0.45151314E-01 0.12499918E+03</pdfrwt>
<totfact> 0.16233300E+03</totfact>
</mgrwt>
</event>
<event>
 5    1  0.1431256E-002  0.1249714E+03  0.7818608E-02  0.1235114E+00
          4   -1    0    0  501    0  0.00000000000E+00  0.00000000000E+00  0.38924674478E+01  0.40944111704E+01  0.12700000000E+01 0. -1.
         -4   -1    0    0    0  501 -0.00000000000E+00 -0.00000000000E+00 -0.97751710587E+03  0.97751793087E+03  0.12700000000E+01 0. -1.
         25    2    1    2    0    0  0.00000000000E+00  0.00000000000E+00 -0.97362463843E+03  0.98161234204E+03  0.12497141073E+03 0.  0.
    9000005    1    3    3    0    0  0.95092466052E+01 -0.61744384964E+02 -0.49323460365E+03  0.49717619521E+03  0.10000000000E+01 0.  0.
    9000005    1    3    3    0    0 -0.95092466052E+01  0.61744384964E+02 -0.48039003478E+03  0.48443614683E+03  0.10000000000E+01 0.  0.
<mgrwt>
<rscale>  0 0.12497141E+03</rscale>
<asrwt>0</asrwt>
<pdfrwt beam="1">  1        4 0.99846630E-03 0.12497141E+03</pdfrwt>
<pdfrwt beam="2">  1       -4 0.24440380E+00 0.12497141E+03</pdfrwt>
<totfact> 0.38384714E+02</totfact>
</mgrwt>
</event>
<event>
 5    1  0.1431256E-002  0.1249995E+03  0.7818608E-02  0.1235070E+00
          4   -1    0    0  501    0  0.00000000000E+00  0.00000000000E+00  0.18792577766E+03  0.18793006894E+03  0.12700000000E+01 0. -1.
         -4   -1    0    0    0  501 -0.00000000000E+00 -0.00000000000E+00 -0.20762038640E+02  0.20800844899E+02  0.12700000000E+01 0. -1.
         25    2    1    2    0    0  0.00000000000E+00  0.00000000000E+00  0.16716373902E+03  0.20873091384E+03  0.12499951498E+03 0.  0.
    9000005    1    3    3    0    0  0.20120855053E+02  0.57029907739E+02  0.57287079924E+02  0.83307074796E+02  0.10000000000E+01 0.  0.
    9000005    1    3    3    0    0 -0.20120855053E+02 -0.57029907739E+02  0.10987665910E+03  0.12542383904E+03  0.10000000000E+01 0.  0.
<mgrwt>
<rscale>  0 0.12499951E+03</rscale>
<asrwt>0</asrwt>
<pdfrwt beam="1">  1        4 0.46986831E-01 0.12499951E+03</pdfrwt>
<pdfrwt beam="2">  1       -4 0.51958970E-02 0.12499951E+03</pdfrwt>
<totfact> 0.15978490E+03</totfact>
</mgrwt>
</event>
<event>
 5    1  0.1431256E-002  0.1250026E+03  0.7818608E-02  0.1235065E+00
          4   -1    0    0  501    0  0.00000000000E+00  0.00000000000E+00  0.40844095242E+03  0.40844292688E+03  0.12700000000E+01 0. -1.
         -4   -1    0    0    0  501 -0.00000000000E+00 -0.00000000000E+00 -0.95200364433E+01  0.96043736851E+01  0.12700000000E+01 0. -1.
         25    2    1    2    0    0  0.00000000000E+00  0.00000000000E+00  0.39892091598E+03  0.41804730056E+03  0.12500259318E+03 0.  0.
    9000005    1    3    3    0    0 -0.55051838428E+02 -0.29442997226E+02  0.20881082271E+03  0.21794621969E+03  0.10000000000E+01 0.  0.
    9000005    1    3    3    0    0  0.55051838428E+02  0.29442997226E+02  0.19011009327E+03  0.20010108087E+03  0.10000000000E+01 0.  0.
<mgrwt>
<rscale>  0 0.12500259E+03</rscale>
<asrwt>0</asrwt>
<pdfrwt beam="1">  1        4 0.10212102E+00 0.12500259E+03</pdfrwt>
<pdfrwt beam="2">  1       -4 0.23907982E-02 0.12500259E+03</pdfrwt>
<totfact> 0.10204090E+03</totfact>
</mgrwt>
</event>
<event>
 5    1  0.1431256E-002  0.1250032E+03  0.7818608E-02  0.1235064E+00
         -4   -1    0    0    0  501 -0.00000000000E+00  0.00000000000E+00  0.60119532381E+02  0.60132944994E+02  0.12700000000E+01 0. -1.
          4   -1    0    0  501    0  0.00000000000E+00 -0.00000000000E+00 -0.64951168477E+02  0.64963583541E+02  0.12700000000E+01 0. -1.
         25    2    1    2    0    0  0.00000000000E+00  0.00000000000E+00 -0.48316360960E+01  0.12509652854E+03  0.12500318694E+03 0.  0.
    9000005    1    3    3    0    0 -0.51234575443E+02  0.26247753864E+02 -0.26755222491E+02  0.63488331482E+02  0.10000000000E+01 0.  0.
    9000005    1    3    3    0    0  0.51234575443E+02 -0.26247753864E+02  0.21923586395E+02  0.61608197054E+02  0.10000000000E+01 0.  0.
<mgrwt>
<rscale>  0 0.12500319E+03</rscale>
<asrwt>0</asrwt>
<pdfrwt beam="2">  1        4 0.16241021E-01 0.12500319E+03</pdfrwt>
<pdfrwt beam="1">  1       -4 0.15033112E-01 0.12500319E+03</pdfrwt>
<totfact> 0.19828343E+03</totfact>
</mgrwt>
</event>
<event>
 5    1  0.1431256E-002  0.1250002E+03  0.7818608E-02  0.1235069E+00
          4   -1    0    0  501    0  0.00000000000E+00  0.00000000000E+00  0.18733367401E+02  0.18776366906E+02  0.12700000000E+01 0. -1.
         -4   -1    0    0    0  501 -0.00000000000E+00 -0.00000000000E+00 -0.20823506634E+03  0.20823893909E+03  0.12700000000E+01 0. -1.
         25    2    1    2    0    0  0.00000000000E+00  0.00000000000E+00 -0.18950169894E+03  0.22701530600E+03  0.12500022102E+03 0.  0.
    9000005    1    3    3    0    0 -0.81101662161E+01 -0.48856052516E+02 -0.16396799157E+03  0.17128686734E+03  0.10000000000E+01 0.  0.
    9000005    1    3    3    0    0  0.81101662161E+01  0.48856052516E+02 -0.25533707375E+02  0.55728438662E+02  0.10000000000E+01 0.  0.
<mgrwt>
<rscale>  0 0.12500022E+03</rscale>
<asrwt>0</asrwt>
<pdfrwt beam="1">  1        4 0.46892015E-02 0.12500022E+03</pdfrwt>
<pdfrwt beam="2">  1       -4 0.52064618E-01 0.12500022E+03</pdfrwt>
<totfact> 0.15294474E+03</totfact>
</mgrwt>
</event>
<event>
 5    1  0.1431256E-002  0.1249966E+03  0.7818608E-02  0.1235075E+00
         -4   -1    0    0    0  501 -0.00000000000E+00  0.00000000000E+00  0.12437486659E+03  0.12438135044E+03  0.12700000000E+01 0.  1.
          4   -1    0    0  501    0  0.00000000000E+00 -0.00000000000E+00 -0.31385236975E+02  0.31410921667E+02  0.12700000000E+01 0.  1.
         25    2    1    2    0    0  0.00000000000E+00  0.00000000000E+00  0.92989629611E+02  0.15579227211E+03  0.12499664329E+03 0.  0.
    9000005    1    3    3    0    0 -0.61294994932E+02 -0.53304375546E+01  0.60122521811E+02  0.86030271400E+02  0.10000000000E+01 0.  0.
    9000005    1    3    3    0    0  0.61294994932E+02  0.53304375546E+01  0.32867107801E+02  0.69762000712E+02  0.10000000000E+01 0.  0.
<mgrwt>
<rscale>  0 0.12499664E+03</rscale>
<asrwt>0</asrwt>
<pdfrwt beam="2">  1        4 0.78503304E-02 0.12499664E+03</pdfrwt>
<pdfrwt beam="1">  1       -4 0.31097737E-01 0.12499664E+03</pdfrwt>
<totfact> 0.18259018E+03</totfact>
</mgrwt>
</event>
<event>
 5    1  0.1431256E-002  0.1250040E+03  0.7818608E-02  0.1235063E+00
          4   -1    0    0  501    0  0.00000000000E+00  0.00000000000E+00  0.61422511311E+03  0.61422642607E+03  0.12700000000E+01 0.  1.
         -4   -1    0    0    0  501 -0.00000000000E+00 -0.00000000000E+00 -0.62953086598E+01  0.64221344678E+01  0.12700000000E+01 0.  1.
         25    2    1    2    0    0  0.00000000000E+00  0.00000000000E+00  0.60792980445E+03  0.62064856054E+03  0.12500395414E+03 0.  0.
    9000005    1    3    3    0    0 -0.17471023722E+02 -0.59789669007E+02  0.32901541605E+03  0.33486144177E+03  0.10000000000E+01 0.  0.
    9000005    1    3    3    0    0  0.17471023722E+02  0.59789669007E+02  0.27891438841E+03  0.28578711876E+03  0.10000000000E+01 0.  0.
<mgrwt>
<rscale>  0 0.12500395E+03</rscale>
<asrwt>0</asrwt>
<pdfrwt beam="1">  1        4 0.15357231E+00 0.12500395E+03</pdfrwt>
<pdfrwt beam="2">  1       -4 0.15898443E-02 0.12500395E+03</pdfrwt>
<totfact> 0.70957726E+02</totfact>
</mgrwt>
</event>
<event>
 5    1  0.1431256E-002  0.1250045E+03  0.7818608E-02  0.1235062E+00
          4   -1    0    0  501    0  0.00000000000E+00  0.00000000000E+00  0.18821561981E+02  0.18864360456E+02  0.12700000000E+01 0.  1.
         -4   -1    0    0    0  501 -0.00000000000E+00 -0.00000000000E+00 -0.20727564493E+03  0.20727953560E+03  0.12700000000E+01 0.  1.
         25    2    1    2    0    0  0.00000000000E+00  0.00000000000E+00 -0.18845408294E+03  0.22614389606E+03  0.12500448130E+03 0.  0.
    9000005    1    3    3    0    0 -0.22378066778E+02 -0.50019097013E+02 -0.39868824820E+02  0.67773233147E+02  0.10000000000E+01 0.  0.
    9000005    1    3    3    0    0  0.22378066778E+02  0.50019097013E+02 -0.14858525812E+03  0.15837066291E+03  0.10000000000E+01 0.  0.
<mgrwt>
<rscale>  0 0.12500448E+03</rscale>
<asrwt>0</asrwt>
<pdfrwt beam="1">  1        4 0.47112273E-02 0.12500448E+03</pdfrwt>
<pdfrwt beam="2">  1       -4 0.51824740E-01 0.12500448E+03</pdfrwt>
<totfact> 0.15324502E+03</totfact>
</mgrwt>
</event>
<event>
 5    1  0.1431256E-002  0.1250034E+03  0.7818608E-02  0.1235064E+00
          4   -1    0    0  501    0  0.00000000000E+00  0.00000000000E+00  0.51785343208E+02  0.51800913806E+02  0.12700000000E+01 0.  1.
         -4   -1    0    0    0  501 -0.00000000000E+00 -0.00000000000E+00 -0.75403374538E+02  0.75414068924E+02  0.12700000000E+01 0.  1.
         25    2    1    2    0    0  0.00000000000E+00  0.00000000000E+00 -0.23618031331E+02  0.12721498273E+03  0.12500336166E+03 0.  0.
    9000005    1    3    3    0    0 -0.48533526723E+02  0.37150187105E+02  0.14530634377E+01  0.61145326980E+02  0.10000000000E+01 0.  0.
    9000005    1    3    3    0    0  0.48533526723E+02 -0.37150187105E+02 -0.25071094768E+02  0.66069655751E+02  0.10000000000E+01 0.  0.
<mgrwt>
<rscale>  0 0.12500336E+03</rscale>
<asrwt>0</asrwt>
<pdfrwt beam="1">  1        4 0.12949619E-01 0.12500336E+03</pdfrwt>
<pdfrwt beam="2">  1       -4 0.18854127E-01 0.12500336E+03</pdfrwt>
<totfact> 0.19713787E+03</totfact>
</mgrwt>
</event>
<event>
 5    1  0.1431256E-002  0.1249990E+03  0.7818608E-02  0.1235071E+00
          4   -1    0    0  501    0  0.00000000000E+00  0.00000000000E+00  0.68911145230E+02  0.68922846988E+02  0.12700000000E+01 0.  1.
         -4   -1    0    0    0  501 -0.00000000000E+00 -0.00000000000E+00 -0.56660818115E+02  0.56675049268E+02  0.12700000000E+01 0.  1.
         25    2    1    2    0    0  0.00000000000E+00  0.00000000000E+00  0.12250327115E+02  0.12559789626E+03  0.12499904411E+03 0.  0.
    9000005    1    3    3    0    0 -0.16423010911E+02  0.23013879955E+02 -0.49871861368E+02  0.57337217532E+02  0.10000000000E+01 0.  0.
    9000005    1    3    3    0    0  0.16423010911E+02 -0.23013879955E+02  0.62122188483E+02  0.68260678724E+02  0.10000000000E+01 0.  0.
<mgrwt>
<rscale>  0 0.12499904E+03</rscale>
<asrwt>0</asrwt>
<pdfrwt beam="1">  1        4 0.17231028E-01 0.12499904E+03</pdfrwt>
<pdfrwt beam="2">  1       -4 0.14168446E-01 0.12499904E+03</pdfrwt>
<totfact> 0.19803108E+03</totfact>
</mgrwt>
</event>
<event>
 5    1  0.1431256E-002  0.1249975E+03  0.7818608E-02  0.1235073E+00
          4   -1    0    0  501    0  0.00000000000E+00  0.00000000000E+00  0.24257512156E+02  0.24290734777E+02  0.12700000000E+01 0.  1.
         -4   -1    0    0    0  501 -0.00000000000E+00 -0.00000000000E+00 -0.16088028813E+03  0.16088530078E+03  0.12700000000E+01 0.  1.
         25    2    1    2    0    0  0.00000000000E+00  0.00000000000E+00 -0.13662277597E+03  0.18517603556E+03  0.12499752490E+03 0.  0.
    9000005    1    3    3    0    0 -0.16505369952E+02 -0.23769117984E+02  0.13740694216E+02  0.32050037200E+02  0.10000000000E+01 0.  0.
    9000005    1    3    3    0    0  0.16505369952E+02  0.23769117984E+02 -0.15036347019E+03  0.15312599836E+03  0.10000000000E+01 0.  0.
<mgrwt>
<rscale>  0 0.12499752E+03</rscale>
<asrwt>0</asrwt>
<pdfrwt beam="1">  1        4 0.60691579E-02 0.12499752E+03</pdfrwt>
<pdfrwt beam="2">  1       -4 0.40224848E-01 0.12499752E+03</pdfrwt>
<totfact> 0.16934317E+03</totfact>
</mgrwt>
</event>
<event>
 5    1  0.1431256E-002  0.1249959E+03  0.7818608E-02  0.1235076E+00
          4   -1    0    0  501    0  0.00000000000E+00  0.00000000000E+00  0.20073273294E+03  0.20073675043E+03  0.12700000000E+01 0.  1.
         -4   -1    0    0    0  501 -0.00000000000E+00 -0.00000000000E+00 -0.19433734487E+02  0.19475187704E+02  0.12700000000E+01 0.  1.
         25    2    1    2    0    0  0.00000000000E+00  0.00000000000E+00  0.18129899845E+03  0.22021193813E+03  0.12499588336E+03 0.  0.
    9000005    1    3    3    0    0  0.27482879345E+02 -0.52361546928E+02  0.12623310282E+03  0.13940170910E+03  0.10000000000E+01 0.  0.
    9000005    1    3    3    0    0 -0.27482879345E+02  0.52361546928E+02  0.55065895632E+02  0.80810229028E+02  0.10000000000E+01 0.  0.
<mgrwt>
<rscale>  0 0.12499588E+03</rscale>
<asrwt>0</asrwt>
<pdfrwt beam="1">  1        4 0.50188866E-01 0.12499588E+03</pdfrwt>
<pdfrwt beam="2">  1       -4 0.48641176E-02 0.12499588E+03</pdfrwt>
<totfact> 0.15544960E+03</totfact>
</mgrwt>
</event>
<event>
 5    1  0.1431256E-002  0.1249987E+03  0.7818608E-02  0.1235071E+00
          4   -1    0    0  501    0  0.00000000000E+00  0.00000000000E+00  0.22317659150E+02  0.22353765006E+02  0.12700000000E+01 0. -1.
         -4   -1    0    0    0  501 -0.00000000000E+00 -0.00000000000E+00 -0.17484605631E+03  0.17485066859E+03  0.12700000000E+01 0. -1.
         25    2    1    2    0    0  0.00000000000E+00  0.00000000000E+00 -0.15252839716E+03  0.19720443360E+03  0.12499870676E+03 0.  0.
    9000005    1    3    3    0    0  0.33746452506E+01 -0.20493237759E+01  0.22128433130E+02  0.22500122473E+02  0.10000000000E+01 0.  0.
    9000005    1    3    3    0    0 -0.33746452506E+01  0.20493237759E+01 -0.17465683029E+03  0.17470431113E+03  0.10000000000E+01 0.  0.
<mgrwt>
<rscale>  0 0.12499871E+03</rscale>
<asrwt>0</asrwt>
<pdfrwt beam="1">  1        4 0.55845051E-02 0.12499871E+03</pdfrwt>
<pdfrwt beam="2">  1       -4 0.43716600E-01 0.12499871E+03</pdfrwt>
<totfact> 0.16435087E+03</totfact>
</mgrwt>
</event>
<event>
 5    1  0.1431256E-002  0.1250004E+03  0.7818608E-02  0.1235069E+00
          4   -1    0    0  501    0  0.00000000000E+00  0.00000000000E+00  0.21005040695E+02  0.21043398837E+02  0.12700000000E+01 0. -1.
         -4   -1    0    0    0  501 -0.00000000000E+00 -0.00000000000E+00 -0.18575828797E+03  0.18576262932E+03  0.12700000000E+01 0. -1.
         25    2    1    2    0    0  0.00000000000E+00  0.00000000000E+00 -0.16475324728E+03  0.20680602815E+03  0.12500040317E+03 0.  0.
    9000005    1    3    3    0    0  0.25435091863E+02 -0.20670290641E+02  0.56526489936E+01  0.33273972620E+02  0.10000000000E+01 0.  0.
    9000005    1    3    3    0    0 -0.25435091863E+02  0.20670290641E+02 -0.17040589627E+03  0.17353205553E+03  0.10000000000E+01 0.  0.
<mgrwt>
<rscale>  0 0.12500040E+03</rscale>
<asrwt>0</asrwt>
<pdfrwt beam="1">  1        4 0.52565982E-02 0.12500040E+03</pdfrwt>
<pdfrwt beam="2">  1       -4 0.46444904E-01 0.12500040E+03</pdfrwt>
<totfact> 0.16052948E+03</totfact>
</mgrwt>
</event>
<event>
 5    1  0.1431256E-002  0.1250016E+03  0.7818608E-02  0.1235067E+00
         -4   -1    0    0    0  501 -0.00000000000E+00  0.00000000000E+00  0.49410334791E+02  0.49426653580E+02  0.12700000000E+01 0.  1.
          4   -1    0    0  501    0  0.00000000000E+00 -0.00000000000E+00 -0.79024856675E+02  0.79035061033E+02  0.12700000000E+01 0.  1.
         25    2    1    2    0    0  0.00000000000E+00  0.00000000000E+00 -0.29614521885E+02  0.12846171461E+03  0.12500156885E+03 0.  0.
    9000005    1    3    3    0    0 -0.17164009237E+02  0.73990235567E+01  0.46475607297E+02  0.50103201857E+02  0.10000000000E+01 0.  0.
    9000005    1    3    3    0    0  0.17164009237E+02 -0.73990235567E+01 -0.76090129181E+02  0.78358512757E+02  0.10000000000E+01 0.  0.
<mgrwt>
<rscale>  0 0.12500157E+03</rscale>
<asrwt>0</asrwt>
<pdfrwt beam="2">  1        4 0.19759529E-01 0.12500157E+03</pdfrwt>
<pdfrwt beam="1">  1       -4 0.12355899E-01 0.12500157E+03</pdfrwt>
<totfact> 0.19646730E+03</totfact>
</mgrwt>
</event>
<event>
 5    1  0.1431256E-002  0.1249928E+03  0.7818608E-02  0.1235080E+00
         -4   -1    0    0    0  501 -0.00000000000E+00  0.00000000000E+00  0.29313876350E+02  0.29341374314E+02  0.12700000000E+01 0. -1.
          4   -1    0    0  501    0  0.00000000000E+00 -0.00000000000E+00 -0.13314776682E+03  0.13315382349E+03  0.12700000000E+01 0. -1.
         25    2    1    2    0    0  0.00000000000E+00  0.00000000000E+00 -0.10383389047E+03  0.16249519780E+03  0.12499284979E+03 0.  0.
    9000005    1    3    3    0    0  0.20316394111E+02  0.23176235580E+02  0.18751810171E+02  0.36090499442E+02  0.10000000000E+01 0.  0.
    9000005    1    3    3    0    0 -0.20316394111E+02 -0.23176235580E+02 -0.12258570064E+03  0.12640469836E+03  0.10000000000E+01 0.  0.
<mgrwt>
<rscale>  0 0.12499285E+03</rscale>
<asrwt>0</asrwt>
<pdfrwt beam="2">  1        4 0.33291134E-01 0.12499285E+03</pdfrwt>
<pdfrwt beam="1">  1       -4 0.73326638E-02 0.12499285E+03</pdfrwt>
<totfact> 0.17943936E+03</totfact>
</mgrwt>
</event>
<event>
 5    1  0.1431256E-002  0.1249967E+03  0.7818608E-02  0.1235075E+00
          4   -1    0    0  501    0  0.00000000000E+00  0.00000000000E+00  0.82650994711E+02  0.82660751428E+02  0.12700000000E+01 0. -1.
         -4   -1    0    0    0  501 -0.00000000000E+00 -0.00000000000E+00 -0.47238373270E+02  0.47255442112E+02  0.12700000000E+01 0. -1.
         25    2    1    2    0    0  0.00000000000E+00  0.00000000000E+00  0.35412621441E+02  0.12991619354E+03  0.12499665430E+03 0.  0.
    9000005    1    3    3    0    0 -0.20714324759E+02 -0.58148906568E+02  0.75939290848E+01  0.62201658693E+02  0.10000000000E+01 0.  0.
    9000005    1    3    3    0    0  0.20714324759E+02  0.58148906568E+02  0.27818692356E+02  0.67714534848E+02  0.10000000000E+01 0.  0.
<mgrwt>
<rscale>  0 0.12499665E+03</rscale>
<asrwt>0</asrwt>
<pdfrwt beam="1">  1        4 0.20666102E-01 0.12499665E+03</pdfrwt>
<pdfrwt beam="2">  1       -4 0.11812947E-01 0.12499665E+03</pdfrwt>
<totfact> 0.19570417E+03</totfact>
</mgrwt>
</event>
<event>
 5    1  0.1431256E-002  0.1250102E+03  0.7818608E-02  0.1235053E+00
          4   -1    0    0  501    0  0.00000000000E+00  0.00000000000E+00  0.52632899028E+01  0.54143439678E+01  0.12700000000E+01 0.  1.
         -4   -1    0    0    0  501 -0.00000000000E+00 -0.00000000000E+00 -0.73163766440E+03  0.73163876665E+03  0.12700000000E+01 0.  1.
         25    2    1    2    0    0  0.00000000000E+00  0.00000000000E+00 -0.72637437450E+03  0.73705311062E+03  0.12501022338E+03 0.  0.
    9000005    1    3    3    0    0  0.25585933697E+02 -0.49768661217E+02 -0.52725225085E+03  0.53021457512E+03  0.10000000000E+01 0.  0.
    9000005    1    3    3    0    0 -0.25585933697E+02  0.49768661217E+02 -0.19912212365E+03  0.20683853551E+03  0.10000000000E+01 0.  0.
<mgrwt>
<rscale>  0 0.12501022E+03</rscale>
<asrwt>0</asrwt>
<pdfrwt beam="1">  1        4 0.13348445E-02 0.12501022E+03</pdfrwt>
<pdfrwt beam="2">  1       -4 0.18292809E+00 0.12501022E+03</pdfrwt>
<totfact> 0.58307720E+02</totfact>
</mgrwt>
</event>
<event>
 5    1  0.1431256E-002  0.1249997E+03  0.7818608E-02  0.1235070E+00
         -4   -1    0    0    0  501 -0.00000000000E+00  0.00000000000E+00  0.40748737500E+03  0.40748935408E+03  0.12700000000E+01 0. -1.
          4   -1    0    0  501    0  0.00000000000E+00 -0.00000000000E+00 -0.95420621702E+01  0.96262064418E+01  0.12700000000E+01 0. -1.
         25    2    1    2    0    0  0.00000000000E+00  0.00000000000E+00  0.39794531283E+03  0.41711556052E+03  0.12499967529E+03 0.  0.
    9000005    1    3    3    0    0 -0.20358416594E+02 -0.89984955653E+01  0.39382760000E+03  0.39445736978E+03  0.10000000000E+01 0.  0.
    9000005    1    3    3    0    0  0.20358416594E+02  0.89984955653E+01  0.41177128291E+01  0.22658190740E+02  0.10000000000E+01 0.  0.
<mgrwt>
<rscale>  0 0.12499968E+03</rscale>
<asrwt>0</asrwt>
<pdfrwt beam="2">  1        4 0.23962811E-02 0.12499968E+03</pdfrwt>
<pdfrwt beam="1">  1       -4 0.10188260E+00 0.12499968E+03</pdfrwt>
<totfact> 0.10223250E+03</totfact>
</mgrwt>
</event>
<event>
 5    1  0.1431256E-002  0.1249737E+03  0.7818608E-02  0.1235110E+00
          4   -1    0    0  501    0  0.00000000000E+00  0.00000000000E+00  0.61768563333E+02  0.61781617947E+02  0.12700000000E+01 0. -1.
         -4   -1    0    0    0  501 -0.00000000000E+00 -0.00000000000E+00 -0.63187420651E+02  0.63200182187E+02  0.12700000000E+01 0. -1.
         25    2    1    2    0    0  0.00000000000E+00  0.00000000000E+00 -0.14188573178E+01  0.12498180013E+03  0.12497374608E+03 0.  0.
    9000005    1    3    3    0    0 -0.27868112978E+01  0.57031356272E+02 -0.26073779654E+02  0.62778849152E+02  0.10000000000E+01 0.  0.
    9000005    1    3    3    0    0  0.27868112978E+01 -0.57031356272E+02  0.24654922336E+02  0.62202950982E+02  0.10000000000E+01 0.  0.
<mgrwt>
<rscale>  0 0.12497375E+03</rscale>
<asrwt>0</asrwt>
<pdfrwt beam="1">  1        4 0.15445368E-01 0.12497375E+03</pdfrwt>
<pdfrwt beam="2">  1       -4 0.15800082E-01 0.12497375E+03</pdfrwt>
<totfact> 0.19848233E+03</totfact>
</mgrwt>
</event>
<event>
 5    1  0.1431256E-002  0.1250073E+03  0.7818608E-02  0.1235058E+00
         -4   -1    0    0    0  501 -0.00000000000E+00  0.00000000000E+00  0.18003953965E+02  0.18048691320E+02  0.12700000000E+01 0. -1.
          4   -1    0    0  501    0  0.00000000000E+00 -0.00000000000E+00 -0.21667564850E+03  0.21667937040E+03  0.12700000000E+01 0. -1.
         25    2    1    2    0    0  0.00000000000E+00  0.00000000000E+00 -0.19867169454E+03  0.23472806172E+03  0.12500728277E+03 0.  0.
    9000005    1    3    3    0    0 -0.21751465412E+00 -0.59045844355E+02 -0.60888690124E+02  0.84822707061E+02  0.10000000000E+01 0.  0.
    9000005    1    3    3    0    0  0.21751465412E+00  0.59045844355E+02 -0.13778300442E+03  0.14990535465E+03  0.10000000000E+01 0.  0.
<mgrwt>
<rscale>  0 0.12500728E+03</rscale>
<asrwt>0</asrwt>
<pdfrwt beam="2">  1        4 0.54174961E-01 0.12500728E+03</pdfrwt>
<pdfrwt beam="1">  1       -4 0.45070466E-02 0.12500728E+03</pdfrwt>
<totfact> 0.15017307E+03</totfact>
</mgrwt>
</event>
<event>
 5    1  0.1431256E-002  0.1250030E+03  0.7818608E-02  0.1235065E+00
          4   -1    0    0  501    0  0.00000000000E+00  0.00000000000E+00  0.46896143390E+02  0.46913336749E+02  0.12700000000E+01 0. -1.
         -4   -1    0    0    0  501 -0.00000000000E+00 -0.00000000000E+00 -0.83262410730E+02  0.83272095810E+02  0.12700000000E+01 0. -1.
         25    2    1    2    0    0  0.00000000000E+00  0.00000000000E+00 -0.36366267340E+02  0.13018543256E+03  0.12500296577E+03 0.  0.
    9000005    1    3    3    0    0 -0.38474945317E+02  0.25477597279E+02 -0.62073002770E+02  0.77353002871E+02  0.10000000000E+01 0.  0.
    9000005    1    3    3    0    0  0.38474945317E+02 -0.25477597279E+02  0.25706735430E+02  0.52832429688E+02  0.10000000000E+01 0.  0.
<mgrwt>
<rscale>  0 0.12500297E+03</rscale>
<asrwt>0</asrwt>
<pdfrwt beam="1">  1        4 0.11727396E-01 0.12500297E+03</pdfrwt>
<pdfrwt beam="2">  1       -4 0.20818962E-01 0.12500297E+03</pdfrwt>
<totfact> 0.19553065E+03</totfact>
</mgrwt>
</event>
<event>
 5    1  0.1431256E-002  0.1249925E+03  0.7818608E-02  0.1235081E+00
         -4   -1    0    0    0  501 -0.00000000000E+00  0.00000000000E+00  0.10122290074E+03  0.10123086749E+03  0.12700000000E+01 0. -1.
          4   -1    0    0  501    0  0.00000000000E+00 -0.00000000000E+00 -0.38565991687E+02  0.38586896932E+02  0.12700000000E+01 0. -1.
         25    2    1    2    0    0  0.00000000000E+00  0.00000000000E+00  0.62656909050E+02  0.13981776443E+03  0.12499247576E+03 0.  0.
    9000005    1    3    3    0    0  0.40436812786E+02 -0.50607257582E+00 -0.21959965339E+02  0.46028599972E+02  0.10000000000E+01 0.  0.
    9000005    1    3    3    0    0 -0.40436812786E+02  0.50607257582E+00  0.84616874388E+02  0.93789164454E+02  0.10000000000E+01 0.  0.
<mgrwt>
<rscale>  0 0.12499248E+03</rscale>
<asrwt>0</asrwt>
<pdfrwt beam="2">  1        4 0.96451070E-02 0.12499248E+03</pdfrwt>
<pdfrwt beam="1">  1       -4 0.25309334E-01 0.12499248E+03</pdfrwt>
<totfact> 0.19053012E+03</totfact>
</mgrwt>
</event>
<event>
 5    1  0.1431256E-002  0.1249996E+03  0.7818608E-02  0.1235070E+00
          4   -1    0    0  501    0  0.00000000000E+00  0.00000000000E+00  0.13190620467E+03  0.13191231834E+03  0.12700000000E+01 0.  1.
         -4   -1    0    0    0  501 -0.00000000000E+00 -0.00000000000E+00 -0.29593227374E+02  0.29620466006E+02  0.12700000000E+01 0.  1.
         25    2    1    2    0    0  0.00000000000E+00  0.00000000000E+00  0.10231297729E+03  0.16153278435E+03  0.12499958038E+03 0.  0.
    9000005    1    3    3    0    0  0.61807175002E+01  0.62174941392E+02  0.52629427732E+02  0.81699334571E+02  0.10000000000E+01 0.  0.
    9000005    1    3    3    0    0 -0.61807175002E+01 -0.62174941392E+02  0.49683549561E+02  0.79833449775E+02  0.10000000000E+01 0.  0.
<mgrwt>
<rscale>  0 0.12499958E+03</rscale>
<asrwt>0</asrwt>
<pdfrwt beam="1">  1        4 0.32980720E-01 0.12499958E+03</pdfrwt>
<pdfrwt beam="2">  1       -4 0.74024760E-02 0.12499958E+03</pdfrwt>
<totfact> 0.17986032E+03</totfact>
</mgrwt>
</event>
<event>
 5    1  0.1431256E-002  0.1250011E+03  0.7818608E-02  0.1235068E+00
          4   -1    0    0  501    0  0.00000000000E+00  0.00000000000E+00  0.33236766666E+02  0.33261021608E+02  0.12700000000E+01 0.  1.
         -4   -1    0    0    0  501 -0.00000000000E+00 -0.00000000000E+00 -0.11745951866E+03  0.11746638423E+03  0.12700000000E+01 0.  1.
         25    2    1    2    0    0  0.00000000000E+00  0.00000000000E+00 -0.84222751995E+02  0.15072740584E+03  0.12500111566E+03 0.  0.
    9000005    1    3    3    0    0  0.25025569731E+02 -0.50577751828E+02 -0.97352136525E+01  0.57272702967E+02  0.10000000000E+01 0.  0.
    9000005    1    3    3    0    0 -0.25025569731E+02  0.50577751828E+02 -0.74487538343E+02  0.93454702871E+02  0.10000000000E+01 0.  0.
<mgrwt>
<rscale>  0 0.12500112E+03</rscale>
<asrwt>0</asrwt>
<pdfrwt beam="1">  1        4 0.83130820E-02 0.12500112E+03</pdfrwt>
<pdfrwt beam="2">  1       -4 0.29368769E-01 0.12500112E+03</pdfrwt>
<totfact> 0.18502592E+03</totfact>
</mgrwt>
</event>
<event>
 5    1  0.1431256E-002  0.1250024E+03  0.7818608E-02  0.1235065E+00
         -4   -1    0    0    0  501 -0.00000000000E+00  0.00000000000E+00  0.86746131051E+02  0.86755427221E+02  0.12700000000E+01 0.  1.
          4   -1    0    0  501    0  0.00000000000E+00 -0.00000000000E+00 -0.45011917796E+02  0.45029830597E+02  0.12700000000E+01 0.  1.
         25    2    1    2    0    0  0.00000000000E+00  0.00000000000E+00  0.41734213256E+02  0.13178525782E+03  0.12500243847E+03 0.  0.
    9000005    1    3    3    0    0  0.32473776623E+02  0.46861683083E+02  0.47845468724E+02  0.74436230338E+02  0.10000000000E+01 0.  0.
    9000005    1    3    3    0    0 -0.32473776623E+02 -0.46861683083E+02 -0.61112554687E+01  0.57349027480E+02  0.10000000000E+01 0.  0.
<mgrwt>
<rscale>  0 0.12500244E+03</rscale>
<asrwt>0</asrwt>
<pdfrwt beam="2">  1        4 0.11256381E-01 0.12500244E+03</pdfrwt>
<pdfrwt beam="1">  1       -4 0.21689934E-01 0.12500244E+03</pdfrwt>
<totfact> 0.19467773E+03</totfact>
</mgrwt>
</event>
<event>
 5    1  0.1431256E-002  0.1249799E+03  0.7818608E-02  0.1235101E+00
         -4   -1    0    0    0  501 -0.00000000000E+00  0.00000000000E+00  0.65746190402E+03  0.65746313063E+03  0.12700000000E+01 0.  1.
          4   -1    0    0  501    0  0.00000000000E+00 -0.00000000000E+00 -0.58703609554E+01  0.60061666433E+01  0.12700000000E+01 0.  1.
         25    2    1    2    0    0  0.00000000000E+00  0.00000000000E+00  0.65159154307E+03  0.66346929728E+03  0.12497987610E+03 0.  0.
    9000005    1    3    3    0    0 -0.32415388113E+02  0.52541246953E+02  0.27469717922E+03  0.28155084849E+03  0.10000000000E+01 0.  0.
    9000005    1    3    3    0    0  0.32415388113E+02 -0.52541246953E+02  0.37689436385E+03  0.38191844878E+03  0.10000000000E+01 0.  0.
<mgrwt>
<rscale>  0 0.12497988E+03</rscale>
<asrwt>0</asrwt>
<pdfrwt beam="2">  1        4 0.14847195E-02 0.12497988E+03</pdfrwt>
<pdfrwt beam="1">  1       -4 0.16438258E+00 0.12497988E+03</pdfrwt>
<totfact> 0.66020656E+02</totfact>
</mgrwt>
</event>
<event>
 5    1  0.1431256E-002  0.1250150E+03  0.7818608E-02  0.1235046E+00
          4   -1    0    0  501    0  0.00000000000E+00  0.00000000000E+00  0.55933356394E+02  0.55947772587E+02  0.12700000000E+01 0.  1.
         -4   -1    0    0    0  501 -0.00000000000E+00 -0.00000000000E+00 -0.69825140825E+02  0.69836689435E+02  0.12700000000E+01 0.  1.
         25    2    1    2    0    0  0.00000000000E+00  0.00000000000E+00 -0.13891784431E+02  0.12578446202E+03  0.12501499595E+03 0.  0.
    9000005    1    3    3    0    0 -0.31852207158E+02  0.52759818770E+02  0.35116224197E+01  0.61737290753E+02  0.10000000000E+01 0.  0.
    9000005    1    3    3    0    0  0.31852207158E+02 -0.52759818770E+02 -0.17403406851E+02  0.64047171269E+02  0.10000000000E+01 0.  0.
<mgrwt>
<rscale>  0 0.12501500E+03</rscale>
<asrwt>0</asrwt>
<pdfrwt beam="1">  1        4 0.13986585E-01 0.12501500E+03</pdfrwt>
<pdfrwt beam="2">  1       -4 0.17459531E-01 0.12501500E+03</pdfrwt>
<totfact> 0.19785630E+03</totfact>
</mgrwt>
</event>
<event>
 5    1  0.1431256E-002  0.1249982E+03  0.7818608E-02  0.1235072E+00
          4   -1    0    0  501    0  0.00000000000E+00  0.00000000000E+00  0.16149043512E+02  0.16198904480E+02  0.12700000000E+01 0. -1.
         -4   -1    0    0    0  501 -0.00000000000E+00 -0.00000000000E+00 -0.24145591561E+03  0.24145925554E+03  0.12700000000E+01 0. -1.
         25    2    1    2    0    0  0.00000000000E+00  0.00000000000E+00 -0.22530687210E+03  0.25765816002E+03  0.12499816322E+03 0.  0.
    9000005    1    3    3    0    0  0.20269932622E+02 -0.53790286314E+02 -0.16318125801E+03  0.17301268172E+03  0.10000000000E+01 0.  0.
    9000005    1    3    3    0    0 -0.20269932622E+02  0.53790286314E+02 -0.62125614097E+02  0.84645478303E+02  0.10000000000E+01 0.  0.
<mgrwt>
<rscale>  0 0.12499816E+03</rscale>
<asrwt>0</asrwt>
<pdfrwt beam="1">  1        4 0.40439118E-02 0.12499816E+03</pdfrwt>
<pdfrwt beam="2">  1       -4 0.60370618E-01 0.12499816E+03</pdfrwt>
<totfact> 0.14247263E+03</totfact>
</mgrwt>
</event>
<event>
 5    1  0.1431256E-002  0.1249973E+03  0.7818608E-02  0.1235074E+00
          4   -1    0    0  501    0  0.00000000000E+00  0.00000000000E+00  0.80109148866E+01  0.81109590876E+01  0.12700000000E+01 0. -1.
         -4   -1    0    0    0  501 -0.00000000000E+00 -0.00000000000E+00 -0.48446803157E+03  0.48446969617E+03  0.12700000000E+01 0. -1.
         25    2    1    2    0    0  0.00000000000E+00  0.00000000000E+00 -0.47645711668E+03  0.49258065526E+03  0.12499727158E+03 0.  0.
    9000005    1    3    3    0    0 -0.50240126765E+02 -0.21289341200E+02 -0.35826074129E+03  0.36239352249E+03  0.10000000000E+01 0.  0.
    9000005    1    3    3    0    0  0.50240126765E+02  0.21289341200E+02 -0.11819637538E+03  0.13018713277E+03  0.10000000000E+01 0.  0.
<mgrwt>
<rscale>  0 0.12499727E+03</rscale>
<asrwt>0</asrwt>
<pdfrwt beam="1">  1        4 0.20154440E-02 0.12499727E+03</pdfrwt>
<pdfrwt beam="2">  1       -4 0.12112962E+00 0.12499727E+03</pdfrwt>
<totfact> 0.88804415E+02</totfact>
</mgrwt>
</event>
<event>
 5    1  0.1431256E-002  0.1249999E+03  0.7818608E-02  0.1235069E+00
          4   -1    0    0  501    0  0.00000000000E+00  0.00000000000E+00  0.61435814169E+02  0.61448939475E+02  0.12700000000E+01 0.  1.
         -4   -1    0    0    0  501 -0.00000000000E+00 -0.00000000000E+00 -0.63556243170E+02  0.63568930665E+02  0.12700000000E+01 0.  1.
         25    2    1    2    0    0  0.00000000000E+00  0.00000000000E+00 -0.21204290015E+01  0.12501787014E+03  0.12499988654E+03 0.  0.
    9000005    1    3    3    0    0 -0.60620748835E+02 -0.71908138155E+00  0.14102792553E+02  0.62251755197E+02  0.10000000000E+01 0.  0.
    9000005    1    3    3    0    0  0.60620748835E+02  0.71908138155E+00 -0.16223221554E+02  0.62766114942E+02  0.10000000000E+01 0.  0.
<mgrwt>
<rscale>  0 0.12499989E+03</rscale>
<asrwt>0</asrwt>
<pdfrwt beam="1">  1        4 0.15362180E-01 0.12499989E+03</pdfrwt>
<pdfrwt beam="2">  1       -4 0.15892287E-01 0.12499989E+03</pdfrwt>
<totfact> 0.19834139E+03</totfact>
</mgrwt>
</event>
<event>
 5    1  0.1431256E-002  0.1249967E+03  0.7818608E-02  0.1235074E+00
         -4   -1    0    0    0  501 -0.00000000000E+00  0.00000000000E+00  0.69967744755E+02  0.69979269831E+02  0.12700000000E+01 0.  1.
          4   -1    0    0  501    0  0.00000000000E+00 -0.00000000000E+00 -0.55803029748E+02  0.55817479601E+02  0.12700000000E+01 0.  1.
         25    2    1    2    0    0  0.00000000000E+00  0.00000000000E+00  0.14164715007E+02  0.12579674943E+03  0.12499673202E+03 0.  0.
    9000005    1    3    3    0    0  0.14306642589E+02  0.57134610420E+02  0.28096661626E+02  0.65264585531E+02  0.10000000000E+01 0.  0.
    9000005    1    3    3    0    0 -0.14306642589E+02 -0.57134610420E+02 -0.13931946619E+02  0.60532163901E+02  0.10000000000E+01 0.  0.
<mgrwt>
<rscale>  0 0.12499673E+03</rscale>
<asrwt>0</asrwt>
<pdfrwt beam="2">  1        4 0.13954004E-01 0.12499673E+03</pdfrwt>
<pdfrwt beam="1">  1       -4 0.17495183E-01 0.12499673E+03</pdfrwt>
<totfact> 0.19793421E+03</totfact>
</mgrwt>
</event>
<event>
 5    1  0.1431256E-002  0.1250008E+03  0.7818608E-02  0.1235068E+00
         -4   -1    0    0    0  501 -0.00000000000E+00  0.00000000000E+00  0.47093695010E+02  0.47110816271E+02  0.12700000000E+01 0. -1.
          4   -1    0    0  501    0  0.00000000000E+00 -0.00000000000E+00 -0.82910413868E+02  0.82920140061E+02  0.12700000000E+01 0. -1.
         25    2    1    2    0    0  0.00000000000E+00  0.00000000000E+00 -0.35816718858E+02  0.13003095633E+03  0.12500084902E+03 0.  0.
    9000005    1    3    3    0    0 -0.57755292185E+02  0.23453409051E+02 -0.13306909289E+02  0.63748019627E+02  0.10000000000E+01 0.  0.
    9000005    1    3    3    0    0  0.57755292185E+02 -0.23453409051E+02 -0.22509809569E+02  0.66282936706E+02  0.10000000000E+01 0.  0.
<mgrwt>
<rscale>  0 0.12500085E+03</rscale>
<asrwt>0</asrwt>
<pdfrwt beam="2">  1        4 0.20730959E-01 0.12500085E+03</pdfrwt>
<pdfrwt beam="1">  1       -4 0.11776780E-01 0.12500085E+03</pdfrwt>
<totfact> 0.19562331E+03</totfact>
</mgrwt>
</event>
<event>
 5    1  0.1431256E-002  0.1249981E+03  0.7818608E-02  0.1235072E+00
         -4   -1    0    0    0  501 -0.00000000000E+00  0.00000000000E+00  0.85368941376E+02  0.85378387498E+02  0.12700000000E+01 0. -1.
          4   -1    0    0  501    0  0.00000000000E+00 -0.00000000000E+00 -0.45735101569E+02  0.45752731236E+02  0.12700000000E+01 0. -1.
         25    2    1    2    0    0  0.00000000000E+00  0.00000000000E+00  0.39633839808E+02  0.13113111873E+03  0.12499811616E+03 0.  0.
    9000005    1    3    3    0    0 -0.32161834404E+02  0.53279602793E+02  0.13879491886E+02  0.63770996236E+02  0.10000000000E+01 0.  0.
    9000005    1    3    3    0    0  0.32161834404E+02 -0.53279602793E+02  0.25754347922E+02  0.67360122497E+02  0.10000000000E+01 0.  0.
<mgrwt>
<rscale>  0 0.12499812E+03</rscale>
<asrwt>0</asrwt>
<pdfrwt beam="2">  1        4 0.11437160E-01 0.12499812E+03</pdfrwt>
<pdfrwt beam="1">  1       -4 0.21345620E-01 0.12499812E+03</pdfrwt>
<totfact> 0.19504624E+03</totfact>
</mgrwt>
</event>
<event>
 5    1  0.1431256E-002  0.1249982E+03  0.7818608E-02  0.1235072E+00
         -4   -1    0    0    0  501 -0.00000000000E+00  0.00000000000E+00  0.41448275383E+02  0.41467727599E+02  0.12700000000E+01 0.  1.
          4   -1    0    0  501    0  0.00000000000E+00 -0.00000000000E+00 -0.94195408501E+02  0.94203969570E+02  0.12700000000E+01 0.  1.
         25    2    1    2    0    0  0.00000000000E+00  0.00000000000E+00 -0.52747133118E+02  0.13567169717E+03  0.12499819743E+03 0.  0.
    9000005    1    3    3    0    0 -0.47054497280E+02 -0.26205159460E+02 -0.60770324314E+02  0.81208795175E+02  0.10000000000E+01 0.  0.
    9000005    1    3    3    0    0  0.47054497280E+02  0.26205159460E+02  0.80231911952E+01  0.54462901994E+02  0.10000000000E+01 0.  0.
<mgrwt>
<rscale>  0 0.12499820E+03</rscale>
<asrwt>0</asrwt>
<pdfrwt beam="2">  1        4 0.23552353E-01 0.12499820E+03</pdfrwt>
<pdfrwt beam="1">  1       -4 0.10365571E-01 0.12499820E+03</pdfrwt>
<totfact> 0.19264822E+03</totfact>
</mgrwt>
</event>
<event>
 5    1  0.1431256E-002  0.1249965E+03  0.7818608E-02  0.1235075E+00
         -4   -1    0    0    0  501 -0.00000000000E+00  0.00000000000E+00  0.44589041460E+02  0.44607124076E+02  0.12700000000E+01 0. -1.
          4   -1    0    0  501    0  0.00000000000E+00 -0.00000000000E+00 -0.87560280302E+02  0.87569490044E+02  0.12700000000E+01 0. -1.
         25    2    1    2    0    0  0.00000000000E+00  0.00000000000E+00 -0.42971238842E+02  0.13217661412E+03  0.12499651976E+03 0.  0.
    9000005    1    3    3    0    0  0.38440075419E+02 -0.39579296116E+02  0.95404025573E+01  0.56001601408E+02  0.10000000000E+01 0.  0.
    9000005    1    3    3    0    0 -0.38440075419E+02  0.39579296116E+02 -0.52511641399E+02  0.76175012712E+02  0.10000000000E+01 0.  0.
<mgrwt>
<rscale>  0 0.12499652E+03</rscale>
<asrwt>0</asrwt>
<pdfrwt beam="2">  1        4 0.21893481E-01 0.12499652E+03</pdfrwt>
<pdfrwt beam="1">  1       -4 0.11150672E-01 0.12499652E+03</pdfrwt>
<totfact> 0.19449647E+03</totfact>
</mgrwt>
</event>
<event>
 5    1  0.1431256E-002  0.1249984E+03  0.7818608E-02  0.1235072E+00
          4   -1    0    0  501    0  0.00000000000E+00  0.00000000000E+00  0.65068639277E+03  0.65068763215E+03  0.12700000000E+01 0.  1.
         -4   -1    0    0    0  501 -0.00000000000E+00 -0.00000000000E+00 -0.59346986017E+01  0.60690647956E+01  0.12700000000E+01 0.  1.
         25    2    1    2    0    0  0.00000000000E+00  0.00000000000E+00  0.64475169417E+03  0.65675669695E+03  0.12499844740E+03 0.  0.
    9000005    1    3    3    0    0  0.22897312496E+02 -0.32015000204E+02  0.57739855475E+03  0.57873943894E+03  0.10000000000E+01 0.  0.
    9000005    1    3    3    0    0 -0.22897312496E+02  0.32015000204E+02  0.67353139424E+02  0.78017258013E+02  0.10000000000E+01 0.  0.
<mgrwt>
<rscale>  0 0.12499845E+03</rscale>
<asrwt>0</asrwt>
<pdfrwt beam="1">  1        4 0.16268856E+00 0.12499845E+03</pdfrwt>
<pdfrwt beam="2">  1       -4 0.15006252E-02 0.12499845E+03</pdfrwt>
<totfact> 0.66745413E+02</totfact>
</mgrwt>
</event>
<event>
 5    1  0.1431256E-002  0.1249990E+03  0.7818608E-02  0.1235071E+00
          4   -1    0    0  501    0  0.00000000000E+00  0.00000000000E+00  0.10060291892E+03  0.10061093477E+03  0.12700000000E+01 0.  1.
         -4   -1    0    0    0  501 -0.00000000000E+00 -0.00000000000E+00 -0.38807843456E+02  0.38828618488E+02  0.12700000000E+01 0.  1.
         25    2    1    2    0    0  0.00000000000E+00  0.00000000000E+00  0.61795075468E+02  0.13943955326E+03  0.12499903064E+03 0.  0.
    9000005    1    3    3    0    0  0.17628247712E+02 -0.25019880999E+02 -0.29880050767E+02  0.42785125879E+02  0.10000000000E+01 0.  0.
    9000005    1    3    3    0    0 -0.17628247712E+02  0.25019880999E+02  0.91675126235E+02  0.96654427383E+02  0.10000000000E+01 0.  0.
<mgrwt>
<rscale>  0 0.12499903E+03</rscale>
<asrwt>0</asrwt>
<pdfrwt beam="1">  1        4 0.25154328E-01 0.12499903E+03</pdfrwt>
<pdfrwt beam="2">  1       -4 0.97055598E-02 0.12499903E+03</pdfrwt>
<totfact> 0.19069481E+03</totfact>
</mgrwt>
</event>
<event>
 5    1  0.1431256E-002  0.1249972E+03  0.7818608E-02  0.1235074E+00
          4   -1    0    0  501    0  0.00000000000E+00  0.00000000000E+00  0.19695797949E+02  0.19736700759E+02  0.12700000000E+01 0. -1.
         -4   -1    0    0    0  501 -0.00000000000E+00 -0.00000000000E+00 -0.19807155361E+03  0.19807562507E+03  0.12700000000E+01 0. -1.
         25    2    1    2    0    0  0.00000000000E+00  0.00000000000E+00 -0.17837575566E+03  0.21781232583E+03  0.12499719628E+03 0.  0.
    9000005    1    3    3    0    0  0.34820412143E+02  0.32006707264E+02 -0.18016691825E+02  0.50621058820E+02  0.10000000000E+01 0.  0.
    9000005    1    3    3    0    0 -0.34820412143E+02 -0.32006707264E+02 -0.16035906383E+03  0.16719126701E+03  0.10000000000E+01 0.  0.
<mgrwt>
<rscale>  0 0.12499720E+03</rscale>
<asrwt>0</asrwt>
<pdfrwt beam="1">  1        4 0.49295719E-02 0.12499720E+03</pdfrwt>
<pdfrwt beam="2">  1       -4 0.49523504E-01 0.12499720E+03</pdfrwt>
<totfact> 0.15633820E+03</totfact>
</mgrwt>
</event>
<event>
 5    1  0.1431256E-002  0.1249700E+03  0.7818608E-02  0.1235116E+00
         -4   -1    0    0    0  501 -0.00000000000E+00  0.00000000000E+00  0.11368943758E+02  0.11439658307E+02  0.12700000000E+01 0.  1.
          4   -1    0    0  501    0  0.00000000000E+00 -0.00000000000E+00 -0.34228779678E+03  0.34229015283E+03  0.12700000000E+01 0.  1.
         25    2    1    2    0    0  0.00000000000E+00  0.00000000000E+00 -0.33091885302E+03  0.35372981114E+03  0.12496996440E+03 0.  0.
    9000005    1    3    3    0    0 -0.55873528516E+02  0.26364604763E+02 -0.19177403021E+03  0.20148256063E+03  0.10000000000E+01 0.  0.
    9000005    1    3    3    0    0  0.55873528516E+02 -0.26364604763E+02 -0.13914482281E+03  0.15224725051E+03  0.10000000000E+01 0.  0.
<mgrwt>
<rscale>  0 0.12496996E+03</rscale>
<asrwt>0</asrwt>
<pdfrwt beam="2">  1        4 0.85581049E-01 0.12496996E+03</pdfrwt>
<pdfrwt beam="1">  1       -4 0.28513709E-02 0.12496996E+03</pdfrwt>
<totfact> 0.11596815E+03</totfact>
</mgrwt>
</event>
<event>
 5    1  0.1431256E-002  0.1250020E+03  0.7818608E-02  0.1235066E+00
          4   -1    0    0  501    0  0.00000000000E+00  0.00000000000E+00  0.44628969450E+01  0.46400807258E+01  0.12700000000E+01 0. -1.
         -4   -1    0    0    0  501 -0.00000000000E+00 -0.00000000000E+00 -0.85808509956E+03  0.85808603938E+03  0.12700000000E+01 0. -1.
         25    2    1    2    0    0  0.00000000000E+00  0.00000000000E+00 -0.85362220262E+03  0.86272612011E+03  0.12500197408E+03 0.  0.
    9000005    1    3    3    0    0 -0.46819447989E+02 -0.16554243132E+02 -0.68864578082E+03  0.69043472908E+03  0.10000000000E+01 0.  0.
    9000005    1    3    3    0    0  0.46819447989E+02  0.16554243132E+02 -0.16497642180E+03  0.17229139103E+03  0.10000000000E+01 0.  0.
<mgrwt>
<rscale>  0 0.12500197E+03</rscale>
<asrwt>0</asrwt>
<pdfrwt beam="1">  1        4 0.11379926E-02 0.12500197E+03</pdfrwt>
<pdfrwt beam="2">  1       -4 0.21454299E+00 0.12500197E+03</pdfrwt>
<totfact> 0.47194529E+02</totfact>
</mgrwt>
</event>
<event>
 5    1  0.1431256E-002  0.1249965E+03  0.7818608E-02  0.1235075E+00
         -4   -1    0    0    0  501 -0.00000000000E+00  0.00000000000E+00  0.22865884448E+03  0.22866237133E+03  0.12700000000E+01 0.  1.
          4   -1    0    0  501    0  0.00000000000E+00 -0.00000000000E+00 -0.17055074834E+02  0.17102294512E+02  0.12700000000E+01 0.  1.
         25    2    1    2    0    0  0.00000000000E+00  0.00000000000E+00  0.21160376965E+03  0.24576466584E+03  0.12499646253E+03 0.  0.
    9000005    1    3    3    0    0 -0.16267746751E+01  0.45541427104E+01 -0.16696250258E+02  0.17411243044E+02  0.10000000000E+01 0.  0.
    9000005    1    3    3    0    0  0.16267746751E+01 -0.45541427104E+01  0.22830001991E+03  0.22835342279E+03  0.10000000000E+01 0.  0.
<mgrwt>
<rscale>  0 0.12499646E+03</rscale>
<asrwt>0</asrwt>
<pdfrwt beam="2">  1        4 0.42701120E-02 0.12499646E+03</pdfrwt>
<pdfrwt beam="1">  1       -4 0.57171055E-01 0.12499646E+03</pdfrwt>
<totfact> 0.14641089E+03</totfact>
</mgrwt>
</event>
<event>
 5    1  0.1431256E-002  0.1249975E+03  0.7818608E-02  0.1235073E+00
         -4   -1    0    0    0  501 -0.00000000000E+00  0.00000000000E+00  0.19632835647E+02  0.19673869359E+02  0.12700000000E+01 0. -1.
          4   -1    0    0  501    0  0.00000000000E+00 -0.00000000000E+00 -0.19870649403E+03  0.19871055249E+03  0.12700000000E+01 0. -1.
         25    2    1    2    0    0  0.00000000000E+00  0.00000000000E+00 -0.17907365839E+03  0.21838442185E+03  0.12499752229E+03 0.  0.
    9000005    1    3    3    0    0  0.30371278729E+02 -0.28739176900E+01  0.57475003833E+01  0.31059744609E+02  0.10000000000E+01 0.  0.
    9000005    1    3    3    0    0 -0.30371278729E+02  0.28739176900E+01 -0.18482115877E+03  0.18732467724E+03  0.10000000000E+01 0.  0.
<mgrwt>
<rscale>  0 0.12499752E+03</rscale>
<asrwt>0</asrwt>
<pdfrwt beam="2">  1        4 0.49682254E-01 0.12499752E+03</pdfrwt>
<pdfrwt beam="1">  1       -4 0.49138460E-02 0.12499752E+03</pdfrwt>
<totfact> 0.15612332E+03</totfact>
</mgrwt>
</event>
<event>
 5    1  0.1431256E-002  0.1249966E+03  0.7818608E-02  0.1235075E+00
         -4   -1    0    0    0  501 -0.00000000000E+00  0.00000000000E+00  0.12202937484E+02  0.12268846043E+02  0.12700000000E+01 0. -1.
          4   -1    0    0  501    0  0.00000000000E+00 -0.00000000000E+00 -0.31916060754E+03  0.31916313432E+03  0.12700000000E+01 0. -1.
         25    2    1    2    0    0  0.00000000000E+00  0.00000000000E+00 -0.30695767006E+03  0.33143198036E+03  0.12499658554E+03 0.  0.
    9000005    1    3    3    0    0 -0.49382677488E+01 -0.44099957541E+02 -0.36816295975E+02  0.57668296254E+02  0.10000000000E+01 0.  0.
    9000005    1    3    3    0    0  0.49382677488E+01  0.44099957541E+02 -0.27014137409E+03  0.27376368411E+03  0.10000000000E+01 0.  0.
<mgrwt>
<rscale>  0 0.12499659E+03</rscale>
<asrwt>0</asrwt>
<pdfrwt beam="2">  1        4 0.79798679E-01 0.12499659E+03</pdfrwt>
<pdfrwt beam="1">  1       -4 0.30592898E-02 0.12499659E+03</pdfrwt>
<totfact> 0.12134649E+03</totfact>
</mgrwt>
</event>
<event>
 5    1  0.1431256E-002  0.1249998E+03  0.7818608E-02  0.1235070E+00
         -4   -1    0    0    0  501 -0.00000000000E+00  0.00000000000E+00  0.71669122388E+03  0.71669234912E+03  0.12700000000E+01 0. -1.
          4   -1    0    0  501    0  0.00000000000E+00 -0.00000000000E+00 -0.53752551086E+01  0.55232479106E+01  0.12700000000E+01 0. -1.
         25    2    1    2    0    0  0.00000000000E+00  0.00000000000E+00  0.71131596877E+03  0.72221559703E+03  0.12499984466E+03 0.  0.
    9000005    1    3    3    0    0 -0.15419021362E+02  0.40432717925E+02  0.61614909080E+03  0.61766759102E+03  0.10000000000E+01 0.  0.
    9000005    1    3    3    0    0  0.15419021362E+02 -0.40432717925E+02  0.95166877969E+02  0.10454800601E+03  0.10000000000E+01 0.  0.
<mgrwt>
<rscale>  0 0.12499984E+03</rscale>
<asrwt>0</asrwt>
<pdfrwt beam="2">  1        4 0.13624535E-02 0.12499984E+03</pdfrwt>
<pdfrwt beam="1">  1       -4 0.17919145E+00 0.12499984E+03</pdfrwt>
<totfact> 0.59790790E+02</totfact>
</mgrwt>
</event>
<event>
 5    1  0.1431256E-002  0.1250022E+03  0.7818608E-02  0.1235066E+00
         -4   -1    0    0    0  501 -0.00000000000E+00  0.00000000000E+00  0.17539929743E+03  0.17540389516E+03  0.12700000000E+01 0.  1.
          4   -1    0    0  501    0  0.00000000000E+00 -0.00000000000E+00 -0.22248397119E+02  0.22284615194E+02  0.12700000000E+01 0.  1.
         25    2    1    2    0    0  0.00000000000E+00  0.00000000000E+00  0.15315090031E+03  0.19768851035E+03  0.12500219543E+03 0.  0.
    9000005    1    3    3    0    0  0.12265545908E+02  0.60462106873E+02  0.92332997360E+02  0.11105175544E+03  0.10000000000E+01 0.  0.
    9000005    1    3    3    0    0 -0.12265545908E+02 -0.60462106873E+02  0.60817902947E+02  0.86636754918E+02  0.10000000000E+01 0.  0.
<mgrwt>
<rscale>  0 0.12500220E+03</rscale>
<asrwt>0</asrwt>
<pdfrwt beam="2">  1        4 0.55672014E-02 0.12500220E+03</pdfrwt>
<pdfrwt beam="1">  1       -4 0.43854926E-01 0.12500220E+03</pdfrwt>
<totfact> 0.16414183E+03</totfact>
</mgrwt>
</event>
<event>
 5    1  0.1431256E-002  0.1250079E+03  0.7818608E-02  0.1235057E+00
          4   -1    0    0  501    0  0.00000000000E+00  0.00000000000E+00  0.52706608209E+02  0.52721906727E+02  0.12700000000E+01 0.  1.
         -4   -1    0    0    0  501 -0.00000000000E+00 -0.00000000000E+00 -0.74090951027E+02  0.74101834823E+02  0.12700000000E+01 0.  1.
         25    2    1    2    0    0  0.00000000000E+00  0.00000000000E+00 -0.21384342818E+02  0.12682374155E+03  0.12500788496E+03 0.  0.
    9000005    1    3    3    0    0 -0.38100387978E+02  0.32725374757E+02 -0.48423168560E+02  0.69773870256E+02  0.10000000000E+01 0.  0.
    9000005    1    3    3    0    0  0.38100387978E+02 -0.32725374757E+02  0.27038825742E+02  0.57049871294E+02  0.10000000000E+01 0.  0.
<mgrwt>
<rscale>  0 0.12500788E+03</rscale>
<asrwt>0</asrwt>
<pdfrwt beam="1">  1        4 0.13179925E-01 0.12500788E+03</pdfrwt>
<pdfrwt beam="2">  1       -4 0.18526010E-01 0.12500788E+03</pdfrwt>
<totfact> 0.19732832E+03</totfact>
</mgrwt>
</event>
<event>
 5    1  0.1431256E-002  0.1250045E+03  0.7818608E-02  0.1235062E+00
          4   -1    0    0  501    0  0.00000000000E+00  0.00000000000E+00  0.20112931535E+02  0.20152987742E+02  0.12700000000E+01 0.  1.
         -4   -1    0    0    0  501 -0.00000000000E+00 -0.00000000000E+00 -0.19399449194E+03  0.19399864897E+03  0.12700000000E+01 0.  1.
         25    2    1    2    0    0  0.00000000000E+00  0.00000000000E+00 -0.17388156040E+03  0.21415163671E+03  0.12500450575E+03 0.  0.
    9000005    1    3    3    0    0 -0.46603377656E+02  0.11793727991E+02 -0.18531217368E+02  0.51530309974E+02  0.10000000000E+01 0.  0.
    9000005    1    3    3    0    0  0.46603377656E+02 -0.11793727991E+02 -0.15535034303E+03  0.16262132674E+03  0.10000000000E+01 0.  0.
<mgrwt>
<rscale>  0 0.12500451E+03</rscale>
<asrwt>0</asrwt>
<pdfrwt beam="1">  1        4 0.50337601E-02 0.12500451E+03</pdfrwt>
<pdfrwt beam="2">  1       -4 0.48504144E-01 0.12500451E+03</pdfrwt>
<totfact> 0.15769005E+03</totfact>
</mgrwt>
</event>
<event>
 5    1  0.1431256E-002  0.1250002E+03  0.7818608E-02  0.1235069E+00
         -4   -1    0    0    0  501 -0.00000000000E+00  0.00000000000E+00  0.34652887491E+03  0.34653120212E+03  0.12700000000E+01 0. -1.
          4   -1    0    0  501    0  0.00000000000E+00 -0.00000000000E+00 -0.11234401872E+02  0.11305957961E+02  0.12700000000E+01 0. -1.
         25    2    1    2    0    0  0.00000000000E+00  0.00000000000E+00  0.33529447303E+03  0.35783716008E+03  0.12500019795E+03 0.  0.
    9000005    1    3    3    0    0 -0.14121098204E+02 -0.40148021081E+02  0.36649923414E+02  0.56173711800E+02  0.10000000000E+01 0.  0.
    9000005    1    3    3    0    0  0.14121098204E+02  0.40148021081E+02  0.29864454962E+03  0.30166344828E+03  0.10000000000E+01 0.  0.
<mgrwt>
<rscale>  0 0.12500020E+03</rscale>
<asrwt>0</asrwt>
<pdfrwt beam="2">  1        4 0.28178358E-02 0.12500020E+03</pdfrwt>
<pdfrwt beam="1">  1       -4 0.86641457E-01 0.12500020E+03</pdfrwt>
<totfact> 0.11492553E+03</totfact>
</mgrwt>
</event>
<event>
 5    1  0.1431256E-002  0.1250010E+03  0.7818608E-02  0.1235068E+00
         -4   -1    0    0    0  501 -0.00000000000E+00  0.00000000000E+00  0.10794964103E+03  0.10795711139E+03  0.12700000000E+01 0.  1.
          4   -1    0    0  501    0  0.00000000000E+00 -0.00000000000E+00 -0.36166567068E+02  0.36188858417E+02  0.12700000000E+01 0.  1.
         25    2    1    2    0    0  0.00000000000E+00  0.00000000000E+00  0.71783073965E+02  0.14414596980E+03  0.12500100361E+03 0.  0.
    9000005    1    3    3    0    0 -0.22859560853E+02 -0.42139895137E+02 -0.10335341712E+02  0.49052518517E+02  0.10000000000E+01 0.  0.
    9000005    1    3    3    0    0  0.22859560853E+02  0.42139895137E+02  0.82118415676E+02  0.95093451287E+02  0.10000000000E+01 0.  0.
<mgrwt>
<rscale>  0 0.12500100E+03</rscale>
<asrwt>0</asrwt>
<pdfrwt beam="2">  1        4 0.90453621E-02 0.12500100E+03</pdfrwt>
<pdfrwt beam="1">  1       -4 0.26991130E-01 0.12500100E+03</pdfrwt>
<totfact> 0.18829771E+03</totfact>
</mgrwt>
</event>
<event>
 5    1  0.1431256E-002  0.1250025E+03  0.7818608E-02  0.1235065E+00
         -4   -1    0    0    0  501 -0.00000000000E+00  0.00000000000E+00  0.22729445817E+03  0.22729800618E+03  0.12700000000E+01 0.  1.
          4   -1    0    0  501    0  0.00000000000E+00 -0.00000000000E+00 -0.17159385482E+02  0.17206318901E+02  0.12700000000E+01 0.  1.
         25    2    1    2    0    0  0.00000000000E+00  0.00000000000E+00  0.21013507269E+03  0.24450432508E+03  0.12500246482E+03 0.  0.
    9000005    1    3    3    0    0  0.42811842070E+01  0.57178892099E+02  0.15367904799E+03  0.16403049726E+03  0.10000000000E+01 0.  0.
    9000005    1    3    3    0    0 -0.42811842070E+01 -0.57178892099E+02  0.56456024696E+02  0.80473827822E+02  0.10000000000E+01 0.  0.
<mgrwt>
<rscale>  0 0.12500246E+03</rscale>
<asrwt>0</asrwt>
<pdfrwt beam="2">  1        4 0.42961565E-02 0.12500246E+03</pdfrwt>
<pdfrwt beam="1">  1       -4 0.56829925E-01 0.12500246E+03</pdfrwt>
<totfact> 0.14681690E+03</totfact>
</mgrwt>
</event>
<event>
 5    1  0.1431256E-002  0.1249975E+03  0.7818608E-02  0.1235073E+00
         -4   -1    0    0    0  501 -0.00000000000E+00  0.00000000000E+00  0.28828252362E+02  0.28856213096E+02  0.12700000000E+01 0.  1.
          4   -1    0    0  501    0  0.00000000000E+00 -0.00000000000E+00 -0.13539876893E+03  0.13540472491E+03  0.12700000000E+01 0.  1.
         25    2    1    2    0    0  0.00000000000E+00  0.00000000000E+00 -0.10657051657E+03  0.16426093801E+03  0.12499752299E+03 0.  0.
    9000005    1    3    3    0    0  0.52921780589E+02 -0.21767895222E+02 -0.86283354982E+02  0.10353923638E+03  0.10000000000E+01 0.  0.
    9000005    1    3    3    0    0 -0.52921780589E+02  0.21767895222E+02 -0.20287161586E+02  0.60721701626E+02  0.10000000000E+01 0.  0.
<mgrwt>
<rscale>  0 0.12499752E+03</rscale>
<asrwt>0</asrwt>
<pdfrwt beam="2">  1        4 0.33853930E-01 0.12499752E+03</pdfrwt>
<pdfrwt beam="1">  1       -4 0.72113030E-02 0.12499752E+03</pdfrwt>
<totfact> 0.17860081E+03</totfact>
</mgrwt>
</event>
<event>
 5    1  0.1431256E-002  0.1250018E+03  0.7818608E-02  0.1235066E+00
         -4   -1    0    0    0  501 -0.00000000000E+00  0.00000000000E+00  0.37978138327E+03  0.37978350673E+03  0.12700000000E+01 0. -1.
          4   -1    0    0  501    0  0.00000000000E+00 -0.00000000000E+00 -0.10244457052E+02  0.10322877520E+02  0.12700000000E+01 0. -1.
         25    2    1    2    0    0  0.00000000000E+00  0.00000000000E+00  0.36953692622E+03  0.39010638425E+03  0.12500180474E+03 0.  0.
    9000005    1    3    3    0    0  0.83858166207E+01 -0.33912301406E+02  0.34647912393E+03  0.34823720281E+03  0.10000000000E+01 0.  0.
    9000005    1    3    3    0    0 -0.83858166207E+01  0.33912301406E+02  0.23057802296E+02  0.41869181432E+02  0.10000000000E+01 0.  0.
<mgrwt>
<rscale>  0 0.12500180E+03</rscale>
<asrwt>0</asrwt>
<pdfrwt beam="2">  1        4 0.25711824E-02 0.12500180E+03</pdfrwt>
<pdfrwt beam="1">  1       -4 0.94955408E-01 0.12500180E+03</pdfrwt>
<totfact> 0.10775427E+03</totfact>
</mgrwt>
</event>
<event>
 5    1  0.1431256E-002  0.1249965E+03  0.7818608E-02  0.1235075E+00
         -4   -1    0    0    0  501 -0.00000000000E+00  0.00000000000E+00  0.45312693721E+03  0.45312871695E+03  0.12700000000E+01 0.  1.
          4   -1    0    0  501    0  0.00000000000E+00 -0.00000000000E+00 -0.85715921833E+01  0.86651654662E+01  0.12700000000E+01 0.  1.
         25    2    1    2    0    0  0.00000000000E+00  0.00000000000E+00  0.44455534503E+03  0.46179388242E+03  0.12499654014E+03 0.  0.
    9000005    1    3    3    0    0  0.23062918377E+02 -0.22571978118E+02  0.24576385482E+02  0.40575745508E+02  0.10000000000E+01 0.  0.
    9000005    1    3    3    0    0 -0.23062918377E+02  0.22571978118E+02  0.41997895955E+03  0.42121813691E+03  0.10000000000E+01 0.  0.
<mgrwt>
<rscale>  0 0.12499654E+03</rscale>
<asrwt>0</asrwt>
<pdfrwt beam="2">  1        4 0.21548174E-02 0.12499654E+03</pdfrwt>
<pdfrwt beam="1">  1       -4 0.11329364E+00 0.12499654E+03</pdfrwt>
<totfact> 0.93944866E+02</totfact>
</mgrwt>
</event>
<event>
 5    1  0.1431256E-002  0.1250016E+03  0.7818608E-02  0.1235067E+00
         -4   -1    0    0    0  501 -0.00000000000E+00  0.00000000000E+00  0.99020744920E+02  0.99028888838E+02  0.12700000000E+01 0.  1.
          4   -1    0    0  501    0  0.00000000000E+00 -0.00000000000E+00 -0.39429820842E+02  0.39450268334E+02  0.12700000000E+01 0.  1.
         25    2    1    2    0    0  0.00000000000E+00  0.00000000000E+00  0.59590924077E+02  0.13847915717E+03  0.12500159494E+03 0.  0.
    9000005    1    3    3    0    0 -0.19868675292E+02  0.25229465050E+02  0.89185928484E+02  0.94796729923E+02  0.10000000000E+01 0.  0.
    9000005    1    3    3    0    0  0.19868675292E+02 -0.25229465050E+02 -0.29595004406E+02  0.43682427249E+02  0.10000000000E+01 0.  0.
<mgrwt>
<rscale>  0 0.12500159E+03</rscale>
<asrwt>0</asrwt>
<pdfrwt beam="2">  1        4 0.98610292E-02 0.12500159E+03</pdfrwt>
<pdfrwt beam="1">  1       -4 0.24758760E-01 0.12500159E+03</pdfrwt>
<totfact> 0.19117707E+03</totfact>
</mgrwt>
</event>
<event>
 5    1  0.1431256E-002  0.1249898E+03  0.7818608E-02  0.1235085E+00
          4   -1    0    0  501    0  0.00000000000E+00  0.00000000000E+00  0.94388212253E+01  0.95238776831E+01  0.12700000000E+01 0.  1.
         -4   -1    0    0    0  501 -0.00000000000E+00 -0.00000000000E+00 -0.41183981183E+03  0.41184176999E+03  0.12700000000E+01 0.  1.
         25    2    1    2    0    0  0.00000000000E+00  0.00000000000E+00 -0.40240099060E+03  0.42136564767E+03  0.12498980678E+03 0.  0.
    9000005    1    3    3    0    0  0.55582400938E+02  0.27037648120E+02 -0.23213026674E+03  0.24022052045E+03  0.10000000000E+01 0.  0.
    9000005    1    3    3    0    0 -0.55582400938E+02 -0.27037648120E+02 -0.17027072386E+03  0.18114512722E+03  0.10000000000E+01 0.  0.
<mgrwt>
<rscale>  0 0.12498981E+03</rscale>
<asrwt>0</asrwt>
<pdfrwt beam="1">  1        4 0.23705835E-02 0.12498981E+03</pdfrwt>
<pdfrwt beam="2">  1       -4 0.10297077E+00 0.12498981E+03</pdfrwt>
<totfact> 0.10141642E+03</totfact>
</mgrwt>
</event>
<event>
 5    1  0.1431256E-002  0.1250033E+03  0.7818608E-02  0.1235064E+00
          4   -1    0    0  501    0  0.00000000000E+00  0.00000000000E+00  0.39005845943E+02  0.39026515572E+02  0.12700000000E+01 0.  1.
         -4   -1    0    0    0  501 -0.00000000000E+00 -0.00000000000E+00 -0.10009926746E+03  0.10010732363E+03  0.12700000000E+01 0.  1.
         25    2    1    2    0    0  0.00000000000E+00  0.00000000000E+00 -0.61093421513E+02  0.13913383921E+03  0.12500327620E+03 0.  0.
    9000005    1    3    3    0    0  0.44835168984E+02  0.30849679249E+02 -0.64736471380E+02  0.84579582727E+02  0.10000000000E+01 0.  0.
    9000005    1    3    3    0    0 -0.44835168984E+02 -0.30849679249E+02  0.36430498673E+01  0.54554256478E+02  0.10000000000E+01 0.  0.
<mgrwt>
<rscale>  0 0.12500328E+03</rscale>
<asrwt>0</asrwt>
<pdfrwt beam="1">  1        4 0.97550524E-02 0.12500328E+03</pdfrwt>
<pdfrwt beam="2">  1       -4 0.25028407E-01 0.12500328E+03</pdfrwt>
<totfact> 0.19083283E+03</totfact>
</mgrwt>
</event>
<event>
 5    1  0.1431256E-002  0.1249943E+03  0.7818608E-02  0.1235078E+00
          4   -1    0    0  501    0  0.00000000000E+00  0.00000000000E+00  0.26349427245E+03  0.26349733303E+03  0.12700000000E+01 0. -1.
         -4   -1    0    0    0  501 -0.00000000000E+00 -0.00000000000E+00 -0.14793087440E+02  0.14847502686E+02  0.12700000000E+01 0. -1.
         25    2    1    2    0    0  0.00000000000E+00  0.00000000000E+00  0.24870118501E+03  0.27834483571E+03  0.12499427245E+03 0.  0.
    9000005    1    3    3    0    0  0.74572848469E+01 -0.41728206139E+02  0.22107907256E+02  0.47818551296E+02  0.10000000000E+01 0.  0.
    9000005    1    3    3    0    0 -0.74572848469E+01  0.41728206139E+02  0.22659327775E+03  0.23052628442E+03  0.10000000000E+01 0.  0.
<mgrwt>
<rscale>  0 0.12499427E+03</rscale>
<asrwt>0</asrwt>
<pdfrwt beam="1">  1        4 0.65880756E-01 0.12499427E+03</pdfrwt>
<pdfrwt beam="2">  1       -4 0.37054562E-02 0.12499427E+03</pdfrwt>
<totfact> 0.13602236E+03</totfact>
</mgrwt>
</event>
<event>
 5    1  0.1431256E-002  0.1249989E+03  0.7818608E-02  0.1235071E+00
          4   -1    0    0  501    0  0.00000000000E+00  0.00000000000E+00  0.40137915696E+02  0.40158002645E+02  0.12700000000E+01 0.  1.
         -4   -1    0    0    0  501 -0.00000000000E+00 -0.00000000000E+00 -0.97270482411E+02  0.97278772857E+02  0.12700000000E+01 0.  1.
         25    2    1    2    0    0  0.00000000000E+00  0.00000000000E+00 -0.57132566715E+02  0.13743677550E+03  0.12499894832E+03 0.  0.
    9000005    1    3    3    0    0 -0.90485124256E+01  0.35279950675E+02  0.27266776765E+02  0.45508544384E+02  0.10000000000E+01 0.  0.
    9000005    1    3    3    0    0  0.90485124256E+01 -0.35279950675E+02 -0.84399343480E+02  0.91928231118E+02  0.10000000000E+01 0.  0.
<mgrwt>
<rscale>  0 0.12499895E+03</rscale>
<asrwt>0</asrwt>
<pdfrwt beam="1">  1        4 0.10038026E-01 0.12499895E+03</pdfrwt>
<pdfrwt beam="2">  1       -4 0.24321167E-01 0.12499895E+03</pdfrwt>
<totfact> 0.19172721E+03</totfact>
</mgrwt>
</event>
<event>
 5    1  0.1431256E-002  0.1249926E+03  0.7818608E-02  0.1235081E+00
          4   -1    0    0  501    0  0.00000000000E+00  0.00000000000E+00  0.19483925655E+02  0.19525272314E+02  0.12700000000E+01 0.  1.
         -4   -1    0    0    0  501 -0.00000000000E+00 -0.00000000000E+00 -0.20020623838E+03  0.20021026643E+03  0.12700000000E+01 0.  1.
         25    2    1    2    0    0  0.00000000000E+00  0.00000000000E+00 -0.18072231272E+03  0.21973553875E+03  0.12499261047E+03 0.  0.
    9000005    1    3    3    0    0 -0.56266272746E+01 -0.11649042718E+02  0.17112603425E+02  0.21475575119E+02  0.10000000000E+01 0.  0.
    9000005    1    3    3    0    0  0.56266272746E+01  0.11649042718E+02 -0.19783491615E+03  0.19825996363E+03  0.10000000000E+01 0.  0.
<mgrwt>
<rscale>  0 0.12499261E+03</rscale>
<asrwt>0</asrwt>
<pdfrwt beam="1">  1        4 0.48766539E-02 0.12499261E+03</pdfrwt>
<pdfrwt beam="2">  1       -4 0.50057225E-01 0.12499261E+03</pdfrwt>
<totfact> 0.15563808E+03</totfact>
</mgrwt>
</event>
<event>
 5    1  0.1431256E-002  0.1250016E+03  0.7818608E-02  0.1235067E+00
          4   -1    0    0  501    0  0.00000000000E+00  0.00000000000E+00  0.18200290553E+02  0.18244546479E+02  0.12700000000E+01 0.  1.
         -4   -1    0    0    0  501 -0.00000000000E+00 -0.00000000000E+00 -0.21432430465E+03  0.21432806737E+03  0.12700000000E+01 0.  1.
         25    2    1    2    0    0  0.00000000000E+00  0.00000000000E+00 -0.19612401410E+03  0.23257261385E+03  0.12500156722E+03 0.  0.
    9000005    1    3    3    0    0 -0.29185204731E+02 -0.28670634257E+01  0.46123153172E+01  0.29703024769E+02  0.10000000000E+01 0.  0.
    9000005    1    3    3    0    0  0.29185204731E+02  0.28670634257E+01 -0.20073632942E+03  0.20286958908E+03  0.10000000000E+01 0.  0.
<mgrwt>
<rscale>  0 0.12500157E+03</rscale>
<asrwt>0</asrwt>
<pdfrwt beam="1">  1        4 0.45560756E-02 0.12500157E+03</pdfrwt>
<pdfrwt beam="2">  1       -4 0.53587071E-01 0.12500157E+03</pdfrwt>
<totfact> 0.15095276E+03</totfact>
</mgrwt>
</event>
<event>
 5    1  0.1431256E-002  0.1250005E+03  0.7818608E-02  0.1235069E+00
         -4   -1    0    0    0  501 -0.00000000000E+00  0.00000000000E+00  0.20144261859E+02  0.20184255890E+02  0.12700000000E+01 0. -1.
          4   -1    0    0  501    0  0.00000000000E+00 -0.00000000000E+00 -0.19368089667E+03  0.19368506043E+03  0.12700000000E+01 0. -1.
         25    2    1    2    0    0  0.00000000000E+00  0.00000000000E+00 -0.17353663481E+03  0.21386931632E+03  0.12500048337E+03 0.  0.
    9000005    1    3    3    0    0 -0.17528937537E+02 -0.12902355073E+02 -0.18699461511E+03  0.18825971555E+03  0.10000000000E+01 0.  0.
    9000005    1    3    3    0    0  0.17528937537E+02  0.12902355073E+02  0.13457980306E+02  0.25609600769E+02  0.10000000000E+01 0.  0.
<mgrwt>
<rscale>  0 0.12500048E+03</rscale>
<asrwt>0</asrwt>
<pdfrwt beam="2">  1        4 0.48425738E-01 0.12500048E+03</pdfrwt>
<pdfrwt beam="1">  1       -4 0.50415858E-02 0.12500048E+03</pdfrwt>
<totfact> 0.15781179E+03</totfact>
</mgrwt>
</event>
<event>
 5    1  0.1431256E-002  0.1249958E+03  0.7818608E-02  0.1235076E+00
         -4   -1    0    0    0  501 -0.00000000000E+00  0.00000000000E+00  0.16079959537E+02  0.16130034058E+02  0.12700000000E+01 0. -1.
          4   -1    0    0  501    0  0.00000000000E+00 -0.00000000000E+00 -0.24248103857E+03  0.24248436437E+03  0.12700000000E+01 0. -1.
         25    2    1    2    0    0  0.00000000000E+00  0.00000000000E+00 -0.22640107903E+03  0.25861439843E+03  0.12499583389E+03 0.  0.
    9000005    1    3    3    0    0  0.40071939521E+02  0.46496557655E+02 -0.13744382638E+03  0.15053071321E+03  0.10000000000E+01 0.  0.
    9000005    1    3    3    0    0 -0.40071939521E+02 -0.46496557655E+02 -0.88957252653E+02  0.10808368522E+03  0.10000000000E+01 0.  0.
<mgrwt>
<rscale>  0 0.12499583E+03</rscale>
<asrwt>0</asrwt>
<pdfrwt beam="2">  1        4 0.60626923E-01 0.12499583E+03</pdfrwt>
<pdfrwt beam="1">  1       -4 0.40266657E-02 0.12499583E+03</pdfrwt>
<totfact> 0.14217115E+03</totfact>
</mgrwt>
</event>
<event>
 5    1  0.1431256E-002  0.1250011E+03  0.7818608E-02  0.1235068E+00
         -4   -1    0    0    0  501 -0.00000000000E+00  0.00000000000E+00  0.31225822742E+02  0.31251638451E+02  0.12700000000E+01 0. -1.
          4   -1    0    0  501    0  0.00000000000E+00 -0.00000000000E+00 -0.12501824327E+03  0.12502469376E+03  0.12700000000E+01 0. -1.
         25    2    1    2    0    0  0.00000000000E+00  0.00000000000E+00 -0.93792420525E+02  0.15627633221E+03  0.12500109544E+03 0.  0.
    9000005    1    3    3    0    0 -0.10524568928E+02 -0.54811640747E+02 -0.11751676748E+02  0.57045459232E+02  0.10000000000E+01 0.  0.
    9000005    1    3    3    0    0  0.10524568928E+02  0.54811640747E+02 -0.82040743777E+02  0.99230872979E+02  0.10000000000E+01 0.  0.
<mgrwt>
<rscale>  0 0.12500110E+03</rscale>
<asrwt>0</asrwt>
<pdfrwt beam="2">  1        4 0.31258593E-01 0.12500110E+03</pdfrwt>
<pdfrwt beam="1">  1       -4 0.78104893E-02 0.12500110E+03</pdfrwt>
<totfact> 0.18233952E+03</totfact>
</mgrwt>
</event>
<event>
 5    1  0.1431256E-002  0.1250012E+03  0.7818608E-02  0.1235067E+00
         -4   -1    0    0    0  501 -0.00000000000E+00  0.00000000000E+00  0.99739860189E+01  0.10054516254E+02  0.12700000000E+01 0. -1.
          4   -1    0    0  501    0  0.00000000000E+00 -0.00000000000E+00 -0.38999507203E+03  0.38999713987E+03  0.12700000000E+01 0. -1.
         25    2    1    2    0    0  0.00000000000E+00  0.00000000000E+00 -0.38002108601E+03  0.40005165613E+03  0.12500120702E+03 0.  0.
    9000005    1    3    3    0    0  0.60242517257E+02  0.77384606801E+01 -0.23707692653E+03  0.24473559968E+03  0.10000000000E+01 0.  0.
    9000005    1    3    3    0    0 -0.60242517257E+02 -0.77384606801E+01 -0.14294415949E+03  0.15531605645E+03  0.10000000000E+01 0.  0.
<mgrwt>
<rscale>  0 0.12500121E+03</rscale>
<asrwt>0</asrwt>
<pdfrwt beam="2">  1        4 0.97509042E-01 0.12500121E+03</pdfrwt>
<pdfrwt beam="1">  1       -4 0.25038226E-02 0.12500121E+03</pdfrwt>
<totfact> 0.10567849E+03</totfact>
</mgrwt>
</event>
<event>
 5    1  0.1431256E-002  0.1249957E+03  0.7818608E-02  0.1235076E+00
          4   -1    0    0  501    0  0.00000000000E+00  0.00000000000E+00  0.68084896364E+02  0.68096740105E+02  0.12700000000E+01 0.  1.
         -4   -1    0    0    0  501 -0.00000000000E+00 -0.00000000000E+00 -0.57345391349E+02  0.57359452656E+02  0.12700000000E+01 0.  1.
         25    2    1    2    0    0  0.00000000000E+00  0.00000000000E+00  0.10739505015E+02  0.12545619276E+03  0.12499567726E+03 0.  0.
    9000005    1    3    3    0    0  0.52211027605E+02  0.33767349130E+02  0.11618004409E+02  0.63262969400E+02  0.10000000000E+01 0.  0.
    9000005    1    3    3    0    0 -0.52211027605E+02 -0.33767349130E+02 -0.87849939380E+00  0.62193223361E+02  0.10000000000E+01 0.  0.
<mgrwt>
<rscale>  0 0.12499568E+03</rscale>
<asrwt>0</asrwt>
<pdfrwt beam="1">  1        4 0.17024462E-01 0.12499568E+03</pdfrwt>
<pdfrwt beam="2">  1       -4 0.14339586E-01 0.12499568E+03</pdfrwt>
<totfact> 0.19812339E+03</totfact>
</mgrwt>
</event>
<event>
 5    1  0.1431256E-002  0.1249992E+03  0.7818608E-02  0.1235070E+00
          4   -1    0    0  501    0  0.00000000000E+00  0.00000000000E+00  0.11386658133E+03  0.11387366352E+03  0.12700000000E+01 0.  1.
         -4   -1    0    0    0  501 -0.00000000000E+00 -0.00000000000E+00 -0.34285173349E+02  0.34308687115E+02  0.12700000000E+01 0.  1.
         25    2    1    2    0    0  0.00000000000E+00  0.00000000000E+00  0.79581407977E+02  0.14818235063E+03  0.12499923417E+03 0.  0.
    9000005    1    3    3    0    0 -0.16814707700E+02 -0.17763590834E+02  0.10796193578E+03  0.11070257058E+03  0.10000000000E+01 0.  0.
    9000005    1    3    3    0    0  0.16814707700E+02  0.17763590834E+02 -0.28380527807E+02  0.37479780054E+02  0.10000000000E+01 0.  0.
<mgrwt>
<rscale>  0 0.12499923E+03</rscale>
<asrwt>0</asrwt>
<pdfrwt beam="1">  1        4 0.28470470E-01 0.12499923E+03</pdfrwt>
<pdfrwt beam="2">  1       -4 0.85751179E-02 0.12499923E+03</pdfrwt>
<totfact> 0.18628849E+03</totfact>
</mgrwt>
</event>
<event>
 5    1  0.1431256E-002  0.1250077E+03  0.7818608E-02  0.1235057E+00
         -4   -1    0    0    0  501 -0.00000000000E+00  0.00000000000E+00  0.18262636538E+03  0.18263078118E+03  0.12700000000E+01 0. -1.
          4   -1    0    0  501    0  0.00000000000E+00 -0.00000000000E+00 -0.21368393224E+02  0.21406100275E+02  0.12700000000E+01 0. -1.
         25    2    1    2    0    0  0.00000000000E+00  0.00000000000E+00  0.16125797216E+03  0.20403688145E+03  0.12500766140E+03 0.  0.
    9000005    1    3    3    0    0 -0.43597426411E+02  0.43269748998E+02  0.99432700315E+02  0.11687971877E+03  0.10000000000E+01 0.  0.
    9000005    1    3    3    0    0  0.43597426411E+02 -0.43269748998E+02  0.61825271846E+02  0.87157162682E+02  0.10000000000E+01 0.  0.
<mgrwt>
<rscale>  0 0.12500766E+03</rscale>
<asrwt>0</asrwt>
<pdfrwt beam="2">  1        4 0.53473636E-02 0.12500766E+03</pdfrwt>
<pdfrwt beam="1">  1       -4 0.45661857E-01 0.12500766E+03</pdfrwt>
<totfact> 0.16158803E+03</totfact>
</mgrwt>
</event>
<event>
 5    1  0.1431256E-002  0.1249990E+03  0.7818608E-02  0.1235071E+00
         -4   -1    0    0    0  501 -0.00000000000E+00  0.00000000000E+00  0.12351982275E+02  0.12417099747E+02  0.12700000000E+01 0. -1.
          4   -1    0    0  501    0  0.00000000000E+00 -0.00000000000E+00 -0.31534201134E+03  0.31534456871E+03  0.12700000000E+01 0. -1.
         25    2    1    2    0    0  0.00000000000E+00  0.00000000000E+00 -0.30299002906E+03  0.32776166846E+03  0.12499901439E+03 0.  0.
    9000005    1    3    3    0    0 -0.33181760343E+02 -0.52954138868E+02 -0.15113975103E+03  0.16355242091E+03  0.10000000000E+01 0.  0.
    9000005    1    3    3    0    0  0.33181760343E+02  0.52954138868E+02 -0.15185027803E+03  0.16420924755E+03  0.10000000000E+01 0.  0.
<mgrwt>
<rscale>  0 0.12499901E+03</rscale>
<asrwt>0</asrwt>
<pdfrwt beam="2">  1        4 0.78843936E-01 0.12499901E+03</pdfrwt>
<pdfrwt beam="1">  1       -4 0.30964560E-02 0.12499901E+03</pdfrwt>
<totfact> 0.12227447E+03</totfact>
</mgrwt>
</event>
<event>
 5    1  0.1431256E-002  0.1249990E+03  0.7818608E-02  0.1235071E+00
          4   -1    0    0  501    0  0.00000000000E+00  0.00000000000E+00  0.31915893232E+02  0.31941151213E+02  0.12700000000E+01 0. -1.
         -4   -1    0    0    0  501 -0.00000000000E+00 -0.00000000000E+00 -0.12231315124E+03  0.12231974439E+03  0.12700000000E+01 0. -1.
         25    2    1    2    0    0  0.00000000000E+00  0.00000000000E+00 -0.90397258012E+02  0.15426089560E+03  0.12499903862E+03 0.  0.
    9000005    1    3    3    0    0 -0.15172246857E+02  0.42053082878E+02  0.86867718629E+01  0.45553472531E+02  0.10000000000E+01 0.  0.
    9000005    1    3    3    0    0  0.15172246857E+02 -0.42053082878E+02 -0.99084029875E+02  0.10870742307E+03  0.10000000000E+01 0.  0.
<mgrwt>
<rscale>  0 0.12499904E+03</rscale>
<asrwt>0</asrwt>
<pdfrwt beam="1">  1        4 0.79829550E-02 0.12499904E+03</pdfrwt>
<pdfrwt beam="2">  1       -4 0.30582268E-01 0.12499904E+03</pdfrwt>
<totfact> 0.18331648E+03</totfact>
</mgrwt>
</event>
<event>
 5    1  0.1431256E-002  0.1250017E+03  0.7818608E-02  0.1235067E+00
         -4   -1    0    0    0  501 -0.00000000000E+00  0.00000000000E+00  0.58190298270E+03  0.58190436858E+03  0.12700000000E+01 0. -1.
          4   -1    0    0  501    0  0.00000000000E+00 -0.00000000000E+00 -0.66515947777E+01  0.67717511093E+01  0.12700000000E+01 0. -1.
         25    2    1    2    0    0  0.00000000000E+00  0.00000000000E+00  0.57525138792E+03  0.58867611969E+03  0.12500165834E+03 0.  0.
    9000005    1    3    3    0    0  0.54647657107E+02 -0.30152780214E+02  0.27288531515E+03  0.27993383470E+03  0.10000000000E+01 0.  0.
    9000005    1    3    3    0    0 -0.54647657107E+02  0.30152780214E+02  0.30236607277E+03  0.30874228499E+03  0.10000000000E+01 0.  0.
<mgrwt>
<rscale>  0 0.12500166E+03</rscale>
<asrwt>0</asrwt>
<pdfrwt beam="2">  1        4 0.16780914E-02 0.12500166E+03</pdfrwt>
<pdfrwt beam="1">  1       -4 0.14549094E+00 0.12500166E+03</pdfrwt>
<totfact> 0.74943583E+02</totfact>
</mgrwt>
</event>
<event>
 5    1  0.1431256E-002  0.1249982E+03  0.7818608E-02  0.1235072E+00
          4   -1    0    0  501    0  0.00000000000E+00  0.00000000000E+00  0.23085934539E+02  0.23120840676E+02  0.12700000000E+01 0.  1.
         -4   -1    0    0    0  501 -0.00000000000E+00 -0.00000000000E+00 -0.16903476937E+03  0.16903954022E+03  0.12700000000E+01 0.  1.
         25    2    1    2    0    0  0.00000000000E+00  0.00000000000E+00 -0.14594883483E+03  0.19216038089E+03  0.12499819837E+03 0.  0.
    9000005    1    3    3    0    0 -0.22904115599E+02 -0.33172024232E+02  0.43340629217E+00  0.40325792541E+02  0.10000000000E+01 0.  0.
    9000005    1    3    3    0    0  0.22904115599E+02  0.33172024232E+02 -0.14638224113E+03  0.15183458835E+03  0.10000000000E+01 0.  0.
<mgrwt>
<rscale>  0 0.12499820E+03</rscale>
<asrwt>0</asrwt>
<pdfrwt beam="1">  1        4 0.57764437E-02 0.12499820E+03</pdfrwt>
<pdfrwt beam="2">  1       -4 0.42263648E-01 0.12499820E+03</pdfrwt>
<totfact> 0.16641535E+03</totfact>
</mgrwt>
</event>
<event>
 5    1  0.1431256E-002  0.1250002E+03  0.7818608E-02  0.1235069E+00
          4   -1    0    0  501    0  0.00000000000E+00  0.00000000000E+00  0.14507277763E+03  0.14507833646E+03  0.12700000000E+01 0.  1.
         -4   -1    0    0    0  501 -0.00000000000E+00 -0.00000000000E+00 -0.26905174612E+02  0.26935131722E+02  0.12700000000E+01 0.  1.
         25    2    1    2    0    0  0.00000000000E+00  0.00000000000E+00  0.11816760302E+03  0.17201346818E+03  0.12500020333E+03 0.  0.
    9000005    1    3    3    0    0  0.54220823574E+02 -0.23202118091E+02  0.30647097622E+02  0.66471652496E+02  0.10000000000E+01 0.  0.
    9000005    1    3    3    0    0 -0.54220823574E+02  0.23202118091E+02  0.87520505397E+02  0.10554181568E+03  0.10000000000E+01 0.  0.
<mgrwt>
<rscale>  0 0.12500020E+03</rscale>
<asrwt>0</asrwt>
<pdfrwt beam="1">  1        4 0.36272634E-01 0.12500020E+03</pdfrwt>
<pdfrwt beam="2">  1       -4 0.67307332E-02 0.12500020E+03</pdfrwt>
<totfact> 0.17506529E+03</totfact>
</mgrwt>
</event>
<event>
 5    1  0.1431256E-002  0.1250021E+03  0.7818608E-02  0.1235066E+00
         -4   -1    0    0    0  501 -0.00000000000E+00  0.00000000000E+00  0.35909749411E+03  0.35909973988E+03  0.12700000000E+01 0. -1.
          4   -1    0    0  501    0  0.00000000000E+00 -0.00000000000E+00 -0.10838978486E+02  0.10913127628E+02  0.12700000000E+01 0. -1.
         25    2    1    2    0    0  0.00000000000E+00  0.00000000000E+00  0.34825851563E+03  0.37001286750E+03  0.12500211363E+03 0.  0.
    9000005    1    3    3    0    0  0.24137195117E+02  0.54254123569E+02  0.23177570762E+03  0.23926364696E+03  0.10000000000E+01 0.  0.
    9000005    1    3    3    0    0 -0.24137195117E+02 -0.54254123569E+02  0.11648280801E+03  0.13074922055E+03  0.10000000000E+01 0.  0.
<mgrwt>
<rscale>  0 0.12500211E+03</rscale>
<asrwt>0</asrwt>
<pdfrwt beam="2">  1        4 0.27192939E-02 0.12500211E+03</pdfrwt>
<pdfrwt beam="1">  1       -4 0.89783925E-01 0.12500211E+03</pdfrwt>
<totfact> 0.11213602E+03</totfact>
</mgrwt>
</event>
<event>
 5    1  0.1431256E-002  0.1249979E+03  0.7818608E-02  0.1235073E+00
          4   -1    0    0  501    0  0.00000000000E+00  0.00000000000E+00  0.37111523227E+03  0.37111740531E+03  0.12700000000E+01 0.  1.
         -4   -1    0    0    0  501 -0.00000000000E+00 -0.00000000000E+00 -0.10484825451E+02  0.10561461298E+02  0.12700000000E+01 0.  1.
         25    2    1    2    0    0  0.00000000000E+00  0.00000000000E+00  0.36063040682E+03  0.38167886661E+03  0.12499786755E+03 0.  0.
    9000005    1    3    3    0    0 -0.30329475713E+02 -0.97652560485E+01  0.34446311795E+03  0.34593507621E+03  0.10000000000E+01 0.  0.
    9000005    1    3    3    0    0  0.30329475713E+02  0.97652560485E+01  0.16167288870E+02  0.35743790400E+02  0.10000000000E+01 0.  0.
<mgrwt>
<rscale>  0 0.12499787E+03</rscale>
<asrwt>0</asrwt>
<pdfrwt beam="1">  1        4 0.92788649E-01 0.12499787E+03</pdfrwt>
<pdfrwt beam="2">  1       -4 0.26310578E-02 0.12499787E+03</pdfrwt>
<totfact> 0.10957112E+03</totfact>
</mgrwt>
</event>
<event>
 5    1  0.1431256E-002  0.1249989E+03  0.7818608E-02  0.1235071E+00
          4   -1    0    0  501    0  0.00000000000E+00  0.00000000000E+00  0.23946833388E+02  0.23980486428E+02  0.12700000000E+01 0.  1.
         -4   -1    0    0    0  501 -0.00000000000E+00 -0.00000000000E+00 -0.16296835842E+03  0.16297330685E+03  0.12700000000E+01 0.  1.
         25    2    1    2    0    0  0.00000000000E+00  0.00000000000E+00 -0.13902152503E+03  0.18695379328E+03  0.12499894559E+03 0.  0.
    9000005    1    3    3    0    0  0.28586526655E+02 -0.53865771285E+02 -0.49086977338E+02  0.78289476729E+02  0.10000000000E+01 0.  0.
    9000005    1    3    3    0    0 -0.28586526655E+02  0.53865771285E+02 -0.89934547694E+02  0.10866431655E+03  0.10000000000E+01 0.  0.
<mgrwt>
<rscale>  0 0.12499895E+03</rscale>
<asrwt>0</asrwt>
<pdfrwt beam="1">  1        4 0.59915340E-02 0.12499895E+03</pdfrwt>
<pdfrwt beam="2">  1       -4 0.40746912E-01 0.12499895E+03</pdfrwt>
<totfact> 0.16858526E+03</totfact>
</mgrwt>
</event>
<event>
 5    1  0.1431256E-002  0.1249850E+03  0.7818608E-02  0.1235093E+00
         -4   -1    0    0    0  501 -0.00000000000E+00  0.00000000000E+00  0.24649151081E+02  0.24681846548E+02  0.12700000000E+01 0.  1.
          4   -1    0    0  501    0  0.00000000000E+00 -0.00000000000E+00 -0.15829581564E+03  0.15830091014E+03  0.12700000000E+01 0.  1.
         25    2    1    2    0    0  0.00000000000E+00  0.00000000000E+00 -0.13364666456E+03  0.18298275668E+03  0.12498503228E+03 0.  0.
    9000005    1    3    3    0    0 -0.21204571993E+02  0.11573240974E+02  0.17543093027E+02  0.29871958306E+02  0.10000000000E+01 0.  0.
    9000005    1    3    3    0    0  0.21204571993E+02 -0.11573240974E+02 -0.15118975759E+03  0.15311079838E+03  0.10000000000E+01 0.  0.
<mgrwt>
<rscale>  0 0.12498503E+03</rscale>
<asrwt>0</asrwt>
<pdfrwt beam="2">  1        4 0.39578675E-01 0.12498503E+03</pdfrwt>
<pdfrwt beam="1">  1       -4 0.61670120E-02 0.12498503E+03</pdfrwt>
<totfact> 0.17032778E+03</totfact>
</mgrwt>
</event>
<event>
 5    1  0.1431256E-002  0.1250010E+03  0.7818608E-02  0.1235068E+00
          4   -1    0    0  501    0  0.00000000000E+00  0.00000000000E+00  0.30447646111E+03  0.30447910974E+03  0.12700000000E+01 0.  1.
         -4   -1    0    0    0  501 -0.00000000000E+00 -0.00000000000E+00 -0.12795461860E+02  0.12858333648E+02  0.12700000000E+01 0.  1.
         25    2    1    2    0    0  0.00000000000E+00  0.00000000000E+00  0.29168099925E+03  0.31733744339E+03  0.12500099061E+03 0.  0.
    9000005    1    3    3    0    0  0.21396699105E+02 -0.57636398819E+02  0.17428489444E+03  0.18481341302E+03  0.10000000000E+01 0.  0.
    9000005    1    3    3    0    0 -0.21396699105E+02  0.57636398819E+02  0.11739610480E+03  0.13252403037E+03  0.10000000000E+01 0.  0.
<mgrwt>
<rscale>  0 0.12500099E+03</rscale>
<asrwt>0</asrwt>
<pdfrwt beam="1">  1        4 0.76127305E-01 0.12500099E+03</pdfrwt>
<pdfrwt beam="2">  1       -4 0.32070555E-02 0.12500099E+03</pdfrwt>
<totfact> 0.12498403E+03</totfact>
</mgrwt>
</event>
<event>
 5    1  0.1431256E-002  0.1249917E+03  0.7818608E-02  0.1235082E+00
          4   -1    0    0  501    0  0.00000000000E+00  0.00000000000E+00  0.71592742289E+01  0.72710458315E+01  0.12700000000E+01 0.  1.
         -4   -1    0    0    0  501 -0.00000000000E+00 -0.00000000000E+00 -0.54121001864E+03  0.54121150873E+03  0.12700000000E+01 0.  1.
         25    2    1    2    0    0  0.00000000000E+00  0.00000000000E+00 -0.53405074441E+03  0.54848255456E+03  0.12499165991E+03 0.  0.
    9000005    1    3    3    0    0 -0.43487228712E+02  0.12547486263E+02 -0.77970292136E+02  0.90160661756E+02  0.10000000000E+01 0.  0.
    9000005    1    3    3    0    0  0.43487228712E+02 -0.12547486263E+02 -0.45608045228E+03  0.45832189280E+03  0.10000000000E+01 0.  0.
<mgrwt>
<rscale>  0 0.12499166E+03</rscale>
<asrwt>0</asrwt>
<pdfrwt beam="1">  1        4 0.18039781E-02 0.12499166E+03</pdfrwt>
<pdfrwt beam="2">  1       -4 0.13531652E+00 0.12499166E+03</pdfrwt>
<totfact> 0.80393823E+02</totfact>
</mgrwt>
</event>
<event>
 5    1  0.1431256E-002  0.1249874E+03  0.7818608E-02  0.1235089E+00
          4   -1    0    0  501    0  0.00000000000E+00  0.00000000000E+00  0.13891523611E+03  0.13892104133E+03  0.12700000000E+01 0.  1.
         -4   -1    0    0    0  501 -0.00000000000E+00 -0.00000000000E+00 -0.28093258633E+02  0.28121950157E+02  0.12700000000E+01 0.  1.
         25    2    1    2    0    0  0.00000000000E+00  0.00000000000E+00  0.11082197748E+03  0.16704299149E+03  0.12498740061E+03 0.  0.
    9000005    1    3    3    0    0  0.44578796415E+02 -0.35973486643E+02  0.22049800758E+02  0.61388553856E+02  0.10000000000E+01 0.  0.
    9000005    1    3    3    0    0 -0.44578796415E+02  0.35973486643E+02  0.88772176720E+02  0.10565443763E+03  0.10000000000E+01 0.  0.
<mgrwt>
<rscale>  0 0.12498740E+03</rscale>
<asrwt>0</asrwt>
<pdfrwt beam="1">  1        4 0.34733120E-01 0.12498740E+03</pdfrwt>
<pdfrwt beam="2">  1       -4 0.70276269E-02 0.12498740E+03</pdfrwt>
<totfact> 0.17736440E+03</totfact>
</mgrwt>
</event>
<event>
 5    1  0.1431256E-002  0.1249994E+03  0.7818608E-02  0.1235070E+00
          4   -1    0    0  501    0  0.00000000000E+00  0.00000000000E+00  0.32204170906E+03  0.32204421323E+03  0.12700000000E+01 0.  1.
         -4   -1    0    0    0  501 -0.00000000000E+00 -0.00000000000E+00 -0.12093714573E+02  0.12160215137E+02  0.12700000000E+01 0.  1.
         25    2    1    2    0    0  0.00000000000E+00  0.00000000000E+00  0.30994799449E+03  0.33420442837E+03  0.12499936261E+03 0.  0.
    9000005    1    3    3    0    0  0.31639291094E+02  0.47087387529E+02  0.22504928117E+03  0.23209145990E+03  0.10000000000E+01 0.  0.
    9000005    1    3    3    0    0 -0.31639291094E+02 -0.47087387529E+02  0.84898713320E+02  0.10211296846E+03  0.10000000000E+01 0.  0.
<mgrwt>
<rscale>  0 0.12499936E+03</rscale>
<asrwt>0</asrwt>
<pdfrwt beam="1">  1        4 0.80519053E-01 0.12499936E+03</pdfrwt>
<pdfrwt beam="2">  1       -4 0.30320542E-02 0.12499936E+03</pdfrwt>
<totfact> 0.12063987E+03</totfact>
</mgrwt>
</event>
<event>
 5    1  0.1431256E-002  0.1249990E+03  0.7818608E-02  0.1235071E+00
          4   -1    0    0  501    0  0.00000000000E+00  0.00000000000E+00  0.37685971557E+02  0.37707364695E+02  0.12700000000E+01 0. -1.
         -4   -1    0    0    0  501 -0.00000000000E+00 -0.00000000000E+00 -0.10359634874E+03  0.10360413299E+03  0.12700000000E+01 0. -1.
         25    2    1    2    0    0  0.00000000000E+00  0.00000000000E+00 -0.65910377179E+02  0.14131149768E+03  0.12499904622E+03 0.  0.
    9000005    1    3    3    0    0 -0.34004565960E+02  0.14644964418E+02  0.23957460346E+02  0.44110604112E+02  0.10000000000E+01 0.  0.
    9000005    1    3    3    0    0  0.34004565960E+02 -0.14644964418E+02 -0.89867837525E+02  0.97200893568E+02  0.10000000000E+01 0.  0.
<mgrwt>
<rscale>  0 0.12499905E+03</rscale>
<asrwt>0</asrwt>
<pdfrwt beam="1">  1        4 0.94251403E-02 0.12499905E+03</pdfrwt>
<pdfrwt beam="2">  1       -4 0.25902734E-01 0.12499905E+03</pdfrwt>
<totfact> 0.18973870E+03</totfact>
</mgrwt>
</event>
<event>
 5    1  0.1431256E-002  0.1249985E+03  0.7818608E-02  0.1235072E+00
         -4   -1    0    0    0  501 -0.00000000000E+00  0.00000000000E+00  0.78649365752E+02  0.78659618822E+02  0.12700000000E+01 0.  1.
          4   -1    0    0  501    0  0.00000000000E+00 -0.00000000000E+00 -0.49643804569E+02  0.49660046638E+02  0.12700000000E+01 0.  1.
         25    2    1    2    0    0  0.00000000000E+00  0.00000000000E+00  0.29005561184E+02  0.12831966546E+03  0.12499845585E+03 0.  0.
    9000005    1    3    3    0    0 -0.63488817254E+01  0.43350990943E+02 -0.31240524280E+02  0.53819950503E+02  0.10000000000E+01 0.  0.
    9000005    1    3    3    0    0  0.63488817254E+01 -0.43350990943E+02  0.60246085463E+02  0.74499714956E+02  0.10000000000E+01 0.  0.
<mgrwt>
<rscale>  0 0.12499846E+03</rscale>
<asrwt>0</asrwt>
<pdfrwt beam="2">  1        4 0.12414263E-01 0.12499846E+03</pdfrwt>
<pdfrwt beam="1">  1       -4 0.19665653E-01 0.12499846E+03</pdfrwt>
<totfact> 0.19655867E+03</totfact>
</mgrwt>
</event>
<event>
 5    1  0.1431256E-002  0.1249911E+03  0.7818608E-02  0.1235083E+00
          4   -1    0    0  501    0  0.00000000000E+00  0.00000000000E+00  0.68198692111E+02  0.68210516093E+02  0.12700000000E+01 0. -1.
         -4   -1    0    0    0  501 -0.00000000000E+00 -0.00000000000E+00 -0.57245459283E+02  0.57259545131E+02  0.12700000000E+01 0. -1.
         25    2    1    2    0    0  0.00000000000E+00  0.00000000000E+00  0.10953232828E+02  0.12547006122E+03  0.12499105150E+03 0.  0.
    9000005    1    3    3    0    0  0.44835411141E+02  0.82310512816E+01  0.48380632406E+02  0.66480447421E+02  0.10000000000E+01 0.  0.
    9000005    1    3    3    0    0 -0.44835411141E+02 -0.82310512816E+01 -0.37427399578E+02  0.58989613802E+02  0.10000000000E+01 0.  0.
<mgrwt>
<rscale>  0 0.12499105E+03</rscale>
<asrwt>0</asrwt>
<pdfrwt beam="1">  1        4 0.17052912E-01 0.12499105E+03</pdfrwt>
<pdfrwt beam="2">  1       -4 0.14314604E-01 0.12499105E+03</pdfrwt>
<totfact> 0.19813732E+03</totfact>
</mgrwt>
</event>
<event>
 5    1  0.1431256E-002  0.1250014E+03  0.7818608E-02  0.1235067E+00
          4   -1    0    0  501    0  0.00000000000E+00  0.00000000000E+00  0.11400587940E+03  0.11401295294E+03  0.12700000000E+01 0.  1.
         -4   -1    0    0    0  501 -0.00000000000E+00 -0.00000000000E+00 -0.34244417131E+02  0.34267958863E+02  0.12700000000E+01 0.  1.
         25    2    1    2    0    0  0.00000000000E+00  0.00000000000E+00  0.79761462267E+02  0.14828091180E+03  0.12500135176E+03 0.  0.
    9000005    1    3    3    0    0  0.21309053641E+02  0.49679631828E+02  0.26852736037E+01  0.54132728363E+02  0.10000000000E+01 0.  0.
    9000005    1    3    3    0    0 -0.21309053641E+02 -0.49679631828E+02  0.77076188663E+02  0.94148183437E+02  0.10000000000E+01 0.  0.
<mgrwt>
<rscale>  0 0.12500135E+03</rscale>
<asrwt>0</asrwt>
<pdfrwt beam="1">  1        4 0.28505296E-01 0.12500135E+03</pdfrwt>
<pdfrwt beam="2">  1       -4 0.85649313E-02 0.12500135E+03</pdfrwt>
<totfact> 0.18623047E+03</totfact>
</mgrwt>
</event>
<event>
 5    1  0.1431256E-002  0.1249998E+03  0.7818608E-02  0.1235070E+00
         -4   -1    0    0    0  501 -0.00000000000E+00  0.00000000000E+00  0.13139730580E+03  0.13140344315E+03  0.12700000000E+01 0. -1.
          4   -1    0    0  501    0  0.00000000000E+00 -0.00000000000E+00 -0.29708068791E+02  0.29735202224E+02  0.12700000000E+01 0. -1.
         25    2    1    2    0    0  0.00000000000E+00  0.00000000000E+00  0.10168923701E+03  0.16113864538E+03  0.12499984844E+03 0.  0.
    9000005    1    3    3    0    0 -0.51628310819E+02 -0.30095623993E+02  0.74404381090E+02  0.95437104875E+02  0.10000000000E+01 0.  0.
    9000005    1    3    3    0    0  0.51628310819E+02  0.30095623993E+02  0.27284855923E+02  0.65701540501E+02  0.10000000000E+01 0.  0.
<mgrwt>
<rscale>  0 0.12499985E+03</rscale>
<asrwt>0</asrwt>
<pdfrwt beam="2">  1        4 0.74311762E-02 0.12499985E+03</pdfrwt>
<pdfrwt beam="1">  1       -4 0.32853485E-01 0.12499985E+03</pdfrwt>
<totfact> 0.18004363E+03</totfact>
</mgrwt>
</event>
<event>
 5    1  0.1431256E-002  0.1250013E+03  0.7818608E-02  0.1235067E+00
          4   -1    0    0  501    0  0.00000000000E+00  0.00000000000E+00  0.39685794095E+03  0.39685997303E+03  0.12700000000E+01 0.  1.
         -4   -1    0    0    0  501 -0.00000000000E+00 -0.00000000000E+00 -0.98001135554E+01  0.98820608022E+01  0.12700000000E+01 0.  1.
         25    2    1    2    0    0  0.00000000000E+00  0.00000000000E+00  0.38705782740E+03  0.40674203384E+03  0.12500128136E+03 0.  0.
    9000005    1    3    3    0    0 -0.26133355720E+02  0.23087862259E+02  0.36227220347E+03  0.36394800600E+03  0.10000000000E+01 0.  0.
    9000005    1    3    3    0    0  0.26133355720E+02 -0.23087862259E+02  0.24785623924E+02  0.42794027833E+02  0.10000000000E+01 0.  0.
<mgrwt>
<rscale>  0 0.12500128E+03</rscale>
<asrwt>0</asrwt>
<pdfrwt beam="1">  1        4 0.99224974E-01 0.12500128E+03</pdfrwt>
<pdfrwt beam="2">  1       -4 0.24605260E-02 0.12500128E+03</pdfrwt>
<totfact> 0.10431326E+03</totfact>
</mgrwt>
</event>
<event>
 5    1  0.1431256E-002  0.1250007E+03  0.7818608E-02  0.1235068E+00
          4   -1    0    0  501    0  0.00000000000E+00  0.00000000000E+00  0.86665092749E+02  0.86674397611E+02  0.12700000000E+01 0.  1.
         -4   -1    0    0    0  501 -0.00000000000E+00 -0.00000000000E+00 -0.45052763489E+02  0.45070660057E+02  0.12700000000E+01 0.  1.
         25    2    1    2    0    0  0.00000000000E+00  0.00000000000E+00  0.41612329260E+02  0.13174505767E+03  0.12500069709E+03 0.  0.
    9000005    1    3    3    0    0 -0.98355278399E+01  0.57910824306E+02  0.43285125541E+02  0.72972620021E+02  0.10000000000E+01 0.  0.
    9000005    1    3    3    0    0  0.98355278399E+01 -0.57910824306E+02 -0.16727962802E+01  0.58772437648E+02  0.10000000000E+01 0.  0.
<mgrwt>
<rscale>  0 0.12500070E+03</rscale>
<asrwt>0</asrwt>
<pdfrwt beam="1">  1        4 0.21669673E-01 0.12500070E+03</pdfrwt>
<pdfrwt beam="2">  1       -4 0.11266591E-01 0.12500070E+03</pdfrwt>
<totfact> 0.19470704E+03</totfact>
</mgrwt>
</event>
<event>
 4    1  0.1431256E-002  0.1252525E+03  0.7818608E-02  0.1234675E+00
         -4   -1    0    0    0  501 -0.00000000000E+00  0.00000000000E+00  0.19577594242E+02  0.19618743495E+02  0.12700000000E+01 0. -1.
          4   -1    0    0  501    0  0.00000000000E+00 -0.00000000000E+00 -0.20008009886E+03  0.20008412946E+03  0.12700000000E+01 0. -1.
    9000005    1    1    2    0    0  0.45031045820E+02 -0.34450227579E+02 -0.13687269419E+03  0.14815447237E+03  0.10000000000E+01 0.  0.
    9000005    1    1    2    0    0 -0.45031045820E+02  0.34450227579E+02 -0.43629810429E+02  0.71548400583E+02  0.10000000000E+01 0.  0.
<mgrwt>
<rscale>  0 0.12525254E+03</rscale>
<asrwt>0</asrwt>
<pdfrwt beam="2">  1        4 0.50025666E-01 0.12525254E+03</pdfrwt>
<pdfrwt beam="1">  1       -4 0.49000467E-02 0.12525254E+03</pdfrwt>
<totfact> 0.15472024E+03</totfact>
</mgrwt>
</event>
<event>
 5    1  0.1431256E-002  0.1249972E+03  0.7818608E-02  0.1235074E+00
          4   -1    0    0  501    0  0.00000000000E+00  0.00000000000E+00  0.34926354200E+03  0.34926585100E+03  0.12700000000E+01 0. -1.
         -4   -1    0    0    0  501 -0.00000000000E+00 -0.00000000000E+00 -0.11145338668E+02  0.11217462905E+02  0.12700000000E+01 0. -1.
         25    2    1    2    0    0  0.00000000000E+00  0.00000000000E+00  0.33811820333E+03  0.36048331390E+03  0.12499720067E+03 0.  0.
    9000005    1    3    3    0    0 -0.22492411518E+02  0.18986807684E+02  0.10084964129E+02  0.31130594973E+02  0.10000000000E+01 0.  0.
    9000005    1    3    3    0    0  0.22492411518E+02 -0.18986807684E+02  0.32803323921E+03  0.32935271893E+03  0.10000000000E+01 0.  0.
<mgrwt>
<rscale>  0 0.12499720E+03</rscale>
<asrwt>0</asrwt>
<pdfrwt beam="1">  1        4 0.87325184E-01 0.12499720E+03</pdfrwt>
<pdfrwt beam="2">  1       -4 0.27956390E-02 0.12499720E+03</pdfrwt>
<totfact> 0.11431952E+03</totfact>
</mgrwt>
</event>
<event>
 5    1  0.1431256E-002  0.1250051E+03  0.7818608E-02  0.1235061E+00
          4   -1    0    0  501    0  0.00000000000E+00  0.00000000000E+00  0.42414048940E+02  0.42433058427E+02  0.12700000000E+01 0. -1.
         -4   -1    0    0    0  501 -0.00000000000E+00 -0.00000000000E+00 -0.92061459099E+02  0.92070218591E+02  0.12700000000E+01 0. -1.
         25    2    1    2    0    0  0.00000000000E+00  0.00000000000E+00 -0.49647410159E+02  0.13450327702E+03  0.12500506467E+03 0.  0.
    9000005    1    3    3    0    0 -0.76505819911E+01  0.61202422426E+02 -0.35653171228E+02  0.71248975672E+02  0.10000000000E+01 0.  0.
    9000005    1    3    3    0    0  0.76505819911E+01 -0.61202422426E+02 -0.13994238931E+02  0.63254301347E+02  0.10000000000E+01 0.  0.
<mgrwt>
<rscale>  0 0.12500506E+03</rscale>
<asrwt>0</asrwt>
<pdfrwt beam="1">  1        4 0.10606984E-01 0.12500506E+03</pdfrwt>
<pdfrwt beam="2">  1       -4 0.23018836E-01 0.12500506E+03</pdfrwt>
<totfact> 0.19322903E+03</totfact>
</mgrwt>
</event>
<event>
 5    1  0.1431256E-002  0.1250016E+03  0.7818608E-02  0.1235067E+00
         -4   -1    0    0    0  501 -0.00000000000E+00  0.00000000000E+00  0.96679905277E+02  0.96688246361E+02  0.12700000000E+01 0.  1.
          4   -1    0    0  501    0  0.00000000000E+00 -0.00000000000E+00 -0.40384929741E+02  0.40404893889E+02  0.12700000000E+01 0.  1.
         25    2    1    2    0    0  0.00000000000E+00  0.00000000000E+00  0.56294975537E+02  0.13709314025E+03  0.12500161932E+03 0.  0.
    9000005    1    3    3    0    0 -0.16775773055E+02 -0.31828685967E+02 -0.27891699421E+02  0.45535027271E+02  0.10000000000E+01 0.  0.
    9000005    1    3    3    0    0  0.16775773055E+02  0.31828685967E+02  0.84186674957E+02  0.91558112979E+02  0.10000000000E+01 0.  0.
<mgrwt>
<rscale>  0 0.12500162E+03</rscale>
<asrwt>0</asrwt>
<pdfrwt beam="2">  1        4 0.10099771E-01 0.12500162E+03</pdfrwt>
<pdfrwt beam="1">  1       -4 0.24173514E-01 0.12500162E+03</pdfrwt>
<totfact> 0.19189330E+03</totfact>
</mgrwt>
</event>
<event>
 5    1  0.1431256E-002  0.1249989E+03  0.7818608E-02  0.1235071E+00
          4   -1    0    0  501    0  0.00000000000E+00  0.00000000000E+00  0.53514385372E+02  0.53529453031E+02  0.12700000000E+01 0.  1.
         -4   -1    0    0    0  501 -0.00000000000E+00 -0.00000000000E+00 -0.72962187171E+02  0.72973239320E+02  0.12700000000E+01 0.  1.
         25    2    1    2    0    0  0.00000000000E+00  0.00000000000E+00 -0.19447801799E+02  0.12650269235E+03  0.12499885670E+03 0.  0.
    9000005    1    3    3    0    0 -0.31470254569E+02 -0.33560762320E+01  0.44808863411E+02  0.54867790283E+02  0.10000000000E+01 0.  0.
    9000005    1    3    3    0    0  0.31470254569E+02  0.33560762320E+01 -0.64256665210E+02  0.71634902068E+02  0.10000000000E+01 0.  0.
<mgrwt>
<rscale>  0 0.12499886E+03</rscale>
<asrwt>0</asrwt>
<pdfrwt beam="1">  1        4 0.13381861E-01 0.12499886E+03</pdfrwt>
<pdfrwt beam="2">  1       -4 0.18243812E-01 0.12499886E+03</pdfrwt>
<totfact> 0.19754308E+03</totfact>
</mgrwt>
</event>
<event>
 5    1  0.1431256E-002  0.1249982E+03  0.7818608E-02  0.1235072E+00
         -4   -1    0    0    0  501 -0.00000000000E+00  0.00000000000E+00  0.73873229949E+01  0.74956948331E+01  0.12700000000E+01 0. -1.
          4   -1    0    0  501    0  0.00000000000E+00 -0.00000000000E+00 -0.52480291730E+03  0.52480445397E+03  0.12700000000E+01 0. -1.
         25    2    1    2    0    0  0.00000000000E+00  0.00000000000E+00 -0.51741559431E+03  0.53230014881E+03  0.12499820473E+03 0.  0.
    9000005    1    3    3    0    0  0.35613883194E+02  0.85232913647E+01 -0.43070489347E+02  0.56542570020E+02  0.10000000000E+01 0.  0.
    9000005    1    3    3    0    0 -0.35613883194E+02 -0.85232913647E+01 -0.47434510496E+03  0.47575757879E+03  0.10000000000E+01 0.  0.
<mgrwt>
<rscale>  0 0.12499820E+03</rscale>
<asrwt>0</asrwt>
<pdfrwt beam="2">  1        4 0.13121434E+00 0.12499820E+03</pdfrwt>
<pdfrwt beam="1">  1       -4 0.18605711E-02 0.12499820E+03</pdfrwt>
<totfact> 0.82692049E+02</totfact>
</mgrwt>
</event>
<event>
 5    1  0.1431256E-002  0.1249993E+03  0.7818608E-02  0.1235070E+00
          4   -1    0    0  501    0  0.00000000000E+00  0.00000000000E+00  0.62625085404E+03  0.62625214178E+03  0.12700000000E+01 0.  1.
         -4   -1    0    0    0  501 -0.00000000000E+00 -0.00000000000E+00 -0.61714969456E+01  0.63008153876E+01  0.12700000000E+01 0.  1.
         25    2    1    2    0    0  0.00000000000E+00  0.00000000000E+00  0.62007935709E+03  0.63255295716E+03  0.12499933811E+03 0.  0.
    9000005    1    3    3    0    0 -0.37468134789E+02 -0.43107913248E+02  0.43836529103E+03  0.44207157983E+03  0.10000000000E+01 0.  0.
    9000005    1    3    3    0    0  0.37468134789E+02  0.43107913248E+02  0.18171406606E+03  0.19048137734E+03  0.10000000000E+01 0.  0.
<mgrwt>
<rscale>  0 0.12499934E+03</rscale>
<asrwt>0</asrwt>
<pdfrwt beam="1">  1        4 0.15657904E+00 0.12499934E+03</pdfrwt>
<pdfrwt beam="2">  1       -4 0.15592000E-02 0.12499934E+03</pdfrwt>
<totfact> 0.69544275E+02</totfact>
</mgrwt>
</event>
<event>
 5    1  0.1431256E-002  0.1249994E+03  0.7818608E-02  0.1235070E+00
         -4   -1    0    0    0  501 -0.00000000000E+00  0.00000000000E+00  0.48215402810E+03  0.48215570070E+03  0.12700000000E+01 0. -1.
          4   -1    0    0  501    0  0.00000000000E+00 -0.00000000000E+00 -0.80501170576E+01  0.81496800330E+01  0.12700000000E+01 0. -1.
         25    2    1    2    0    0  0.00000000000E+00  0.00000000000E+00  0.47410391105E+03  0.49030538073E+03  0.12499939162E+03 0.  0.
    9000005    1    3    3    0    0 -0.16143785613E+02 -0.60370136453E+02  0.23780428252E+03  0.24588015775E+03  0.10000000000E+01 0.  0.
    9000005    1    3    3    0    0  0.16143785613E+02  0.60370136453E+02  0.23629962853E+03  0.24442522298E+03  0.10000000000E+01 0.  0.
<mgrwt>
<rscale>  0 0.12499939E+03</rscale>
<asrwt>0</asrwt>
<pdfrwt beam="2">  1        4 0.20251839E-02 0.12499939E+03</pdfrwt>
<pdfrwt beam="1">  1       -4 0.12055115E+00 0.12499939E+03</pdfrwt>
<totfact> 0.89170330E+02</totfact>
</mgrwt>
</event>
<event>
 5    1  0.1431256E-002  0.1250041E+03  0.7818608E-02  0.1235063E+00
          4   -1    0    0  501    0  0.00000000000E+00  0.00000000000E+00  0.94412276037E+01  0.95262625759E+01  0.12700000000E+01 0. -1.
         -4   -1    0    0    0  501 -0.00000000000E+00 -0.00000000000E+00 -0.41183024166E+03  0.41183219987E+03  0.12700000000E+01 0. -1.
         25    2    1    2    0    0  0.00000000000E+00  0.00000000000E+00 -0.40238901406E+03  0.42135846244E+03  0.12500414088E+03 0.  0.
    9000005    1    3    3    0    0 -0.48804119845E+02  0.38821533836E+02 -0.21490946930E+03  0.22377674946E+03  0.10000000000E+01 0.  0.
    9000005    1    3    3    0    0  0.48804119845E+02 -0.38821533836E+02 -0.18747954476E+03  0.19758171299E+03  0.10000000000E+01 0.  0.
<mgrwt>
<rscale>  0 0.12500414E+03</rscale>
<asrwt>0</asrwt>
<pdfrwt beam="1">  1        4 0.23711824E-02 0.12500414E+03</pdfrwt>
<pdfrwt beam="2">  1       -4 0.10296837E+00 0.12500414E+03</pdfrwt>
<totfact> 0.10138476E+03</totfact>
</mgrwt>
</event>
<event>
 5    1  0.1431256E-002  0.1249939E+03  0.7818608E-02  0.1235079E+00
          4   -1    0    0  501    0  0.00000000000E+00  0.00000000000E+00  0.94038953726E+02  0.94047529037E+02  0.12700000000E+01 0.  1.
         -4   -1    0    0    0  501 -0.00000000000E+00 -0.00000000000E+00 -0.41514393122E+02  0.41533814372E+02  0.12700000000E+01 0.  1.
         25    2    1    2    0    0  0.00000000000E+00  0.00000000000E+00  0.52524560605E+02  0.13558134341E+03  0.12499388471E+03 0.  0.
    9000005    1    3    3    0    0 -0.71299981244E+01  0.44483896556E+02 -0.20709451358E+02  0.49593702237E+02  0.10000000000E+01 0.  0.
    9000005    1    3    3    0    0  0.71299981244E+01 -0.44483896556E+02  0.73234011963E+02  0.85987641171E+02  0.10000000000E+01 0.  0.
<mgrwt>
<rscale>  0 0.12499388E+03</rscale>
<asrwt>0</asrwt>
<pdfrwt beam="1">  1        4 0.23513238E-01 0.12499388E+03</pdfrwt>
<pdfrwt beam="2">  1       -4 0.10382098E-01 0.12499388E+03</pdfrwt>
<totfact> 0.19271480E+03</totfact>
</mgrwt>
</event>
<event>
 5    1  0.1431256E-002  0.1250009E+03  0.7818608E-02  0.1235068E+00
          4   -1    0    0  501    0  0.00000000000E+00  0.00000000000E+00  0.67271541685E+01  0.68459844585E+01  0.12700000000E+01 0. -1.
         -4   -1    0    0    0  501 -0.00000000000E+00 -0.00000000000E+00 -0.57547389883E+03  0.57547530020E+03  0.12700000000E+01 0. -1.
         25    2    1    2    0    0  0.00000000000E+00  0.00000000000E+00 -0.56874674467E+03  0.58232128466E+03  0.12500087599E+03 0.  0.
    9000005    1    3    3    0    0  0.22058240327E+02  0.39815423893E+02 -0.48384751503E+03  0.48598482667E+03  0.10000000000E+01 0.  0.
    9000005    1    3    3    0    0 -0.22058240327E+02 -0.39815423893E+02 -0.84899229632E+02  0.96336457991E+02  0.10000000000E+01 0.  0.
<mgrwt>
<rscale>  0 0.12500088E+03</rscale>
<asrwt>0</asrwt>
<pdfrwt beam="1">  1        4 0.16968195E-02 0.12500088E+03</pdfrwt>
<pdfrwt beam="2">  1       -4 0.14388334E+00 0.12500088E+03</pdfrwt>
<totfact> 0.75771862E+02</totfact>
</mgrwt>
</event>
<event>
 5    1  0.1431256E-002  0.1249989E+03  0.7818608E-02  0.1235071E+00
          4   -1    0    0  501    0  0.00000000000E+00  0.00000000000E+00  0.30162618521E+02  0.30189343418E+02  0.12700000000E+01 0.  1.
         -4   -1    0    0    0  501 -0.00000000000E+00 -0.00000000000E+00 -0.12941688676E+03  0.12942311802E+03  0.12700000000E+01 0.  1.
         25    2    1    2    0    0  0.00000000000E+00  0.00000000000E+00 -0.99254268241E+02  0.15961246144E+03  0.12499891233E+03 0.  0.
    9000005    1    3    3    0    0 -0.53558369425E+02 -0.31983443321E+02 -0.54360744039E+02  0.82749804076E+02  0.10000000000E+01 0.  0.
    9000005    1    3    3    0    0  0.53558369425E+02  0.31983443321E+02 -0.44893524202E+02  0.76862657366E+02  0.10000000000E+01 0.  0.
<mgrwt>
<rscale>  0 0.12499891E+03</rscale>
<asrwt>0</asrwt>
<pdfrwt beam="1">  1        4 0.75447745E-02 0.12499891E+03</pdfrwt>
<pdfrwt beam="2">  1       -4 0.32358340E-01 0.12499891E+03</pdfrwt>
<totfact> 0.18076465E+03</totfact>
</mgrwt>
</event>
<event>
 5    1  0.1431256E-002  0.1250009E+03  0.7818608E-02  0.1235068E+00
          4   -1    0    0  501    0  0.00000000000E+00  0.00000000000E+00  0.21240424816E+02  0.21278358639E+02  0.12700000000E+01 0.  1.
         -4   -1    0    0    0  501 -0.00000000000E+00 -0.00000000000E+00 -0.18370488539E+03  0.18370927526E+03  0.12700000000E+01 0.  1.
         25    2    1    2    0    0  0.00000000000E+00  0.00000000000E+00 -0.16246446058E+03  0.20498763390E+03  0.12500091640E+03 0.  0.
    9000005    1    3    3    0    0 -0.56584682015E+02  0.31750237084E+01 -0.12441459947E+03  0.13671832202E+03  0.10000000000E+01 0.  0.
    9000005    1    3    3    0    0  0.56584682015E+02 -0.31750237084E+01 -0.38049861101E+02  0.68269311876E+02  0.10000000000E+01 0.  0.
<mgrwt>
<rscale>  0 0.12500092E+03</rscale>
<asrwt>0</asrwt>
<pdfrwt beam="1">  1        4 0.53153972E-02 0.12500092E+03</pdfrwt>
<pdfrwt beam="2">  1       -4 0.45931507E-01 0.12500092E+03</pdfrwt>
<totfact> 0.16123917E+03</totfact>
</mgrwt>
</event>
<event>
 5    1  0.1431256E-002  0.1250015E+03  0.7818608E-02  0.1235067E+00
          4   -1    0    0  501    0  0.00000000000E+00  0.00000000000E+00  0.59337789951E+02  0.59351379228E+02  0.12700000000E+01 0.  1.
         -4   -1    0    0    0  501 -0.00000000000E+00 -0.00000000000E+00 -0.65805071007E+02  0.65817325001E+02  0.12700000000E+01 0.  1.
         25    2    1    2    0    0  0.00000000000E+00  0.00000000000E+00 -0.64672810562E+01  0.12516870423E+03  0.12500151517E+03 0.  0.
    9000005    1    3    3    0    0  0.19496774217E+01  0.18114818587E+02 -0.63091488855E+02  0.65677118241E+02  0.10000000000E+01 0.  0.
    9000005    1    3    3    0    0 -0.19496774217E+01 -0.18114818587E+02  0.56624207799E+02  0.59491585988E+02  0.10000000000E+01 0.  0.
<mgrwt>
<rscale>  0 0.12500152E+03</rscale>
<asrwt>0</asrwt>
<pdfrwt beam="1">  1        4 0.14837678E-01 0.12500152E+03</pdfrwt>
<pdfrwt beam="2">  1       -4 0.16454498E-01 0.12500152E+03</pdfrwt>
<totfact> 0.19825206E+03</totfact>
</mgrwt>
</event>
<event>
 5    1  0.1431256E-002  0.1249968E+03  0.7818608E-02  0.1235074E+00
         -4   -1    0    0    0  501 -0.00000000000E+00  0.00000000000E+00  0.83889551009E+02  0.83899163694E+02  0.12700000000E+01 0. -1.
          4   -1    0    0  501    0  0.00000000000E+00 -0.00000000000E+00 -0.46540850079E+02  0.46558174643E+02  0.12700000000E+01 0. -1.
         25    2    1    2    0    0  0.00000000000E+00  0.00000000000E+00  0.37348700930E+02  0.13045733834E+03  0.12499676662E+03 0.  0.
    9000005    1    3    3    0    0  0.28655123274E+02 -0.25542668589E+02  0.70138786804E+02  0.79962450080E+02  0.10000000000E+01 0.  0.
    9000005    1    3    3    0    0 -0.28655123274E+02  0.25542668589E+02 -0.32790085874E+02  0.50494888257E+02  0.10000000000E+01 0.  0.
<mgrwt>
<rscale>  0 0.12499677E+03</rscale>
<asrwt>0</asrwt>
<pdfrwt beam="2">  1        4 0.11638580E-01 0.12499677E+03</pdfrwt>
<pdfrwt beam="1">  1       -4 0.20975755E-01 0.12499677E+03</pdfrwt>
<totfact> 0.19541303E+03</totfact>
</mgrwt>
</event>
<event>
 5    1  0.1431256E-002  0.1250001E+03  0.7818608E-02  0.1235069E+00
          4   -1    0    0  501    0  0.00000000000E+00  0.00000000000E+00  0.13248296234E+03  0.13248904940E+03  0.12700000000E+01 0. -1.
         -4   -1    0    0    0  501 -0.00000000000E+00 -0.00000000000E+00 -0.29464510310E+02  0.29491867825E+02  0.12700000000E+01 0. -1.
         25    2    1    2    0    0  0.00000000000E+00  0.00000000000E+00  0.10301845203E+03  0.16198091722E+03  0.12500006434E+03 0.  0.
    9000005    1    3    3    0    0  0.40475285435E+02 -0.38174637262E+02  0.14635559813E+02  0.57539128184E+02  0.10000000000E+01 0.  0.
    9000005    1    3    3    0    0 -0.40475285435E+02  0.38174637262E+02  0.88382892218E+02  0.10444178904E+03  0.10000000000E+01 0.  0.
<mgrwt>
<rscale>  0 0.12500006E+03</rscale>
<asrwt>0</asrwt>
<pdfrwt beam="1">  1        4 0.33124921E-01 0.12500006E+03</pdfrwt>
<pdfrwt beam="2">  1       -4 0.73703082E-02 0.12500006E+03</pdfrwt>
<totfact> 0.17964899E+03</totfact>
</mgrwt>
</event>
<event>
 5    1  0.1431256E-002  0.1249904E+03  0.7818608E-02  0.1235084E+00
         -4   -1    0    0    0  501 -0.00000000000E+00  0.00000000000E+00  0.95899905328E+01  0.96737179212E+01  0.12700000000E+01 0.  1.
          4   -1    0    0  501    0  0.00000000000E+00 -0.00000000000E+00 -0.40540820262E+03  0.40541019184E+03  0.12700000000E+01 0.  1.
         25    2    1    2    0    0  0.00000000000E+00  0.00000000000E+00 -0.39581821208E+03  0.41508390976E+03  0.12499038014E+03 0.  0.
    9000005    1    3    3    0    0 -0.44319931597E+02  0.41823028208E+02 -0.15198574781E+03  0.16375008263E+03  0.10000000000E+01 0.  0.
    9000005    1    3    3    0    0  0.44319931597E+02 -0.41823028208E+02 -0.24383246428E+03  0.25133382713E+03  0.10000000000E+01 0.  0.
<mgrwt>
<rscale>  0 0.12499038E+03</rscale>
<asrwt>0</asrwt>
<pdfrwt beam="2">  1        4 0.10136271E+00 0.12499038E+03</pdfrwt>
<pdfrwt beam="1">  1       -4 0.24082136E-02 0.12499038E+03</pdfrwt>
<totfact> 0.10265904E+03</totfact>
</mgrwt>
</event>
<event>
 5    1  0.1431256E-002  0.1249995E+03  0.7818608E-02  0.1235070E+00
         -4   -1    0    0    0  501 -0.00000000000E+00  0.00000000000E+00  0.13912258077E+03  0.13912837733E+03  0.12700000000E+01 0. -1.
          4   -1    0    0  501    0  0.00000000000E+00 -0.00000000000E+00 -0.28056784806E+02  0.28085513591E+02  0.12700000000E+01 0. -1.
         25    2    1    2    0    0  0.00000000000E+00  0.00000000000E+00  0.11106579596E+03  0.16721389092E+03  0.12499949714E+03 0.  0.
    9000005    1    3    3    0    0  0.54022363687E+01  0.60489625327E+02  0.35825303454E+02  0.70516886613E+02  0.10000000000E+01 0.  0.
    9000005    1    3    3    0    0 -0.54022363687E+01 -0.60489625327E+02  0.75240492508E+02  0.96697004312E+02  0.10000000000E+01 0.  0.
<mgrwt>
<rscale>  0 0.12499950E+03</rscale>
<asrwt>0</asrwt>
<pdfrwt beam="2">  1        4 0.70185119E-02 0.12499950E+03</pdfrwt>
<pdfrwt beam="1">  1       -4 0.34784961E-01 0.12499950E+03</pdfrwt>
<totfact> 0.17723656E+03</totfact>
</mgrwt>
</event>
<event>
 5    1  0.1431256E-002  0.1249976E+03  0.7818608E-02  0.1235073E+00
         -4   -1    0    0    0  501 -0.00000000000E+00  0.00000000000E+00  0.56845713465E+03  0.56845855331E+03  0.12700000000E+01 0.  1.
          4   -1    0    0  501    0  0.00000000000E+00 -0.00000000000E+00 -0.68112887079E+01  0.69286761984E+01  0.12700000000E+01 0.  1.
         25    2    1    2    0    0  0.00000000000E+00  0.00000000000E+00  0.56164584594E+03  0.57538722951E+03  0.12499763046E+03 0.  0.
    9000005    1    3    3    0    0 -0.27370888716E+02  0.30526975005E+02  0.49790789017E+03  0.49959416414E+03  0.10000000000E+01 0.  0.
    9000005    1    3    3    0    0  0.27370888716E+02 -0.30526975005E+02  0.63737955777E+02  0.75793065374E+02  0.10000000000E+01 0.  0.
<mgrwt>
<rscale>  0 0.12499763E+03</rscale>
<asrwt>0</asrwt>
<pdfrwt beam="2">  1        4 0.17176734E-02 0.12499763E+03</pdfrwt>
<pdfrwt beam="1">  1       -4 0.14212910E+00 0.12499763E+03</pdfrwt>
<totfact> 0.76693833E+02</totfact>
</mgrwt>
</event>
<event>
 5    1  0.1431256E-002  0.1250037E+03  0.7818608E-02  0.1235064E+00
          4   -1    0    0  501    0  0.00000000000E+00  0.00000000000E+00  0.44691582670E+02  0.44709623814E+02  0.12700000000E+01 0.  1.
         -4   -1    0    0    0  501 -0.00000000000E+00 -0.00000000000E+00 -0.87369417587E+02  0.87378647446E+02  0.12700000000E+01 0.  1.
         25    2    1    2    0    0  0.00000000000E+00  0.00000000000E+00 -0.42677834917E+02  0.13208827126E+03  0.12500365519E+03 0.  0.
    9000005    1    3    3    0    0 -0.44497216147E+02  0.16272270189E+02  0.21722245516E+02  0.52131036554E+02  0.10000000000E+01 0.  0.
    9000005    1    3    3    0    0  0.44497216147E+02 -0.16272270189E+02 -0.64400080434E+02  0.79957234706E+02  0.10000000000E+01 0.  0.
<mgrwt>
<rscale>  0 0.12500366E+03</rscale>
<asrwt>0</asrwt>
<pdfrwt beam="1">  1        4 0.11176305E-01 0.12500366E+03</pdfrwt>
<pdfrwt beam="2">  1       -4 0.21845763E-01 0.12500366E+03</pdfrwt>
<totfact> 0.19451102E+03</totfact>
</mgrwt>
</event>
<event>
 5    1  0.1431256E-002  0.1250010E+03  0.7818608E-02  0.1235068E+00
         -4   -1    0    0    0  501 -0.00000000000E+00  0.00000000000E+00  0.12386626487E+03  0.12387277535E+03  0.12700000000E+01 0. -1.
          4   -1    0    0  501    0  0.00000000000E+00 -0.00000000000E+00 -0.31516395933E+02  0.31541973822E+02  0.12700000000E+01 0. -1.
         25    2    1    2    0    0  0.00000000000E+00  0.00000000000E+00  0.92349868939E+02  0.15541474917E+03  0.12500098387E+03 0.  0.
    9000005    1    3    3    0    0 -0.20542384581E+02  0.39738231786E+01 -0.27038192344E+02  0.34202992269E+02  0.10000000000E+01 0.  0.
    9000005    1    3    3    0    0  0.20542384581E+02 -0.39738231786E+01  0.11938806128E+03  0.12121175690E+03  0.10000000000E+01 0.  0.
<mgrwt>
<rscale>  0 0.12500098E+03</rscale>
<asrwt>0</asrwt>
<pdfrwt beam="2">  1        4 0.78831101E-02 0.12500098E+03</pdfrwt>
<pdfrwt beam="1">  1       -4 0.30970577E-01 0.12500098E+03</pdfrwt>
<totfact> 0.18275284E+03</totfact>
</mgrwt>
</event>
<event>
 5    1  0.1431256E-002  0.1249901E+03  0.7818608E-02  0.1235085E+00
          4   -1    0    0  501    0  0.00000000000E+00  0.00000000000E+00  0.50761549270E+02  0.50777433810E+02  0.12700000000E+01 0.  1.
         -4   -1    0    0    0  501 -0.00000000000E+00 -0.00000000000E+00 -0.76907516710E+02  0.76918001967E+02  0.12700000000E+01 0.  1.
         25    2    1    2    0    0  0.00000000000E+00  0.00000000000E+00 -0.26145967440E+02  0.12769543578E+03  0.12499005042E+03 0.  0.
    9000005    1    3    3    0    0  0.23567182482E+02  0.33397493390E+01 -0.72099498509E+02  0.75933547929E+02  0.10000000000E+01 0.  0.
    9000005    1    3    3    0    0 -0.23567182482E+02 -0.33397493390E+01  0.45953531069E+02  0.51761887847E+02  0.10000000000E+01 0.  0.
<mgrwt>
<rscale>  0 0.12499005E+03</rscale>
<asrwt>0</asrwt>
<pdfrwt beam="1">  1        4 0.12693684E-01 0.12499005E+03</pdfrwt>
<pdfrwt beam="2">  1       -4 0.19230175E-01 0.12499005E+03</pdfrwt>
<totfact> 0.19693695E+03</totfact>
</mgrwt>
</event>
<event>
 5    1  0.1431256E-002  0.1249988E+03  0.7818608E-02  0.1235071E+00
         -4   -1    0    0    0  501 -0.00000000000E+00  0.00000000000E+00  0.12098463567E+03  0.12099130121E+03  0.12700000000E+01 0. -1.
          4   -1    0    0  501    0  0.00000000000E+00 -0.00000000000E+00 -0.32266483663E+02  0.32291467418E+02  0.12700000000E+01 0. -1.
         25    2    1    2    0    0  0.00000000000E+00  0.00000000000E+00  0.88718152003E+02  0.15328276862E+03  0.12499878664E+03 0.  0.
    9000005    1    3    3    0    0 -0.76836693810E+01 -0.23591940013E+02 -0.25973441788E+02  0.35933801456E+02  0.10000000000E+01 0.  0.
    9000005    1    3    3    0    0  0.76836693810E+01  0.23591940013E+02  0.11469159379E+03  0.11734896717E+03  0.10000000000E+01 0.  0.
<mgrwt>
<rscale>  0 0.12499879E+03</rscale>
<asrwt>0</asrwt>
<pdfrwt beam="2">  1        4 0.80705772E-02 0.12499879E+03</pdfrwt>
<pdfrwt beam="1">  1       -4 0.30250115E-01 0.12499879E+03</pdfrwt>
<totfact> 0.18379055E+03</totfact>
</mgrwt>
</event>
<event>
 5    1  0.1431256E-002  0.1249853E+03  0.7818608E-02  0.1235092E+00
          4   -1    0    0  501    0  0.00000000000E+00  0.00000000000E+00  0.21304515035E+02  0.21342334945E+02  0.12700000000E+01 0.  1.
         -4   -1    0    0    0  501 -0.00000000000E+00 -0.00000000000E+00 -0.18310743175E+03  0.18311183594E+03  0.12700000000E+01 0.  1.
         25    2    1    2    0    0  0.00000000000E+00  0.00000000000E+00 -0.16180291671E+03  0.20445417089E+03  0.12498529568E+03 0.  0.
    9000005    1    3    3    0    0  0.36482625607E+02  0.30723619914E+02 -0.14693308669E+03  0.15448383332E+03  0.10000000000E+01 0.  0.
    9000005    1    3    3    0    0 -0.36482625607E+02 -0.30723619914E+02 -0.14869830023E+02  0.49970337569E+02  0.10000000000E+01 0.  0.
<mgrwt>
<rscale>  0 0.12498530E+03</rscale>
<asrwt>0</asrwt>
<pdfrwt beam="1">  1        4 0.53314073E-02 0.12498530E+03</pdfrwt>
<pdfrwt beam="2">  1       -4 0.45782131E-01 0.12498530E+03</pdfrwt>
<totfact> 0.16150718E+03</totfact>
</mgrwt>
</event>
<event>
 5    1  0.1431256E-002  0.1250029E+03  0.7818608E-02  0.1235065E+00
         -4   -1    0    0    0  501 -0.00000000000E+00  0.00000000000E+00  0.10315619885E+02  0.10393503433E+02  0.12700000000E+01 0. -1.
          4   -1    0    0  501    0  0.00000000000E+00 -0.00000000000E+00 -0.37718746644E+03  0.37718960449E+03  0.12700000000E+01 0. -1.
         25    2    1    2    0    0  0.00000000000E+00  0.00000000000E+00 -0.36687184655E+03  0.38758310792E+03  0.12500285499E+03 0.  0.
    9000005    1    3    3    0    0  0.32516306849E+02 -0.52489409216E+02 -0.15353806866E+03  0.16549134968E+03  0.10000000000E+01 0.  0.
    9000005    1    3    3    0    0 -0.32516306849E+02  0.52489409216E+02 -0.21333377789E+03  0.22209175824E+03  0.10000000000E+01 0.  0.
<mgrwt>
<rscale>  0 0.12500285E+03</rscale>
<asrwt>0</asrwt>
<pdfrwt beam="2">  1        4 0.94306824E-01 0.12500285E+03</pdfrwt>
<pdfrwt beam="1">  1       -4 0.25889089E-02 0.12500285E+03</pdfrwt>
<totfact> 0.10828816E+03</totfact>
</mgrwt>
</event>
<event>
 5    1  0.1431256E-002  0.1250034E+03  0.7818608E-02  0.1235064E+00
         -4   -1    0    0    0  501 -0.00000000000E+00  0.00000000000E+00  0.44117771977E+02  0.44136047674E+02  0.12700000000E+01 0.  1.
          4   -1    0    0  501    0  0.00000000000E+00 -0.00000000000E+00 -0.88505048711E+02  0.88514160152E+02  0.12700000000E+01 0.  1.
         25    2    1    2    0    0  0.00000000000E+00  0.00000000000E+00 -0.44387276734E+02  0.13265020783E+03  0.12500338916E+03 0.  0.
    9000005    1    3    3    0    0 -0.53643099248E+02  0.68606325354E+01 -0.55427354821E+02  0.77445736087E+02  0.10000000000E+01 0.  0.
    9000005    1    3    3    0    0  0.53643099248E+02 -0.68606325354E+01  0.11040078087E+02  0.55204471738E+02  0.10000000000E+01 0.  0.
<mgrwt>
<rscale>  0 0.12500339E+03</rscale>
<asrwt>0</asrwt>
<pdfrwt beam="2">  1        4 0.22129685E-01 0.12500339E+03</pdfrwt>
<pdfrwt beam="1">  1       -4 0.11032867E-01 0.12500339E+03</pdfrwt>
<totfact> 0.19421400E+03</totfact>
</mgrwt>
</event>
<event>
 5    1  0.1431256E-002  0.1249698E+03  0.7818608E-02  0.1235116E+00
          4   -1    0    0  501    0  0.00000000000E+00  0.00000000000E+00  0.41200728054E+03  0.41200923790E+03  0.12700000000E+01 0.  1.
         -4   -1    0    0    0  501 -0.00000000000E+00 -0.00000000000E+00 -0.94319028453E+01  0.95170211350E+01  0.12700000000E+01 0.  1.
         25    2    1    2    0    0  0.00000000000E+00  0.00000000000E+00  0.40257537769E+03  0.42152625904E+03  0.12496980569E+03 0.  0.
    9000005    1    3    3    0    0 -0.59172818356E+02 -0.16569523373E+02  0.16321707809E+03  0.17440408859E+03  0.10000000000E+01 0.  0.
    9000005    1    3    3    0    0  0.59172818356E+02  0.16569523373E+02  0.23935829960E+03  0.24712217045E+03  0.10000000000E+01 0.  0.
<mgrwt>
<rscale>  0 0.12496981E+03</rscale>
<asrwt>0</asrwt>
<pdfrwt beam="1">  1        4 0.10301271E+00 0.12496981E+03</pdfrwt>
<pdfrwt beam="2">  1       -4 0.23688600E-02 0.12496981E+03</pdfrwt>
<totfact> 0.10143101E+03</totfact>
</mgrwt>
</event>
<event>
 5    1  0.1431256E-002  0.1250011E+03  0.7818608E-02  0.1235068E+00
          4   -1    0    0  501    0  0.00000000000E+00  0.00000000000E+00  0.13917031566E+03  0.13917611024E+03  0.12700000000E+01 0. -1.
         -4   -1    0    0    0  501 -0.00000000000E+00 -0.00000000000E+00 -0.28047861538E+02  0.28076599453E+02  0.12700000000E+01 0. -1.
         25    2    1    2    0    0  0.00000000000E+00  0.00000000000E+00  0.11112245412E+03  0.16725270969E+03  0.12500107635E+03 0.  0.
    9000005    1    3    3    0    0 -0.20215239998E+02 -0.32910232170E+02 -0.10172775269E+02  0.39952780458E+02  0.10000000000E+01 0.  0.
    9000005    1    3    3    0    0  0.20215239998E+02  0.32910232170E+02  0.12129522939E+03  0.12729992923E+03  0.10000000000E+01 0.  0.
<mgrwt>
<rscale>  0 0.12500108E+03</rscale>
<asrwt>0</asrwt>
<pdfrwt beam="1">  1        4 0.34796895E-01 0.12500108E+03</pdfrwt>
<pdfrwt beam="2">  1       -4 0.70162821E-02 0.12500108E+03</pdfrwt>
<totfact> 0.17721235E+03</totfact>
</mgrwt>
</event>
<event>
 5    1  0.1431256E-002  0.1250012E+03  0.7818608E-02  0.1235067E+00
         -4   -1    0    0    0  501 -0.00000000000E+00  0.00000000000E+00  0.17320102844E+02  0.17366601928E+02  0.12700000000E+01 0. -1.
          4   -1    0    0  501    0  0.00000000000E+00 -0.00000000000E+00 -0.22518630180E+03  0.22518988302E+03  0.12700000000E+01 0. -1.
         25    2    1    2    0    0  0.00000000000E+00  0.00000000000E+00 -0.20786619895E+03  0.24255648495E+03  0.12500116690E+03 0.  0.
    9000005    1    3    3    0    0 -0.32780009508E+02 -0.14905137659E+02 -0.20304028207E+03  0.20621117403E+03  0.10000000000E+01 0.  0.
    9000005    1    3    3    0    0  0.32780009508E+02  0.14905137659E+02 -0.48259168777E+01  0.36345310918E+02  0.10000000000E+01 0.  0.
<mgrwt>
<rscale>  0 0.12500117E+03</rscale>
<asrwt>0</asrwt>
<pdfrwt beam="2">  1        4 0.56302826E-01 0.12500117E+03</pdfrwt>
<pdfrwt beam="1">  1       -4 0.43362865E-02 0.12500117E+03</pdfrwt>
<totfact> 0.14748386E+03</totfact>
</mgrwt>
</event>
<event>
 5    1  0.1431256E-002  0.1250021E+03  0.7818608E-02  0.1235066E+00
         -4   -1    0    0    0  501 -0.00000000000E+00  0.00000000000E+00  0.29217528598E+02  0.29245117155E+02  0.12700000000E+01 0. -1.
          4   -1    0    0  501    0  0.00000000000E+00 -0.00000000000E+00 -0.13360612752E+03  0.13361216341E+03  0.12700000000E+01 0. -1.
         25    2    1    2    0    0  0.00000000000E+00  0.00000000000E+00 -0.10438859892E+03  0.16285728056E+03  0.12500205697E+03 0.  0.
    9000005    1    3    3    0    0 -0.36185319281E+02 -0.50950954032E+02 -0.52143610244E+02  0.81396149402E+02  0.10000000000E+01 0.  0.
    9000005    1    3    3    0    0  0.36185319281E+02  0.50950954032E+02 -0.52244988678E+02  0.81461131162E+02  0.10000000000E+01 0.  0.
<mgrwt>
<rscale>  0 0.12500206E+03</rscale>
<asrwt>0</asrwt>
<pdfrwt beam="2">  1        4 0.33405733E-01 0.12500206E+03</pdfrwt>
<pdfrwt beam="1">  1       -4 0.73085856E-02 0.12500206E+03</pdfrwt>
<totfact> 0.17923253E+03</totfact>
</mgrwt>
</event>
<event>
 5    1  0.1431256E-002  0.1249995E+03  0.7818608E-02  0.1235070E+00
          4   -1    0    0  501    0  0.00000000000E+00  0.00000000000E+00  0.14221074855E+04  0.14221080526E+04  0.12700000000E+01 0. -1.
         -4   -1    0    0    0  501 -0.00000000000E+00 -0.00000000000E+00 -0.25993848359E+01  0.28930436439E+01  0.12700000000E+01 0. -1.
         25    2    1    2    0    0  0.00000000000E+00  0.00000000000E+00  0.14195081007E+04  0.14250010962E+04  0.12499950556E+03 0.  0.
    9000005    1    3    3    0    0 -0.16062866373E+01 -0.36855984900E+02  0.13472609894E+03  0.13968917466E+03  0.10000000000E+01 0.  0.
    9000005    1    3    3    0    0  0.16062866373E+01  0.36855984900E+02  0.12847820017E+04  0.12853119216E+04  0.10000000000E+01 0.  0.
<mgrwt>
<rscale>  0 0.12499951E+03</rscale>
<asrwt>0</asrwt>
<pdfrwt beam="1">  1        4 0.35556361E+00 0.12499951E+03</pdfrwt>
<pdfrwt beam="2">  1       -4 0.68662451E-03 0.12499951E+03</pdfrwt>
<totfact> 0.15131412E+02</totfact>
</mgrwt>
</event>
<event>
 5    1  0.1431256E-002  0.1249984E+03  0.7818608E-02  0.1235072E+00
          4   -1    0    0  501    0  0.00000000000E+00  0.00000000000E+00  0.58816661258E+01  0.60172166668E+01  0.12700000000E+01 0. -1.
         -4   -1    0    0    0  501 -0.00000000000E+00 -0.00000000000E+00 -0.65642143846E+03  0.65642266701E+03  0.12700000000E+01 0. -1.
         25    2    1    2    0    0  0.00000000000E+00  0.00000000000E+00 -0.65053977233E+03  0.66243988368E+03  0.12499841640E+03 0.  0.
    9000005    1    3    3    0    0  0.45907778496E+02 -0.41845581487E+02 -0.28910270128E+03  0.29570246652E+03  0.10000000000E+01 0.  0.
    9000005    1    3    3    0    0 -0.45907778496E+02  0.41845581487E+02 -0.36143707105E+03  0.36673741716E+03  0.10000000000E+01 0.  0.
<mgrwt>
<rscale>  0 0.12499842E+03</rscale>
<asrwt>0</asrwt>
<pdfrwt beam="1">  1        4 0.14875162E-02 0.12499842E+03</pdfrwt>
<pdfrwt beam="2">  1       -4 0.16412221E+00 0.12499842E+03</pdfrwt>
<totfact> 0.66107820E+02</totfact>
</mgrwt>
</event>
<event>
 5    1  0.1431256E-002  0.1250016E+03  0.7818608E-02  0.1235067E+00
         -4   -1    0    0    0  501 -0.00000000000E+00  0.00000000000E+00  0.36151342008E+02  0.36173642738E+02  0.12700000000E+01 0. -1.
          4   -1    0    0  501    0  0.00000000000E+00 -0.00000000000E+00 -0.10799603256E+03  0.10800349970E+03  0.12700000000E+01 0. -1.
         25    2    1    2    0    0  0.00000000000E+00  0.00000000000E+00 -0.71844690548E+02  0.14417714244E+03  0.12500155536E+03 0.  0.
    9000005    1    3    3    0    0 -0.35004071130E+02  0.23186037560E+02  0.17465004092E+02  0.45485203103E+02  0.10000000000E+01 0.  0.
    9000005    1    3    3    0    0  0.35004071130E+02 -0.23186037560E+02 -0.89309694640E+02  0.98691939337E+02  0.10000000000E+01 0.  0.
<mgrwt>
<rscale>  0 0.12500156E+03</rscale>
<asrwt>0</asrwt>
<pdfrwt beam="2">  1        4 0.27002728E-01 0.12500156E+03</pdfrwt>
<pdfrwt beam="1">  1       -4 0.90415567E-02 0.12500156E+03</pdfrwt>
<totfact> 0.18827964E+03</totfact>
</mgrwt>
</event>
<event>
 5    1  0.1431256E-002  0.1250004E+03  0.7818608E-02  0.1235069E+00
          4   -1    0    0  501    0  0.00000000000E+00  0.00000000000E+00  0.13963674994E+03  0.13964252516E+03  0.12700000000E+01 0.  1.
         -4   -1    0    0    0  501 -0.00000000000E+00 -0.00000000000E+00 -0.27953755559E+02  0.27982590121E+02  0.12700000000E+01 0.  1.
         25    2    1    2    0    0  0.00000000000E+00  0.00000000000E+00  0.11168299438E+03  0.16762511528E+03  0.12500035216E+03 0.  0.
    9000005    1    3    3    0    0 -0.11011965831E+02 -0.37950804094E+02 -0.90791798588E+01  0.40558087106E+02  0.10000000000E+01 0.  0.
    9000005    1    3    3    0    0  0.11011965831E+02  0.37950804094E+02  0.12076217424E+03  0.12706702818E+03  0.10000000000E+01 0.  0.
<mgrwt>
<rscale>  0 0.12500035E+03</rscale>
<asrwt>0</asrwt>
<pdfrwt beam="1">  1        4 0.34913513E-01 0.12500035E+03</pdfrwt>
<pdfrwt beam="2">  1       -4 0.69927652E-02 0.12500035E+03</pdfrwt>
<totfact> 0.17704555E+03</totfact>
</mgrwt>
</event>
<event>
 5    1  0.1431256E-002  0.1249983E+03  0.7818608E-02  0.1235072E+00
         -4   -1    0    0    0  501 -0.00000000000E+00  0.00000000000E+00  0.93024350286E+02  0.93033019118E+02  0.12700000000E+01 0. -1.
          4   -1    0    0  501    0  0.00000000000E+00 -0.00000000000E+00 -0.41970353625E+02  0.41989563983E+02  0.12700000000E+01 0. -1.
         25    2    1    2    0    0  0.00000000000E+00  0.00000000000E+00  0.51053996660E+02  0.13502258310E+03  0.12499834948E+03 0.  0.
    9000005    1    3    3    0    0  0.56550165536E+02 -0.99930796615E+01 -0.10941416930E+01  0.57445452469E+02  0.10000000000E+01 0.  0.
    9000005    1    3    3    0    0 -0.56550165536E+02  0.99930796615E+01  0.52148138354E+02  0.77577130631E+02  0.10000000000E+01 0.  0.
<mgrwt>
<rscale>  0 0.12499835E+03</rscale>
<asrwt>0</asrwt>
<pdfrwt beam="2">  1        4 0.10496073E-01 0.12499835E+03</pdfrwt>
<pdfrwt beam="1">  1       -4 0.23259572E-01 0.12499835E+03</pdfrwt>
<totfact> 0.19298697E+03</totfact>
</mgrwt>
</event>
<event>
 5    1  0.1431256E-002  0.1250025E+03  0.7818608E-02  0.1235065E+00
         -4   -1    0    0    0  501 -0.00000000000E+00  0.00000000000E+00  0.12305380526E+02  0.12370743304E+02  0.12700000000E+01 0.  1.
          4   -1    0    0  501    0  0.00000000000E+00 -0.00000000000E+00 -0.31654736159E+03  0.31654990923E+03  0.12700000000E+01 0.  1.
         25    2    1    2    0    0  0.00000000000E+00  0.00000000000E+00 -0.30424198107E+03  0.32892065253E+03  0.12500245045E+03 0.  0.
    9000005    1    3    3    0    0  0.36532986603E+01  0.62377477059E+02 -0.15488940146E+03  0.16702102539E+03  0.10000000000E+01 0.  0.
    9000005    1    3    3    0    0 -0.36532986603E+01 -0.62377477059E+02 -0.14935257960E+03  0.16189962714E+03  0.10000000000E+01 0.  0.
<mgrwt>
<rscale>  0 0.12500245E+03</rscale>
<asrwt>0</asrwt>
<pdfrwt beam="2">  1        4 0.79145302E-01 0.12500245E+03</pdfrwt>
<pdfrwt beam="1">  1       -4 0.30848350E-02 0.12500245E+03</pdfrwt>
<totfact> 0.12196855E+03</totfact>
</mgrwt>
</event>
<event>
 5    1  0.1431256E-002  0.1250019E+03  0.7818608E-02  0.1235066E+00
          4   -1    0    0  501    0  0.00000000000E+00  0.00000000000E+00  0.37120049041E+02  0.37141768143E+02  0.12700000000E+01 0.  1.
         -4   -1    0    0    0  501 -0.00000000000E+00 -0.00000000000E+00 -0.10517974066E+03  0.10518740773E+03  0.12700000000E+01 0.  1.
         25    2    1    2    0    0  0.00000000000E+00  0.00000000000E+00 -0.68059691615E+02  0.14232917587E+03  0.12500189071E+03 0.  0.
    9000005    1    3    3    0    0 -0.62160765355E+02 -0.34377091045E+01 -0.40223496811E+02  0.74126299578E+02  0.10000000000E+01 0.  0.
    9000005    1    3    3    0    0  0.62160765355E+02  0.34377091045E+01 -0.27836194804E+02  0.68202876292E+02  0.10000000000E+01 0.  0.
<mgrwt>
<rscale>  0 0.12500189E+03</rscale>
<asrwt>0</asrwt>
<pdfrwt beam="1">  1        4 0.92836857E-02 0.12500189E+03</pdfrwt>
<pdfrwt beam="2">  1       -4 0.26298608E-01 0.12500189E+03</pdfrwt>
<totfact> 0.18920979E+03</totfact>
</mgrwt>
</event>
<event>
 5    1  0.1431256E-002  0.1250032E+03  0.7818608E-02  0.1235064E+00
          4   -1    0    0  501    0  0.00000000000E+00  0.00000000000E+00  0.23217791814E+02  0.23252500010E+02  0.12700000000E+01 0.  1.
         -4   -1    0    0    0  501 -0.00000000000E+00 -0.00000000000E+00 -0.16808964377E+03  0.16809444144E+03  0.12700000000E+01 0.  1.
         25    2    1    2    0    0  0.00000000000E+00  0.00000000000E+00 -0.14487185196E+03  0.19134694145E+03  0.12500319401E+03 0.  0.
    9000005    1    3    3    0    0  0.19384566529E+02 -0.36807086580E+02 -0.10483367875E+01  0.41624776900E+02  0.10000000000E+01 0.  0.
    9000005    1    3    3    0    0 -0.19384566529E+02  0.36807086580E+02 -0.14382351517E+03  0.14972216455E+03  0.10000000000E+01 0.  0.
<mgrwt>
<rscale>  0 0.12500319E+03</rscale>
<asrwt>0</asrwt>
<pdfrwt beam="1">  1        4 0.58093867E-02 0.12500319E+03</pdfrwt>
<pdfrwt beam="2">  1       -4 0.42027346E-01 0.12500319E+03</pdfrwt>
<totfact> 0.16673257E+03</totfact>
</mgrwt>
</event>
<event>
 5    1  0.1431256E-002  0.1250110E+03  0.7818608E-02  0.1235052E+00
          4   -1    0    0  501    0  0.00000000000E+00  0.00000000000E+00  0.29106701755E+02  0.29134395258E+02  0.12700000000E+01 0. -1.
         -4   -1    0    0    0  501 -0.00000000000E+00 -0.00000000000E+00 -0.13413364515E+03  0.13413965730E+03  0.12700000000E+01 0. -1.
         25    2    1    2    0    0  0.00000000000E+00  0.00000000000E+00 -0.10502694340E+03  0.16327405256E+03  0.12501102912E+03 0.  0.
    9000005    1    3    3    0    0  0.79056227006E+00  0.54914433570E+02 -0.13555587779E+02  0.56577150538E+02  0.10000000000E+01 0.  0.
    9000005    1    3    3    0    0 -0.79056227006E+00 -0.54914433570E+02 -0.91471355617E+02  0.10669690202E+03  0.10000000000E+01 0.  0.
<mgrwt>
<rscale>  0 0.12501103E+03</rscale>
<asrwt>0</asrwt>
<pdfrwt beam="1">  1        4 0.72808890E-02 0.12501103E+03</pdfrwt>
<pdfrwt beam="2">  1       -4 0.33537623E-01 0.12501103E+03</pdfrwt>
<totfact> 0.17900166E+03</totfact>
</mgrwt>
</event>
<event>
 5    1  0.1431256E-002  0.1250079E+03  0.7818608E-02  0.1235057E+00
          4   -1    0    0  501    0  0.00000000000E+00  0.00000000000E+00  0.17863999879E+02  0.17909086846E+02  0.12700000000E+01 0. -1.
         -4   -1    0    0    0  501 -0.00000000000E+00 -0.00000000000E+00 -0.21837115136E+03  0.21837484435E+03  0.12700000000E+01 0. -1.
         25    2    1    2    0    0  0.00000000000E+00  0.00000000000E+00 -0.20050715148E+03  0.23628393120E+03  0.12500791314E+03 0.  0.
    9000005    1    3    3    0    0 -0.25049869635E+01  0.56022666736E+02 -0.48113799709E+02  0.73896900275E+02  0.10000000000E+01 0.  0.
    9000005    1    3    3    0    0  0.25049869635E+01 -0.56022666736E+02 -0.15239335177E+03  0.16238703092E+03  0.10000000000E+01 0.  0.
<mgrwt>
<rscale>  0 0.12500791E+03</rscale>
<asrwt>0</asrwt>
<pdfrwt beam="1">  1        4 0.44720982E-02 0.12500791E+03</pdfrwt>
<pdfrwt beam="2">  1       -4 0.54598877E-01 0.12500791E+03</pdfrwt>
<totfact> 0.14962615E+03</totfact>
</mgrwt>
</event>
<event>
 5    1  0.1431256E-002  0.1250014E+03  0.7818608E-02  0.1235067E+00
          4   -1    0    0  501    0  0.00000000000E+00  0.00000000000E+00  0.24833802129E+02  0.24866254809E+02  0.12700000000E+01 0. -1.
         -4   -1    0    0    0  501 -0.00000000000E+00 -0.00000000000E+00 -0.15716138805E+03  0.15716651931E+03  0.12700000000E+01 0. -1.
         25    2    1    2    0    0  0.00000000000E+00  0.00000000000E+00 -0.13232758592E+03  0.18203277412E+03  0.12500136343E+03 0.  0.
    9000005    1    3    3    0    0 -0.23441818184E+02 -0.49393218992E+02 -0.11024084206E+03  0.12305792205E+03  0.10000000000E+01 0.  0.
    9000005    1    3    3    0    0  0.23441818184E+02  0.49393218992E+02 -0.22086743858E+02  0.58974852068E+02  0.10000000000E+01 0.  0.
<mgrwt>
<rscale>  0 0.12500136E+03</rscale>
<asrwt>0</asrwt>
<pdfrwt beam="1">  1        4 0.62131490E-02 0.12500136E+03</pdfrwt>
<pdfrwt beam="2">  1       -4 0.39295042E-01 0.12500136E+03</pdfrwt>
<totfact> 0.17067049E+03</totfact>
</mgrwt>
</event>
<event>
 5    1  0.1431256E-002  0.1249995E+03  0.7818608E-02  0.1235070E+00
         -4   -1    0    0    0  501 -0.00000000000E+00  0.00000000000E+00  0.12013972921E+02  0.12080912438E+02  0.12700000000E+01 0.  1.
          4   -1    0    0  501    0  0.00000000000E+00 -0.00000000000E+00 -0.32416812647E+03  0.32417061422E+03  0.12700000000E+01 0.  1.
         25    2    1    2    0    0  0.00000000000E+00  0.00000000000E+00 -0.31215415355E+03  0.33625152665E+03  0.12499949439E+03 0.  0.
    9000005    1    3    3    0    0  0.37359051030E+01 -0.61695121104E+02 -0.18087398985E+03  0.19114561245E+03  0.10000000000E+01 0.  0.
    9000005    1    3    3    0    0 -0.37359051030E+01  0.61695121104E+02 -0.13128016370E+03  0.14510591420E+03  0.10000000000E+01 0.  0.
<mgrwt>
<rscale>  0 0.12499949E+03</rscale>
<asrwt>0</asrwt>
<pdfrwt beam="2">  1        4 0.81050681E-01 0.12499949E+03</pdfrwt>
<pdfrwt beam="1">  1       -4 0.30121727E-02 0.12499949E+03</pdfrwt>
<totfact> 0.12012742E+03</totfact>
</mgrwt>
</event>
<event>
 5    1  0.1431256E-002  0.1249991E+03  0.7818608E-02  0.1235071E+00
         -4   -1    0    0    0  501 -0.00000000000E+00  0.00000000000E+00  0.10552297973E+02  0.10628447323E+02  0.12700000000E+01 0. -1.
          4   -1    0    0  501    0  0.00000000000E+00 -0.00000000000E+00 -0.36876658181E+03  0.36876876869E+03  0.12700000000E+01 0. -1.
         25    2    1    2    0    0  0.00000000000E+00  0.00000000000E+00 -0.35821428384E+03  0.37939721601E+03  0.12499909749E+03 0.  0.
    9000005    1    3    3    0    0 -0.22493762392E+02 -0.56687408163E+02 -0.22047525426E+03  0.22875700936E+03  0.10000000000E+01 0.  0.
    9000005    1    3    3    0    0  0.22493762392E+02  0.56687408163E+02 -0.13773902958E+03  0.15064020665E+03  0.10000000000E+01 0.  0.
<mgrwt>
<rscale>  0 0.12499910E+03</rscale>
<asrwt>0</asrwt>
<pdfrwt beam="2">  1        4 0.92201395E-01 0.12499910E+03</pdfrwt>
<pdfrwt beam="1">  1       -4 0.26478677E-02 0.12499910E+03</pdfrwt>
<totfact> 0.11006495E+03</totfact>
</mgrwt>
</event>
<event>
 5    1  0.1431256E-002  0.1250001E+03  0.7818608E-02  0.1235069E+00
          4   -1    0    0  501    0  0.00000000000E+00  0.00000000000E+00  0.55170759586E+02  0.55185374994E+02  0.12700000000E+01 0. -1.
         -4   -1    0    0    0  501 -0.00000000000E+00 -0.00000000000E+00 -0.70773312173E+02  0.70784706088E+02  0.12700000000E+01 0. -1.
         25    2    1    2    0    0  0.00000000000E+00  0.00000000000E+00 -0.15602552588E+02  0.12597008108E+03  0.12500008672E+03 0.  0.
    9000005    1    3    3    0    0  0.57448586403E+02  0.41270992354E+01  0.16633159820E+02  0.59958611002E+02  0.10000000000E+01 0.  0.
    9000005    1    3    3    0    0 -0.57448586403E+02 -0.41270992354E+01 -0.32235712407E+02  0.66011470080E+02  0.10000000000E+01 0.  0.
<mgrwt>
<rscale>  0 0.12500009E+03</rscale>
<asrwt>0</asrwt>
<pdfrwt beam="1">  1        4 0.13795941E-01 0.12500009E+03</pdfrwt>
<pdfrwt beam="2">  1       -4 0.17696579E-01 0.12500009E+03</pdfrwt>
<totfact> 0.19782497E+03</totfact>
</mgrwt>
</event>
<event>
 4    1  0.1431256E-002  0.1250869E+03  0.7818608E-02  0.1234934E+00
         -4   -1    0    0    0  501 -0.00000000000E+00  0.00000000000E+00  0.83781580627E+02  0.83791205698E+02  0.12700000000E+01 0.  1.
          4   -1    0    0  501    0  0.00000000000E+00 -0.00000000000E+00 -0.46668120581E+02  0.46685397916E+02  0.12700000000E+01 0.  1.
    9000005    1    1    2    0    0 -0.44481449124E+02 -0.42598988245E+02  0.72542284834E+01  0.62023358073E+02  0.10000000000E+01 0.  0.
    9000005    1    1    2    0    0  0.44481449124E+02  0.42598988245E+02  0.29859231562E+02  0.68453245542E+02  0.10000000000E+01 0.  0.
<mgrwt>
<rscale>  0 0.12508691E+03</rscale>
<asrwt>0</asrwt>
<pdfrwt beam="2">  1        4 0.11670393E-01 0.12508691E+03</pdfrwt>
<pdfrwt beam="1">  1       -4 0.20948758E-01 0.12508691E+03</pdfrwt>
<totfact> 0.19499212E+03</totfact>
</mgrwt>
</event>
<event>
 5    1  0.1431256E-002  0.1249984E+03  0.7818608E-02  0.1235072E+00
         -4   -1    0    0    0  501 -0.00000000000E+00  0.00000000000E+00  0.24513248957E+02  0.24546125446E+02  0.12700000000E+01 0. -1.
          4   -1    0    0  501    0  0.00000000000E+00 -0.00000000000E+00 -0.15920623823E+03  0.15921130359E+03  0.12700000000E+01 0. -1.
         25    2    1    2    0    0  0.00000000000E+00  0.00000000000E+00 -0.13469298927E+03  0.18375742903E+03  0.12499836546E+03 0.  0.
    9000005    1    3    3    0    0 -0.36466307825E+02  0.50589741753E+02 -0.73233102355E+02  0.96193559335E+02  0.10000000000E+01 0.  0.
    9000005    1    3    3    0    0  0.36466307825E+02 -0.50589741753E+02 -0.61459886915E+02  0.87563869699E+02  0.10000000000E+01 0.  0.
<mgrwt>
<rscale>  0 0.12499837E+03</rscale>
<asrwt>0</asrwt>
<pdfrwt beam="2">  1        4 0.39806299E-01 0.12499837E+03</pdfrwt>
<pdfrwt beam="1">  1       -4 0.61330554E-02 0.12499837E+03</pdfrwt>
<totfact> 0.16994410E+03</totfact>
</mgrwt>
</event>
<event>
 5    1  0.1431256E-002  0.1249975E+03  0.7818608E-02  0.1235073E+00
         -4   -1    0    0    0  501 -0.00000000000E+00  0.00000000000E+00  0.22622952054E+03  0.22623308525E+03  0.12700000000E+01 0. -1.
          4   -1    0    0  501    0  0.00000000000E+00 -0.00000000000E+00 -0.17239000379E+02  0.17285717632E+02  0.12700000000E+01 0. -1.
         25    2    1    2    0    0  0.00000000000E+00  0.00000000000E+00  0.20899052016E+03  0.24351880288E+03  0.12499747934E+03 0.  0.
    9000005    1    3    3    0    0  0.11221632645E+02 -0.61307178655E+02  0.11333696548E+03  0.12934745045E+03  0.10000000000E+01 0.  0.
    9000005    1    3    3    0    0 -0.11221632645E+02  0.61307178655E+02  0.95653554679E+02  0.11417135243E+03  0.10000000000E+01 0.  0.
<mgrwt>
<rscale>  0 0.12499748E+03</rscale>
<asrwt>0</asrwt>
<pdfrwt beam="2">  1        4 0.43160354E-02 0.12499748E+03</pdfrwt>
<pdfrwt beam="1">  1       -4 0.56563664E-01 0.12499748E+03</pdfrwt>
<totfact> 0.14716843E+03</totfact>
</mgrwt>
</event>
<event>
 5    1  0.1431256E-002  0.1249892E+03  0.7818608E-02  0.1235086E+00
         -4   -1    0    0    0  501 -0.00000000000E+00  0.00000000000E+00  0.25047266735E+02  0.25079443193E+02  0.12700000000E+01 0. -1.
          4   -1    0    0  501    0  0.00000000000E+00 -0.00000000000E+00 -0.15579323305E+03  0.15579840938E+03  0.12700000000E+01 0. -1.
         25    2    1    2    0    0  0.00000000000E+00  0.00000000000E+00 -0.13074596632E+03  0.18087785257E+03  0.12498915890E+03 0.  0.
    9000005    1    3    3    0    0 -0.11664594731E+01  0.43129855357E+02 -0.13078388613E+03  0.13772062272E+03  0.10000000000E+01 0.  0.
    9000005    1    3    3    0    0  0.11664594731E+01 -0.43129855357E+02  0.37919810075E-01  0.43157229855E+02  0.10000000000E+01 0.  0.
<mgrwt>
<rscale>  0 0.12498916E+03</rscale>
<asrwt>0</asrwt>
<pdfrwt beam="2">  1        4 0.38952975E-01 0.12498916E+03</pdfrwt>
<pdfrwt beam="1">  1       -4 0.62664862E-02 0.12498916E+03</pdfrwt>
<totfact> 0.17121587E+03</totfact>
</mgrwt>
</event>
<event>
 5    1  0.1431256E-002  0.1250326E+03  0.7818608E-02  0.1235018E+00
         -4   -1    0    0    0  501 -0.00000000000E+00  0.00000000000E+00  0.70776718570E+03  0.70776832512E+03  0.12700000000E+01 0. -1.
          4   -1    0    0  501    0  0.00000000000E+00 -0.00000000000E+00 -0.54478136880E+01  0.55938871976E+01  0.12700000000E+01 0. -1.
         25    2    1    2    0    0  0.00000000000E+00  0.00000000000E+00  0.70231937201E+03  0.71336221232E+03  0.12503257843E+03 0.  0.
    9000005    1    3    3    0    0 -0.14106823491E+02 -0.60894610605E+02  0.35321955041E+03  0.35870908388E+03  0.10000000000E+01 0.  0.
    9000005    1    3    3    0    0  0.14106823491E+02  0.60894610605E+02  0.34909982160E+03  0.35465312844E+03  0.10000000000E+01 0.  0.
<mgrwt>
<rscale>  0 0.12503258E+03</rscale>
<asrwt>0</asrwt>
<pdfrwt beam="2">  1        4 0.13803551E-02 0.12503258E+03</pdfrwt>
<pdfrwt beam="1">  1       -4 0.17696019E+00 0.12503258E+03</pdfrwt>
<totfact> 0.60641770E+02</totfact>
</mgrwt>
</event>
<event>
 5    1  0.1431256E-002  0.1249985E+03  0.7818608E-02  0.1235072E+00
         -4   -1    0    0    0  501 -0.00000000000E+00  0.00000000000E+00  0.14840492372E+03  0.14841035774E+03  0.12700000000E+01 0. -1.
          4   -1    0    0  501    0  0.00000000000E+00 -0.00000000000E+00 -0.26299713788E+02  0.26330359765E+02  0.12700000000E+01 0. -1.
         25    2    1    2    0    0  0.00000000000E+00  0.00000000000E+00  0.12210520993E+03  0.17474071750E+03  0.12499854424E+03 0.  0.
    9000005    1    3    3    0    0  0.41511139317E+02 -0.45853402328E+02  0.48592100464E+02  0.78663215164E+02  0.10000000000E+01 0.  0.
    9000005    1    3    3    0    0 -0.41511139317E+02  0.45853402328E+02  0.73513109467E+02  0.96077502340E+02  0.10000000000E+01 0.  0.
<mgrwt>
<rscale>  0 0.12499854E+03</rscale>
<asrwt>0</asrwt>
<pdfrwt beam="2">  1        4 0.65794385E-02 0.12499854E+03</pdfrwt>
<pdfrwt beam="1">  1       -4 0.37105740E-01 0.12499854E+03</pdfrwt>
<totfact> 0.17385903E+03</totfact>
</mgrwt>
</event>
<event>
 5    1  0.1431256E-002  0.1250019E+03  0.7818608E-02  0.1235066E+00
         -4   -1    0    0    0  501 -0.00000000000E+00  0.00000000000E+00  0.96221203082E+02  0.96229583926E+02  0.12700000000E+01 0. -1.
          4   -1    0    0  501    0  0.00000000000E+00 -0.00000000000E+00 -0.40577690390E+02  0.40597559747E+02  0.12700000000E+01 0. -1.
         25    2    1    2    0    0  0.00000000000E+00  0.00000000000E+00  0.55643512692E+02  0.13682714367E+03  0.12500186695E+03 0.  0.
    9000005    1    3    3    0    0 -0.31418752249E+02 -0.22690385999E+02 -0.25840204499E+02  0.46590855092E+02  0.10000000000E+01 0.  0.
    9000005    1    3    3    0    0  0.31418752249E+02  0.22690385999E+02  0.81483717191E+02  0.90236288581E+02  0.10000000000E+01 0.  0.
<mgrwt>
<rscale>  0 0.12500187E+03</rscale>
<asrwt>0</asrwt>
<pdfrwt beam="2">  1        4 0.10147954E-01 0.12500187E+03</pdfrwt>
<pdfrwt beam="1">  1       -4 0.24058832E-01 0.12500187E+03</pdfrwt>
<totfact> 0.19203020E+03</totfact>
</mgrwt>
</event>
<event>
 5    1  0.1431256E-002  0.1250008E+03  0.7818608E-02  0.1235068E+00
          4   -1    0    0  501    0  0.00000000000E+00  0.00000000000E+00  0.16567163214E+02  0.16615769527E+02  0.12700000000E+01 0. -1.
         -4   -1    0    0    0  501 -0.00000000000E+00 -0.00000000000E+00 -0.23538988146E+03  0.23539330745E+03  0.12700000000E+01 0. -1.
         25    2    1    2    0    0  0.00000000000E+00  0.00000000000E+00 -0.21882271824E+03  0.25200907698E+03  0.12500077144E+03 0.  0.
    9000005    1    3    3    0    0  0.90313985405E+01 -0.84241805745E+01 -0.23291483738E+03  0.23324419489E+03  0.10000000000E+01 0.  0.
    9000005    1    3    3    0    0 -0.90313985405E+01  0.84241805745E+01  0.14092119138E+02  0.18764882087E+02  0.10000000000E+01 0.  0.
<mgrwt>
<rscale>  0 0.12500077E+03</rscale>
<asrwt>0</asrwt>
<pdfrwt beam="1">  1        4 0.41482956E-02 0.12500077E+03</pdfrwt>
<pdfrwt beam="2">  1       -4 0.58853964E-01 0.12500077E+03</pdfrwt>
<totfact> 0.14431137E+03</totfact>
</mgrwt>
</event>
<event>
 5    1  0.1431256E-002  0.1249969E+03  0.7818608E-02  0.1235074E+00
          4   -1    0    0  501    0  0.00000000000E+00  0.00000000000E+00  0.11128225675E+03  0.11128950340E+03  0.12700000000E+01 0.  1.
         -4   -1    0    0    0  501 -0.00000000000E+00 -0.00000000000E+00 -0.35080549275E+02  0.35103530270E+02  0.12700000000E+01 0.  1.
         25    2    1    2    0    0  0.00000000000E+00  0.00000000000E+00  0.76201707478E+02  0.14639303368E+03  0.12499688031E+03 0.  0.
    9000005    1    3    3    0    0  0.40788364917E+01 -0.22130689341E+02  0.10637786511E+03  0.10873662908E+03  0.10000000000E+01 0.  0.
    9000005    1    3    3    0    0 -0.40788364917E+01  0.22130689341E+02 -0.30176157631E+02  0.37656404598E+02  0.10000000000E+01 0.  0.
<mgrwt>
<rscale>  0 0.12499688E+03</rscale>
<asrwt>0</asrwt>
<pdfrwt beam="1">  1        4 0.27824342E-01 0.12499688E+03</pdfrwt>
<pdfrwt beam="2">  1       -4 0.87739158E-02 0.12499688E+03</pdfrwt>
<totfact> 0.18718929E+03</totfact>
</mgrwt>
</event>
<event>
 5    1  0.1431256E-002  0.1250047E+03  0.7818608E-02  0.1235062E+00
          4   -1    0    0  501    0  0.00000000000E+00  0.00000000000E+00  0.14121183837E+03  0.14121754918E+03  0.12700000000E+01 0. -1.
         -4   -1    0    0    0  501 -0.00000000000E+00 -0.00000000000E+00 -0.27643562940E+02  0.27672720720E+02  0.12700000000E+01 0. -1.
         25    2    1    2    0    0  0.00000000000E+00  0.00000000000E+00  0.11356827543E+03  0.16889026990E+03  0.12500468024E+03 0.  0.
    9000005    1    3    3    0    0 -0.49573349765E+02  0.31034364785E+02  0.27033133181E+02  0.64439421894E+02  0.10000000000E+01 0.  0.
    9000005    1    3    3    0    0  0.49573349765E+02 -0.31034364785E+02  0.86535142250E+02  0.10445084800E+03  0.10000000000E+01 0.  0.
<mgrwt>
<rscale>  0 0.12500468E+03</rscale>
<asrwt>0</asrwt>
<pdfrwt beam="1">  1        4 0.35307318E-01 0.12500468E+03</pdfrwt>
<pdfrwt beam="2">  1       -4 0.69152494E-02 0.12500468E+03</pdfrwt>
<totfact> 0.17645300E+03</totfact>
</mgrwt>
</event>
<event>
 5    1  0.1431256E-002  0.1250020E+03  0.7818608E-02  0.1235066E+00
          4   -1    0    0  501    0  0.00000000000E+00  0.00000000000E+00  0.11393963088E+03  0.11394670854E+03  0.12700000000E+01 0.  1.
         -4   -1    0    0    0  501 -0.00000000000E+00 -0.00000000000E+00 -0.34264718829E+02  0.34288246622E+02  0.12700000000E+01 0.  1.
         25    2    1    2    0    0  0.00000000000E+00  0.00000000000E+00  0.79674912056E+02  0.14823495516E+03  0.12500204126E+03 0.  0.
    9000005    1    3    3    0    0 -0.59630130574E+02 -0.64426743373E+01  0.60653173776E+02  0.85305732598E+02  0.10000000000E+01 0.  0.
    9000005    1    3    3    0    0  0.59630130574E+02  0.64426743373E+01  0.19021738279E+02  0.62929222560E+02  0.10000000000E+01 0.  0.
<mgrwt>
<rscale>  0 0.12500204E+03</rscale>
<asrwt>0</asrwt>
<pdfrwt beam="1">  1        4 0.28488733E-01 0.12500204E+03</pdfrwt>
<pdfrwt beam="2">  1       -4 0.85700055E-02 0.12500204E+03</pdfrwt>
<totfact> 0.18625025E+03</totfact>
</mgrwt>
</event>
<event>
 5    1  0.1431256E-002  0.1250039E+03  0.7818608E-02  0.1235063E+00
         -4   -1    0    0    0  501 -0.00000000000E+00  0.00000000000E+00  0.32034769240E+02  0.32059933566E+02  0.12700000000E+01 0. -1.
          4   -1    0    0  501    0  0.00000000000E+00 -0.00000000000E+00 -0.12186912480E+03  0.12187574196E+03  0.12700000000E+01 0. -1.
         25    2    1    2    0    0  0.00000000000E+00  0.00000000000E+00 -0.89834355557E+02  0.15393567553E+03  0.12500392299E+03 0.  0.
    9000005    1    3    3    0    0 -0.54574905665E+02  0.75499622801E+01 -0.81241161145E+02  0.98165923431E+02  0.10000000000E+01 0.  0.
    9000005    1    3    3    0    0  0.54574905665E+02 -0.75499622801E+01 -0.85931944116E+01  0.55769752097E+02  0.10000000000E+01 0.  0.
<mgrwt>
<rscale>  0 0.12500392E+03</rscale>
<asrwt>0</asrwt>
<pdfrwt beam="2">  1        4 0.30471253E-01 0.12500392E+03</pdfrwt>
<pdfrwt beam="1">  1       -4 0.80126653E-02 0.12500392E+03</pdfrwt>
<totfact> 0.18345268E+03</totfact>
</mgrwt>
</event>
<event>
 5    1  0.1431256E-002  0.1249982E+03  0.7818608E-02  0.1235072E+00
         -4   -1    0    0    0  501 -0.00000000000E+00  0.00000000000E+00  0.33808737570E+03  0.33808976102E+03  0.12700000000E+01 0. -1.
          4   -1    0    0  501    0  0.00000000000E+00 -0.00000000000E+00 -0.11516291150E+02  0.11586106415E+02  0.12700000000E+01 0. -1.
         25    2    1    2    0    0  0.00000000000E+00  0.00000000000E+00  0.32657108455E+03  0.34967586744E+03  0.12499815600E+03 0.  0.
    9000005    1    3    3    0    0  0.34734580940E+02 -0.26781432807E+02  0.28780808176E+03  0.29113266423E+03  0.10000000000E+01 0.  0.
    9000005    1    3    3    0    0 -0.34734580940E+02  0.26781432807E+02  0.38763002790E+02  0.58543203205E+02  0.10000000000E+01 0.  0.
<mgrwt>
<rscale>  0 0.12499816E+03</rscale>
<asrwt>0</asrwt>
<pdfrwt beam="2">  1        4 0.28880978E-02 0.12499816E+03</pdfrwt>
<pdfrwt beam="1">  1       -4 0.84530872E-01 0.12499816E+03</pdfrwt>
<totfact> 0.11685546E+03</totfact>
</mgrwt>
</event>
<event>
 5    1  0.1431256E-002  0.1250035E+03  0.7818608E-02  0.1235064E+00
         -4   -1    0    0    0  501 -0.00000000000E+00  0.00000000000E+00  0.32501307770E+01  0.34894483902E+01  0.12700000000E+01 0.  1.
          4   -1    0    0  501    0  0.00000000000E+00 -0.00000000000E+00 -0.11590230199E+04  0.11590237157E+04  0.12700000000E+01 0.  1.
         25    2    1    2    0    0  0.00000000000E+00  0.00000000000E+00 -0.11557728892E+04  0.11625131641E+04  0.12500354177E+03 0.  0.
    9000005    1    3    3    0    0  0.49368902490E+01 -0.55173639679E+02 -0.30883831414E+03  0.31376839816E+03  0.10000000000E+01 0.  0.
    9000005    1    3    3    0    0 -0.49368902490E+01  0.55173639679E+02 -0.84693457502E+03  0.84874476597E+03  0.10000000000E+01 0.  0.
<mgrwt>
<rscale>  0 0.12500354E+03</rscale>
<asrwt>0</asrwt>
<pdfrwt beam="2">  1        4 0.28978439E+00 0.12500354E+03</pdfrwt>
<pdfrwt beam="1">  1       -4 0.84253834E-03 0.12500354E+03</pdfrwt>
<totfact> 0.27209626E+02</totfact>
</mgrwt>
</event>
<event>
 5    1  0.1431256E-002  0.1250000E+03  0.7818608E-02  0.1235069E+00
          4   -1    0    0  501    0  0.00000000000E+00  0.00000000000E+00  0.65123816931E+02  0.65136199088E+02  0.12700000000E+01 0. -1.
         -4   -1    0    0    0  501 -0.00000000000E+00 -0.00000000000E+00 -0.59957047390E+02  0.59970496343E+02  0.12700000000E+01 0. -1.
         25    2    1    2    0    0  0.00000000000E+00  0.00000000000E+00  0.51667695411E+01  0.12510669543E+03  0.12499995894E+03 0.  0.
    9000005    1    3    3    0    0 -0.54755151416E+02 -0.28926520724E+02  0.10979661699E+02  0.62900104760E+02  0.10000000000E+01 0.  0.
    9000005    1    3    3    0    0  0.54755151416E+02  0.28926520724E+02 -0.58128921582E+01  0.62206590672E+02  0.10000000000E+01 0.  0.
<mgrwt>
<rscale>  0 0.12499996E+03</rscale>
<asrwt>0</asrwt>
<pdfrwt beam="1">  1        4 0.16284183E-01 0.12499996E+03</pdfrwt>
<pdfrwt beam="2">  1       -4 0.14992491E-01 0.12499996E+03</pdfrwt>
<totfact> 0.19829289E+03</totfact>
</mgrwt>
</event>
<event>
 5    1  0.1431256E-002  0.1250043E+03  0.7818608E-02  0.1235063E+00
         -4   -1    0    0    0  501 -0.00000000000E+00  0.00000000000E+00  0.40505444122E+02  0.40525348901E+02  0.12700000000E+01 0. -1.
          4   -1    0    0  501    0  0.00000000000E+00 -0.00000000000E+00 -0.96396528448E+02  0.96404894050E+02  0.12700000000E+01 0. -1.
         25    2    1    2    0    0  0.00000000000E+00  0.00000000000E+00 -0.55891084325E+02  0.13693024295E+03  0.12500431244E+03 0.  0.
    9000005    1    3    3    0    0  0.20924485255E+02  0.58852812479E+02 -0.25746012082E+02  0.67567334993E+02  0.10000000000E+01 0.  0.
    9000005    1    3    3    0    0 -0.20924485255E+02 -0.58852812479E+02 -0.30145072243E+02  0.69362907958E+02  0.10000000000E+01 0.  0.
<mgrwt>
<rscale>  0 0.12500431E+03</rscale>
<asrwt>0</asrwt>
<pdfrwt beam="2">  1        4 0.24102666E-01 0.12500431E+03</pdfrwt>
<pdfrwt beam="1">  1       -4 0.10129895E-01 0.12500431E+03</pdfrwt>
<totfact> 0.19196574E+03</totfact>
</mgrwt>
</event>
<event>
 5    1  0.1431256E-002  0.1250012E+03  0.7818608E-02  0.1235067E+00
          4   -1    0    0  501    0  0.00000000000E+00  0.00000000000E+00  0.64579177569E+01  0.65816108784E+01  0.12700000000E+01 0.  1.
         -4   -1    0    0    0  501 -0.00000000000E+00 -0.00000000000E+00 -0.59902646967E+03  0.59902781593E+03  0.12700000000E+01 0.  1.
         25    2    1    2    0    0  0.00000000000E+00  0.00000000000E+00 -0.59256855191E+03  0.60560942681E+03  0.12500115652E+03 0.  0.
    9000005    1    3    3    0    0 -0.28232063959E+02  0.23837041499E+02 -0.52109221745E+02  0.63887596399E+02  0.10000000000E+01 0.  0.
    9000005    1    3    3    0    0  0.28232063959E+02 -0.23837041499E+02 -0.54045933017E+03  0.54172183041E+03  0.10000000000E+01 0.  0.
<mgrwt>
<rscale>  0 0.12500116E+03</rscale>
<asrwt>0</asrwt>
<pdfrwt beam="1">  1        4 0.16301114E-02 0.12500116E+03</pdfrwt>
<pdfrwt beam="2">  1       -4 0.14977206E+00 0.12500116E+03</pdfrwt>
<totfact> 0.72799777E+02</totfact>
</mgrwt>
</event>
<event>
 5    1  0.1431256E-002  0.1249947E+03  0.7818608E-02  0.1235078E+00
         -4   -1    0    0    0  501 -0.00000000000E+00  0.00000000000E+00  0.47982458668E+02  0.47999262909E+02  0.12700000000E+01 0. -1.
          4   -1    0    0  501    0  0.00000000000E+00 -0.00000000000E+00 -0.81366997083E+02  0.81376907746E+02  0.12700000000E+01 0. -1.
         25    2    1    2    0    0  0.00000000000E+00  0.00000000000E+00 -0.33384538415E+02  0.12937617066E+03  0.12499466440E+03 0.  0.
    9000005    1    3    3    0    0 -0.28483922549E+02  0.54148870123E+02 -0.29845293451E+02  0.68082123356E+02  0.10000000000E+01 0.  0.
    9000005    1    3    3    0    0  0.28483922549E+02 -0.54148870123E+02 -0.35392449641E+01  0.61294047299E+02  0.10000000000E+01 0.  0.
<mgrwt>
<rscale>  0 0.12499466E+03</rscale>
<asrwt>0</asrwt>
<pdfrwt beam="2">  1        4 0.20345088E-01 0.12499466E+03</pdfrwt>
<pdfrwt beam="1">  1       -4 0.11998954E-01 0.12499466E+03</pdfrwt>
<totfact> 0.19600419E+03</totfact>
</mgrwt>
</event>
<event>
 5    1  0.1431256E-002  0.1249986E+03  0.7818608E-02  0.1235072E+00
          4   -1    0    0  501    0  0.00000000000E+00  0.00000000000E+00  0.21701017750E+02  0.21738147837E+02  0.12700000000E+01 0.  1.
         -4   -1    0    0    0  501 -0.00000000000E+00 -0.00000000000E+00 -0.17980574433E+03  0.17981022939E+03  0.12700000000E+01 0.  1.
         25    2    1    2    0    0  0.00000000000E+00  0.00000000000E+00 -0.15810472658E+03  0.20154837723E+03  0.12499857518E+03 0.  0.
    9000005    1    3    3    0    0  0.13356220050E+02 -0.59845391038E+02 -0.59616255366E+02  0.85527523911E+02  0.10000000000E+01 0.  0.
    9000005    1    3    3    0    0 -0.13356220050E+02  0.59845391038E+02 -0.98488471211E+02  0.11602085332E+03  0.10000000000E+01 0.  0.
<mgrwt>
<rscale>  0 0.12499858E+03</rscale>
<asrwt>0</asrwt>
<pdfrwt beam="1">  1        4 0.54304569E-02 0.12499858E+03</pdfrwt>
<pdfrwt beam="2">  1       -4 0.44956634E-01 0.12499858E+03</pdfrwt>
<totfact> 0.16260765E+03</totfact>
</mgrwt>
</event>
<event>
 5    1  0.1431256E-002  0.1250017E+03  0.7818608E-02  0.1235067E+00
          4   -1    0    0  501    0  0.00000000000E+00  0.00000000000E+00  0.72763934198E+03  0.72764045029E+03  0.12700000000E+01 0.  1.
         -4   -1    0    0    0  501 -0.00000000000E+00 -0.00000000000E+00 -0.52923002590E+01  0.54425492218E+01  0.12700000000E+01 0.  1.
         25    2    1    2    0    0  0.00000000000E+00  0.00000000000E+00  0.72234704172E+03  0.73308299951E+03  0.12500174194E+03 0.  0.
    9000005    1    3    3    0    0 -0.33227986660E+02 -0.46036396086E+02  0.51431774288E+03  0.51744293357E+03  0.10000000000E+01 0.  0.
    9000005    1    3    3    0    0  0.33227986660E+02  0.46036396086E+02  0.20802929884E+03  0.21564006594E+03  0.10000000000E+01 0.  0.
<mgrwt>
<rscale>  0 0.12500174E+03</rscale>
<asrwt>0</asrwt>
<pdfrwt beam="1">  1        4 0.18192872E+00 0.12500174E+03</pdfrwt>
<pdfrwt beam="2">  1       -4 0.13419950E-02 0.12500174E+03</pdfrwt>
<totfact> 0.58708123E+02</totfact>
</mgrwt>
</event>
<event>
 5    1  0.1431256E-002  0.1250026E+03  0.7818608E-02  0.1235065E+00
         -4   -1    0    0    0  501 -0.00000000000E+00  0.00000000000E+00  0.13729426252E+02  0.13788039934E+02  0.12700000000E+01 0.  1.
          4   -1    0    0  501    0  0.00000000000E+00 -0.00000000000E+00 -0.28386232542E+03  0.28386516640E+03  0.12700000000E+01 0.  1.
         25    2    1    2    0    0  0.00000000000E+00  0.00000000000E+00 -0.27013289917E+03  0.29765320633E+03  0.12500259208E+03 0.  0.
    9000005    1    3    3    0    0  0.31051166136E+02 -0.16817599189E+02 -0.25783924810E+03  0.26024812089E+03  0.10000000000E+01 0.  0.
    9000005    1    3    3    0    0 -0.31051166136E+02  0.16817599189E+02 -0.12293651067E+02  0.37405085449E+02  0.10000000000E+01 0.  0.
<mgrwt>
<rscale>  0 0.12500259E+03</rscale>
<asrwt>0</asrwt>
<pdfrwt beam="2">  1        4 0.70973244E-01 0.12500259E+03</pdfrwt>
<pdfrwt beam="1">  1       -4 0.34400393E-02 0.12500259E+03</pdfrwt>
<totfact> 0.13036313E+03</totfact>
</mgrwt>
</event>
<event>
 5    1  0.1431256E-002  0.1250043E+03  0.7818608E-02  0.1235063E+00
          4   -1    0    0  501    0  0.00000000000E+00  0.00000000000E+00  0.28223933631E+03  0.28224219363E+03  0.12700000000E+01 0.  1.
         -4   -1    0    0    0  501 -0.00000000000E+00 -0.00000000000E+00 -0.13809094179E+02  0.13867371130E+02  0.12700000000E+01 0.  1.
         25    2    1    2    0    0  0.00000000000E+00  0.00000000000E+00  0.26843024213E+03  0.29610956476E+03  0.12500431771E+03 0.  0.
    9000005    1    3    3    0    0  0.53457571545E+02 -0.32146715433E+02  0.14320300154E+03  0.15620250612E+03  0.10000000000E+01 0.  0.
    9000005    1    3    3    0    0 -0.53457571545E+02  0.32146715433E+02  0.12522724059E+03  0.13990705863E+03  0.10000000000E+01 0.  0.
<mgrwt>
<rscale>  0 0.12500432E+03</rscale>
<asrwt>0</asrwt>
<pdfrwt beam="1">  1        4 0.70567477E-01 0.12500432E+03</pdfrwt>
<pdfrwt beam="2">  1       -4 0.34599153E-02 0.12500432E+03</pdfrwt>
<totfact> 0.13079503E+03</totfact>
</mgrwt>
</event>
<event>
 5    1  0.1431256E-002  0.1249977E+03  0.7818608E-02  0.1235073E+00
          4   -1    0    0  501    0  0.00000000000E+00  0.00000000000E+00  0.15990415760E+03  0.15990920086E+03  0.12700000000E+01 0.  1.
         -4   -1    0    0    0  501 -0.00000000000E+00 -0.00000000000E+00 -0.24405864116E+02  0.24438885065E+02  0.12700000000E+01 0.  1.
         25    2    1    2    0    0  0.00000000000E+00  0.00000000000E+00  0.13549829349E+03  0.18434808592E+03  0.12499771696E+03 0.  0.
    9000005    1    3    3    0    0 -0.37793363423E+02 -0.48209677560E+02  0.85967457309E+02  0.10556474338E+03  0.10000000000E+01 0.  0.
    9000005    1    3    3    0    0  0.37793363423E+02  0.48209677560E+02  0.49530836179E+02  0.78783342540E+02  0.10000000000E+01 0.  0.
<mgrwt>
<rscale>  0 0.12499772E+03</rscale>
<asrwt>0</asrwt>
<pdfrwt beam="1">  1        4 0.39980796E-01 0.12499772E+03</pdfrwt>
<pdfrwt beam="2">  1       -4 0.61062242E-02 0.12499772E+03</pdfrwt>
<totfact> 0.16969464E+03</totfact>
</mgrwt>
</event>
<event>
 5    1  0.1431256E-002  0.1249855E+03  0.7818608E-02  0.1235092E+00
          4   -1    0    0  501    0  0.00000000000E+00  0.00000000000E+00  0.38749837366E+02  0.38770643480E+02  0.12700000000E+01 0.  1.
         -4   -1    0    0    0  501 -0.00000000000E+00 -0.00000000000E+00 -0.10073155916E+03  0.10073956478E+03  0.12700000000E+01 0.  1.
         25    2    1    2    0    0  0.00000000000E+00  0.00000000000E+00 -0.61981721796E+02  0.13951020826E+03  0.12498545664E+03 0.  0.
    9000005    1    3    3    0    0 -0.42772121448E+02 -0.10312619810E+02 -0.80515150188E+02  0.91757800270E+02  0.10000000000E+01 0.  0.
    9000005    1    3    3    0    0  0.42772121448E+02  0.10312619810E+02  0.18533428392E+02  0.47752407986E+02  0.10000000000E+01 0.  0.
<mgrwt>
<rscale>  0 0.12498546E+03</rscale>
<asrwt>0</asrwt>
<pdfrwt beam="1">  1        4 0.96910610E-02 0.12498546E+03</pdfrwt>
<pdfrwt beam="2">  1       -4 0.25186491E-01 0.12498546E+03</pdfrwt>
<totfact> 0.19071895E+03</totfact>
</mgrwt>
</event>
<event>
 5    1  0.1431256E-002  0.1250005E+03  0.7818608E-02  0.1235069E+00
          4   -1    0    0  501    0  0.00000000000E+00  0.00000000000E+00  0.18434932595E+02  0.18478626567E+02  0.12700000000E+01 0. -1.
         -4   -1    0    0    0  501 -0.00000000000E+00 -0.00000000000E+00 -0.21159903618E+03  0.21160284736E+03  0.12700000000E+01 0. -1.
         25    2    1    2    0    0  0.00000000000E+00  0.00000000000E+00 -0.19316410358E+03  0.23008147393E+03  0.12500045493E+03 0.  0.
    9000005    1    3    3    0    0  0.43614966079E+02  0.37838033060E+02 -0.14057679721E+03  0.15197637292E+03  0.10000000000E+01 0.  0.
    9000005    1    3    3    0    0 -0.43614966079E+02 -0.37838033060E+02 -0.52587306370E+02  0.78105101006E+02  0.10000000000E+01 0.  0.
<mgrwt>
<rscale>  0 0.12500045E+03</rscale>
<asrwt>0</asrwt>
<pdfrwt beam="1">  1        4 0.46146719E-02 0.12500045E+03</pdfrwt>
<pdfrwt beam="2">  1       -4 0.52905690E-01 0.12500045E+03</pdfrwt>
<totfact> 0.15184243E+03</totfact>
</mgrwt>
</event>
<event>
 5    1  0.1431256E-002  0.1249990E+03  0.7818608E-02  0.1235071E+00
          4   -1    0    0  501    0  0.00000000000E+00  0.00000000000E+00  0.15663241593E+03  0.15663756453E+03  0.12700000000E+01 0.  1.
         -4   -1    0    0    0  501 -0.00000000000E+00 -0.00000000000E+00 -0.24916833323E+02  0.24949178000E+02  0.12700000000E+01 0.  1.
         25    2    1    2    0    0  0.00000000000E+00  0.00000000000E+00  0.13171558261E+03  0.18158674253E+03  0.12499900143E+03 0.  0.
    9000005    1    3    3    0    0  0.29832384319E+01 -0.58396652901E+02  0.97887191558E+02  0.11402618582E+03  0.10000000000E+01 0.  0.
    9000005    1    3    3    0    0 -0.29832384319E+01  0.58396652901E+02  0.33828391054E+02  0.67560556709E+02  0.10000000000E+01 0.  0.
<mgrwt>
<rscale>  0 0.12499900E+03</rscale>
<asrwt>0</asrwt>
<pdfrwt beam="1">  1        4 0.39162789E-01 0.12499900E+03</pdfrwt>
<pdfrwt beam="2">  1       -4 0.62338952E-02 0.12499900E+03</pdfrwt>
<totfact> 0.17087149E+03</totfact>
</mgrwt>
</event>
<event>
 5    1  0.1431256E-002  0.1249993E+03  0.7818608E-02  0.1235070E+00
         -4   -1    0    0    0  501 -0.00000000000E+00  0.00000000000E+00  0.36967276827E+02  0.36989085633E+02  0.12700000000E+01 0. -1.
          4   -1    0    0  501    0  0.00000000000E+00 -0.00000000000E+00 -0.10560978480E+03  0.10561742065E+03  0.12700000000E+01 0. -1.
         25    2    1    2    0    0  0.00000000000E+00  0.00000000000E+00 -0.68642507971E+02  0.14260650628E+03  0.12499928693E+03 0.  0.
    9000005    1    3    3    0    0 -0.55275482774E+02 -0.21464506510E+01 -0.11534683139E+01  0.55338203218E+02  0.10000000000E+01 0.  0.
    9000005    1    3    3    0    0  0.55275482774E+02  0.21464506510E+01 -0.67489039657E+02  0.87268303066E+02  0.10000000000E+01 0.  0.
<mgrwt>
<rscale>  0 0.12499929E+03</rscale>
<asrwt>0</asrwt>
<pdfrwt beam="2">  1        4 0.26406126E-01 0.12499929E+03</pdfrwt>
<pdfrwt beam="1">  1       -4 0.92455000E-02 0.12499929E+03</pdfrwt>
<totfact> 0.18908096E+03</totfact>
</mgrwt>
</event>
<event>
 5    1  0.1431256E-002  0.1249995E+03  0.7818608E-02  0.1235070E+00
         -4   -1    0    0    0  501 -0.00000000000E+00  0.00000000000E+00  0.43185970013E+03  0.43186156751E+03  0.12700000000E+01 0. -1.
          4   -1    0    0  501    0  0.00000000000E+00 -0.00000000000E+00 -0.89986399693E+01  0.90878171910E+01  0.12700000000E+01 0. -1.
         25    2    1    2    0    0  0.00000000000E+00  0.00000000000E+00  0.42286106016E+03  0.44094938471E+03  0.12499953469E+03 0.  0.
    9000005    1    3    3    0    0  0.82335643871E+01 -0.13458021927E+02 -0.18748983507E+01  0.15919333546E+02  0.10000000000E+01 0.  0.
    9000005    1    3    3    0    0 -0.82335643871E+01  0.13458021927E+02  0.42473595851E+03  0.42503005116E+03  0.10000000000E+01 0.  0.
<mgrwt>
<rscale>  0 0.12499953E+03</rscale>
<asrwt>0</asrwt>
<pdfrwt beam="2">  1        4 0.22610405E-02 0.12499953E+03</pdfrwt>
<pdfrwt beam="1">  1       -4 0.10797631E+00 0.12499953E+03</pdfrwt>
<totfact> 0.97665955E+02</totfact>
</mgrwt>
</event>
<event>
 4    1  0.1431256E-002  0.1248875E+03  0.7818608E-02  0.1235245E+00
         -4   -1    0    0    0  501 -0.00000000000E+00  0.00000000000E+00  0.10211188724E+03  0.10211978465E+03  0.12700000000E+01 0.  1.
          4   -1    0    0  501    0  0.00000000000E+00 -0.00000000000E+00 -0.38165867370E+02  0.38186991660E+02  0.12700000000E+01 0.  1.
    9000005    1    1    2    0    0 -0.44704524345E+02  0.21523630618E+02  0.74553122233E+02  0.89559640501E+02  0.10000000000E+01 0.  0.
    9000005    1    1    2    0    0  0.44704524345E+02 -0.21523630618E+02 -0.10607102361E+02  0.50747135805E+02  0.10000000000E+01 0.  0.
<mgrwt>
<rscale>  0 0.12488754E+03</rscale>
<asrwt>0</asrwt>
<pdfrwt beam="2">  1        4 0.95450947E-02 0.12488754E+03</pdfrwt>
<pdfrwt beam="1">  1       -4 0.25531599E-01 0.12488754E+03</pdfrwt>
<totfact> 0.19074631E+03</totfact>
</mgrwt>
</event>
<event>
 5    1  0.1431256E-002  0.1250021E+03  0.7818608E-02  0.1235066E+00
          4   -1    0    0  501    0  0.00000000000E+00  0.00000000000E+00  0.20903057679E+02  0.20941602621E+02  0.12700000000E+01 0. -1.
         -4   -1    0    0    0  501 -0.00000000000E+00 -0.00000000000E+00 -0.18666795439E+03  0.18667227458E+03  0.12700000000E+01 0. -1.
         25    2    1    2    0    0  0.00000000000E+00  0.00000000000E+00 -0.16576489671E+03  0.20761387720E+03  0.12500208408E+03 0.  0.
    9000005    1    3    3    0    0 -0.25776052241E+02 -0.56632297926E+02 -0.92532483272E+02  0.11151180430E+03  0.10000000000E+01 0.  0.
    9000005    1    3    3    0    0  0.25776052241E+02  0.56632297926E+02 -0.73232413439E+02  0.96102072900E+02  0.10000000000E+01 0.  0.
<mgrwt>
<rscale>  0 0.12500208E+03</rscale>
<asrwt>0</asrwt>
<pdfrwt beam="1">  1        4 0.52311231E-02 0.12500208E+03</pdfrwt>
<pdfrwt beam="2">  1       -4 0.46672342E-01 0.12500208E+03</pdfrwt>
<totfact> 0.16020872E+03</totfact>
</mgrwt>
</event>
<event>
 5    1  0.1431256E-002  0.1249997E+03  0.7818608E-02  0.1235070E+00
         -4   -1    0    0    0  501 -0.00000000000E+00  0.00000000000E+00  0.50258968884E+02  0.50275012216E+02  0.12700000000E+01 0. -1.
          4   -1    0    0  501    0  0.00000000000E+00 -0.00000000000E+00 -0.77688404461E+02  0.77698784338E+02  0.12700000000E+01 0. -1.
         25    2    1    2    0    0  0.00000000000E+00  0.00000000000E+00 -0.27429435576E+02  0.12797379655E+03  0.12499967467E+03 0.  0.
    9000005    1    3    3    0    0  0.18599979418E+02  0.26579633723E+02 -0.68397089148E+02  0.75707317791E+02  0.10000000000E+01 0.  0.
    9000005    1    3    3    0    0 -0.18599979418E+02 -0.26579633723E+02  0.40967653572E+02  0.52266478763E+02  0.10000000000E+01 0.  0.
<mgrwt>
<rscale>  0 0.12499967E+03</rscale>
<asrwt>0</asrwt>
<pdfrwt beam="2">  1        4 0.19425404E-01 0.12499967E+03</pdfrwt>
<pdfrwt beam="1">  1       -4 0.12568045E-01 0.12499967E+03</pdfrwt>
<totfact> 0.19674109E+03</totfact>
</mgrwt>
</event>
<event>
 5    1  0.1431256E-002  0.1250003E+03  0.7818608E-02  0.1235069E+00
         -4   -1    0    0    0  501 -0.00000000000E+00  0.00000000000E+00  0.80897843981E+02  0.80907812113E+02  0.12700000000E+01 0. -1.
          4   -1    0    0  501    0  0.00000000000E+00 -0.00000000000E+00 -0.48265171425E+02  0.48281877269E+02  0.12700000000E+01 0. -1.
         25    2    1    2    0    0  0.00000000000E+00  0.00000000000E+00  0.32632672557E+02  0.12918968938E+03  0.12500033810E+03 0.  0.
    9000005    1    3    3    0    0 -0.14478550017E+02  0.56454916279E+02  0.39621695572E+02  0.70481662457E+02  0.10000000000E+01 0.  0.
    9000005    1    3    3    0    0  0.14478550017E+02 -0.56454916279E+02 -0.69890230152E+01  0.58708026925E+02  0.10000000000E+01 0.  0.
<mgrwt>
<rscale>  0 0.12500034E+03</rscale>
<asrwt>0</asrwt>
<pdfrwt beam="2">  1        4 0.12069627E-01 0.12500034E+03</pdfrwt>
<pdfrwt beam="1">  1       -4 0.20227795E-01 0.12500034E+03</pdfrwt>
<totfact> 0.19607890E+03</totfact>
</mgrwt>
</event>
<event>
 5    1  0.1431256E-002  0.1250013E+03  0.7818608E-02  0.1235067E+00
          4   -1    0    0  501    0  0.00000000000E+00  0.00000000000E+00  0.34886181795E+03  0.34886412960E+03  0.12700000000E+01 0. -1.
         -4   -1    0    0    0  501 -0.00000000000E+00 -0.00000000000E+00 -0.11158992965E+02  0.11231029516E+02  0.12700000000E+01 0. -1.
         25    2    1    2    0    0  0.00000000000E+00  0.00000000000E+00  0.33770282498E+03  0.36009515912E+03  0.12500130246E+03 0.  0.
    9000005    1    3    3    0    0  0.46967448764E+02  0.19828746678E+02  0.64737346457E+02  0.82407793713E+02  0.10000000000E+01 0.  0.
    9000005    1    3    3    0    0 -0.46967448764E+02 -0.19828746678E+02  0.27296547852E+03  0.27768736540E+03  0.10000000000E+01 0.  0.
<mgrwt>
<rscale>  0 0.12500130E+03</rscale>
<asrwt>0</asrwt>
<pdfrwt beam="1">  1        4 0.87224746E-01 0.12500130E+03</pdfrwt>
<pdfrwt beam="2">  1       -4 0.27990418E-02 0.12500130E+03</pdfrwt>
<totfact> 0.11439855E+03</totfact>
</mgrwt>
</event>
<event>
 5    1  0.1431256E-002  0.1249991E+03  0.7818608E-02  0.1235071E+00
         -4   -1    0    0    0  501 -0.00000000000E+00  0.00000000000E+00  0.96603199491E+02  0.96611547197E+02  0.12700000000E+01 0.  1.
          4   -1    0    0  501    0  0.00000000000E+00 -0.00000000000E+00 -0.40415365507E+02  0.40435314628E+02  0.12700000000E+01 0.  1.
         25    2    1    2    0    0  0.00000000000E+00  0.00000000000E+00  0.56187833984E+02  0.13704686183E+03  0.12499907859E+03 0.  0.
    9000005    1    3    3    0    0  0.43493387585E+02  0.68369151818E+01  0.76716669370E+02  0.88458270004E+02  0.10000000000E+01 0.  0.
    9000005    1    3    3    0    0 -0.43493387585E+02 -0.68369151818E+01 -0.20528835386E+02  0.48588591821E+02  0.10000000000E+01 0.  0.
<mgrwt>
<rscale>  0 0.12499908E+03</rscale>
<asrwt>0</asrwt>
<pdfrwt beam="2">  1        4 0.10107379E-01 0.12499908E+03</pdfrwt>
<pdfrwt beam="1">  1       -4 0.24154337E-01 0.12499908E+03</pdfrwt>
<totfact> 0.19192867E+03</totfact>
</mgrwt>
</event>
<event>
 5    1  0.1431256E-002  0.1250459E+03  0.7818608E-02  0.1234998E+00
          4   -1    0    0  501    0  0.00000000000E+00  0.00000000000E+00  0.48578791128E+03  0.48578957137E+03  0.12700000000E+01 0. -1.
         -4   -1    0    0    0  501 -0.00000000000E+00 -0.00000000000E+00 -0.79951740221E+01  0.80954127531E+01  0.12700000000E+01 0. -1.
         25    2    1    2    0    0  0.00000000000E+00  0.00000000000E+00  0.47779273726E+03  0.49388498412E+03  0.12504590261E+03 0.  0.
    9000005    1    3    3    0    0  0.40264127539E+02 -0.37953125442E+02  0.35380817223E+03  0.35811012613E+03  0.10000000000E+01 0.  0.
    9000005    1    3    3    0    0 -0.40264127539E+02  0.37953125442E+02  0.12398456503E+03  0.13577485799E+03  0.10000000000E+01 0.  0.
<mgrwt>
<rscale>  0 0.12504590E+03</rscale>
<asrwt>0</asrwt>
<pdfrwt beam="1">  1        4 0.12145971E+00 0.12504590E+03</pdfrwt>
<pdfrwt beam="2">  1       -4 0.20115309E-02 0.12504590E+03</pdfrwt>
<totfact> 0.88495444E+02</totfact>
</mgrwt>
</event>
<event>
 5    1  0.1431256E-002  0.1249986E+03  0.7818608E-02  0.1235072E+00
          4   -1    0    0  501    0  0.00000000000E+00  0.00000000000E+00  0.65850339761E+01  0.67063829645E+01  0.12700000000E+01 0. -1.
         -4   -1    0    0    0  501 -0.00000000000E+00 -0.00000000000E+00 -0.58764991237E+03  0.58765128470E+03  0.12700000000E+01 0. -1.
         25    2    1    2    0    0  0.00000000000E+00  0.00000000000E+00 -0.58106487839E+03  0.59435766766E+03  0.12499857682E+03 0.  0.
    9000005    1    3    3    0    0 -0.87768733494E+01 -0.61734527044E+02 -0.31012345074E+03  0.31633169306E+03  0.10000000000E+01 0.  0.
    9000005    1    3    3    0    0  0.87768733494E+01  0.61734527044E+02 -0.27094142765E+03  0.27802597460E+03  0.10000000000E+01 0.  0.
<mgrwt>
<rscale>  0 0.12499858E+03</rscale>
<asrwt>0</asrwt>
<pdfrwt beam="1">  1        4 0.16616007E-02 0.12499858E+03</pdfrwt>
<pdfrwt beam="2">  1       -4 0.14692764E+00 0.12499858E+03</pdfrwt>
<totfact> 0.74219903E+02</totfact>
</mgrwt>
</event>
<event>
 5    1  0.1431256E-002  0.1249960E+03  0.7818608E-02  0.1235076E+00
          4   -1    0    0  501    0  0.00000000000E+00  0.00000000000E+00  0.33747935462E+01  0.36058468463E+01  0.12700000000E+01 0. -1.
         -4   -1    0    0    0  501 -0.00000000000E+00 -0.00000000000E+00 -0.11188628705E+04  0.11188635913E+04  0.12700000000E+01 0. -1.
         25    2    1    2    0    0  0.00000000000E+00  0.00000000000E+00 -0.11154880770E+04  0.11224694381E+04  0.12499595871E+03 0.  0.
    9000005    1    3    3    0    0 -0.53437593697E+02  0.31219168695E+02 -0.63540171223E+03  0.63840938967E+03  0.10000000000E+01 0.  0.
    9000005    1    3    3    0    0  0.53437593697E+02 -0.31219168695E+02 -0.48008636474E+03  0.48406004847E+03  0.10000000000E+01 0.  0.
<mgrwt>
<rscale>  0 0.12499596E+03</rscale>
<asrwt>0</asrwt>
<pdfrwt beam="1">  1        4 0.87267398E-03 0.12499596E+03</pdfrwt>
<pdfrwt beam="2">  1       -4 0.27974346E+00 0.12499596E+03</pdfrwt>
<totfact> 0.29469850E+02</totfact>
</mgrwt>
</event>
<event>
 5    1  0.1431256E-002  0.1250005E+03  0.7818608E-02  0.1235068E+00
          4   -1    0    0  501    0  0.00000000000E+00  0.00000000000E+00  0.51525440035E+01  0.53067513328E+01  0.12700000000E+01 0. -1.
         -4   -1    0    0    0  501 -0.00000000000E+00 -0.00000000000E+00 -0.74679482836E+03  0.74679590824E+03  0.12700000000E+01 0. -1.
         25    2    1    2    0    0  0.00000000000E+00  0.00000000000E+00 -0.74164228436E+03  0.75210265957E+03  0.12500053037E+03 0.  0.
    9000005    1    3    3    0    0 -0.35765376262E+02 -0.38596925610E+02 -0.16799190164E+03  0.17604307377E+03  0.10000000000E+01 0.  0.
    9000005    1    3    3    0    0  0.35765376262E+02  0.38596925610E+02 -0.57365038271E+03  0.57605958580E+03  0.10000000000E+01 0.  0.
<mgrwt>
<rscale>  0 0.12500053E+03</rscale>
<asrwt>0</asrwt>
<pdfrwt beam="1">  1        4 0.13075494E-02 0.12500053E+03</pdfrwt>
<pdfrwt beam="2">  1       -4 0.18671775E+00 0.12500053E+03</pdfrwt>
<totfact> 0.56869277E+02</totfact>
</mgrwt>
</event>
<event>
 5    1  0.1431256E-002  0.1250000E+03  0.7818608E-02  0.1235069E+00
         -4   -1    0    0    0  501 -0.00000000000E+00  0.00000000000E+00  0.52032645454E+02  0.52048142070E+02  0.12700000000E+01 0.  1.
          4   -1    0    0  501    0  0.00000000000E+00 -0.00000000000E+00 -0.75041035401E+02  0.75051781418E+02  0.12700000000E+01 0.  1.
         25    2    1    2    0    0  0.00000000000E+00  0.00000000000E+00 -0.23008389947E+02  0.12709992349E+03  0.12500001817E+03 0.  0.
    9000005    1    3    3    0    0 -0.29880946707E+01 -0.57904334656E+02 -0.35206970710E+02  0.67840780275E+02  0.10000000000E+01 0.  0.
    9000005    1    3    3    0    0  0.29880946707E+01  0.57904334656E+02  0.12198580763E+02  0.59259143213E+02  0.10000000000E+01 0.  0.
<mgrwt>
<rscale>  0 0.12500002E+03</rscale>
<asrwt>0</asrwt>
<pdfrwt beam="2">  1        4 0.18763539E-01 0.12500002E+03</pdfrwt>
<pdfrwt beam="1">  1       -4 0.13011442E-01 0.12500002E+03</pdfrwt>
<totfact> 0.19721575E+03</totfact>
</mgrwt>
</event>
<event>
 5    1  0.1431256E-002  0.1249997E+03  0.7818608E-02  0.1235070E+00
          4   -1    0    0  501    0  0.00000000000E+00  0.00000000000E+00  0.14878295262E+02  0.14932400005E+02  0.12700000000E+01 0.  1.
         -4   -1    0    0    0  501 -0.00000000000E+00 -0.00000000000E+00 -0.26201366137E+03  0.26201673924E+03  0.12700000000E+01 0.  1.
         25    2    1    2    0    0  0.00000000000E+00  0.00000000000E+00 -0.24713536610E+03  0.27694913925E+03  0.12499974620E+03 0.  0.
    9000005    1    3    3    0    0 -0.61785822902E+02 -0.92842687104E+01 -0.12081054982E+03  0.13601424375E+03  0.10000000000E+01 0.  0.
    9000005    1    3    3    0    0  0.61785822902E+02  0.92842687104E+01 -0.12632481629E+03  0.14093489549E+03  0.10000000000E+01 0.  0.
<mgrwt>
<rscale>  0 0.12499975E+03</rscale>
<asrwt>0</asrwt>
<pdfrwt beam="1">  1        4 0.37267225E-02 0.12499975E+03</pdfrwt>
<pdfrwt beam="2">  1       -4 0.65510548E-01 0.12499975E+03</pdfrwt>
<totfact> 0.13642694E+03</totfact>
</mgrwt>
</event>
<event>
 5    1  0.1431256E-002  0.1250012E+03  0.7818608E-02  0.1235067E+00
          4   -1    0    0  501    0  0.00000000000E+00  0.00000000000E+00  0.12988952759E+03  0.12989573618E+03  0.12700000000E+01 0. -1.
         -4   -1    0    0    0  501 -0.00000000000E+00 -0.00000000000E+00 -0.30053888730E+02  0.30080710228E+02  0.12700000000E+01 0. -1.
         25    2    1    2    0    0  0.00000000000E+00  0.00000000000E+00  0.99835638856E+02  0.15997644640E+03  0.12500123447E+03 0.  0.
    9000005    1    3    3    0    0 -0.41270712032E+02 -0.41712681787E+02  0.77429259745E+02  0.97157139512E+02  0.10000000000E+01 0.  0.
    9000005    1    3    3    0    0  0.41270712032E+02  0.41712681787E+02  0.22406379111E+02  0.62819306891E+02  0.10000000000E+01 0.  0.
<mgrwt>
<rscale>  0 0.12500123E+03</rscale>
<asrwt>0</asrwt>
<pdfrwt beam="1">  1        4 0.32476511E-01 0.12500123E+03</pdfrwt>
<pdfrwt beam="2">  1       -4 0.75176010E-02 0.12500123E+03</pdfrwt>
<totfact> 0.18058345E+03</totfact>
</mgrwt>
</event>
<event>
 5    1  0.1431256E-002  0.1250033E+03  0.7818608E-02  0.1235064E+00
          4   -1    0    0  501    0  0.00000000000E+00  0.00000000000E+00  0.11756778317E+03  0.11757464241E+03  0.12700000000E+01 0.  1.
         -4   -1    0    0    0  501 -0.00000000000E+00 -0.00000000000E+00 -0.33207275949E+02  0.33231552415E+02  0.12700000000E+01 0.  1.
         25    2    1    2    0    0  0.00000000000E+00  0.00000000000E+00  0.84360507217E+02  0.15080619483E+03  0.12500325284E+03 0.  0.
    9000005    1    3    3    0    0 -0.55160453038E+02 -0.53618351706E+01  0.77021068166E+02  0.94892938606E+02  0.10000000000E+01 0.  0.
    9000005    1    3    3    0    0  0.55160453038E+02  0.53618351706E+01  0.73394390504E+01  0.55913256222E+02  0.10000000000E+01 0.  0.
<mgrwt>
<rscale>  0 0.12500325E+03</rscale>
<asrwt>0</asrwt>
<pdfrwt beam="1">  1        4 0.29395838E-01 0.12500325E+03</pdfrwt>
<pdfrwt beam="2">  1       -4 0.83057110E-02 0.12500325E+03</pdfrwt>
<totfact> 0.18497811E+03</totfact>
</mgrwt>
</event>
<event>
 5    1  0.1431256E-002  0.1250041E+03  0.7818608E-02  0.1235063E+00
          4   -1    0    0  501    0  0.00000000000E+00  0.00000000000E+00  0.13264911999E+03  0.13265519942E+03  0.12700000000E+01 0. -1.
         -4   -1    0    0    0  501 -0.00000000000E+00 -0.00000000000E+00 -0.29429460422E+02  0.29456850489E+02  0.12700000000E+01 0. -1.
         25    2    1    2    0    0  0.00000000000E+00  0.00000000000E+00  0.10321965957E+03  0.16211204991E+03  0.12500407435E+03 0.  0.
    9000005    1    3    3    0    0  0.16163499391E+02 -0.59548263320E+02  0.64464413428E+02  0.89240769695E+02  0.10000000000E+01 0.  0.
    9000005    1    3    3    0    0 -0.16163499391E+02  0.59548263320E+02  0.38755246139E+02  0.72871280216E+02  0.10000000000E+01 0.  0.
<mgrwt>
<rscale>  0 0.12500407E+03</rscale>
<asrwt>0</asrwt>
<pdfrwt beam="1">  1        4 0.33166463E-01 0.12500407E+03</pdfrwt>
<pdfrwt beam="2">  1       -4 0.73615488E-02 0.12500407E+03</pdfrwt>
<totfact> 0.17957109E+03</totfact>
</mgrwt>
</event>
<event>
 5    1  0.1431256E-002  0.1250013E+03  0.7818608E-02  0.1235067E+00
         -4   -1    0    0    0  501 -0.00000000000E+00  0.00000000000E+00  0.21177607739E+02  0.21215653879E+02  0.12700000000E+01 0.  1.
          4   -1    0    0  501    0  0.00000000000E+00 -0.00000000000E+00 -0.18425005613E+03  0.18425443301E+03  0.12700000000E+01 0.  1.
         25    2    1    2    0    0  0.00000000000E+00  0.00000000000E+00 -0.16307244839E+03  0.20547008689E+03  0.12500133272E+03 0.  0.
    9000005    1    3    3    0    0  0.49454691301E+02 -0.37734096549E+02 -0.71714289798E+02  0.94939811962E+02  0.10000000000E+01 0.  0.
    9000005    1    3    3    0    0 -0.49454691301E+02  0.37734096549E+02 -0.91358158593E+02  0.11053027493E+03  0.10000000000E+01 0.  0.
<mgrwt>
<rscale>  0 0.12500133E+03</rscale>
<asrwt>0</asrwt>
<pdfrwt beam="2">  1        4 0.46067812E-01 0.12500133E+03</pdfrwt>
<pdfrwt beam="1">  1       -4 0.52997054E-02 0.12500133E+03</pdfrwt>
<totfact> 0.16104834E+03</totfact>
</mgrwt>
</event>
<event>
 5    1  0.1431256E-002  0.1250011E+03  0.7818608E-02  0.1235068E+00
         -4   -1    0    0    0  501 -0.00000000000E+00  0.00000000000E+00  0.39674624563E+03  0.39674827828E+03  0.12700000000E+01 0.  1.
          4   -1    0    0  501    0  0.00000000000E+00 -0.00000000000E+00 -0.98028615737E+01  0.98847860388E+01  0.12700000000E+01 0.  1.
         25    2    1    2    0    0  0.00000000000E+00  0.00000000000E+00  0.38694338406E+03  0.40663306432E+03  0.12500106614E+03 0.  0.
    9000005    1    3    3    0    0  0.18044986975E+02 -0.42364249455E+02  0.33090875918E+03  0.33409872506E+03  0.10000000000E+01 0.  0.
    9000005    1    3    3    0    0 -0.18044986975E+02  0.42364249455E+02  0.56034624876E+02  0.72534339259E+02  0.10000000000E+01 0.  0.
<mgrwt>
<rscale>  0 0.12500107E+03</rscale>
<asrwt>0</asrwt>
<pdfrwt beam="2">  1        4 0.24612101E-02 0.12500107E+03</pdfrwt>
<pdfrwt beam="1">  1       -4 0.99197052E-01 0.12500107E+03</pdfrwt>
<totfact> 0.10433580E+03</totfact>
</mgrwt>
</event>
<event>
 5    1  0.1431256E-002  0.1250065E+03  0.7818608E-02  0.1235059E+00
          4   -1    0    0  501    0  0.00000000000E+00  0.00000000000E+00  0.40427602274E+02  0.40447545360E+02  0.12700000000E+01 0.  1.
         -4   -1    0    0    0  501 -0.00000000000E+00 -0.00000000000E+00 -0.96585493995E+02  0.96593843232E+02  0.12700000000E+01 0.  1.
         25    2    1    2    0    0  0.00000000000E+00  0.00000000000E+00 -0.56157891721E+02  0.13704138859E+03  0.12500653337E+03 0.  0.
    9000005    1    3    3    0    0 -0.21081959485E+02  0.10531739802E+02 -0.91533143249E+02  0.94523451440E+02  0.10000000000E+01 0.  0.
    9000005    1    3    3    0    0  0.21081959485E+02 -0.10531739802E+02  0.35375251528E+02  0.42517937152E+02  0.10000000000E+01 0.  0.
<mgrwt>
<rscale>  0 0.12500653E+03</rscale>
<asrwt>0</asrwt>
<pdfrwt beam="1">  1        4 0.10110437E-01 0.12500653E+03</pdfrwt>
<pdfrwt beam="2">  1       -4 0.24149910E-01 0.12500653E+03</pdfrwt>
<totfact> 0.19189814E+03</totfact>
</mgrwt>
</event>
<event>
 5    1  0.1431256E-002  0.1250062E+03  0.7818608E-02  0.1235060E+00
          4   -1    0    0  501    0  0.00000000000E+00  0.00000000000E+00  0.55238710857E+03  0.55238856850E+03  0.12700000000E+01 0.  1.
         -4   -1    0    0    0  501 -0.00000000000E+00 -0.00000000000E+00 -0.70137805722E+01  0.71278340269E+01  0.12700000000E+01 0.  1.
         25    2    1    2    0    0  0.00000000000E+00  0.00000000000E+00  0.54537332800E+03  0.55951640253E+03  0.12500615109E+03 0.  0.
    9000005    1    3    3    0    0 -0.29764937651E+02  0.52559320544E+02  0.20090433163E+03  0.20979033380E+03  0.10000000000E+01 0.  0.
    9000005    1    3    3    0    0  0.29764937651E+02 -0.52559320544E+02  0.34446899637E+03  0.34972606873E+03  0.10000000000E+01 0.  0.
<mgrwt>
<rscale>  0 0.12500615E+03</rscale>
<asrwt>0</asrwt>
<pdfrwt beam="1">  1        4 0.13811123E+00 0.12500615E+03</pdfrwt>
<pdfrwt beam="2">  1       -4 0.17678842E-02 0.12500615E+03</pdfrwt>
<totfact> 0.78833410E+02</totfact>
</mgrwt>
</event>
<event>
 5    1  0.1431256E-002  0.1250167E+03  0.7818608E-02  0.1235043E+00
          4   -1    0    0  501    0  0.00000000000E+00  0.00000000000E+00  0.44148106108E+03  0.44148288777E+03  0.12700000000E+01 0. -1.
         -4   -1    0    0    0  501 -0.00000000000E+00 -0.00000000000E+00 -0.88030045625E+01  0.88941435410E+01  0.12700000000E+01 0. -1.
         25    2    1    2    0    0  0.00000000000E+00  0.00000000000E+00  0.43267805652E+03  0.45037703131E+03  0.12501667785E+03 0.  0.
    9000005    1    3    3    0    0 -0.35443746557E+02  0.26572604096E+02  0.57503157425E+02  0.72594597404E+02  0.10000000000E+01 0.  0.
    9000005    1    3    3    0    0  0.35443746557E+02 -0.26572604096E+02  0.37517489910E+03  0.37778243391E+03  0.10000000000E+01 0.  0.
<mgrwt>
<rscale>  0 0.12501668E+03</rscale>
<asrwt>0</asrwt>
<pdfrwt beam="1">  1        4 0.11038188E+00 0.12501668E+03</pdfrwt>
<pdfrwt beam="2">  1       -4 0.22123720E-02 0.12501668E+03</pdfrwt>
<totfact> 0.95912949E+02</totfact>
</mgrwt>
</event>
<event>
 5    1  0.1431256E-002  0.1250037E+03  0.7818608E-02  0.1235064E+00
         -4   -1    0    0    0  501 -0.00000000000E+00  0.00000000000E+00  0.19152659977E+02  0.19194720216E+02  0.12700000000E+01 0. -1.
          4   -1    0    0  501    0  0.00000000000E+00 -0.00000000000E+00 -0.20369755980E+03  0.20370151882E+03  0.12700000000E+01 0. -1.
         25    2    1    2    0    0  0.00000000000E+00  0.00000000000E+00 -0.18454489982E+03  0.22289623903E+03  0.12500365325E+03 0.  0.
    9000005    1    3    3    0    0 -0.10754393826E+02  0.57323371240E+02 -0.13229748527E+03  0.14458648099E+03  0.10000000000E+01 0.  0.
    9000005    1    3    3    0    0  0.10754393826E+02 -0.57323371240E+02 -0.52247414551E+02  0.78309758039E+02  0.10000000000E+01 0.  0.
<mgrwt>
<rscale>  0 0.12500365E+03</rscale>
<asrwt>0</asrwt>
<pdfrwt beam="2">  1        4 0.50930136E-01 0.12500365E+03</pdfrwt>
<pdfrwt beam="1">  1       -4 0.47939180E-02 0.12500365E+03</pdfrwt>
<totfact> 0.15443210E+03</totfact>
</mgrwt>
</event>
<event>
 5    1  0.1431256E-002  0.1249981E+03  0.7818608E-02  0.1235072E+00
         -4   -1    0    0    0  501 -0.00000000000E+00  0.00000000000E+00  0.82666923316E+03  0.82667020870E+03  0.12700000000E+01 0. -1.
          4   -1    0    0  501    0  0.00000000000E+00 -0.00000000000E+00 -0.46388143277E+01  0.48095216359E+01  0.12700000000E+01 0. -1.
         25    2    1    2    0    0  0.00000000000E+00  0.00000000000E+00  0.82203041883E+03  0.83147973034E+03  0.12499812989E+03 0.  0.
    9000005    1    3    3    0    0  0.47717548822E+02 -0.22176080176E+02  0.18677583360E+03  0.19404884698E+03  0.10000000000E+01 0.  0.
    9000005    1    3    3    0    0 -0.47717548822E+02  0.22176080176E+02  0.63525458523E+03  0.63743088335E+03  0.10000000000E+01 0.  0.
<mgrwt>
<rscale>  0 0.12499813E+03</rscale>
<asrwt>0</asrwt>
<pdfrwt beam="2">  1        4 0.11811636E-02 0.12499813E+03</pdfrwt>
<pdfrwt beam="1">  1       -4 0.20668883E+00 0.12499813E+03</pdfrwt>
<totfact> 0.49768824E+02</totfact>
</mgrwt>
</event>
<event>
 5    1  0.1431256E-002  0.1249813E+03  0.7818608E-02  0.1235098E+00
         -4   -1    0    0    0  501 -0.00000000000E+00  0.00000000000E+00  0.12362600722E+03  0.12363253035E+03  0.12700000000E+01 0. -1.
          4   -1    0    0  501    0  0.00000000000E+00 -0.00000000000E+00 -0.31567745099E+02  0.31593281416E+02  0.12700000000E+01 0. -1.
         25    2    1    2    0    0  0.00000000000E+00  0.00000000000E+00  0.92058262122E+02  0.15522581177E+03  0.12498131466E+03 0.  0.
    9000005    1    3    3    0    0 -0.37712364141E+02  0.47830310719E+02  0.28724778366E+02  0.67350381771E+02  0.10000000000E+01 0.  0.
    9000005    1    3    3    0    0  0.37712364141E+02 -0.47830310719E+02  0.63333483756E+02  0.87875429997E+02  0.10000000000E+01 0.  0.
<mgrwt>
<rscale>  0 0.12498131E+03</rscale>
<asrwt>0</asrwt>
<pdfrwt beam="2">  1        4 0.78959438E-02 0.12498131E+03</pdfrwt>
<pdfrwt beam="1">  1       -4 0.30910509E-01 0.12498131E+03</pdfrwt>
<totfact> 0.18292724E+03</totfact>
</mgrwt>
</event>
<event>
 5    1  0.1431256E-002  0.1250004E+03  0.7818608E-02  0.1235069E+00
         -4   -1    0    0    0  501 -0.00000000000E+00  0.00000000000E+00  0.14179624666E+03  0.14180193394E+03  0.12700000000E+01 0.  1.
          4   -1    0    0  501    0  0.00000000000E+00 -0.00000000000E+00 -0.27527623065E+02  0.27556903520E+02  0.12700000000E+01 0.  1.
         25    2    1    2    0    0  0.00000000000E+00  0.00000000000E+00  0.11426862360E+03  0.16935883746E+03  0.12500038994E+03 0.  0.
    9000005    1    3    3    0    0  0.41364569790E+02  0.36645450122E+02  0.17601970512E+02  0.58006430802E+02  0.10000000000E+01 0.  0.
    9000005    1    3    3    0    0 -0.41364569790E+02 -0.36645450122E+02  0.96666653086E+02  0.11135240665E+03  0.10000000000E+01 0.  0.
<mgrwt>
<rscale>  0 0.12500039E+03</rscale>
<asrwt>0</asrwt>
<pdfrwt beam="2">  1        4 0.68862769E-02 0.12500039E+03</pdfrwt>
<pdfrwt beam="1">  1       -4 0.35453432E-01 0.12500039E+03</pdfrwt>
<totfact> 0.17625846E+03</totfact>
</mgrwt>
</event>
<event>
 5    1  0.1431256E-002  0.1250020E+03  0.7818608E-02  0.1235066E+00
         -4   -1    0    0    0  501 -0.00000000000E+00  0.00000000000E+00  0.11071447008E+03  0.11072175389E+03  0.12700000000E+01 0. -1.
          4   -1    0    0  501    0  0.00000000000E+00 -0.00000000000E+00 -0.35263449350E+02  0.35286311228E+02  0.12700000000E+01 0. -1.
         25    2    1    2    0    0  0.00000000000E+00  0.00000000000E+00  0.75451020727E+02  0.14600806512E+03  0.12500199419E+03 0.  0.
    9000005    1    3    3    0    0  0.55607770440E+02  0.27183032840E+02  0.27661777889E+02  0.67803505541E+02  0.10000000000E+01 0.  0.
    9000005    1    3    3    0    0 -0.55607770440E+02 -0.27183032840E+02  0.47789242838E+02  0.78204559577E+02  0.10000000000E+01 0.  0.
<mgrwt>
<rscale>  0 0.12500199E+03</rscale>
<asrwt>0</asrwt>
<pdfrwt beam="2">  1        4 0.88196307E-02 0.12500199E+03</pdfrwt>
<pdfrwt beam="1">  1       -4 0.27682385E-01 0.12500199E+03</pdfrwt>
<totfact> 0.18735952E+03</totfact>
</mgrwt>
</event>
<event>
 5    1  0.1431256E-002  0.1250013E+03  0.7818608E-02  0.1235067E+00
          4   -1    0    0  501    0  0.00000000000E+00  0.00000000000E+00  0.52058917344E+03  0.52059072255E+03  0.12700000000E+01 0.  1.
         -4   -1    0    0    0  501 -0.00000000000E+00 -0.00000000000E+00 -0.74483626860E+01  0.75558590976E+01  0.12700000000E+01 0.  1.
         25    2    1    2    0    0  0.00000000000E+00  0.00000000000E+00  0.51314081075E+03  0.52814658164E+03  0.12500128016E+03 0.  0.
    9000005    1    3    3    0    0 -0.25684122015E+02  0.42004717543E+02  0.41918353198E+03  0.42206623166E+03  0.10000000000E+01 0.  0.
    9000005    1    3    3    0    0  0.25684122015E+02 -0.42004717543E+02  0.93957278768E+02  0.10608034999E+03  0.10000000000E+01 0.  0.
<mgrwt>
<rscale>  0 0.12500128E+03</rscale>
<asrwt>0</asrwt>
<pdfrwt beam="1">  1        4 0.13016092E+00 0.12500128E+03</pdfrwt>
<pdfrwt beam="2">  1       -4 0.18757214E-02 0.12500128E+03</pdfrwt>
<totfact> 0.83294954E+02</totfact>
</mgrwt>
</event>
<event>
 4    1  0.1431256E-002  0.1244903E+03  0.7818608E-02  0.1235868E+00
         -4   -1    0    0    0  501 -0.00000000000E+00  0.00000000000E+00  0.51136147178E+03  0.51136304884E+03  0.12700000000E+01 0.  1.
          4   -1    0    0  501    0  0.00000000000E+00 -0.00000000000E+00 -0.75219343681E+01  0.76283941061E+01  0.12700000000E+01 0.  1.
    9000005    1    1    2    0    0 -0.17830379554E+02 -0.26735201346E+02  0.29720626890E+02  0.43783662350E+02  0.10000000000E+01 0.  0.
    9000005    1    1    2    0    0  0.17830379554E+02  0.26735201346E+02  0.47411891052E+03  0.47520778060E+03  0.10000000000E+01 0.  0.
<mgrwt>
<rscale>  0 0.12449031E+03</rscale>
<asrwt>0</asrwt>
<pdfrwt beam="2">  1        4 0.18939885E-02 0.12449031E+03</pdfrwt>
<pdfrwt beam="1">  1       -4 0.12785385E+00 0.12449031E+03</pdfrwt>
<totfact> 0.85648863E+02</totfact>
</mgrwt>
</event>
<event>
 5    1  0.1431256E-002  0.1249990E+03  0.7818608E-02  0.1235071E+00
         -4   -1    0    0    0  501 -0.00000000000E+00  0.00000000000E+00  0.17090125618E+02  0.17137248719E+02  0.12700000000E+01 0. -1.
          4   -1    0    0  501    0  0.00000000000E+00 -0.00000000000E+00 -0.22820029233E+03  0.22820382626E+03  0.12700000000E+01 0. -1.
         25    2    1    2    0    0  0.00000000000E+00  0.00000000000E+00 -0.21111016671E+03  0.24534107498E+03  0.12499896233E+03 0.  0.
    9000005    1    3    3    0    0 -0.56040870940E+02 -0.27467996299E+02 -0.99312718565E+02  0.11729913088E+03  0.10000000000E+01 0.  0.
    9000005    1    3    3    0    0  0.56040870940E+02  0.27467996299E+02 -0.11179744815E+03  0.12804194410E+03  0.10000000000E+01 0.  0.
<mgrwt>
<rscale>  0 0.12499896E+03</rscale>
<asrwt>0</asrwt>
<pdfrwt beam="2">  1        4 0.57056396E-01 0.12499896E+03</pdfrwt>
<pdfrwt beam="1">  1       -4 0.42788643E-02 0.12499896E+03</pdfrwt>
<totfact> 0.14654553E+03</totfact>
</mgrwt>
</event>
<event>
 5    1  0.1431256E-002  0.1249975E+03  0.7818608E-02  0.1235073E+00
         -4   -1    0    0    0  501 -0.00000000000E+00  0.00000000000E+00  0.94009590767E+01  0.94863550198E+01  0.12700000000E+01 0.  1.
          4   -1    0    0  501    0  0.00000000000E+00 -0.00000000000E+00 -0.41353451214E+03  0.41353646227E+03  0.12700000000E+01 0.  1.
         25    2    1    2    0    0  0.00000000000E+00  0.00000000000E+00 -0.40413355306E+03  0.42302281729E+03  0.12499750094E+03 0.  0.
    9000005    1    3    3    0    0  0.42835801236E+02  0.65565353010E+01 -0.49692821951E+02  0.65941417759E+02  0.10000000000E+01 0.  0.
    9000005    1    3    3    0    0 -0.42835801236E+02 -0.65565353010E+01 -0.35444073111E+03  0.35708139953E+03  0.10000000000E+01 0.  0.
<mgrwt>
<rscale>  0 0.12499750E+03</rscale>
<asrwt>0</asrwt>
<pdfrwt beam="2">  1        4 0.10339449E+00 0.12499750E+03</pdfrwt>
<pdfrwt beam="1">  1       -4 0.23611594E-02 0.12499750E+03</pdfrwt>
<totfact> 0.10107446E+03</totfact>
</mgrwt>
</event>
<event>
 5    1  0.1431256E-002  0.1249980E+03  0.7818608E-02  0.1235072E+00
         -4   -1    0    0    0  501 -0.00000000000E+00  0.00000000000E+00  0.52129191567E+02  0.52144659491E+02  0.12700000000E+01 0. -1.
          4   -1    0    0  501    0  0.00000000000E+00 -0.00000000000E+00 -0.74899612629E+02  0.74910378934E+02  0.12700000000E+01 0. -1.
         25    2    1    2    0    0  0.00000000000E+00  0.00000000000E+00 -0.22770421063E+02  0.12705503842E+03  0.12499796284E+03 0.  0.
    9000005    1    3    3    0    0 -0.21053123133E+02  0.35231315028E+02 -0.59284419536E+02  0.72111871089E+02  0.10000000000E+01 0.  0.
    9000005    1    3    3    0    0  0.21053123133E+02 -0.35231315028E+02  0.36513998474E+02  0.54943167335E+02  0.10000000000E+01 0.  0.
<mgrwt>
<rscale>  0 0.12499796E+03</rscale>
<asrwt>0</asrwt>
<pdfrwt beam="2">  1        4 0.18728182E-01 0.12499796E+03</pdfrwt>
<pdfrwt beam="1">  1       -4 0.13035577E-01 0.12499796E+03</pdfrwt>
<totfact> 0.19724954E+03</totfact>
</mgrwt>
</event>
<event>
 5    1  0.1431256E-002  0.1249997E+03  0.7818608E-02  0.1235070E+00
         -4   -1    0    0    0  501 -0.00000000000E+00  0.00000000000E+00  0.35946584784E+03  0.35946809130E+03  0.12700000000E+01 0. -1.
          4   -1    0    0  501    0  0.00000000000E+00 -0.00000000000E+00 -0.10827378073E+02  0.10901606117E+02  0.12700000000E+01 0. -1.
         25    2    1    2    0    0  0.00000000000E+00  0.00000000000E+00  0.34863846977E+03  0.37036969742E+03  0.12499972066E+03 0.  0.
    9000005    1    3    3    0    0 -0.59396352383E+02 -0.89853409328E+01  0.12329345442E+03  0.13715297638E+03  0.10000000000E+01 0.  0.
    9000005    1    3    3    0    0  0.59396352383E+02  0.89853409328E+01  0.22534501534E+03  0.23321672103E+03  0.10000000000E+01 0.  0.
<mgrwt>
<rscale>  0 0.12499972E+03</rscale>
<asrwt>0</asrwt>
<pdfrwt beam="2">  1        4 0.27164033E-02 0.12499972E+03</pdfrwt>
<pdfrwt beam="1">  1       -4 0.89876026E-01 0.12499972E+03</pdfrwt>
<totfact> 0.11206204E+03</totfact>
</mgrwt>
</event>
<event>
 5    1  0.1431256E-002  0.1249993E+03  0.7818608E-02  0.1235070E+00
          4   -1    0    0  501    0  0.00000000000E+00  0.00000000000E+00  0.18011961623E+03  0.18012409348E+03  0.12700000000E+01 0. -1.
         -4   -1    0    0    0  501 -0.00000000000E+00 -0.00000000000E+00 -0.21663377674E+02  0.21700572164E+02  0.12700000000E+01 0. -1.
         25    2    1    2    0    0  0.00000000000E+00  0.00000000000E+00  0.15845623856E+03  0.20182466564E+03  0.12499926449E+03 0.  0.
    9000005    1    3    3    0    0  0.57470255045E+02  0.20142781668E+02  0.10186961457E+03  0.11868858513E+03  0.10000000000E+01 0.  0.
    9000005    1    3    3    0    0 -0.57470255045E+02 -0.20142781668E+02  0.56586623992E+02  0.83136080513E+02  0.10000000000E+01 0.  0.
<mgrwt>
<rscale>  0 0.12499926E+03</rscale>
<asrwt>0</asrwt>
<pdfrwt beam="1">  1        4 0.45035112E-01 0.12499926E+03</pdfrwt>
<pdfrwt beam="2">  1       -4 0.54210535E-02 0.12499926E+03</pdfrwt>
<totfact> 0.16249515E+03</totfact>
</mgrwt>
</event>
<event>
 5    1  0.1431256E-002  0.1249752E+03  0.7818608E-02  0.1235108E+00
          4   -1    0    0  501    0  0.00000000000E+00  0.00000000000E+00  0.61722320977E+02  0.61735385370E+02  0.12700000000E+01 0.  1.
         -4   -1    0    0    0  501 -0.00000000000E+00 -0.00000000000E+00 -0.63236215274E+02  0.63248966965E+02  0.12700000000E+01 0.  1.
         25    2    1    2    0    0  0.00000000000E+00  0.00000000000E+00 -0.15138942974E+01  0.12498435234E+03  0.12497518335E+03 0.  0.
    9000005    1    3    3    0    0  0.20253685828E+02 -0.56551979596E+02  0.16430381559E+02  0.62283991715E+02  0.10000000000E+01 0.  0.
    9000005    1    3    3    0    0 -0.20253685828E+02  0.56551979596E+02 -0.17944275857E+02  0.62700360620E+02  0.10000000000E+01 0.  0.
<mgrwt>
<rscale>  0 0.12497518E+03</rscale>
<asrwt>0</asrwt>
<pdfrwt beam="1">  1        4 0.15433807E-01 0.12497518E+03</pdfrwt>
<pdfrwt beam="2">  1       -4 0.15812281E-01 0.12497518E+03</pdfrwt>
<totfact> 0.19847427E+03</totfact>
</mgrwt>
</event>
<event>
 5    1  0.1431256E-002  0.1250019E+03  0.7818608E-02  0.1235066E+00
          4   -1    0    0  501    0  0.00000000000E+00  0.00000000000E+00  0.13309884101E+03  0.13310489990E+03  0.12700000000E+01 0.  1.
         -4   -1    0    0    0  501 -0.00000000000E+00 -0.00000000000E+00 -0.29328900563E+02  0.29356384455E+02  0.12700000000E+01 0.  1.
         25    2    1    2    0    0  0.00000000000E+00  0.00000000000E+00  0.10376994044E+03  0.16246128435E+03  0.12500187348E+03 0.  0.
    9000005    1    3    3    0    0  0.13077417090E+02 -0.56819355416E+02  0.22652224535E+02  0.62558622619E+02  0.10000000000E+01 0.  0.
    9000005    1    3    3    0    0 -0.13077417090E+02  0.56819355416E+02  0.81117715907E+02  0.99902661734E+02  0.10000000000E+01 0.  0.
<mgrwt>
<rscale>  0 0.12500187E+03</rscale>
<asrwt>0</asrwt>
<pdfrwt beam="1">  1        4 0.33278902E-01 0.12500187E+03</pdfrwt>
<pdfrwt beam="2">  1       -4 0.73364181E-02 0.12500187E+03</pdfrwt>
<totfact> 0.17941753E+03</totfact>
</mgrwt>
</event>
<event>
 5    1  0.1431256E-002  0.1250047E+03  0.7818608E-02  0.1235062E+00
          4   -1    0    0  501    0  0.00000000000E+00  0.00000000000E+00  0.33849460242E+03  0.33849698487E+03  0.12700000000E+01 0.  1.
         -4   -1    0    0    0  501 -0.00000000000E+00 -0.00000000000E+00 -0.11503572116E+02  0.11573464107E+02  0.12700000000E+01 0.  1.
         25    2    1    2    0    0  0.00000000000E+00  0.00000000000E+00  0.32699103031E+03  0.35007044898E+03  0.12500474131E+03 0.  0.
    9000005    1    3    3    0    0 -0.10929322630E+01 -0.30250672836E+02  0.31660778163E+03  0.31805311678E+03  0.10000000000E+01 0.  0.
    9000005    1    3    3    0    0  0.10929322630E+01  0.30250672836E+02  0.10383248678E+02  0.32017332198E+02  0.10000000000E+01 0.  0.
<mgrwt>
<rscale>  0 0.12500474E+03</rscale>
<asrwt>0</asrwt>
<pdfrwt beam="1">  1        4 0.84632684E-01 0.12500474E+03</pdfrwt>
<pdfrwt beam="2">  1       -4 0.28849274E-02 0.12500474E+03</pdfrwt>
<totfact> 0.11674376E+03</totfact>
</mgrwt>
</event>
<event>
 5    1  0.1431256E-002  0.1249968E+03  0.7818608E-02  0.1235074E+00
          4   -1    0    0  501    0  0.00000000000E+00  0.00000000000E+00  0.82335468584E+02  0.82345262687E+02  0.12700000000E+01 0. -1.
         -4   -1    0    0    0  501 -0.00000000000E+00 -0.00000000000E+00 -0.47419530142E+02  0.47436533799E+02  0.12700000000E+01 0. -1.
         25    2    1    2    0    0  0.00000000000E+00  0.00000000000E+00  0.34915938443E+02  0.12978179649E+03  0.12499676773E+03 0.  0.
    9000005    1    3    3    0    0 -0.57736695729E+02  0.21414144315E+02  0.64230191632E+01  0.61922102562E+02  0.10000000000E+01 0.  0.
    9000005    1    3    3    0    0  0.57736695729E+02 -0.21414144315E+02  0.28492919280E+02  0.67859693925E+02  0.10000000000E+01 0.  0.
<mgrwt>
<rscale>  0 0.12499677E+03</rscale>
<asrwt>0</asrwt>
<pdfrwt beam="1">  1        4 0.20587217E-01 0.12499677E+03</pdfrwt>
<pdfrwt beam="2">  1       -4 0.11858232E-01 0.12499677E+03</pdfrwt>
<totfact> 0.19577597E+03</totfact>
</mgrwt>
</event>
<event>
 5    1  0.1431256E-002  0.1249983E+03  0.7818608E-02  0.1235072E+00
         -4   -1    0    0    0  501 -0.00000000000E+00  0.00000000000E+00  0.94901628708E+02  0.94910126074E+02  0.12700000000E+01 0. -1.
          4   -1    0    0  501    0  0.00000000000E+00 -0.00000000000E+00 -0.41139768694E+02  0.41159366713E+02  0.12700000000E+01 0. -1.
         25    2    1    2    0    0  0.00000000000E+00  0.00000000000E+00  0.53761860014E+02  0.13606949279E+03  0.12499827709E+03 0.  0.
    9000005    1    3    3    0    0  0.23048617122E+02  0.50101119638E+02  0.58874201954E+02  0.80675477042E+02  0.10000000000E+01 0.  0.
    9000005    1    3    3    0    0 -0.23048617122E+02 -0.50101119638E+02 -0.51123419399E+01  0.55394015745E+02  0.10000000000E+01 0.  0.
<mgrwt>
<rscale>  0 0.12499828E+03</rscale>
<asrwt>0</asrwt>
<pdfrwt beam="2">  1        4 0.10288454E-01 0.12499828E+03</pdfrwt>
<pdfrwt beam="1">  1       -4 0.23728919E-01 0.12499828E+03</pdfrwt>
<totfact> 0.19244038E+03</totfact>
</mgrwt>
</event>
<event>
 5    1  0.1431256E-002  0.1250001E+03  0.7818608E-02  0.1235069E+00
          4   -1    0    0  501    0  0.00000000000E+00  0.00000000000E+00  0.55697242513E+02  0.55711719804E+02  0.12700000000E+01 0. -1.
         -4   -1    0    0    0  501 -0.00000000000E+00 -0.00000000000E+00 -0.70104457094E+02  0.70115959699E+02  0.12700000000E+01 0. -1.
         25    2    1    2    0    0  0.00000000000E+00  0.00000000000E+00 -0.14407214582E+02  0.12582767950E+03  0.12500014839E+03 0.  0.
    9000005    1    3    3    0    0  0.45667994848E+02  0.42153614653E+02 -0.62071938525E+00  0.62160101949E+02  0.10000000000E+01 0.  0.
    9000005    1    3    3    0    0 -0.45667994848E+02 -0.42153614653E+02 -0.13786495196E+02  0.63667577554E+02  0.10000000000E+01 0.  0.
<mgrwt>
<rscale>  0 0.12500015E+03</rscale>
<asrwt>0</asrwt>
<pdfrwt beam="1">  1        4 0.13927558E-01 0.12500015E+03</pdfrwt>
<pdfrwt beam="2">  1       -4 0.17529362E-01 0.12500015E+03</pdfrwt>
<totfact> 0.19790166E+03</totfact>
</mgrwt>
</event>
<event>
 5    1  0.1431256E-002  0.1249836E+03  0.7818608E-02  0.1235095E+00
         -4   -1    0    0    0  501 -0.00000000000E+00  0.00000000000E+00  0.21300787352E+02  0.21338613868E+02  0.12700000000E+01 0. -1.
          4   -1    0    0  501    0  0.00000000000E+00 -0.00000000000E+00 -0.18313458271E+03  0.18313898624E+03  0.12700000000E+01 0. -1.
         25    2    1    2    0    0  0.00000000000E+00  0.00000000000E+00 -0.16183379535E+03  0.20447760011E+03  0.12498364545E+03 0.  0.
    9000005    1    3    3    0    0 -0.14624467317E+02 -0.57260961477E+02 -0.47727756000E+02  0.75971254080E+02  0.10000000000E+01 0.  0.
    9000005    1    3    3    0    0  0.14624467317E+02  0.57260961477E+02 -0.11410603935E+03  0.12850634603E+03  0.10000000000E+01 0.  0.
<mgrwt>
<rscale>  0 0.12498365E+03</rscale>
<asrwt>0</asrwt>
<pdfrwt beam="2">  1        4 0.45788920E-01 0.12498365E+03</pdfrwt>
<pdfrwt beam="1">  1       -4 0.53304761E-02 0.12498365E+03</pdfrwt>
<totfact> 0.16150412E+03</totfact>
</mgrwt>
</event>
<event>
 5    1  0.1431256E-002  0.1249987E+03  0.7818608E-02  0.1235071E+00
          4   -1    0    0  501    0  0.00000000000E+00  0.00000000000E+00  0.14730353284E+02  0.14784999421E+02  0.12700000000E+01 0. -1.
         -4   -1    0    0    0  501 -0.00000000000E+00 -0.00000000000E+00 -0.26463120905E+03  0.26463425648E+03  0.12700000000E+01 0. -1.
         25    2    1    2    0    0  0.00000000000E+00  0.00000000000E+00 -0.24990085577E+03  0.27941925590E+03  0.12499873142E+03 0.  0.
    9000005    1    3    3    0    0 -0.58545125147E+02 -0.14130468207E+02 -0.87681334035E+02  0.10637771453E+03  0.10000000000E+01 0.  0.
    9000005    1    3    3    0    0  0.58545125147E+02  0.14130468207E+02 -0.16221952173E+03  0.17304154137E+03  0.10000000000E+01 0.  0.
<mgrwt>
<rscale>  0 0.12499873E+03</rscale>
<asrwt>0</asrwt>
<pdfrwt beam="1">  1        4 0.36898009E-02 0.12499873E+03</pdfrwt>
<pdfrwt beam="2">  1       -4 0.66164999E-01 0.12499873E+03</pdfrwt>
<totfact> 0.13568523E+03</totfact>
</mgrwt>
</event>
<event>
 4    1  0.1431256E-002  0.1250889E+03  0.7818608E-02  0.1234930E+00
          4   -1    0    0  501    0  0.00000000000E+00  0.00000000000E+00  0.18743014018E+02  0.18785991443E+02  0.12700000000E+01 0. -1.
         -4   -1    0    0    0  501 -0.00000000000E+00 -0.00000000000E+00 -0.20842365254E+03  0.20842752179E+03  0.12700000000E+01 0. -1.
    9000005    1    1    2    0    0  0.21287713455E+02 -0.52343624337E+02 -0.14350492478E+03  0.15423256851E+03  0.10000000000E+01 0.  0.
    9000005    1    1    2    0    0 -0.21287713455E+02  0.52343624337E+02 -0.46175713748E+02  0.72980944726E+02  0.10000000000E+01 0.  0.
<mgrwt>
<rscale>  0 0.12508891E+03</rscale>
<asrwt>0</asrwt>
<pdfrwt beam="1">  1        4 0.46916100E-02 0.12508891E+03</pdfrwt>
<pdfrwt beam="2">  1       -4 0.52111762E-01 0.12508891E+03</pdfrwt>
<totfact> 0.15256094E+03</totfact>
</mgrwt>
</event>
<event>
 5    1  0.1431256E-002  0.1249973E+03  0.7818608E-02  0.1235073E+00
         -4   -1    0    0    0  501 -0.00000000000E+00  0.00000000000E+00  0.19062967736E+02  0.19105225434E+02  0.12700000000E+01 0. -1.
          4   -1    0    0  501    0  0.00000000000E+00 -0.00000000000E+00 -0.20463309157E+03  0.20463703249E+03  0.12700000000E+01 0. -1.
         25    2    1    2    0    0  0.00000000000E+00  0.00000000000E+00 -0.18557012383E+03  0.22374225792E+03  0.12499730845E+03 0.  0.
    9000005    1    3    3    0    0 -0.11357654578E+02  0.10614072648E+02  0.15555509405E+02  0.22014284647E+02  0.10000000000E+01 0.  0.
    9000005    1    3    3    0    0  0.11357654578E+02 -0.10614072648E+02 -0.20112563324E+03  0.20172797328E+03  0.10000000000E+01 0.  0.
<mgrwt>
<rscale>  0 0.12499731E+03</rscale>
<asrwt>0</asrwt>
<pdfrwt beam="2">  1        4 0.51164041E-01 0.12499731E+03</pdfrwt>
<pdfrwt beam="1">  1       -4 0.47715174E-02 0.12499731E+03</pdfrwt>
<totfact> 0.15414480E+03</totfact>
</mgrwt>
</event>
<event>
 5    1  0.1431256E-002  0.1249971E+03  0.7818608E-02  0.1235074E+00
         -4   -1    0    0    0  501 -0.00000000000E+00  0.00000000000E+00  0.36628209520E+03  0.36628429692E+03  0.12700000000E+01 0. -1.
          4   -1    0    0  501    0  0.00000000000E+00 -0.00000000000E+00 -0.10624041569E+02  0.10699680335E+02  0.12700000000E+01 0. -1.
         25    2    1    2    0    0  0.00000000000E+00  0.00000000000E+00  0.35565805363E+03  0.37698397725E+03  0.12499707192E+03 0.  0.
    9000005    1    3    3    0    0  0.59294849624E+02 -0.18309446171E+02  0.15567632150E+03  0.16759245832E+03  0.10000000000E+01 0.  0.
    9000005    1    3    3    0    0 -0.59294849624E+02  0.18309446171E+02  0.19998173214E+03  0.20939151893E+03  0.10000000000E+01 0.  0.
<mgrwt>
<rscale>  0 0.12499707E+03</rscale>
<asrwt>0</asrwt>
<pdfrwt beam="2">  1        4 0.26657404E-02 0.12499707E+03</pdfrwt>
<pdfrwt beam="1">  1       -4 0.91580254E-01 0.12499707E+03</pdfrwt>
<totfact> 0.11059916E+03</totfact>
</mgrwt>
</event>
<event>
 5    1  0.1431256E-002  0.1249954E+03  0.7818608E-02  0.1235077E+00
         -4   -1    0    0    0  501 -0.00000000000E+00  0.00000000000E+00  0.94826352927E+02  0.94834857038E+02  0.12700000000E+01 0. -1.
          4   -1    0    0  501    0  0.00000000000E+00 -0.00000000000E+00 -0.41170516744E+02  0.41190100133E+02  0.12700000000E+01 0. -1.
         25    2    1    2    0    0  0.00000000000E+00  0.00000000000E+00  0.53655836183E+02  0.13602495717E+03  0.12499536078E+03 0.  0.
    9000005    1    3    3    0    0  0.34869777216E+02 -0.10722325788E+02 -0.28384478980E+02  0.46233627160E+02  0.10000000000E+01 0.  0.
    9000005    1    3    3    0    0 -0.34869777216E+02  0.10722325788E+02  0.82040315163E+02  0.89791330012E+02  0.10000000000E+01 0.  0.
<mgrwt>
<rscale>  0 0.12499536E+03</rscale>
<asrwt>0</asrwt>
<pdfrwt beam="2">  1        4 0.10296140E-01 0.12499536E+03</pdfrwt>
<pdfrwt beam="1">  1       -4 0.23710099E-01 0.12499536E+03</pdfrwt>
<totfact> 0.19247668E+03</totfact>
</mgrwt>
</event>
<event>
 5    1  0.1431256E-002  0.1249974E+03  0.7818608E-02  0.1235073E+00
          4   -1    0    0  501    0  0.00000000000E+00  0.00000000000E+00  0.40587958289E+02  0.40607822622E+02  0.12700000000E+01 0.  1.
         -4   -1    0    0    0  501 -0.00000000000E+00 -0.00000000000E+00 -0.96189922191E+02  0.96198305760E+02  0.12700000000E+01 0.  1.
         25    2    1    2    0    0  0.00000000000E+00  0.00000000000E+00 -0.55601963902E+02  0.13680612838E+03  0.12499735346E+03 0.  0.
    9000005    1    3    3    0    0 -0.17952571803E+01  0.61984213587E+02 -0.19336039974E+02  0.64962667157E+02  0.10000000000E+01 0.  0.
    9000005    1    3    3    0    0  0.17952571803E+01 -0.61984213587E+02 -0.36265923928E+02  0.71843461224E+02  0.10000000000E+01 0.  0.
<mgrwt>
<rscale>  0 0.12499735E+03</rscale>
<asrwt>0</asrwt>
<pdfrwt beam="1">  1        4 0.10150521E-01 0.12499735E+03</pdfrwt>
<pdfrwt beam="2">  1       -4 0.24051011E-01 0.12499735E+03</pdfrwt>
<totfact> 0.19206133E+03</totfact>
</mgrwt>
</event>
<event>
 5    1  0.1431256E-002  0.1249907E+03  0.7818608E-02  0.1235084E+00
         -4   -1    0    0    0  501 -0.00000000000E+00  0.00000000000E+00  0.32227905065E+02  0.32252918703E+02  0.12700000000E+01 0.  1.
          4   -1    0    0  501    0  0.00000000000E+00 -0.00000000000E+00 -0.12111369745E+03  0.12112035588E+03  0.12700000000E+01 0.  1.
         25    2    1    2    0    0  0.00000000000E+00  0.00000000000E+00 -0.88885792381E+02  0.15337327458E+03  0.12499070873E+03 0.  0.
    9000005    1    3    3    0    0 -0.61586800949E+02 -0.23383086776E+01 -0.31793425524E+02  0.69355775860E+02  0.10000000000E+01 0.  0.
    9000005    1    3    3    0    0  0.61586800949E+02  0.23383086776E+01 -0.57092366856E+02  0.84017498724E+02  0.10000000000E+01 0.  0.
<mgrwt>
<rscale>  0 0.12499071E+03</rscale>
<asrwt>0</asrwt>
<pdfrwt beam="2">  1        4 0.30282382E-01 0.12499071E+03</pdfrwt>
<pdfrwt beam="1">  1       -4 0.80609356E-02 0.12499071E+03</pdfrwt>
<totfact> 0.18378123E+03</totfact>
</mgrwt>
</event>
<event>
 5    1  0.1431256E-002  0.1249936E+03  0.7818608E-02  0.1235079E+00
         -4   -1    0    0    0  501 -0.00000000000E+00  0.00000000000E+00  0.38995497838E+03  0.38995704644E+03  0.12700000000E+01 0. -1.
          4   -1    0    0  501    0  0.00000000000E+00 -0.00000000000E+00 -0.99737898796E+01  0.10054321686E+02  0.12700000000E+01 0. -1.
         25    2    1    2    0    0  0.00000000000E+00  0.00000000000E+00  0.37998118850E+03  0.40001136812E+03  0.12499356388E+03 0.  0.
    9000005    1    3    3    0    0 -0.20571065609E+01 -0.59946655774E+02  0.24606493101E+03  0.25327215303E+03  0.10000000000E+01 0.  0.
    9000005    1    3    3    0    0  0.20571065609E+01  0.59946655774E+02  0.13391625749E+03  0.14673921509E+03  0.10000000000E+01 0.  0.
<mgrwt>
<rscale>  0 0.12499356E+03</rscale>
<asrwt>0</asrwt>
<pdfrwt beam="2">  1        4 0.25037727E-02 0.12499356E+03</pdfrwt>
<pdfrwt beam="1">  1       -4 0.97499058E-01 0.12499356E+03</pdfrwt>
<totfact> 0.10570516E+03</totfact>
</mgrwt>
</event>
<event>
 5    1  0.1431256E-002  0.1249970E+03  0.7818608E-02  0.1235074E+00
         -4   -1    0    0    0  501 -0.00000000000E+00  0.00000000000E+00  0.10076336669E+03  0.10077136978E+03  0.12700000000E+01 0. -1.
          4   -1    0    0  501    0  0.00000000000E+00 -0.00000000000E+00 -0.38744747783E+02  0.38765556629E+02  0.12700000000E+01 0. -1.
         25    2    1    2    0    0  0.00000000000E+00  0.00000000000E+00  0.62018618909E+02  0.13953692641E+03  0.12499697892E+03 0.  0.
    9000005    1    3    3    0    0  0.32206172567E+02  0.47499255264E+01  0.90555057521E+02  0.96234182007E+02  0.10000000000E+01 0.  0.
    9000005    1    3    3    0    0 -0.32206172567E+02 -0.47499255264E+01 -0.28536438612E+02  0.43302744400E+02  0.10000000000E+01 0.  0.
<mgrwt>
<rscale>  0 0.12499698E+03</rscale>
<asrwt>0</asrwt>
<pdfrwt beam="2">  1        4 0.96897885E-02 0.12499698E+03</pdfrwt>
<pdfrwt beam="1">  1       -4 0.25194443E-01 0.12499698E+03</pdfrwt>
<totfact> 0.19065400E+03</totfact>
</mgrwt>
</event>
<event>
 5    1  0.1431256E-002  0.1249966E+03  0.7818608E-02  0.1235075E+00
         -4   -1    0    0    0  501 -0.00000000000E+00  0.00000000000E+00  0.80499598449E+03  0.80499698629E+03  0.12700000000E+01 0.  1.
          4   -1    0    0  501    0  0.00000000000E+00 -0.00000000000E+00 -0.47681235980E+01  0.49343593957E+01  0.12700000000E+01 0.  1.
         25    2    1    2    0    0  0.00000000000E+00  0.00000000000E+00  0.80022786089E+03  0.80993134569E+03  0.12499662150E+03 0.  0.
    9000005    1    3    3    0    0  0.29409871267E+02 -0.30455147252E+02  0.10229194581E+03  0.11071178212E+03  0.10000000000E+01 0.  0.
    9000005    1    3    3    0    0 -0.29409871267E+02  0.30455147252E+02  0.69793591508E+03  0.69921956357E+03  0.10000000000E+01 0.  0.
<mgrwt>
<rscale>  0 0.12499662E+03</rscale>
<asrwt>0</asrwt>
<pdfrwt beam="2">  1        4 0.12129355E-02 0.12499662E+03</pdfrwt>
<pdfrwt beam="1">  1       -4 0.20126991E+00 0.12499662E+03</pdfrwt>
<totfact> 0.51612062E+02</totfact>
</mgrwt>
</event>
<event>
 5    1  0.1431256E-002  0.1249945E+03  0.7818608E-02  0.1235078E+00
         -4   -1    0    0    0  501 -0.00000000000E+00  0.00000000000E+00  0.33227003022E+03  0.33227245731E+03  0.12700000000E+01 0.  1.
          4   -1    0    0  501    0  0.00000000000E+00 -0.00000000000E+00 -0.11718441794E+02  0.11787059773E+02  0.12700000000E+01 0.  1.
         25    2    1    2    0    0  0.00000000000E+00  0.00000000000E+00  0.32055158843E+03  0.34405951708E+03  0.12499452167E+03 0.  0.
    9000005    1    3    3    0    0 -0.42392403451E+01  0.59746475159E+02  0.20930719714E+03  0.21771108200E+03  0.10000000000E+01 0.  0.
    9000005    1    3    3    0    0  0.42392403451E+01 -0.59746475159E+02  0.11124439129E+03  0.12634843508E+03  0.10000000000E+01 0.  0.
<mgrwt>
<rscale>  0 0.12499452E+03</rscale>
<asrwt>0</asrwt>
<pdfrwt beam="2">  1        4 0.29384912E-02 0.12499452E+03</pdfrwt>
<pdfrwt beam="1">  1       -4 0.83076386E-01 0.12499452E+03</pdfrwt>
<totfact> 0.11821757E+03</totfact>
</mgrwt>
</event>
<event>
 5    1  0.1431256E-002  0.1249996E+03  0.7818608E-02  0.1235070E+00
          4   -1    0    0  501    0  0.00000000000E+00  0.00000000000E+00  0.90031281876E+02  0.90040238873E+02  0.12700000000E+01 0. -1.
         -4   -1    0    0    0  501 -0.00000000000E+00 -0.00000000000E+00 -0.43366996484E+02  0.43385588437E+02  0.12700000000E+01 0. -1.
         25    2    1    2    0    0  0.00000000000E+00  0.00000000000E+00  0.46664285392E+02  0.13342582731E+03  0.12499958345E+03 0.  0.
    9000005    1    3    3    0    0 -0.14615771716E+02 -0.50644763406E+02 -0.12497100042E+02  0.54182011339E+02  0.10000000000E+01 0.  0.
    9000005    1    3    3    0    0  0.14615771716E+02  0.50644763406E+02  0.59161385434E+02  0.79243815971E+02  0.10000000000E+01 0.  0.
<mgrwt>
<rscale>  0 0.12499958E+03</rscale>
<asrwt>0</asrwt>
<pdfrwt beam="1">  1        4 0.22511264E-01 0.12499958E+03</pdfrwt>
<pdfrwt beam="2">  1       -4 0.10845193E-01 0.12499958E+03</pdfrwt>
<totfact> 0.19382099E+03</totfact>
</mgrwt>
</event>
<event>
 5    1  0.1431256E-002  0.1250010E+03  0.7818608E-02  0.1235068E+00
         -4   -1    0    0    0  501 -0.00000000000E+00  0.00000000000E+00  0.44476798184E+03  0.44476979503E+03  0.12700000000E+01 0.  1.
          4   -1    0    0  501    0  0.00000000000E+00 -0.00000000000E+00 -0.87350627925E+01  0.88269033069E+01  0.12700000000E+01 0.  1.
         25    2    1    2    0    0  0.00000000000E+00  0.00000000000E+00  0.43603291905E+03  0.45359669834E+03  0.12500103299E+03 0.  0.
    9000005    1    3    3    0    0  0.57417046610E+02  0.33264625614E+01  0.12931375633E+03  0.14153031538E+03  0.10000000000E+01 0.  0.
    9000005    1    3    3    0    0 -0.57417046610E+02 -0.33264625614E+01  0.30671916272E+03  0.31206638296E+03  0.10000000000E+01 0.  0.
<mgrwt>
<rscale>  0 0.12500103E+03</rscale>
<asrwt>0</asrwt>
<pdfrwt beam="2">  1        4 0.21954726E-02 0.12500103E+03</pdfrwt>
<pdfrwt beam="1">  1       -4 0.11120369E+00 0.12500103E+03</pdfrwt>
<totfact> 0.95372552E+02</totfact>
</mgrwt>
</event>
<event>
 5    1  0.1431256E-002  0.1249987E+03  0.7818608E-02  0.1235071E+00
         -4   -1    0    0    0  501 -0.00000000000E+00  0.00000000000E+00  0.24670982049E+03  0.24671308929E+03  0.12700000000E+01 0.  1.
          4   -1    0    0  501    0  0.00000000000E+00 -0.00000000000E+00 -0.15804207844E+02  0.15855153281E+02  0.12700000000E+01 0.  1.
         25    2    1    2    0    0  0.00000000000E+00  0.00000000000E+00  0.23090561265E+03  0.26256824257E+03  0.12499872021E+03 0.  0.
    9000005    1    3    3    0    0 -0.33867662212E+02 -0.51751782283E+02  0.96675977324E+02  0.11477155617E+03  0.10000000000E+01 0.  0.
    9000005    1    3    3    0    0  0.33867662212E+02  0.51751782283E+02  0.13422963532E+03  0.14779668640E+03  0.10000000000E+01 0.  0.
<mgrwt>
<rscale>  0 0.12499872E+03</rscale>
<asrwt>0</asrwt>
<pdfrwt beam="2">  1        4 0.39578288E-02 0.12499872E+03</pdfrwt>
<pdfrwt beam="1">  1       -4 0.61684231E-01 0.12499872E+03</pdfrwt>
<totfact> 0.14089466E+03</totfact>
</mgrwt>
</event>
<event>
 5    1  0.1431256E-002  0.1250012E+03  0.7818608E-02  0.1235067E+00
          4   -1    0    0  501    0  0.00000000000E+00  0.00000000000E+00  0.15491624358E+02  0.15543594348E+02  0.12700000000E+01 0. -1.
         -4   -1    0    0    0  501 -0.00000000000E+00 -0.00000000000E+00 -0.25168153516E+03  0.25168473938E+03  0.12700000000E+01 0. -1.
         25    2    1    2    0    0  0.00000000000E+00  0.00000000000E+00 -0.23618991080E+03  0.26722833373E+03  0.12500123354E+03 0.  0.
    9000005    1    3    3    0    0 -0.44081463549E+02  0.18407651012E+02 -0.31962080336E+02  0.57485577528E+02  0.10000000000E+01 0.  0.
    9000005    1    3    3    0    0  0.44081463549E+02 -0.18407651012E+02 -0.20422783046E+03  0.20974275620E+03  0.10000000000E+01 0.  0.
<mgrwt>
<rscale>  0 0.12500123E+03</rscale>
<asrwt>0</asrwt>
<pdfrwt beam="1">  1        4 0.38798037E-02 0.12500123E+03</pdfrwt>
<pdfrwt beam="2">  1       -4 0.62927267E-01 0.12500123E+03</pdfrwt>
<totfact> 0.13941553E+03</totfact>
</mgrwt>
</event>
<event>
 5    1  0.1431256E-002  0.1250002E+03  0.7818608E-02  0.1235069E+00
         -4   -1    0    0    0  501 -0.00000000000E+00  0.00000000000E+00  0.18331825625E+03  0.18332265538E+03  0.12700000000E+01 0.  1.
          4   -1    0    0  501    0  0.00000000000E+00 -0.00000000000E+00 -0.21285073316E+02  0.21322927708E+02  0.12700000000E+01 0.  1.
         25    2    1    2    0    0  0.00000000000E+00  0.00000000000E+00  0.16203318294E+03  0.20464558309E+03  0.12500024922E+03 0.  0.
    9000005    1    3    3    0    0 -0.61320600950E+02 -0.71426826199E+00  0.61333900915E+02  0.86738536311E+02  0.10000000000E+01 0.  0.
    9000005    1    3    3    0    0  0.61320600950E+02  0.71426826199E+00  0.10069928202E+03  0.11790704678E+03  0.10000000000E+01 0.  0.
<mgrwt>
<rscale>  0 0.12500025E+03</rscale>
<asrwt>0</asrwt>
<pdfrwt beam="2">  1        4 0.53265500E-02 0.12500025E+03</pdfrwt>
<pdfrwt beam="1">  1       -4 0.45834846E-01 0.12500025E+03</pdfrwt>
<totfact> 0.16137607E+03</totfact>
</mgrwt>
</event>
<event>
 5    1  0.1431256E-002  0.1250015E+03  0.7818608E-02  0.1235067E+00
          4   -1    0    0  501    0  0.00000000000E+00  0.00000000000E+00  0.17363461647E+03  0.17363926094E+03  0.12700000000E+01 0.  1.
         -4   -1    0    0    0  501 -0.00000000000E+00 -0.00000000000E+00 -0.22474629684E+02  0.22510483767E+02  0.12700000000E+01 0.  1.
         25    2    1    2    0    0  0.00000000000E+00  0.00000000000E+00  0.15115998679E+03  0.19614974470E+03  0.12500152295E+03 0.  0.
    9000005    1    3    3    0    0 -0.29857920394E+02 -0.54780396642E+02  0.81228583559E+02  0.10242787733E+03  0.10000000000E+01 0.  0.
    9000005    1    3    3    0    0  0.29857920394E+02  0.54780396642E+02  0.69931403231E+02  0.93721867376E+02  0.10000000000E+01 0.  0.
<mgrwt>
<rscale>  0 0.12500152E+03</rscale>
<asrwt>0</asrwt>
<pdfrwt beam="1">  1        4 0.43413716E-01 0.12500152E+03</pdfrwt>
<pdfrwt beam="2">  1       -4 0.56237198E-02 0.12500152E+03</pdfrwt>
<totfact> 0.16476800E+03</totfact>
</mgrwt>
</event>
<event>
 5    1  0.1431256E-002  0.1250238E+03  0.7818608E-02  0.1235032E+00
         -4   -1    0    0    0  501 -0.00000000000E+00  0.00000000000E+00  0.15671981105E+02  0.15723354977E+02  0.12700000000E+01 0. -1.
          4   -1    0    0  501    0  0.00000000000E+00 -0.00000000000E+00 -0.24888465357E+03  0.24888789380E+03  0.12700000000E+01 0. -1.
         25    2    1    2    0    0  0.00000000000E+00  0.00000000000E+00 -0.23321267246E+03  0.26461124878E+03  0.12502384726E+03 0.  0.
    9000005    1    3    3    0    0 -0.39434400421E+02 -0.17220647115E+01 -0.14034174437E+02  0.41904599933E+02  0.10000000000E+01 0.  0.
    9000005    1    3    3    0    0  0.39434400421E+02  0.17220647115E+01 -0.21917849803E+03  0.22270664885E+03  0.10000000000E+01 0.  0.
<mgrwt>
<rscale>  0 0.12502385E+03</rscale>
<asrwt>0</asrwt>
<pdfrwt beam="2">  1        4 0.62227978E-01 0.12502385E+03</pdfrwt>
<pdfrwt beam="1">  1       -4 0.39248228E-02 0.12502385E+03</pdfrwt>
<totfact> 0.14016587E+03</totfact>
</mgrwt>
</event>
<event>
 5    1  0.1431256E-002  0.1249851E+03  0.7818608E-02  0.1235093E+00
          4   -1    0    0  501    0  0.00000000000E+00  0.00000000000E+00  0.37999442462E+01  0.40065541647E+01  0.12700000000E+01 0. -1.
         -4   -1    0    0    0  501 -0.00000000000E+00 -0.00000000000E+00 -0.10003233667E+04  0.10003241729E+04  0.12700000000E+01 0. -1.
         25    2    1    2    0    0  0.00000000000E+00  0.00000000000E+00 -0.99652342246E+03  0.10043307271E+04  0.12498511033E+03 0.  0.
    9000005    1    3    3    0    0 -0.55825318848E+02  0.23277156698E+02 -0.37222123468E+03  0.37710468015E+03  0.10000000000E+01 0.  0.
    9000005    1    3    3    0    0  0.55825318848E+02 -0.23277156698E+02 -0.62430218778E+03  0.62722604690E+03  0.10000000000E+01 0.  0.
<mgrwt>
<rscale>  0 0.12498511E+03</rscale>
<asrwt>0</asrwt>
<pdfrwt beam="1">  1        4 0.97591650E-03 0.12498511E+03</pdfrwt>
<pdfrwt beam="2">  1       -4 0.25010589E+00 0.12498511E+03</pdfrwt>
<totfact> 0.36831315E+02</totfact>
</mgrwt>
</event>
<event>
 5    1  0.1431256E-002  0.1250119E+03  0.7818608E-02  0.1235051E+00
         -4   -1    0    0    0  501 -0.00000000000E+00  0.00000000000E+00  0.31164884158E+03  0.31165142926E+03  0.12700000000E+01 0.  1.
          4   -1    0    0  501    0  0.00000000000E+00 -0.00000000000E+00 -0.12501713021E+02  0.12566054610E+02  0.12700000000E+01 0.  1.
         25    2    1    2    0    0  0.00000000000E+00  0.00000000000E+00  0.29914712856E+03  0.32421748387E+03  0.12501188872E+03 0.  0.
    9000005    1    3    3    0    0  0.10292509852E+02  0.49418603902E+01  0.30893386310E+03  0.30914638848E+03  0.10000000000E+01 0.  0.
    9000005    1    3    3    0    0 -0.10292509852E+02 -0.49418603902E+01 -0.97867345391E+01  0.15071095385E+02  0.10000000000E+01 0.  0.
<mgrwt>
<rscale>  0 0.12501189E+03</rscale>
<asrwt>0</asrwt>
<pdfrwt beam="2">  1        4 0.31337945E-02 0.12501189E+03</pdfrwt>
<pdfrwt beam="1">  1       -4 0.77920574E-01 0.12501189E+03</pdfrwt>
<totfact> 0.12315119E+03</totfact>
</mgrwt>
</event>
<event>
 5    1  0.1431256E-002  0.1249997E+03  0.7818608E-02  0.1235070E+00
          4   -1    0    0  501    0  0.00000000000E+00  0.00000000000E+00  0.14347183992E+03  0.14347746078E+03  0.12700000000E+01 0.  1.
         -4   -1    0    0    0  501 -0.00000000000E+00 -0.00000000000E+00 -0.27205486024E+02  0.27235112810E+02  0.12700000000E+01 0.  1.
         25    2    1    2    0    0  0.00000000000E+00  0.00000000000E+00  0.11626635390E+03  0.17071257359E+03  0.12499967093E+03 0.  0.
    9000005    1    3    3    0    0 -0.44053823555E+02 -0.25303073720E+02  0.84349685706E+01  0.51508577968E+02  0.10000000000E+01 0.  0.
    9000005    1    3    3    0    0  0.44053823555E+02  0.25303073720E+02  0.10783138533E+03  0.11920399562E+03  0.10000000000E+01 0.  0.
<mgrwt>
<rscale>  0 0.12499967E+03</rscale>
<asrwt>0</asrwt>
<pdfrwt beam="1">  1        4 0.35872366E-01 0.12499967E+03</pdfrwt>
<pdfrwt beam="2">  1       -4 0.68057775E-02 0.12499967E+03</pdfrwt>
<totfact> 0.17565089E+03</totfact>
</mgrwt>
</event>
<event>
 5    1  0.1431256E-002  0.1249978E+03  0.7818608E-02  0.1235073E+00
         -4   -1    0    0    0  501 -0.00000000000E+00  0.00000000000E+00  0.53402989020E+01  0.54892342237E+01  0.12700000000E+01 0. -1.
          4   -1    0    0  501    0  0.00000000000E+00 -0.00000000000E+00 -0.72123159066E+03  0.72123270882E+03  0.12700000000E+01 0. -1.
         25    2    1    2    0    0  0.00000000000E+00  0.00000000000E+00 -0.71589129176E+03  0.72672194304E+03  0.12499776350E+03 0.  0.
    9000005    1    3    3    0    0  0.41657421658E+02  0.82057738270E+01 -0.62452547843E+03  0.62596784958E+03  0.10000000000E+01 0.  0.
    9000005    1    3    3    0    0 -0.41657421658E+02 -0.82057738270E+01 -0.91365813332E+02  0.10075409346E+03  0.10000000000E+01 0.  0.
<mgrwt>
<rscale>  0 0.12499776E+03</rscale>
<asrwt>0</asrwt>
<pdfrwt beam="2">  1        4 0.18032633E+00 0.12499776E+03</pdfrwt>
<pdfrwt beam="1">  1       -4 0.13538339E-02 0.12499776E+03</pdfrwt>
<totfact> 0.59343229E+02</totfact>
</mgrwt>
</event>
<event>
 5    1  0.1431256E-002  0.1250017E+03  0.7818608E-02  0.1235067E+00
         -4   -1    0    0    0  501 -0.00000000000E+00  0.00000000000E+00  0.14035125534E+02  0.14092467802E+02  0.12700000000E+01 0.  1.
          4   -1    0    0  501    0  0.00000000000E+00 -0.00000000000E+00 -0.27770072067E+03  0.27770362468E+03  0.12700000000E+01 0.  1.
         25    2    1    2    0    0  0.00000000000E+00  0.00000000000E+00 -0.26366559514E+03  0.29179609248E+03  0.12500165411E+03 0.  0.
    9000005    1    3    3    0    0  0.46181493434E+02 -0.41291215009E+02 -0.15103385942E+03  0.16324803663E+03  0.10000000000E+01 0.  0.
    9000005    1    3    3    0    0 -0.46181493434E+02  0.41291215009E+02 -0.11263173572E+03  0.12854805586E+03  0.10000000000E+01 0.  0.
<mgrwt>
<rscale>  0 0.12500165E+03</rscale>
<asrwt>0</asrwt>
<pdfrwt beam="2">  1        4 0.69432693E-01 0.12500165E+03</pdfrwt>
<pdfrwt beam="1">  1       -4 0.35163131E-02 0.12500165E+03</pdfrwt>
<totfact> 0.13203642E+03</totfact>
</mgrwt>
</event>
<event>
 5    1  0.1431256E-002  0.1250014E+03  0.7818608E-02  0.1235067E+00
         -4   -1    0    0    0  501 -0.00000000000E+00  0.00000000000E+00  0.47707584881E+02  0.47724485908E+02  0.12700000000E+01 0. -1.
          4   -1    0    0  501    0  0.00000000000E+00 -0.00000000000E+00 -0.81844455366E+02  0.81854308220E+02  0.12700000000E+01 0. -1.
         25    2    1    2    0    0  0.00000000000E+00  0.00000000000E+00 -0.34136870485E+02  0.12957879413E+03  0.12500135184E+03 0.  0.
    9000005    1    3    3    0    0 -0.37742141760E+02 -0.43772091986E+02 -0.41705738404E+02  0.71279968556E+02  0.10000000000E+01 0.  0.
    9000005    1    3    3    0    0  0.37742141760E+02  0.43772091986E+02  0.75688679190E+01  0.58298825572E+02  0.10000000000E+01 0.  0.
<mgrwt>
<rscale>  0 0.12500135E+03</rscale>
<asrwt>0</asrwt>
<pdfrwt beam="2">  1        4 0.20464458E-01 0.12500135E+03</pdfrwt>
<pdfrwt beam="1">  1       -4 0.11930241E-01 0.12500135E+03</pdfrwt>
<totfact> 0.19586435E+03</totfact>
</mgrwt>
</event>
<event>
 5    1  0.1431256E-002  0.1249978E+03  0.7818608E-02  0.1235073E+00
         -4   -1    0    0    0  501 -0.00000000000E+00  0.00000000000E+00  0.53268758265E+03  0.53268909657E+03  0.12700000000E+01 0.  1.
          4   -1    0    0  501    0  0.00000000000E+00 -0.00000000000E+00 -0.72763202097E+01  0.73863208564E+01  0.12700000000E+01 0.  1.
         25    2    1    2    0    0  0.00000000000E+00  0.00000000000E+00  0.52541126244E+03  0.54007541743E+03  0.12499784724E+03 0.  0.
    9000005    1    3    3    0    0  0.40165904276E+02 -0.90496227872E+01  0.46581976465E+03  0.46763687695E+03  0.10000000000E+01 0.  0.
    9000005    1    3    3    0    0 -0.40165904276E+02  0.90496227872E+01  0.59591497785E+02  0.72438540482E+02  0.10000000000E+01 0.  0.
<mgrwt>
<rscale>  0 0.12499785E+03</rscale>
<asrwt>0</asrwt>
<pdfrwt beam="2">  1        4 0.18330195E-02 0.12499785E+03</pdfrwt>
<pdfrwt beam="1">  1       -4 0.13318583E+00 0.12499785E+03</pdfrwt>
<totfact> 0.81570712E+02</totfact>
</mgrwt>
</event>
<event>
 5    1  0.1431256E-002  0.1249960E+03  0.7818608E-02  0.1235075E+00
          4   -1    0    0  501    0  0.00000000000E+00  0.00000000000E+00  0.71885048989E+02  0.71896266719E+02  0.12700000000E+01 0. -1.
         -4   -1    0    0    0  501 -0.00000000000E+00 -0.00000000000E+00 -0.54313908875E+02  0.54328754793E+02  0.12700000000E+01 0. -1.
         25    2    1    2    0    0  0.00000000000E+00  0.00000000000E+00  0.17571140113E+02  0.12622502151E+03  0.12499604430E+03 0.  0.
    9000005    1    3    3    0    0  0.11487765792E+02 -0.52765949949E+02  0.40539749549E+02  0.67532847789E+02  0.10000000000E+01 0.  0.
    9000005    1    3    3    0    0 -0.11487765792E+02  0.52765949949E+02 -0.22968609436E+02  0.58692173723E+02  0.10000000000E+01 0.  0.
<mgrwt>
<rscale>  0 0.12499604E+03</rscale>
<asrwt>0</asrwt>
<pdfrwt beam="1">  1        4 0.17974520E-01 0.12499604E+03</pdfrwt>
<pdfrwt beam="2">  1       -4 0.13581735E-01 0.12499604E+03</pdfrwt>
<totfact> 0.19770594E+03</totfact>
</mgrwt>
</event>
<event>
 5    1  0.1431256E-002  0.1249986E+03  0.7818608E-02  0.1235072E+00
          4   -1    0    0  501    0  0.00000000000E+00  0.00000000000E+00  0.91319099916E+01  0.92197982676E+01  0.12700000000E+01 0. -1.
         -4   -1    0    0    0  501 -0.00000000000E+00 -0.00000000000E+00 -0.42561107738E+03  0.42561297218E+03  0.12700000000E+01 0. -1.
         25    2    1    2    0    0  0.00000000000E+00  0.00000000000E+00 -0.41647916739E+03  0.43483277045E+03  0.12499856554E+03 0.  0.
    9000005    1    3    3    0    0 -0.39813459377E+02  0.12949291888E+02 -0.46850126254E+02  0.62838921362E+02  0.10000000000E+01 0.  0.
    9000005    1    3    3    0    0  0.39813459377E+02 -0.12949291888E+02 -0.36962904114E+03  0.37199384909E+03  0.10000000000E+01 0.  0.
<mgrwt>
<rscale>  0 0.12499857E+03</rscale>
<asrwt>0</asrwt>
<pdfrwt beam="1">  1        4 0.22942018E-02 0.12499857E+03</pdfrwt>
<pdfrwt beam="2">  1       -4 0.10641393E+00 0.12499857E+03</pdfrwt>
<totfact> 0.98808459E+02</totfact>
</mgrwt>
</event>
<event>
 5    1  0.1431256E-002  0.1249680E+03  0.7818608E-02  0.1235119E+00
          4   -1    0    0  501    0  0.00000000000E+00  0.00000000000E+00  0.16762425734E+02  0.16810467467E+02  0.12700000000E+01 0.  1.
         -4   -1    0    0    0  501 -0.00000000000E+00 -0.00000000000E+00 -0.23253380146E+03  0.23253726953E+03  0.12700000000E+01 0.  1.
         25    2    1    2    0    0  0.00000000000E+00  0.00000000000E+00 -0.21577137573E+03  0.24934773700E+03  0.12496802537E+03 0.  0.
    9000005    1    3    3    0    0  0.27479670883E+02  0.17676464778E+02 -0.21413686851E+03  0.21661760818E+03  0.10000000000E+01 0.  0.
    9000005    1    3    3    0    0 -0.27479670883E+02 -0.17676464778E+02 -0.16345072202E+01  0.32730128822E+02  0.10000000000E+01 0.  0.
<mgrwt>
<rscale>  0 0.12496803E+03</rscale>
<asrwt>0</asrwt>
<pdfrwt beam="1">  1        4 0.41970459E-02 0.12496803E+03</pdfrwt>
<pdfrwt beam="2">  1       -4 0.58139879E-01 0.12496803E+03</pdfrwt>
<totfact> 0.14530396E+03</totfact>
</mgrwt>
</event>
<event>
 5    1  0.1431256E-002  0.1249936E+03  0.7818608E-02  0.1235079E+00
         -4   -1    0    0    0  501 -0.00000000000E+00  0.00000000000E+00  0.58346914221E+01  0.59713083986E+01  0.12700000000E+01 0.  1.
          4   -1    0    0  501    0  0.00000000000E+00 -0.00000000000E+00 -0.66153510681E+03  0.66153632587E+03  0.12700000000E+01 0.  1.
         25    2    1    2    0    0  0.00000000000E+00  0.00000000000E+00 -0.65570041539E+03  0.66750763427E+03  0.12499362809E+03 0.  0.
    9000005    1    3    3    0    0 -0.47148804355E+02  0.33181120745E+02 -0.45655725248E+03  0.46018422541E+03  0.10000000000E+01 0.  0.
    9000005    1    3    3    0    0  0.47148804355E+02 -0.33181120745E+02 -0.19914316291E+03  0.20732340886E+03  0.10000000000E+01 0.  0.
<mgrwt>
<rscale>  0 0.12499363E+03</rscale>
<asrwt>0</asrwt>
<pdfrwt beam="2">  1        4 0.16540075E+00 0.12499363E+03</pdfrwt>
<pdfrwt beam="1">  1       -4 0.14759046E-02 0.12499363E+03</pdfrwt>
<totfact> 0.65552361E+02</totfact>
</mgrwt>
</event>
<event>
 5    1  0.1431256E-002  0.1249958E+03  0.7818608E-02  0.1235076E+00
         -4   -1    0    0    0  501 -0.00000000000E+00  0.00000000000E+00  0.42049712511E+01  0.43925713680E+01  0.12700000000E+01 0. -1.
          4   -1    0    0  501    0  0.00000000000E+00 -0.00000000000E+00 -0.90844128141E+03  0.90844216914E+03  0.12700000000E+01 0. -1.
         25    2    1    2    0    0  0.00000000000E+00  0.00000000000E+00 -0.90423631016E+03  0.91283474051E+03  0.12499583540E+03 0.  0.
    9000005    1    3    3    0    0 -0.83955251574E+00 -0.30182920803E+02 -0.85166712004E+03  0.85220279095E+03  0.10000000000E+01 0.  0.
    9000005    1    3    3    0    0  0.83955251574E+00  0.30182920803E+02 -0.52569190123E+02  0.60631949555E+02  0.10000000000E+01 0.  0.
<mgrwt>
<rscale>  0 0.12499584E+03</rscale>
<asrwt>0</asrwt>
<pdfrwt beam="2">  1        4 0.22713322E+00 0.12499584E+03</pdfrwt>
<pdfrwt beam="1">  1       -4 0.10748069E-02 0.12499584E+03</pdfrwt>
<totfact> 0.43308055E+02</totfact>
</mgrwt>
</event>
<event>
 5    1  0.1431256E-002  0.1250012E+03  0.7818608E-02  0.1235067E+00
         -4   -1    0    0    0  501 -0.00000000000E+00  0.00000000000E+00  0.10418608191E+03  0.10419382210E+03  0.12700000000E+01 0.  1.
          4   -1    0    0  501    0  0.00000000000E+00 -0.00000000000E+00 -0.37473843576E+02  0.37495357744E+02  0.12700000000E+01 0.  1.
         25    2    1    2    0    0  0.00000000000E+00  0.00000000000E+00  0.66712238339E+02  0.14168917985E+03  0.12500120376E+03 0.  0.
    9000005    1    3    3    0    0 -0.46523312387E+02 -0.31650594293E+01 -0.13802068346E+02  0.48640860265E+02  0.10000000000E+01 0.  0.
    9000005    1    3    3    0    0  0.46523312387E+02  0.31650594293E+01  0.80514306684E+02  0.93048319585E+02  0.10000000000E+01 0.  0.
<mgrwt>
<rscale>  0 0.12500120E+03</rscale>
<asrwt>0</asrwt>
<pdfrwt beam="2">  1        4 0.93721178E-02 0.12500120E+03</pdfrwt>
<pdfrwt beam="1">  1       -4 0.26050177E-01 0.12500120E+03</pdfrwt>
<totfact> 0.18953726E+03</totfact>
</mgrwt>
</event>
<event>
 5    1  0.1431256E-002  0.1249984E+03  0.7818608E-02  0.1235072E+00
          4   -1    0    0  501    0  0.00000000000E+00  0.00000000000E+00  0.79625386712E+02  0.79635514119E+02  0.12700000000E+01 0.  1.
         -4   -1    0    0    0  501 -0.00000000000E+00 -0.00000000000E+00 -0.49035123508E+02  0.49051567125E+02  0.12700000000E+01 0.  1.
         25    2    1    2    0    0  0.00000000000E+00  0.00000000000E+00  0.30590263204E+02  0.12868708124E+03  0.12499840270E+03 0.  0.
    9000005    1    3    3    0    0 -0.60921791809E+01  0.39068896786E+02  0.65113799614E+02  0.76185958309E+02  0.10000000000E+01 0.  0.
    9000005    1    3    3    0    0  0.60921791809E+01 -0.39068896786E+02 -0.34523536410E+02  0.52501122936E+02  0.10000000000E+01 0.  0.
<mgrwt>
<rscale>  0 0.12499840E+03</rscale>
<asrwt>0</asrwt>
<pdfrwt beam="1">  1        4 0.19909668E-01 0.12499840E+03</pdfrwt>
<pdfrwt beam="2">  1       -4 0.12262102E-01 0.12499840E+03</pdfrwt>
<totfact> 0.19635964E+03</totfact>
</mgrwt>
</event>
<event>
 5    1  0.1431256E-002  0.1250089E+03  0.7818608E-02  0.1235055E+00
          4   -1    0    0  501    0  0.00000000000E+00  0.00000000000E+00  0.71982843306E+02  0.71994045798E+02  0.12700000000E+01 0. -1.
         -4   -1    0    0    0  501 -0.00000000000E+00 -0.00000000000E+00 -0.54251232107E+02  0.54266095171E+02  0.12700000000E+01 0. -1.
         25    2    1    2    0    0  0.00000000000E+00  0.00000000000E+00  0.17731611200E+02  0.12626014097E+03  0.12500885233E+03 0.  0.
    9000005    1    3    3    0    0  0.22515548299E+02  0.58109664188E+02  0.13616105621E+02  0.63797188963E+02  0.10000000000E+01 0.  0.
    9000005    1    3    3    0    0 -0.22515548299E+02 -0.58109664188E+02  0.41155055784E+01  0.62462952007E+02  0.10000000000E+01 0.  0.
<mgrwt>
<rscale>  0 0.12500885E+03</rscale>
<asrwt>0</asrwt>
<pdfrwt beam="1">  1        4 0.17998969E-01 0.12500885E+03</pdfrwt>
<pdfrwt beam="2">  1       -4 0.13566066E-01 0.12500885E+03</pdfrwt>
<totfact> 0.19762776E+03</totfact>
</mgrwt>
</event>
<event>
 5    1  0.1431256E-002  0.1249991E+03  0.7818608E-02  0.1235071E+00
          4   -1    0    0  501    0  0.00000000000E+00  0.00000000000E+00  0.20453136166E+02  0.20492527395E+02  0.12700000000E+01 0.  1.
         -4   -1    0    0    0  501 -0.00000000000E+00 -0.00000000000E+00 -0.19075731858E+03  0.19076154615E+03  0.12700000000E+01 0.  1.
         25    2    1    2    0    0  0.00000000000E+00  0.00000000000E+00 -0.17030418241E+03  0.21125407355E+03  0.12499907617E+03 0.  0.
    9000005    1    3    3    0    0  0.18867688658E+02 -0.54361987464E+02 -0.43962918591E+02  0.72422051665E+02  0.10000000000E+01 0.  0.
    9000005    1    3    3    0    0 -0.18867688658E+02  0.54361987464E+02 -0.12634126382E+03  0.13883202188E+03  0.10000000000E+01 0.  0.
<mgrwt>
<rscale>  0 0.12499908E+03</rscale>
<asrwt>0</asrwt>
<pdfrwt beam="1">  1        4 0.51187370E-02 0.12499908E+03</pdfrwt>
<pdfrwt beam="2">  1       -4 0.47694777E-01 0.12499908E+03</pdfrwt>
<totfact> 0.15881454E+03</totfact>
</mgrwt>
</event>
<event>
 5    1  0.1431256E-002  0.1249989E+03  0.7818608E-02  0.1235071E+00
          4   -1    0    0  501    0  0.00000000000E+00  0.00000000000E+00  0.36434876075E+02  0.36457003369E+02  0.12700000000E+01 0. -1.
         -4   -1    0    0    0  501 -0.00000000000E+00 -0.00000000000E+00 -0.10715154475E+03  0.10715907074E+03  0.12700000000E+01 0. -1.
         25    2    1    2    0    0  0.00000000000E+00  0.00000000000E+00 -0.70716668671E+02  0.14361607411E+03  0.12499891805E+03 0.  0.
    9000005    1    3    3    0    0 -0.73104125629E+01 -0.28723921239E+01 -0.10658779442E+03  0.10688147963E+03  0.10000000000E+01 0.  0.
    9000005    1    3    3    0    0  0.73104125629E+01  0.28723921239E+01  0.35871125753E+02  0.36734594474E+02  0.10000000000E+01 0.  0.
<mgrwt>
<rscale>  0 0.12499892E+03</rscale>
<asrwt>0</asrwt>
<pdfrwt beam="1">  1        4 0.91124259E-02 0.12499892E+03</pdfrwt>
<pdfrwt beam="2">  1       -4 0.26791592E-01 0.12499892E+03</pdfrwt>
<totfact> 0.18857328E+03</totfact>
</mgrwt>
</event>
<event>
 5    1  0.1431256E-002  0.1250043E+03  0.7818608E-02  0.1235063E+00
         -4   -1    0    0    0  501 -0.00000000000E+00  0.00000000000E+00  0.60594841596E+02  0.60608149024E+02  0.12700000000E+01 0. -1.
          4   -1    0    0  501    0  0.00000000000E+00 -0.00000000000E+00 -0.64442853138E+02  0.64455366111E+02  0.12700000000E+01 0. -1.
         25    2    1    2    0    0  0.00000000000E+00  0.00000000000E+00 -0.38480115413E+01  0.12506351514E+03  0.12500430243E+03 0.  0.
    9000005    1    3    3    0    0 -0.33465153951E+02  0.34740734990E+02  0.37827467946E+02  0.61308666009E+02  0.10000000000E+01 0.  0.
    9000005    1    3    3    0    0  0.33465153951E+02 -0.34740734990E+02 -0.41675479487E+02  0.63754849126E+02  0.10000000000E+01 0.  0.
<mgrwt>
<rscale>  0 0.12500430E+03</rscale>
<asrwt>0</asrwt>
<pdfrwt beam="2">  1        4 0.16113941E-01 0.12500430E+03</pdfrwt>
<pdfrwt beam="1">  1       -4 0.15151938E-01 0.12500430E+03</pdfrwt>
<totfact> 0.19829615E+03</totfact>
</mgrwt>
</event>
<event>
 5    1  0.1431256E-002  0.1249984E+03  0.7818608E-02  0.1235072E+00
          4   -1    0    0  501    0  0.00000000000E+00  0.00000000000E+00  0.68374568613E+02  0.68386362186E+02  0.12700000000E+01 0. -1.
         -4   -1    0    0    0  501 -0.00000000000E+00 -0.00000000000E+00 -0.57104900755E+02  0.57119021264E+02  0.12700000000E+01 0. -1.
         25    2    1    2    0    0  0.00000000000E+00  0.00000000000E+00  0.11269667858E+02  0.12550538345E+03  0.12499838343E+03 0.  0.
    9000005    1    3    3    0    0  0.54956925249E+02  0.13331558913E+02  0.32335077710E+02  0.65150221384E+02  0.10000000000E+01 0.  0.
    9000005    1    3    3    0    0 -0.54956925249E+02 -0.13331558913E+02 -0.21065409852E+02  0.60355162066E+02  0.10000000000E+01 0.  0.
<mgrwt>
<rscale>  0 0.12499838E+03</rscale>
<asrwt>0</asrwt>
<pdfrwt beam="1">  1        4 0.17096881E-01 0.12499838E+03</pdfrwt>
<pdfrwt beam="2">  1       -4 0.14279465E-01 0.12499838E+03</pdfrwt>
<totfact> 0.19808421E+03</totfact>
</mgrwt>
</event>
<event>
 5    1  0.1431256E-002  0.1250007E+03  0.7818608E-02  0.1235068E+00
         -4   -1    0    0    0  501 -0.00000000000E+00  0.00000000000E+00  0.18288027832E+03  0.18288468798E+03  0.12700000000E+01 0.  1.
          4   -1    0    0  501    0  0.00000000000E+00 -0.00000000000E+00 -0.21336280598E+02  0.21374044300E+02  0.12700000000E+01 0.  1.
         25    2    1    2    0    0  0.00000000000E+00  0.00000000000E+00  0.16154399772E+03  0.20425873228E+03  0.12500066605E+03 0.  0.
    9000005    1    3    3    0    0 -0.51913076101E+02 -0.12459728241E+02  0.13384954818E+03  0.14410729977E+03  0.10000000000E+01 0.  0.
    9000005    1    3    3    0    0  0.51913076101E+02  0.12459728241E+02  0.27694449539E+02  0.60151432513E+02  0.10000000000E+01 0.  0.
<mgrwt>
<rscale>  0 0.12500067E+03</rscale>
<asrwt>0</asrwt>
<pdfrwt beam="2">  1        4 0.53393420E-02 0.12500067E+03</pdfrwt>
<pdfrwt beam="1">  1       -4 0.45725340E-01 0.12500067E+03</pdfrwt>
<totfact> 0.16152675E+03</totfact>
</mgrwt>
</event>
<event>
 5    1  0.1431256E-002  0.1249991E+03  0.7818608E-02  0.1235071E+00
          4   -1    0    0  501    0  0.00000000000E+00  0.00000000000E+00  0.18236326660E+02  0.18280495345E+02  0.12700000000E+01 0. -1.
         -4   -1    0    0    0  501 -0.00000000000E+00 -0.00000000000E+00 -0.21389329407E+03  0.21389706437E+03  0.12700000000E+01 0. -1.
         25    2    1    2    0    0  0.00000000000E+00  0.00000000000E+00 -0.19565696741E+03  0.23217755971E+03  0.12499908136E+03 0.  0.
    9000005    1    3    3    0    0  0.31755402254E+02 -0.53101889541E+02 -0.81532069676E+02  0.10235572593E+03  0.10000000000E+01 0.  0.
    9000005    1    3    3    0    0 -0.31755402254E+02  0.53101889541E+02 -0.11412489773E+03  0.12982183378E+03  0.10000000000E+01 0.  0.
<mgrwt>
<rscale>  0 0.12499908E+03</rscale>
<asrwt>0</asrwt>
<pdfrwt beam="1">  1        4 0.45650747E-02 0.12499908E+03</pdfrwt>
<pdfrwt beam="2">  1       -4 0.53479308E-01 0.12499908E+03</pdfrwt>
<totfact> 0.15110134E+03</totfact>
</mgrwt>
</event>
<event>
 5    1  0.1431256E-002  0.1249925E+03  0.7818608E-02  0.1235081E+00
         -4   -1    0    0    0  501 -0.00000000000E+00  0.00000000000E+00  0.79059547789E+01  0.80073104701E+01  0.12700000000E+01 0. -1.
          4   -1    0    0  501    0  0.00000000000E+00 -0.00000000000E+00 -0.49078170621E+03  0.49078334941E+03  0.12700000000E+01 0. -1.
         25    2    1    2    0    0  0.00000000000E+00  0.00000000000E+00 -0.48287575144E+03  0.49879065988E+03  0.12499252400E+03 0.  0.
    9000005    1    3    3    0    0 -0.54493818031E+02 -0.21180665722E+02 -0.32946450280E+03  0.33461329234E+03  0.10000000000E+01 0.  0.
    9000005    1    3    3    0    0  0.54493818031E+02  0.21180665722E+02 -0.15341124864E+03  0.16417736754E+03  0.10000000000E+01 0.  0.
<mgrwt>
<rscale>  0 0.12499252E+03</rscale>
<asrwt>0</asrwt>
<pdfrwt beam="2">  1        4 0.12270820E+00 0.12499252E+03</pdfrwt>
<pdfrwt beam="1">  1       -4 0.19893652E-02 0.12499252E+03</pdfrwt>
<totfact> 0.87814574E+02</totfact>
</mgrwt>
</event>
<event>
 5    1  0.1431256E-002  0.1250057E+03  0.7818608E-02  0.1235060E+00
          4   -1    0    0  501    0  0.00000000000E+00  0.00000000000E+00  0.42550061970E+02  0.42569010719E+02  0.12700000000E+01 0. -1.
         -4   -1    0    0    0  501 -0.00000000000E+00 -0.00000000000E+00 -0.91768285750E+02  0.91777073224E+02  0.12700000000E+01 0. -1.
         25    2    1    2    0    0  0.00000000000E+00  0.00000000000E+00 -0.49218223781E+02  0.13434608394E+03  0.12500574674E+03 0.  0.
    9000005    1    3    3    0    0  0.35884666668E+01  0.17816223216E+02  0.39652578366E+02  0.43630515396E+02  0.10000000000E+01 0.  0.
    9000005    1    3    3    0    0 -0.35884666668E+01 -0.17816223216E+02 -0.88870802146E+02  0.90715568547E+02  0.10000000000E+01 0.  0.
<mgrwt>
<rscale>  0 0.12500575E+03</rscale>
<asrwt>0</asrwt>
<pdfrwt beam="1">  1        4 0.10640983E-01 0.12500575E+03</pdfrwt>
<pdfrwt beam="2">  1       -4 0.22945538E-01 0.12500575E+03</pdfrwt>
<totfact> 0.19330851E+03</totfact>
</mgrwt>
</event>
<event>
 5    1  0.1431256E-002  0.1250022E+03  0.7818608E-02  0.1235066E+00
         -4   -1    0    0    0  501 -0.00000000000E+00  0.00000000000E+00  0.54786258688E+01  0.56238991287E+01  0.12700000000E+01 0.  1.
          4   -1    0    0  501    0  0.00000000000E+00 -0.00000000000E+00 -0.70354783707E+03  0.70354898333E+03  0.12700000000E+01 0.  1.
         25    2    1    2    0    0  0.00000000000E+00  0.00000000000E+00 -0.69806921120E+03  0.70917288246E+03  0.12500221434E+03 0.  0.
    9000005    1    3    3    0    0  0.56413744973E+02  0.18733866977E+02 -0.23962406024E+03  0.24688896014E+03  0.10000000000E+01 0.  0.
    9000005    1    3    3    0    0 -0.56413744973E+02 -0.18733866977E+02 -0.45844515096E+03  0.46228392232E+03  0.10000000000E+01 0.  0.
<mgrwt>
<rscale>  0 0.12500221E+03</rscale>
<asrwt>0</asrwt>
<pdfrwt beam="2">  1        4 0.17590496E+00 0.12500221E+03</pdfrwt>
<pdfrwt beam="1">  1       -4 0.13879613E-02 0.12500221E+03</pdfrwt>
<totfact> 0.61112402E+02</totfact>
</mgrwt>
</event>
<event>
 5    1  0.1431256E-002  0.1249674E+03  0.7818608E-02  0.1235120E+00
          4   -1    0    0  501    0  0.00000000000E+00  0.00000000000E+00  0.14438096702E+02  0.14493844775E+02  0.12700000000E+01 0.  1.
         -4   -1    0    0    0  501 -0.00000000000E+00 -0.00000000000E+00 -0.26983225497E+03  0.26983524366E+03  0.12700000000E+01 0.  1.
         25    2    1    2    0    0  0.00000000000E+00  0.00000000000E+00 -0.25539415826E+03  0.28432908843E+03  0.12496741357E+03 0.  0.
    9000005    1    3    3    0    0  0.34122247666E+02  0.10690496123E+02 -0.24425881348E+03  0.24686429968E+03  0.10000000000E+01 0.  0.
    9000005    1    3    3    0    0 -0.34122247666E+02 -0.10690496123E+02 -0.11135344788E+02  0.37464788758E+02  0.10000000000E+01 0.  0.
<mgrwt>
<rscale>  0 0.12496741E+03</rscale>
<asrwt>0</asrwt>
<pdfrwt beam="1">  1        4 0.36168671E-02 0.12496741E+03</pdfrwt>
<pdfrwt beam="2">  1       -4 0.67465389E-01 0.12496741E+03</pdfrwt>
<totfact> 0.13431952E+03</totfact>
</mgrwt>
</event>
<event>
 5    1  0.1431256E-002  0.1250019E+03  0.7818608E-02  0.1235066E+00
         -4   -1    0    0    0  501 -0.00000000000E+00  0.00000000000E+00  0.12521200650E+03  0.12521844701E+03  0.12700000000E+01 0.  1.
          4   -1    0    0  501    0  0.00000000000E+00 -0.00000000000E+00 -0.31177865880E+02  0.31203721266E+02  0.12700000000E+01 0.  1.
         25    2    1    2    0    0  0.00000000000E+00  0.00000000000E+00  0.94034140623E+02  0.15642216828E+03  0.12500190049E+03 0.  0.
    9000005    1    3    3    0    0 -0.46860503160E+02 -0.85224740623E+01  0.97644211266E+02  0.10864589875E+03  0.10000000000E+01 0.  0.
    9000005    1    3    3    0    0  0.46860503160E+02  0.85224740623E+01 -0.36100706431E+01  0.47776269534E+02  0.10000000000E+01 0.  0.
<mgrwt>
<rscale>  0 0.12500190E+03</rscale>
<asrwt>0</asrwt>
<pdfrwt beam="2">  1        4 0.77985036E-02 0.12500190E+03</pdfrwt>
<pdfrwt beam="1">  1       -4 0.31307038E-01 0.12500190E+03</pdfrwt>
<totfact> 0.18226638E+03</totfact>
</mgrwt>
</event>
<event>
 5    1  0.1431256E-002  0.1250052E+03  0.7818608E-02  0.1235061E+00
          4   -1    0    0  501    0  0.00000000000E+00  0.00000000000E+00  0.97621597370E+03  0.97621679980E+03  0.12700000000E+01 0. -1.
         -4   -1    0    0    0  501 -0.00000000000E+00 -0.00000000000E+00 -0.39001420605E+01  0.41017079482E+01  0.12700000000E+01 0. -1.
         25    2    1    2    0    0  0.00000000000E+00  0.00000000000E+00  0.97231583164E+03  0.98031850775E+03  0.12500520058E+03 0.  0.
    9000005    1    3    3    0    0 -0.40682015495E+01  0.59337424644E+02  0.33569863866E+03  0.34092822738E+03  0.10000000000E+01 0.  0.
    9000005    1    3    3    0    0  0.40682015495E+01 -0.59337424644E+02  0.63661719299E+03  0.63939028037E+03  0.10000000000E+01 0.  0.
<mgrwt>
<rscale>  0 0.12500520E+03</rscale>
<asrwt>0</asrwt>
<pdfrwt beam="1">  1        4 0.24407929E+00 0.12500520E+03</pdfrwt>
<pdfrwt beam="2">  1       -4 0.10003345E-02 0.12500520E+03</pdfrwt>
<totfact> 0.38444126E+02</totfact>
</mgrwt>
</event>
<event>
 5    1  0.1431256E-002  0.1250002E+03  0.7818608E-02  0.1235069E+00
         -4   -1    0    0    0  501 -0.00000000000E+00  0.00000000000E+00  0.37927764837E+03  0.37927977465E+03  0.12700000000E+01 0. -1.
          4   -1    0    0  501    0  0.00000000000E+00 -0.00000000000E+00 -0.10257895277E+02  0.10336213790E+02  0.12700000000E+01 0. -1.
         25    2    1    2    0    0  0.00000000000E+00  0.00000000000E+00  0.36901975310E+03  0.38961598844E+03  0.12500016108E+03 0.  0.
    9000005    1    3    3    0    0 -0.10108466088E+02  0.31309612269E+02  0.18907995915E+02  0.37960311071E+02  0.10000000000E+01 0.  0.
    9000005    1    3    3    0    0  0.10108466088E+02 -0.31309612269E+02  0.35011175718E+03  0.35165567737E+03  0.10000000000E+01 0.  0.
<mgrwt>
<rscale>  0 0.12500016E+03</rscale>
<asrwt>0</asrwt>
<pdfrwt beam="2">  1        4 0.25745294E-02 0.12500016E+03</pdfrwt>
<pdfrwt beam="1">  1       -4 0.94829468E-01 0.12500016E+03</pdfrwt>
<totfact> 0.10786226E+03</totfact>
</mgrwt>
</event>
<event>
 5    1  0.1431256E-002  0.1249990E+03  0.7818608E-02  0.1235071E+00
          4   -1    0    0  501    0  0.00000000000E+00  0.00000000000E+00  0.66410560279E+02  0.66422702569E+02  0.12700000000E+01 0. -1.
         -4   -1    0    0    0  501 -0.00000000000E+00 -0.00000000000E+00 -0.58794375114E+02  0.58808089963E+02  0.12700000000E+01 0. -1.
         25    2    1    2    0    0  0.00000000000E+00  0.00000000000E+00  0.76161851642E+01  0.12523079253E+03  0.12499898048E+03 0.  0.
    9000005    1    3    3    0    0  0.27433745961E+02  0.29027863690E+02 -0.44343071766E+02  0.59686977655E+02  0.10000000000E+01 0.  0.
    9000005    1    3    3    0    0 -0.27433745961E+02 -0.29027863690E+02  0.51959256931E+02  0.65543814877E+02  0.10000000000E+01 0.  0.
<mgrwt>
<rscale>  0 0.12499898E+03</rscale>
<asrwt>0</asrwt>
<pdfrwt beam="1">  1        4 0.16605872E-01 0.12499898E+03</pdfrwt>
<pdfrwt beam="2">  1       -4 0.14701826E-01 0.12499898E+03</pdfrwt>
<totfact> 0.19823017E+03</totfact>
</mgrwt>
</event>
<event>
 5    1  0.1431256E-002  0.1250060E+03  0.7818608E-02  0.1235060E+00
          4   -1    0    0  501    0  0.00000000000E+00  0.00000000000E+00  0.80401186961E+02  0.80411216660E+02  0.12700000000E+01 0.  1.
         -4   -1    0    0    0  501 -0.00000000000E+00 -0.00000000000E+00 -0.48567767064E+02  0.48584368861E+02  0.12700000000E+01 0.  1.
         25    2    1    2    0    0  0.00000000000E+00  0.00000000000E+00  0.31833419897E+02  0.12899558552E+03  0.12500597770E+03 0.  0.
    9000005    1    3    3    0    0  0.28173736361E+02 -0.28231728127E+02  0.65564962472E+02  0.76749945912E+02  0.10000000000E+01 0.  0.
    9000005    1    3    3    0    0 -0.28173736361E+02  0.28231728127E+02 -0.33731542575E+02  0.52245639608E+02  0.10000000000E+01 0.  0.
<mgrwt>
<rscale>  0 0.12500598E+03</rscale>
<asrwt>0</asrwt>
<pdfrwt beam="1">  1        4 0.20103625E-01 0.12500598E+03</pdfrwt>
<pdfrwt beam="2">  1       -4 0.12145271E-01 0.12500598E+03</pdfrwt>
<totfact> 0.19615797E+03</totfact>
</mgrwt>
</event>
<event>
 5    1  0.1431256E-002  0.1250097E+03  0.7818608E-02  0.1235054E+00
         -4   -1    0    0    0  501 -0.00000000000E+00  0.00000000000E+00  0.71423176353E+02  0.71434466614E+02  0.12700000000E+01 0. -1.
          4   -1    0    0  501    0  0.00000000000E+00 -0.00000000000E+00 -0.54677126266E+02  0.54691873590E+02  0.12700000000E+01 0. -1.
         25    2    1    2    0    0  0.00000000000E+00  0.00000000000E+00  0.16746050087E+02  0.12612634020E+03  0.12500969362E+03 0.  0.
    9000005    1    3    3    0    0 -0.11595413389E+02 -0.61241971413E+02  0.37690194111E+01  0.62451886933E+02  0.10000000000E+01 0.  0.
    9000005    1    3    3    0    0  0.11595413389E+02  0.61241971413E+02  0.12977030676E+02  0.63674453271E+02  0.10000000000E+01 0.  0.
<mgrwt>
<rscale>  0 0.12500969E+03</rscale>
<asrwt>0</asrwt>
<pdfrwt beam="2">  1        4 0.13672536E-01 0.12500969E+03</pdfrwt>
<pdfrwt beam="1">  1       -4 0.17859049E-01 0.12500969E+03</pdfrwt>
<totfact> 0.19769611E+03</totfact>
</mgrwt>
</event>
<event>
 5    1  0.1431256E-002  0.1249939E+03  0.7818608E-02  0.1235079E+00
         -4   -1    0    0    0  501 -0.00000000000E+00  0.00000000000E+00  0.39594804395E+03  0.39595008070E+03  0.12700000000E+01 0. -1.
          4   -1    0    0  501    0  0.00000000000E+00 -0.00000000000E+00 -0.98216568540E+01  0.99034258394E+01  0.12700000000E+01 0. -1.
         25    2    1    2    0    0  0.00000000000E+00  0.00000000000E+00  0.38612638709E+03  0.40585350654E+03  0.12499392769E+03 0.  0.
    9000005    1    3    3    0    0 -0.43121898237E+02 -0.13376345114E+02  0.33334071244E+03  0.33638587260E+03  0.10000000000E+01 0.  0.
    9000005    1    3    3    0    0  0.43121898237E+02  0.13376345114E+02  0.52785674653E+02  0.69467633936E+02  0.10000000000E+01 0.  0.
<mgrwt>
<rscale>  0 0.12499393E+03</rscale>
<asrwt>0</asrwt>
<pdfrwt beam="2">  1        4 0.24658900E-02 0.12499393E+03</pdfrwt>
<pdfrwt beam="1">  1       -4 0.98997484E-01 0.12499393E+03</pdfrwt>
<totfact> 0.10451057E+03</totfact>
</mgrwt>
</event>
<event>
 5    1  0.1431256E-002  0.1250003E+03  0.7818608E-02  0.1235069E+00
          4   -1    0    0  501    0  0.00000000000E+00  0.00000000000E+00  0.88387505857E+02  0.88396629413E+02  0.12700000000E+01 0. -1.
         -4   -1    0    0    0  501 -0.00000000000E+00 -0.00000000000E+00 -0.44174277477E+02  0.44192529806E+02  0.12700000000E+01 0. -1.
         25    2    1    2    0    0  0.00000000000E+00  0.00000000000E+00  0.44213228380E+02  0.13258915922E+03  0.12500030231E+03 0.  0.
    9000005    1    3    3    0    0  0.31612193031E+02  0.53242903173E+02  0.31052588703E+02  0.69277707465E+02  0.10000000000E+01 0.  0.
    9000005    1    3    3    0    0 -0.31612193031E+02 -0.53242903173E+02  0.13160639677E+02  0.63311451754E+02  0.10000000000E+01 0.  0.
<mgrwt>
<rscale>  0 0.12500030E+03</rscale>
<asrwt>0</asrwt>
<pdfrwt beam="1">  1        4 0.22100298E-01 0.12500030E+03</pdfrwt>
<pdfrwt beam="2">  1       -4 0.11046991E-01 0.12500030E+03</pdfrwt>
<totfact> 0.19426035E+03</totfact>
</mgrwt>
</event>
<event>
 5    1  0.1431256E-002  0.1250011E+03  0.7818608E-02  0.1235068E+00
          4   -1    0    0  501    0  0.00000000000E+00  0.00000000000E+00  0.90824205391E+01  0.91707831100E+01  0.12700000000E+01 0. -1.
         -4   -1    0    0    0  501 -0.00000000000E+00 -0.00000000000E+00 -0.42792539258E+03  0.42792727713E+03  0.12700000000E+01 0. -1.
         25    2    1    2    0    0  0.00000000000E+00  0.00000000000E+00 -0.41884297204E+03  0.43709806024E+03  0.12500111616E+03 0.  0.
    9000005    1    3    3    0    0  0.58472802594E+02 -0.15879606904E+02 -0.26292171962E+03  0.26981486469E+03  0.10000000000E+01 0.  0.
    9000005    1    3    3    0    0 -0.58472802594E+02  0.15879606904E+02 -0.15592125241E+03  0.16728319555E+03  0.10000000000E+01 0.  0.
<mgrwt>
<rscale>  0 0.12500112E+03</rscale>
<asrwt>0</asrwt>
<pdfrwt beam="1">  1        4 0.22818875E-02 0.12500112E+03</pdfrwt>
<pdfrwt beam="2">  1       -4 0.10699256E+00 0.12500112E+03</pdfrwt>
<totfact> 0.98377918E+02</totfact>
</mgrwt>
</event>
<event>
 5    1  0.1431256E-002  0.1250029E+03  0.7818608E-02  0.1235065E+00
         -4   -1    0    0    0  501 -0.00000000000E+00  0.00000000000E+00  0.94324339271E+02  0.94332888638E+02  0.12700000000E+01 0. -1.
          4   -1    0    0  501    0  0.00000000000E+00 -0.00000000000E+00 -0.41394691688E+02  0.41414169072E+02  0.12700000000E+01 0. -1.
         25    2    1    2    0    0  0.00000000000E+00  0.00000000000E+00  0.52929647583E+02  0.13574705771E+03  0.12500286430E+03 0.  0.
    9000005    1    3    3    0    0 -0.48351947245E+02 -0.38516338889E+02  0.36418318361E+02  0.71754533488E+02  0.10000000000E+01 0.  0.
    9000005    1    3    3    0    0  0.48351947245E+02  0.38516338889E+02  0.16511329221E+02  0.63992524223E+02  0.10000000000E+01 0.  0.
<mgrwt>
<rscale>  0 0.12500286E+03</rscale>
<asrwt>0</asrwt>
<pdfrwt beam="2">  1        4 0.10352176E-01 0.12500286E+03</pdfrwt>
<pdfrwt beam="1">  1       -4 0.23584588E-01 0.12500286E+03</pdfrwt>
<totfact> 0.19258791E+03</totfact>
</mgrwt>
</event>
<event>
 5    1  0.1431256E-002  0.1249954E+03  0.7818608E-02  0.1235076E+00
          4   -1    0    0  501    0  0.00000000000E+00  0.00000000000E+00  0.16640152131E+02  0.16688545860E+02  0.12700000000E+01 0.  1.
         -4   -1    0    0    0  501 -0.00000000000E+00 -0.00000000000E+00 -0.23434020812E+03  0.23434364946E+03  0.12700000000E+01 0.  1.
         25    2    1    2    0    0  0.00000000000E+00  0.00000000000E+00 -0.21770005599E+03  0.25103219532E+03  0.12499539475E+03 0.  0.
    9000005    1    3    3    0    0  0.49868038333E+02 -0.21398779013E+02 -0.46616593747E+02  0.71546039743E+02  0.10000000000E+01 0.  0.
    9000005    1    3    3    0    0 -0.49868038333E+02  0.21398779013E+02 -0.17108346224E+03  0.17948615557E+03  0.10000000000E+01 0.  0.
<mgrwt>
<rscale>  0 0.12499539E+03</rscale>
<asrwt>0</asrwt>
<pdfrwt beam="1">  1        4 0.41665182E-02 0.12499539E+03</pdfrwt>
<pdfrwt beam="2">  1       -4 0.58591521E-01 0.12499539E+03</pdfrwt>
<totfact> 0.14465247E+03</totfact>
</mgrwt>
</event>
<event>
 5    1  0.1431256E-002  0.1250007E+03  0.7818608E-02  0.1235068E+00
          4   -1    0    0  501    0  0.00000000000E+00  0.00000000000E+00  0.19948261512E+02  0.19988647712E+02  0.12700000000E+01 0.  1.
         -4   -1    0    0    0  501 -0.00000000000E+00 -0.00000000000E+00 -0.19558086393E+03  0.19558498724E+03  0.12700000000E+01 0.  1.
         25    2    1    2    0    0  0.00000000000E+00  0.00000000000E+00 -0.17563260241E+03  0.21557363495E+03  0.12500072422E+03 0.  0.
    9000005    1    3    3    0    0  0.20544735501E+02 -0.39188867917E+02 -0.11710922313E+02  0.45782084125E+02  0.10000000000E+01 0.  0.
    9000005    1    3    3    0    0 -0.20544735501E+02  0.39188867917E+02 -0.16392168010E+03  0.16979155083E+03  0.10000000000E+01 0.  0.
<mgrwt>
<rscale>  0 0.12500072E+03</rscale>
<asrwt>0</asrwt>
<pdfrwt beam="1">  1        4 0.49926297E-02 0.12500072E+03</pdfrwt>
<pdfrwt beam="2">  1       -4 0.48900774E-01 0.12500072E+03</pdfrwt>
<totfact> 0.15716613E+03</totfact>
</mgrwt>
</event>
<event>
 5    1  0.1431256E-002  0.1250089E+03  0.7818608E-02  0.1235055E+00
         -4   -1    0    0    0  501 -0.00000000000E+00  0.00000000000E+00  0.32334793040E+03  0.32335042445E+03  0.12700000000E+01 0. -1.
          4   -1    0    0  501    0  0.00000000000E+00 -0.00000000000E+00 -0.12046446317E+02  0.12113206383E+02  0.12700000000E+01 0. -1.
         25    2    1    2    0    0  0.00000000000E+00  0.00000000000E+00  0.31130148408E+03  0.33546363084E+03  0.12500893417E+03 0.  0.
    9000005    1    3    3    0    0  0.38345035914E+02 -0.30034204103E+02  0.26073411177E+03  0.26524643680E+03  0.10000000000E+01 0.  0.
    9000005    1    3    3    0    0 -0.38345035914E+02  0.30034204103E+02  0.50567372312E+02  0.70217194033E+02  0.10000000000E+01 0.  0.
<mgrwt>
<rscale>  0 0.12500893E+03</rscale>
<asrwt>0</asrwt>
<pdfrwt beam="2">  1        4 0.30202684E-02 0.12500893E+03</pdfrwt>
<pdfrwt beam="1">  1       -4 0.80845638E-01 0.12500893E+03</pdfrwt>
<totfact> 0.12029815E+03</totfact>
</mgrwt>
</event>
<event>
 5    1  0.1431256E-002  0.1250007E+03  0.7818608E-02  0.1235068E+00
         -4   -1    0    0    0  501 -0.00000000000E+00  0.00000000000E+00  0.56402742645E+01  0.57814871598E+01  0.12700000000E+01 0. -1.
          4   -1    0    0  501    0  0.00000000000E+00 -0.00000000000E+00 -0.68386713701E+03  0.68386831625E+03  0.12700000000E+01 0. -1.
         25    2    1    2    0    0  0.00000000000E+00  0.00000000000E+00 -0.67822686274E+03  0.68964980341E+03  0.12500069602E+03 0.  0.
    9000005    1    3    3    0    0 -0.34055199523E+02  0.15250937889E+02 -0.61568513487E+03  0.61681563941E+03  0.10000000000E+01 0.  0.
    9000005    1    3    3    0    0  0.34055199523E+02 -0.15250937889E+02 -0.62541727872E+02  0.72834164005E+02  0.10000000000E+01 0.  0.
<mgrwt>
<rscale>  0 0.12500070E+03</rscale>
<asrwt>0</asrwt>
<pdfrwt beam="2">  1        4 0.17098430E+00 0.12500070E+03</pdfrwt>
<pdfrwt beam="1">  1       -4 0.14278699E-02 0.12500070E+03</pdfrwt>
<totfact> 0.63149298E+02</totfact>
</mgrwt>
</event>
<event>
 5    1  0.1431256E-002  0.1250006E+03  0.7818608E-02  0.1235068E+00
         -4   -1    0    0    0  501 -0.00000000000E+00  0.00000000000E+00  0.13610413037E+03  0.13611005548E+03  0.12700000000E+01 0.  1.
          4   -1    0    0  501    0  0.00000000000E+00 -0.00000000000E+00 -0.28680113092E+02  0.28708218109E+02  0.12700000000E+01 0.  1.
         25    2    1    2    0    0  0.00000000000E+00  0.00000000000E+00  0.10742401728E+03  0.16481827359E+03  0.12500057529E+03 0.  0.
    9000005    1    3    3    0    0  0.61975047687E+02  0.34138804031E+01  0.63286175345E+02  0.88649315311E+02  0.10000000000E+01 0.  0.
    9000005    1    3    3    0    0 -0.61975047687E+02 -0.34138804031E+01  0.44137841932E+02  0.76168958282E+02  0.10000000000E+01 0.  0.
<mgrwt>
<rscale>  0 0.12500058E+03</rscale>
<asrwt>0</asrwt>
<pdfrwt beam="2">  1        4 0.71742822E-02 0.12500058E+03</pdfrwt>
<pdfrwt beam="1">  1       -4 0.34030286E-01 0.12500058E+03</pdfrwt>
<totfact> 0.17833091E+03</totfact>
</mgrwt>
</event>
<event>
 5    1  0.1431256E-002  0.1250001E+03  0.7818608E-02  0.1235069E+00
         -4   -1    0    0    0  501 -0.00000000000E+00  0.00000000000E+00  0.55719837520E+02  0.55734308942E+02  0.12700000000E+01 0. -1.
          4   -1    0    0  501    0  0.00000000000E+00 -0.00000000000E+00 -0.70075990078E+02  0.70087497354E+02  0.12700000000E+01 0. -1.
         25    2    1    2    0    0  0.00000000000E+00  0.00000000000E+00 -0.14356152558E+02  0.12582180630E+03  0.12500011129E+03 0.  0.
    9000005    1    3    3    0    0  0.32902312130E+02  0.50244643239E+02  0.10203051541E+02  0.60927732425E+02  0.10000000000E+01 0.  0.
    9000005    1    3    3    0    0 -0.32902312130E+02 -0.50244643239E+02 -0.24559204099E+02  0.64894073872E+02  0.10000000000E+01 0.  0.
<mgrwt>
<rscale>  0 0.12500011E+03</rscale>
<asrwt>0</asrwt>
<pdfrwt beam="2">  1        4 0.17522245E-01 0.12500011E+03</pdfrwt>
<pdfrwt beam="1">  1       -4 0.13933207E-01 0.12500011E+03</pdfrwt>
<totfact> 0.19790501E+03</totfact>
</mgrwt>
</event>
<event>
 5    1  0.1431256E-002  0.1250083E+03  0.7818608E-02  0.1235056E+00
          4   -1    0    0  501    0  0.00000000000E+00  0.00000000000E+00  0.19795201035E+03  0.19795608428E+03  0.12700000000E+01 0.  1.
         -4   -1    0    0    0  501 -0.00000000000E+00 -0.00000000000E+00 -0.19711213071E+02  0.19752083959E+02  0.12700000000E+01 0.  1.
         25    2    1    2    0    0  0.00000000000E+00  0.00000000000E+00  0.17824079728E+03  0.21770816824E+03  0.12500825853E+03 0.  0.
    9000005    1    3    3    0    0 -0.37828787711E+02  0.29992972155E+02  0.20001020919E+02  0.52265059037E+02  0.10000000000E+01 0.  0.
    9000005    1    3    3    0    0  0.37828787711E+02 -0.29992972155E+02  0.15823977636E+03  0.16544310920E+03  0.10000000000E+01 0.  0.
<mgrwt>
<rscale>  0 0.12500826E+03</rscale>
<asrwt>0</asrwt>
<pdfrwt beam="1">  1        4 0.49493620E-01 0.12500826E+03</pdfrwt>
<pdfrwt beam="2">  1       -4 0.49334214E-02 0.12500826E+03</pdfrwt>
<totfact> 0.15633724E+03</totfact>
</mgrwt>
</event>
<event>
 5    1  0.1431256E-002  0.1249977E+03  0.7818608E-02  0.1235073E+00
          4   -1    0    0  501    0  0.00000000000E+00  0.00000000000E+00  0.82375729183E+02  0.82385518500E+02  0.12700000000E+01 0.  1.
         -4   -1    0    0    0  501 -0.00000000000E+00 -0.00000000000E+00 -0.47397022391E+02  0.47414034120E+02  0.12700000000E+01 0.  1.
         25    2    1    2    0    0  0.00000000000E+00  0.00000000000E+00  0.34978706792E+02  0.12979955262E+03  0.12499765570E+03 0.  0.
    9000005    1    3    3    0    0  0.41331082701E+02  0.15796844695E+02 -0.28334150334E+02  0.52551144371E+02  0.10000000000E+01 0.  0.
    9000005    1    3    3    0    0 -0.41331082701E+02 -0.15796844695E+02  0.63312857126E+02  0.77248408249E+02  0.10000000000E+01 0.  0.
<mgrwt>
<rscale>  0 0.12499766E+03</rscale>
<asrwt>0</asrwt>
<pdfrwt beam="1">  1        4 0.20597282E-01 0.12499766E+03</pdfrwt>
<pdfrwt beam="2">  1       -4 0.11852606E-01 0.12499766E+03</pdfrwt>
<totfact> 0.19576235E+03</totfact>
</mgrwt>
</event>
<event>
 5    1  0.1431256E-002  0.1249986E+03  0.7818608E-02  0.1235072E+00
          4   -1    0    0  501    0  0.00000000000E+00  0.00000000000E+00  0.15188180009E+02  0.15241184730E+02  0.12700000000E+01 0. -1.
         -4   -1    0    0    0  501 -0.00000000000E+00 -0.00000000000E+00 -0.25668165108E+03  0.25668479289E+03  0.12700000000E+01 0. -1.
         25    2    1    2    0    0  0.00000000000E+00  0.00000000000E+00 -0.24149347107E+03  0.27192597762E+03  0.12499856293E+03 0.  0.
    9000005    1    3    3    0    0  0.21298116273E+01  0.45146256770E+02 -0.21462969588E+03  0.21933906845E+03  0.10000000000E+01 0.  0.
    9000005    1    3    3    0    0 -0.21298116273E+01 -0.45146256770E+02 -0.26863775192E+02  0.52586909165E+02  0.10000000000E+01 0.  0.
<mgrwt>
<rscale>  0 0.12499856E+03</rscale>
<asrwt>0</asrwt>
<pdfrwt beam="1">  1        4 0.38040641E-02 0.12499856E+03</pdfrwt>
<pdfrwt beam="2">  1       -4 0.64177417E-01 0.12499856E+03</pdfrwt>
<totfact> 0.13796498E+03</totfact>
</mgrwt>
</event>
<event>
 5    1  0.1431256E-002  0.1249992E+03  0.7818608E-02  0.1235070E+00
         -4   -1    0    0    0  501 -0.00000000000E+00  0.00000000000E+00  0.50213632971E+01  0.51794777113E+01  0.12700000000E+01 0. -1.
          4   -1    0    0  501    0  0.00000000000E+00 -0.00000000000E+00 -0.76570035885E+03  0.76570141207E+03  0.12700000000E+01 0. -1.
         25    2    1    2    0    0  0.00000000000E+00  0.00000000000E+00 -0.76067899555E+03  0.77088088978E+03  0.12499924780E+03 0.  0.
    9000005    1    3    3    0    0 -0.38725005751E+02  0.20619494483E+02 -0.10589292977E+03  0.11462592289E+03  0.10000000000E+01 0.  0.
    9000005    1    3    3    0    0  0.38725005751E+02 -0.20619494483E+02 -0.65478606578E+03  0.65625496689E+03  0.10000000000E+01 0.  0.
<mgrwt>
<rscale>  0 0.12499925E+03</rscale>
<asrwt>0</asrwt>
<pdfrwt beam="2">  1        4 0.19144459E+00 0.12499925E+03</pdfrwt>
<pdfrwt beam="1">  1       -4 0.12752394E-02 0.12499925E+03</pdfrwt>
<totfact> 0.55112573E+02</totfact>
</mgrwt>
</event>
<event>
 5    1  0.1431256E-002  0.1249983E+03  0.7818608E-02  0.1235072E+00
         -4   -1    0    0    0  501 -0.00000000000E+00  0.00000000000E+00  0.77229734375E+01  0.78266990946E+01  0.12700000000E+01 0.  1.
          4   -1    0    0  501    0  0.00000000000E+00 -0.00000000000E+00 -0.50230435285E+03  0.50230595835E+03  0.12700000000E+01 0.  1.
         25    2    1    2    0    0  0.00000000000E+00  0.00000000000E+00 -0.49458137942E+03  0.51013265745E+03  0.12499834930E+03 0.  0.
    9000005    1    3    3    0    0 -0.19403586226E+02  0.56695724144E+02 -0.17494522087E+03  0.18492629505E+03  0.10000000000E+01 0.  0.
    9000005    1    3    3    0    0  0.19403586226E+02 -0.56695724144E+02 -0.31963615854E+03  0.32520636240E+03  0.10000000000E+01 0.  0.
<mgrwt>
<rscale>  0 0.12499835E+03</rscale>
<asrwt>0</asrwt>
<pdfrwt beam="2">  1        4 0.12558914E+00 0.12499835E+03</pdfrwt>
<pdfrwt beam="1">  1       -4 0.19439115E-02 0.12499835E+03</pdfrwt>
<totfact> 0.86020739E+02</totfact>
</mgrwt>
</event>
<event>
 5    1  0.1431256E-002  0.1250006E+03  0.7818608E-02  0.1235068E+00
         -4   -1    0    0    0  501 -0.00000000000E+00  0.00000000000E+00  0.27741389679E+02  0.27770444745E+02  0.12700000000E+01 0.  1.
          4   -1    0    0  501    0  0.00000000000E+00 -0.00000000000E+00 -0.14070519906E+03  0.14071093043E+03  0.12700000000E+01 0.  1.
         25    2    1    2    0    0  0.00000000000E+00  0.00000000000E+00 -0.11296380938E+03  0.16848137517E+03  0.12500060620E+03 0.  0.
    9000005    1    3    3    0    0  0.43729208437E+02  0.44475605120E+02 -0.51267859977E+02  0.80744761984E+02  0.10000000000E+01 0.  0.
    9000005    1    3    3    0    0 -0.43729208437E+02 -0.44475605120E+02 -0.61695949402E+02  0.87736613190E+02  0.10000000000E+01 0.  0.
<mgrwt>
<rscale>  0 0.12500061E+03</rscale>
<asrwt>0</asrwt>
<pdfrwt beam="2">  1        4 0.35180646E-01 0.12500061E+03</pdfrwt>
<pdfrwt beam="1">  1       -4 0.69396961E-02 0.12500061E+03</pdfrwt>
<totfact> 0.17665513E+03</totfact>
</mgrwt>
</event>
<event>
 5    1  0.1431256E-002  0.1250000E+03  0.7818608E-02  0.1235069E+00
          4   -1    0    0  501    0  0.00000000000E+00  0.00000000000E+00  0.25306895694E+02  0.25338742464E+02  0.12700000000E+01 0. -1.
         -4   -1    0    0    0  501 -0.00000000000E+00 -0.00000000000E+00 -0.15422374384E+03  0.15422897284E+03  0.12700000000E+01 0. -1.
         25    2    1    2    0    0  0.00000000000E+00  0.00000000000E+00 -0.12891684815E+03  0.17956771531E+03  0.12500004258E+03 0.  0.
    9000005    1    3    3    0    0 -0.49639399782E+02  0.49649281801E+01 -0.10391543639E+02  0.50967682915E+02  0.10000000000E+01 0.  0.
    9000005    1    3    3    0    0  0.49639399782E+02 -0.49649281801E+01 -0.11852530451E+03  0.12860003239E+03  0.10000000000E+01 0.  0.
<mgrwt>
<rscale>  0 0.12500004E+03</rscale>
<asrwt>0</asrwt>
<pdfrwt beam="1">  1        4 0.63313588E-02 0.12500004E+03</pdfrwt>
<pdfrwt beam="2">  1       -4 0.38560568E-01 0.12500004E+03</pdfrwt>
<totfact> 0.17173925E+03</totfact>
</mgrwt>
</event>
<event>
 5    1  0.1431256E-002  0.1249942E+03  0.7818608E-02  0.1235078E+00
         -4   -1    0    0    0  501 -0.00000000000E+00  0.00000000000E+00  0.79295817212E+02  0.79305986705E+02  0.12700000000E+01 0. -1.
          4   -1    0    0  501    0  0.00000000000E+00 -0.00000000000E+00 -0.49235663858E+02  0.49252040522E+02  0.12700000000E+01 0. -1.
         25    2    1    2    0    0  0.00000000000E+00  0.00000000000E+00  0.30060153354E+02  0.12855802723E+03  0.12499421405E+03 0.  0.
    9000005    1    3    3    0    0 -0.24553921275E+01 -0.47400863900E+02 -0.26773805592E+02  0.54504197222E+02  0.10000000000E+01 0.  0.
    9000005    1    3    3    0    0  0.24553921275E+01  0.47400863900E+02  0.56833958946E+02  0.74053830005E+02  0.10000000000E+01 0.  0.
<mgrwt>
<rscale>  0 0.12499421E+03</rscale>
<asrwt>0</asrwt>
<pdfrwt beam="2">  1        4 0.12312234E-01 0.12499421E+03</pdfrwt>
<pdfrwt beam="1">  1       -4 0.19827272E-01 0.12499421E+03</pdfrwt>
<totfact> 0.19644879E+03</totfact>
</mgrwt>
</event>
<event>
 5    1  0.1431256E-002  0.1249998E+03  0.7818608E-02  0.1235070E+00
         -4   -1    0    0    0  501 -0.00000000000E+00  0.00000000000E+00  0.47586378661E+03  0.47586548132E+03  0.12700000000E+01 0.  1.
          4   -1    0    0  501    0  0.00000000000E+00 -0.00000000000E+00 -0.81578909603E+01  0.82561543663E+01  0.12700000000E+01 0.  1.
         25    2    1    2    0    0  0.00000000000E+00  0.00000000000E+00  0.46770589565E+03  0.48412163569E+03  0.12499981324E+03 0.  0.
    9000005    1    3    3    0    0 -0.46784277583E+02 -0.10795046508E+02  0.38876903670E+03  0.39172396602E+03  0.10000000000E+01 0.  0.
    9000005    1    3    3    0    0  0.46784277583E+02  0.10795046508E+02  0.78936858956E+02  0.92397669667E+02  0.10000000000E+01 0.  0.
<mgrwt>
<rscale>  0 0.12499981E+03</rscale>
<asrwt>0</asrwt>
<pdfrwt beam="2">  1        4 0.20519676E-02 0.12499981E+03</pdfrwt>
<pdfrwt beam="1">  1       -4 0.11897844E+00 0.12499981E+03</pdfrwt>
<totfact> 0.90187210E+02</totfact>
</mgrwt>
</event>
<event>
 5    1  0.1431256E-002  0.1249999E+03  0.7818608E-02  0.1235069E+00
          4   -1    0    0  501    0  0.00000000000E+00  0.00000000000E+00  0.13221712780E+03  0.13222322709E+03  0.12700000000E+01 0.  1.
         -4   -1    0    0    0  501 -0.00000000000E+00 -0.00000000000E+00 -0.29523741254E+02  0.29551043935E+02  0.12700000000E+01 0.  1.
         25    2    1    2    0    0  0.00000000000E+00  0.00000000000E+00  0.10269338654E+03  0.16177427103E+03  0.12499993251E+03 0.  0.
    9000005    1    3    3    0    0 -0.37472167450E+02 -0.14987423875E+02  0.11309565281E+03  0.12008502360E+03  0.10000000000E+01 0.  0.
    9000005    1    3    3    0    0  0.37472167450E+02  0.14987423875E+02 -0.10402266267E+02  0.41689247430E+02  0.10000000000E+01 0.  0.
<mgrwt>
<rscale>  0 0.12499993E+03</rscale>
<asrwt>0</asrwt>
<pdfrwt beam="1">  1        4 0.33058457E-01 0.12499993E+03</pdfrwt>
<pdfrwt beam="2">  1       -4 0.73851107E-02 0.12499993E+03</pdfrwt>
<totfact> 0.17974601E+03</totfact>
</mgrwt>
</event>
<event>
 5    1  0.1431256E-002  0.1250033E+03  0.7818608E-02  0.1235064E+00
          4   -1    0    0  501    0  0.00000000000E+00  0.00000000000E+00  0.45857770136E+02  0.45875352662E+02  0.12700000000E+01 0.  1.
         -4   -1    0    0    0  501 -0.00000000000E+00 -0.00000000000E+00 -0.85147670785E+02  0.85157141451E+02  0.12700000000E+01 0.  1.
         25    2    1    2    0    0  0.00000000000E+00  0.00000000000E+00 -0.39289900649E+02  0.13103249411E+03  0.12500327284E+03 0.  0.
    9000005    1    3    3    0    0 -0.49297325588E+02  0.35558073660E+02 -0.34866053087E+02  0.70080272334E+02  0.10000000000E+01 0.  0.
    9000005    1    3    3    0    0  0.49297325588E+02 -0.35558073660E+02 -0.44238475617E+01  0.60952221779E+02  0.10000000000E+01 0.  0.
<mgrwt>
<rscale>  0 0.12500327E+03</rscale>
<asrwt>0</asrwt>
<pdfrwt beam="1">  1        4 0.11467824E-01 0.12500327E+03</pdfrwt>
<pdfrwt beam="2">  1       -4 0.21290299E-01 0.12500327E+03</pdfrwt>
<totfact> 0.19507546E+03</totfact>
</mgrwt>
</event>
<event>
 5    1  0.1431256E-002  0.1250018E+03  0.7818608E-02  0.1235067E+00
          4   -1    0    0  501    0  0.00000000000E+00  0.00000000000E+00  0.42350224744E+01  0.44213476858E+01  0.12700000000E+01 0. -1.
         -4   -1    0    0    0  501 -0.00000000000E+00 -0.00000000000E+00 -0.90235343444E+03  0.90235432816E+03  0.12700000000E+01 0. -1.
         25    2    1    2    0    0  0.00000000000E+00  0.00000000000E+00 -0.89811841197E+03  0.90677567585E+03  0.12500177755E+03 0.  0.
    9000005    1    3    3    0    0 -0.52968013359E+02  0.28452621284E+02 -0.57263449335E+03  0.57578331434E+03  0.10000000000E+01 0.  0.
    9000005    1    3    3    0    0  0.52968013359E+02 -0.28452621284E+02 -0.32548391862E+03  0.33099236151E+03  0.10000000000E+01 0.  0.
<mgrwt>
<rscale>  0 0.12500178E+03</rscale>
<asrwt>0</asrwt>
<pdfrwt beam="1">  1        4 0.10821611E-02 0.12500178E+03</pdfrwt>
<pdfrwt beam="2">  1       -4 0.22561112E+00 0.12500178E+03</pdfrwt>
<totfact> 0.43758424E+02</totfact>
</mgrwt>
</event>
<event>
 5    1  0.1431256E-002  0.1249984E+03  0.7818608E-02  0.1235072E+00
         -4   -1    0    0    0  501 -0.00000000000E+00  0.00000000000E+00  0.27351141900E+02  0.27380611082E+02  0.12700000000E+01 0.  1.
          4   -1    0    0  501    0  0.00000000000E+00 -0.00000000000E+00 -0.14270574741E+03  0.14271139844E+03  0.12700000000E+01 0.  1.
         25    2    1    2    0    0  0.00000000000E+00  0.00000000000E+00 -0.11535460551E+03  0.17009200952E+03  0.12499842675E+03 0.  0.
    9000005    1    3    3    0    0  0.13698524473E+02  0.38759482653E+02 -0.12172245875E+03  0.12848075355E+03  0.10000000000E+01 0.  0.
    9000005    1    3    3    0    0 -0.13698524473E+02 -0.38759482653E+02  0.63678532427E+01  0.41611255968E+02  0.10000000000E+01 0.  0.
<mgrwt>
<rscale>  0 0.12499843E+03</rscale>
<asrwt>0</asrwt>
<pdfrwt beam="2">  1        4 0.35680825E-01 0.12499843E+03</pdfrwt>
<pdfrwt beam="1">  1       -4 0.68421759E-02 0.12499843E+03</pdfrwt>
<totfact> 0.17593541E+03</totfact>
</mgrwt>
</event>
<event>
 5    1  0.1431256E-002  0.1250030E+03  0.7818608E-02  0.1235065E+00
         -4   -1    0    0    0  501 -0.00000000000E+00  0.00000000000E+00  0.53007345562E+02  0.53022557308E+02  0.12700000000E+01 0.  1.
          4   -1    0    0  501    0  0.00000000000E+00 -0.00000000000E+00 -0.73664921384E+02  0.73675868116E+02  0.12700000000E+01 0.  1.
         25    2    1    2    0    0  0.00000000000E+00  0.00000000000E+00 -0.20657575823E+02  0.12669842542E+03  0.12500302223E+03 0.  0.
    9000005    1    3    3    0    0  0.53689493169E+01  0.62240141098E+02 -0.12018160679E+02  0.63624656909E+02  0.10000000000E+01 0.  0.
    9000005    1    3    3    0    0 -0.53689493169E+01 -0.62240141098E+02 -0.86394151435E+01  0.63073768515E+02  0.10000000000E+01 0.  0.
<mgrwt>
<rscale>  0 0.12500302E+03</rscale>
<asrwt>0</asrwt>
<pdfrwt beam="2">  1        4 0.18419500E-01 0.12500302E+03</pdfrwt>
<pdfrwt beam="1">  1       -4 0.13255106E-01 0.12500302E+03</pdfrwt>
<totfact> 0.19741830E+03</totfact>
</mgrwt>
</event>
<event>
 5    1  0.1431256E-002  0.1250091E+03  0.7818608E-02  0.1235055E+00
         -4   -1    0    0    0  501 -0.00000000000E+00  0.00000000000E+00  0.49651720222E+02  0.49667959703E+02  0.12700000000E+01 0.  1.
          4   -1    0    0  501    0  0.00000000000E+00 -0.00000000000E+00 -0.78650198256E+02  0.78660451217E+02  0.12700000000E+01 0.  1.
         25    2    1    2    0    0  0.00000000000E+00  0.00000000000E+00 -0.28998478033E+02  0.12832841092E+03  0.12500907695E+03 0.  0.
    9000005    1    3    3    0    0  0.42173901297E+02  0.93297531155E+01 -0.60866424047E+02  0.74641836928E+02  0.10000000000E+01 0.  0.
    9000005    1    3    3    0    0 -0.42173901297E+02 -0.93297531155E+01  0.31867946014E+02  0.53686573991E+02  0.10000000000E+01 0.  0.
<mgrwt>
<rscale>  0 0.12500908E+03</rscale>
<asrwt>0</asrwt>
<pdfrwt beam="2">  1        4 0.19665861E-01 0.12500908E+03</pdfrwt>
<pdfrwt beam="1">  1       -4 0.12416242E-01 0.12500908E+03</pdfrwt>
<totfact> 0.19650520E+03</totfact>
</mgrwt>
</event>
<event>
 5    1  0.1431256E-002  0.1250015E+03  0.7818608E-02  0.1235067E+00
          4   -1    0    0  501    0  0.00000000000E+00  0.00000000000E+00  0.10358599794E+03  0.10359378297E+03  0.12700000000E+01 0.  1.
         -4   -1    0    0    0  501 -0.00000000000E+00 -0.00000000000E+00 -0.37691197523E+02  0.37712587696E+02  0.12700000000E+01 0.  1.
         25    2    1    2    0    0  0.00000000000E+00  0.00000000000E+00  0.65894800421E+02  0.14130637067E+03  0.12500146266E+03 0.  0.
    9000005    1    3    3    0    0  0.35796829762E+02 -0.24056700945E+02  0.84070233470E+02  0.94493079308E+02  0.10000000000E+01 0.  0.
    9000005    1    3    3    0    0 -0.35796829762E+02  0.24056700945E+02 -0.18175433048E+02  0.46813291359E+02  0.10000000000E+01 0.  0.
<mgrwt>
<rscale>  0 0.12500146E+03</rscale>
<asrwt>0</asrwt>
<pdfrwt beam="1">  1        4 0.25900146E-01 0.12500146E+03</pdfrwt>
<pdfrwt beam="2">  1       -4 0.94264464E-02 0.12500146E+03</pdfrwt>
<totfact> 0.18973062E+03</totfact>
</mgrwt>
</event>
<event>
 5    1  0.1431256E-002  0.1249919E+03  0.7818608E-02  0.1235082E+00
          4   -1    0    0  501    0  0.00000000000E+00  0.00000000000E+00  0.10394127699E+02  0.10471427344E+02  0.12700000000E+01 0. -1.
         -4   -1    0    0    0  501 -0.00000000000E+00 -0.00000000000E+00 -0.37429397497E+03  0.37429612955E+03  0.12700000000E+01 0. -1.
         25    2    1    2    0    0  0.00000000000E+00  0.00000000000E+00 -0.36389984727E+03  0.38476755689E+03  0.12499189573E+03 0.  0.
    9000005    1    3    3    0    0 -0.42432046813E+02  0.27804006901E+02 -0.69634709801E+02  0.86159933876E+02  0.10000000000E+01 0.  0.
    9000005    1    3    3    0    0  0.42432046813E+02 -0.27804006901E+02 -0.29426513747E+03  0.29860762302E+03  0.10000000000E+01 0.  0.
<mgrwt>
<rscale>  0 0.12499190E+03</rscale>
<asrwt>0</asrwt>
<pdfrwt beam="1">  1        4 0.26084650E-02 0.12499190E+03</pdfrwt>
<pdfrwt beam="2">  1       -4 0.93583381E-01 0.12499190E+03</pdfrwt>
<totfact> 0.10891854E+03</totfact>
</mgrwt>
</event>
<event>
 5    1  0.1431256E-002  0.1250043E+03  0.7818608E-02  0.1235063E+00
          4   -1    0    0  501    0  0.00000000000E+00  0.00000000000E+00  0.64911190573E+03  0.64911314812E+03  0.12700000000E+01 0. -1.
         -4   -1    0    0    0  501 -0.00000000000E+00 -0.00000000000E+00 -0.59499865560E+01  0.60840151230E+01  0.12700000000E+01 0. -1.
         25    2    1    2    0    0  0.00000000000E+00  0.00000000000E+00  0.64316191918E+03  0.65519716324E+03  0.12500427370E+03 0.  0.
    9000005    1    3    3    0    0 -0.15348224891E+01 -0.24070784073E+02  0.19403617822E+02  0.30971901952E+02  0.10000000000E+01 0.  0.
    9000005    1    3    3    0    0  0.15348224891E+01  0.24070784073E+02  0.62375830135E+03  0.62422526129E+03  0.10000000000E+01 0.  0.
<mgrwt>
<rscale>  0 0.12500427E+03</rscale>
<asrwt>0</asrwt>
<pdfrwt beam="1">  1        4 0.16229484E+00 0.12500427E+03</pdfrwt>
<pdfrwt beam="2">  1       -4 0.15044059E-02 0.12500427E+03</pdfrwt>
<totfact> 0.66912919E+02</totfact>
</mgrwt>
</event>
<event>
 5    1  0.1431256E-002  0.1249976E+03  0.7818608E-02  0.1235073E+00
          4   -1    0    0  501    0  0.00000000000E+00  0.00000000000E+00  0.50515269258E+02  0.50531231216E+02  0.12700000000E+01 0.  1.
         -4   -1    0    0    0  501 -0.00000000000E+00 -0.00000000000E+00 -0.77291768791E+02  0.77302201927E+02  0.12700000000E+01 0.  1.
         25    2    1    2    0    0  0.00000000000E+00  0.00000000000E+00 -0.26776499533E+02  0.12783343314E+03  0.12499762279E+03 0.  0.
    9000005    1    3    3    0    0  0.52496572266E+02 -0.33028753820E+02 -0.21197771698E+02  0.65552530108E+02  0.10000000000E+01 0.  0.
    9000005    1    3    3    0    0 -0.52496572266E+02  0.33028753820E+02 -0.55787278347E+01  0.62280903035E+02  0.10000000000E+01 0.  0.
<mgrwt>
<rscale>  0 0.12499762E+03</rscale>
<asrwt>0</asrwt>
<pdfrwt beam="1">  1        4 0.12632117E-01 0.12499762E+03</pdfrwt>
<pdfrwt beam="2">  1       -4 0.19326241E-01 0.12499762E+03</pdfrwt>
<totfact> 0.19682694E+03</totfact>
</mgrwt>
</event>
<event>
 5    1  0.1431256E-002  0.1249966E+03  0.7818608E-02  0.1235075E+00
         -4   -1    0    0    0  501 -0.00000000000E+00  0.00000000000E+00  0.15235037048E+03  0.15235566377E+03  0.12700000000E+01 0.  1.
          4   -1    0    0  501    0  0.00000000000E+00 -0.00000000000E+00 -0.25617048598E+02  0.25648510266E+02  0.12700000000E+01 0.  1.
         25    2    1    2    0    0  0.00000000000E+00  0.00000000000E+00  0.12673332188E+03  0.17800417404E+03  0.12499660436E+03 0.  0.
    9000005    1    3    3    0    0 -0.15498458809E+02 -0.17599844271E+02  0.14585327519E+03  0.14772993815E+03  0.10000000000E+01 0.  0.
    9000005    1    3    3    0    0  0.15498458809E+02  0.17599844271E+02 -0.19119953312E+02  0.30274235886E+02  0.10000000000E+01 0.  0.
<mgrwt>
<rscale>  0 0.12499660E+03</rscale>
<asrwt>0</asrwt>
<pdfrwt beam="2">  1        4 0.64088566E-02 0.12499660E+03</pdfrwt>
<pdfrwt beam="1">  1       -4 0.38092187E-01 0.12499660E+03</pdfrwt>
<totfact> 0.17243310E+03</totfact>
</mgrwt>
</event>
<event>
 5    1  0.1431256E-002  0.1250011E+03  0.7818608E-02  0.1235068E+00
         -4   -1    0    0    0  501 -0.00000000000E+00  0.00000000000E+00  0.74850224940E+03  0.74850332682E+03  0.12700000000E+01 0. -1.
          4   -1    0    0  501    0  0.00000000000E+00 -0.00000000000E+00 -0.51404865764E+01  0.52950450652E+01  0.12700000000E+01 0. -1.
         25    2    1    2    0    0  0.00000000000E+00  0.00000000000E+00  0.74336176282E+03  0.75379837188E+03  0.12500110009E+03 0.  0.
    9000005    1    3    3    0    0 -0.13170706902E+02 -0.12375615798E+02  0.10933052829E+02  0.21146040547E+02  0.10000000000E+01 0.  0.
    9000005    1    3    3    0    0  0.13170706902E+02  0.12375615798E+02  0.73242870999E+03  0.73265233133E+03  0.10000000000E+01 0.  0.
<mgrwt>
<rscale>  0 0.12500110E+03</rscale>
<asrwt>0</asrwt>
<pdfrwt beam="2">  1        4 0.13045764E-02 0.12500110E+03</pdfrwt>
<pdfrwt beam="1">  1       -4 0.18714498E+00 0.12500110E+03</pdfrwt>
<totfact> 0.56707305E+02</totfact>
</mgrwt>
</event>
<event>
 5    1  0.1431256E-002  0.1250107E+03  0.7818608E-02  0.1235053E+00
         -4   -1    0    0    0  501 -0.00000000000E+00  0.00000000000E+00  0.62017606988E+02  0.62030609190E+02  0.12700000000E+01 0. -1.
          4   -1    0    0  501    0  0.00000000000E+00 -0.00000000000E+00 -0.62970895371E+02  0.62983700779E+02  0.12700000000E+01 0. -1.
         25    2    1    2    0    0  0.00000000000E+00  0.00000000000E+00 -0.95328838376E+00  0.12501430997E+03  0.12501067530E+03 0.  0.
    9000005    1    3    3    0    0  0.41553457858E+02  0.42506940467E+02 -0.19774546704E+02  0.62654309869E+02  0.10000000000E+01 0.  0.
    9000005    1    3    3    0    0 -0.41553457858E+02 -0.42506940467E+02  0.18821258320E+02  0.62360000101E+02  0.10000000000E+01 0.  0.
<mgrwt>
<rscale>  0 0.12501068E+03</rscale>
<asrwt>0</asrwt>
<pdfrwt beam="2">  1        4 0.15745950E-01 0.12501068E+03</pdfrwt>
<pdfrwt beam="1">  1       -4 0.15507628E-01 0.12501068E+03</pdfrwt>
<totfact> 0.19829326E+03</totfact>
</mgrwt>
</event>
<event>
 5    1  0.1431256E-002  0.1249734E+03  0.7818608E-02  0.1235111E+00
         -4   -1    0    0    0  501 -0.00000000000E+00  0.00000000000E+00  0.60109948877E+02  0.60123363628E+02  0.12700000000E+01 0.  1.
          4   -1    0    0  501    0  0.00000000000E+00 -0.00000000000E+00 -0.64930546288E+02  0.64942965294E+02  0.12700000000E+01 0.  1.
         25    2    1    2    0    0  0.00000000000E+00  0.00000000000E+00 -0.48205974107E+01  0.12506632892E+03  0.12497339105E+03 0.  0.
    9000005    1    3    3    0    0 -0.54728530517E+02  0.20259233644E+02  0.19920831760E+02  0.61672426079E+02  0.10000000000E+01 0.  0.
    9000005    1    3    3    0    0  0.54728530517E+02 -0.20259233644E+02 -0.24741429170E+02  0.63393902844E+02  0.10000000000E+01 0.  0.
<mgrwt>
<rscale>  0 0.12497339E+03</rscale>
<asrwt>0</asrwt>
<pdfrwt beam="2">  1        4 0.16235866E-01 0.12497339E+03</pdfrwt>
<pdfrwt beam="1">  1       -4 0.15030716E-01 0.12497339E+03</pdfrwt>
<totfact> 0.19843811E+03</totfact>
</mgrwt>
</event>
<event>
 5    1  0.1431256E-002  0.1249967E+03  0.7818608E-02  0.1235074E+00
          4   -1    0    0  501    0  0.00000000000E+00  0.00000000000E+00  0.40836629487E+03  0.40836826969E+03  0.12700000000E+01 0. -1.
         -4   -1    0    0    0  501 -0.00000000000E+00 -0.00000000000E+00 -0.95208815292E+01  0.96052113508E+01  0.12700000000E+01 0. -1.
         25    2    1    2    0    0  0.00000000000E+00  0.00000000000E+00  0.39884541334E+03  0.41797348104E+03  0.12499666838E+03 0.  0.
    9000005    1    3    3    0    0 -0.59386948723E+02 -0.95730030207E+01  0.25603106860E+03  0.26300448695E+03  0.10000000000E+01 0.  0.
    9000005    1    3    3    0    0  0.59386948723E+02  0.95730030207E+01  0.14281434474E+03  0.15496899409E+03  0.10000000000E+01 0.  0.
<mgrwt>
<rscale>  0 0.12499667E+03</rscale>
<asrwt>0</asrwt>
<pdfrwt beam="1">  1        4 0.10210235E+00 0.12499667E+03</pdfrwt>
<pdfrwt beam="2">  1       -4 0.23910087E-02 0.12499667E+03</pdfrwt>
<totfact> 0.10206928E+03</totfact>
</mgrwt>
</event>
<event>
 5    1  0.1431256E-002  0.1249942E+03  0.7818608E-02  0.1235078E+00
          4   -1    0    0  501    0  0.00000000000E+00  0.00000000000E+00  0.14900777212E+03  0.14901318416E+03  0.12700000000E+01 0. -1.
         -4   -1    0    0    0  501 -0.00000000000E+00 -0.00000000000E+00 -0.26191389050E+02  0.26222161627E+02  0.12700000000E+01 0. -1.
         25    2    1    2    0    0  0.00000000000E+00  0.00000000000E+00  0.12281638307E+03  0.17523534578E+03  0.12499424971E+03 0.  0.
    9000005    1    3    3    0    0  0.22330504972E+02 -0.32768945197E+02  0.12911564617E+03  0.13507148221E+03  0.10000000000E+01 0.  0.
    9000005    1    3    3    0    0 -0.22330504972E+02  0.32768945197E+02 -0.62992630949E+01  0.40163863573E+02  0.10000000000E+01 0.  0.
<mgrwt>
<rscale>  0 0.12499425E+03</rscale>
<asrwt>0</asrwt>
<pdfrwt beam="1">  1        4 0.37256465E-01 0.12499425E+03</pdfrwt>
<pdfrwt beam="2">  1       -4 0.65523705E-02 0.12499425E+03</pdfrwt>
<totfact> 0.17365780E+03</totfact>
</mgrwt>
</event>
<event>
 5    1  0.1431256E-002  0.1249980E+03  0.7818608E-02  0.1235072E+00
         -4   -1    0    0    0  501 -0.00000000000E+00  0.00000000000E+00  0.38958723175E+02  0.38979417793E+02  0.12700000000E+01 0.  1.
          4   -1    0    0  501    0  0.00000000000E+00 -0.00000000000E+00 -0.10021184710E+03  0.10021989423E+03  0.12700000000E+01 0.  1.
         25    2    1    2    0    0  0.00000000000E+00  0.00000000000E+00 -0.61253123923E+02  0.13919931202E+03  0.12499801309E+03 0.  0.
    9000005    1    3    3    0    0  0.21901409845E+02 -0.52624756138E+02 -0.21022358591E+01  0.57047840514E+02  0.10000000000E+01 0.  0.
    9000005    1    3    3    0    0 -0.21901409845E+02  0.52624756138E+02 -0.59150888064E+02  0.82151471505E+02  0.10000000000E+01 0.  0.
<mgrwt>
<rscale>  0 0.12499801E+03</rscale>
<asrwt>0</asrwt>
<pdfrwt beam="2">  1        4 0.25056554E-01 0.12499801E+03</pdfrwt>
<pdfrwt beam="1">  1       -4 0.97432737E-02 0.12499801E+03</pdfrwt>
<totfact> 0.19082263E+03</totfact>
</mgrwt>
</event>
<event>
 5    1  0.1431256E-002  0.1250050E+03  0.7818608E-02  0.1235061E+00
         -4   -1    0    0    0  501 -0.00000000000E+00  0.00000000000E+00  0.11208087461E+04  0.11208094657E+04  0.12700000000E+01 0.  1.
          4   -1    0    0  501    0  0.00000000000E+00 -0.00000000000E+00 -0.33690552323E+01  0.36004767960E+01  0.12700000000E+01 0.  1.
         25    2    1    2    0    0  0.00000000000E+00  0.00000000000E+00  0.11174396909E+04  0.11244099425E+04  0.12500502345E+03 0.  0.
    9000005    1    3    3    0    0  0.16754712185E+02  0.21633524904E+01  0.10999242267E+04  0.11000544100E+04  0.10000000000E+01 0.  0.
    9000005    1    3    3    0    0 -0.16754712185E+02 -0.21633524904E+01  0.17515464154E+02  0.24355532409E+02  0.10000000000E+01 0.  0.
<mgrwt>
<rscale>  0 0.12500502E+03</rscale>
<asrwt>0</asrwt>
<pdfrwt beam="2">  1        4 0.87128204E-03 0.12500502E+03</pdfrwt>
<pdfrwt beam="1">  1       -4 0.28023101E+00 0.12500502E+03</pdfrwt>
<totfact> 0.29351675E+02</totfact>
</mgrwt>
</event>
<event>
 5    1  0.1431256E-002  0.1250014E+03  0.7818608E-02  0.1235067E+00
         -4   -1    0    0    0  501 -0.00000000000E+00  0.00000000000E+00  0.10759664895E+02  0.10834356863E+02  0.12700000000E+01 0. -1.
          4   -1    0    0  501    0  0.00000000000E+00 -0.00000000000E+00 -0.36172222070E+03  0.36172445016E+03  0.12700000000E+01 0. -1.
         25    2    1    2    0    0  0.00000000000E+00  0.00000000000E+00 -0.35096255580E+03  0.37255880703E+03  0.12500139646E+03 0.  0.
    9000005    1    3    3    0    0 -0.49268661632E+01  0.43284349590E+02 -0.41941449762E+02  0.60480526930E+02  0.10000000000E+01 0.  0.
    9000005    1    3    3    0    0  0.49268661632E+01 -0.43284349590E+02 -0.30902110604E+03  0.31207828010E+03  0.10000000000E+01 0.  0.
<mgrwt>
<rscale>  0 0.12500140E+03</rscale>
<asrwt>0</asrwt>
<pdfrwt beam="2">  1        4 0.90440130E-01 0.12500140E+03</pdfrwt>
<pdfrwt beam="1">  1       -4 0.26995326E-02 0.12500140E+03</pdfrwt>
<totfact> 0.11156827E+03</totfact>
</mgrwt>
</event>
<event>
 5    1  0.1431256E-002  0.1249988E+03  0.7818608E-02  0.1235071E+00
          4   -1    0    0  501    0  0.00000000000E+00  0.00000000000E+00  0.31148324127E+02  0.31174204015E+02  0.12700000000E+01 0. -1.
         -4   -1    0    0    0  501 -0.00000000000E+00 -0.00000000000E+00 -0.12532446315E+03  0.12533089788E+03  0.12700000000E+01 0. -1.
         25    2    1    2    0    0  0.00000000000E+00  0.00000000000E+00 -0.94176139024E+02  0.15650510190E+03  0.12499880703E+03 0.  0.
    9000005    1    3    3    0    0  0.49119598141E+02  0.29660531241E+02 -0.78079686357E+02  0.96901596770E+02  0.10000000000E+01 0.  0.
    9000005    1    3    3    0    0 -0.49119598141E+02 -0.29660531241E+02 -0.16096452667E+02  0.59603505127E+02  0.10000000000E+01 0.  0.
<mgrwt>
<rscale>  0 0.12499881E+03</rscale>
<asrwt>0</asrwt>
<pdfrwt beam="1">  1        4 0.77911207E-02 0.12499881E+03</pdfrwt>
<pdfrwt beam="2">  1       -4 0.31335154E-01 0.12499881E+03</pdfrwt>
<totfact> 0.18223986E+03</totfact>
</mgrwt>
</event>
<event>
 5    1  0.1431256E-002  0.1250008E+03  0.7818608E-02  0.1235068E+00
         -4   -1    0    0    0  501 -0.00000000000E+00  0.00000000000E+00  0.21615647224E+02  0.21652923704E+02  0.12700000000E+01 0. -1.
          4   -1    0    0  501    0  0.00000000000E+00 -0.00000000000E+00 -0.18052105867E+03  0.18052552596E+03  0.12700000000E+01 0. -1.
         25    2    1    2    0    0  0.00000000000E+00  0.00000000000E+00 -0.15890541144E+03  0.20217844966E+03  0.12500078288E+03 0.  0.
    9000005    1    3    3    0    0 -0.58018541826E+02 -0.21272634128E+02 -0.94506229325E+02  0.11292078436E+03  0.10000000000E+01 0.  0.
    9000005    1    3    3    0    0  0.58018541826E+02  0.21272634128E+02 -0.64399182117E+02  0.89257665305E+02  0.10000000000E+01 0.  0.
<mgrwt>
<rscale>  0 0.12500078E+03</rscale>
<asrwt>0</asrwt>
<pdfrwt beam="2">  1        4 0.45135478E-01 0.12500078E+03</pdfrwt>
<pdfrwt beam="1">  1       -4 0.54091303E-02 0.12500078E+03</pdfrwt>
<totfact> 0.16234890E+03</totfact>
</mgrwt>
</event>
<event>
 5    1  0.1431256E-002  0.1249996E+03  0.7818608E-02  0.1235070E+00
          4   -1    0    0  501    0  0.00000000000E+00  0.00000000000E+00  0.68453137403E+02  0.68464917441E+02  0.12700000000E+01 0.  1.
         -4   -1    0    0    0  501 -0.00000000000E+00 -0.00000000000E+00 -0.57040453653E+02  0.57054590113E+02  0.12700000000E+01 0.  1.
         25    2    1    2    0    0  0.00000000000E+00  0.00000000000E+00  0.11412683749E+02  0.12551950755E+03  0.12499958970E+03 0.  0.
    9000005    1    3    3    0    0 -0.55619183756E+02 -0.10074849891E+02 -0.21054611505E+02  0.60326551929E+02  0.10000000000E+01 0.  0.
    9000005    1    3    3    0    0  0.55619183756E+02  0.10074849891E+02  0.32467295255E+02  0.65192955625E+02  0.10000000000E+01 0.  0.
<mgrwt>
<rscale>  0 0.12499959E+03</rscale>
<asrwt>0</asrwt>
<pdfrwt beam="1">  1        4 0.17116524E-01 0.12499959E+03</pdfrwt>
<pdfrwt beam="2">  1       -4 0.14263353E-01 0.12499959E+03</pdfrwt>
<totfact> 0.19807098E+03</totfact>
</mgrwt>
</event>
<event>
 5    1  0.1431256E-002  0.1250201E+03  0.7818608E-02  0.1235038E+00
         -4   -1    0    0    0  501 -0.00000000000E+00  0.00000000000E+00  0.78085296153E+01  0.79111335947E+01  0.12700000000E+01 0. -1.
          4   -1    0    0  501    0  0.00000000000E+00 -0.00000000000E+00 -0.49704581497E+03  0.49704743745E+03  0.12700000000E+01 0. -1.
         25    2    1    2    0    0  0.00000000000E+00  0.00000000000E+00 -0.48923728535E+03  0.50495857104E+03  0.12502014675E+03 0.  0.
    9000005    1    3    3    0    0 -0.47867938019E+02 -0.19532830826E+02 -0.38648181476E+03  0.38992571614E+03  0.10000000000E+01 0.  0.
    9000005    1    3    3    0    0  0.47867938019E+02  0.19532830826E+02 -0.10275547059E+03  0.11503285490E+03  0.10000000000E+01 0.  0.
<mgrwt>
<rscale>  0 0.12502015E+03</rscale>
<asrwt>0</asrwt>
<pdfrwt beam="2">  1        4 0.12427438E+00 0.12502015E+03</pdfrwt>
<pdfrwt beam="1">  1       -4 0.19651624E-02 0.12502015E+03</pdfrwt>
<totfact> 0.86784044E+02</totfact>
</mgrwt>
</event>
<event>
 5    1  0.1431256E-002  0.1250019E+03  0.7818608E-02  0.1235066E+00
         -4   -1    0    0    0  501 -0.00000000000E+00  0.00000000000E+00  0.56410955340E+02  0.56425249511E+02  0.12700000000E+01 0. -1.
          4   -1    0    0  501    0  0.00000000000E+00 -0.00000000000E+00 -0.69219508698E+02  0.69231158335E+02  0.12700000000E+01 0. -1.
         25    2    1    2    0    0  0.00000000000E+00  0.00000000000E+00 -0.12808553358E+02  0.12565640785E+03  0.12500189516E+03 0.  0.
    9000005    1    3    3    0    0  0.10633650980E+02  0.51702244765E+02 -0.40033467885E+02  0.66256133285E+02  0.10000000000E+01 0.  0.
    9000005    1    3    3    0    0 -0.10633650980E+02 -0.51702244765E+02  0.27224914527E+02  0.59400274561E+02  0.10000000000E+01 0.  0.
<mgrwt>
<rscale>  0 0.12500190E+03</rscale>
<asrwt>0</asrwt>
<pdfrwt beam="2">  1        4 0.17308120E-01 0.12500190E+03</pdfrwt>
<pdfrwt beam="1">  1       -4 0.14105982E-01 0.12500190E+03</pdfrwt>
<totfact> 0.19798621E+03</totfact>
</mgrwt>
</event>
<event>
 5    1  0.1431256E-002  0.1249978E+03  0.7818608E-02  0.1235073E+00
          4   -1    0    0  501    0  0.00000000000E+00  0.00000000000E+00  0.33749665189E+02  0.33773551788E+02  0.12700000000E+01 0.  1.
         -4   -1    0    0    0  501 -0.00000000000E+00 -0.00000000000E+00 -0.11566956643E+03  0.11567653823E+03  0.12700000000E+01 0.  1.
         25    2    1    2    0    0  0.00000000000E+00  0.00000000000E+00 -0.81919901241E+02  0.14945009002E+03  0.12499783673E+03 0.  0.
    9000005    1    3    3    0    0  0.56014744717E+02  0.50028792404E+01 -0.73537823067E+02  0.92582351709E+02  0.10000000000E+01 0.  0.
    9000005    1    3    3    0    0 -0.56014744717E+02 -0.50028792404E+01 -0.83820781733E+01  0.56867738314E+02  0.10000000000E+01 0.  0.
<mgrwt>
<rscale>  0 0.12499784E+03</rscale>
<asrwt>0</asrwt>
<pdfrwt beam="1">  1        4 0.84412739E-02 0.12499784E+03</pdfrwt>
<pdfrwt beam="2">  1       -4 0.28921248E-01 0.12499784E+03</pdfrwt>
<totfact> 0.18566788E+03</totfact>
</mgrwt>
</event>
<event>
 5    1  0.1431256E-002  0.1250039E+03  0.7818608E-02  0.1235063E+00
          4   -1    0    0  501    0  0.00000000000E+00  0.00000000000E+00  0.23158762563E+02  0.23193559094E+02  0.12700000000E+01 0.  1.
         -4   -1    0    0    0  501 -0.00000000000E+00 -0.00000000000E+00 -0.16851948327E+03  0.16852426870E+03  0.12700000000E+01 0.  1.
         25    2    1    2    0    0  0.00000000000E+00  0.00000000000E+00 -0.14536072071E+03  0.19171782779E+03  0.12500394542E+03 0.  0.
    9000005    1    3    3    0    0 -0.37153622610E+02 -0.49224858360E+02 -0.88171297447E+02  0.10760416371E+03  0.10000000000E+01 0.  0.
    9000005    1    3    3    0    0  0.37153622610E+02  0.49224858360E+02 -0.57189423258E+02  0.84113664088E+02  0.10000000000E+01 0.  0.
<mgrwt>
<rscale>  0 0.12500395E+03</rscale>
<asrwt>0</asrwt>
<pdfrwt beam="1">  1        4 0.57946389E-02 0.12500395E+03</pdfrwt>
<pdfrwt beam="2">  1       -4 0.42134815E-01 0.12500395E+03</pdfrwt>
<totfact> 0.16657613E+03</totfact>
</mgrwt>
</event>
<event>
 5    1  0.1431256E-002  0.1249962E+03  0.7818608E-02  0.1235075E+00
          4   -1    0    0  501    0  0.00000000000E+00  0.00000000000E+00  0.80940311918E+02  0.80950274820E+02  0.12700000000E+01 0.  1.
         -4   -1    0    0    0  501 -0.00000000000E+00 -0.00000000000E+00 -0.48236662957E+02  0.48253378672E+02  0.12700000000E+01 0.  1.
         25    2    1    2    0    0  0.00000000000E+00  0.00000000000E+00  0.32703648961E+02  0.12920365349E+03  0.12499622162E+03 0.  0.
    9000005    1    3    3    0    0  0.17145770308E+02  0.50280346500E+02  0.50367314542E+02  0.73211727597E+02  0.10000000000E+01 0.  0.
    9000005    1    3    3    0    0 -0.17145770308E+02 -0.50280346500E+02 -0.17663665581E+02  0.55991925894E+02  0.10000000000E+01 0.  0.
<mgrwt>
<rscale>  0 0.12499622E+03</rscale>
<asrwt>0</asrwt>
<pdfrwt beam="1">  1        4 0.20238413E-01 0.12499622E+03</pdfrwt>
<pdfrwt beam="2">  1       -4 0.12062501E-01 0.12499622E+03</pdfrwt>
<totfact> 0.19609020E+03</totfact>
</mgrwt>
</event>
<event>
 5    1  0.1431256E-002  0.1249885E+03  0.7818608E-02  0.1235087E+00
          4   -1    0    0  501    0  0.00000000000E+00  0.00000000000E+00  0.36510500583E+03  0.36510721464E+03  0.12700000000E+01 0.  1.
         -4   -1    0    0    0  501 -0.00000000000E+00 -0.00000000000E+00 -0.10657067617E+02  0.10732473629E+02  0.12700000000E+01 0.  1.
         25    2    1    2    0    0  0.00000000000E+00  0.00000000000E+00  0.35444793822E+03  0.37583968827E+03  0.12498852097E+03 0.  0.
    9000005    1    3    3    0    0  0.24461354400E+02 -0.17577969192E+02  0.12601303943E+02  0.32667043348E+02  0.10000000000E+01 0.  0.
    9000005    1    3    3    0    0 -0.24461354400E+02  0.17577969192E+02  0.34184663428E+03  0.34317264493E+03  0.10000000000E+01 0.  0.
<mgrwt>
<rscale>  0 0.12498852E+03</rscale>
<asrwt>0</asrwt>
<pdfrwt beam="1">  1        4 0.91285954E-01 0.12498852E+03</pdfrwt>
<pdfrwt beam="2">  1       -4 0.26739687E-02 0.12498852E+03</pdfrwt>
<totfact> 0.11087299E+03</totfact>
</mgrwt>
</event>
<event>
 5    1  0.1431256E-002  0.1249933E+03  0.7818608E-02  0.1235080E+00
         -4   -1    0    0    0  501 -0.00000000000E+00  0.00000000000E+00  0.75960148425E+01  0.77014506093E+01  0.12700000000E+01 0.  1.
          4   -1    0    0  501    0  0.00000000000E+00 -0.00000000000E+00 -0.51054467267E+03  0.51054625226E+03  0.12700000000E+01 0.  1.
         25    2    1    2    0    0  0.00000000000E+00  0.00000000000E+00 -0.50294865783E+03  0.51824770287E+03  0.12499331628E+03 0.  0.
    9000005    1    3    3    0    0  0.10603511523E+02 -0.48407615959E+01  0.30689525383E+01  0.12094870777E+02  0.10000000000E+01 0.  0.
    9000005    1    3    3    0    0 -0.10603511523E+02  0.48407615959E+01 -0.50601761037E+03  0.50615283209E+03  0.10000000000E+01 0.  0.
<mgrwt>
<rscale>  0 0.12499332E+03</rscale>
<asrwt>0</asrwt>
<pdfrwt beam="2">  1        4 0.12764943E+00 0.12499332E+03</pdfrwt>
<pdfrwt beam="1">  1       -4 0.19123824E-02 0.12499332E+03</pdfrwt>
<totfact> 0.84788598E+02</totfact>
</mgrwt>
</event>
<event>
 5    1  0.1431256E-002  0.1250008E+03  0.7818608E-02  0.1235068E+00
         -4   -1    0    0    0  501 -0.00000000000E+00  0.00000000000E+00  0.17688203997E+03  0.17688659917E+03  0.12700000000E+01 0. -1.
          4   -1    0    0  501    0  0.00000000000E+00 -0.00000000000E+00 -0.22061096042E+02  0.22097621107E+02  0.12700000000E+01 0. -1.
         25    2    1    2    0    0  0.00000000000E+00  0.00000000000E+00  0.15482094393E+03  0.19898422027E+03  0.12500078095E+03 0.  0.
    9000005    1    3    3    0    0  0.47872228679E+02  0.35886873308E+02  0.10613824931E+03  0.12184394085E+03  0.10000000000E+01 0.  0.
    9000005    1    3    3    0    0 -0.47872228679E+02 -0.35886873308E+02  0.48682694619E+02  0.77140279426E+02  0.10000000000E+01 0.  0.
<mgrwt>
<rscale>  0 0.12500078E+03</rscale>
<asrwt>0</asrwt>
<pdfrwt beam="2">  1        4 0.55204097E-02 0.12500078E+03</pdfrwt>
<pdfrwt beam="1">  1       -4 0.44225644E-01 0.12500078E+03</pdfrwt>
<totfact> 0.16362500E+03</totfact>
</mgrwt>
</event>
<event>
 5    1  0.1431256E-002  0.1249990E+03  0.7818608E-02  0.1235071E+00
         -4   -1    0    0    0  501 -0.00000000000E+00  0.00000000000E+00  0.34513627618E+02  0.34536985846E+02  0.12700000000E+01 0.  1.
          4   -1    0    0  501    0  0.00000000000E+00 -0.00000000000E+00 -0.11311283350E+03  0.11311996288E+03  0.12700000000E+01 0.  1.
         25    2    1    2    0    0  0.00000000000E+00  0.00000000000E+00 -0.78599205882E+02  0.14765694873E+03  0.12499895736E+03 0.  0.
    9000005    1    3    3    0    0  0.58328304589E+02 -0.22058722541E+02 -0.44084308251E+02  0.76375418758E+02  0.10000000000E+01 0.  0.
    9000005    1    3    3    0    0 -0.58328304589E+02  0.22058722541E+02 -0.34514897631E+02  0.71281529970E+02  0.10000000000E+01 0.  0.
<mgrwt>
<rscale>  0 0.12499896E+03</rscale>
<asrwt>0</asrwt>
<pdfrwt beam="2">  1        4 0.28282019E-01 0.12499896E+03</pdfrwt>
<pdfrwt beam="1">  1       -4 0.86322181E-02 0.12499896E+03</pdfrwt>
<totfact> 0.18655045E+03</totfact>
</mgrwt>
</event>
<event>
 5    1  0.1431256E-002  0.1250001E+03  0.7818608E-02  0.1235069E+00
          4   -1    0    0  501    0  0.00000000000E+00  0.00000000000E+00  0.18292409555E+03  0.18292850416E+03  0.12700000000E+01 0. -1.
         -4   -1    0    0    0  501 -0.00000000000E+00 -0.00000000000E+00 -0.21330974676E+02  0.21368747755E+02  0.12700000000E+01 0. -1.
         25    2    1    2    0    0  0.00000000000E+00  0.00000000000E+00  0.16159312088E+03  0.20429725191E+03  0.12500012170E+03 0.  0.
    9000005    1    3    3    0    0  0.34385475458E+01  0.96412955777E+00  0.18276520535E+03  0.18280282668E+03  0.10000000000E+01 0.  0.
    9000005    1    3    3    0    0 -0.34385475458E+01 -0.96412955777E+00 -0.21172084476E+02  0.21494425233E+02  0.10000000000E+01 0.  0.
<mgrwt>
<rscale>  0 0.12500012E+03</rscale>
<asrwt>0</asrwt>
<pdfrwt beam="1">  1        4 0.45736296E-01 0.12500012E+03</pdfrwt>
<pdfrwt beam="2">  1       -4 0.53380164E-02 0.12500012E+03</pdfrwt>
<totfact> 0.16151361E+03</totfact>
</mgrwt>
</event>
<event>
 5    1  0.1431256E-002  0.1250097E+03  0.7818608E-02  0.1235054E+00
         -4   -1    0    0    0  501 -0.00000000000E+00  0.00000000000E+00  0.45266054468E+02  0.45283866742E+02  0.12700000000E+01 0.  1.
          4   -1    0    0  501    0  0.00000000000E+00 -0.00000000000E+00 -0.86269227573E+02  0.86278575127E+02  0.12700000000E+01 0.  1.
         25    2    1    2    0    0  0.00000000000E+00  0.00000000000E+00 -0.41003173104E+02  0.13156244187E+03  0.12500966325E+03 0.  0.
    9000005    1    3    3    0    0 -0.35453929497E+02 -0.50723823624E+02 -0.11328835256E+02  0.62922411810E+02  0.10000000000E+01 0.  0.
    9000005    1    3    3    0    0  0.35453929497E+02  0.50723823624E+02 -0.29674337848E+02  0.68640030059E+02  0.10000000000E+01 0.  0.
<mgrwt>
<rscale>  0 0.12500966E+03</rscale>
<asrwt>0</asrwt>
<pdfrwt beam="2">  1        4 0.21570702E-01 0.12500966E+03</pdfrwt>
<pdfrwt beam="1">  1       -4 0.11319909E-01 0.12500966E+03</pdfrwt>
<totfact> 0.19476357E+03</totfact>
</mgrwt>
</event>
<event>
 5    1  0.1431256E-002  0.1250007E+03  0.7818608E-02  0.1235068E+00
         -4   -1    0    0    0  501 -0.00000000000E+00  0.00000000000E+00  0.16147801418E+03  0.16148300828E+03  0.12700000000E+01 0. -1.
          4   -1    0    0  501    0  0.00000000000E+00 -0.00000000000E+00 -0.24168813077E+02  0.24202157457E+02  0.12700000000E+01 0. -1.
         25    2    1    2    0    0  0.00000000000E+00  0.00000000000E+00  0.13730920110E+03  0.18568516574E+03  0.12500065627E+03 0.  0.
    9000005    1    3    3    0    0  0.21140192745E+02  0.57934869643E+02  0.83652304035E+02  0.10393298245E+03  0.10000000000E+01 0.  0.
    9000005    1    3    3    0    0 -0.21140192745E+02 -0.57934869643E+02  0.53656897068E+02  0.81752183291E+02  0.10000000000E+01 0.  0.
<mgrwt>
<rscale>  0 0.12500066E+03</rscale>
<asrwt>0</asrwt>
<pdfrwt beam="2">  1        4 0.60469958E-02 0.12500066E+03</pdfrwt>
<pdfrwt beam="1">  1       -4 0.40374295E-01 0.12500066E+03</pdfrwt>
<totfact> 0.16911488E+03</totfact>
</mgrwt>
</event>
<event>
 5    1  0.1431256E-002  0.1249979E+03  0.7818608E-02  0.1235072E+00
          4   -1    0    0  501    0  0.00000000000E+00  0.00000000000E+00  0.57598547962E+02  0.57612547482E+02  0.12700000000E+01 0.  1.
         -4   -1    0    0    0  501 -0.00000000000E+00 -0.00000000000E+00 -0.67788132748E+02  0.67800028329E+02  0.12700000000E+01 0.  1.
         25    2    1    2    0    0  0.00000000000E+00  0.00000000000E+00 -0.10189584786E+02  0.12541257581E+03  0.12499794612E+03 0.  0.
    9000005    1    3    3    0    0  0.36454481881E+02 -0.50708090953E+02 -0.73116228064E+01  0.62886402071E+02  0.10000000000E+01 0.  0.
    9000005    1    3    3    0    0 -0.36454481881E+02  0.50708090953E+02 -0.28779619792E+01  0.62526173740E+02  0.10000000000E+01 0.  0.
<mgrwt>
<rscale>  0 0.12499795E+03</rscale>
<asrwt>0</asrwt>
<pdfrwt beam="1">  1        4 0.14402874E-01 0.12499795E+03</pdfrwt>
<pdfrwt beam="2">  1       -4 0.16950270E-01 0.12499795E+03</pdfrwt>
<totfact> 0.19813649E+03</totfact>
</mgrwt>
</event>
<event>
 5    1  0.1431256E-002  0.1249989E+03  0.7818608E-02  0.1235071E+00
          4   -1    0    0  501    0  0.00000000000E+00  0.00000000000E+00  0.28204159647E+03  0.28204445578E+03  0.12700000000E+01 0.  1.
         -4   -1    0    0    0  501 -0.00000000000E+00 -0.00000000000E+00 -0.13817604626E+02  0.13875845834E+02  0.12700000000E+01 0.  1.
         25    2    1    2    0    0  0.00000000000E+00  0.00000000000E+00  0.26822399184E+03  0.29592030162E+03  0.12499886043E+03 0.  0.
    9000005    1    3    3    0    0  0.13475527235E+01 -0.30864467544E+02  0.55138424036E+01  0.31397988998E+02  0.10000000000E+01 0.  0.
    9000005    1    3    3    0    0 -0.13475527235E+01  0.30864467544E+02  0.26271014944E+03  0.26452231262E+03  0.10000000000E+01 0.  0.
<mgrwt>
<rscale>  0 0.12499886E+03</rscale>
<asrwt>0</asrwt>
<pdfrwt beam="1">  1        4 0.70518038E-01 0.12499886E+03</pdfrwt>
<pdfrwt beam="2">  1       -4 0.34620386E-02 0.12499886E+03</pdfrwt>
<totfact> 0.13086514E+03</totfact>
</mgrwt>
</event>
<event>
 5    1  0.1431256E-002  0.1250000E+03  0.7818608E-02  0.1235069E+00
         -4   -1    0    0    0  501 -0.00000000000E+00  0.00000000000E+00  0.30590178604E+03  0.30590442233E+03  0.12700000000E+01 0. -1.
          4   -1    0    0  501    0  0.00000000000E+00 -0.00000000000E+00 -0.12735348800E+02  0.12798515893E+02  0.12700000000E+01 0. -1.
         25    2    1    2    0    0  0.00000000000E+00  0.00000000000E+00  0.29316643724E+03  0.31870293822E+03  0.12500001164E+03 0.  0.
    9000005    1    3    3    0    0 -0.30577518614E+02  0.36262170096E+02  0.42850170435E+02  0.63930170741E+02  0.10000000000E+01 0.  0.
    9000005    1    3    3    0    0  0.30577518614E+02 -0.36262170096E+02  0.25031626680E+03  0.25477276748E+03  0.10000000000E+01 0.  0.
<mgrwt>
<rscale>  0 0.12500001E+03</rscale>
<asrwt>0</asrwt>
<pdfrwt beam="2">  1        4 0.31920625E-02 0.12500001E+03</pdfrwt>
<pdfrwt beam="1">  1       -4 0.76483676E-01 0.12500001E+03</pdfrwt>
<totfact> 0.12462596E+03</totfact>
</mgrwt>
</event>
<event>
 5    1  0.1431256E-002  0.1250083E+03  0.7818608E-02  0.1235056E+00
         -4   -1    0    0    0  501 -0.00000000000E+00  0.00000000000E+00  0.11939386416E+03  0.11940061850E+03  0.12700000000E+01 0.  1.
          4   -1    0    0  501    0  0.00000000000E+00 -0.00000000000E+00 -0.32701698528E+02  0.32726350036E+02  0.12700000000E+01 0.  1.
         25    2    1    2    0    0  0.00000000000E+00  0.00000000000E+00  0.86692165629E+02  0.15212696854E+03  0.12500833162E+03 0.  0.
    9000005    1    3    3    0    0  0.24550746582E+02 -0.48271124836E+02  0.53876677605E+01  0.54432229557E+02  0.10000000000E+01 0.  0.
    9000005    1    3    3    0    0 -0.24550746582E+02  0.48271124836E+02  0.81304497868E+02  0.97694738980E+02  0.10000000000E+01 0.  0.
<mgrwt>
<rscale>  0 0.12500833E+03</rscale>
<asrwt>0</asrwt>
<pdfrwt beam="2">  1        4 0.81793505E-02 0.12500833E+03</pdfrwt>
<pdfrwt beam="1">  1       -4 0.29852391E-01 0.12500833E+03</pdfrwt>
<totfact> 0.18431117E+03</totfact>
</mgrwt>
</event>
<event>
 5    1  0.1431256E-002  0.1249956E+03  0.7818608E-02  0.1235076E+00
         -4   -1    0    0    0  501 -0.00000000000E+00  0.00000000000E+00  0.32360574849E+03  0.32360824056E+03  0.12700000000E+01 0.  1.
          4   -1    0    0  501    0  0.00000000000E+00 -0.00000000000E+00 -0.12034221434E+02  0.12101048944E+02  0.12700000000E+01 0.  1.
         25    2    1    2    0    0  0.00000000000E+00  0.00000000000E+00  0.31157152706E+03  0.33570928950E+03  0.12499564226E+03 0.  0.
    9000005    1    3    3    0    0  0.31315498204E+02  0.53122257633E+02  0.12861527304E+03  0.14263773394E+03  0.10000000000E+01 0.  0.
    9000005    1    3    3    0    0 -0.31315498204E+02 -0.53122257633E+02  0.18295625402E+03  0.19307155557E+03  0.10000000000E+01 0.  0.
<mgrwt>
<rscale>  0 0.12499564E+03</rscale>
<asrwt>0</asrwt>
<pdfrwt beam="2">  1        4 0.30172203E-02 0.12499564E+03</pdfrwt>
<pdfrwt beam="1">  1       -4 0.80910101E-01 0.12499564E+03</pdfrwt>
<totfact> 0.12027331E+03</totfact>
</mgrwt>
</event>
<event>
 5    1  0.1431256E-002  0.1250146E+03  0.7818608E-02  0.1235047E+00
          4   -1    0    0  501    0  0.00000000000E+00  0.00000000000E+00  0.12278915076E+03  0.12279571834E+03  0.12700000000E+01 0.  1.
         -4   -1    0    0    0  501 -0.00000000000E+00 -0.00000000000E+00 -0.31799979439E+02  0.31825329414E+02  0.12700000000E+01 0.  1.
         25    2    1    2    0    0  0.00000000000E+00  0.00000000000E+00  0.90989171318E+02  0.15462104776E+03  0.12501455560E+03 0.  0.
    9000005    1    3    3    0    0  0.10671940422E+02  0.47233465136E+02 -0.33759311456E+01  0.48551904723E+02  0.10000000000E+01 0.  0.
    9000005    1    3    3    0    0 -0.10671940422E+02 -0.47233465136E+02  0.94365102463E+02  0.10606914303E+03  0.10000000000E+01 0.  0.
<mgrwt>
<rscale>  0 0.12501456E+03</rscale>
<asrwt>0</asrwt>
<pdfrwt beam="1">  1        4 0.30701277E-01 0.12501456E+03</pdfrwt>
<pdfrwt beam="2">  1       -4 0.79539846E-02 0.12501456E+03</pdfrwt>
<totfact> 0.18307675E+03</totfact>
</mgrwt>
</event>
<event>
 5    1  0.1431256E-002  0.1250003E+03  0.7818608E-02  0.1235069E+00
         -4   -1    0    0    0  501 -0.00000000000E+00  0.00000000000E+00  0.76142334117E+01  0.77194203440E+01  0.12700000000E+01 0. -1.
          4   -1    0    0  501    0  0.00000000000E+00 -0.00000000000E+00 -0.50939657906E+03  0.50939816220E+03  0.12700000000E+01 0. -1.
         25    2    1    2    0    0  0.00000000000E+00  0.00000000000E+00 -0.50178234565E+03  0.51711758255E+03  0.12500028711E+03 0.  0.
    9000005    1    3    3    0    0 -0.52166321242E+02 -0.28448814126E+02 -0.17082174422E+03  0.18086383938E+03  0.10000000000E+01 0.  0.
    9000005    1    3    3    0    0  0.52166321242E+02  0.28448814126E+02 -0.33096060143E+03  0.33625374317E+03  0.10000000000E+01 0.  0.
<mgrwt>
<rscale>  0 0.12500029E+03</rscale>
<asrwt>0</asrwt>
<pdfrwt beam="2">  1        4 0.12736238E+00 0.12500029E+03</pdfrwt>
<pdfrwt beam="1">  1       -4 0.19169063E-02 0.12500029E+03</pdfrwt>
<totfact> 0.84946496E+02</totfact>
</mgrwt>
</event>
<event>
 5    1  0.1431256E-002  0.1249982E+03  0.7818608E-02  0.1235072E+00
         -4   -1    0    0    0  501 -0.00000000000E+00  0.00000000000E+00  0.14127055723E+02  0.14184026346E+02  0.12700000000E+01 0. -1.
          4   -1    0    0  501    0  0.00000000000E+00 -0.00000000000E+00 -0.27588576148E+03  0.27588868459E+03  0.12700000000E+01 0. -1.
         25    2    1    2    0    0  0.00000000000E+00  0.00000000000E+00 -0.26175870575E+03  0.29007271094E+03  0.12499823036E+03 0.  0.
    9000005    1    3    3    0    0 -0.29088162527E+02  0.25009843516E+02 -0.24535707992E+03  0.24833990847E+03  0.10000000000E+01 0.  0.
    9000005    1    3    3    0    0  0.29088162527E+02 -0.25009843516E+02 -0.16401625834E+02  0.41732802468E+02  0.10000000000E+01 0.  0.
<mgrwt>
<rscale>  0 0.12499823E+03</rscale>
<asrwt>0</asrwt>
<pdfrwt beam="2">  1        4 0.68978910E-01 0.12499823E+03</pdfrwt>
<pdfrwt beam="1">  1       -4 0.35392515E-02 0.12499823E+03</pdfrwt>
<totfact> 0.13254459E+03</totfact>
</mgrwt>
</event>
<event>
 5    1  0.1431256E-002  0.1250197E+03  0.7818608E-02  0.1235038E+00
          4   -1    0    0  501    0  0.00000000000E+00  0.00000000000E+00  0.24689859840E+03  0.24690186469E+03  0.12700000000E+01 0.  1.
         -4   -1    0    0    0  501 -0.00000000000E+00 -0.00000000000E+00 -0.15797415941E+02  0.15848383211E+02  0.12700000000E+01 0.  1.
         25    2    1    2    0    0  0.00000000000E+00  0.00000000000E+00  0.23110118246E+03  0.26275024791E+03  0.12501974341E+03 0.  0.
    9000005    1    3    3    0    0  0.52898391496E+02 -0.25298129197E+02  0.70072428355E+02  0.91374943936E+02  0.10000000000E+01 0.  0.
    9000005    1    3    3    0    0 -0.52898391496E+02  0.25298129197E+02  0.16102875410E+03  0.17137530397E+03  0.10000000000E+01 0.  0.
<mgrwt>
<rscale>  0 0.12501974E+03</rscale>
<asrwt>0</asrwt>
<pdfrwt beam="1">  1        4 0.61731428E-01 0.12501974E+03</pdfrwt>
<pdfrwt beam="2">  1       -4 0.39561332E-02 0.12501974E+03</pdfrwt>
<totfact> 0.14076875E+03</totfact>
</mgrwt>
</event>
<event>
 5    1  0.1431256E-002  0.1250030E+03  0.7818608E-02  0.1235065E+00
          4   -1    0    0  501    0  0.00000000000E+00  0.00000000000E+00  0.14825769395E+02  0.14880065126E+02  0.12700000000E+01 0. -1.
         -4   -1    0    0    0  501 -0.00000000000E+00 -0.00000000000E+00 -0.26295212666E+03  0.26295519355E+03  0.12700000000E+01 0. -1.
         25    2    1    2    0    0  0.00000000000E+00  0.00000000000E+00 -0.24812635726E+03  0.27783525867E+03  0.12500296714E+03 0.  0.
    9000005    1    3    3    0    0  0.55625297794E+02  0.11599215612E+02 -0.18188230272E+03  0.19055415923E+03  0.10000000000E+01 0.  0.
    9000005    1    3    3    0    0 -0.55625297794E+02 -0.11599215612E+02 -0.66244054539E+02  0.87281099439E+02  0.10000000000E+01 0.  0.
<mgrwt>
<rscale>  0 0.12500297E+03</rscale>
<asrwt>0</asrwt>
<pdfrwt beam="1">  1        4 0.37136135E-02 0.12500297E+03</pdfrwt>
<pdfrwt beam="2">  1       -4 0.65745187E-01 0.12500297E+03</pdfrwt>
<totfact> 0.13614894E+03</totfact>
</mgrwt>
</event>
<event>
 5    1  0.1431256E-002  0.1249705E+03  0.7818608E-02  0.1235115E+00
         -4   -1    0    0    0  501 -0.00000000000E+00  0.00000000000E+00  0.74288721197E+01  0.75366465335E+01  0.12700000000E+01 0. -1.
          4   -1    0    0  501    0  0.00000000000E+00 -0.00000000000E+00 -0.52167809335E+03  0.52167963922E+03  0.12700000000E+01 0. -1.
         25    2    1    2    0    0  0.00000000000E+00  0.00000000000E+00 -0.51424922123E+03  0.52921628576E+03  0.12497045881E+03 0.  0.
    9000005    1    3    3    0    0  0.23879355645E+02  0.31142363227E+02 -0.51256850233E+02  0.64562644844E+02  0.10000000000E+01 0.  0.
    9000005    1    3    3    0    0 -0.23879355645E+02 -0.31142363227E+02 -0.46299237100E+03  0.46465364091E+03  0.10000000000E+01 0.  0.
<mgrwt>
<rscale>  0 0.12497046E+03</rscale>
<asrwt>0</asrwt>
<pdfrwt beam="2">  1        4 0.13043307E+00 0.12497046E+03</pdfrwt>
<pdfrwt beam="1">  1       -4 0.18708848E-02 0.12497046E+03</pdfrwt>
<totfact> 0.83195705E+02</totfact>
</mgrwt>
</event>
<event>
 5    1  0.1431256E-002  0.1250000E+03  0.7818608E-02  0.1235069E+00
          4   -1    0    0  501    0  0.00000000000E+00  0.00000000000E+00  0.87462369182E+02  0.87471589233E+02  0.12700000000E+01 0.  1.
         -4   -1    0    0    0  501 -0.00000000000E+00 -0.00000000000E+00 -0.44641465664E+02  0.44659527054E+02  0.12700000000E+01 0.  1.
         25    2    1    2    0    0  0.00000000000E+00  0.00000000000E+00  0.42820903518E+02  0.13213111629E+03  0.12500000845E+03 0.  0.
    9000005    1    3    3    0    0  0.24758021033E+02 -0.25367283537E+02  0.75812966753E+02  0.83696263999E+02  0.10000000000E+01 0.  0.
    9000005    1    3    3    0    0 -0.24758021033E+02  0.25367283537E+02 -0.32992063236E+02  0.48434852287E+02  0.10000000000E+01 0.  0.
<mgrwt>
<rscale>  0 0.12500001E+03</rscale>
<asrwt>0</asrwt>
<pdfrwt beam="1">  1        4 0.21869002E-01 0.12500001E+03</pdfrwt>
<pdfrwt beam="2">  1       -4 0.11163777E-01 0.12500001E+03</pdfrwt>
<totfact> 0.19450481E+03</totfact>
</mgrwt>
</event>
<event>
 5    1  0.1431256E-002  0.1249986E+03  0.7818608E-02  0.1235071E+00
         -4   -1    0    0    0  501 -0.00000000000E+00  0.00000000000E+00  0.42193385493E+02  0.42212494351E+02  0.12700000000E+01 0.  1.
          4   -1    0    0  501    0  0.00000000000E+00 -0.00000000000E+00 -0.92533178330E+02  0.92541893172E+02  0.12700000000E+01 0.  1.
         25    2    1    2    0    0  0.00000000000E+00  0.00000000000E+00 -0.50339792838E+02  0.13475438752E+03  0.12499860085E+03 0.  0.
    9000005    1    3    3    0    0 -0.32751220161E+02  0.41800540991E+02  0.10344107590E+02  0.54110333680E+02  0.10000000000E+01 0.  0.
    9000005    1    3    3    0    0  0.32751220161E+02 -0.41800540991E+02 -0.60683900428E+02  0.80644053843E+02  0.10000000000E+01 0.  0.
<mgrwt>
<rscale>  0 0.12499860E+03</rscale>
<asrwt>0</asrwt>
<pdfrwt beam="2">  1        4 0.23136772E-01 0.12499860E+03</pdfrwt>
<pdfrwt beam="1">  1       -4 0.10551825E-01 0.12499860E+03</pdfrwt>
<totfact> 0.19312640E+03</totfact>
</mgrwt>
</event>
<event>
 5    1  0.1431256E-002  0.1250079E+03  0.7818608E-02  0.1235057E+00
          4   -1    0    0  501    0  0.00000000000E+00  0.00000000000E+00  0.46624346187E+01  0.48323075826E+01  0.12700000000E+01 0. -1.
         -4   -1    0    0    0  501 -0.00000000000E+00 -0.00000000000E+00 -0.82275695277E+03  0.82275793295E+03  0.12700000000E+01 0. -1.
         25    2    1    2    0    0  0.00000000000E+00  0.00000000000E+00 -0.81809451815E+03  0.82759024053E+03  0.12500786213E+03 0.  0.
    9000005    1    3    3    0    0  0.25971961143E+02  0.54629523689E+02 -0.51305429736E+03  0.51660878783E+03  0.10000000000E+01 0.  0.
    9000005    1    3    3    0    0 -0.25971961143E+02 -0.54629523689E+02 -0.30504022079E+03  0.31098145270E+03  0.10000000000E+01 0.  0.
<mgrwt>
<rscale>  0 0.12500786E+03</rscale>
<asrwt>0</asrwt>
<pdfrwt beam="1">  1        4 0.11869681E-02 0.12500786E+03</pdfrwt>
<pdfrwt beam="2">  1       -4 0.20571011E+00 0.12500786E+03</pdfrwt>
<totfact> 0.50085792E+02</totfact>
</mgrwt>
</event>
<event>
 5    1  0.1431256E-002  0.1250021E+03  0.7818608E-02  0.1235066E+00
          4   -1    0    0  501    0  0.00000000000E+00  0.00000000000E+00  0.18234129714E+02  0.18278303708E+02  0.12700000000E+01 0. -1.
         -4   -1    0    0    0  501 -0.00000000000E+00 -0.00000000000E+00 -0.21392920487E+03  0.21393297455E+03  0.12700000000E+01 0. -1.
         25    2    1    2    0    0  0.00000000000E+00  0.00000000000E+00 -0.19569507516E+03  0.23221127825E+03  0.12500206121E+03 0.  0.
    9000005    1    3    3    0    0  0.30457278817E+02  0.53759365956E+02 -0.80454489380E+02  0.10144772113E+03  0.10000000000E+01 0.  0.
    9000005    1    3    3    0    0 -0.30457278817E+02 -0.53759365956E+02 -0.11524058578E+03  0.13076355712E+03  0.10000000000E+01 0.  0.
<mgrwt>
<rscale>  0 0.12500206E+03</rscale>
<asrwt>0</asrwt>
<pdfrwt beam="1">  1        4 0.45645260E-02 0.12500206E+03</pdfrwt>
<pdfrwt beam="2">  1       -4 0.53488286E-01 0.12500206E+03</pdfrwt>
<totfact> 0.15107902E+03</totfact>
</mgrwt>
</event>
<event>
 5    1  0.1431256E-002  0.1249991E+03  0.7818608E-02  0.1235071E+00
          4   -1    0    0  501    0  0.00000000000E+00  0.00000000000E+00  0.14477300963E+03  0.14477857996E+03  0.12700000000E+01 0. -1.
         -4   -1    0    0    0  501 -0.00000000000E+00 -0.00000000000E+00 -0.26960476333E+02  0.26990372063E+02  0.12700000000E+01 0. -1.
         25    2    1    2    0    0  0.00000000000E+00  0.00000000000E+00  0.11781253329E+03  0.17176895203E+03  0.12499911951E+03 0.  0.
    9000005    1    3    3    0    0 -0.61791217027E+02  0.41527257430E+01  0.70386505305E+02  0.93758518343E+02  0.10000000000E+01 0.  0.
    9000005    1    3    3    0    0  0.61791217027E+02 -0.41527257430E+01  0.47426027989E+02  0.78010433684E+02  0.10000000000E+01 0.  0.
<mgrwt>
<rscale>  0 0.12499912E+03</rscale>
<asrwt>0</asrwt>
<pdfrwt beam="1">  1        4 0.36197685E-01 0.12499912E+03</pdfrwt>
<pdfrwt beam="2">  1       -4 0.67445524E-02 0.12499912E+03</pdfrwt>
<totfact> 0.17517912E+03</totfact>
</mgrwt>
</event>
<event>
 5    1  0.1431256E-002  0.1249995E+03  0.7818608E-02  0.1235070E+00
         -4   -1    0    0    0  501 -0.00000000000E+00  0.00000000000E+00  0.32409676618E+03  0.32409925447E+03  0.12700000000E+01 0.  1.
          4   -1    0    0  501    0  0.00000000000E+00 -0.00000000000E+00 -0.12016638018E+02  0.12083562772E+02  0.12700000000E+01 0.  1.
         25    2    1    2    0    0  0.00000000000E+00  0.00000000000E+00  0.31208012817E+03  0.33618281725E+03  0.12499952086E+03 0.  0.
    9000005    1    3    3    0    0  0.59148420203E+02 -0.56168317046E+01  0.20813090027E+03  0.21644758270E+03  0.10000000000E+01 0.  0.
    9000005    1    3    3    0    0 -0.59148420203E+02  0.56168317046E+01  0.10394922790E+03  0.11973523455E+03  0.10000000000E+01 0.  0.
<mgrwt>
<rscale>  0 0.12499952E+03</rscale>
<asrwt>0</asrwt>
<pdfrwt beam="2">  1        4 0.30128364E-02 0.12499952E+03</pdfrwt>
<pdfrwt beam="1">  1       -4 0.81032861E-01 0.12499952E+03</pdfrwt>
<totfact> 0.12014446E+03</totfact>
</mgrwt>
</event>
<event>
 5    1  0.1431256E-002  0.1249941E+03  0.7818608E-02  0.1235078E+00
          4   -1    0    0  501    0  0.00000000000E+00  0.00000000000E+00  0.18741661981E+02  0.18784642499E+02  0.12700000000E+01 0.  1.
         -4   -1    0    0    0  501 -0.00000000000E+00 -0.00000000000E+00 -0.20812275035E+03  0.20812662519E+03  0.12700000000E+01 0.  1.
         25    2    1    2    0    0  0.00000000000E+00  0.00000000000E+00 -0.18938108837E+03  0.22691126769E+03  0.12499410695E+03 0.  0.
    9000005    1    3    3    0    0  0.27745243099E+02  0.52106791534E+02 -0.13189314549E+03  0.14450507973E+03  0.10000000000E+01 0.  0.
    9000005    1    3    3    0    0 -0.27745243099E+02 -0.52106791534E+02 -0.57487942874E+02  0.82406187962E+02  0.10000000000E+01 0.  0.
<mgrwt>
<rscale>  0 0.12499411E+03</rscale>
<asrwt>0</asrwt>
<pdfrwt beam="1">  1        4 0.46912731E-02 0.12499411E+03</pdfrwt>
<pdfrwt beam="2">  1       -4 0.52036537E-01 0.12499411E+03</pdfrwt>
<totfact> 0.15300390E+03</totfact>
</mgrwt>
</event>
<event>
 5    1  0.1431256E-002  0.1249959E+03  0.7818608E-02  0.1235076E+00
          4   -1    0    0  501    0  0.00000000000E+00  0.00000000000E+00  0.32162225447E+02  0.32187290127E+02  0.12700000000E+01 0. -1.
         -4   -1    0    0    0  501 -0.00000000000E+00 -0.00000000000E+00 -0.12137101143E+03  0.12137765575E+03  0.12700000000E+01 0. -1.
         25    2    1    2    0    0  0.00000000000E+00  0.00000000000E+00 -0.89208785987E+02  0.15356494588E+03  0.12499594036E+03 0.  0.
    9000005    1    3    3    0    0  0.28623809498E+02 -0.25346023707E+02  0.16122406557E+02  0.41505124757E+02  0.10000000000E+01 0.  0.
    9000005    1    3    3    0    0 -0.28623809498E+02  0.25346023707E+02 -0.10533119254E+03  0.11205982113E+03  0.10000000000E+01 0.  0.
<mgrwt>
<rscale>  0 0.12499594E+03</rscale>
<asrwt>0</asrwt>
<pdfrwt beam="1">  1        4 0.80445203E-02 0.12499594E+03</pdfrwt>
<pdfrwt beam="2">  1       -4 0.30346715E-01 0.12499594E+03</pdfrwt>
<totfact> 0.18366605E+03</totfact>
</mgrwt>
</event>
<event>
 5    1  0.1431256E-002  0.1249930E+03  0.7818608E-02  0.1235080E+00
         -4   -1    0    0    0  501 -0.00000000000E+00  0.00000000000E+00  0.21729078940E+02  0.21766161158E+02  0.12700000000E+01 0. -1.
          4   -1    0    0  501    0  0.00000000000E+00 -0.00000000000E+00 -0.17955786950E+03  0.17956236075E+03  0.12700000000E+01 0. -1.
         25    2    1    2    0    0  0.00000000000E+00  0.00000000000E+00 -0.15782879056E+03  0.20132852191E+03  0.12499298622E+03 0.  0.
    9000005    1    3    3    0    0 -0.22731275960E+02 -0.21901858472E+02 -0.16577991581E+03  0.16876131902E+03  0.10000000000E+01 0.  0.
    9000005    1    3    3    0    0  0.22731275960E+02  0.21901858472E+02  0.79511252514E+01  0.32567202890E+02  0.10000000000E+01 0.  0.
<mgrwt>
<rscale>  0 0.12499299E+03</rscale>
<asrwt>0</asrwt>
<pdfrwt beam="2">  1        4 0.44894660E-01 0.12499299E+03</pdfrwt>
<pdfrwt beam="1">  1       -4 0.54374670E-02 0.12499299E+03</pdfrwt>
<totfact> 0.16271622E+03</totfact>
</mgrwt>
</event>
<event>
 5    1  0.1431256E-002  0.1249756E+03  0.7818608E-02  0.1235107E+00
          4   -1    0    0  501    0  0.00000000000E+00  0.00000000000E+00  0.13459593451E+02  0.13519377051E+02  0.12700000000E+01 0. -1.
         -4   -1    0    0    0  501 -0.00000000000E+00 -0.00000000000E+00 -0.28940323880E+03  0.28940602538E+03  0.12700000000E+01 0. -1.
         25    2    1    2    0    0  0.00000000000E+00  0.00000000000E+00 -0.27594364535E+03  0.30292540243E+03  0.12497561375E+03 0.  0.
    9000005    1    3    3    0    0  0.15582008240E+02  0.59827123852E+02 -0.15987302585E+03  0.17141315038E+03  0.10000000000E+01 0.  0.
    9000005    1    3    3    0    0 -0.15582008240E+02 -0.59827123852E+02 -0.11607061950E+03  0.13151225206E+03  0.10000000000E+01 0.  0.
<mgrwt>
<rscale>  0 0.12497561E+03</rscale>
<asrwt>0</asrwt>
<pdfrwt beam="1">  1        4 0.33727206E-02 0.12497561E+03</pdfrwt>
<pdfrwt beam="2">  1       -4 0.72358611E-01 0.12497561E+03</pdfrwt>
<totfact> 0.12896665E+03</totfact>
</mgrwt>
</event>
<event>
 5    1  0.1431256E-002  0.1250020E+03  0.7818608E-02  0.1235066E+00
          4   -1    0    0  501    0  0.00000000000E+00  0.00000000000E+00  0.86037459744E+03  0.86037553476E+03  0.12700000000E+01 0. -1.
         -4   -1    0    0    0  501 -0.00000000000E+00 -0.00000000000E+00 -0.44505497415E+01  0.46282062402E+01  0.12700000000E+01 0. -1.
         25    2    1    2    0    0  0.00000000000E+00  0.00000000000E+00  0.85592404770E+03  0.86500374100E+03  0.12500198607E+03 0.  0.
    9000005    1    3    3    0    0  0.30796778567E+02 -0.53253480851E+02  0.35184311239E+03  0.35718195717E+03  0.10000000000E+01 0.  0.
    9000005    1    3    3    0    0 -0.30796778567E+02  0.53253480851E+02  0.50408093531E+03  0.50782178384E+03  0.10000000000E+01 0.  0.
<mgrwt>
<rscale>  0 0.12500199E+03</rscale>
<asrwt>0</asrwt>
<pdfrwt beam="1">  1        4 0.21511598E+00 0.12500199E+03</pdfrwt>
<pdfrwt beam="2">  1       -4 0.11349616E-02 0.12500199E+03</pdfrwt>
<totfact> 0.47011254E+02</totfact>
</mgrwt>
</event>
<event>
 5    1  0.1431256E-002  0.1249975E+03  0.7818608E-02  0.1235073E+00
         -4   -1    0    0    0  501 -0.00000000000E+00  0.00000000000E+00  0.11407712832E+03  0.11408419744E+03  0.12700000000E+01 0. -1.
          4   -1    0    0  501    0  0.00000000000E+00 -0.00000000000E+00 -0.34220890640E+02  0.34244448545E+02  0.12700000000E+01 0. -1.
         25    2    1    2    0    0  0.00000000000E+00  0.00000000000E+00  0.79856237679E+02  0.14832864598E+03  0.12499747407E+03 0.  0.
    9000005    1    3    3    0    0  0.57587347389E+02 -0.23731669986E+02  0.45931855687E+02  0.77396576840E+02  0.10000000000E+01 0.  0.
    9000005    1    3    3    0    0 -0.57587347389E+02  0.23731669986E+02  0.33924381992E+02  0.70932069145E+02  0.10000000000E+01 0.  0.
<mgrwt>
<rscale>  0 0.12499747E+03</rscale>
<asrwt>0</asrwt>
<pdfrwt beam="2">  1        4 0.85590511E-02 0.12499747E+03</pdfrwt>
<pdfrwt beam="1">  1       -4 0.28523110E-01 0.12499747E+03</pdfrwt>
<totfact> 0.18622363E+03</totfact>
</mgrwt>
</event>
<event>
 5    1  0.1431256E-002  0.1250027E+03  0.7818608E-02  0.1235065E+00
         -4   -1    0    0    0  501 -0.00000000000E+00  0.00000000000E+00  0.21200266232E+03  0.21200646625E+03  0.12700000000E+01 0. -1.
          4   -1    0    0  501    0  0.00000000000E+00 -0.00000000000E+00 -0.18400416501E+02  0.18444192240E+02  0.12700000000E+01 0. -1.
         25    2    1    2    0    0  0.00000000000E+00  0.00000000000E+00  0.19360224582E+03  0.23045065849E+03  0.12500270562E+03 0.  0.
    9000005    1    3    3    0    0  0.81906017550E+00 -0.34450757442E+02  0.19291249164E+03  0.19596876022E+03  0.10000000000E+01 0.  0.
    9000005    1    3    3    0    0 -0.81906017550E+00  0.34450757442E+02  0.68975417913E+00  0.34481898277E+02  0.10000000000E+01 0.  0.
<mgrwt>
<rscale>  0 0.12500271E+03</rscale>
<asrwt>0</asrwt>
<pdfrwt beam="2">  1        4 0.46060515E-02 0.12500271E+03</pdfrwt>
<pdfrwt beam="1">  1       -4 0.53006613E-01 0.12500271E+03</pdfrwt>
<totfact> 0.15170276E+03</totfact>
</mgrwt>
</event>
<event>
 5    1  0.1431256E-002  0.1249977E+03  0.7818608E-02  0.1235073E+00
         -4   -1    0    0    0  501 -0.00000000000E+00  0.00000000000E+00  0.57349959444E+02  0.57364019631E+02  0.12700000000E+01 0.  1.
          4   -1    0    0  501    0  0.00000000000E+00 -0.00000000000E+00 -0.68081644852E+02  0.68093489158E+02  0.12700000000E+01 0.  1.
         25    2    1    2    0    0  0.00000000000E+00  0.00000000000E+00 -0.10731685408E+02  0.12545750879E+03  0.12499766974E+03 0.  0.
    9000005    1    3    3    0    0  0.33276855472E+02 -0.48543823222E+02  0.15717444301E+02  0.60925281603E+02  0.10000000000E+01 0.  0.
    9000005    1    3    3    0    0 -0.33276855472E+02  0.48543823222E+02 -0.26449129709E+02  0.64532227185E+02  0.10000000000E+01 0.  0.
<mgrwt>
<rscale>  0 0.12499767E+03</rscale>
<asrwt>0</asrwt>
<pdfrwt beam="2">  1        4 0.17023649E-01 0.12499767E+03</pdfrwt>
<pdfrwt beam="1">  1       -4 0.14340728E-01 0.12499767E+03</pdfrwt>
<totfact> 0.19811344E+03</totfact>
</mgrwt>
</event>
<event>
 5    1  0.1431256E-002  0.1250001E+03  0.7818608E-02  0.1235069E+00
          4   -1    0    0  501    0  0.00000000000E+00  0.00000000000E+00  0.45441938942E+03  0.45442116410E+03  0.12700000000E+01 0. -1.
         -4   -1    0    0    0  501 -0.00000000000E+00 -0.00000000000E+00 -0.85474376468E+01  0.86412724946E+01  0.12700000000E+01 0. -1.
         25    2    1    2    0    0  0.00000000000E+00  0.00000000000E+00  0.44587195177E+03  0.46306243659E+03  0.12500009122E+03 0.  0.
    9000005    1    3    3    0    0  0.18768385409E+02 -0.59315777434E+02  0.20113226384E+03  0.21053693572E+03  0.10000000000E+01 0.  0.
    9000005    1    3    3    0    0 -0.18768385409E+02  0.59315777434E+02  0.24473968793E+03  0.25252550088E+03  0.10000000000E+01 0.  0.
<mgrwt>
<rscale>  0 0.12500009E+03</rscale>
<asrwt>0</asrwt>
<pdfrwt beam="1">  1        4 0.11361680E+00 0.12500009E+03</pdfrwt>
<pdfrwt beam="2">  1       -4 0.21488106E-02 0.12500009E+03</pdfrwt>
<totfact> 0.93718041E+02</totfact>
</mgrwt>
</event>
<event>
 5    1  0.1431256E-002  0.1250030E+03  0.7818608E-02  0.1235065E+00
         -4   -1    0    0    0  501 -0.00000000000E+00  0.00000000000E+00  0.20041512294E+03  0.20041914680E+03  0.12700000000E+01 0. -1.
          4   -1    0    0  501    0  0.00000000000E+00 -0.00000000000E+00 -0.19466815310E+02  0.19508198233E+02  0.12700000000E+01 0. -1.
         25    2    1    2    0    0  0.00000000000E+00  0.00000000000E+00  0.18094830763E+03  0.21992734503E+03  0.12500298820E+03 0.  0.
    9000005    1    3    3    0    0  0.70821807979E+01 -0.49572926395E+02  0.15625236300E+03  0.16408361667E+03  0.10000000000E+01 0.  0.
    9000005    1    3    3    0    0 -0.70821807979E+01  0.49572926395E+02  0.24695944631E+02  0.55843728363E+02  0.10000000000E+01 0.  0.
<mgrwt>
<rscale>  0 0.12500299E+03</rscale>
<asrwt>0</asrwt>
<pdfrwt beam="2">  1        4 0.48723797E-02 0.12500299E+03</pdfrwt>
<pdfrwt beam="1">  1       -4 0.50109456E-01 0.12500299E+03</pdfrwt>
<totfact> 0.15552963E+03</totfact>
</mgrwt>
</event>
<event>
 5    1  0.1431256E-002  0.1250003E+03  0.7818608E-02  0.1235069E+00
          4   -1    0    0  501    0  0.00000000000E+00  0.00000000000E+00  0.29944396302E+03  0.29944665616E+03  0.12700000000E+01 0. -1.
         -4   -1    0    0    0  501 -0.00000000000E+00 -0.00000000000E+00 -0.13011400894E+02  0.13073234230E+02  0.12700000000E+01 0. -1.
         25    2    1    2    0    0  0.00000000000E+00  0.00000000000E+00  0.28643256212E+03  0.31251989039E+03  0.12500027699E+03 0.  0.
    9000005    1    3    3    0    0 -0.16820863552E+02  0.59627865901E+02  0.12277556154E+03  0.13752549710E+03  0.10000000000E+01 0.  0.
    9000005    1    3    3    0    0  0.16820863552E+02 -0.59627865901E+02  0.16365700058E+03  0.17499439329E+03  0.10000000000E+01 0.  0.
<mgrwt>
<rscale>  0 0.12500028E+03</rscale>
<asrwt>0</asrwt>
<pdfrwt beam="1">  1        4 0.74869054E-01 0.12500028E+03</pdfrwt>
<pdfrwt beam="2">  1       -4 0.32609162E-02 0.12500028E+03</pdfrwt>
<totfact> 0.12627198E+03</totfact>
</mgrwt>
</event>
<event>
 5    1  0.1431256E-002  0.1249987E+03  0.7818608E-02  0.1235071E+00
         -4   -1    0    0    0  501 -0.00000000000E+00  0.00000000000E+00  0.51412337754E+02  0.51428021285E+02  0.12700000000E+01 0.  1.
          4   -1    0    0  501    0  0.00000000000E+00 -0.00000000000E+00 -0.75944677441E+02  0.75955295612E+02  0.12700000000E+01 0.  1.
         25    2    1    2    0    0  0.00000000000E+00  0.00000000000E+00 -0.24532339687E+02  0.12738331690E+03  0.12499869493E+03 0.  0.
    9000005    1    3    3    0    0 -0.26032098185E+02  0.54733378023E+02 -0.27780113820E+02  0.66679438582E+02  0.10000000000E+01 0.  0.
    9000005    1    3    3    0    0  0.26032098185E+02 -0.54733378023E+02  0.32477741324E+01  0.60703878316E+02  0.10000000000E+01 0.  0.
<mgrwt>
<rscale>  0 0.12499869E+03</rscale>
<asrwt>0</asrwt>
<pdfrwt beam="2">  1        4 0.18989457E-01 0.12499869E+03</pdfrwt>
<pdfrwt beam="1">  1       -4 0.12856372E-01 0.12499869E+03</pdfrwt>
<totfact> 0.19706757E+03</totfact>
</mgrwt>
</event>
<event>
 5    1  0.1431256E-002  0.1250008E+03  0.7818608E-02  0.1235068E+00
         -4   -1    0    0    0  501 -0.00000000000E+00  0.00000000000E+00  0.30292816104E+02  0.30319426240E+02  0.12700000000E+01 0. -1.
          4   -1    0    0  501    0  0.00000000000E+00 -0.00000000000E+00 -0.12886493098E+03  0.12887118893E+03  0.12700000000E+01 0. -1.
         25    2    1    2    0    0  0.00000000000E+00  0.00000000000E+00 -0.98572114872E+02  0.15919061517E+03  0.12500076051E+03 0.  0.
    9000005    1    3    3    0    0  0.91442725234E+01 -0.49624341729E+02 -0.23365290479E+01  0.50523780342E+02  0.10000000000E+01 0.  0.
    9000005    1    3    3    0    0 -0.91442725234E+01  0.49624341729E+02 -0.96235585824E+02  0.10866683483E+03  0.10000000000E+01 0.  0.
<mgrwt>
<rscale>  0 0.12500076E+03</rscale>
<asrwt>0</asrwt>
<pdfrwt beam="2">  1        4 0.32220340E-01 0.12500076E+03</pdfrwt>
<pdfrwt beam="1">  1       -4 0.75773129E-02 0.12500076E+03</pdfrwt>
<totfact> 0.18095592E+03</totfact>
</mgrwt>
</event>
<event>
 5    1  0.1431256E-002  0.1249812E+03  0.7818608E-02  0.1235099E+00
          4   -1    0    0  501    0  0.00000000000E+00  0.00000000000E+00  0.36645654155E+02  0.36667654253E+02  0.12700000000E+01 0. -1.
         -4   -1    0    0    0  501 -0.00000000000E+00 -0.00000000000E+00 -0.10650540486E+03  0.10651297650E+03  0.12700000000E+01 0. -1.
         25    2    1    2    0    0  0.00000000000E+00  0.00000000000E+00 -0.69859750702E+02  0.14318063076E+03  0.12498123161E+03 0.  0.
    9000005    1    3    3    0    0  0.31001012382E+02 -0.11807250384E+02 -0.95589223580E+02  0.10118682520E+03  0.10000000000E+01 0.  0.
    9000005    1    3    3    0    0 -0.31001012382E+02  0.11807250384E+02  0.25729472878E+02  0.41993805554E+02  0.10000000000E+01 0.  0.
<mgrwt>
<rscale>  0 0.12498123E+03</rscale>
<asrwt>0</asrwt>
<pdfrwt beam="1">  1        4 0.91651102E-02 0.12498123E+03</pdfrwt>
<pdfrwt beam="2">  1       -4 0.26630047E-01 0.12498123E+03</pdfrwt>
<totfact> 0.18887052E+03</totfact>
</mgrwt>
</event>
<event>
 5    1  0.1431256E-002  0.1250009E+03  0.7818608E-02  0.1235068E+00
          4   -1    0    0  501    0  0.00000000000E+00  0.00000000000E+00  0.58131823694E+02  0.58145694819E+02  0.12700000000E+01 0.  1.
         -4   -1    0    0    0  501 -0.00000000000E+00 -0.00000000000E+00 -0.67169487707E+02  0.67181492830E+02  0.12700000000E+01 0.  1.
         25    2    1    2    0    0  0.00000000000E+00  0.00000000000E+00 -0.90376640131E+01  0.12532718765E+03  0.12500089837E+03 0.  0.
    9000005    1    3    3    0    0  0.87601751196E+01 -0.15577463135E+02  0.55519931430E+02  0.58334045050E+02  0.10000000000E+01 0.  0.
    9000005    1    3    3    0    0 -0.87601751196E+01  0.15577463135E+02 -0.64557595443E+02  0.66993142599E+02  0.10000000000E+01 0.  0.
<mgrwt>
<rscale>  0 0.12500090E+03</rscale>
<asrwt>0</asrwt>
<pdfrwt beam="1">  1        4 0.14536190E-01 0.12500090E+03</pdfrwt>
<pdfrwt beam="2">  1       -4 0.16795606E-01 0.12500090E+03</pdfrwt>
<totfact> 0.19816905E+03</totfact>
</mgrwt>
</event>
<event>
 5    1  0.1431256E-002  0.1250032E+03  0.7818608E-02  0.1235064E+00
         -4   -1    0    0    0  501 -0.00000000000E+00  0.00000000000E+00  0.30392245652E+02  0.30418768808E+02  0.12700000000E+01 0.  1.
          4   -1    0    0  501    0  0.00000000000E+00 -0.00000000000E+00 -0.12844875989E+03  0.12845503812E+03  0.12700000000E+01 0.  1.
         25    2    1    2    0    0  0.00000000000E+00  0.00000000000E+00 -0.98056514239E+02  0.15887380692E+03  0.12500322613E+03 0.  0.
    9000005    1    3    3    0    0 -0.48057275058E+02 -0.16637446090E+02 -0.95189490474E+02  0.10792750064E+03  0.10000000000E+01 0.  0.
    9000005    1    3    3    0    0  0.48057275058E+02  0.16637446090E+02 -0.28670237646E+01  0.50946306281E+02  0.10000000000E+01 0.  0.
<mgrwt>
<rscale>  0 0.12500323E+03</rscale>
<asrwt>0</asrwt>
<pdfrwt beam="2">  1        4 0.32116289E-01 0.12500323E+03</pdfrwt>
<pdfrwt beam="1">  1       -4 0.76021619E-02 0.12500323E+03</pdfrwt>
<totfact> 0.18109526E+03</totfact>
</mgrwt>
</event>
<event>
 5    1  0.1431256E-002  0.1250525E+03  0.7818608E-02  0.1234987E+00
         -4   -1    0    0    0  501 -0.00000000000E+00  0.00000000000E+00  0.78509195217E+02  0.78519466590E+02  0.12700000000E+01 0. -1.
          4   -1    0    0  501    0  0.00000000000E+00 -0.00000000000E+00 -0.49775455812E+02  0.49791654937E+02  0.12700000000E+01 0. -1.
         25    2    1    2    0    0  0.00000000000E+00  0.00000000000E+00  0.28733739405E+02  0.12831112153E+03  0.12505245350E+03 0.  0.
    9000005    1    3    3    0    0 -0.23614707808E+02  0.12951992304E+02  0.72256213150E+02  0.77119186123E+02  0.10000000000E+01 0.  0.
    9000005    1    3    3    0    0  0.23614707808E+02 -0.12951992304E+02 -0.43522473745E+02  0.51191935404E+02  0.10000000000E+01 0.  0.
<mgrwt>
<rscale>  0 0.12505245E+03</rscale>
<asrwt>0</asrwt>
<pdfrwt beam="2">  1        4 0.12447173E-01 0.12505245E+03</pdfrwt>
<pdfrwt beam="1">  1       -4 0.19630608E-01 0.12505245E+03</pdfrwt>
<totfact> 0.19631578E+03</totfact>
</mgrwt>
</event>
<event>
 5    1  0.1431256E-002  0.1249998E+03  0.7818608E-02  0.1235070E+00
          4   -1    0    0  501    0  0.00000000000E+00  0.00000000000E+00  0.20007685276E+03  0.20008088342E+03  0.12700000000E+01 0.  1.
         -4   -1    0    0    0  501 -0.00000000000E+00 -0.00000000000E+00 -0.19498809493E+02  0.19540124658E+02  0.12700000000E+01 0.  1.
         25    2    1    2    0    0  0.00000000000E+00  0.00000000000E+00  0.18057804327E+03  0.21962100808E+03  0.12499982992E+03 0.  0.
    9000005    1    3    3    0    0  0.58516881114E+02 -0.16018325544E+02  0.63968030177E+02  0.88168707676E+02  0.10000000000E+01 0.  0.
    9000005    1    3    3    0    0 -0.58516881114E+02  0.16018325544E+02  0.11661001309E+03  0.13145230041E+03  0.10000000000E+01 0.  0.
<mgrwt>
<rscale>  0 0.12499983E+03</rscale>
<asrwt>0</asrwt>
<pdfrwt beam="1">  1        4 0.50024881E-01 0.12499983E+03</pdfrwt>
<pdfrwt beam="2">  1       -4 0.48803707E-02 0.12499983E+03</pdfrwt>
<totfact> 0.15565467E+03</totfact>
</mgrwt>
</event>
<event>
 5    1  0.1431256E-002  0.1249932E+03  0.7818608E-02  0.1235080E+00
         -4   -1    0    0    0  501 -0.00000000000E+00  0.00000000000E+00  0.46405633854E+01  0.48112086355E+01  0.12700000000E+01 0. -1.
          4   -1    0    0  501    0  0.00000000000E+00 -0.00000000000E+00 -0.82630332955E+03  0.82630430552E+03  0.12700000000E+01 0. -1.
         25    2    1    2    0    0  0.00000000000E+00  0.00000000000E+00 -0.82166276617E+03  0.83111551416E+03  0.12499318611E+03 0.  0.
    9000005    1    3    3    0    0 -0.71217729404E+01 -0.56697655614E+02 -0.24268456639E+03  0.24932336947E+03  0.10000000000E+01 0.  0.
    9000005    1    3    3    0    0  0.71217729404E+01  0.56697655614E+02 -0.57897819978E+03  0.58179214469E+03  0.10000000000E+01 0.  0.
<mgrwt>
<rscale>  0 0.12499319E+03</rscale>
<asrwt>0</asrwt>
<pdfrwt beam="2">  1        4 0.20659679E+00 0.12499319E+03</pdfrwt>
<pdfrwt beam="1">  1       -4 0.11815963E-02 0.12499319E+03</pdfrwt>
<totfact> 0.49805184E+02</totfact>
</mgrwt>
</event>
<event>
 5    1  0.1431256E-002  0.1249453E+03  0.7818608E-02  0.1235155E+00
         -4   -1    0    0    0  501 -0.00000000000E+00  0.00000000000E+00  0.16496379035E+03  0.16496867892E+03  0.12700000000E+01 0. -1.
          4   -1    0    0  501    0  0.00000000000E+00 -0.00000000000E+00 -0.23636417322E+02  0.23670511693E+02  0.12700000000E+01 0. -1.
         25    2    1    2    0    0  0.00000000000E+00  0.00000000000E+00  0.14132737303E+03  0.18863919062E+03  0.12494525949E+03 0.  0.
    9000005    1    3    3    0    0  0.60596136030E+02  0.95019884401E+01  0.52822136480E+02  0.80952810874E+02  0.10000000000E+01 0.  0.
    9000005    1    3    3    0    0 -0.60596136030E+02 -0.95019884401E+01  0.88505236545E+02  0.10768637974E+03  0.10000000000E+01 0.  0.
<mgrwt>
<rscale>  0 0.12494526E+03</rscale>
<asrwt>0</asrwt>
<pdfrwt beam="2">  1        4 0.59139773E-02 0.12494526E+03</pdfrwt>
<pdfrwt beam="1">  1       -4 0.41245820E-01 0.12494526E+03</pdfrwt>
<totfact> 0.16808579E+03</totfact>
</mgrwt>
</event>
<event>
 5    1  0.1431256E-002  0.1249993E+03  0.7818608E-02  0.1235070E+00
         -4   -1    0    0    0  501 -0.00000000000E+00  0.00000000000E+00  0.98575802181E+02  0.98583982855E+02  0.12700000000E+01 0.  1.
          4   -1    0    0  501    0  0.00000000000E+00 -0.00000000000E+00 -0.39606442684E+02  0.39626799039E+02  0.12700000000E+01 0.  1.
         25    2    1    2    0    0  0.00000000000E+00  0.00000000000E+00  0.58969359497E+02  0.13821078189E+03  0.12499933949E+03 0.  0.
    9000005    1    3    3    0    0 -0.47662215161E+02 -0.39330457279E+02  0.39776356678E+02  0.73496463687E+02  0.10000000000E+01 0.  0.
    9000005    1    3    3    0    0  0.47662215161E+02  0.39330457279E+02  0.19193002819E+02  0.64714318207E+02  0.10000000000E+01 0.  0.
<mgrwt>
<rscale>  0 0.12499934E+03</rscale>
<asrwt>0</asrwt>
<pdfrwt beam="2">  1        4 0.99051778E-02 0.12499934E+03</pdfrwt>
<pdfrwt beam="1">  1       -4 0.24647518E-01 0.12499934E+03</pdfrwt>
<totfact> 0.19132548E+03</totfact>
</mgrwt>
</event>
<event>
 5    1  0.1431256E-002  0.1250063E+03  0.7818608E-02  0.1235059E+00
         -4   -1    0    0    0  501 -0.00000000000E+00  0.00000000000E+00  0.16213617891E+03  0.16214115274E+03  0.12700000000E+01 0.  1.
          4   -1    0    0  501    0  0.00000000000E+00 -0.00000000000E+00 -0.24072744361E+02  0.24106221626E+02  0.12700000000E+01 0.  1.
         25    2    1    2    0    0  0.00000000000E+00  0.00000000000E+00  0.13806343455E+03  0.18624737436E+03  0.12500628983E+03 0.  0.
    9000005    1    3    3    0    0  0.33412552197E+02  0.28755143783E-01  0.14771845136E+03  0.15145342632E+03  0.10000000000E+01 0.  0.
    9000005    1    3    3    0    0 -0.33412552197E+02 -0.28755143783E-01 -0.96550168099E+01  0.34793948048E+02  0.10000000000E+01 0.  0.
<mgrwt>
<rscale>  0 0.12500629E+03</rscale>
<asrwt>0</asrwt>
<pdfrwt beam="2">  1        4 0.60229925E-02 0.12500629E+03</pdfrwt>
<pdfrwt beam="1">  1       -4 0.40538851E-01 0.12500629E+03</pdfrwt>
<totfact> 0.16885484E+03</totfact>
</mgrwt>
</event>
<event>
 5    1  0.1431256E-002  0.1250004E+03  0.7818608E-02  0.1235069E+00
         -4   -1    0    0    0  501 -0.00000000000E+00  0.00000000000E+00  0.10757045000E+02  0.10831755035E+02  0.12700000000E+01 0. -1.
          4   -1    0    0  501    0  0.00000000000E+00 -0.00000000000E+00 -0.36180373340E+03  0.36180596237E+03  0.12700000000E+01 0. -1.
         25    2    1    2    0    0  0.00000000000E+00  0.00000000000E+00 -0.35104668840E+03  0.37263771740E+03  0.12500036397E+03 0.  0.
    9000005    1    3    3    0    0  0.38078272398E+02  0.16898887592E+02 -0.31438423062E+03  0.31713399644E+03  0.10000000000E+01 0.  0.
    9000005    1    3    3    0    0 -0.38078272398E+02 -0.16898887592E+02 -0.36662457777E+02  0.55503720964E+02  0.10000000000E+01 0.  0.
<mgrwt>
<rscale>  0 0.12500036E+03</rscale>
<asrwt>0</asrwt>
<pdfrwt beam="2">  1        4 0.90460510E-01 0.12500036E+03</pdfrwt>
<pdfrwt beam="1">  1       -4 0.26988798E-02 0.12500036E+03</pdfrwt>
<totfact> 0.11155331E+03</totfact>
</mgrwt>
</event>
<event>
 5    1  0.1431256E-002  0.1250007E+03  0.7818608E-02  0.1235068E+00
          4   -1    0    0  501    0  0.00000000000E+00  0.00000000000E+00  0.38154320594E+02  0.38175451275E+02  0.12700000000E+01 0. -1.
         -4   -1    0    0    0  501 -0.00000000000E+00 -0.00000000000E+00 -0.10232802625E+03  0.10233590697E+03  0.12700000000E+01 0. -1.
         25    2    1    2    0    0  0.00000000000E+00  0.00000000000E+00 -0.64173705654E+02  0.14051135825E+03  0.12500070919E+03 0.  0.
    9000005    1    3    3    0    0  0.46794871058E+02  0.34523693135E+02 -0.63640027933E+01  0.58507656563E+02  0.10000000000E+01 0.  0.
    9000005    1    3    3    0    0 -0.46794871058E+02 -0.34523693135E+02 -0.57809702861E+02  0.82003701683E+02  0.10000000000E+01 0.  0.
<mgrwt>
<rscale>  0 0.12500071E+03</rscale>
<asrwt>0</asrwt>
<pdfrwt beam="1">  1        4 0.95422068E-02 0.12500071E+03</pdfrwt>
<pdfrwt beam="2">  1       -4 0.25585632E-01 0.12500071E+03</pdfrwt>
<totfact> 0.19013898E+03</totfact>
</mgrwt>
</event>
<event>
 5    1  0.1431256E-002  0.1249811E+03  0.7818608E-02  0.1235099E+00
         -4   -1    0    0    0  501 -0.00000000000E+00  0.00000000000E+00  0.18441363122E+02  0.18485041894E+02  0.12700000000E+01 0.  1.
          4   -1    0    0  501    0  0.00000000000E+00 -0.00000000000E+00 -0.21145975867E+03  0.21146357237E+03  0.12700000000E+01 0.  1.
         25    2    1    2    0    0  0.00000000000E+00  0.00000000000E+00 -0.19301839555E+03  0.22994861426E+03  0.12498105528E+03 0.  0.
    9000005    1    3    3    0    0 -0.37773757024E+02 -0.45081685611E+02 -0.57703645430E+02  0.82401006020E+02  0.10000000000E+01 0.  0.
    9000005    1    3    3    0    0  0.37773757024E+02  0.45081685611E+02 -0.13531475012E+03  0.14754760824E+03  0.10000000000E+01 0.  0.
<mgrwt>
<rscale>  0 0.12498106E+03</rscale>
<asrwt>0</asrwt>
<pdfrwt beam="2">  1        4 0.52870869E-01 0.12498106E+03</pdfrwt>
<pdfrwt beam="1">  1       -4 0.46162780E-02 0.12498106E+03</pdfrwt>
<totfact> 0.15195784E+03</totfact>
</mgrwt>
</event>
<event>
 4    1  0.1431256E-002  0.1251955E+03  0.7818608E-02  0.1234764E+00
         -4   -1    0    0    0  501 -0.00000000000E+00  0.00000000000E+00  0.23798419586E+02  0.23832282199E+02  0.12700000000E+01 0. -1.
          4   -1    0    0  501    0  0.00000000000E+00 -0.00000000000E+00 -0.16449940502E+03  0.16450430740E+03  0.12700000000E+01 0. -1.
    9000005    1    1    2    0    0 -0.35620729609E+02 -0.21042093957E+02 -0.14100437900E+03  0.14695183222E+03  0.10000000000E+01 0.  0.
    9000005    1    1    2    0    0  0.35620729609E+02  0.21042093957E+02  0.30339355741E+00  0.41384757383E+02  0.10000000000E+01 0.  0.
<mgrwt>
<rscale>  0 0.12519546E+03</rscale>
<asrwt>0</asrwt>
<pdfrwt beam="2">  1        4 0.41129694E-01 0.12519546E+03</pdfrwt>
<pdfrwt beam="1">  1       -4 0.59544510E-02 0.12519546E+03</pdfrwt>
<totfact> 0.16724164E+03</totfact>
</mgrwt>
</event>
<event>
 5    1  0.1431256E-002  0.1249987E+03  0.7818608E-02  0.1235071E+00
          4   -1    0    0  501    0  0.00000000000E+00  0.00000000000E+00  0.22554643966E+02  0.22590371055E+02  0.12700000000E+01 0.  1.
         -4   -1    0    0    0  501 -0.00000000000E+00 -0.00000000000E+00 -0.17301183772E+03  0.17301649890E+03  0.12700000000E+01 0.  1.
         25    2    1    2    0    0  0.00000000000E+00  0.00000000000E+00 -0.15045719375E+03  0.19560686995E+03  0.12499872168E+03 0.  0.
    9000005    1    3    3    0    0  0.54174434759E+02  0.29606570992E+02 -0.60076663353E+02  0.86148847392E+02  0.10000000000E+01 0.  0.
    9000005    1    3    3    0    0 -0.54174434759E+02 -0.29606570992E+02 -0.90380530399E+02  0.10945802256E+03  0.10000000000E+01 0.  0.
<mgrwt>
<rscale>  0 0.12499872E+03</rscale>
<asrwt>0</asrwt>
<pdfrwt beam="1">  1        4 0.56437100E-02 0.12499872E+03</pdfrwt>
<pdfrwt beam="2">  1       -4 0.43258004E-01 0.12499872E+03</pdfrwt>
<totfact> 0.16499962E+03</totfact>
</mgrwt>
</event>
<event>
 5    1  0.1431256E-002  0.1250124E+03  0.7818608E-02  0.1235050E+00
         -4   -1    0    0    0  501 -0.00000000000E+00  0.00000000000E+00  0.11393359582E+03  0.11394067385E+03  0.12700000000E+01 0.  1.
          4   -1    0    0  501    0  0.00000000000E+00 -0.00000000000E+00 -0.34272232020E+02  0.34295754660E+02  0.12700000000E+01 0.  1.
         25    2    1    2    0    0  0.00000000000E+00  0.00000000000E+00  0.79661363804E+02  0.14823642851E+03  0.12501242280E+03 0.  0.
    9000005    1    3    3    0    0 -0.34466868658E+02  0.24506568995E+02  0.94395461336E+02  0.10344099806E+03  0.10000000000E+01 0.  0.
    9000005    1    3    3    0    0  0.34466868658E+02 -0.24506568995E+02 -0.14734097532E+02  0.44795430449E+02  0.10000000000E+01 0.  0.
<mgrwt>
<rscale>  0 0.12501242E+03</rscale>
<asrwt>0</asrwt>
<pdfrwt beam="2">  1        4 0.85718832E-02 0.12501242E+03</pdfrwt>
<pdfrwt beam="1">  1       -4 0.28487224E-01 0.12501242E+03</pdfrwt>
<totfact> 0.18620452E+03</totfact>
</mgrwt>
</event>
